%VERSION  VERSION_STAMP = V0001.000  DATE = 11/18/25  00:03:01                  
%FLAG TITLE                                                                     
%FORMAT(20a4)                                                                   
default_name                                                                    
%FLAG POINTERS                                                                  
%FORMAT(10I8)                                                                   
   76664       9   76641      21      45      27      88      30       0       0
  102382   25544      21      27      30       7       9       8       9       0
       0       0       0       0       0       0       0       1      39       0
       0
%FLAG ATOM_NAME                                                                 
%FORMAT(20a4)                                                                   
N   C   O   C1  N1  O1  C2  N2  O2  C3  O3  C4  O4  C5  O5  C6  C7  C8  C9  C10 
C11 HC10HC11HC12HC13HC14HC15HC16HC17HC18HC19HC2 HC3 HC4 HC5 HC6 HC7 HC8 HC9 ZN  
Na+ O   H1  H2  O   H1  H2  O   H1  H2  O   H1  H2  O   H1  H2  O   H1  H2  O   
H1  H2  O   H1  H2  O   H1  H2  O   H1  H2  O   H1  H2  O   H1  H2  O   H1  H2  
O   H1  H2  O   H1  H2  O   H1  H2  O   H1  H2  O   H1  H2  O   H1  H2  O   H1  
H2  O   H1  H2  O   H1  H2  O   H1  H2  O   H1  H2  O   H1  H2  O   H1  H2  O   
H1  H2  O   H1  H2  O   H1  H2  O   H1  H2  O   H1  H2  O   H1  H2  O   H1  H2  
O   H1  H2  O   H1  H2  O   H1  H2  O   H1  H2  O   H1  H2  O   H1  H2  O   H1  
H2  O   H1  H2  O   H1  H2  O   H1  H2  O   H1  H2  O   H1  H2  O   H1  H2  O   
H1  H2  O   H1  H2  O   H1  H2  O   H1  H2  O   H1  H2  O   H1  H2  O   H1  H2  
O   H1  H2  O   H1  H2  O   H1  H2  O   H1  H2  O   H1  H2  O   H1  H2  O   H1  
H2  O   H1  H2  O   H1  H2  O   H1  H2  O   H1  H2  O   H1  H2  O   H1  H2  O   
H1  H2  O   H1  H2  O   H1  H2  O   H1  H2  O   H1  H2  O   H1  H2  O   H1  H2  
O   H1  H2  O   H1  H2  O   H1  H2  O   H1  H2  O   H1  H2  O   H1  H2  O   H1  
H2  O   H1  H2  O   H1  H2  O   H1  H2  O   H1  H2  O   H1  H2  O   H1  H2  O   
H1  H2  O   H1  H2  O   H1  H2  O   H1  H2  O   H1  H2  O   H1  H2  O   H1  H2  
O   H1  H2  O   H1  H2  O   H1  H2  O   H1  H2  O   H1  H2  O   H1  H2  O   H1  
H2  O   H1  H2  O   H1  H2  O   H1  H2  O   H1  H2  O   H1  H2  O   H1  H2  O   
H1  H2  O   H1  H2  O   H1  H2  O   H1  H2  O   H1  H2  O   H1  H2  O   H1  H2  
O   H1  H2  O   H1  H2  O   H1  H2  O   H1  H2  O   H1  H2  O   H1  H2  O   H1  
H2  O   H1  H2  O   H1  H2  O   H1  H2  O   H1  H2  O   H1  H2  O   H1  H2  O   
H1  H2  O   H1  H2  O   H1  H2  O   H1  H2  O   H1  H2  O   H1  H2  O   H1  H2  
O   H1  H2  O   H1  H2  O   H1  H2  O   H1  H2  O   H1  H2  O   H1  H2  O   H1  
H2  O   H1  H2  O   H1  H2  O   H1  H2  O   H1  H2  O   H1  H2  O   H1  H2  O   
H1  H2  O   H1  H2  O   H1  H2  O   H1  H2  O   H1  H2  O   H1  H2  O   H1  H2  
O   H1  H2  O   H1  H2  O   H1  H2  O   H1  H2  O   H1  H2  O   H1  H2  O   H1  
H2  O   H1  H2  O   H1  H2  O   H1  H2  O   H1  H2  O   H1  H2  O   H1  H2  O   
H1  H2  O   H1  H2  O   H1  H2  O   H1  H2  O   H1  H2  O   H1  H2  O   H1  H2  
O   H1  H2  O   H1  H2  O   H1  H2  O   H1  H2  O   H1  H2  O   H1  H2  O   H1  
H2  O   H1  H2  O   H1  H2  O   H1  H2  O   H1  H2  O   H1  H2  O   H1  H2  O   
H1  H2  O   H1  H2  O   H1  H2  O   H1  H2  O   H1  H2  O   H1  H2  O   H1  H2  
O   H1  H2  O   H1  H2  O   H1  H2  O   H1  H2  O   H1  H2  O   H1  H2  O   H1  
H2  O   H1  H2  O   H1  H2  O   H1  H2  O   H1  H2  O   H1  H2  O   H1  H2  O   
H1  H2  O   H1  H2  O   H1  H2  O   H1  H2  O   H1  H2  O   H1  H2  O   H1  H2  
O   H1  H2  O   H1  H2  O   H1  H2  O   H1  H2  O   H1  H2  O   H1  H2  O   H1  
H2  O   H1  H2  O   H1  H2  O   H1  H2  O   H1  H2  O   H1  H2  O   H1  H2  O   
H1  H2  O   H1  H2  O   H1  H2  O   H1  H2  O   H1  H2  O   H1  H2  O   H1  H2  
O   H1  H2  O   H1  H2  O   H1  H2  O   H1  H2  O   H1  H2  O   H1  H2  O   H1  
H2  O   H1  H2  O   H1  H2  O   H1  H2  O   H1  H2  O   H1  H2  O   H1  H2  O   
H1  H2  O   H1  H2  O   H1  H2  O   H1  H2  O   H1  H2  O   H1  H2  O   H1  H2  
O   H1  H2  O   H1  H2  O   H1  H2  O   H1  H2  O   H1  H2  O   H1  H2  O   H1  
H2  O   H1  H2  O   H1  H2  O   H1  H2  O   H1  H2  O   H1  H2  O   H1  H2  O   
H1  H2  O   H1  H2  O   H1  H2  O   H1  H2  O   H1  H2  O   H1  H2  O   H1  H2  
O   H1  H2  O   H1  H2  O   H1  H2  O   H1  H2  O   H1  H2  O   H1  H2  O   H1  
H2  O   H1  H2  O   H1  H2  O   H1  H2  O   H1  H2  O   H1  H2  O   H1  H2  O   
H1  H2  O   H1  H2  O   H1  H2  O   H1  H2  O   H1  H2  O   H1  H2  O   H1  H2  
O   H1  H2  O   H1  H2  O   H1  H2  O   H1  H2  O   H1  H2  O   H1  H2  O   H1  
H2  O   H1  H2  O   H1  H2  O   H1  H2  O   H1  H2  O   H1  H2  O   H1  H2  O   
H1  H2  O   H1  H2  O   H1  H2  O   H1  H2  O   H1  H2  O   H1  H2  O   H1  H2  
O   H1  H2  O   H1  H2  O   H1  H2  O   H1  H2  O   H1  H2  O   H1  H2  O   H1  
H2  O   H1  H2  O   H1  H2  O   H1  H2  O   H1  H2  O   H1  H2  O   H1  H2  O   
H1  H2  O   H1  H2  O   H1  H2  O   H1  H2  O   H1  H2  O   H1  H2  O   H1  H2  
O   H1  H2  O   H1  H2  O   H1  H2  O   H1  H2  O   H1  H2  O   H1  H2  O   H1  
H2  O   H1  H2  O   H1  H2  O   H1  H2  O   H1  H2  O   H1  H2  O   H1  H2  O   
H1  H2  O   H1  H2  O   H1  H2  O   H1  H2  O   H1  H2  O   H1  H2  O   H1  H2  
O   H1  H2  O   H1  H2  O   H1  H2  O   H1  H2  O   H1  H2  O   H1  H2  O   H1  
H2  O   H1  H2  O   H1  H2  O   H1  H2  O   H1  H2  O   H1  H2  O   H1  H2  O   
H1  H2  O   H1  H2  O   H1  H2  O   H1  H2  O   H1  H2  O   H1  H2  O   H1  H2  
O   H1  H2  O   H1  H2  O   H1  H2  O   H1  H2  O   H1  H2  O   H1  H2  O   H1  
H2  O   H1  H2  O   H1  H2  O   H1  H2  O   H1  H2  O   H1  H2  O   H1  H2  O   
H1  H2  O   H1  H2  O   H1  H2  O   H1  H2  O   H1  H2  O   H1  H2  O   H1  H2  
O   H1  H2  O   H1  H2  O   H1  H2  O   H1  H2  O   H1  H2  O   H1  H2  O   H1  
H2  O   H1  H2  O   H1  H2  O   H1  H2  O   H1  H2  O   H1  H2  O   H1  H2  O   
H1  H2  O   H1  H2  O   H1  H2  O   H1  H2  O   H1  H2  O   H1  H2  O   H1  H2  
O   H1  H2  O   H1  H2  O   H1  H2  O   H1  H2  O   H1  H2  O   H1  H2  O   H1  
H2  O   H1  H2  O   H1  H2  O   H1  H2  O   H1  H2  O   H1  H2  O   H1  H2  O   
H1  H2  O   H1  H2  O   H1  H2  O   H1  H2  O   H1  H2  O   H1  H2  O   H1  H2  
O   H1  H2  O   H1  H2  O   H1  H2  O   H1  H2  O   H1  H2  O   H1  H2  O   H1  
H2  O   H1  H2  O   H1  H2  O   H1  H2  O   H1  H2  O   H1  H2  O   H1  H2  O   
H1  H2  O   H1  H2  O   H1  H2  O   H1  H2  O   H1  H2  O   H1  H2  O   H1  H2  
O   H1  H2  O   H1  H2  O   H1  H2  O   H1  H2  O   H1  H2  O   H1  H2  O   H1  
H2  O   H1  H2  O   H1  H2  O   H1  H2  O   H1  H2  O   H1  H2  O   H1  H2  O   
H1  H2  O   H1  H2  O   H1  H2  O   H1  H2  O   H1  H2  O   H1  H2  O   H1  H2  
O   H1  H2  O   H1  H2  O   H1  H2  O   H1  H2  O   H1  H2  O   H1  H2  O   H1  
H2  O   H1  H2  O   H1  H2  O   H1  H2  O   H1  H2  O   H1  H2  O   H1  H2  O   
H1  H2  O   H1  H2  O   H1  H2  O   H1  H2  O   H1  H2  O   H1  H2  O   H1  H2  
O   H1  H2  O   H1  H2  O   H1  H2  O   H1  H2  O   H1  H2  O   H1  H2  O   H1  
H2  O   H1  H2  O   H1  H2  O   H1  H2  O   H1  H2  O   H1  H2  O   H1  H2  O   
H1  H2  O   H1  H2  O   H1  H2  O   H1  H2  O   H1  H2  O   H1  H2  O   H1  H2  
O   H1  H2  O   H1  H2  O   H1  H2  O   H1  H2  O   H1  H2  O   H1  H2  O   H1  
H2  O   H1  H2  O   H1  H2  O   H1  H2  O   H1  H2  O   H1  H2  O   H1  H2  O   
H1  H2  O   H1  H2  O   H1  H2  O   H1  H2  O   H1  H2  O   H1  H2  O   H1  H2  
O   H1  H2  O   H1  H2  O   H1  H2  O   H1  H2  O   H1  H2  O   H1  H2  O   H1  
H2  O   H1  H2  O   H1  H2  O   H1  H2  O   H1  H2  O   H1  H2  O   H1  H2  O   
H1  H2  O   H1  H2  O   H1  H2  O   H1  H2  O   H1  H2  O   H1  H2  O   H1  H2  
O   H1  H2  O   H1  H2  O   H1  H2  O   H1  H2  O   H1  H2  O   H1  H2  O   H1  
H2  O   H1  H2  O   H1  H2  O   H1  H2  O   H1  H2  O   H1  H2  O   H1  H2  O   
H1  H2  O   H1  H2  O   H1  H2  O   H1  H2  O   H1  H2  O   H1  H2  O   H1  H2  
O   H1  H2  O   H1  H2  O   H1  H2  O   H1  H2  O   H1  H2  O   H1  H2  O   H1  
H2  O   H1  H2  O   H1  H2  O   H1  H2  O   H1  H2  O   H1  H2  O   H1  H2  O   
H1  H2  O   H1  H2  O   H1  H2  O   H1  H2  O   H1  H2  O   H1  H2  O   H1  H2  
O   H1  H2  O   H1  H2  O   H1  H2  O   H1  H2  O   H1  H2  O   H1  H2  O   H1  
H2  O   H1  H2  O   H1  H2  O   H1  H2  O   H1  H2  O   H1  H2  O   H1  H2  O   
H1  H2  O   H1  H2  O   H1  H2  O   H1  H2  O   H1  H2  O   H1  H2  O   H1  H2  
O   H1  H2  O   H1  H2  O   H1  H2  O   H1  H2  O   H1  H2  O   H1  H2  O   H1  
H2  O   H1  H2  O   H1  H2  O   H1  H2  O   H1  H2  O   H1  H2  O   H1  H2  O   
H1  H2  O   H1  H2  O   H1  H2  O   H1  H2  O   H1  H2  O   H1  H2  O   H1  H2  
O   H1  H2  O   H1  H2  O   H1  H2  O   H1  H2  O   H1  H2  O   H1  H2  O   H1  
H2  O   H1  H2  O   H1  H2  O   H1  H2  O   H1  H2  O   H1  H2  O   H1  H2  O   
H1  H2  O   H1  H2  O   H1  H2  O   H1  H2  O   H1  H2  O   H1  H2  O   H1  H2  
O   H1  H2  O   H1  H2  O   H1  H2  O   H1  H2  O   H1  H2  O   H1  H2  O   H1  
H2  O   H1  H2  O   H1  H2  O   H1  H2  O   H1  H2  O   H1  H2  O   H1  H2  O   
H1  H2  O   H1  H2  O   H1  H2  O   H1  H2  O   H1  H2  O   H1  H2  O   H1  H2  
O   H1  H2  O   H1  H2  O   H1  H2  O   H1  H2  O   H1  H2  O   H1  H2  O   H1  
H2  O   H1  H2  O   H1  H2  O   H1  H2  O   H1  H2  O   H1  H2  O   H1  H2  O   
H1  H2  O   H1  H2  O   H1  H2  O   H1  H2  O   H1  H2  O   H1  H2  O   H1  H2  
O   H1  H2  O   H1  H2  O   H1  H2  O   H1  H2  O   H1  H2  O   H1  H2  O   H1  
H2  O   H1  H2  O   H1  H2  O   H1  H2  O   H1  H2  O   H1  H2  O   H1  H2  O   
H1  H2  O   H1  H2  O   H1  H2  O   H1  H2  O   H1  H2  O   H1  H2  O   H1  H2  
O   H1  H2  O   H1  H2  O   H1  H2  O   H1  H2  O   H1  H2  O   H1  H2  O   H1  
H2  O   H1  H2  O   H1  H2  O   H1  H2  O   H1  H2  O   H1  H2  O   H1  H2  O   
H1  H2  O   H1  H2  O   H1  H2  O   H1  H2  O   H1  H2  O   H1  H2  O   H1  H2  
O   H1  H2  O   H1  H2  O   H1  H2  O   H1  H2  O   H1  H2  O   H1  H2  O   H1  
H2  O   H1  H2  O   H1  H2  O   H1  H2  O   H1  H2  O   H1  H2  O   H1  H2  O   
H1  H2  O   H1  H2  O   H1  H2  O   H1  H2  O   H1  H2  O   H1  H2  O   H1  H2  
O   H1  H2  O   H1  H2  O   H1  H2  O   H1  H2  O   H1  H2  O   H1  H2  O   H1  
H2  O   H1  H2  O   H1  H2  O   H1  H2  O   H1  H2  O   H1  H2  O   H1  H2  O   
H1  H2  O   H1  H2  O   H1  H2  O   H1  H2  O   H1  H2  O   H1  H2  O   H1  H2  
O   H1  H2  O   H1  H2  O   H1  H2  O   H1  H2  O   H1  H2  O   H1  H2  O   H1  
H2  O   H1  H2  O   H1  H2  O   H1  H2  O   H1  H2  O   H1  H2  O   H1  H2  O   
H1  H2  O   H1  H2  O   H1  H2  O   H1  H2  O   H1  H2  O   H1  H2  O   H1  H2  
O   H1  H2  O   H1  H2  O   H1  H2  O   H1  H2  O   H1  H2  O   H1  H2  O   H1  
H2  O   H1  H2  O   H1  H2  O   H1  H2  O   H1  H2  O   H1  H2  O   H1  H2  O   
H1  H2  O   H1  H2  O   H1  H2  O   H1  H2  O   H1  H2  O   H1  H2  O   H1  H2  
O   H1  H2  O   H1  H2  O   H1  H2  O   H1  H2  O   H1  H2  O   H1  H2  O   H1  
H2  O   H1  H2  O   H1  H2  O   H1  H2  O   H1  H2  O   H1  H2  O   H1  H2  O   
H1  H2  O   H1  H2  O   H1  H2  O   H1  H2  O   H1  H2  O   H1  H2  O   H1  H2  
O   H1  H2  O   H1  H2  O   H1  H2  O   H1  H2  O   H1  H2  O   H1  H2  O   H1  
H2  O   H1  H2  O   H1  H2  O   H1  H2  O   H1  H2  O   H1  H2  O   H1  H2  O   
H1  H2  O   H1  H2  O   H1  H2  O   H1  H2  O   H1  H2  O   H1  H2  O   H1  H2  
O   H1  H2  O   H1  H2  O   H1  H2  O   H1  H2  O   H1  H2  O   H1  H2  O   H1  
H2  O   H1  H2  O   H1  H2  O   H1  H2  O   H1  H2  O   H1  H2  O   H1  H2  O   
H1  H2  O   H1  H2  O   H1  H2  O   H1  H2  O   H1  H2  O   H1  H2  O   H1  H2  
O   H1  H2  O   H1  H2  O   H1  H2  O   H1  H2  O   H1  H2  O   H1  H2  O   H1  
H2  O   H1  H2  O   H1  H2  O   H1  H2  O   H1  H2  O   H1  H2  O   H1  H2  O   
H1  H2  O   H1  H2  O   H1  H2  O   H1  H2  O   H1  H2  O   H1  H2  O   H1  H2  
O   H1  H2  O   H1  H2  O   H1  H2  O   H1  H2  O   H1  H2  O   H1  H2  O   H1  
H2  O   H1  H2  O   H1  H2  O   H1  H2  O   H1  H2  O   H1  H2  O   H1  H2  O   
H1  H2  O   H1  H2  O   H1  H2  O   H1  H2  O   H1  H2  O   H1  H2  O   H1  H2  
O   H1  H2  O   H1  H2  O   H1  H2  O   H1  H2  O   H1  H2  O   H1  H2  O   H1  
H2  O   H1  H2  O   H1  H2  O   H1  H2  O   H1  H2  O   H1  H2  O   H1  H2  O   
H1  H2  O   H1  H2  O   H1  H2  O   H1  H2  O   H1  H2  O   H1  H2  O   H1  H2  
O   H1  H2  O   H1  H2  O   H1  H2  O   H1  H2  O   H1  H2  O   H1  H2  O   H1  
H2  O   H1  H2  O   H1  H2  O   H1  H2  O   H1  H2  O   H1  H2  O   H1  H2  O   
H1  H2  O   H1  H2  O   H1  H2  O   H1  H2  O   H1  H2  O   H1  H2  O   H1  H2  
O   H1  H2  O   H1  H2  O   H1  H2  O   H1  H2  O   H1  H2  O   H1  H2  O   H1  
H2  O   H1  H2  O   H1  H2  O   H1  H2  O   H1  H2  O   H1  H2  O   H1  H2  O   
H1  H2  O   H1  H2  O   H1  H2  O   H1  H2  O   H1  H2  O   H1  H2  O   H1  H2  
O   H1  H2  O   H1  H2  O   H1  H2  O   H1  H2  O   H1  H2  O   H1  H2  O   H1  
H2  O   H1  H2  O   H1  H2  O   H1  H2  O   H1  H2  O   H1  H2  O   H1  H2  O   
H1  H2  O   H1  H2  O   H1  H2  O   H1  H2  O   H1  H2  O   H1  H2  O   H1  H2  
O   H1  H2  O   H1  H2  O   H1  H2  O   H1  H2  O   H1  H2  O   H1  H2  O   H1  
H2  O   H1  H2  O   H1  H2  O   H1  H2  O   H1  H2  O   H1  H2  O   H1  H2  O   
H1  H2  O   H1  H2  O   H1  H2  O   H1  H2  O   H1  H2  O   H1  H2  O   H1  H2  
O   H1  H2  O   H1  H2  O   H1  H2  O   H1  H2  O   H1  H2  O   H1  H2  O   H1  
H2  O   H1  H2  O   H1  H2  O   H1  H2  O   H1  H2  O   H1  H2  O   H1  H2  O   
H1  H2  O   H1  H2  O   H1  H2  O   H1  H2  O   H1  H2  O   H1  H2  O   H1  H2  
O   H1  H2  O   H1  H2  O   H1  H2  O   H1  H2  O   H1  H2  O   H1  H2  O   H1  
H2  O   H1  H2  O   H1  H2  O   H1  H2  O   H1  H2  O   H1  H2  O   H1  H2  O   
H1  H2  O   H1  H2  O   H1  H2  O   H1  H2  O   H1  H2  O   H1  H2  O   H1  H2  
O   H1  H2  O   H1  H2  O   H1  H2  O   H1  H2  O   H1  H2  O   H1  H2  O   H1  
H2  O   H1  H2  O   H1  H2  O   H1  H2  O   H1  H2  O   H1  H2  O   H1  H2  O   
H1  H2  O   H1  H2  O   H1  H2  O   H1  H2  O   H1  H2  O   H1  H2  O   H1  H2  
O   H1  H2  O   H1  H2  O   H1  H2  O   H1  H2  O   H1  H2  O   H1  H2  O   H1  
H2  O   H1  H2  O   H1  H2  O   H1  H2  O   H1  H2  O   H1  H2  O   H1  H2  O   
H1  H2  O   H1  H2  O   H1  H2  O   H1  H2  O   H1  H2  O   H1  H2  O   H1  H2  
O   H1  H2  O   H1  H2  O   H1  H2  O   H1  H2  O   H1  H2  O   H1  H2  O   H1  
H2  O   H1  H2  O   H1  H2  O   H1  H2  O   H1  H2  O   H1  H2  O   H1  H2  O   
H1  H2  O   H1  H2  O   H1  H2  O   H1  H2  O   H1  H2  O   H1  H2  O   H1  H2  
O   H1  H2  O   H1  H2  O   H1  H2  O   H1  H2  O   H1  H2  O   H1  H2  O   H1  
H2  O   H1  H2  O   H1  H2  O   H1  H2  O   H1  H2  O   H1  H2  O   H1  H2  O   
H1  H2  O   H1  H2  O   H1  H2  O   H1  H2  O   H1  H2  O   H1  H2  O   H1  H2  
O   H1  H2  O   H1  H2  O   H1  H2  O   H1  H2  O   H1  H2  O   H1  H2  O   H1  
H2  O   H1  H2  O   H1  H2  O   H1  H2  O   H1  H2  O   H1  H2  O   H1  H2  O   
H1  H2  O   H1  H2  O   H1  H2  O   H1  H2  O   H1  H2  O   H1  H2  O   H1  H2  
O   H1  H2  O   H1  H2  O   H1  H2  O   H1  H2  O   H1  H2  O   H1  H2  O   H1  
H2  O   H1  H2  O   H1  H2  O   H1  H2  O   H1  H2  O   H1  H2  O   H1  H2  O   
H1  H2  O   H1  H2  O   H1  H2  O   H1  H2  O   H1  H2  O   H1  H2  O   H1  H2  
O   H1  H2  O   H1  H2  O   H1  H2  O   H1  H2  O   H1  H2  O   H1  H2  O   H1  
H2  O   H1  H2  O   H1  H2  O   H1  H2  O   H1  H2  O   H1  H2  O   H1  H2  O   
H1  H2  O   H1  H2  O   H1  H2  O   H1  H2  O   H1  H2  O   H1  H2  O   H1  H2  
O   H1  H2  O   H1  H2  O   H1  H2  O   H1  H2  O   H1  H2  O   H1  H2  O   H1  
H2  O   H1  H2  O   H1  H2  O   H1  H2  O   H1  H2  O   H1  H2  O   H1  H2  O   
H1  H2  O   H1  H2  O   H1  H2  O   H1  H2  O   H1  H2  O   H1  H2  O   H1  H2  
O   H1  H2  O   H1  H2  O   H1  H2  O   H1  H2  O   H1  H2  O   H1  H2  O   H1  
H2  O   H1  H2  O   H1  H2  O   H1  H2  O   H1  H2  O   H1  H2  O   H1  H2  O   
H1  H2  O   H1  H2  O   H1  H2  O   H1  H2  O   H1  H2  O   H1  H2  O   H1  H2  
O   H1  H2  O   H1  H2  O   H1  H2  O   H1  H2  O   H1  H2  O   H1  H2  O   H1  
H2  O   H1  H2  O   H1  H2  O   H1  H2  O   H1  H2  O   H1  H2  O   H1  H2  O   
H1  H2  O   H1  H2  O   H1  H2  O   H1  H2  O   H1  H2  O   H1  H2  O   H1  H2  
O   H1  H2  O   H1  H2  O   H1  H2  O   H1  H2  O   H1  H2  O   H1  H2  O   H1  
H2  O   H1  H2  O   H1  H2  O   H1  H2  O   H1  H2  O   H1  H2  O   H1  H2  O   
H1  H2  O   H1  H2  O   H1  H2  O   H1  H2  O   H1  H2  O   H1  H2  O   H1  H2  
O   H1  H2  O   H1  H2  O   H1  H2  O   H1  H2  O   H1  H2  O   H1  H2  O   H1  
H2  O   H1  H2  O   H1  H2  O   H1  H2  O   H1  H2  O   H1  H2  O   H1  H2  O   
H1  H2  O   H1  H2  O   H1  H2  O   H1  H2  O   H1  H2  O   H1  H2  O   H1  H2  
O   H1  H2  O   H1  H2  O   H1  H2  O   H1  H2  O   H1  H2  O   H1  H2  O   H1  
H2  O   H1  H2  O   H1  H2  O   H1  H2  O   H1  H2  O   H1  H2  O   H1  H2  O   
H1  H2  O   H1  H2  O   H1  H2  O   H1  H2  O   H1  H2  O   H1  H2  O   H1  H2  
O   H1  H2  O   H1  H2  O   H1  H2  O   H1  H2  O   H1  H2  O   H1  H2  O   H1  
H2  O   H1  H2  O   H1  H2  O   H1  H2  O   H1  H2  O   H1  H2  O   H1  H2  O   
H1  H2  O   H1  H2  O   H1  H2  O   H1  H2  O   H1  H2  O   H1  H2  O   H1  H2  
O   H1  H2  O   H1  H2  O   H1  H2  O   H1  H2  O   H1  H2  O   H1  H2  O   H1  
H2  O   H1  H2  O   H1  H2  O   H1  H2  O   H1  H2  O   H1  H2  O   H1  H2  O   
H1  H2  O   H1  H2  O   H1  H2  O   H1  H2  O   H1  H2  O   H1  H2  O   H1  H2  
O   H1  H2  O   H1  H2  O   H1  H2  O   H1  H2  O   H1  H2  O   H1  H2  O   H1  
H2  O   H1  H2  O   H1  H2  O   H1  H2  O   H1  H2  O   H1  H2  O   H1  H2  O   
H1  H2  O   H1  H2  O   H1  H2  O   H1  H2  O   H1  H2  O   H1  H2  O   H1  H2  
O   H1  H2  O   H1  H2  O   H1  H2  O   H1  H2  O   H1  H2  O   H1  H2  O   H1  
H2  O   H1  H2  O   H1  H2  O   H1  H2  O   H1  H2  O   H1  H2  O   H1  H2  O   
H1  H2  O   H1  H2  O   H1  H2  O   H1  H2  O   H1  H2  O   H1  H2  O   H1  H2  
O   H1  H2  O   H1  H2  O   H1  H2  O   H1  H2  O   H1  H2  O   H1  H2  O   H1  
H2  O   H1  H2  O   H1  H2  O   H1  H2  O   H1  H2  O   H1  H2  O   H1  H2  O   
H1  H2  O   H1  H2  O   H1  H2  O   H1  H2  O   H1  H2  O   H1  H2  O   H1  H2  
O   H1  H2  O   H1  H2  O   H1  H2  O   H1  H2  O   H1  H2  O   H1  H2  O   H1  
H2  O   H1  H2  O   H1  H2  O   H1  H2  O   H1  H2  O   H1  H2  O   H1  H2  O   
H1  H2  O   H1  H2  O   H1  H2  O   H1  H2  O   H1  H2  O   H1  H2  O   H1  H2  
O   H1  H2  O   H1  H2  O   H1  H2  O   H1  H2  O   H1  H2  O   H1  H2  O   H1  
H2  O   H1  H2  O   H1  H2  O   H1  H2  O   H1  H2  O   H1  H2  O   H1  H2  O   
H1  H2  O   H1  H2  O   H1  H2  O   H1  H2  O   H1  H2  O   H1  H2  O   H1  H2  
O   H1  H2  O   H1  H2  O   H1  H2  O   H1  H2  O   H1  H2  O   H1  H2  O   H1  
H2  O   H1  H2  O   H1  H2  O   H1  H2  O   H1  H2  O   H1  H2  O   H1  H2  O   
H1  H2  O   H1  H2  O   H1  H2  O   H1  H2  O   H1  H2  O   H1  H2  O   H1  H2  
O   H1  H2  O   H1  H2  O   H1  H2  O   H1  H2  O   H1  H2  O   H1  H2  O   H1  
H2  O   H1  H2  O   H1  H2  O   H1  H2  O   H1  H2  O   H1  H2  O   H1  H2  O   
H1  H2  O   H1  H2  O   H1  H2  O   H1  H2  O   H1  H2  O   H1  H2  O   H1  H2  
O   H1  H2  O   H1  H2  O   H1  H2  O   H1  H2  O   H1  H2  O   H1  H2  O   H1  
H2  O   H1  H2  O   H1  H2  O   H1  H2  O   H1  H2  O   H1  H2  O   H1  H2  O   
H1  H2  O   H1  H2  O   H1  H2  O   H1  H2  O   H1  H2  O   H1  H2  O   H1  H2  
O   H1  H2  O   H1  H2  O   H1  H2  O   H1  H2  O   H1  H2  O   H1  H2  O   H1  
H2  O   H1  H2  O   H1  H2  O   H1  H2  O   H1  H2  O   H1  H2  O   H1  H2  O   
H1  H2  O   H1  H2  O   H1  H2  O   H1  H2  O   H1  H2  O   H1  H2  O   H1  H2  
O   H1  H2  O   H1  H2  O   H1  H2  O   H1  H2  O   H1  H2  O   H1  H2  O   H1  
H2  O   H1  H2  O   H1  H2  O   H1  H2  O   H1  H2  O   H1  H2  O   H1  H2  O   
H1  H2  O   H1  H2  O   H1  H2  O   H1  H2  O   H1  H2  O   H1  H2  O   H1  H2  
O   H1  H2  O   H1  H2  O   H1  H2  O   H1  H2  O   H1  H2  O   H1  H2  O   H1  
H2  O   H1  H2  O   H1  H2  O   H1  H2  O   H1  H2  O   H1  H2  O   H1  H2  O   
H1  H2  O   H1  H2  O   H1  H2  O   H1  H2  O   H1  H2  O   H1  H2  O   H1  H2  
O   H1  H2  O   H1  H2  O   H1  H2  O   H1  H2  O   H1  H2  O   H1  H2  O   H1  
H2  O   H1  H2  O   H1  H2  O   H1  H2  O   H1  H2  O   H1  H2  O   H1  H2  O   
H1  H2  O   H1  H2  O   H1  H2  O   H1  H2  O   H1  H2  O   H1  H2  O   H1  H2  
O   H1  H2  O   H1  H2  O   H1  H2  O   H1  H2  O   H1  H2  O   H1  H2  O   H1  
H2  O   H1  H2  O   H1  H2  O   H1  H2  O   H1  H2  O   H1  H2  O   H1  H2  O   
H1  H2  O   H1  H2  O   H1  H2  O   H1  H2  O   H1  H2  O   H1  H2  O   H1  H2  
O   H1  H2  O   H1  H2  O   H1  H2  O   H1  H2  O   H1  H2  O   H1  H2  O   H1  
H2  O   H1  H2  O   H1  H2  O   H1  H2  O   H1  H2  O   H1  H2  O   H1  H2  O   
H1  H2  O   H1  H2  O   H1  H2  O   H1  H2  O   H1  H2  O   H1  H2  O   H1  H2  
O   H1  H2  O   H1  H2  O   H1  H2  O   H1  H2  O   H1  H2  O   H1  H2  O   H1  
H2  O   H1  H2  O   H1  H2  O   H1  H2  O   H1  H2  O   H1  H2  O   H1  H2  O   
H1  H2  O   H1  H2  O   H1  H2  O   H1  H2  O   H1  H2  O   H1  H2  O   H1  H2  
O   H1  H2  O   H1  H2  O   H1  H2  O   H1  H2  O   H1  H2  O   H1  H2  O   H1  
H2  O   H1  H2  O   H1  H2  O   H1  H2  O   H1  H2  O   H1  H2  O   H1  H2  O   
H1  H2  O   H1  H2  O   H1  H2  O   H1  H2  O   H1  H2  O   H1  H2  O   H1  H2  
O   H1  H2  O   H1  H2  O   H1  H2  O   H1  H2  O   H1  H2  O   H1  H2  O   H1  
H2  O   H1  H2  O   H1  H2  O   H1  H2  O   H1  H2  O   H1  H2  O   H1  H2  O   
H1  H2  O   H1  H2  O   H1  H2  O   H1  H2  O   H1  H2  O   H1  H2  O   H1  H2  
O   H1  H2  O   H1  H2  O   H1  H2  O   H1  H2  O   H1  H2  O   H1  H2  O   H1  
H2  O   H1  H2  O   H1  H2  O   H1  H2  O   H1  H2  O   H1  H2  O   H1  H2  O   
H1  H2  O   H1  H2  O   H1  H2  O   H1  H2  O   H1  H2  O   H1  H2  O   H1  H2  
O   H1  H2  O   H1  H2  O   H1  H2  O   H1  H2  O   H1  H2  O   H1  H2  O   H1  
H2  O   H1  H2  O   H1  H2  O   H1  H2  O   H1  H2  O   H1  H2  O   H1  H2  O   
H1  H2  O   H1  H2  O   H1  H2  O   H1  H2  O   H1  H2  O   H1  H2  O   H1  H2  
O   H1  H2  O   H1  H2  O   H1  H2  O   H1  H2  O   H1  H2  O   H1  H2  O   H1  
H2  O   H1  H2  O   H1  H2  O   H1  H2  O   H1  H2  O   H1  H2  O   H1  H2  O   
H1  H2  O   H1  H2  O   H1  H2  O   H1  H2  O   H1  H2  O   H1  H2  O   H1  H2  
O   H1  H2  O   H1  H2  O   H1  H2  O   H1  H2  O   H1  H2  O   H1  H2  O   H1  
H2  O   H1  H2  O   H1  H2  O   H1  H2  O   H1  H2  O   H1  H2  O   H1  H2  O   
H1  H2  O   H1  H2  O   H1  H2  O   H1  H2  O   H1  H2  O   H1  H2  O   H1  H2  
O   H1  H2  O   H1  H2  O   H1  H2  O   H1  H2  O   H1  H2  O   H1  H2  O   H1  
H2  O   H1  H2  O   H1  H2  O   H1  H2  O   H1  H2  O   H1  H2  O   H1  H2  O   
H1  H2  O   H1  H2  O   H1  H2  O   H1  H2  O   H1  H2  O   H1  H2  O   H1  H2  
O   H1  H2  O   H1  H2  O   H1  H2  O   H1  H2  O   H1  H2  O   H1  H2  O   H1  
H2  O   H1  H2  O   H1  H2  O   H1  H2  O   H1  H2  O   H1  H2  O   H1  H2  O   
H1  H2  O   H1  H2  O   H1  H2  O   H1  H2  O   H1  H2  O   H1  H2  O   H1  H2  
O   H1  H2  O   H1  H2  O   H1  H2  O   H1  H2  O   H1  H2  O   H1  H2  O   H1  
H2  O   H1  H2  O   H1  H2  O   H1  H2  O   H1  H2  O   H1  H2  O   H1  H2  O   
H1  H2  O   H1  H2  O   H1  H2  O   H1  H2  O   H1  H2  O   H1  H2  O   H1  H2  
O   H1  H2  O   H1  H2  O   H1  H2  O   H1  H2  O   H1  H2  O   H1  H2  O   H1  
H2  O   H1  H2  O   H1  H2  O   H1  H2  O   H1  H2  O   H1  H2  O   H1  H2  O   
H1  H2  O   H1  H2  O   H1  H2  O   H1  H2  O   H1  H2  O   H1  H2  O   H1  H2  
O   H1  H2  O   H1  H2  O   H1  H2  O   H1  H2  O   H1  H2  O   H1  H2  O   H1  
H2  O   H1  H2  O   H1  H2  O   H1  H2  O   H1  H2  O   H1  H2  O   H1  H2  O   
H1  H2  O   H1  H2  O   H1  H2  O   H1  H2  O   H1  H2  O   H1  H2  O   H1  H2  
O   H1  H2  O   H1  H2  O   H1  H2  O   H1  H2  O   H1  H2  O   H1  H2  O   H1  
H2  O   H1  H2  O   H1  H2  O   H1  H2  O   H1  H2  O   H1  H2  O   H1  H2  O   
H1  H2  O   H1  H2  O   H1  H2  O   H1  H2  O   H1  H2  O   H1  H2  O   H1  H2  
O   H1  H2  O   H1  H2  O   H1  H2  O   H1  H2  O   H1  H2  O   H1  H2  O   H1  
H2  O   H1  H2  O   H1  H2  O   H1  H2  O   H1  H2  O   H1  H2  O   H1  H2  O   
H1  H2  O   H1  H2  O   H1  H2  O   H1  H2  O   H1  H2  O   H1  H2  O   H1  H2  
O   H1  H2  O   H1  H2  O   H1  H2  O   H1  H2  O   H1  H2  O   H1  H2  O   H1  
H2  O   H1  H2  O   H1  H2  O   H1  H2  O   H1  H2  O   H1  H2  O   H1  H2  O   
H1  H2  O   H1  H2  O   H1  H2  O   H1  H2  O   H1  H2  O   H1  H2  O   H1  H2  
O   H1  H2  O   H1  H2  O   H1  H2  O   H1  H2  O   H1  H2  O   H1  H2  O   H1  
H2  O   H1  H2  O   H1  H2  O   H1  H2  O   H1  H2  O   H1  H2  O   H1  H2  O   
H1  H2  O   H1  H2  O   H1  H2  O   H1  H2  O   H1  H2  O   H1  H2  O   H1  H2  
O   H1  H2  O   H1  H2  O   H1  H2  O   H1  H2  O   H1  H2  O   H1  H2  O   H1  
H2  O   H1  H2  O   H1  H2  O   H1  H2  O   H1  H2  O   H1  H2  O   H1  H2  O   
H1  H2  O   H1  H2  O   H1  H2  O   H1  H2  O   H1  H2  O   H1  H2  O   H1  H2  
O   H1  H2  O   H1  H2  O   H1  H2  O   H1  H2  O   H1  H2  O   H1  H2  O   H1  
H2  O   H1  H2  O   H1  H2  O   H1  H2  O   H1  H2  O   H1  H2  O   H1  H2  O   
H1  H2  O   H1  H2  O   H1  H2  O   H1  H2  O   H1  H2  O   H1  H2  O   H1  H2  
O   H1  H2  O   H1  H2  O   H1  H2  O   H1  H2  O   H1  H2  O   H1  H2  O   H1  
H2  O   H1  H2  O   H1  H2  O   H1  H2  O   H1  H2  O   H1  H2  O   H1  H2  O   
H1  H2  O   H1  H2  O   H1  H2  O   H1  H2  O   H1  H2  O   H1  H2  O   H1  H2  
O   H1  H2  O   H1  H2  O   H1  H2  O   H1  H2  O   H1  H2  O   H1  H2  O   H1  
H2  O   H1  H2  O   H1  H2  O   H1  H2  O   H1  H2  O   H1  H2  O   H1  H2  O   
H1  H2  O   H1  H2  O   H1  H2  O   H1  H2  O   H1  H2  O   H1  H2  O   H1  H2  
O   H1  H2  O   H1  H2  O   H1  H2  O   H1  H2  O   H1  H2  O   H1  H2  O   H1  
H2  O   H1  H2  O   H1  H2  O   H1  H2  O   H1  H2  O   H1  H2  O   H1  H2  O   
H1  H2  O   H1  H2  O   H1  H2  O   H1  H2  O   H1  H2  O   H1  H2  O   H1  H2  
O   H1  H2  O   H1  H2  O   H1  H2  O   H1  H2  O   H1  H2  O   H1  H2  O   H1  
H2  O   H1  H2  O   H1  H2  O   H1  H2  O   H1  H2  O   H1  H2  O   H1  H2  O   
H1  H2  O   H1  H2  O   H1  H2  O   H1  H2  O   H1  H2  O   H1  H2  O   H1  H2  
O   H1  H2  O   H1  H2  O   H1  H2  O   H1  H2  O   H1  H2  O   H1  H2  O   H1  
H2  O   H1  H2  O   H1  H2  O   H1  H2  O   H1  H2  O   H1  H2  O   H1  H2  O   
H1  H2  O   H1  H2  O   H1  H2  O   H1  H2  O   H1  H2  O   H1  H2  O   H1  H2  
O   H1  H2  O   H1  H2  O   H1  H2  O   H1  H2  O   H1  H2  O   H1  H2  O   H1  
H2  O   H1  H2  O   H1  H2  O   H1  H2  O   H1  H2  O   H1  H2  O   H1  H2  O   
H1  H2  O   H1  H2  O   H1  H2  O   H1  H2  O   H1  H2  O   H1  H2  O   H1  H2  
O   H1  H2  O   H1  H2  O   H1  H2  O   H1  H2  O   H1  H2  O   H1  H2  O   H1  
H2  O   H1  H2  O   H1  H2  O   H1  H2  O   H1  H2  O   H1  H2  O   H1  H2  O   
H1  H2  O   H1  H2  O   H1  H2  O   H1  H2  O   H1  H2  O   H1  H2  O   H1  H2  
O   H1  H2  O   H1  H2  O   H1  H2  O   H1  H2  O   H1  H2  O   H1  H2  O   H1  
H2  O   H1  H2  O   H1  H2  O   H1  H2  O   H1  H2  O   H1  H2  O   H1  H2  O   
H1  H2  O   H1  H2  O   H1  H2  O   H1  H2  O   H1  H2  O   H1  H2  O   H1  H2  
O   H1  H2  O   H1  H2  O   H1  H2  O   H1  H2  O   H1  H2  O   H1  H2  O   H1  
H2  O   H1  H2  O   H1  H2  O   H1  H2  O   H1  H2  O   H1  H2  O   H1  H2  O   
H1  H2  O   H1  H2  O   H1  H2  O   H1  H2  O   H1  H2  O   H1  H2  O   H1  H2  
O   H1  H2  O   H1  H2  O   H1  H2  O   H1  H2  O   H1  H2  O   H1  H2  O   H1  
H2  O   H1  H2  O   H1  H2  O   H1  H2  O   H1  H2  O   H1  H2  O   H1  H2  O   
H1  H2  O   H1  H2  O   H1  H2  O   H1  H2  O   H1  H2  O   H1  H2  O   H1  H2  
O   H1  H2  O   H1  H2  O   H1  H2  O   H1  H2  O   H1  H2  O   H1  H2  O   H1  
H2  O   H1  H2  O   H1  H2  O   H1  H2  O   H1  H2  O   H1  H2  O   H1  H2  O   
H1  H2  O   H1  H2  O   H1  H2  O   H1  H2  O   H1  H2  O   H1  H2  O   H1  H2  
O   H1  H2  O   H1  H2  O   H1  H2  O   H1  H2  O   H1  H2  O   H1  H2  O   H1  
H2  O   H1  H2  O   H1  H2  O   H1  H2  O   H1  H2  O   H1  H2  O   H1  H2  O   
H1  H2  O   H1  H2  O   H1  H2  O   H1  H2  O   H1  H2  O   H1  H2  O   H1  H2  
O   H1  H2  O   H1  H2  O   H1  H2  O   H1  H2  O   H1  H2  O   H1  H2  O   H1  
H2  O   H1  H2  O   H1  H2  O   H1  H2  O   H1  H2  O   H1  H2  O   H1  H2  O   
H1  H2  O   H1  H2  O   H1  H2  O   H1  H2  O   H1  H2  O   H1  H2  O   H1  H2  
O   H1  H2  O   H1  H2  O   H1  H2  O   H1  H2  O   H1  H2  O   H1  H2  O   H1  
H2  O   H1  H2  O   H1  H2  O   H1  H2  O   H1  H2  O   H1  H2  O   H1  H2  O   
H1  H2  O   H1  H2  O   H1  H2  O   H1  H2  O   H1  H2  O   H1  H2  O   H1  H2  
O   H1  H2  O   H1  H2  O   H1  H2  O   H1  H2  O   H1  H2  O   H1  H2  O   H1  
H2  O   H1  H2  O   H1  H2  O   H1  H2  O   H1  H2  O   H1  H2  O   H1  H2  O   
H1  H2  O   H1  H2  O   H1  H2  O   H1  H2  O   H1  H2  O   H1  H2  O   H1  H2  
O   H1  H2  O   H1  H2  O   H1  H2  O   H1  H2  O   H1  H2  O   H1  H2  O   H1  
H2  O   H1  H2  O   H1  H2  O   H1  H2  O   H1  H2  O   H1  H2  O   H1  H2  O   
H1  H2  O   H1  H2  O   H1  H2  O   H1  H2  O   H1  H2  O   H1  H2  O   H1  H2  
O   H1  H2  O   H1  H2  O   H1  H2  O   H1  H2  O   H1  H2  O   H1  H2  O   H1  
H2  O   H1  H2  O   H1  H2  O   H1  H2  O   H1  H2  O   H1  H2  O   H1  H2  O   
H1  H2  O   H1  H2  O   H1  H2  O   H1  H2  O   H1  H2  O   H1  H2  O   H1  H2  
O   H1  H2  O   H1  H2  O   H1  H2  O   H1  H2  O   H1  H2  O   H1  H2  O   H1  
H2  O   H1  H2  O   H1  H2  O   H1  H2  O   H1  H2  O   H1  H2  O   H1  H2  O   
H1  H2  O   H1  H2  O   H1  H2  O   H1  H2  O   H1  H2  O   H1  H2  O   H1  H2  
O   H1  H2  O   H1  H2  O   H1  H2  O   H1  H2  O   H1  H2  O   H1  H2  O   H1  
H2  O   H1  H2  O   H1  H2  O   H1  H2  O   H1  H2  O   H1  H2  O   H1  H2  O   
H1  H2  O   H1  H2  O   H1  H2  O   H1  H2  O   H1  H2  O   H1  H2  O   H1  H2  
O   H1  H2  O   H1  H2  O   H1  H2  O   H1  H2  O   H1  H2  O   H1  H2  O   H1  
H2  O   H1  H2  O   H1  H2  O   H1  H2  O   H1  H2  O   H1  H2  O   H1  H2  O   
H1  H2  O   H1  H2  O   H1  H2  O   H1  H2  O   H1  H2  O   H1  H2  O   H1  H2  
O   H1  H2  O   H1  H2  O   H1  H2  O   H1  H2  O   H1  H2  O   H1  H2  O   H1  
H2  O   H1  H2  O   H1  H2  O   H1  H2  O   H1  H2  O   H1  H2  O   H1  H2  O   
H1  H2  O   H1  H2  O   H1  H2  O   H1  H2  O   H1  H2  O   H1  H2  O   H1  H2  
O   H1  H2  O   H1  H2  O   H1  H2  O   H1  H2  O   H1  H2  O   H1  H2  O   H1  
H2  O   H1  H2  O   H1  H2  O   H1  H2  O   H1  H2  O   H1  H2  O   H1  H2  O   
H1  H2  O   H1  H2  O   H1  H2  O   H1  H2  O   H1  H2  O   H1  H2  O   H1  H2  
O   H1  H2  O   H1  H2  O   H1  H2  O   H1  H2  O   H1  H2  O   H1  H2  O   H1  
H2  O   H1  H2  O   H1  H2  O   H1  H2  O   H1  H2  O   H1  H2  O   H1  H2  O   
H1  H2  O   H1  H2  O   H1  H2  O   H1  H2  O   H1  H2  O   H1  H2  O   H1  H2  
O   H1  H2  O   H1  H2  O   H1  H2  O   H1  H2  O   H1  H2  O   H1  H2  O   H1  
H2  O   H1  H2  O   H1  H2  O   H1  H2  O   H1  H2  O   H1  H2  O   H1  H2  O   
H1  H2  O   H1  H2  O   H1  H2  O   H1  H2  O   H1  H2  O   H1  H2  O   H1  H2  
O   H1  H2  O   H1  H2  O   H1  H2  O   H1  H2  O   H1  H2  O   H1  H2  O   H1  
H2  O   H1  H2  O   H1  H2  O   H1  H2  O   H1  H2  O   H1  H2  O   H1  H2  O   
H1  H2  O   H1  H2  O   H1  H2  O   H1  H2  O   H1  H2  O   H1  H2  O   H1  H2  
O   H1  H2  O   H1  H2  O   H1  H2  O   H1  H2  O   H1  H2  O   H1  H2  O   H1  
H2  O   H1  H2  O   H1  H2  O   H1  H2  O   H1  H2  O   H1  H2  O   H1  H2  O   
H1  H2  O   H1  H2  O   H1  H2  O   H1  H2  O   H1  H2  O   H1  H2  O   H1  H2  
O   H1  H2  O   H1  H2  O   H1  H2  O   H1  H2  O   H1  H2  O   H1  H2  O   H1  
H2  O   H1  H2  O   H1  H2  O   H1  H2  O   H1  H2  O   H1  H2  O   H1  H2  O   
H1  H2  O   H1  H2  O   H1  H2  O   H1  H2  O   H1  H2  O   H1  H2  O   H1  H2  
O   H1  H2  O   H1  H2  O   H1  H2  O   H1  H2  O   H1  H2  O   H1  H2  O   H1  
H2  O   H1  H2  O   H1  H2  O   H1  H2  O   H1  H2  O   H1  H2  O   H1  H2  O   
H1  H2  O   H1  H2  O   H1  H2  O   H1  H2  O   H1  H2  O   H1  H2  O   H1  H2  
O   H1  H2  O   H1  H2  O   H1  H2  O   H1  H2  O   H1  H2  O   H1  H2  O   H1  
H2  O   H1  H2  O   H1  H2  O   H1  H2  O   H1  H2  O   H1  H2  O   H1  H2  O   
H1  H2  O   H1  H2  O   H1  H2  O   H1  H2  O   H1  H2  O   H1  H2  O   H1  H2  
O   H1  H2  O   H1  H2  O   H1  H2  O   H1  H2  O   H1  H2  O   H1  H2  O   H1  
H2  O   H1  H2  O   H1  H2  O   H1  H2  O   H1  H2  O   H1  H2  O   H1  H2  O   
H1  H2  O   H1  H2  O   H1  H2  O   H1  H2  O   H1  H2  O   H1  H2  O   H1  H2  
O   H1  H2  O   H1  H2  O   H1  H2  O   H1  H2  O   H1  H2  O   H1  H2  O   H1  
H2  O   H1  H2  O   H1  H2  O   H1  H2  O   H1  H2  O   H1  H2  O   H1  H2  O   
H1  H2  O   H1  H2  O   H1  H2  O   H1  H2  O   H1  H2  O   H1  H2  O   H1  H2  
O   H1  H2  O   H1  H2  O   H1  H2  O   H1  H2  O   H1  H2  O   H1  H2  O   H1  
H2  O   H1  H2  O   H1  H2  O   H1  H2  O   H1  H2  O   H1  H2  O   H1  H2  O   
H1  H2  O   H1  H2  O   H1  H2  O   H1  H2  O   H1  H2  O   H1  H2  O   H1  H2  
O   H1  H2  O   H1  H2  O   H1  H2  O   H1  H2  O   H1  H2  O   H1  H2  O   H1  
H2  O   H1  H2  O   H1  H2  O   H1  H2  O   H1  H2  O   H1  H2  O   H1  H2  O   
H1  H2  O   H1  H2  O   H1  H2  O   H1  H2  O   H1  H2  O   H1  H2  O   H1  H2  
O   H1  H2  O   H1  H2  O   H1  H2  O   H1  H2  O   H1  H2  O   H1  H2  O   H1  
H2  O   H1  H2  O   H1  H2  O   H1  H2  O   H1  H2  O   H1  H2  O   H1  H2  O   
H1  H2  O   H1  H2  O   H1  H2  O   H1  H2  O   H1  H2  O   H1  H2  O   H1  H2  
O   H1  H2  O   H1  H2  O   H1  H2  O   H1  H2  O   H1  H2  O   H1  H2  O   H1  
H2  O   H1  H2  O   H1  H2  O   H1  H2  O   H1  H2  O   H1  H2  O   H1  H2  O   
H1  H2  O   H1  H2  O   H1  H2  O   H1  H2  O   H1  H2  O   H1  H2  O   H1  H2  
O   H1  H2  O   H1  H2  O   H1  H2  O   H1  H2  O   H1  H2  O   H1  H2  O   H1  
H2  O   H1  H2  O   H1  H2  O   H1  H2  O   H1  H2  O   H1  H2  O   H1  H2  O   
H1  H2  O   H1  H2  O   H1  H2  O   H1  H2  O   H1  H2  O   H1  H2  O   H1  H2  
O   H1  H2  O   H1  H2  O   H1  H2  O   H1  H2  O   H1  H2  O   H1  H2  O   H1  
H2  O   H1  H2  O   H1  H2  O   H1  H2  O   H1  H2  O   H1  H2  O   H1  H2  O   
H1  H2  O   H1  H2  O   H1  H2  O   H1  H2  O   H1  H2  O   H1  H2  O   H1  H2  
O   H1  H2  O   H1  H2  O   H1  H2  O   H1  H2  O   H1  H2  O   H1  H2  O   H1  
H2  O   H1  H2  O   H1  H2  O   H1  H2  O   H1  H2  O   H1  H2  O   H1  H2  O   
H1  H2  O   H1  H2  O   H1  H2  O   H1  H2  O   H1  H2  O   H1  H2  O   H1  H2  
O   H1  H2  O   H1  H2  O   H1  H2  O   H1  H2  O   H1  H2  O   H1  H2  O   H1  
H2  O   H1  H2  O   H1  H2  O   H1  H2  O   H1  H2  O   H1  H2  O   H1  H2  O   
H1  H2  O   H1  H2  O   H1  H2  O   H1  H2  O   H1  H2  O   H1  H2  O   H1  H2  
O   H1  H2  O   H1  H2  O   H1  H2  O   H1  H2  O   H1  H2  O   H1  H2  O   H1  
H2  O   H1  H2  O   H1  H2  O   H1  H2  O   H1  H2  O   H1  H2  O   H1  H2  O   
H1  H2  O   H1  H2  O   H1  H2  O   H1  H2  O   H1  H2  O   H1  H2  O   H1  H2  
O   H1  H2  O   H1  H2  O   H1  H2  O   H1  H2  O   H1  H2  O   H1  H2  O   H1  
H2  O   H1  H2  O   H1  H2  O   H1  H2  O   H1  H2  O   H1  H2  O   H1  H2  O   
H1  H2  O   H1  H2  O   H1  H2  O   H1  H2  O   H1  H2  O   H1  H2  O   H1  H2  
O   H1  H2  O   H1  H2  O   H1  H2  O   H1  H2  O   H1  H2  O   H1  H2  O   H1  
H2  O   H1  H2  O   H1  H2  O   H1  H2  O   H1  H2  O   H1  H2  O   H1  H2  O   
H1  H2  O   H1  H2  O   H1  H2  O   H1  H2  O   H1  H2  O   H1  H2  O   H1  H2  
O   H1  H2  O   H1  H2  O   H1  H2  O   H1  H2  O   H1  H2  O   H1  H2  O   H1  
H2  O   H1  H2  O   H1  H2  O   H1  H2  O   H1  H2  O   H1  H2  O   H1  H2  O   
H1  H2  O   H1  H2  O   H1  H2  O   H1  H2  O   H1  H2  O   H1  H2  O   H1  H2  
O   H1  H2  O   H1  H2  O   H1  H2  O   H1  H2  O   H1  H2  O   H1  H2  O   H1  
H2  O   H1  H2  O   H1  H2  O   H1  H2  O   H1  H2  O   H1  H2  O   H1  H2  O   
H1  H2  O   H1  H2  O   H1  H2  O   H1  H2  O   H1  H2  O   H1  H2  O   H1  H2  
O   H1  H2  O   H1  H2  O   H1  H2  O   H1  H2  O   H1  H2  O   H1  H2  O   H1  
H2  O   H1  H2  O   H1  H2  O   H1  H2  O   H1  H2  O   H1  H2  O   H1  H2  O   
H1  H2  O   H1  H2  O   H1  H2  O   H1  H2  O   H1  H2  O   H1  H2  O   H1  H2  
O   H1  H2  O   H1  H2  O   H1  H2  O   H1  H2  O   H1  H2  O   H1  H2  O   H1  
H2  O   H1  H2  O   H1  H2  O   H1  H2  O   H1  H2  O   H1  H2  O   H1  H2  O   
H1  H2  O   H1  H2  O   H1  H2  O   H1  H2  O   H1  H2  O   H1  H2  O   H1  H2  
O   H1  H2  O   H1  H2  O   H1  H2  O   H1  H2  O   H1  H2  O   H1  H2  O   H1  
H2  O   H1  H2  O   H1  H2  O   H1  H2  O   H1  H2  O   H1  H2  O   H1  H2  O   
H1  H2  O   H1  H2  O   H1  H2  O   H1  H2  O   H1  H2  O   H1  H2  O   H1  H2  
O   H1  H2  O   H1  H2  O   H1  H2  O   H1  H2  O   H1  H2  O   H1  H2  O   H1  
H2  O   H1  H2  O   H1  H2  O   H1  H2  O   H1  H2  O   H1  H2  O   H1  H2  O   
H1  H2  O   H1  H2  O   H1  H2  O   H1  H2  O   H1  H2  O   H1  H2  O   H1  H2  
O   H1  H2  O   H1  H2  O   H1  H2  O   H1  H2  O   H1  H2  O   H1  H2  O   H1  
H2  O   H1  H2  O   H1  H2  O   H1  H2  O   H1  H2  O   H1  H2  O   H1  H2  O   
H1  H2  O   H1  H2  O   H1  H2  O   H1  H2  O   H1  H2  O   H1  H2  O   H1  H2  
O   H1  H2  O   H1  H2  O   H1  H2  O   H1  H2  O   H1  H2  O   H1  H2  O   H1  
H2  O   H1  H2  O   H1  H2  O   H1  H2  O   H1  H2  O   H1  H2  O   H1  H2  O   
H1  H2  O   H1  H2  O   H1  H2  O   H1  H2  O   H1  H2  O   H1  H2  O   H1  H2  
O   H1  H2  O   H1  H2  O   H1  H2  O   H1  H2  O   H1  H2  O   H1  H2  O   H1  
H2  O   H1  H2  O   H1  H2  O   H1  H2  O   H1  H2  O   H1  H2  O   H1  H2  O   
H1  H2  O   H1  H2  O   H1  H2  O   H1  H2  O   H1  H2  O   H1  H2  O   H1  H2  
O   H1  H2  O   H1  H2  O   H1  H2  O   H1  H2  O   H1  H2  O   H1  H2  O   H1  
H2  O   H1  H2  O   H1  H2  O   H1  H2  O   H1  H2  O   H1  H2  O   H1  H2  O   
H1  H2  O   H1  H2  O   H1  H2  O   H1  H2  O   H1  H2  O   H1  H2  O   H1  H2  
O   H1  H2  O   H1  H2  O   H1  H2  O   H1  H2  O   H1  H2  O   H1  H2  O   H1  
H2  O   H1  H2  O   H1  H2  O   H1  H2  O   H1  H2  O   H1  H2  O   H1  H2  O   
H1  H2  O   H1  H2  O   H1  H2  O   H1  H2  O   H1  H2  O   H1  H2  O   H1  H2  
O   H1  H2  O   H1  H2  O   H1  H2  O   H1  H2  O   H1  H2  O   H1  H2  O   H1  
H2  O   H1  H2  O   H1  H2  O   H1  H2  O   H1  H2  O   H1  H2  O   H1  H2  O   
H1  H2  O   H1  H2  O   H1  H2  O   H1  H2  O   H1  H2  O   H1  H2  O   H1  H2  
O   H1  H2  O   H1  H2  O   H1  H2  O   H1  H2  O   H1  H2  O   H1  H2  O   H1  
H2  O   H1  H2  O   H1  H2  O   H1  H2  O   H1  H2  O   H1  H2  O   H1  H2  O   
H1  H2  O   H1  H2  O   H1  H2  O   H1  H2  O   H1  H2  O   H1  H2  O   H1  H2  
O   H1  H2  O   H1  H2  O   H1  H2  O   H1  H2  O   H1  H2  O   H1  H2  O   H1  
H2  O   H1  H2  O   H1  H2  O   H1  H2  O   H1  H2  O   H1  H2  O   H1  H2  O   
H1  H2  O   H1  H2  O   H1  H2  O   H1  H2  O   H1  H2  O   H1  H2  O   H1  H2  
O   H1  H2  O   H1  H2  O   H1  H2  O   H1  H2  O   H1  H2  O   H1  H2  O   H1  
H2  O   H1  H2  O   H1  H2  O   H1  H2  O   H1  H2  O   H1  H2  O   H1  H2  O   
H1  H2  O   H1  H2  O   H1  H2  O   H1  H2  O   H1  H2  O   H1  H2  O   H1  H2  
O   H1  H2  O   H1  H2  O   H1  H2  O   H1  H2  O   H1  H2  O   H1  H2  O   H1  
H2  O   H1  H2  O   H1  H2  O   H1  H2  O   H1  H2  O   H1  H2  O   H1  H2  O   
H1  H2  O   H1  H2  O   H1  H2  O   H1  H2  O   H1  H2  O   H1  H2  O   H1  H2  
O   H1  H2  O   H1  H2  O   H1  H2  O   H1  H2  O   H1  H2  O   H1  H2  O   H1  
H2  O   H1  H2  O   H1  H2  O   H1  H2  O   H1  H2  O   H1  H2  O   H1  H2  O   
H1  H2  O   H1  H2  O   H1  H2  O   H1  H2  O   H1  H2  O   H1  H2  O   H1  H2  
O   H1  H2  O   H1  H2  O   H1  H2  O   H1  H2  O   H1  H2  O   H1  H2  O   H1  
H2  O   H1  H2  O   H1  H2  O   H1  H2  O   H1  H2  O   H1  H2  O   H1  H2  O   
H1  H2  O   H1  H2  O   H1  H2  O   H1  H2  O   H1  H2  O   H1  H2  O   H1  H2  
O   H1  H2  O   H1  H2  O   H1  H2  O   H1  H2  O   H1  H2  O   H1  H2  O   H1  
H2  O   H1  H2  O   H1  H2  O   H1  H2  O   H1  H2  O   H1  H2  O   H1  H2  O   
H1  H2  O   H1  H2  O   H1  H2  O   H1  H2  O   H1  H2  O   H1  H2  O   H1  H2  
O   H1  H2  O   H1  H2  O   H1  H2  O   H1  H2  O   H1  H2  O   H1  H2  O   H1  
H2  O   H1  H2  O   H1  H2  O   H1  H2  O   H1  H2  O   H1  H2  O   H1  H2  O   
H1  H2  O   H1  H2  O   H1  H2  O   H1  H2  O   H1  H2  O   H1  H2  O   H1  H2  
O   H1  H2  O   H1  H2  O   H1  H2  O   H1  H2  O   H1  H2  O   H1  H2  O   H1  
H2  O   H1  H2  O   H1  H2  O   H1  H2  O   H1  H2  O   H1  H2  O   H1  H2  O   
H1  H2  O   H1  H2  O   H1  H2  O   H1  H2  O   H1  H2  O   H1  H2  O   H1  H2  
O   H1  H2  O   H1  H2  O   H1  H2  O   H1  H2  O   H1  H2  O   H1  H2  O   H1  
H2  O   H1  H2  O   H1  H2  O   H1  H2  O   H1  H2  O   H1  H2  O   H1  H2  O   
H1  H2  O   H1  H2  O   H1  H2  O   H1  H2  O   H1  H2  O   H1  H2  O   H1  H2  
O   H1  H2  O   H1  H2  O   H1  H2  O   H1  H2  O   H1  H2  O   H1  H2  O   H1  
H2  O   H1  H2  O   H1  H2  O   H1  H2  O   H1  H2  O   H1  H2  O   H1  H2  O   
H1  H2  O   H1  H2  O   H1  H2  O   H1  H2  O   H1  H2  O   H1  H2  O   H1  H2  
O   H1  H2  O   H1  H2  O   H1  H2  O   H1  H2  O   H1  H2  O   H1  H2  O   H1  
H2  O   H1  H2  O   H1  H2  O   H1  H2  O   H1  H2  O   H1  H2  O   H1  H2  O   
H1  H2  O   H1  H2  O   H1  H2  O   H1  H2  O   H1  H2  O   H1  H2  O   H1  H2  
O   H1  H2  O   H1  H2  O   H1  H2  O   H1  H2  O   H1  H2  O   H1  H2  O   H1  
H2  O   H1  H2  O   H1  H2  O   H1  H2  O   H1  H2  O   H1  H2  O   H1  H2  O   
H1  H2  O   H1  H2  O   H1  H2  O   H1  H2  O   H1  H2  O   H1  H2  O   H1  H2  
O   H1  H2  O   H1  H2  O   H1  H2  O   H1  H2  O   H1  H2  O   H1  H2  O   H1  
H2  O   H1  H2  O   H1  H2  O   H1  H2  O   H1  H2  O   H1  H2  O   H1  H2  O   
H1  H2  O   H1  H2  O   H1  H2  O   H1  H2  O   H1  H2  O   H1  H2  O   H1  H2  
O   H1  H2  O   H1  H2  O   H1  H2  O   H1  H2  O   H1  H2  O   H1  H2  O   H1  
H2  O   H1  H2  O   H1  H2  O   H1  H2  O   H1  H2  O   H1  H2  O   H1  H2  O   
H1  H2  O   H1  H2  O   H1  H2  O   H1  H2  O   H1  H2  O   H1  H2  O   H1  H2  
O   H1  H2  O   H1  H2  O   H1  H2  O   H1  H2  O   H1  H2  O   H1  H2  O   H1  
H2  O   H1  H2  O   H1  H2  O   H1  H2  O   H1  H2  O   H1  H2  O   H1  H2  O   
H1  H2  O   H1  H2  O   H1  H2  O   H1  H2  O   H1  H2  O   H1  H2  O   H1  H2  
O   H1  H2  O   H1  H2  O   H1  H2  O   H1  H2  O   H1  H2  O   H1  H2  O   H1  
H2  O   H1  H2  O   H1  H2  O   H1  H2  O   H1  H2  O   H1  H2  O   H1  H2  O   
H1  H2  O   H1  H2  O   H1  H2  O   H1  H2  O   H1  H2  O   H1  H2  O   H1  H2  
O   H1  H2  O   H1  H2  O   H1  H2  O   H1  H2  O   H1  H2  O   H1  H2  O   H1  
H2  O   H1  H2  O   H1  H2  O   H1  H2  O   H1  H2  O   H1  H2  O   H1  H2  O   
H1  H2  O   H1  H2  O   H1  H2  O   H1  H2  O   H1  H2  O   H1  H2  O   H1  H2  
O   H1  H2  O   H1  H2  O   H1  H2  O   H1  H2  O   H1  H2  O   H1  H2  O   H1  
H2  O   H1  H2  O   H1  H2  O   H1  H2  O   H1  H2  O   H1  H2  O   H1  H2  O   
H1  H2  O   H1  H2  O   H1  H2  O   H1  H2  O   H1  H2  O   H1  H2  O   H1  H2  
O   H1  H2  O   H1  H2  O   H1  H2  O   H1  H2  O   H1  H2  O   H1  H2  O   H1  
H2  O   H1  H2  O   H1  H2  O   H1  H2  O   H1  H2  O   H1  H2  O   H1  H2  O   
H1  H2  O   H1  H2  O   H1  H2  O   H1  H2  O   H1  H2  O   H1  H2  O   H1  H2  
O   H1  H2  O   H1  H2  O   H1  H2  O   H1  H2  O   H1  H2  O   H1  H2  O   H1  
H2  O   H1  H2  O   H1  H2  O   H1  H2  O   H1  H2  O   H1  H2  O   H1  H2  O   
H1  H2  O   H1  H2  O   H1  H2  O   H1  H2  O   H1  H2  O   H1  H2  O   H1  H2  
O   H1  H2  O   H1  H2  O   H1  H2  O   H1  H2  O   H1  H2  O   H1  H2  O   H1  
H2  O   H1  H2  O   H1  H2  O   H1  H2  O   H1  H2  O   H1  H2  O   H1  H2  O   
H1  H2  O   H1  H2  O   H1  H2  O   H1  H2  O   H1  H2  O   H1  H2  O   H1  H2  
O   H1  H2  O   H1  H2  O   H1  H2  O   H1  H2  O   H1  H2  O   H1  H2  O   H1  
H2  O   H1  H2  O   H1  H2  O   H1  H2  O   H1  H2  O   H1  H2  O   H1  H2  O   
H1  H2  O   H1  H2  O   H1  H2  O   H1  H2  O   H1  H2  O   H1  H2  O   H1  H2  
O   H1  H2  O   H1  H2  O   H1  H2  O   H1  H2  O   H1  H2  O   H1  H2  O   H1  
H2  O   H1  H2  O   H1  H2  O   H1  H2  O   H1  H2  O   H1  H2  O   H1  H2  O   
H1  H2  O   H1  H2  O   H1  H2  O   H1  H2  O   H1  H2  O   H1  H2  O   H1  H2  
O   H1  H2  O   H1  H2  O   H1  H2  O   H1  H2  O   H1  H2  O   H1  H2  O   H1  
H2  O   H1  H2  O   H1  H2  O   H1  H2  O   H1  H2  O   H1  H2  O   H1  H2  O   
H1  H2  O   H1  H2  O   H1  H2  O   H1  H2  O   H1  H2  O   H1  H2  O   H1  H2  
O   H1  H2  O   H1  H2  O   H1  H2  O   H1  H2  O   H1  H2  O   H1  H2  O   H1  
H2  O   H1  H2  O   H1  H2  O   H1  H2  O   H1  H2  O   H1  H2  O   H1  H2  O   
H1  H2  O   H1  H2  O   H1  H2  O   H1  H2  O   H1  H2  O   H1  H2  O   H1  H2  
O   H1  H2  O   H1  H2  O   H1  H2  O   H1  H2  O   H1  H2  O   H1  H2  O   H1  
H2  O   H1  H2  O   H1  H2  O   H1  H2  O   H1  H2  O   H1  H2  O   H1  H2  O   
H1  H2  O   H1  H2  O   H1  H2  O   H1  H2  O   H1  H2  O   H1  H2  O   H1  H2  
O   H1  H2  O   H1  H2  O   H1  H2  O   H1  H2  O   H1  H2  O   H1  H2  O   H1  
H2  O   H1  H2  O   H1  H2  O   H1  H2  O   H1  H2  O   H1  H2  O   H1  H2  O   
H1  H2  O   H1  H2  O   H1  H2  O   H1  H2  O   H1  H2  O   H1  H2  O   H1  H2  
O   H1  H2  O   H1  H2  O   H1  H2  O   H1  H2  O   H1  H2  O   H1  H2  O   H1  
H2  O   H1  H2  O   H1  H2  O   H1  H2  O   H1  H2  O   H1  H2  O   H1  H2  O   
H1  H2  O   H1  H2  O   H1  H2  O   H1  H2  O   H1  H2  O   H1  H2  O   H1  H2  
O   H1  H2  O   H1  H2  O   H1  H2  O   H1  H2  O   H1  H2  O   H1  H2  O   H1  
H2  O   H1  H2  O   H1  H2  O   H1  H2  O   H1  H2  O   H1  H2  O   H1  H2  O   
H1  H2  O   H1  H2  O   H1  H2  O   H1  H2  O   H1  H2  O   H1  H2  O   H1  H2  
O   H1  H2  O   H1  H2  O   H1  H2  O   H1  H2  O   H1  H2  O   H1  H2  O   H1  
H2  O   H1  H2  O   H1  H2  O   H1  H2  O   H1  H2  O   H1  H2  O   H1  H2  O   
H1  H2  O   H1  H2  O   H1  H2  O   H1  H2  O   H1  H2  O   H1  H2  O   H1  H2  
O   H1  H2  O   H1  H2  O   H1  H2  O   H1  H2  O   H1  H2  O   H1  H2  O   H1  
H2  O   H1  H2  O   H1  H2  O   H1  H2  O   H1  H2  O   H1  H2  O   H1  H2  O   
H1  H2  O   H1  H2  O   H1  H2  O   H1  H2  O   H1  H2  O   H1  H2  O   H1  H2  
O   H1  H2  O   H1  H2  O   H1  H2  O   H1  H2  O   H1  H2  O   H1  H2  O   H1  
H2  O   H1  H2  O   H1  H2  O   H1  H2  O   H1  H2  O   H1  H2  O   H1  H2  O   
H1  H2  O   H1  H2  O   H1  H2  O   H1  H2  O   H1  H2  O   H1  H2  O   H1  H2  
O   H1  H2  O   H1  H2  O   H1  H2  O   H1  H2  O   H1  H2  O   H1  H2  O   H1  
H2  O   H1  H2  O   H1  H2  O   H1  H2  O   H1  H2  O   H1  H2  O   H1  H2  O   
H1  H2  O   H1  H2  O   H1  H2  O   H1  H2  O   H1  H2  O   H1  H2  O   H1  H2  
O   H1  H2  O   H1  H2  O   H1  H2  O   H1  H2  O   H1  H2  O   H1  H2  O   H1  
H2  O   H1  H2  O   H1  H2  O   H1  H2  O   H1  H2  O   H1  H2  O   H1  H2  O   
H1  H2  O   H1  H2  O   H1  H2  O   H1  H2  O   H1  H2  O   H1  H2  O   H1  H2  
O   H1  H2  O   H1  H2  O   H1  H2  O   H1  H2  O   H1  H2  O   H1  H2  O   H1  
H2  O   H1  H2  O   H1  H2  O   H1  H2  O   H1  H2  O   H1  H2  O   H1  H2  O   
H1  H2  O   H1  H2  O   H1  H2  O   H1  H2  O   H1  H2  O   H1  H2  O   H1  H2  
O   H1  H2  O   H1  H2  O   H1  H2  O   H1  H2  O   H1  H2  O   H1  H2  O   H1  
H2  O   H1  H2  O   H1  H2  O   H1  H2  O   H1  H2  O   H1  H2  O   H1  H2  O   
H1  H2  O   H1  H2  O   H1  H2  O   H1  H2  O   H1  H2  O   H1  H2  O   H1  H2  
O   H1  H2  O   H1  H2  O   H1  H2  O   H1  H2  O   H1  H2  O   H1  H2  O   H1  
H2  O   H1  H2  O   H1  H2  O   H1  H2  O   H1  H2  O   H1  H2  O   H1  H2  O   
H1  H2  O   H1  H2  O   H1  H2  O   H1  H2  O   H1  H2  O   H1  H2  O   H1  H2  
O   H1  H2  O   H1  H2  O   H1  H2  O   H1  H2  O   H1  H2  O   H1  H2  O   H1  
H2  O   H1  H2  O   H1  H2  O   H1  H2  O   H1  H2  O   H1  H2  O   H1  H2  O   
H1  H2  O   H1  H2  O   H1  H2  O   H1  H2  O   H1  H2  O   H1  H2  O   H1  H2  
O   H1  H2  O   H1  H2  O   H1  H2  O   H1  H2  O   H1  H2  O   H1  H2  O   H1  
H2  O   H1  H2  O   H1  H2  O   H1  H2  O   H1  H2  O   H1  H2  O   H1  H2  O   
H1  H2  O   H1  H2  O   H1  H2  O   H1  H2  O   H1  H2  O   H1  H2  O   H1  H2  
O   H1  H2  O   H1  H2  O   H1  H2  O   H1  H2  O   H1  H2  O   H1  H2  O   H1  
H2  O   H1  H2  O   H1  H2  O   H1  H2  O   H1  H2  O   H1  H2  O   H1  H2  O   
H1  H2  O   H1  H2  O   H1  H2  O   H1  H2  O   H1  H2  O   H1  H2  O   H1  H2  
O   H1  H2  O   H1  H2  O   H1  H2  O   H1  H2  O   H1  H2  O   H1  H2  O   H1  
H2  O   H1  H2  O   H1  H2  O   H1  H2  O   H1  H2  O   H1  H2  O   H1  H2  O   
H1  H2  O   H1  H2  O   H1  H2  O   H1  H2  O   H1  H2  O   H1  H2  O   H1  H2  
O   H1  H2  O   H1  H2  O   H1  H2  O   H1  H2  O   H1  H2  O   H1  H2  O   H1  
H2  O   H1  H2  O   H1  H2  O   H1  H2  O   H1  H2  O   H1  H2  O   H1  H2  O   
H1  H2  O   H1  H2  O   H1  H2  O   H1  H2  O   H1  H2  O   H1  H2  O   H1  H2  
O   H1  H2  O   H1  H2  O   H1  H2  O   H1  H2  O   H1  H2  O   H1  H2  O   H1  
H2  O   H1  H2  O   H1  H2  O   H1  H2  O   H1  H2  O   H1  H2  O   H1  H2  O   
H1  H2  O   H1  H2  O   H1  H2  O   H1  H2  O   H1  H2  O   H1  H2  O   H1  H2  
O   H1  H2  O   H1  H2  O   H1  H2  O   H1  H2  O   H1  H2  O   H1  H2  O   H1  
H2  O   H1  H2  O   H1  H2  O   H1  H2  O   H1  H2  O   H1  H2  O   H1  H2  O   
H1  H2  O   H1  H2  O   H1  H2  O   H1  H2  O   H1  H2  O   H1  H2  O   H1  H2  
O   H1  H2  O   H1  H2  O   H1  H2  O   H1  H2  O   H1  H2  O   H1  H2  O   H1  
H2  O   H1  H2  O   H1  H2  O   H1  H2  O   H1  H2  O   H1  H2  O   H1  H2  O   
H1  H2  O   H1  H2  O   H1  H2  O   H1  H2  O   H1  H2  O   H1  H2  O   H1  H2  
O   H1  H2  O   H1  H2  O   H1  H2  O   H1  H2  O   H1  H2  O   H1  H2  O   H1  
H2  O   H1  H2  O   H1  H2  O   H1  H2  O   H1  H2  O   H1  H2  O   H1  H2  O   
H1  H2  O   H1  H2  O   H1  H2  O   H1  H2  O   H1  H2  O   H1  H2  O   H1  H2  
O   H1  H2  O   H1  H2  O   H1  H2  O   H1  H2  O   H1  H2  O   H1  H2  O   H1  
H2  O   H1  H2  O   H1  H2  O   H1  H2  O   H1  H2  O   H1  H2  O   H1  H2  O   
H1  H2  O   H1  H2  O   H1  H2  O   H1  H2  O   H1  H2  O   H1  H2  O   H1  H2  
O   H1  H2  O   H1  H2  O   H1  H2  O   H1  H2  O   H1  H2  O   H1  H2  O   H1  
H2  O   H1  H2  O   H1  H2  O   H1  H2  O   H1  H2  O   H1  H2  O   H1  H2  O   
H1  H2  O   H1  H2  O   H1  H2  O   H1  H2  O   H1  H2  O   H1  H2  O   H1  H2  
O   H1  H2  O   H1  H2  O   H1  H2  O   H1  H2  O   H1  H2  O   H1  H2  O   H1  
H2  O   H1  H2  O   H1  H2  O   H1  H2  O   H1  H2  O   H1  H2  O   H1  H2  O   
H1  H2  O   H1  H2  O   H1  H2  O   H1  H2  O   H1  H2  O   H1  H2  O   H1  H2  
O   H1  H2  O   H1  H2  O   H1  H2  O   H1  H2  O   H1  H2  O   H1  H2  O   H1  
H2  O   H1  H2  O   H1  H2  O   H1  H2  O   H1  H2  O   H1  H2  O   H1  H2  O   
H1  H2  O   H1  H2  O   H1  H2  O   H1  H2  O   H1  H2  O   H1  H2  O   H1  H2  
O   H1  H2  O   H1  H2  O   H1  H2  O   H1  H2  O   H1  H2  O   H1  H2  O   H1  
H2  O   H1  H2  O   H1  H2  O   H1  H2  O   H1  H2  O   H1  H2  O   H1  H2  O   
H1  H2  O   H1  H2  O   H1  H2  O   H1  H2  O   H1  H2  O   H1  H2  O   H1  H2  
O   H1  H2  O   H1  H2  O   H1  H2  O   H1  H2  O   H1  H2  O   H1  H2  O   H1  
H2  O   H1  H2  O   H1  H2  O   H1  H2  O   H1  H2  O   H1  H2  O   H1  H2  O   
H1  H2  O   H1  H2  O   H1  H2  O   H1  H2  O   H1  H2  O   H1  H2  O   H1  H2  
O   H1  H2  O   H1  H2  O   H1  H2  O   H1  H2  O   H1  H2  O   H1  H2  O   H1  
H2  O   H1  H2  O   H1  H2  O   H1  H2  O   H1  H2  O   H1  H2  O   H1  H2  O   
H1  H2  O   H1  H2  O   H1  H2  O   H1  H2  O   H1  H2  O   H1  H2  O   H1  H2  
O   H1  H2  O   H1  H2  O   H1  H2  O   H1  H2  O   H1  H2  O   H1  H2  O   H1  
H2  O   H1  H2  O   H1  H2  O   H1  H2  O   H1  H2  O   H1  H2  O   H1  H2  O   
H1  H2  O   H1  H2  O   H1  H2  O   H1  H2  O   H1  H2  O   H1  H2  O   H1  H2  
O   H1  H2  O   H1  H2  O   H1  H2  O   H1  H2  O   H1  H2  O   H1  H2  O   H1  
H2  O   H1  H2  O   H1  H2  O   H1  H2  O   H1  H2  O   H1  H2  O   H1  H2  O   
H1  H2  O   H1  H2  O   H1  H2  O   H1  H2  O   H1  H2  O   H1  H2  O   H1  H2  
O   H1  H2  O   H1  H2  O   H1  H2  O   H1  H2  O   H1  H2  O   H1  H2  O   H1  
H2  O   H1  H2  O   H1  H2  O   H1  H2  O   H1  H2  O   H1  H2  O   H1  H2  O   
H1  H2  O   H1  H2  O   H1  H2  O   H1  H2  O   H1  H2  O   H1  H2  O   H1  H2  
O   H1  H2  O   H1  H2  O   H1  H2  O   H1  H2  O   H1  H2  O   H1  H2  O   H1  
H2  O   H1  H2  O   H1  H2  O   H1  H2  O   H1  H2  O   H1  H2  O   H1  H2  O   
H1  H2  O   H1  H2  O   H1  H2  O   H1  H2  O   H1  H2  O   H1  H2  O   H1  H2  
O   H1  H2  O   H1  H2  O   H1  H2  O   H1  H2  O   H1  H2  O   H1  H2  O   H1  
H2  O   H1  H2  O   H1  H2  O   H1  H2  O   H1  H2  O   H1  H2  O   H1  H2  O   
H1  H2  O   H1  H2  O   H1  H2  O   H1  H2  O   H1  H2  O   H1  H2  O   H1  H2  
O   H1  H2  O   H1  H2  O   H1  H2  O   H1  H2  O   H1  H2  O   H1  H2  O   H1  
H2  O   H1  H2  O   H1  H2  O   H1  H2  O   H1  H2  O   H1  H2  O   H1  H2  O   
H1  H2  O   H1  H2  O   H1  H2  O   H1  H2  O   H1  H2  O   H1  H2  O   H1  H2  
O   H1  H2  O   H1  H2  O   H1  H2  O   H1  H2  O   H1  H2  O   H1  H2  O   H1  
H2  O   H1  H2  O   H1  H2  O   H1  H2  O   H1  H2  O   H1  H2  O   H1  H2  O   
H1  H2  O   H1  H2  O   H1  H2  O   H1  H2  O   H1  H2  O   H1  H2  O   H1  H2  
O   H1  H2  O   H1  H2  O   H1  H2  O   H1  H2  O   H1  H2  O   H1  H2  O   H1  
H2  O   H1  H2  O   H1  H2  O   H1  H2  O   H1  H2  O   H1  H2  O   H1  H2  O   
H1  H2  O   H1  H2  O   H1  H2  O   H1  H2  O   H1  H2  O   H1  H2  O   H1  H2  
O   H1  H2  O   H1  H2  O   H1  H2  O   H1  H2  O   H1  H2  O   H1  H2  O   H1  
H2  O   H1  H2  O   H1  H2  O   H1  H2  O   H1  H2  O   H1  H2  O   H1  H2  O   
H1  H2  O   H1  H2  O   H1  H2  O   H1  H2  O   H1  H2  O   H1  H2  O   H1  H2  
O   H1  H2  O   H1  H2  O   H1  H2  O   H1  H2  O   H1  H2  O   H1  H2  O   H1  
H2  O   H1  H2  O   H1  H2  O   H1  H2  O   H1  H2  O   H1  H2  O   H1  H2  O   
H1  H2  O   H1  H2  O   H1  H2  O   H1  H2  O   H1  H2  O   H1  H2  O   H1  H2  
O   H1  H2  O   H1  H2  O   H1  H2  O   H1  H2  O   H1  H2  O   H1  H2  O   H1  
H2  O   H1  H2  O   H1  H2  O   H1  H2  O   H1  H2  O   H1  H2  O   H1  H2  O   
H1  H2  O   H1  H2  O   H1  H2  O   H1  H2  O   H1  H2  O   H1  H2  O   H1  H2  
O   H1  H2  O   H1  H2  O   H1  H2  O   H1  H2  O   H1  H2  O   H1  H2  O   H1  
H2  O   H1  H2  O   H1  H2  O   H1  H2  O   H1  H2  O   H1  H2  O   H1  H2  O   
H1  H2  O   H1  H2  O   H1  H2  O   H1  H2  O   H1  H2  O   H1  H2  O   H1  H2  
O   H1  H2  O   H1  H2  O   H1  H2  O   H1  H2  O   H1  H2  O   H1  H2  O   H1  
H2  O   H1  H2  O   H1  H2  O   H1  H2  O   H1  H2  O   H1  H2  O   H1  H2  O   
H1  H2  O   H1  H2  O   H1  H2  O   H1  H2  O   H1  H2  O   H1  H2  O   H1  H2  
O   H1  H2  O   H1  H2  O   H1  H2  O   H1  H2  O   H1  H2  O   H1  H2  O   H1  
H2  O   H1  H2  O   H1  H2  O   H1  H2  O   H1  H2  O   H1  H2  O   H1  H2  O   
H1  H2  O   H1  H2  O   H1  H2  O   H1  H2  O   H1  H2  O   H1  H2  O   H1  H2  
O   H1  H2  O   H1  H2  O   H1  H2  O   H1  H2  O   H1  H2  O   H1  H2  O   H1  
H2  O   H1  H2  O   H1  H2  O   H1  H2  O   H1  H2  O   H1  H2  O   H1  H2  O   
H1  H2  O   H1  H2  O   H1  H2  O   H1  H2  O   H1  H2  O   H1  H2  O   H1  H2  
O   H1  H2  O   H1  H2  O   H1  H2  O   H1  H2  O   H1  H2  O   H1  H2  O   H1  
H2  O   H1  H2  O   H1  H2  O   H1  H2  O   H1  H2  O   H1  H2  O   H1  H2  O   
H1  H2  O   H1  H2  O   H1  H2  O   H1  H2  O   H1  H2  O   H1  H2  O   H1  H2  
O   H1  H2  O   H1  H2  O   H1  H2  O   H1  H2  O   H1  H2  O   H1  H2  O   H1  
H2  O   H1  H2  O   H1  H2  O   H1  H2  O   H1  H2  O   H1  H2  O   H1  H2  O   
H1  H2  O   H1  H2  O   H1  H2  O   H1  H2  O   H1  H2  O   H1  H2  O   H1  H2  
O   H1  H2  O   H1  H2  O   H1  H2  O   H1  H2  O   H1  H2  O   H1  H2  O   H1  
H2  O   H1  H2  O   H1  H2  O   H1  H2  O   H1  H2  O   H1  H2  O   H1  H2  O   
H1  H2  O   H1  H2  O   H1  H2  O   H1  H2  O   H1  H2  O   H1  H2  O   H1  H2  
O   H1  H2  O   H1  H2  O   H1  H2  O   H1  H2  O   H1  H2  O   H1  H2  O   H1  
H2  O   H1  H2  O   H1  H2  O   H1  H2  O   H1  H2  O   H1  H2  O   H1  H2  O   
H1  H2  O   H1  H2  O   H1  H2  O   H1  H2  O   H1  H2  O   H1  H2  O   H1  H2  
O   H1  H2  O   H1  H2  O   H1  H2  O   H1  H2  O   H1  H2  O   H1  H2  O   H1  
H2  O   H1  H2  O   H1  H2  O   H1  H2  O   H1  H2  O   H1  H2  O   H1  H2  O   
H1  H2  O   H1  H2  O   H1  H2  O   H1  H2  O   H1  H2  O   H1  H2  O   H1  H2  
O   H1  H2  O   H1  H2  O   H1  H2  O   H1  H2  O   H1  H2  O   H1  H2  O   H1  
H2  O   H1  H2  O   H1  H2  O   H1  H2  O   H1  H2  O   H1  H2  O   H1  H2  O   
H1  H2  O   H1  H2  O   H1  H2  O   H1  H2  O   H1  H2  O   H1  H2  O   H1  H2  
O   H1  H2  O   H1  H2  O   H1  H2  O   H1  H2  O   H1  H2  O   H1  H2  O   H1  
H2  O   H1  H2  O   H1  H2  O   H1  H2  O   H1  H2  O   H1  H2  O   H1  H2  O   
H1  H2  O   H1  H2  O   H1  H2  O   H1  H2  O   H1  H2  O   H1  H2  O   H1  H2  
O   H1  H2  O   H1  H2  O   H1  H2  O   H1  H2  O   H1  H2  O   H1  H2  O   H1  
H2  O   H1  H2  O   H1  H2  O   H1  H2  O   H1  H2  O   H1  H2  O   H1  H2  O   
H1  H2  O   H1  H2  O   H1  H2  O   H1  H2  O   H1  H2  O   H1  H2  O   H1  H2  
O   H1  H2  O   H1  H2  O   H1  H2  O   H1  H2  O   H1  H2  O   H1  H2  O   H1  
H2  O   H1  H2  O   H1  H2  O   H1  H2  O   H1  H2  O   H1  H2  O   H1  H2  O   
H1  H2  O   H1  H2  O   H1  H2  O   H1  H2  O   H1  H2  O   H1  H2  O   H1  H2  
O   H1  H2  O   H1  H2  O   H1  H2  O   H1  H2  O   H1  H2  O   H1  H2  O   H1  
H2  O   H1  H2  O   H1  H2  O   H1  H2  O   H1  H2  O   H1  H2  O   H1  H2  O   
H1  H2  O   H1  H2  O   H1  H2  O   H1  H2  O   H1  H2  O   H1  H2  O   H1  H2  
O   H1  H2  O   H1  H2  O   H1  H2  O   H1  H2  O   H1  H2  O   H1  H2  O   H1  
H2  O   H1  H2  O   H1  H2  O   H1  H2  O   H1  H2  O   H1  H2  O   H1  H2  O   
H1  H2  O   H1  H2  O   H1  H2  O   H1  H2  O   H1  H2  O   H1  H2  O   H1  H2  
O   H1  H2  O   H1  H2  O   H1  H2  O   H1  H2  O   H1  H2  O   H1  H2  O   H1  
H2  O   H1  H2  O   H1  H2  O   H1  H2  O   H1  H2  O   H1  H2  O   H1  H2  O   
H1  H2  O   H1  H2  O   H1  H2  O   H1  H2  O   H1  H2  O   H1  H2  O   H1  H2  
O   H1  H2  O   H1  H2  O   H1  H2  O   H1  H2  O   H1  H2  O   H1  H2  O   H1  
H2  O   H1  H2  O   H1  H2  O   H1  H2  O   H1  H2  O   H1  H2  O   H1  H2  O   
H1  H2  O   H1  H2  O   H1  H2  O   H1  H2  O   H1  H2  O   H1  H2  O   H1  H2  
O   H1  H2  O   H1  H2  O   H1  H2  O   H1  H2  O   H1  H2  O   H1  H2  O   H1  
H2  O   H1  H2  O   H1  H2  O   H1  H2  O   H1  H2  O   H1  H2  O   H1  H2  O   
H1  H2  O   H1  H2  O   H1  H2  O   H1  H2  O   H1  H2  O   H1  H2  O   H1  H2  
O   H1  H2  O   H1  H2  O   H1  H2  O   H1  H2  O   H1  H2  O   H1  H2  O   H1  
H2  O   H1  H2  O   H1  H2  O   H1  H2  O   H1  H2  O   H1  H2  O   H1  H2  O   
H1  H2  O   H1  H2  O   H1  H2  O   H1  H2  O   H1  H2  O   H1  H2  O   H1  H2  
O   H1  H2  O   H1  H2  O   H1  H2  O   H1  H2  O   H1  H2  O   H1  H2  O   H1  
H2  O   H1  H2  O   H1  H2  O   H1  H2  O   H1  H2  O   H1  H2  O   H1  H2  O   
H1  H2  O   H1  H2  O   H1  H2  O   H1  H2  O   H1  H2  O   H1  H2  O   H1  H2  
O   H1  H2  O   H1  H2  O   H1  H2  O   H1  H2  O   H1  H2  O   H1  H2  O   H1  
H2  O   H1  H2  O   H1  H2  O   H1  H2  O   H1  H2  O   H1  H2  O   H1  H2  O   
H1  H2  O   H1  H2  O   H1  H2  O   H1  H2  O   H1  H2  O   H1  H2  O   H1  H2  
O   H1  H2  O   H1  H2  O   H1  H2  O   H1  H2  O   H1  H2  O   H1  H2  O   H1  
H2  O   H1  H2  O   H1  H2  O   H1  H2  O   H1  H2  O   H1  H2  O   H1  H2  O   
H1  H2  O   H1  H2  O   H1  H2  O   H1  H2  O   H1  H2  O   H1  H2  O   H1  H2  
O   H1  H2  O   H1  H2  O   H1  H2  O   H1  H2  O   H1  H2  O   H1  H2  O   H1  
H2  O   H1  H2  O   H1  H2  O   H1  H2  O   H1  H2  O   H1  H2  O   H1  H2  O   
H1  H2  O   H1  H2  O   H1  H2  O   H1  H2  O   H1  H2  O   H1  H2  O   H1  H2  
O   H1  H2  O   H1  H2  O   H1  H2  O   H1  H2  O   H1  H2  O   H1  H2  O   H1  
H2  O   H1  H2  O   H1  H2  O   H1  H2  O   H1  H2  O   H1  H2  O   H1  H2  O   
H1  H2  O   H1  H2  O   H1  H2  O   H1  H2  O   H1  H2  O   H1  H2  O   H1  H2  
O   H1  H2  O   H1  H2  O   H1  H2  O   H1  H2  O   H1  H2  O   H1  H2  O   H1  
H2  O   H1  H2  O   H1  H2  O   H1  H2  O   H1  H2  O   H1  H2  O   H1  H2  O   
H1  H2  O   H1  H2  O   H1  H2  O   H1  H2  O   H1  H2  O   H1  H2  O   H1  H2  
O   H1  H2  O   H1  H2  O   H1  H2  O   H1  H2  O   H1  H2  O   H1  H2  O   H1  
H2  O   H1  H2  O   H1  H2  O   H1  H2  O   H1  H2  O   H1  H2  O   H1  H2  O   
H1  H2  O   H1  H2  O   H1  H2  O   H1  H2  O   H1  H2  O   H1  H2  O   H1  H2  
O   H1  H2  O   H1  H2  O   H1  H2  O   H1  H2  O   H1  H2  O   H1  H2  O   H1  
H2  O   H1  H2  O   H1  H2  O   H1  H2  O   H1  H2  O   H1  H2  O   H1  H2  O   
H1  H2  O   H1  H2  O   H1  H2  O   H1  H2  O   H1  H2  O   H1  H2  O   H1  H2  
O   H1  H2  O   H1  H2  O   H1  H2  O   H1  H2  O   H1  H2  O   H1  H2  O   H1  
H2  O   H1  H2  O   H1  H2  O   H1  H2  O   H1  H2  O   H1  H2  O   H1  H2  O   
H1  H2  O   H1  H2  O   H1  H2  O   H1  H2  O   H1  H2  O   H1  H2  O   H1  H2  
O   H1  H2  O   H1  H2  O   H1  H2  O   H1  H2  O   H1  H2  O   H1  H2  O   H1  
H2  O   H1  H2  O   H1  H2  O   H1  H2  O   H1  H2  O   H1  H2  O   H1  H2  O   
H1  H2  O   H1  H2  O   H1  H2  O   H1  H2  O   H1  H2  O   H1  H2  O   H1  H2  
O   H1  H2  O   H1  H2  O   H1  H2  O   H1  H2  O   H1  H2  O   H1  H2  O   H1  
H2  O   H1  H2  O   H1  H2  O   H1  H2  O   H1  H2  O   H1  H2  O   H1  H2  O   
H1  H2  O   H1  H2  O   H1  H2  O   H1  H2  O   H1  H2  O   H1  H2  O   H1  H2  
O   H1  H2  O   H1  H2  O   H1  H2  O   H1  H2  O   H1  H2  O   H1  H2  O   H1  
H2  O   H1  H2  O   H1  H2  O   H1  H2  O   H1  H2  O   H1  H2  O   H1  H2  O   
H1  H2  O   H1  H2  O   H1  H2  O   H1  H2  O   H1  H2  O   H1  H2  O   H1  H2  
O   H1  H2  O   H1  H2  O   H1  H2  O   H1  H2  O   H1  H2  O   H1  H2  O   H1  
H2  O   H1  H2  O   H1  H2  O   H1  H2  O   H1  H2  O   H1  H2  O   H1  H2  O   
H1  H2  O   H1  H2  O   H1  H2  O   H1  H2  O   H1  H2  O   H1  H2  O   H1  H2  
O   H1  H2  O   H1  H2  O   H1  H2  O   H1  H2  O   H1  H2  O   H1  H2  O   H1  
H2  O   H1  H2  O   H1  H2  O   H1  H2  O   H1  H2  O   H1  H2  O   H1  H2  O   
H1  H2  O   H1  H2  O   H1  H2  O   H1  H2  O   H1  H2  O   H1  H2  O   H1  H2  
O   H1  H2  O   H1  H2  O   H1  H2  O   H1  H2  O   H1  H2  O   H1  H2  O   H1  
H2  O   H1  H2  O   H1  H2  O   H1  H2  O   H1  H2  O   H1  H2  O   H1  H2  O   
H1  H2  O   H1  H2  O   H1  H2  O   H1  H2  O   H1  H2  O   H1  H2  O   H1  H2  
O   H1  H2  O   H1  H2  O   H1  H2  O   H1  H2  O   H1  H2  O   H1  H2  O   H1  
H2  O   H1  H2  O   H1  H2  O   H1  H2  O   H1  H2  O   H1  H2  O   H1  H2  O   
H1  H2  O   H1  H2  O   H1  H2  O   H1  H2  O   H1  H2  O   H1  H2  O   H1  H2  
O   H1  H2  O   H1  H2  O   H1  H2  O   H1  H2  O   H1  H2  O   H1  H2  O   H1  
H2  O   H1  H2  O   H1  H2  O   H1  H2  O   H1  H2  O   H1  H2  O   H1  H2  O   
H1  H2  O   H1  H2  O   H1  H2  O   H1  H2  O   H1  H2  O   H1  H2  O   H1  H2  
O   H1  H2  O   H1  H2  O   H1  H2  O   H1  H2  O   H1  H2  O   H1  H2  O   H1  
H2  O   H1  H2  O   H1  H2  O   H1  H2  O   H1  H2  O   H1  H2  O   H1  H2  O   
H1  H2  O   H1  H2  O   H1  H2  O   H1  H2  O   H1  H2  O   H1  H2  O   H1  H2  
O   H1  H2  O   H1  H2  O   H1  H2  O   H1  H2  O   H1  H2  O   H1  H2  O   H1  
H2  O   H1  H2  O   H1  H2  O   H1  H2  O   H1  H2  O   H1  H2  O   H1  H2  O   
H1  H2  O   H1  H2  O   H1  H2  O   H1  H2  O   H1  H2  O   H1  H2  O   H1  H2  
O   H1  H2  O   H1  H2  O   H1  H2  O   H1  H2  O   H1  H2  O   H1  H2  O   H1  
H2  O   H1  H2  O   H1  H2  O   H1  H2  O   H1  H2  O   H1  H2  O   H1  H2  O   
H1  H2  O   H1  H2  O   H1  H2  O   H1  H2  O   H1  H2  O   H1  H2  O   H1  H2  
O   H1  H2  O   H1  H2  O   H1  H2  O   H1  H2  O   H1  H2  O   H1  H2  O   H1  
H2  O   H1  H2  O   H1  H2  O   H1  H2  O   H1  H2  O   H1  H2  O   H1  H2  O   
H1  H2  O   H1  H2  O   H1  H2  O   H1  H2  O   H1  H2  O   H1  H2  O   H1  H2  
O   H1  H2  O   H1  H2  O   H1  H2  O   H1  H2  O   H1  H2  O   H1  H2  O   H1  
H2  O   H1  H2  O   H1  H2  O   H1  H2  O   H1  H2  O   H1  H2  O   H1  H2  O   
H1  H2  O   H1  H2  O   H1  H2  O   H1  H2  O   H1  H2  O   H1  H2  O   H1  H2  
O   H1  H2  O   H1  H2  O   H1  H2  O   H1  H2  O   H1  H2  O   H1  H2  O   H1  
H2  O   H1  H2  O   H1  H2  O   H1  H2  O   H1  H2  O   H1  H2  O   H1  H2  O   
H1  H2  O   H1  H2  O   H1  H2  O   H1  H2  O   H1  H2  O   H1  H2  O   H1  H2  
O   H1  H2  O   H1  H2  O   H1  H2  O   H1  H2  O   H1  H2  O   H1  H2  O   H1  
H2  O   H1  H2  O   H1  H2  O   H1  H2  O   H1  H2  O   H1  H2  O   H1  H2  O   
H1  H2  O   H1  H2  O   H1  H2  O   H1  H2  O   H1  H2  O   H1  H2  O   H1  H2  
O   H1  H2  O   H1  H2  O   H1  H2  O   H1  H2  O   H1  H2  O   H1  H2  O   H1  
H2  O   H1  H2  O   H1  H2  O   H1  H2  O   H1  H2  O   H1  H2  O   H1  H2  O   
H1  H2  O   H1  H2  O   H1  H2  O   H1  H2  O   H1  H2  O   H1  H2  O   H1  H2  
O   H1  H2  O   H1  H2  O   H1  H2  O   H1  H2  O   H1  H2  O   H1  H2  O   H1  
H2  O   H1  H2  O   H1  H2  O   H1  H2  O   H1  H2  O   H1  H2  O   H1  H2  O   
H1  H2  O   H1  H2  O   H1  H2  O   H1  H2  O   H1  H2  O   H1  H2  O   H1  H2  
O   H1  H2  O   H1  H2  O   H1  H2  O   H1  H2  O   H1  H2  O   H1  H2  O   H1  
H2  O   H1  H2  O   H1  H2  O   H1  H2  O   H1  H2  O   H1  H2  O   H1  H2  O   
H1  H2  O   H1  H2  O   H1  H2  O   H1  H2  O   H1  H2  O   H1  H2  O   H1  H2  
O   H1  H2  O   H1  H2  O   H1  H2  O   H1  H2  O   H1  H2  O   H1  H2  O   H1  
H2  O   H1  H2  O   H1  H2  O   H1  H2  O   H1  H2  O   H1  H2  O   H1  H2  O   
H1  H2  O   H1  H2  O   H1  H2  O   H1  H2  O   H1  H2  O   H1  H2  O   H1  H2  
O   H1  H2  O   H1  H2  O   H1  H2  O   H1  H2  O   H1  H2  O   H1  H2  O   H1  
H2  O   H1  H2  O   H1  H2  O   H1  H2  O   H1  H2  O   H1  H2  O   H1  H2  O   
H1  H2  O   H1  H2  O   H1  H2  O   H1  H2  O   H1  H2  O   H1  H2  O   H1  H2  
O   H1  H2  O   H1  H2  O   H1  H2  O   H1  H2  O   H1  H2  O   H1  H2  O   H1  
H2  O   H1  H2  O   H1  H2  O   H1  H2  O   H1  H2  O   H1  H2  O   H1  H2  O   
H1  H2  O   H1  H2  O   H1  H2  O   H1  H2  O   H1  H2  O   H1  H2  O   H1  H2  
O   H1  H2  O   H1  H2  O   H1  H2  O   H1  H2  O   H1  H2  O   H1  H2  O   H1  
H2  O   H1  H2  O   H1  H2  O   H1  H2  O   H1  H2  O   H1  H2  O   H1  H2  O   
H1  H2  O   H1  H2  O   H1  H2  O   H1  H2  O   H1  H2  O   H1  H2  O   H1  H2  
O   H1  H2  O   H1  H2  O   H1  H2  O   H1  H2  O   H1  H2  O   H1  H2  O   H1  
H2  O   H1  H2  O   H1  H2  O   H1  H2  O   H1  H2  O   H1  H2  O   H1  H2  O   
H1  H2  O   H1  H2  O   H1  H2  O   H1  H2  O   H1  H2  O   H1  H2  O   H1  H2  
O   H1  H2  O   H1  H2  O   H1  H2  O   H1  H2  O   H1  H2  O   H1  H2  O   H1  
H2  O   H1  H2  O   H1  H2  O   H1  H2  O   H1  H2  O   H1  H2  O   H1  H2  O   
H1  H2  O   H1  H2  O   H1  H2  O   H1  H2  O   H1  H2  O   H1  H2  O   H1  H2  
O   H1  H2  O   H1  H2  O   H1  H2  O   H1  H2  O   H1  H2  O   H1  H2  O   H1  
H2  O   H1  H2  O   H1  H2  O   H1  H2  O   H1  H2  O   H1  H2  O   H1  H2  O   
H1  H2  O   H1  H2  O   H1  H2  O   H1  H2  O   H1  H2  O   H1  H2  O   H1  H2  
O   H1  H2  O   H1  H2  O   H1  H2  O   H1  H2  O   H1  H2  O   H1  H2  O   H1  
H2  O   H1  H2  O   H1  H2  O   H1  H2  O   H1  H2  O   H1  H2  O   H1  H2  O   
H1  H2  O   H1  H2  O   H1  H2  O   H1  H2  O   H1  H2  O   H1  H2  O   H1  H2  
O   H1  H2  O   H1  H2  O   H1  H2  O   H1  H2  O   H1  H2  O   H1  H2  O   H1  
H2  O   H1  H2  O   H1  H2  O   H1  H2  O   H1  H2  O   H1  H2  O   H1  H2  O   
H1  H2  O   H1  H2  O   H1  H2  O   H1  H2  O   H1  H2  O   H1  H2  O   H1  H2  
O   H1  H2  O   H1  H2  O   H1  H2  O   H1  H2  O   H1  H2  O   H1  H2  O   H1  
H2  O   H1  H2  O   H1  H2  O   H1  H2  O   H1  H2  O   H1  H2  O   H1  H2  O   
H1  H2  O   H1  H2  O   H1  H2  O   H1  H2  O   H1  H2  O   H1  H2  O   H1  H2  
O   H1  H2  O   H1  H2  O   H1  H2  O   H1  H2  O   H1  H2  O   H1  H2  O   H1  
H2  O   H1  H2  O   H1  H2  O   H1  H2  O   H1  H2  O   H1  H2  O   H1  H2  O   
H1  H2  O   H1  H2  O   H1  H2  O   H1  H2  O   H1  H2  O   H1  H2  O   H1  H2  
O   H1  H2  O   H1  H2  O   H1  H2  O   H1  H2  O   H1  H2  O   H1  H2  O   H1  
H2  O   H1  H2  O   H1  H2  O   H1  H2  O   H1  H2  O   H1  H2  O   H1  H2  O   
H1  H2  O   H1  H2  O   H1  H2  O   H1  H2  O   H1  H2  O   H1  H2  O   H1  H2  
O   H1  H2  O   H1  H2  O   H1  H2  O   H1  H2  O   H1  H2  O   H1  H2  O   H1  
H2  O   H1  H2  O   H1  H2  O   H1  H2  O   H1  H2  O   H1  H2  O   H1  H2  O   
H1  H2  O   H1  H2  O   H1  H2  O   H1  H2  O   H1  H2  O   H1  H2  O   H1  H2  
O   H1  H2  O   H1  H2  O   H1  H2  O   H1  H2  O   H1  H2  O   H1  H2  O   H1  
H2  O   H1  H2  O   H1  H2  O   H1  H2  O   H1  H2  O   H1  H2  O   H1  H2  O   
H1  H2  O   H1  H2  O   H1  H2  O   H1  H2  O   H1  H2  O   H1  H2  O   H1  H2  
O   H1  H2  O   H1  H2  O   H1  H2  O   H1  H2  O   H1  H2  O   H1  H2  O   H1  
H2  O   H1  H2  O   H1  H2  O   H1  H2  O   H1  H2  O   H1  H2  O   H1  H2  O   
H1  H2  O   H1  H2  O   H1  H2  O   H1  H2  O   H1  H2  O   H1  H2  O   H1  H2  
O   H1  H2  O   H1  H2  O   H1  H2  O   H1  H2  O   H1  H2  O   H1  H2  O   H1  
H2  O   H1  H2  O   H1  H2  O   H1  H2  O   H1  H2  O   H1  H2  O   H1  H2  O   
H1  H2  O   H1  H2  O   H1  H2  O   H1  H2  O   H1  H2  O   H1  H2  O   H1  H2  
O   H1  H2  O   H1  H2  O   H1  H2  O   H1  H2  O   H1  H2  O   H1  H2  O   H1  
H2  O   H1  H2  O   H1  H2  O   H1  H2  O   H1  H2  O   H1  H2  O   H1  H2  O   
H1  H2  O   H1  H2  O   H1  H2  O   H1  H2  O   H1  H2  O   H1  H2  O   H1  H2  
O   H1  H2  O   H1  H2  O   H1  H2  O   H1  H2  O   H1  H2  O   H1  H2  O   H1  
H2  O   H1  H2  O   H1  H2  O   H1  H2  O   H1  H2  O   H1  H2  O   H1  H2  O   
H1  H2  O   H1  H2  O   H1  H2  O   H1  H2  O   H1  H2  O   H1  H2  O   H1  H2  
O   H1  H2  O   H1  H2  O   H1  H2  O   H1  H2  O   H1  H2  O   H1  H2  O   H1  
H2  O   H1  H2  O   H1  H2  O   H1  H2  O   H1  H2  O   H1  H2  O   H1  H2  O   
H1  H2  O   H1  H2  O   H1  H2  O   H1  H2  O   H1  H2  O   H1  H2  O   H1  H2  
O   H1  H2  O   H1  H2  O   H1  H2  O   H1  H2  O   H1  H2  O   H1  H2  O   H1  
H2  O   H1  H2  O   H1  H2  O   H1  H2  O   H1  H2  O   H1  H2  O   H1  H2  O   
H1  H2  O   H1  H2  O   H1  H2  O   H1  H2  O   H1  H2  O   H1  H2  O   H1  H2  
O   H1  H2  O   H1  H2  O   H1  H2  O   H1  H2  O   H1  H2  O   H1  H2  O   H1  
H2  O   H1  H2  O   H1  H2  O   H1  H2  O   H1  H2  O   H1  H2  O   H1  H2  O   
H1  H2  O   H1  H2  O   H1  H2  O   H1  H2  O   H1  H2  O   H1  H2  O   H1  H2  
O   H1  H2  O   H1  H2  O   H1  H2  O   H1  H2  O   H1  H2  O   H1  H2  O   H1  
H2  O   H1  H2  O   H1  H2  O   H1  H2  O   H1  H2  O   H1  H2  O   H1  H2  O   
H1  H2  O   H1  H2  O   H1  H2  O   H1  H2  O   H1  H2  O   H1  H2  O   H1  H2  
O   H1  H2  O   H1  H2  O   H1  H2  O   H1  H2  O   H1  H2  O   H1  H2  O   H1  
H2  O   H1  H2  O   H1  H2  O   H1  H2  O   H1  H2  O   H1  H2  O   H1  H2  O   
H1  H2  O   H1  H2  O   H1  H2  O   H1  H2  O   H1  H2  O   H1  H2  O   H1  H2  
O   H1  H2  O   H1  H2  O   H1  H2  O   H1  H2  O   H1  H2  O   H1  H2  O   H1  
H2  O   H1  H2  O   H1  H2  O   H1  H2  O   H1  H2  O   H1  H2  O   H1  H2  O   
H1  H2  O   H1  H2  O   H1  H2  O   H1  H2  O   H1  H2  O   H1  H2  O   H1  H2  
O   H1  H2  O   H1  H2  O   H1  H2  O   H1  H2  O   H1  H2  O   H1  H2  O   H1  
H2  O   H1  H2  O   H1  H2  O   H1  H2  O   H1  H2  O   H1  H2  O   H1  H2  O   
H1  H2  O   H1  H2  O   H1  H2  O   H1  H2  O   H1  H2  O   H1  H2  O   H1  H2  
O   H1  H2  O   H1  H2  O   H1  H2  O   H1  H2  O   H1  H2  O   H1  H2  O   H1  
H2  O   H1  H2  O   H1  H2  O   H1  H2  O   H1  H2  O   H1  H2  O   H1  H2  O   
H1  H2  O   H1  H2  O   H1  H2  O   H1  H2  O   H1  H2  O   H1  H2  O   H1  H2  
O   H1  H2  O   H1  H2  O   H1  H2  O   H1  H2  O   H1  H2  O   H1  H2  O   H1  
H2  O   H1  H2  O   H1  H2  O   H1  H2  O   H1  H2  O   H1  H2  O   H1  H2  O   
H1  H2  O   H1  H2  O   H1  H2  O   H1  H2  O   H1  H2  O   H1  H2  O   H1  H2  
O   H1  H2  O   H1  H2  O   H1  H2  O   H1  H2  O   H1  H2  O   H1  H2  O   H1  
H2  O   H1  H2  O   H1  H2  O   H1  H2  O   H1  H2  O   H1  H2  O   H1  H2  O   
H1  H2  O   H1  H2  O   H1  H2  O   H1  H2  O   H1  H2  O   H1  H2  O   H1  H2  
O   H1  H2  O   H1  H2  O   H1  H2  O   H1  H2  O   H1  H2  O   H1  H2  O   H1  
H2  O   H1  H2  O   H1  H2  O   H1  H2  O   H1  H2  O   H1  H2  O   H1  H2  O   
H1  H2  O   H1  H2  O   H1  H2  O   H1  H2  O   H1  H2  O   H1  H2  O   H1  H2  
O   H1  H2  O   H1  H2  O   H1  H2  O   H1  H2  O   H1  H2  O   H1  H2  O   H1  
H2  O   H1  H2  O   H1  H2  O   H1  H2  O   H1  H2  O   H1  H2  O   H1  H2  O   
H1  H2  O   H1  H2  O   H1  H2  O   H1  H2  O   H1  H2  O   H1  H2  O   H1  H2  
O   H1  H2  O   H1  H2  O   H1  H2  O   H1  H2  O   H1  H2  O   H1  H2  O   H1  
H2  O   H1  H2  O   H1  H2  O   H1  H2  O   H1  H2  O   H1  H2  O   H1  H2  O   
H1  H2  O   H1  H2  O   H1  H2  O   H1  H2  O   H1  H2  O   H1  H2  O   H1  H2  
O   H1  H2  O   H1  H2  O   H1  H2  O   H1  H2  O   H1  H2  O   H1  H2  O   H1  
H2  O   H1  H2  O   H1  H2  O   H1  H2  O   H1  H2  O   H1  H2  O   H1  H2  O   
H1  H2  O   H1  H2  O   H1  H2  O   H1  H2  O   H1  H2  O   H1  H2  O   H1  H2  
O   H1  H2  O   H1  H2  O   H1  H2  O   H1  H2  O   H1  H2  O   H1  H2  O   H1  
H2  O   H1  H2  O   H1  H2  O   H1  H2  O   H1  H2  O   H1  H2  O   H1  H2  O   
H1  H2  O   H1  H2  O   H1  H2  O   H1  H2  O   H1  H2  O   H1  H2  O   H1  H2  
O   H1  H2  O   H1  H2  O   H1  H2  O   H1  H2  O   H1  H2  O   H1  H2  O   H1  
H2  O   H1  H2  O   H1  H2  O   H1  H2  O   H1  H2  O   H1  H2  O   H1  H2  O   
H1  H2  O   H1  H2  O   H1  H2  O   H1  H2  O   H1  H2  O   H1  H2  O   H1  H2  
O   H1  H2  O   H1  H2  O   H1  H2  O   H1  H2  O   H1  H2  O   H1  H2  O   H1  
H2  O   H1  H2  O   H1  H2  O   H1  H2  O   H1  H2  O   H1  H2  O   H1  H2  O   
H1  H2  O   H1  H2  O   H1  H2  O   H1  H2  O   H1  H2  O   H1  H2  O   H1  H2  
O   H1  H2  O   H1  H2  O   H1  H2  O   H1  H2  O   H1  H2  O   H1  H2  O   H1  
H2  O   H1  H2  O   H1  H2  O   H1  H2  O   H1  H2  O   H1  H2  O   H1  H2  O   
H1  H2  O   H1  H2  O   H1  H2  O   H1  H2  O   H1  H2  O   H1  H2  O   H1  H2  
O   H1  H2  O   H1  H2  O   H1  H2  O   H1  H2  O   H1  H2  O   H1  H2  O   H1  
H2  O   H1  H2  O   H1  H2  O   H1  H2  O   H1  H2  O   H1  H2  O   H1  H2  O   
H1  H2  O   H1  H2  O   H1  H2  O   H1  H2  O   H1  H2  O   H1  H2  O   H1  H2  
O   H1  H2  O   H1  H2  O   H1  H2  O   H1  H2  O   H1  H2  O   H1  H2  O   H1  
H2  O   H1  H2  O   H1  H2  O   H1  H2  O   H1  H2  O   H1  H2  O   H1  H2  O   
H1  H2  O   H1  H2  O   H1  H2  O   H1  H2  O   H1  H2  O   H1  H2  O   H1  H2  
O   H1  H2  O   H1  H2  O   H1  H2  O   H1  H2  O   H1  H2  O   H1  H2  O   H1  
H2  O   H1  H2  O   H1  H2  O   H1  H2  O   H1  H2  O   H1  H2  O   H1  H2  O   
H1  H2  O   H1  H2  O   H1  H2  O   H1  H2  O   H1  H2  O   H1  H2  O   H1  H2  
O   H1  H2  O   H1  H2  O   H1  H2  O   H1  H2  O   H1  H2  O   H1  H2  O   H1  
H2  O   H1  H2  O   H1  H2  O   H1  H2  O   H1  H2  O   H1  H2  O   H1  H2  O   
H1  H2  O   H1  H2  O   H1  H2  O   H1  H2  O   H1  H2  O   H1  H2  O   H1  H2  
O   H1  H2  O   H1  H2  O   H1  H2  O   H1  H2  O   H1  H2  O   H1  H2  O   H1  
H2  O   H1  H2  O   H1  H2  O   H1  H2  O   H1  H2  O   H1  H2  O   H1  H2  O   
H1  H2  O   H1  H2  O   H1  H2  O   H1  H2  O   H1  H2  O   H1  H2  O   H1  H2  
O   H1  H2  O   H1  H2  O   H1  H2  O   H1  H2  O   H1  H2  O   H1  H2  O   H1  
H2  O   H1  H2  O   H1  H2  O   H1  H2  O   H1  H2  O   H1  H2  O   H1  H2  O   
H1  H2  O   H1  H2  O   H1  H2  O   H1  H2  O   H1  H2  O   H1  H2  O   H1  H2  
O   H1  H2  O   H1  H2  O   H1  H2  O   H1  H2  O   H1  H2  O   H1  H2  O   H1  
H2  O   H1  H2  O   H1  H2  O   H1  H2  O   H1  H2  O   H1  H2  O   H1  H2  O   
H1  H2  O   H1  H2  O   H1  H2  O   H1  H2  O   H1  H2  O   H1  H2  O   H1  H2  
O   H1  H2  O   H1  H2  O   H1  H2  O   H1  H2  O   H1  H2  O   H1  H2  O   H1  
H2  O   H1  H2  O   H1  H2  O   H1  H2  O   H1  H2  O   H1  H2  O   H1  H2  O   
H1  H2  O   H1  H2  O   H1  H2  O   H1  H2  O   H1  H2  O   H1  H2  O   H1  H2  
O   H1  H2  O   H1  H2  O   H1  H2  O   H1  H2  O   H1  H2  O   H1  H2  O   H1  
H2  O   H1  H2  O   H1  H2  O   H1  H2  O   H1  H2  O   H1  H2  O   H1  H2  O   
H1  H2  O   H1  H2  O   H1  H2  O   H1  H2  O   H1  H2  O   H1  H2  O   H1  H2  
O   H1  H2  O   H1  H2  O   H1  H2  O   H1  H2  O   H1  H2  O   H1  H2  O   H1  
H2  O   H1  H2  O   H1  H2  O   H1  H2  O   H1  H2  O   H1  H2  O   H1  H2  O   
H1  H2  O   H1  H2  O   H1  H2  O   H1  H2  O   H1  H2  O   H1  H2  O   H1  H2  
O   H1  H2  O   H1  H2  O   H1  H2  O   H1  H2  O   H1  H2  O   H1  H2  O   H1  
H2  O   H1  H2  O   H1  H2  O   H1  H2  O   H1  H2  O   H1  H2  O   H1  H2  O   
H1  H2  O   H1  H2  O   H1  H2  O   H1  H2  O   H1  H2  O   H1  H2  O   H1  H2  
O   H1  H2  O   H1  H2  O   H1  H2  O   H1  H2  O   H1  H2  O   H1  H2  O   H1  
H2  O   H1  H2  O   H1  H2  O   H1  H2  O   H1  H2  O   H1  H2  O   H1  H2  O   
H1  H2  O   H1  H2  O   H1  H2  O   H1  H2  O   H1  H2  O   H1  H2  O   H1  H2  
O   H1  H2  O   H1  H2  O   H1  H2  O   H1  H2  O   H1  H2  O   H1  H2  O   H1  
H2  O   H1  H2  O   H1  H2  O   H1  H2  O   H1  H2  O   H1  H2  O   H1  H2  O   
H1  H2  O   H1  H2  O   H1  H2  O   H1  H2  O   H1  H2  O   H1  H2  O   H1  H2  
O   H1  H2  O   H1  H2  O   H1  H2  O   H1  H2  O   H1  H2  O   H1  H2  O   H1  
H2  O   H1  H2  O   H1  H2  O   H1  H2  O   H1  H2  O   H1  H2  O   H1  H2  O   
H1  H2  O   H1  H2  O   H1  H2  O   H1  H2  O   H1  H2  O   H1  H2  O   H1  H2  
O   H1  H2  O   H1  H2  O   H1  H2  O   H1  H2  O   H1  H2  O   H1  H2  O   H1  
H2  O   H1  H2  O   H1  H2  O   H1  H2  O   H1  H2  O   H1  H2  O   H1  H2  O   
H1  H2  O   H1  H2  O   H1  H2  O   H1  H2  O   H1  H2  O   H1  H2  O   H1  H2  
O   H1  H2  O   H1  H2  O   H1  H2  O   H1  H2  O   H1  H2  O   H1  H2  O   H1  
H2  O   H1  H2  O   H1  H2  O   H1  H2  O   H1  H2  O   H1  H2  O   H1  H2  O   
H1  H2  O   H1  H2  O   H1  H2  O   H1  H2  O   H1  H2  O   H1  H2  O   H1  H2  
O   H1  H2  O   H1  H2  O   H1  H2  O   H1  H2  O   H1  H2  O   H1  H2  O   H1  
H2  O   H1  H2  O   H1  H2  O   H1  H2  O   H1  H2  O   H1  H2  O   H1  H2  O   
H1  H2  O   H1  H2  O   H1  H2  O   H1  H2  O   H1  H2  O   H1  H2  O   H1  H2  
O   H1  H2  O   H1  H2  O   H1  H2  O   H1  H2  O   H1  H2  O   H1  H2  O   H1  
H2  O   H1  H2  O   H1  H2  O   H1  H2  O   H1  H2  O   H1  H2  O   H1  H2  O   
H1  H2  O   H1  H2  O   H1  H2  O   H1  H2  O   H1  H2  O   H1  H2  O   H1  H2  
O   H1  H2  O   H1  H2  O   H1  H2  O   H1  H2  O   H1  H2  O   H1  H2  O   H1  
H2  O   H1  H2  O   H1  H2  O   H1  H2  O   H1  H2  O   H1  H2  O   H1  H2  O   
H1  H2  O   H1  H2  O   H1  H2  O   H1  H2  O   H1  H2  O   H1  H2  O   H1  H2  
O   H1  H2  O   H1  H2  O   H1  H2  O   H1  H2  O   H1  H2  O   H1  H2  O   H1  
H2  O   H1  H2  O   H1  H2  O   H1  H2  O   H1  H2  O   H1  H2  O   H1  H2  O   
H1  H2  O   H1  H2  O   H1  H2  O   H1  H2  O   H1  H2  O   H1  H2  O   H1  H2  
O   H1  H2  O   H1  H2  O   H1  H2  O   H1  H2  O   H1  H2  O   H1  H2  O   H1  
H2  O   H1  H2  O   H1  H2  O   H1  H2  O   H1  H2  O   H1  H2  O   H1  H2  O   
H1  H2  O   H1  H2  O   H1  H2  O   H1  H2  O   H1  H2  O   H1  H2  O   H1  H2  
O   H1  H2  O   H1  H2  O   H1  H2  O   H1  H2  O   H1  H2  O   H1  H2  O   H1  
H2  O   H1  H2  O   H1  H2  O   H1  H2  O   H1  H2  O   H1  H2  O   H1  H2  O   
H1  H2  O   H1  H2  O   H1  H2  O   H1  H2  O   H1  H2  O   H1  H2  O   H1  H2  
O   H1  H2  O   H1  H2  O   H1  H2  O   H1  H2  O   H1  H2  O   H1  H2  O   H1  
H2  O   H1  H2  O   H1  H2  O   H1  H2  O   H1  H2  O   H1  H2  O   H1  H2  O   
H1  H2  O   H1  H2  O   H1  H2  O   H1  H2  O   H1  H2  O   H1  H2  O   H1  H2  
O   H1  H2  O   H1  H2  O   H1  H2  O   H1  H2  O   H1  H2  O   H1  H2  O   H1  
H2  O   H1  H2  O   H1  H2  O   H1  H2  O   H1  H2  O   H1  H2  O   H1  H2  O   
H1  H2  O   H1  H2  O   H1  H2  O   H1  H2  O   H1  H2  O   H1  H2  O   H1  H2  
O   H1  H2  O   H1  H2  O   H1  H2  O   H1  H2  O   H1  H2  O   H1  H2  O   H1  
H2  O   H1  H2  O   H1  H2  O   H1  H2  O   H1  H2  O   H1  H2  O   H1  H2  O   
H1  H2  O   H1  H2  O   H1  H2  O   H1  H2  O   H1  H2  O   H1  H2  O   H1  H2  
O   H1  H2  O   H1  H2  O   H1  H2  O   H1  H2  O   H1  H2  O   H1  H2  O   H1  
H2  O   H1  H2  O   H1  H2  O   H1  H2  O   H1  H2  O   H1  H2  O   H1  H2  O   
H1  H2  O   H1  H2  O   H1  H2  O   H1  H2  O   H1  H2  O   H1  H2  O   H1  H2  
O   H1  H2  O   H1  H2  O   H1  H2  O   H1  H2  O   H1  H2  O   H1  H2  O   H1  
H2  O   H1  H2  O   H1  H2  O   H1  H2  O   H1  H2  O   H1  H2  O   H1  H2  O   
H1  H2  O   H1  H2  O   H1  H2  O   H1  H2  O   H1  H2  O   H1  H2  O   H1  H2  
O   H1  H2  O   H1  H2  O   H1  H2  O   H1  H2  O   H1  H2  O   H1  H2  O   H1  
H2  O   H1  H2  O   H1  H2  O   H1  H2  O   H1  H2  O   H1  H2  O   H1  H2  O   
H1  H2  O   H1  H2  O   H1  H2  O   H1  H2  O   H1  H2  O   H1  H2  O   H1  H2  
O   H1  H2  O   H1  H2  O   H1  H2  O   H1  H2  O   H1  H2  O   H1  H2  O   H1  
H2  O   H1  H2  O   H1  H2  O   H1  H2  O   H1  H2  O   H1  H2  O   H1  H2  O   
H1  H2  O   H1  H2  O   H1  H2  O   H1  H2  O   H1  H2  O   H1  H2  O   H1  H2  
O   H1  H2  O   H1  H2  O   H1  H2  O   H1  H2  O   H1  H2  O   H1  H2  O   H1  
H2  O   H1  H2  O   H1  H2  O   H1  H2  O   H1  H2  O   H1  H2  O   H1  H2  O   
H1  H2  O   H1  H2  O   H1  H2  O   H1  H2  O   H1  H2  O   H1  H2  O   H1  H2  
O   H1  H2  O   H1  H2  O   H1  H2  O   H1  H2  O   H1  H2  O   H1  H2  O   H1  
H2  O   H1  H2  O   H1  H2  O   H1  H2  O   H1  H2  O   H1  H2  O   H1  H2  O   
H1  H2  O   H1  H2  O   H1  H2  O   H1  H2  O   H1  H2  O   H1  H2  O   H1  H2  
O   H1  H2  O   H1  H2  O   H1  H2  O   H1  H2  O   H1  H2  O   H1  H2  O   H1  
H2  O   H1  H2  O   H1  H2  O   H1  H2  O   H1  H2  O   H1  H2  O   H1  H2  O   
H1  H2  O   H1  H2  O   H1  H2  O   H1  H2  O   H1  H2  O   H1  H2  O   H1  H2  
O   H1  H2  O   H1  H2  O   H1  H2  O   H1  H2  O   H1  H2  O   H1  H2  O   H1  
H2  O   H1  H2  O   H1  H2  O   H1  H2  O   H1  H2  O   H1  H2  O   H1  H2  O   
H1  H2  O   H1  H2  O   H1  H2  O   H1  H2  O   H1  H2  O   H1  H2  O   H1  H2  
O   H1  H2  O   H1  H2  O   H1  H2  O   H1  H2  O   H1  H2  O   H1  H2  O   H1  
H2  O   H1  H2  O   H1  H2  O   H1  H2  O   H1  H2  O   H1  H2  O   H1  H2  O   
H1  H2  O   H1  H2  O   H1  H2  O   H1  H2  O   H1  H2  O   H1  H2  O   H1  H2  
O   H1  H2  O   H1  H2  O   H1  H2  O   H1  H2  O   H1  H2  O   H1  H2  O   H1  
H2  O   H1  H2  O   H1  H2  O   H1  H2  O   H1  H2  O   H1  H2  O   H1  H2  O   
H1  H2  O   H1  H2  O   H1  H2  O   H1  H2  O   H1  H2  O   H1  H2  O   H1  H2  
O   H1  H2  O   H1  H2  O   H1  H2  O   H1  H2  O   H1  H2  O   H1  H2  O   H1  
H2  O   H1  H2  O   H1  H2  O   H1  H2  O   H1  H2  O   H1  H2  O   H1  H2  O   
H1  H2  O   H1  H2  O   H1  H2  O   H1  H2  O   H1  H2  O   H1  H2  O   H1  H2  
O   H1  H2  O   H1  H2  O   H1  H2  O   H1  H2  O   H1  H2  O   H1  H2  O   H1  
H2  O   H1  H2  O   H1  H2  O   H1  H2  O   H1  H2  O   H1  H2  O   H1  H2  O   
H1  H2  O   H1  H2  O   H1  H2  O   H1  H2  O   H1  H2  O   H1  H2  O   H1  H2  
O   H1  H2  O   H1  H2  O   H1  H2  O   H1  H2  O   H1  H2  O   H1  H2  O   H1  
H2  O   H1  H2  O   H1  H2  O   H1  H2  O   H1  H2  O   H1  H2  O   H1  H2  O   
H1  H2  O   H1  H2  O   H1  H2  O   H1  H2  O   H1  H2  O   H1  H2  O   H1  H2  
O   H1  H2  O   H1  H2  O   H1  H2  O   H1  H2  O   H1  H2  O   H1  H2  O   H1  
H2  O   H1  H2  O   H1  H2  O   H1  H2  O   H1  H2  O   H1  H2  O   H1  H2  O   
H1  H2  O   H1  H2  O   H1  H2  O   H1  H2  O   H1  H2  O   H1  H2  O   H1  H2  
O   H1  H2  O   H1  H2  O   H1  H2  O   H1  H2  O   H1  H2  O   H1  H2  O   H1  
H2  O   H1  H2  O   H1  H2  O   H1  H2  O   H1  H2  O   H1  H2  O   H1  H2  O   
H1  H2  O   H1  H2  O   H1  H2  O   H1  H2  O   H1  H2  O   H1  H2  O   H1  H2  
O   H1  H2  O   H1  H2  O   H1  H2  O   H1  H2  O   H1  H2  O   H1  H2  O   H1  
H2  O   H1  H2  O   H1  H2  O   H1  H2  O   H1  H2  O   H1  H2  O   H1  H2  O   
H1  H2  O   H1  H2  O   H1  H2  O   H1  H2  O   H1  H2  O   H1  H2  O   H1  H2  
O   H1  H2  O   H1  H2  O   H1  H2  O   H1  H2  O   H1  H2  O   H1  H2  O   H1  
H2  O   H1  H2  O   H1  H2  O   H1  H2  O   H1  H2  O   H1  H2  O   H1  H2  O   
H1  H2  O   H1  H2  O   H1  H2  O   H1  H2  O   H1  H2  O   H1  H2  O   H1  H2  
O   H1  H2  O   H1  H2  O   H1  H2  O   H1  H2  O   H1  H2  O   H1  H2  O   H1  
H2  O   H1  H2  O   H1  H2  O   H1  H2  O   H1  H2  O   H1  H2  O   H1  H2  O   
H1  H2  O   H1  H2  O   H1  H2  O   H1  H2  O   H1  H2  O   H1  H2  O   H1  H2  
O   H1  H2  O   H1  H2  O   H1  H2  O   H1  H2  O   H1  H2  O   H1  H2  O   H1  
H2  O   H1  H2  O   H1  H2  O   H1  H2  O   H1  H2  O   H1  H2  O   H1  H2  O   
H1  H2  O   H1  H2  O   H1  H2  O   H1  H2  O   H1  H2  O   H1  H2  O   H1  H2  
O   H1  H2  O   H1  H2  O   H1  H2  O   H1  H2  O   H1  H2  O   H1  H2  O   H1  
H2  O   H1  H2  O   H1  H2  O   H1  H2  O   H1  H2  O   H1  H2  O   H1  H2  O   
H1  H2  O   H1  H2  O   H1  H2  O   H1  H2  O   H1  H2  O   H1  H2  O   H1  H2  
O   H1  H2  O   H1  H2  O   H1  H2  O   H1  H2  O   H1  H2  O   H1  H2  O   H1  
H2  O   H1  H2  O   H1  H2  O   H1  H2  O   H1  H2  O   H1  H2  O   H1  H2  O   
H1  H2  O   H1  H2  O   H1  H2  O   H1  H2  O   H1  H2  O   H1  H2  O   H1  H2  
O   H1  H2  O   H1  H2  O   H1  H2  O   H1  H2  O   H1  H2  O   H1  H2  O   H1  
H2  O   H1  H2  O   H1  H2  O   H1  H2  O   H1  H2  O   H1  H2  O   H1  H2  O   
H1  H2  O   H1  H2  O   H1  H2  O   H1  H2  O   H1  H2  O   H1  H2  O   H1  H2  
O   H1  H2  O   H1  H2  O   H1  H2  O   H1  H2  O   H1  H2  O   H1  H2  O   H1  
H2  O   H1  H2  O   H1  H2  O   H1  H2  O   H1  H2  O   H1  H2  O   H1  H2  O   
H1  H2  O   H1  H2  O   H1  H2  O   H1  H2  O   H1  H2  O   H1  H2  O   H1  H2  
O   H1  H2  O   H1  H2  O   H1  H2  O   H1  H2  O   H1  H2  O   H1  H2  O   H1  
H2  O   H1  H2  O   H1  H2  O   H1  H2  O   H1  H2  O   H1  H2  O   H1  H2  O   
H1  H2  O   H1  H2  O   H1  H2  O   H1  H2  O   H1  H2  O   H1  H2  O   H1  H2  
O   H1  H2  O   H1  H2  O   H1  H2  O   H1  H2  O   H1  H2  O   H1  H2  O   H1  
H2  O   H1  H2  O   H1  H2  O   H1  H2  O   H1  H2  O   H1  H2  O   H1  H2  O   
H1  H2  O   H1  H2  O   H1  H2  O   H1  H2  O   H1  H2  O   H1  H2  O   H1  H2  
O   H1  H2  O   H1  H2  O   H1  H2  O   H1  H2  O   H1  H2  O   H1  H2  O   H1  
H2  O   H1  H2  O   H1  H2  O   H1  H2  O   H1  H2  O   H1  H2  O   H1  H2  O   
H1  H2  O   H1  H2  O   H1  H2  O   H1  H2  O   H1  H2  O   H1  H2  O   H1  H2  
O   H1  H2  O   H1  H2  O   H1  H2  O   H1  H2  O   H1  H2  O   H1  H2  O   H1  
H2  O   H1  H2  O   H1  H2  O   H1  H2  O   H1  H2  O   H1  H2  O   H1  H2  O   
H1  H2  O   H1  H2  O   H1  H2  O   H1  H2  O   H1  H2  O   H1  H2  O   H1  H2  
O   H1  H2  O   H1  H2  O   H1  H2  O   H1  H2  O   H1  H2  O   H1  H2  O   H1  
H2  O   H1  H2  O   H1  H2  O   H1  H2  O   H1  H2  O   H1  H2  O   H1  H2  O   
H1  H2  O   H1  H2  O   H1  H2  O   H1  H2  O   H1  H2  O   H1  H2  O   H1  H2  
O   H1  H2  O   H1  H2  O   H1  H2  O   H1  H2  O   H1  H2  O   H1  H2  O   H1  
H2  O   H1  H2  O   H1  H2  O   H1  H2  O   H1  H2  O   H1  H2  O   H1  H2  O   
H1  H2  O   H1  H2  O   H1  H2  O   H1  H2  O   H1  H2  O   H1  H2  O   H1  H2  
O   H1  H2  O   H1  H2  O   H1  H2  O   H1  H2  O   H1  H2  O   H1  H2  O   H1  
H2  O   H1  H2  O   H1  H2  O   H1  H2  O   H1  H2  O   H1  H2  O   H1  H2  O   
H1  H2  O   H1  H2  O   H1  H2  O   H1  H2  O   H1  H2  O   H1  H2  O   H1  H2  
O   H1  H2  O   H1  H2  O   H1  H2  O   H1  H2  O   H1  H2  O   H1  H2  O   H1  
H2  O   H1  H2  O   H1  H2  O   H1  H2  O   H1  H2  O   H1  H2  O   H1  H2  O   
H1  H2  O   H1  H2  O   H1  H2  O   H1  H2  O   H1  H2  O   H1  H2  O   H1  H2  
O   H1  H2  O   H1  H2  O   H1  H2  O   H1  H2  O   H1  H2  O   H1  H2  O   H1  
H2  O   H1  H2  O   H1  H2  O   H1  H2  O   H1  H2  O   H1  H2  O   H1  H2  O   
H1  H2  O   H1  H2  O   H1  H2  O   H1  H2  O   H1  H2  O   H1  H2  O   H1  H2  
O   H1  H2  O   H1  H2  O   H1  H2  O   H1  H2  O   H1  H2  O   H1  H2  O   H1  
H2  O   H1  H2  O   H1  H2  O   H1  H2  O   H1  H2  O   H1  H2  O   H1  H2  O   
H1  H2  O   H1  H2  O   H1  H2  O   H1  H2  O   H1  H2  O   H1  H2  O   H1  H2  
O   H1  H2  O   H1  H2  O   H1  H2  O   H1  H2  O   H1  H2  O   H1  H2  O   H1  
H2  O   H1  H2  O   H1  H2  O   H1  H2  O   H1  H2  O   H1  H2  O   H1  H2  O   
H1  H2  O   H1  H2  O   H1  H2  O   H1  H2  O   H1  H2  O   H1  H2  O   H1  H2  
O   H1  H2  O   H1  H2  O   H1  H2  O   H1  H2  O   H1  H2  O   H1  H2  O   H1  
H2  O   H1  H2  O   H1  H2  O   H1  H2  O   H1  H2  O   H1  H2  O   H1  H2  O   
H1  H2  O   H1  H2  O   H1  H2  O   H1  H2  O   H1  H2  O   H1  H2  O   H1  H2  
O   H1  H2  O   H1  H2  O   H1  H2  O   H1  H2  O   H1  H2  O   H1  H2  O   H1  
H2  O   H1  H2  O   H1  H2  O   H1  H2  O   H1  H2  O   H1  H2  O   H1  H2  O   
H1  H2  O   H1  H2  O   H1  H2  O   H1  H2  O   H1  H2  O   H1  H2  O   H1  H2  
O   H1  H2  O   H1  H2  O   H1  H2  O   H1  H2  O   H1  H2  O   H1  H2  O   H1  
H2  O   H1  H2  O   H1  H2  O   H1  H2  O   H1  H2  O   H1  H2  O   H1  H2  O   
H1  H2  O   H1  H2  O   H1  H2  O   H1  H2  O   H1  H2  O   H1  H2  O   H1  H2  
O   H1  H2  O   H1  H2  O   H1  H2  O   H1  H2  O   H1  H2  O   H1  H2  O   H1  
H2  O   H1  H2  O   H1  H2  O   H1  H2  O   H1  H2  O   H1  H2  O   H1  H2  O   
H1  H2  O   H1  H2  O   H1  H2  O   H1  H2  O   H1  H2  O   H1  H2  O   H1  H2  
O   H1  H2  O   H1  H2  O   H1  H2  O   H1  H2  O   H1  H2  O   H1  H2  O   H1  
H2  O   H1  H2  O   H1  H2  O   H1  H2  O   H1  H2  O   H1  H2  O   H1  H2  O   
H1  H2  O   H1  H2  O   H1  H2  O   H1  H2  O   H1  H2  O   H1  H2  O   H1  H2  
O   H1  H2  O   H1  H2  O   H1  H2  O   H1  H2  O   H1  H2  O   H1  H2  O   H1  
H2  O   H1  H2  O   H1  H2  O   H1  H2  O   H1  H2  O   H1  H2  O   H1  H2  O   
H1  H2  O   H1  H2  O   H1  H2  O   H1  H2  O   H1  H2  O   H1  H2  O   H1  H2  
O   H1  H2  O   H1  H2  O   H1  H2  O   H1  H2  O   H1  H2  O   H1  H2  O   H1  
H2  O   H1  H2  O   H1  H2  O   H1  H2  O   H1  H2  O   H1  H2  O   H1  H2  O   
H1  H2  O   H1  H2  O   H1  H2  O   H1  H2  O   H1  H2  O   H1  H2  O   H1  H2  
O   H1  H2  O   H1  H2  O   H1  H2  O   H1  H2  O   H1  H2  O   H1  H2  O   H1  
H2  O   H1  H2  O   H1  H2  O   H1  H2  O   H1  H2  O   H1  H2  O   H1  H2  O   
H1  H2  O   H1  H2  O   H1  H2  O   H1  H2  O   H1  H2  O   H1  H2  O   H1  H2  
O   H1  H2  O   H1  H2  O   H1  H2  O   H1  H2  O   H1  H2  O   H1  H2  O   H1  
H2  O   H1  H2  O   H1  H2  O   H1  H2  O   H1  H2  O   H1  H2  O   H1  H2  O   
H1  H2  O   H1  H2  O   H1  H2  O   H1  H2  O   H1  H2  O   H1  H2  O   H1  H2  
O   H1  H2  O   H1  H2  O   H1  H2  O   H1  H2  O   H1  H2  O   H1  H2  O   H1  
H2  O   H1  H2  O   H1  H2  O   H1  H2  O   H1  H2  O   H1  H2  O   H1  H2  O   
H1  H2  O   H1  H2  O   H1  H2  O   H1  H2  O   H1  H2  O   H1  H2  O   H1  H2  
O   H1  H2  O   H1  H2  O   H1  H2  O   H1  H2  O   H1  H2  O   H1  H2  O   H1  
H2  O   H1  H2  O   H1  H2  O   H1  H2  O   H1  H2  O   H1  H2  O   H1  H2  O   
H1  H2  O   H1  H2  O   H1  H2  O   H1  H2  O   H1  H2  O   H1  H2  O   H1  H2  
O   H1  H2  O   H1  H2  O   H1  H2  O   H1  H2  O   H1  H2  O   H1  H2  O   H1  
H2  O   H1  H2  O   H1  H2  O   H1  H2  O   H1  H2  O   H1  H2  O   H1  H2  O   
H1  H2  O   H1  H2  O   H1  H2  O   H1  H2  O   H1  H2  O   H1  H2  O   H1  H2  
O   H1  H2  O   H1  H2  O   H1  H2  O   H1  H2  O   H1  H2  O   H1  H2  O   H1  
H2  O   H1  H2  O   H1  H2  O   H1  H2  O   H1  H2  O   H1  H2  O   H1  H2  O   
H1  H2  O   H1  H2  O   H1  H2  O   H1  H2  O   H1  H2  O   H1  H2  O   H1  H2  
O   H1  H2  O   H1  H2  O   H1  H2  O   H1  H2  O   H1  H2  O   H1  H2  O   H1  
H2  O   H1  H2  O   H1  H2  O   H1  H2  O   H1  H2  O   H1  H2  O   H1  H2  O   
H1  H2  O   H1  H2  O   H1  H2  O   H1  H2  O   H1  H2  O   H1  H2  O   H1  H2  
O   H1  H2  O   H1  H2  O   H1  H2  O   H1  H2  O   H1  H2  O   H1  H2  O   H1  
H2  O   H1  H2  O   H1  H2  O   H1  H2  O   H1  H2  O   H1  H2  O   H1  H2  O   
H1  H2  O   H1  H2  O   H1  H2  O   H1  H2  O   H1  H2  O   H1  H2  O   H1  H2  
O   H1  H2  O   H1  H2  O   H1  H2  O   H1  H2  O   H1  H2  O   H1  H2  O   H1  
H2  O   H1  H2  O   H1  H2  O   H1  H2  O   H1  H2  O   H1  H2  O   H1  H2  O   
H1  H2  O   H1  H2  O   H1  H2  O   H1  H2  O   H1  H2  O   H1  H2  O   H1  H2  
O   H1  H2  O   H1  H2  O   H1  H2  O   H1  H2  O   H1  H2  O   H1  H2  O   H1  
H2  O   H1  H2  O   H1  H2  O   H1  H2  O   H1  H2  O   H1  H2  O   H1  H2  O   
H1  H2  O   H1  H2  O   H1  H2  O   H1  H2  O   H1  H2  O   H1  H2  O   H1  H2  
O   H1  H2  O   H1  H2  O   H1  H2  O   H1  H2  O   H1  H2  O   H1  H2  O   H1  
H2  O   H1  H2  O   H1  H2  O   H1  H2  O   H1  H2  O   H1  H2  O   H1  H2  O   
H1  H2  O   H1  H2  O   H1  H2  O   H1  H2  O   H1  H2  O   H1  H2  O   H1  H2  
O   H1  H2  O   H1  H2  O   H1  H2  O   H1  H2  O   H1  H2  O   H1  H2  O   H1  
H2  O   H1  H2  O   H1  H2  O   H1  H2  O   H1  H2  O   H1  H2  O   H1  H2  O   
H1  H2  O   H1  H2  O   H1  H2  O   H1  H2  O   H1  H2  O   H1  H2  O   H1  H2  
O   H1  H2  O   H1  H2  O   H1  H2  O   H1  H2  O   H1  H2  O   H1  H2  O   H1  
H2  O   H1  H2  O   H1  H2  O   H1  H2  O   H1  H2  O   H1  H2  O   H1  H2  O   
H1  H2  O   H1  H2  O   H1  H2  O   H1  H2  O   H1  H2  O   H1  H2  O   H1  H2  
O   H1  H2  O   H1  H2  O   H1  H2  O   H1  H2  O   H1  H2  O   H1  H2  O   H1  
H2  O   H1  H2  O   H1  H2  O   H1  H2  O   H1  H2  O   H1  H2  O   H1  H2  O   
H1  H2  O   H1  H2  O   H1  H2  O   H1  H2  O   H1  H2  O   H1  H2  O   H1  H2  
O   H1  H2  O   H1  H2  O   H1  H2  O   H1  H2  O   H1  H2  O   H1  H2  O   H1  
H2  O   H1  H2  O   H1  H2  O   H1  H2  O   H1  H2  O   H1  H2  O   H1  H2  O   
H1  H2  O   H1  H2  O   H1  H2  O   H1  H2  O   H1  H2  O   H1  H2  O   H1  H2  
O   H1  H2  O   H1  H2  O   H1  H2  O   H1  H2  O   H1  H2  O   H1  H2  O   H1  
H2  O   H1  H2  O   H1  H2  O   H1  H2  O   H1  H2  O   H1  H2  O   H1  H2  O   
H1  H2  O   H1  H2  O   H1  H2  O   H1  H2  O   H1  H2  O   H1  H2  O   H1  H2  
O   H1  H2  O   H1  H2  O   H1  H2  O   H1  H2  O   H1  H2  O   H1  H2  O   H1  
H2  O   H1  H2  O   H1  H2  O   H1  H2  O   H1  H2  O   H1  H2  O   H1  H2  O   
H1  H2  O   H1  H2  O   H1  H2  O   H1  H2  O   H1  H2  O   H1  H2  O   H1  H2  
O   H1  H2  O   H1  H2  O   H1  H2  O   H1  H2  O   H1  H2  O   H1  H2  O   H1  
H2  O   H1  H2  O   H1  H2  O   H1  H2  O   H1  H2  O   H1  H2  O   H1  H2  O   
H1  H2  O   H1  H2  O   H1  H2  O   H1  H2  O   H1  H2  O   H1  H2  O   H1  H2  
O   H1  H2  O   H1  H2  O   H1  H2  O   H1  H2  O   H1  H2  O   H1  H2  O   H1  
H2  O   H1  H2  O   H1  H2  O   H1  H2  O   H1  H2  O   H1  H2  O   H1  H2  O   
H1  H2  O   H1  H2  O   H1  H2  O   H1  H2  O   H1  H2  O   H1  H2  O   H1  H2  
O   H1  H2  O   H1  H2  O   H1  H2  O   H1  H2  O   H1  H2  O   H1  H2  O   H1  
H2  O   H1  H2  O   H1  H2  O   H1  H2  O   H1  H2  O   H1  H2  O   H1  H2  O   
H1  H2  O   H1  H2  O   H1  H2  O   H1  H2  O   H1  H2  O   H1  H2  O   H1  H2  
O   H1  H2  O   H1  H2  O   H1  H2  O   H1  H2  O   H1  H2  O   H1  H2  O   H1  
H2  O   H1  H2  O   H1  H2  O   H1  H2  O   H1  H2  O   H1  H2  O   H1  H2  O   
H1  H2  O   H1  H2  O   H1  H2  O   H1  H2  O   H1  H2  O   H1  H2  O   H1  H2  
O   H1  H2  O   H1  H2  O   H1  H2  O   H1  H2  O   H1  H2  O   H1  H2  O   H1  
H2  O   H1  H2  O   H1  H2  O   H1  H2  O   H1  H2  O   H1  H2  O   H1  H2  O   
H1  H2  O   H1  H2  O   H1  H2  O   H1  H2  O   H1  H2  O   H1  H2  O   H1  H2  
O   H1  H2  O   H1  H2  O   H1  H2  O   H1  H2  O   H1  H2  O   H1  H2  O   H1  
H2  O   H1  H2  O   H1  H2  O   H1  H2  O   H1  H2  O   H1  H2  O   H1  H2  O   
H1  H2  O   H1  H2  O   H1  H2  O   H1  H2  O   H1  H2  O   H1  H2  O   H1  H2  
O   H1  H2  O   H1  H2  O   H1  H2  O   H1  H2  O   H1  H2  O   H1  H2  O   H1  
H2  O   H1  H2  O   H1  H2  O   H1  H2  O   H1  H2  O   H1  H2  O   H1  H2  O   
H1  H2  O   H1  H2  O   H1  H2  O   H1  H2  O   H1  H2  O   H1  H2  O   H1  H2  
O   H1  H2  O   H1  H2  O   H1  H2  O   H1  H2  O   H1  H2  O   H1  H2  O   H1  
H2  O   H1  H2  O   H1  H2  O   H1  H2  O   H1  H2  O   H1  H2  O   H1  H2  O   
H1  H2  O   H1  H2  O   H1  H2  O   H1  H2  O   H1  H2  O   H1  H2  O   H1  H2  
O   H1  H2  O   H1  H2  O   H1  H2  O   H1  H2  O   H1  H2  O   H1  H2  O   H1  
H2  O   H1  H2  O   H1  H2  O   H1  H2  O   H1  H2  O   H1  H2  O   H1  H2  O   
H1  H2  O   H1  H2  O   H1  H2  O   H1  H2  O   H1  H2  O   H1  H2  O   H1  H2  
O   H1  H2  O   H1  H2  O   H1  H2  O   H1  H2  O   H1  H2  O   H1  H2  O   H1  
H2  O   H1  H2  O   H1  H2  O   H1  H2  O   H1  H2  O   H1  H2  O   H1  H2  O   
H1  H2  O   H1  H2  O   H1  H2  O   H1  H2  O   H1  H2  O   H1  H2  O   H1  H2  
O   H1  H2  O   H1  H2  O   H1  H2  O   H1  H2  O   H1  H2  O   H1  H2  O   H1  
H2  O   H1  H2  O   H1  H2  O   H1  H2  O   H1  H2  O   H1  H2  O   H1  H2  O   
H1  H2  O   H1  H2  O   H1  H2  O   H1  H2  O   H1  H2  O   H1  H2  O   H1  H2  
O   H1  H2  O   H1  H2  O   H1  H2  O   H1  H2  O   H1  H2  O   H1  H2  O   H1  
H2  O   H1  H2  O   H1  H2  O   H1  H2  O   H1  H2  O   H1  H2  O   H1  H2  O   
H1  H2  O   H1  H2  O   H1  H2  O   H1  H2  O   H1  H2  O   H1  H2  O   H1  H2  
O   H1  H2  O   H1  H2  O   H1  H2  O   H1  H2  O   H1  H2  O   H1  H2  O   H1  
H2  O   H1  H2  O   H1  H2  O   H1  H2  O   H1  H2  O   H1  H2  O   H1  H2  O   
H1  H2  O   H1  H2  O   H1  H2  O   H1  H2  O   H1  H2  O   H1  H2  O   H1  H2  
O   H1  H2  O   H1  H2  O   H1  H2  O   H1  H2  O   H1  H2  O   H1  H2  O   H1  
H2  O   H1  H2  O   H1  H2  O   H1  H2  O   H1  H2  O   H1  H2  O   H1  H2  O   
H1  H2  O   H1  H2  O   H1  H2  O   H1  H2  O   H1  H2  O   H1  H2  O   H1  H2  
O   H1  H2  O   H1  H2  O   H1  H2  O   H1  H2  O   H1  H2  O   H1  H2  O   H1  
H2  O   H1  H2  O   H1  H2  O   H1  H2  O   H1  H2  O   H1  H2  O   H1  H2  O   
H1  H2  O   H1  H2  O   H1  H2  O   H1  H2  O   H1  H2  O   H1  H2  O   H1  H2  
O   H1  H2  O   H1  H2  O   H1  H2  O   H1  H2  O   H1  H2  O   H1  H2  O   H1  
H2  O   H1  H2  O   H1  H2  O   H1  H2  O   H1  H2  O   H1  H2  O   H1  H2  O   
H1  H2  O   H1  H2  O   H1  H2  O   H1  H2  O   H1  H2  O   H1  H2  O   H1  H2  
O   H1  H2  O   H1  H2  O   H1  H2  O   H1  H2  O   H1  H2  O   H1  H2  O   H1  
H2  O   H1  H2  O   H1  H2  O   H1  H2  O   H1  H2  O   H1  H2  O   H1  H2  O   
H1  H2  O   H1  H2  O   H1  H2  O   H1  H2  O   H1  H2  O   H1  H2  O   H1  H2  
O   H1  H2  O   H1  H2  O   H1  H2  O   H1  H2  O   H1  H2  O   H1  H2  O   H1  
H2  O   H1  H2  O   H1  H2  O   H1  H2  O   H1  H2  O   H1  H2  O   H1  H2  O   
H1  H2  O   H1  H2  O   H1  H2  O   H1  H2  O   H1  H2  O   H1  H2  O   H1  H2  
O   H1  H2  O   H1  H2  O   H1  H2  O   H1  H2  O   H1  H2  O   H1  H2  O   H1  
H2  O   H1  H2  O   H1  H2  O   H1  H2  O   H1  H2  O   H1  H2  O   H1  H2  O   
H1  H2  O   H1  H2  O   H1  H2  O   H1  H2  O   H1  H2  O   H1  H2  O   H1  H2  
O   H1  H2  O   H1  H2  O   H1  H2  O   H1  H2  O   H1  H2  O   H1  H2  O   H1  
H2  O   H1  H2  O   H1  H2  O   H1  H2  O   H1  H2  O   H1  H2  O   H1  H2  O   
H1  H2  O   H1  H2  O   H1  H2  O   H1  H2  O   H1  H2  O   H1  H2  O   H1  H2  
O   H1  H2  O   H1  H2  O   H1  H2  O   H1  H2  O   H1  H2  O   H1  H2  O   H1  
H2  O   H1  H2  O   H1  H2  O   H1  H2  O   H1  H2  O   H1  H2  O   H1  H2  O   
H1  H2  O   H1  H2  O   H1  H2  O   H1  H2  O   H1  H2  O   H1  H2  O   H1  H2  
O   H1  H2  O   H1  H2  O   H1  H2  O   H1  H2  O   H1  H2  O   H1  H2  O   H1  
H2  O   H1  H2  O   H1  H2  O   H1  H2  O   H1  H2  O   H1  H2  O   H1  H2  O   
H1  H2  O   H1  H2  O   H1  H2  O   H1  H2  O   H1  H2  O   H1  H2  O   H1  H2  
O   H1  H2  O   H1  H2  O   H1  H2  O   H1  H2  O   H1  H2  O   H1  H2  O   H1  
H2  O   H1  H2  O   H1  H2  O   H1  H2  O   H1  H2  O   H1  H2  O   H1  H2  O   
H1  H2  O   H1  H2  O   H1  H2  O   H1  H2  O   H1  H2  O   H1  H2  O   H1  H2  
O   H1  H2  O   H1  H2  O   H1  H2  O   H1  H2  O   H1  H2  O   H1  H2  O   H1  
H2  O   H1  H2  O   H1  H2  O   H1  H2  O   H1  H2  O   H1  H2  O   H1  H2  O   
H1  H2  O   H1  H2  O   H1  H2  O   H1  H2  O   H1  H2  O   H1  H2  O   H1  H2  
O   H1  H2  O   H1  H2  O   H1  H2  O   H1  H2  O   H1  H2  O   H1  H2  O   H1  
H2  O   H1  H2  O   H1  H2  O   H1  H2  O   H1  H2  O   H1  H2  O   H1  H2  O   
H1  H2  O   H1  H2  O   H1  H2  O   H1  H2  O   H1  H2  O   H1  H2  O   H1  H2  
O   H1  H2  O   H1  H2  O   H1  H2  O   H1  H2  O   H1  H2  O   H1  H2  O   H1  
H2  O   H1  H2  O   H1  H2  O   H1  H2  O   H1  H2  O   H1  H2  O   H1  H2  O   
H1  H2  O   H1  H2  O   H1  H2  O   H1  H2  O   H1  H2  O   H1  H2  O   H1  H2  
O   H1  H2  O   H1  H2  O   H1  H2  O   H1  H2  O   H1  H2  O   H1  H2  O   H1  
H2  O   H1  H2  O   H1  H2  O   H1  H2  O   H1  H2  O   H1  H2  O   H1  H2  O   
H1  H2  O   H1  H2  O   H1  H2  O   H1  H2  O   H1  H2  O   H1  H2  O   H1  H2  
O   H1  H2  O   H1  H2  O   H1  H2  O   H1  H2  O   H1  H2  O   H1  H2  O   H1  
H2  O   H1  H2  O   H1  H2  O   H1  H2  O   H1  H2  O   H1  H2  O   H1  H2  O   
H1  H2  O   H1  H2  O   H1  H2  O   H1  H2  O   H1  H2  O   H1  H2  O   H1  H2  
O   H1  H2  O   H1  H2  O   H1  H2  O   H1  H2  O   H1  H2  O   H1  H2  O   H1  
H2  O   H1  H2  O   H1  H2  O   H1  H2  O   H1  H2  O   H1  H2  O   H1  H2  O   
H1  H2  O   H1  H2  O   H1  H2  O   H1  H2  O   H1  H2  O   H1  H2  O   H1  H2  
O   H1  H2  O   H1  H2  O   H1  H2  O   H1  H2  O   H1  H2  O   H1  H2  O   H1  
H2  O   H1  H2  O   H1  H2  O   H1  H2  O   H1  H2  O   H1  H2  O   H1  H2  O   
H1  H2  O   H1  H2  O   H1  H2  O   H1  H2  O   H1  H2  O   H1  H2  O   H1  H2  
O   H1  H2  O   H1  H2  O   H1  H2  O   H1  H2  O   H1  H2  O   H1  H2  O   H1  
H2  O   H1  H2  O   H1  H2  O   H1  H2  O   H1  H2  O   H1  H2  O   H1  H2  O   
H1  H2  O   H1  H2  O   H1  H2  O   H1  H2  O   H1  H2  O   H1  H2  O   H1  H2  
O   H1  H2  O   H1  H2  O   H1  H2  O   H1  H2  O   H1  H2  O   H1  H2  O   H1  
H2  O   H1  H2  O   H1  H2  O   H1  H2  O   H1  H2  O   H1  H2  O   H1  H2  O   
H1  H2  O   H1  H2  O   H1  H2  O   H1  H2  O   H1  H2  O   H1  H2  O   H1  H2  
O   H1  H2  O   H1  H2  O   H1  H2  O   H1  H2  O   H1  H2  O   H1  H2  O   H1  
H2  O   H1  H2  O   H1  H2  O   H1  H2  O   H1  H2  O   H1  H2  O   H1  H2  O   
H1  H2  O   H1  H2  O   H1  H2  O   H1  H2  O   H1  H2  O   H1  H2  O   H1  H2  
O   H1  H2  O   H1  H2  O   H1  H2  O   H1  H2  O   H1  H2  O   H1  H2  O   H1  
H2  O   H1  H2  O   H1  H2  O   H1  H2  O   H1  H2  O   H1  H2  O   H1  H2  O   
H1  H2  O   H1  H2  O   H1  H2  O   H1  H2  O   H1  H2  O   H1  H2  O   H1  H2  
O   H1  H2  O   H1  H2  O   H1  H2  O   H1  H2  O   H1  H2  O   H1  H2  O   H1  
H2  O   H1  H2  O   H1  H2  O   H1  H2  O   H1  H2  O   H1  H2  O   H1  H2  O   
H1  H2  O   H1  H2  O   H1  H2  O   H1  H2  O   H1  H2  O   H1  H2  O   H1  H2  
O   H1  H2  O   H1  H2  O   H1  H2  O   H1  H2  O   H1  H2  O   H1  H2  O   H1  
H2  O   H1  H2  O   H1  H2  O   H1  H2  O   H1  H2  O   H1  H2  O   H1  H2  O   
H1  H2  O   H1  H2  O   H1  H2  O   H1  H2  O   H1  H2  O   H1  H2  O   H1  H2  
O   H1  H2  O   H1  H2  O   H1  H2  O   H1  H2  O   H1  H2  O   H1  H2  O   H1  
H2  O   H1  H2  O   H1  H2  O   H1  H2  O   H1  H2  O   H1  H2  O   H1  H2  O   
H1  H2  O   H1  H2  O   H1  H2  O   H1  H2  O   H1  H2  O   H1  H2  O   H1  H2  
O   H1  H2  O   H1  H2  O   H1  H2  O   H1  H2  O   H1  H2  O   H1  H2  O   H1  
H2  O   H1  H2  O   H1  H2  O   H1  H2  O   H1  H2  O   H1  H2  O   H1  H2  O   
H1  H2  O   H1  H2  O   H1  H2  O   H1  H2  O   H1  H2  O   H1  H2  O   H1  H2  
O   H1  H2  O   H1  H2  O   H1  H2  O   H1  H2  O   H1  H2  O   H1  H2  O   H1  
H2  O   H1  H2  O   H1  H2  O   H1  H2  O   H1  H2  O   H1  H2  O   H1  H2  O   
H1  H2  O   H1  H2  O   H1  H2  O   H1  H2  O   H1  H2  O   H1  H2  O   H1  H2  
O   H1  H2  O   H1  H2  O   H1  H2  O   H1  H2  O   H1  H2  O   H1  H2  O   H1  
H2  O   H1  H2  O   H1  H2  O   H1  H2  O   H1  H2  O   H1  H2  O   H1  H2  O   
H1  H2  O   H1  H2  O   H1  H2  O   H1  H2  O   H1  H2  O   H1  H2  O   H1  H2  
O   H1  H2  O   H1  H2  O   H1  H2  O   H1  H2  O   H1  H2  O   H1  H2  O   H1  
H2  O   H1  H2  O   H1  H2  O   H1  H2  O   H1  H2  O   H1  H2  O   H1  H2  O   
H1  H2  O   H1  H2  O   H1  H2  O   H1  H2  O   H1  H2  O   H1  H2  O   H1  H2  
O   H1  H2  O   H1  H2  O   H1  H2  O   H1  H2  O   H1  H2  O   H1  H2  O   H1  
H2  O   H1  H2  O   H1  H2  O   H1  H2  O   H1  H2  O   H1  H2  O   H1  H2  O   
H1  H2  O   H1  H2  O   H1  H2  O   H1  H2  O   H1  H2  O   H1  H2  O   H1  H2  
O   H1  H2  O   H1  H2  O   H1  H2  O   H1  H2  O   H1  H2  O   H1  H2  O   H1  
H2  O   H1  H2  O   H1  H2  O   H1  H2  O   H1  H2  O   H1  H2  O   H1  H2  O   
H1  H2  O   H1  H2  O   H1  H2  O   H1  H2  O   H1  H2  O   H1  H2  O   H1  H2  
O   H1  H2  O   H1  H2  O   H1  H2  O   H1  H2  O   H1  H2  O   H1  H2  O   H1  
H2  O   H1  H2  O   H1  H2  O   H1  H2  O   H1  H2  O   H1  H2  O   H1  H2  O   
H1  H2  O   H1  H2  O   H1  H2  O   H1  H2  O   H1  H2  O   H1  H2  O   H1  H2  
O   H1  H2  O   H1  H2  O   H1  H2  O   H1  H2  O   H1  H2  O   H1  H2  O   H1  
H2  O   H1  H2  O   H1  H2  O   H1  H2  O   H1  H2  O   H1  H2  O   H1  H2  O   
H1  H2  O   H1  H2  O   H1  H2  O   H1  H2  O   H1  H2  O   H1  H2  O   H1  H2  
O   H1  H2  O   H1  H2  O   H1  H2  O   H1  H2  O   H1  H2  O   H1  H2  O   H1  
H2  O   H1  H2  O   H1  H2  O   H1  H2  O   H1  H2  O   H1  H2  O   H1  H2  O   
H1  H2  O   H1  H2  O   H1  H2  O   H1  H2  O   H1  H2  O   H1  H2  O   H1  H2  
O   H1  H2  O   H1  H2  O   H1  H2  O   H1  H2  O   H1  H2  O   H1  H2  O   H1  
H2  O   H1  H2  O   H1  H2  O   H1  H2  O   H1  H2  O   H1  H2  O   H1  H2  O   
H1  H2  O   H1  H2  O   H1  H2  O   H1  H2  O   H1  H2  O   H1  H2  O   H1  H2  
O   H1  H2  O   H1  H2  O   H1  H2  O   H1  H2  O   H1  H2  O   H1  H2  O   H1  
H2  O   H1  H2  O   H1  H2  O   H1  H2  O   H1  H2  O   H1  H2  O   H1  H2  O   
H1  H2  O   H1  H2  O   H1  H2  O   H1  H2  O   H1  H2  O   H1  H2  O   H1  H2  
O   H1  H2  O   H1  H2  O   H1  H2  O   H1  H2  O   H1  H2  O   H1  H2  O   H1  
H2  O   H1  H2  O   H1  H2  O   H1  H2  O   H1  H2  O   H1  H2  O   H1  H2  O   
H1  H2  O   H1  H2  O   H1  H2  O   H1  H2  O   H1  H2  O   H1  H2  O   H1  H2  
O   H1  H2  O   H1  H2  O   H1  H2  O   H1  H2  O   H1  H2  O   H1  H2  O   H1  
H2  O   H1  H2  O   H1  H2  O   H1  H2  O   H1  H2  O   H1  H2  O   H1  H2  O   
H1  H2  O   H1  H2  O   H1  H2  O   H1  H2  O   H1  H2  O   H1  H2  O   H1  H2  
O   H1  H2  O   H1  H2  O   H1  H2  O   H1  H2  O   H1  H2  O   H1  H2  O   H1  
H2  O   H1  H2  O   H1  H2  O   H1  H2  O   H1  H2  O   H1  H2  O   H1  H2  O   
H1  H2  O   H1  H2  O   H1  H2  O   H1  H2  O   H1  H2  O   H1  H2  O   H1  H2  
O   H1  H2  O   H1  H2  O   H1  H2  O   H1  H2  O   H1  H2  O   H1  H2  O   H1  
H2  O   H1  H2  O   H1  H2  O   H1  H2  O   H1  H2  O   H1  H2  O   H1  H2  O   
H1  H2  O   H1  H2  O   H1  H2  O   H1  H2  O   H1  H2  O   H1  H2  O   H1  H2  
O   H1  H2  O   H1  H2  O   H1  H2  O   H1  H2  O   H1  H2  O   H1  H2  O   H1  
H2  O   H1  H2  O   H1  H2  O   H1  H2  O   H1  H2  O   H1  H2  O   H1  H2  O   
H1  H2  O   H1  H2  O   H1  H2  O   H1  H2  O   H1  H2  O   H1  H2  O   H1  H2  
O   H1  H2  O   H1  H2  O   H1  H2  O   H1  H2  O   H1  H2  O   H1  H2  O   H1  
H2  O   H1  H2  O   H1  H2  O   H1  H2  O   H1  H2  O   H1  H2  O   H1  H2  O   
H1  H2  O   H1  H2  O   H1  H2  O   H1  H2  O   H1  H2  O   H1  H2  O   H1  H2  
O   H1  H2  O   H1  H2  O   H1  H2  O   H1  H2  O   H1  H2  O   H1  H2  O   H1  
H2  O   H1  H2  O   H1  H2  O   H1  H2  O   H1  H2  O   H1  H2  O   H1  H2  O   
H1  H2  O   H1  H2  O   H1  H2  O   H1  H2  O   H1  H2  O   H1  H2  O   H1  H2  
O   H1  H2  O   H1  H2  O   H1  H2  O   H1  H2  O   H1  H2  O   H1  H2  O   H1  
H2  O   H1  H2  O   H1  H2  O   H1  H2  O   H1  H2  O   H1  H2  O   H1  H2  O   
H1  H2  O   H1  H2  O   H1  H2  O   H1  H2  O   H1  H2  O   H1  H2  O   H1  H2  
O   H1  H2  O   H1  H2  O   H1  H2  O   H1  H2  O   H1  H2  O   H1  H2  O   H1  
H2  O   H1  H2  O   H1  H2  O   H1  H2  O   H1  H2  O   H1  H2  O   H1  H2  O   
H1  H2  O   H1  H2  O   H1  H2  O   H1  H2  O   H1  H2  O   H1  H2  O   H1  H2  
O   H1  H2  O   H1  H2  O   H1  H2  O   H1  H2  O   H1  H2  O   H1  H2  O   H1  
H2  O   H1  H2  O   H1  H2  O   H1  H2  O   H1  H2  O   H1  H2  O   H1  H2  O   
H1  H2  O   H1  H2  O   H1  H2  O   H1  H2  O   H1  H2  O   H1  H2  O   H1  H2  
O   H1  H2  O   H1  H2  O   H1  H2  O   H1  H2  O   H1  H2  O   H1  H2  O   H1  
H2  O   H1  H2  O   H1  H2  O   H1  H2  O   H1  H2  O   H1  H2  O   H1  H2  O   
H1  H2  O   H1  H2  O   H1  H2  O   H1  H2  O   H1  H2  O   H1  H2  O   H1  H2  
O   H1  H2  O   H1  H2  O   H1  H2  O   H1  H2  O   H1  H2  O   H1  H2  O   H1  
H2  O   H1  H2  O   H1  H2  O   H1  H2  O   H1  H2  O   H1  H2  O   H1  H2  O   
H1  H2  O   H1  H2  O   H1  H2  O   H1  H2  O   H1  H2  O   H1  H2  O   H1  H2  
O   H1  H2  O   H1  H2  O   H1  H2  O   H1  H2  O   H1  H2  O   H1  H2  O   H1  
H2  O   H1  H2  O   H1  H2  O   H1  H2  O   H1  H2  O   H1  H2  O   H1  H2  O   
H1  H2  O   H1  H2  O   H1  H2  O   H1  H2  O   H1  H2  O   H1  H2  O   H1  H2  
O   H1  H2  O   H1  H2  O   H1  H2  O   H1  H2  O   H1  H2  O   H1  H2  O   H1  
H2  O   H1  H2  O   H1  H2  O   H1  H2  O   H1  H2  O   H1  H2  O   H1  H2  O   
H1  H2  O   H1  H2  O   H1  H2  O   H1  H2  O   H1  H2  O   H1  H2  O   H1  H2  
O   H1  H2  O   H1  H2  O   H1  H2  O   H1  H2  O   H1  H2  O   H1  H2  O   H1  
H2  O   H1  H2  O   H1  H2  O   H1  H2  O   H1  H2  O   H1  H2  O   H1  H2  O   
H1  H2  O   H1  H2  O   H1  H2  O   H1  H2  O   H1  H2  O   H1  H2  O   H1  H2  
O   H1  H2  O   H1  H2  O   H1  H2  O   H1  H2  O   H1  H2  O   H1  H2  O   H1  
H2  O   H1  H2  O   H1  H2  O   H1  H2  O   H1  H2  O   H1  H2  O   H1  H2  O   
H1  H2  O   H1  H2  O   H1  H2  O   H1  H2  O   H1  H2  O   H1  H2  O   H1  H2  
O   H1  H2  O   H1  H2  O   H1  H2  O   H1  H2  O   H1  H2  O   H1  H2  O   H1  
H2  O   H1  H2  O   H1  H2  O   H1  H2  O   H1  H2  O   H1  H2  O   H1  H2  O   
H1  H2  O   H1  H2  O   H1  H2  O   H1  H2  O   H1  H2  O   H1  H2  O   H1  H2  
O   H1  H2  O   H1  H2  O   H1  H2  O   H1  H2  O   H1  H2  O   H1  H2  O   H1  
H2  O   H1  H2  O   H1  H2  O   H1  H2  O   H1  H2  O   H1  H2  O   H1  H2  O   
H1  H2  O   H1  H2  O   H1  H2  O   H1  H2  O   H1  H2  O   H1  H2  O   H1  H2  
O   H1  H2  O   H1  H2  O   H1  H2  O   H1  H2  O   H1  H2  O   H1  H2  O   H1  
H2  O   H1  H2  O   H1  H2  O   H1  H2  O   H1  H2  O   H1  H2  O   H1  H2  O   
H1  H2  O   H1  H2  O   H1  H2  O   H1  H2  O   H1  H2  O   H1  H2  O   H1  H2  
O   H1  H2  O   H1  H2  O   H1  H2  O   H1  H2  O   H1  H2  O   H1  H2  O   H1  
H2  O   H1  H2  O   H1  H2  O   H1  H2  O   H1  H2  O   H1  H2  O   H1  H2  O   
H1  H2  O   H1  H2  O   H1  H2  O   H1  H2  O   H1  H2  O   H1  H2  O   H1  H2  
O   H1  H2  O   H1  H2  O   H1  H2  O   H1  H2  O   H1  H2  O   H1  H2  O   H1  
H2  O   H1  H2  O   H1  H2  O   H1  H2  O   H1  H2  O   H1  H2  O   H1  H2  O   
H1  H2  O   H1  H2  O   H1  H2  O   H1  H2  O   H1  H2  O   H1  H2  O   H1  H2  
O   H1  H2  O   H1  H2  O   H1  H2  O   H1  H2  O   H1  H2  O   H1  H2  O   H1  
H2  O   H1  H2  O   H1  H2  O   H1  H2  O   H1  H2  O   H1  H2  O   H1  H2  O   
H1  H2  O   H1  H2  O   H1  H2  O   H1  H2  O   H1  H2  O   H1  H2  O   H1  H2  
O   H1  H2  O   H1  H2  O   H1  H2  O   H1  H2  O   H1  H2  O   H1  H2  O   H1  
H2  O   H1  H2  O   H1  H2  O   H1  H2  O   H1  H2  O   H1  H2  O   H1  H2  O   
H1  H2  O   H1  H2  O   H1  H2  O   H1  H2  O   H1  H2  O   H1  H2  O   H1  H2  
O   H1  H2  O   H1  H2  O   H1  H2  O   H1  H2  O   H1  H2  O   H1  H2  O   H1  
H2  O   H1  H2  O   H1  H2  O   H1  H2  O   H1  H2  O   H1  H2  O   H1  H2  O   
H1  H2  O   H1  H2  O   H1  H2  O   H1  H2  O   H1  H2  O   H1  H2  O   H1  H2  
O   H1  H2  O   H1  H2  O   H1  H2  O   H1  H2  O   H1  H2  O   H1  H2  O   H1  
H2  O   H1  H2  O   H1  H2  O   H1  H2  O   H1  H2  O   H1  H2  O   H1  H2  O   
H1  H2  O   H1  H2  O   H1  H2  O   H1  H2  O   H1  H2  O   H1  H2  O   H1  H2  
O   H1  H2  O   H1  H2  O   H1  H2  O   H1  H2  O   H1  H2  O   H1  H2  O   H1  
H2  O   H1  H2  O   H1  H2  O   H1  H2  O   H1  H2  O   H1  H2  O   H1  H2  O   
H1  H2  O   H1  H2  O   H1  H2  O   H1  H2  O   H1  H2  O   H1  H2  O   H1  H2  
O   H1  H2  O   H1  H2  O   H1  H2  O   H1  H2  O   H1  H2  O   H1  H2  O   H1  
H2  O   H1  H2  O   H1  H2  O   H1  H2  O   H1  H2  O   H1  H2  O   H1  H2  O   
H1  H2  O   H1  H2  O   H1  H2  O   H1  H2  O   H1  H2  O   H1  H2  O   H1  H2  
O   H1  H2  O   H1  H2  O   H1  H2  O   H1  H2  O   H1  H2  O   H1  H2  O   H1  
H2  O   H1  H2  O   H1  H2  O   H1  H2  O   H1  H2  O   H1  H2  O   H1  H2  O   
H1  H2  O   H1  H2  O   H1  H2  O   H1  H2  O   H1  H2  O   H1  H2  O   H1  H2  
O   H1  H2  O   H1  H2  O   H1  H2  O   H1  H2  O   H1  H2  O   H1  H2  O   H1  
H2  O   H1  H2  O   H1  H2  O   H1  H2  O   H1  H2  O   H1  H2  O   H1  H2  O   
H1  H2  O   H1  H2  O   H1  H2  O   H1  H2  O   H1  H2  O   H1  H2  O   H1  H2  
O   H1  H2  O   H1  H2  O   H1  H2  O   H1  H2  O   H1  H2  O   H1  H2  O   H1  
H2  O   H1  H2  O   H1  H2  O   H1  H2  O   H1  H2  O   H1  H2  O   H1  H2  O   
H1  H2  O   H1  H2  O   H1  H2  O   H1  H2  O   H1  H2  O   H1  H2  O   H1  H2  
O   H1  H2  O   H1  H2  O   H1  H2  O   H1  H2  O   H1  H2  O   H1  H2  O   H1  
H2  O   H1  H2  O   H1  H2  O   H1  H2  O   H1  H2  O   H1  H2  O   H1  H2  O   
H1  H2  O   H1  H2  O   H1  H2  O   H1  H2  O   H1  H2  O   H1  H2  O   H1  H2  
O   H1  H2  O   H1  H2  O   H1  H2  O   H1  H2  O   H1  H2  O   H1  H2  O   H1  
H2  O   H1  H2  O   H1  H2  O   H1  H2  O   H1  H2  O   H1  H2  O   H1  H2  O   
H1  H2  O   H1  H2  O   H1  H2  O   H1  H2  O   H1  H2  O   H1  H2  O   H1  H2  
O   H1  H2  O   H1  H2  O   H1  H2  O   H1  H2  O   H1  H2  O   H1  H2  O   H1  
H2  O   H1  H2  O   H1  H2  O   H1  H2  O   H1  H2  O   H1  H2  O   H1  H2  O   
H1  H2  O   H1  H2  O   H1  H2  O   H1  H2  O   H1  H2  O   H1  H2  O   H1  H2  
O   H1  H2  O   H1  H2  O   H1  H2  O   H1  H2  O   H1  H2  O   H1  H2  O   H1  
H2  O   H1  H2  O   H1  H2  O   H1  H2  O   H1  H2  O   H1  H2  O   H1  H2  O   
H1  H2  O   H1  H2  O   H1  H2  O   H1  H2  O   H1  H2  O   H1  H2  O   H1  H2  
O   H1  H2  O   H1  H2  O   H1  H2  O   H1  H2  O   H1  H2  O   H1  H2  O   H1  
H2  O   H1  H2  O   H1  H2  O   H1  H2  O   H1  H2  O   H1  H2  O   H1  H2  O   
H1  H2  O   H1  H2  O   H1  H2  O   H1  H2  O   H1  H2  O   H1  H2  O   H1  H2  
O   H1  H2  O   H1  H2  O   H1  H2  O   H1  H2  O   H1  H2  O   H1  H2  O   H1  
H2  O   H1  H2  O   H1  H2  O   H1  H2  O   H1  H2  O   H1  H2  O   H1  H2  O   
H1  H2  O   H1  H2  O   H1  H2  O   H1  H2  O   H1  H2  O   H1  H2  O   H1  H2  
O   H1  H2  O   H1  H2  O   H1  H2  O   H1  H2  O   H1  H2  O   H1  H2  O   H1  
H2  O   H1  H2  O   H1  H2  O   H1  H2  O   H1  H2  O   H1  H2  O   H1  H2  O   
H1  H2  O   H1  H2  O   H1  H2  O   H1  H2  O   H1  H2  O   H1  H2  O   H1  H2  
O   H1  H2  O   H1  H2  O   H1  H2  O   H1  H2  O   H1  H2  O   H1  H2  O   H1  
H2  O   H1  H2  O   H1  H2  O   H1  H2  O   H1  H2  O   H1  H2  O   H1  H2  O   
H1  H2  O   H1  H2  O   H1  H2  O   H1  H2  O   H1  H2  O   H1  H2  O   H1  H2  
O   H1  H2  O   H1  H2  O   H1  H2  O   H1  H2  O   H1  H2  O   H1  H2  O   H1  
H2  O   H1  H2  O   H1  H2  O   H1  H2  O   H1  H2  O   H1  H2  O   H1  H2  O   
H1  H2  O   H1  H2  O   H1  H2  O   H1  H2  O   H1  H2  O   H1  H2  O   H1  H2  
O   H1  H2  O   H1  H2  O   H1  H2  O   H1  H2  O   H1  H2  O   H1  H2  O   H1  
H2  O   H1  H2  O   H1  H2  O   H1  H2  O   H1  H2  O   H1  H2  O   H1  H2  O   
H1  H2  O   H1  H2  O   H1  H2  O   H1  H2  O   H1  H2  O   H1  H2  O   H1  H2  
O   H1  H2  O   H1  H2  O   H1  H2  O   H1  H2  O   H1  H2  O   H1  H2  O   H1  
H2  O   H1  H2  O   H1  H2  O   H1  H2  O   H1  H2  O   H1  H2  O   H1  H2  O   
H1  H2  O   H1  H2  O   H1  H2  O   H1  H2  O   H1  H2  O   H1  H2  O   H1  H2  
O   H1  H2  O   H1  H2  O   H1  H2  O   H1  H2  O   H1  H2  O   H1  H2  O   H1  
H2  O   H1  H2  O   H1  H2  O   H1  H2  O   H1  H2  O   H1  H2  O   H1  H2  O   
H1  H2  O   H1  H2  O   H1  H2  O   H1  H2  O   H1  H2  O   H1  H2  O   H1  H2  
O   H1  H2  O   H1  H2  O   H1  H2  O   H1  H2  O   H1  H2  O   H1  H2  O   H1  
H2  O   H1  H2  O   H1  H2  O   H1  H2  O   H1  H2  O   H1  H2  O   H1  H2  O   
H1  H2  O   H1  H2  O   H1  H2  O   H1  H2  O   H1  H2  O   H1  H2  O   H1  H2  
O   H1  H2  O   H1  H2  O   H1  H2  O   H1  H2  O   H1  H2  O   H1  H2  O   H1  
H2  O   H1  H2  O   H1  H2  O   H1  H2  O   H1  H2  O   H1  H2  O   H1  H2  O   
H1  H2  O   H1  H2  O   H1  H2  O   H1  H2  O   H1  H2  O   H1  H2  O   H1  H2  
O   H1  H2  O   H1  H2  O   H1  H2  O   H1  H2  O   H1  H2  O   H1  H2  O   H1  
H2  O   H1  H2  O   H1  H2  O   H1  H2  O   H1  H2  O   H1  H2  O   H1  H2  O   
H1  H2  O   H1  H2  O   H1  H2  O   H1  H2  O   H1  H2  O   H1  H2  O   H1  H2  
O   H1  H2  O   H1  H2  O   H1  H2  O   H1  H2  O   H1  H2  O   H1  H2  O   H1  
H2  O   H1  H2  O   H1  H2  O   H1  H2  O   H1  H2  O   H1  H2  O   H1  H2  O   
H1  H2  O   H1  H2  O   H1  H2  O   H1  H2  O   H1  H2  O   H1  H2  O   H1  H2  
O   H1  H2  O   H1  H2  O   H1  H2  O   H1  H2  O   H1  H2  O   H1  H2  O   H1  
H2  O   H1  H2  O   H1  H2  O   H1  H2  O   H1  H2  O   H1  H2  O   H1  H2  O   
H1  H2  O   H1  H2  O   H1  H2  O   H1  H2  O   H1  H2  O   H1  H2  O   H1  H2  
O   H1  H2  O   H1  H2  O   H1  H2  O   H1  H2  O   H1  H2  O   H1  H2  O   H1  
H2  O   H1  H2  O   H1  H2  O   H1  H2  O   H1  H2  O   H1  H2  O   H1  H2  O   
H1  H2  O   H1  H2  O   H1  H2  O   H1  H2  O   H1  H2  O   H1  H2  O   H1  H2  
O   H1  H2  O   H1  H2  O   H1  H2  O   H1  H2  O   H1  H2  O   H1  H2  O   H1  
H2  O   H1  H2  O   H1  H2  O   H1  H2  O   H1  H2  O   H1  H2  O   H1  H2  O   
H1  H2  O   H1  H2  O   H1  H2  O   H1  H2  O   H1  H2  O   H1  H2  O   H1  H2  
O   H1  H2  O   H1  H2  O   H1  H2  O   H1  H2  O   H1  H2  O   H1  H2  O   H1  
H2  O   H1  H2  O   H1  H2  O   H1  H2  O   H1  H2  O   H1  H2  O   H1  H2  O   
H1  H2  O   H1  H2  O   H1  H2  O   H1  H2  O   H1  H2  O   H1  H2  O   H1  H2  
O   H1  H2  O   H1  H2  O   H1  H2  O   H1  H2  O   H1  H2  O   H1  H2  O   H1  
H2  O   H1  H2  O   H1  H2  O   H1  H2  O   H1  H2  O   H1  H2  O   H1  H2  O   
H1  H2  O   H1  H2  O   H1  H2  O   H1  H2  O   H1  H2  O   H1  H2  O   H1  H2  
O   H1  H2  O   H1  H2  O   H1  H2  O   H1  H2  O   H1  H2  O   H1  H2  O   H1  
H2  O   H1  H2  O   H1  H2  O   H1  H2  O   H1  H2  O   H1  H2  O   H1  H2  O   
H1  H2  O   H1  H2  O   H1  H2  O   H1  H2  O   H1  H2  O   H1  H2  O   H1  H2  
O   H1  H2  O   H1  H2  O   H1  H2  O   H1  H2  O   H1  H2  O   H1  H2  O   H1  
H2  O   H1  H2  O   H1  H2  O   H1  H2  O   H1  H2  O   H1  H2  O   H1  H2  O   
H1  H2  O   H1  H2  O   H1  H2  O   H1  H2  O   H1  H2  O   H1  H2  O   H1  H2  
O   H1  H2  O   H1  H2  O   H1  H2  O   H1  H2  O   H1  H2  O   H1  H2  O   H1  
H2  O   H1  H2  O   H1  H2  O   H1  H2  O   H1  H2  O   H1  H2  O   H1  H2  O   
H1  H2  O   H1  H2  O   H1  H2  O   H1  H2  O   H1  H2  O   H1  H2  O   H1  H2  
O   H1  H2  O   H1  H2  O   H1  H2  O   H1  H2  O   H1  H2  O   H1  H2  O   H1  
H2  O   H1  H2  O   H1  H2  O   H1  H2  O   H1  H2  O   H1  H2  O   H1  H2  O   
H1  H2  O   H1  H2  O   H1  H2  O   H1  H2  O   H1  H2  O   H1  H2  O   H1  H2  
O   H1  H2  O   H1  H2  O   H1  H2  O   H1  H2  O   H1  H2  O   H1  H2  O   H1  
H2  O   H1  H2  O   H1  H2  O   H1  H2  O   H1  H2  O   H1  H2  O   H1  H2  O   
H1  H2  O   H1  H2  O   H1  H2  O   H1  H2  O   H1  H2  O   H1  H2  O   H1  H2  
O   H1  H2  O   H1  H2  O   H1  H2  O   H1  H2  O   H1  H2  O   H1  H2  O   H1  
H2  O   H1  H2  O   H1  H2  O   H1  H2  O   H1  H2  O   H1  H2  O   H1  H2  O   
H1  H2  O   H1  H2  O   H1  H2  O   H1  H2  O   H1  H2  O   H1  H2  O   H1  H2  
O   H1  H2  O   H1  H2  O   H1  H2  O   H1  H2  O   H1  H2  O   H1  H2  O   H1  
H2  O   H1  H2  O   H1  H2  O   H1  H2  O   H1  H2  O   H1  H2  O   H1  H2  O   
H1  H2  O   H1  H2  O   H1  H2  O   H1  H2  O   H1  H2  O   H1  H2  O   H1  H2  
O   H1  H2  O   H1  H2  O   H1  H2  O   H1  H2  O   H1  H2  O   H1  H2  O   H1  
H2  O   H1  H2  O   H1  H2  O   H1  H2  O   H1  H2  O   H1  H2  O   H1  H2  O   
H1  H2  O   H1  H2  O   H1  H2  O   H1  H2  O   H1  H2  O   H1  H2  O   H1  H2  
O   H1  H2  O   H1  H2  O   H1  H2  O   H1  H2  O   H1  H2  O   H1  H2  O   H1  
H2  O   H1  H2  O   H1  H2  O   H1  H2  O   H1  H2  O   H1  H2  O   H1  H2  O   
H1  H2  O   H1  H2  O   H1  H2  O   H1  H2  O   H1  H2  O   H1  H2  O   H1  H2  
O   H1  H2  O   H1  H2  O   H1  H2  O   H1  H2  O   H1  H2  O   H1  H2  O   H1  
H2  O   H1  H2  O   H1  H2  O   H1  H2  O   H1  H2  O   H1  H2  O   H1  H2  O   
H1  H2  O   H1  H2  O   H1  H2  O   H1  H2  O   H1  H2  O   H1  H2  O   H1  H2  
O   H1  H2  O   H1  H2  O   H1  H2  O   H1  H2  O   H1  H2  O   H1  H2  O   H1  
H2  O   H1  H2  O   H1  H2  O   H1  H2  O   H1  H2  O   H1  H2  O   H1  H2  O   
H1  H2  O   H1  H2  O   H1  H2  O   H1  H2  O   H1  H2  O   H1  H2  O   H1  H2  
O   H1  H2  O   H1  H2  O   H1  H2  O   H1  H2  O   H1  H2  O   H1  H2  O   H1  
H2  O   H1  H2  O   H1  H2  O   H1  H2  O   H1  H2  O   H1  H2  O   H1  H2  O   
H1  H2  O   H1  H2  O   H1  H2  O   H1  H2  O   H1  H2  O   H1  H2  O   H1  H2  
O   H1  H2  O   H1  H2  O   H1  H2  O   H1  H2  O   H1  H2  O   H1  H2  O   H1  
H2  O   H1  H2  O   H1  H2  O   H1  H2  O   H1  H2  O   H1  H2  O   H1  H2  O   
H1  H2  O   H1  H2  O   H1  H2  O   H1  H2  O   H1  H2  O   H1  H2  O   H1  H2  
O   H1  H2  O   H1  H2  O   H1  H2  O   H1  H2  O   H1  H2  O   H1  H2  O   H1  
H2  O   H1  H2  O   H1  H2  O   H1  H2  O   H1  H2  O   H1  H2  O   H1  H2  O   
H1  H2  O   H1  H2  O   H1  H2  O   H1  H2  O   H1  H2  O   H1  H2  O   H1  H2  
O   H1  H2  O   H1  H2  O   H1  H2  O   H1  H2  O   H1  H2  O   H1  H2  O   H1  
H2  O   H1  H2  O   H1  H2  O   H1  H2  O   H1  H2  O   H1  H2  O   H1  H2  O   
H1  H2  O   H1  H2  O   H1  H2  O   H1  H2  O   H1  H2  O   H1  H2  O   H1  H2  
O   H1  H2  O   H1  H2  O   H1  H2  O   H1  H2  O   H1  H2  O   H1  H2  O   H1  
H2  O   H1  H2  O   H1  H2  O   H1  H2  O   H1  H2  O   H1  H2  O   H1  H2  O   
H1  H2  O   H1  H2  O   H1  H2  O   H1  H2  O   H1  H2  O   H1  H2  O   H1  H2  
O   H1  H2  O   H1  H2  O   H1  H2  O   H1  H2  O   H1  H2  O   H1  H2  O   H1  
H2  O   H1  H2  O   H1  H2  O   H1  H2  O   H1  H2  O   H1  H2  O   H1  H2  O   
H1  H2  O   H1  H2  O   H1  H2  O   H1  H2  O   H1  H2  O   H1  H2  O   H1  H2  
O   H1  H2  O   H1  H2  O   H1  H2  O   H1  H2  O   H1  H2  O   H1  H2  O   H1  
H2  O   H1  H2  O   H1  H2  O   H1  H2  O   H1  H2  O   H1  H2  O   H1  H2  O   
H1  H2  O   H1  H2  O   H1  H2  O   H1  H2  O   H1  H2  O   H1  H2  O   H1  H2  
O   H1  H2  O   H1  H2  O   H1  H2  O   H1  H2  O   H1  H2  O   H1  H2  O   H1  
H2  O   H1  H2  O   H1  H2  O   H1  H2  O   H1  H2  O   H1  H2  O   H1  H2  O   
H1  H2  O   H1  H2  O   H1  H2  O   H1  H2  O   H1  H2  O   H1  H2  O   H1  H2  
O   H1  H2  O   H1  H2  O   H1  H2  O   H1  H2  O   H1  H2  O   H1  H2  O   H1  
H2  O   H1  H2  O   H1  H2  O   H1  H2  O   H1  H2  O   H1  H2  O   H1  H2  O   
H1  H2  O   H1  H2  O   H1  H2  O   H1  H2  O   H1  H2  O   H1  H2  O   H1  H2  
O   H1  H2  O   H1  H2  O   H1  H2  O   H1  H2  O   H1  H2  O   H1  H2  O   H1  
H2  O   H1  H2  O   H1  H2  O   H1  H2  O   H1  H2  O   H1  H2  O   H1  H2  O   
H1  H2  O   H1  H2  O   H1  H2  O   H1  H2  O   H1  H2  O   H1  H2  O   H1  H2  
O   H1  H2  O   H1  H2  O   H1  H2  O   H1  H2  O   H1  H2  O   H1  H2  O   H1  
H2  O   H1  H2  O   H1  H2  O   H1  H2  O   H1  H2  O   H1  H2  O   H1  H2  O   
H1  H2  O   H1  H2  O   H1  H2  O   H1  H2  O   H1  H2  O   H1  H2  O   H1  H2  
O   H1  H2  O   H1  H2  O   H1  H2  O   H1  H2  O   H1  H2  O   H1  H2  O   H1  
H2  O   H1  H2  O   H1  H2  O   H1  H2  O   H1  H2  O   H1  H2  O   H1  H2  O   
H1  H2  O   H1  H2  O   H1  H2  O   H1  H2  O   H1  H2  O   H1  H2  O   H1  H2  
O   H1  H2  O   H1  H2  O   H1  H2  O   H1  H2  O   H1  H2  O   H1  H2  O   H1  
H2  O   H1  H2  O   H1  H2  O   H1  H2  O   H1  H2  O   H1  H2  O   H1  H2  O   
H1  H2  O   H1  H2  O   H1  H2  O   H1  H2  O   H1  H2  O   H1  H2  O   H1  H2  
O   H1  H2  O   H1  H2  O   H1  H2  O   H1  H2  O   H1  H2  O   H1  H2  O   H1  
H2  O   H1  H2  O   H1  H2  O   H1  H2  O   H1  H2  O   H1  H2  O   H1  H2  O   
H1  H2  O   H1  H2  O   H1  H2  O   H1  H2  O   H1  H2  O   H1  H2  O   H1  H2  
O   H1  H2  O   H1  H2  O   H1  H2  O   H1  H2  O   H1  H2  O   H1  H2  O   H1  
H2  O   H1  H2  O   H1  H2  O   H1  H2  O   H1  H2  O   H1  H2  O   H1  H2  O   
H1  H2  O   H1  H2  O   H1  H2  O   H1  H2  O   H1  H2  O   H1  H2  O   H1  H2  
O   H1  H2  O   H1  H2  O   H1  H2  O   H1  H2  O   H1  H2  O   H1  H2  O   H1  
H2  O   H1  H2  O   H1  H2  O   H1  H2  O   H1  H2  O   H1  H2  O   H1  H2  O   
H1  H2  O   H1  H2  O   H1  H2  O   H1  H2  O   H1  H2  O   H1  H2  O   H1  H2  
O   H1  H2  O   H1  H2  O   H1  H2  O   H1  H2  O   H1  H2  O   H1  H2  O   H1  
H2  O   H1  H2  O   H1  H2  O   H1  H2  O   H1  H2  O   H1  H2  O   H1  H2  O   
H1  H2  O   H1  H2  O   H1  H2  O   H1  H2  O   H1  H2  O   H1  H2  O   H1  H2  
O   H1  H2  O   H1  H2  O   H1  H2  O   H1  H2  O   H1  H2  O   H1  H2  O   H1  
H2  O   H1  H2  O   H1  H2  O   H1  H2  O   H1  H2  O   H1  H2  O   H1  H2  O   
H1  H2  O   H1  H2  O   H1  H2  O   H1  H2  O   H1  H2  O   H1  H2  O   H1  H2  
O   H1  H2  O   H1  H2  O   H1  H2  O   H1  H2  O   H1  H2  O   H1  H2  O   H1  
H2  O   H1  H2  O   H1  H2  O   H1  H2  O   H1  H2  O   H1  H2  O   H1  H2  O   
H1  H2  O   H1  H2  O   H1  H2  O   H1  H2  O   H1  H2  O   H1  H2  O   H1  H2  
O   H1  H2  O   H1  H2  O   H1  H2  O   H1  H2  O   H1  H2  O   H1  H2  O   H1  
H2  O   H1  H2  O   H1  H2  O   H1  H2  O   H1  H2  O   H1  H2  O   H1  H2  O   
H1  H2  O   H1  H2  O   H1  H2  O   H1  H2  O   H1  H2  O   H1  H2  O   H1  H2  
O   H1  H2  O   H1  H2  O   H1  H2  O   H1  H2  O   H1  H2  O   H1  H2  O   H1  
H2  O   H1  H2  O   H1  H2  O   H1  H2  O   H1  H2  O   H1  H2  O   H1  H2  O   
H1  H2  O   H1  H2  O   H1  H2  O   H1  H2  O   H1  H2  O   H1  H2  O   H1  H2  
O   H1  H2  O   H1  H2  O   H1  H2  O   H1  H2  O   H1  H2  O   H1  H2  O   H1  
H2  O   H1  H2  O   H1  H2  O   H1  H2  O   H1  H2  O   H1  H2  O   H1  H2  O   
H1  H2  O   H1  H2  O   H1  H2  O   H1  H2  O   H1  H2  O   H1  H2  O   H1  H2  
O   H1  H2  O   H1  H2  O   H1  H2  O   H1  H2  O   H1  H2  O   H1  H2  O   H1  
H2  O   H1  H2  O   H1  H2  O   H1  H2  O   H1  H2  O   H1  H2  O   H1  H2  O   
H1  H2  O   H1  H2  O   H1  H2  O   H1  H2  O   H1  H2  O   H1  H2  O   H1  H2  
O   H1  H2  O   H1  H2  O   H1  H2  O   H1  H2  O   H1  H2  O   H1  H2  O   H1  
H2  O   H1  H2  O   H1  H2  O   H1  H2  O   H1  H2  O   H1  H2  O   H1  H2  O   
H1  H2  O   H1  H2  O   H1  H2  O   H1  H2  O   H1  H2  O   H1  H2  O   H1  H2  
O   H1  H2  O   H1  H2  O   H1  H2  O   H1  H2  O   H1  H2  O   H1  H2  O   H1  
H2  O   H1  H2  O   H1  H2  O   H1  H2  O   H1  H2  O   H1  H2  O   H1  H2  O   
H1  H2  O   H1  H2  O   H1  H2  O   H1  H2  O   H1  H2  O   H1  H2  O   H1  H2  
O   H1  H2  O   H1  H2  O   H1  H2  O   H1  H2  O   H1  H2  O   H1  H2  O   H1  
H2  O   H1  H2  O   H1  H2  O   H1  H2  O   H1  H2  O   H1  H2  O   H1  H2  O   
H1  H2  O   H1  H2  O   H1  H2  O   H1  H2  O   H1  H2  O   H1  H2  O   H1  H2  
O   H1  H2  O   H1  H2  O   H1  H2  O   H1  H2  O   H1  H2  O   H1  H2  O   H1  
H2  O   H1  H2  O   H1  H2  O   H1  H2  O   H1  H2  O   H1  H2  O   H1  H2  O   
H1  H2  O   H1  H2  O   H1  H2  O   H1  H2  O   H1  H2  O   H1  H2  O   H1  H2  
O   H1  H2  O   H1  H2  O   H1  H2  O   H1  H2  O   H1  H2  O   H1  H2  O   H1  
H2  O   H1  H2  O   H1  H2  O   H1  H2  O   H1  H2  O   H1  H2  O   H1  H2  O   
H1  H2  O   H1  H2  O   H1  H2  O   H1  H2  O   H1  H2  O   H1  H2  O   H1  H2  
O   H1  H2  O   H1  H2  O   H1  H2  O   H1  H2  O   H1  H2  O   H1  H2  O   H1  
H2  O   H1  H2  O   H1  H2  O   H1  H2  O   H1  H2  O   H1  H2  O   H1  H2  O   
H1  H2  O   H1  H2  O   H1  H2  O   H1  H2  O   H1  H2  O   H1  H2  O   H1  H2  
O   H1  H2  O   H1  H2  O   H1  H2  O   H1  H2  O   H1  H2  O   H1  H2  O   H1  
H2  O   H1  H2  O   H1  H2  O   H1  H2  O   H1  H2  O   H1  H2  O   H1  H2  O   
H1  H2  O   H1  H2  O   H1  H2  O   H1  H2  O   H1  H2  O   H1  H2  O   H1  H2  
O   H1  H2  O   H1  H2  O   H1  H2  O   H1  H2  O   H1  H2  O   H1  H2  O   H1  
H2  O   H1  H2  O   H1  H2  O   H1  H2  O   H1  H2  O   H1  H2  O   H1  H2  O   
H1  H2  O   H1  H2  O   H1  H2  O   H1  H2  O   H1  H2  O   H1  H2  O   H1  H2  
O   H1  H2  O   H1  H2  O   H1  H2  O   H1  H2  O   H1  H2  O   H1  H2  O   H1  
H2  O   H1  H2  O   H1  H2  O   H1  H2  O   H1  H2  O   H1  H2  O   H1  H2  O   
H1  H2  O   H1  H2  O   H1  H2  O   H1  H2  O   H1  H2  O   H1  H2  O   H1  H2  
O   H1  H2  O   H1  H2  O   H1  H2  O   H1  H2  O   H1  H2  O   H1  H2  O   H1  
H2  O   H1  H2  O   H1  H2  O   H1  H2  O   H1  H2  O   H1  H2  O   H1  H2  O   
H1  H2  O   H1  H2  O   H1  H2  O   H1  H2  O   H1  H2  O   H1  H2  O   H1  H2  
O   H1  H2  O   H1  H2  O   H1  H2  O   H1  H2  O   H1  H2  O   H1  H2  O   H1  
H2  O   H1  H2  O   H1  H2  O   H1  H2  O   H1  H2  O   H1  H2  O   H1  H2  O   
H1  H2  O   H1  H2  O   H1  H2  O   H1  H2  O   H1  H2  O   H1  H2  O   H1  H2  
O   H1  H2  O   H1  H2  O   H1  H2  O   H1  H2  O   H1  H2  O   H1  H2  O   H1  
H2  O   H1  H2  O   H1  H2  O   H1  H2  O   H1  H2  O   H1  H2  O   H1  H2  O   
H1  H2  O   H1  H2  O   H1  H2  O   H1  H2  O   H1  H2  O   H1  H2  O   H1  H2  
O   H1  H2  O   H1  H2  O   H1  H2  O   H1  H2  O   H1  H2  O   H1  H2  O   H1  
H2  O   H1  H2  O   H1  H2  O   H1  H2  O   H1  H2  O   H1  H2  O   H1  H2  O   
H1  H2  O   H1  H2  O   H1  H2  O   H1  H2  O   H1  H2  O   H1  H2  O   H1  H2  
O   H1  H2  O   H1  H2  O   H1  H2  O   H1  H2  O   H1  H2  O   H1  H2  O   H1  
H2  O   H1  H2  O   H1  H2  O   H1  H2  O   H1  H2  O   H1  H2  O   H1  H2  O   
H1  H2  O   H1  H2  O   H1  H2  O   H1  H2  O   H1  H2  O   H1  H2  O   H1  H2  
O   H1  H2  O   H1  H2  O   H1  H2  O   H1  H2  O   H1  H2  O   H1  H2  O   H1  
H2  O   H1  H2  O   H1  H2  O   H1  H2  O   H1  H2  O   H1  H2  O   H1  H2  O   
H1  H2  O   H1  H2  O   H1  H2  O   H1  H2  O   H1  H2  O   H1  H2  O   H1  H2  
O   H1  H2  O   H1  H2  O   H1  H2  O   H1  H2  O   H1  H2  O   H1  H2  O   H1  
H2  O   H1  H2  O   H1  H2  O   H1  H2  O   H1  H2  O   H1  H2  O   H1  H2  O   
H1  H2  O   H1  H2  O   H1  H2  O   H1  H2  O   H1  H2  O   H1  H2  O   H1  H2  
O   H1  H2  O   H1  H2  O   H1  H2  O   H1  H2  O   H1  H2  O   H1  H2  O   H1  
H2  O   H1  H2  O   H1  H2  O   H1  H2  O   H1  H2  O   H1  H2  O   H1  H2  O   
H1  H2  O   H1  H2  O   H1  H2  O   H1  H2  O   H1  H2  O   H1  H2  O   H1  H2  
O   H1  H2  O   H1  H2  O   H1  H2  O   H1  H2  O   H1  H2  O   H1  H2  O   H1  
H2  O   H1  H2  O   H1  H2  O   H1  H2  O   H1  H2  O   H1  H2  O   H1  H2  O   
H1  H2  O   H1  H2  O   H1  H2  O   H1  H2  O   H1  H2  O   H1  H2  O   H1  H2  
O   H1  H2  O   H1  H2  O   H1  H2  O   H1  H2  O   H1  H2  O   H1  H2  O   H1  
H2  O   H1  H2  O   H1  H2  O   H1  H2  O   H1  H2  O   H1  H2  O   H1  H2  O   
H1  H2  O   H1  H2  O   H1  H2  O   H1  H2  O   H1  H2  O   H1  H2  O   H1  H2  
O   H1  H2  O   H1  H2  O   H1  H2  O   H1  H2  O   H1  H2  O   H1  H2  O   H1  
H2  O   H1  H2  O   H1  H2  O   H1  H2  O   H1  H2  O   H1  H2  O   H1  H2  O   
H1  H2  O   H1  H2  O   H1  H2  O   H1  H2  O   H1  H2  O   H1  H2  O   H1  H2  
O   H1  H2  O   H1  H2  O   H1  H2  O   H1  H2  O   H1  H2  O   H1  H2  O   H1  
H2  O   H1  H2  O   H1  H2  O   H1  H2  O   H1  H2  O   H1  H2  O   H1  H2  O   
H1  H2  O   H1  H2  O   H1  H2  O   H1  H2  O   H1  H2  O   H1  H2  O   H1  H2  
O   H1  H2  O   H1  H2  O   H1  H2  O   H1  H2  O   H1  H2  O   H1  H2  O   H1  
H2  O   H1  H2  O   H1  H2  O   H1  H2  O   H1  H2  O   H1  H2  O   H1  H2  O   
H1  H2  O   H1  H2  O   H1  H2  O   H1  H2  O   H1  H2  O   H1  H2  O   H1  H2  
O   H1  H2  O   H1  H2  O   H1  H2  O   H1  H2  O   H1  H2  O   H1  H2  O   H1  
H2  O   H1  H2  O   H1  H2  O   H1  H2  O   H1  H2  O   H1  H2  O   H1  H2  O   
H1  H2  O   H1  H2  O   H1  H2  O   H1  H2  O   H1  H2  O   H1  H2  O   H1  H2  
O   H1  H2  O   H1  H2  O   H1  H2  O   H1  H2  O   H1  H2  O   H1  H2  O   H1  
H2  O   H1  H2  O   H1  H2  O   H1  H2  O   H1  H2  O   H1  H2  O   H1  H2  O   
H1  H2  O   H1  H2  O   H1  H2  O   H1  H2  O   H1  H2  O   H1  H2  O   H1  H2  
O   H1  H2  O   H1  H2  O   H1  H2  O   H1  H2  O   H1  H2  O   H1  H2  O   H1  
H2  O   H1  H2  O   H1  H2  O   H1  H2  O   H1  H2  O   H1  H2  O   H1  H2  O   
H1  H2  O   H1  H2  O   H1  H2  O   H1  H2  O   H1  H2  O   H1  H2  O   H1  H2  
O   H1  H2  O   H1  H2  O   H1  H2  O   H1  H2  O   H1  H2  O   H1  H2  O   H1  
H2  O   H1  H2  O   H1  H2  O   H1  H2  O   H1  H2  O   H1  H2  O   H1  H2  O   
H1  H2  O   H1  H2  O   H1  H2  O   H1  H2  O   H1  H2  O   H1  H2  O   H1  H2  
O   H1  H2  O   H1  H2  O   H1  H2  O   H1  H2  O   H1  H2  O   H1  H2  O   H1  
H2  O   H1  H2  O   H1  H2  O   H1  H2  O   H1  H2  O   H1  H2  O   H1  H2  O   
H1  H2  O   H1  H2  O   H1  H2  O   H1  H2  O   H1  H2  O   H1  H2  O   H1  H2  
O   H1  H2  O   H1  H2  O   H1  H2  O   H1  H2  O   H1  H2  O   H1  H2  O   H1  
H2  O   H1  H2  O   H1  H2  O   H1  H2  O   H1  H2  O   H1  H2  O   H1  H2  O   
H1  H2  O   H1  H2  O   H1  H2  O   H1  H2  O   H1  H2  O   H1  H2  O   H1  H2  
O   H1  H2  O   H1  H2  O   H1  H2  O   H1  H2  O   H1  H2  O   H1  H2  O   H1  
H2  O   H1  H2  O   H1  H2  O   H1  H2  O   H1  H2  O   H1  H2  O   H1  H2  O   
H1  H2  O   H1  H2  O   H1  H2  O   H1  H2  O   H1  H2  O   H1  H2  O   H1  H2  
O   H1  H2  O   H1  H2  O   H1  H2  O   H1  H2  O   H1  H2  O   H1  H2  O   H1  
H2  O   H1  H2  O   H1  H2  O   H1  H2  O   H1  H2  O   H1  H2  O   H1  H2  O   
H1  H2  O   H1  H2  O   H1  H2  O   H1  H2  O   H1  H2  O   H1  H2  O   H1  H2  
O   H1  H2  O   H1  H2  O   H1  H2  O   H1  H2  O   H1  H2  O   H1  H2  O   H1  
H2  O   H1  H2  O   H1  H2  O   H1  H2  O   H1  H2  O   H1  H2  O   H1  H2  O   
H1  H2  O   H1  H2  O   H1  H2  O   H1  H2  O   H1  H2  O   H1  H2  O   H1  H2  
O   H1  H2  O   H1  H2  O   H1  H2  O   H1  H2  O   H1  H2  O   H1  H2  O   H1  
H2  O   H1  H2  O   H1  H2  O   H1  H2  O   H1  H2  O   H1  H2  O   H1  H2  O   
H1  H2  O   H1  H2  O   H1  H2  O   H1  H2  O   H1  H2  O   H1  H2  O   H1  H2  
O   H1  H2  O   H1  H2  O   H1  H2  O   H1  H2  O   H1  H2  O   H1  H2  O   H1  
H2  O   H1  H2  O   H1  H2  O   H1  H2  O   H1  H2  O   H1  H2  O   H1  H2  O   
H1  H2  O   H1  H2  O   H1  H2  O   H1  H2  O   H1  H2  O   H1  H2  O   H1  H2  
O   H1  H2  O   H1  H2  O   H1  H2  O   H1  H2  O   H1  H2  O   H1  H2  O   H1  
H2  O   H1  H2  O   H1  H2  O   H1  H2  O   H1  H2  O   H1  H2  O   H1  H2  O   
H1  H2  O   H1  H2  O   H1  H2  O   H1  H2  O   H1  H2  O   H1  H2  O   H1  H2  
O   H1  H2  O   H1  H2  O   H1  H2  O   H1  H2  O   H1  H2  O   H1  H2  O   H1  
H2  O   H1  H2  O   H1  H2  O   H1  H2  O   H1  H2  O   H1  H2  O   H1  H2  O   
H1  H2  O   H1  H2  O   H1  H2  O   H1  H2  O   H1  H2  O   H1  H2  O   H1  H2  
O   H1  H2  O   H1  H2  O   H1  H2  O   H1  H2  O   H1  H2  O   H1  H2  O   H1  
H2  O   H1  H2  O   H1  H2  O   H1  H2  O   H1  H2  O   H1  H2  O   H1  H2  O   
H1  H2  O   H1  H2  O   H1  H2  O   H1  H2  O   H1  H2  O   H1  H2  O   H1  H2  
O   H1  H2  O   H1  H2  O   H1  H2  O   H1  H2  O   H1  H2  O   H1  H2  O   H1  
H2  O   H1  H2  O   H1  H2  O   H1  H2  O   H1  H2  O   H1  H2  O   H1  H2  O   
H1  H2  O   H1  H2  O   H1  H2  O   H1  H2  O   H1  H2  O   H1  H2  O   H1  H2  
O   H1  H2  O   H1  H2  O   H1  H2  O   H1  H2  O   H1  H2  O   H1  H2  O   H1  
H2  O   H1  H2  O   H1  H2  O   H1  H2  O   H1  H2  O   H1  H2  O   H1  H2  O   
H1  H2  O   H1  H2  O   H1  H2  O   H1  H2  O   H1  H2  O   H1  H2  O   H1  H2  
O   H1  H2  O   H1  H2  O   H1  H2  O   H1  H2  O   H1  H2  O   H1  H2  O   H1  
H2  O   H1  H2  O   H1  H2  O   H1  H2  O   H1  H2  O   H1  H2  O   H1  H2  O   
H1  H2  O   H1  H2  O   H1  H2  O   H1  H2  O   H1  H2  O   H1  H2  O   H1  H2  
O   H1  H2  O   H1  H2  O   H1  H2  O   H1  H2  O   H1  H2  O   H1  H2  O   H1  
H2  O   H1  H2  O   H1  H2  O   H1  H2  O   H1  H2  O   H1  H2  O   H1  H2  O   
H1  H2  O   H1  H2  O   H1  H2  O   H1  H2  O   H1  H2  O   H1  H2  O   H1  H2  
O   H1  H2  O   H1  H2  O   H1  H2  O   H1  H2  O   H1  H2  O   H1  H2  O   H1  
H2  O   H1  H2  O   H1  H2  O   H1  H2  O   H1  H2  O   H1  H2  O   H1  H2  O   
H1  H2  O   H1  H2  O   H1  H2  O   H1  H2  O   H1  H2  O   H1  H2  O   H1  H2  
O   H1  H2  O   H1  H2  O   H1  H2  O   H1  H2  O   H1  H2  O   H1  H2  O   H1  
H2  O   H1  H2  O   H1  H2  O   H1  H2  O   H1  H2  O   H1  H2  O   H1  H2  O   
H1  H2  O   H1  H2  O   H1  H2  O   H1  H2  O   H1  H2  O   H1  H2  O   H1  H2  
O   H1  H2  O   H1  H2  O   H1  H2  O   H1  H2  O   H1  H2  O   H1  H2  O   H1  
H2  O   H1  H2  O   H1  H2  O   H1  H2  O   H1  H2  O   H1  H2  O   H1  H2  O   
H1  H2  O   H1  H2  O   H1  H2  O   H1  H2  O   H1  H2  O   H1  H2  O   H1  H2  
O   H1  H2  O   H1  H2  O   H1  H2  O   H1  H2  O   H1  H2  O   H1  H2  O   H1  
H2  O   H1  H2  O   H1  H2  O   H1  H2  O   H1  H2  O   H1  H2  O   H1  H2  O   
H1  H2  O   H1  H2  O   H1  H2  O   H1  H2  O   H1  H2  O   H1  H2  O   H1  H2  
O   H1  H2  O   H1  H2  O   H1  H2  O   H1  H2  O   H1  H2  O   H1  H2  O   H1  
H2  O   H1  H2  O   H1  H2  O   H1  H2  O   H1  H2  O   H1  H2  O   H1  H2  O   
H1  H2  O   H1  H2  O   H1  H2  O   H1  H2  O   H1  H2  O   H1  H2  O   H1  H2  
O   H1  H2  O   H1  H2  O   H1  H2  O   H1  H2  O   H1  H2  O   H1  H2  O   H1  
H2  O   H1  H2  O   H1  H2  O   H1  H2  O   H1  H2  O   H1  H2  O   H1  H2  O   
H1  H2  O   H1  H2  O   H1  H2  O   H1  H2  O   H1  H2  O   H1  H2  O   H1  H2  
O   H1  H2  O   H1  H2  O   H1  H2  O   H1  H2  O   H1  H2  O   H1  H2  O   H1  
H2  O   H1  H2  O   H1  H2  O   H1  H2  O   H1  H2  O   H1  H2  O   H1  H2  O   
H1  H2  O   H1  H2  O   H1  H2  O   H1  H2  O   H1  H2  O   H1  H2  O   H1  H2  
O   H1  H2  O   H1  H2  O   H1  H2  O   H1  H2  O   H1  H2  O   H1  H2  O   H1  
H2  O   H1  H2  O   H1  H2  O   H1  H2  O   H1  H2  O   H1  H2  O   H1  H2  O   
H1  H2  O   H1  H2  O   H1  H2  O   H1  H2  O   H1  H2  O   H1  H2  O   H1  H2  
O   H1  H2  O   H1  H2  O   H1  H2  O   H1  H2  O   H1  H2  O   H1  H2  O   H1  
H2  O   H1  H2  O   H1  H2  O   H1  H2  O   H1  H2  O   H1  H2  O   H1  H2  O   
H1  H2  O   H1  H2  O   H1  H2  O   H1  H2  O   H1  H2  O   H1  H2  O   H1  H2  
O   H1  H2  O   H1  H2  O   H1  H2  O   H1  H2  O   H1  H2  O   H1  H2  O   H1  
H2  O   H1  H2  O   H1  H2  O   H1  H2  O   H1  H2  O   H1  H2  O   H1  H2  O   
H1  H2  O   H1  H2  O   H1  H2  O   H1  H2  O   H1  H2  O   H1  H2  O   H1  H2  
O   H1  H2  O   H1  H2  O   H1  H2  O   H1  H2  O   H1  H2  O   H1  H2  O   H1  
H2  O   H1  H2  O   H1  H2  O   H1  H2  O   H1  H2  O   H1  H2  O   H1  H2  O   
H1  H2  O   H1  H2  O   H1  H2  O   H1  H2  O   H1  H2  O   H1  H2  O   H1  H2  
O   H1  H2  O   H1  H2  O   H1  H2  O   H1  H2  O   H1  H2  O   H1  H2  O   H1  
H2  O   H1  H2  O   H1  H2  O   H1  H2  O   H1  H2  O   H1  H2  O   H1  H2  O   
H1  H2  O   H1  H2  O   H1  H2  O   H1  H2  O   H1  H2  O   H1  H2  O   H1  H2  
O   H1  H2  O   H1  H2  O   H1  H2  O   H1  H2  O   H1  H2  O   H1  H2  O   H1  
H2  O   H1  H2  O   H1  H2  O   H1  H2  O   H1  H2  O   H1  H2  O   H1  H2  O   
H1  H2  O   H1  H2  O   H1  H2  O   H1  H2  O   H1  H2  O   H1  H2  O   H1  H2  
O   H1  H2  O   H1  H2  O   H1  H2  O   H1  H2  O   H1  H2  O   H1  H2  O   H1  
H2  O   H1  H2  O   H1  H2  O   H1  H2  O   H1  H2  O   H1  H2  O   H1  H2  O   
H1  H2  O   H1  H2  O   H1  H2  O   H1  H2  O   H1  H2  O   H1  H2  O   H1  H2  
O   H1  H2  O   H1  H2  O   H1  H2  O   H1  H2  O   H1  H2  O   H1  H2  O   H1  
H2  O   H1  H2  O   H1  H2  O   H1  H2  O   H1  H2  O   H1  H2  O   H1  H2  O   
H1  H2  O   H1  H2  O   H1  H2  O   H1  H2  O   H1  H2  O   H1  H2  O   H1  H2  
O   H1  H2  O   H1  H2  O   H1  H2  O   H1  H2  O   H1  H2  O   H1  H2  O   H1  
H2  O   H1  H2  O   H1  H2  O   H1  H2  O   H1  H2  O   H1  H2  O   H1  H2  O   
H1  H2  O   H1  H2  O   H1  H2  O   H1  H2  O   H1  H2  O   H1  H2  O   H1  H2  
O   H1  H2  O   H1  H2  O   H1  H2  O   H1  H2  O   H1  H2  O   H1  H2  O   H1  
H2  O   H1  H2  O   H1  H2  O   H1  H2  O   H1  H2  O   H1  H2  O   H1  H2  O   
H1  H2  O   H1  H2  O   H1  H2  O   H1  H2  O   H1  H2  O   H1  H2  O   H1  H2  
O   H1  H2  O   H1  H2  O   H1  H2  O   H1  H2  O   H1  H2  O   H1  H2  O   H1  
H2  O   H1  H2  O   H1  H2  O   H1  H2  O   H1  H2  O   H1  H2  O   H1  H2  O   
H1  H2  O   H1  H2  O   H1  H2  O   H1  H2  O   H1  H2  O   H1  H2  O   H1  H2  
O   H1  H2  O   H1  H2  O   H1  H2  O   H1  H2  O   H1  H2  O   H1  H2  O   H1  
H2  O   H1  H2  O   H1  H2  O   H1  H2  O   H1  H2  O   H1  H2  O   H1  H2  O   
H1  H2  O   H1  H2  O   H1  H2  O   H1  H2  O   H1  H2  O   H1  H2  O   H1  H2  
O   H1  H2  O   H1  H2  O   H1  H2  O   H1  H2  O   H1  H2  O   H1  H2  O   H1  
H2  O   H1  H2  O   H1  H2  O   H1  H2  O   H1  H2  O   H1  H2  O   H1  H2  O   
H1  H2  O   H1  H2  O   H1  H2  O   H1  H2  O   H1  H2  O   H1  H2  O   H1  H2  
O   H1  H2  O   H1  H2  O   H1  H2  O   H1  H2  O   H1  H2  O   H1  H2  O   H1  
H2  O   H1  H2  O   H1  H2  O   H1  H2  O   H1  H2  O   H1  H2  O   H1  H2  O   
H1  H2  O   H1  H2  O   H1  H2  O   H1  H2  O   H1  H2  O   H1  H2  O   H1  H2  
O   H1  H2  O   H1  H2  O   H1  H2  O   H1  H2  O   H1  H2  O   H1  H2  O   H1  
H2  O   H1  H2  O   H1  H2  O   H1  H2  O   H1  H2  O   H1  H2  O   H1  H2  O   
H1  H2  O   H1  H2  O   H1  H2  O   H1  H2  O   H1  H2  O   H1  H2  O   H1  H2  
O   H1  H2  O   H1  H2  O   H1  H2  O   H1  H2  O   H1  H2  O   H1  H2  O   H1  
H2  O   H1  H2  O   H1  H2  O   H1  H2  O   H1  H2  O   H1  H2  O   H1  H2  O   
H1  H2  O   H1  H2  O   H1  H2  O   H1  H2  O   H1  H2  O   H1  H2  O   H1  H2  
O   H1  H2  O   H1  H2  O   H1  H2  O   H1  H2  O   H1  H2  O   H1  H2  O   H1  
H2  O   H1  H2  O   H1  H2  O   H1  H2  O   H1  H2  O   H1  H2  O   H1  H2  O   
H1  H2  O   H1  H2  O   H1  H2  O   H1  H2  O   H1  H2  O   H1  H2  O   H1  H2  
O   H1  H2  O   H1  H2  O   H1  H2  O   H1  H2  O   H1  H2  O   H1  H2  O   H1  
H2  O   H1  H2  O   H1  H2  O   H1  H2  O   H1  H2  O   H1  H2  O   H1  H2  O   
H1  H2  O   H1  H2  O   H1  H2  O   H1  H2  O   H1  H2  O   H1  H2  O   H1  H2  
O   H1  H2  O   H1  H2  O   H1  H2  O   H1  H2  O   H1  H2  O   H1  H2  O   H1  
H2  O   H1  H2  O   H1  H2  O   H1  H2  O   H1  H2  O   H1  H2  O   H1  H2  O   
H1  H2  O   H1  H2  O   H1  H2  O   H1  H2  O   H1  H2  O   H1  H2  O   H1  H2  
O   H1  H2  O   H1  H2  O   H1  H2  O   H1  H2  O   H1  H2  O   H1  H2  O   H1  
H2  O   H1  H2  O   H1  H2  O   H1  H2  O   H1  H2  O   H1  H2  O   H1  H2  O   
H1  H2  O   H1  H2  O   H1  H2  O   H1  H2  O   H1  H2  O   H1  H2  O   H1  H2  
O   H1  H2  O   H1  H2  O   H1  H2  O   H1  H2  O   H1  H2  O   H1  H2  O   H1  
H2  O   H1  H2  O   H1  H2  O   H1  H2  O   H1  H2  O   H1  H2  O   H1  H2  O   
H1  H2  O   H1  H2  O   H1  H2  O   H1  H2  O   H1  H2  O   H1  H2  O   H1  H2  
O   H1  H2  O   H1  H2  O   H1  H2  O   H1  H2  O   H1  H2  O   H1  H2  O   H1  
H2  O   H1  H2  O   H1  H2  O   H1  H2  O   H1  H2  O   H1  H2  O   H1  H2  O   
H1  H2  O   H1  H2  O   H1  H2  O   H1  H2  O   H1  H2  O   H1  H2  O   H1  H2  
O   H1  H2  O   H1  H2  O   H1  H2  O   H1  H2  O   H1  H2  O   H1  H2  O   H1  
H2  O   H1  H2  O   H1  H2  O   H1  H2  O   H1  H2  O   H1  H2  O   H1  H2  O   
H1  H2  O   H1  H2  O   H1  H2  O   H1  H2  O   H1  H2  O   H1  H2  O   H1  H2  
O   H1  H2  O   H1  H2  O   H1  H2  O   H1  H2  O   H1  H2  O   H1  H2  O   H1  
H2  O   H1  H2  O   H1  H2  O   H1  H2  O   H1  H2  O   H1  H2  O   H1  H2  O   
H1  H2  O   H1  H2  O   H1  H2  O   H1  H2  O   H1  H2  O   H1  H2  O   H1  H2  
O   H1  H2  O   H1  H2  O   H1  H2  O   H1  H2  O   H1  H2  O   H1  H2  O   H1  
H2  O   H1  H2  O   H1  H2  O   H1  H2  O   H1  H2  O   H1  H2  O   H1  H2  O   
H1  H2  O   H1  H2  O   H1  H2  O   H1  H2  O   H1  H2  O   H1  H2  O   H1  H2  
O   H1  H2  O   H1  H2  O   H1  H2  O   H1  H2  O   H1  H2  O   H1  H2  O   H1  
H2  O   H1  H2  O   H1  H2  O   H1  H2  O   H1  H2  O   H1  H2  O   H1  H2  O   
H1  H2  O   H1  H2  O   H1  H2  O   H1  H2  O   H1  H2  O   H1  H2  O   H1  H2  
O   H1  H2  O   H1  H2  O   H1  H2  O   H1  H2  O   H1  H2  O   H1  H2  O   H1  
H2  O   H1  H2  O   H1  H2  O   H1  H2  O   H1  H2  O   H1  H2  O   H1  H2  O   
H1  H2  O   H1  H2  O   H1  H2  O   H1  H2  O   H1  H2  O   H1  H2  O   H1  H2  
O   H1  H2  O   H1  H2  O   H1  H2  O   H1  H2  O   H1  H2  O   H1  H2  O   H1  
H2  O   H1  H2  O   H1  H2  O   H1  H2  O   H1  H2  O   H1  H2  O   H1  H2  O   
H1  H2  O   H1  H2  O   H1  H2  O   H1  H2  O   H1  H2  O   H1  H2  O   H1  H2  
O   H1  H2  O   H1  H2  O   H1  H2  O   H1  H2  O   H1  H2  O   H1  H2  O   H1  
H2  O   H1  H2  O   H1  H2  O   H1  H2  O   H1  H2  O   H1  H2  O   H1  H2  O   
H1  H2  O   H1  H2  O   H1  H2  O   H1  H2  O   H1  H2  O   H1  H2  O   H1  H2  
O   H1  H2  O   H1  H2  O   H1  H2  O   H1  H2  O   H1  H2  O   H1  H2  O   H1  
H2  O   H1  H2  O   H1  H2  O   H1  H2  O   H1  H2  O   H1  H2  O   H1  H2  O   
H1  H2  O   H1  H2  O   H1  H2  O   H1  H2  O   H1  H2  O   H1  H2  O   H1  H2  
O   H1  H2  O   H1  H2  O   H1  H2  O   H1  H2  O   H1  H2  O   H1  H2  O   H1  
H2  O   H1  H2  O   H1  H2  O   H1  H2  O   H1  H2  O   H1  H2  O   H1  H2  O   
H1  H2  O   H1  H2  O   H1  H2  O   H1  H2  O   H1  H2  O   H1  H2  O   H1  H2  
O   H1  H2  O   H1  H2  O   H1  H2  O   H1  H2  O   H1  H2  O   H1  H2  O   H1  
H2  O   H1  H2  O   H1  H2  O   H1  H2  O   H1  H2  O   H1  H2  O   H1  H2  O   
H1  H2  O   H1  H2  O   H1  H2  O   H1  H2  O   H1  H2  O   H1  H2  O   H1  H2  
O   H1  H2  O   H1  H2  O   H1  H2  O   H1  H2  O   H1  H2  O   H1  H2  O   H1  
H2  O   H1  H2  O   H1  H2  O   H1  H2  O   H1  H2  O   H1  H2  O   H1  H2  O   
H1  H2  O   H1  H2  O   H1  H2  O   H1  H2  O   H1  H2  O   H1  H2  O   H1  H2  
O   H1  H2  O   H1  H2  O   H1  H2  O   H1  H2  O   H1  H2  O   H1  H2  O   H1  
H2  O   H1  H2  O   H1  H2  O   H1  H2  O   H1  H2  O   H1  H2  O   H1  H2  O   
H1  H2  O   H1  H2  O   H1  H2  O   H1  H2  O   H1  H2  O   H1  H2  O   H1  H2  
O   H1  H2  O   H1  H2  O   H1  H2  O   H1  H2  O   H1  H2  O   H1  H2  O   H1  
H2  O   H1  H2  O   H1  H2  O   H1  H2  O   H1  H2  O   H1  H2  O   H1  H2  O   
H1  H2  O   H1  H2  O   H1  H2  O   H1  H2  O   H1  H2  O   H1  H2  O   H1  H2  
O   H1  H2  O   H1  H2  O   H1  H2  O   H1  H2  O   H1  H2  O   H1  H2  O   H1  
H2  O   H1  H2  O   H1  H2  O   H1  H2  O   H1  H2  O   H1  H2  O   H1  H2  O   
H1  H2  O   H1  H2  O   H1  H2  O   H1  H2  O   H1  H2  O   H1  H2  O   H1  H2  
O   H1  H2  O   H1  H2  O   H1  H2  O   H1  H2  O   H1  H2  O   H1  H2  O   H1  
H2  O   H1  H2  O   H1  H2  O   H1  H2  O   H1  H2  O   H1  H2  O   H1  H2  O   
H1  H2  O   H1  H2  O   H1  H2  O   H1  H2  O   H1  H2  O   H1  H2  O   H1  H2  
O   H1  H2  O   H1  H2  O   H1  H2  O   H1  H2  O   H1  H2  O   H1  H2  O   H1  
H2  O   H1  H2  O   H1  H2  O   H1  H2  O   H1  H2  O   H1  H2  O   H1  H2  O   
H1  H2  O   H1  H2  O   H1  H2  O   H1  H2  O   H1  H2  O   H1  H2  O   H1  H2  
O   H1  H2  O   H1  H2  O   H1  H2  O   H1  H2  O   H1  H2  O   H1  H2  O   H1  
H2  O   H1  H2  O   H1  H2  O   H1  H2  O   H1  H2  O   H1  H2  O   H1  H2  O   
H1  H2  O   H1  H2  O   H1  H2  O   H1  H2  O   H1  H2  O   H1  H2  O   H1  H2  
O   H1  H2  O   H1  H2  O   H1  H2  O   H1  H2  O   H1  H2  O   H1  H2  O   H1  
H2  O   H1  H2  O   H1  H2  O   H1  H2  O   H1  H2  O   H1  H2  O   H1  H2  O   
H1  H2  O   H1  H2  O   H1  H2  O   H1  H2  O   H1  H2  O   H1  H2  O   H1  H2  
O   H1  H2  O   H1  H2  O   H1  H2  O   H1  H2  O   H1  H2  O   H1  H2  O   H1  
H2  O   H1  H2  O   H1  H2  O   H1  H2  O   H1  H2  O   H1  H2  O   H1  H2  O   
H1  H2  O   H1  H2  O   H1  H2  O   H1  H2  O   H1  H2  O   H1  H2  O   H1  H2  
O   H1  H2  O   H1  H2  O   H1  H2  O   H1  H2  O   H1  H2  O   H1  H2  O   H1  
H2  O   H1  H2  O   H1  H2  O   H1  H2  O   H1  H2  O   H1  H2  O   H1  H2  O   
H1  H2  O   H1  H2  O   H1  H2  O   H1  H2  O   H1  H2  O   H1  H2  O   H1  H2  
O   H1  H2  O   H1  H2  O   H1  H2  O   H1  H2  O   H1  H2  O   H1  H2  O   H1  
H2  O   H1  H2  O   H1  H2  O   H1  H2  O   H1  H2  O   H1  H2  O   H1  H2  O   
H1  H2  O   H1  H2  O   H1  H2  O   H1  H2  O   H1  H2  O   H1  H2  O   H1  H2  
O   H1  H2  O   H1  H2  O   H1  H2  O   H1  H2  O   H1  H2  O   H1  H2  O   H1  
H2  O   H1  H2  O   H1  H2  O   H1  H2  O   H1  H2  O   H1  H2  O   H1  H2  O   
H1  H2  O   H1  H2  O   H1  H2  O   H1  H2  O   H1  H2  O   H1  H2  O   H1  H2  
O   H1  H2  O   H1  H2  O   H1  H2  O   H1  H2  O   H1  H2  O   H1  H2  O   H1  
H2  O   H1  H2  O   H1  H2  O   H1  H2  O   H1  H2  O   H1  H2  O   H1  H2  O   
H1  H2  O   H1  H2  O   H1  H2  O   H1  H2  O   H1  H2  O   H1  H2  O   H1  H2  
O   H1  H2  O   H1  H2  O   H1  H2  O   H1  H2  O   H1  H2  O   H1  H2  O   H1  
H2  O   H1  H2  O   H1  H2  O   H1  H2  O   H1  H2  O   H1  H2  O   H1  H2  O   
H1  H2  O   H1  H2  O   H1  H2  O   H1  H2  O   H1  H2  O   H1  H2  O   H1  H2  
O   H1  H2  O   H1  H2  O   H1  H2  O   H1  H2  O   H1  H2  O   H1  H2  O   H1  
H2  O   H1  H2  O   H1  H2  O   H1  H2  O   H1  H2  O   H1  H2  O   H1  H2  O   
H1  H2  O   H1  H2  O   H1  H2  O   H1  H2  O   H1  H2  O   H1  H2  O   H1  H2  
O   H1  H2  O   H1  H2  O   H1  H2  O   H1  H2  O   H1  H2  O   H1  H2  O   H1  
H2  O   H1  H2  O   H1  H2  O   H1  H2  O   H1  H2  O   H1  H2  O   H1  H2  O   
H1  H2  O   H1  H2  O   H1  H2  O   H1  H2  O   H1  H2  O   H1  H2  O   H1  H2  
O   H1  H2  O   H1  H2  O   H1  H2  O   H1  H2  O   H1  H2  O   H1  H2  O   H1  
H2  O   H1  H2  O   H1  H2  O   H1  H2  O   H1  H2  O   H1  H2  O   H1  H2  O   
H1  H2  O   H1  H2  O   H1  H2  O   H1  H2  O   H1  H2  O   H1  H2  O   H1  H2  
O   H1  H2  O   H1  H2  O   H1  H2  O   H1  H2  O   H1  H2  O   H1  H2  O   H1  
H2  O   H1  H2  O   H1  H2  O   H1  H2  O   H1  H2  O   H1  H2  O   H1  H2  O   
H1  H2  O   H1  H2  O   H1  H2  O   H1  H2  O   H1  H2  O   H1  H2  O   H1  H2  
O   H1  H2  O   H1  H2  O   H1  H2  O   H1  H2  O   H1  H2  O   H1  H2  O   H1  
H2  O   H1  H2  O   H1  H2  O   H1  H2  O   H1  H2  O   H1  H2  O   H1  H2  O   
H1  H2  O   H1  H2  O   H1  H2  O   H1  H2  O   H1  H2  O   H1  H2  O   H1  H2  
O   H1  H2  O   H1  H2  O   H1  H2  O   H1  H2  O   H1  H2  O   H1  H2  O   H1  
H2  O   H1  H2  O   H1  H2  O   H1  H2  O   H1  H2  O   H1  H2  O   H1  H2  O   
H1  H2  O   H1  H2  O   H1  H2  O   H1  H2  O   H1  H2  O   H1  H2  O   H1  H2  
O   H1  H2  O   H1  H2  O   H1  H2  O   H1  H2  O   H1  H2  O   H1  H2  O   H1  
H2  O   H1  H2  O   H1  H2  O   H1  H2  O   H1  H2  O   H1  H2  O   H1  H2  O   
H1  H2  O   H1  H2  O   H1  H2  O   H1  H2  O   H1  H2  O   H1  H2  O   H1  H2  
O   H1  H2  O   H1  H2  O   H1  H2  O   H1  H2  O   H1  H2  O   H1  H2  O   H1  
H2  O   H1  H2  O   H1  H2  O   H1  H2  O   H1  H2  O   H1  H2  O   H1  H2  O   
H1  H2  O   H1  H2  O   H1  H2  O   H1  H2  O   H1  H2  O   H1  H2  O   H1  H2  
O   H1  H2  O   H1  H2  O   H1  H2  O   H1  H2  O   H1  H2  O   H1  H2  O   H1  
H2  O   H1  H2  O   H1  H2  O   H1  H2  O   H1  H2  O   H1  H2  O   H1  H2  O   
H1  H2  O   H1  H2  O   H1  H2  O   H1  H2  O   H1  H2  O   H1  H2  O   H1  H2  
O   H1  H2  O   H1  H2  O   H1  H2  O   H1  H2  O   H1  H2  O   H1  H2  O   H1  
H2  O   H1  H2  O   H1  H2  O   H1  H2  O   H1  H2  O   H1  H2  O   H1  H2  O   
H1  H2  O   H1  H2  O   H1  H2  O   H1  H2  O   H1  H2  O   H1  H2  O   H1  H2  
O   H1  H2  O   H1  H2  O   H1  H2  O   H1  H2  O   H1  H2  O   H1  H2  O   H1  
H2  O   H1  H2  O   H1  H2  O   H1  H2  O   H1  H2  O   H1  H2  O   H1  H2  O   
H1  H2  O   H1  H2  O   H1  H2  O   H1  H2  O   H1  H2  O   H1  H2  O   H1  H2  
O   H1  H2  O   H1  H2  O   H1  H2  O   H1  H2  O   H1  H2  O   H1  H2  O   H1  
H2  O   H1  H2  O   H1  H2  O   H1  H2  O   H1  H2  O   H1  H2  O   H1  H2  O   
H1  H2  O   H1  H2  O   H1  H2  O   H1  H2  O   H1  H2  O   H1  H2  O   H1  H2  
O   H1  H2  O   H1  H2  O   H1  H2  O   H1  H2  O   H1  H2  O   H1  H2  O   H1  
H2  O   H1  H2  O   H1  H2  O   H1  H2  O   H1  H2  O   H1  H2  O   H1  H2  O   
H1  H2  O   H1  H2  O   H1  H2  O   H1  H2  O   H1  H2  O   H1  H2  O   H1  H2  
O   H1  H2  O   H1  H2  O   H1  H2  O   H1  H2  O   H1  H2  O   H1  H2  O   H1  
H2  O   H1  H2  O   H1  H2  O   H1  H2  O   H1  H2  O   H1  H2  O   H1  H2  O   
H1  H2  O   H1  H2  O   H1  H2  O   H1  H2  O   H1  H2  O   H1  H2  O   H1  H2  
O   H1  H2  O   H1  H2  O   H1  H2  O   H1  H2  O   H1  H2  O   H1  H2  O   H1  
H2  O   H1  H2  O   H1  H2  O   H1  H2  O   H1  H2  O   H1  H2  O   H1  H2  O   
H1  H2  O   H1  H2  O   H1  H2  O   H1  H2  O   H1  H2  O   H1  H2  O   H1  H2  
O   H1  H2  O   H1  H2  O   H1  H2  O   H1  H2  O   H1  H2  O   H1  H2  O   H1  
H2  O   H1  H2  O   H1  H2  O   H1  H2  O   H1  H2  O   H1  H2  O   H1  H2  O   
H1  H2  O   H1  H2  O   H1  H2  O   H1  H2  O   H1  H2  O   H1  H2  O   H1  H2  
O   H1  H2  O   H1  H2  O   H1  H2  O   H1  H2  O   H1  H2  O   H1  H2  O   H1  
H2  O   H1  H2  O   H1  H2  O   H1  H2  O   H1  H2  O   H1  H2  O   H1  H2  O   
H1  H2  O   H1  H2  O   H1  H2  O   H1  H2  O   H1  H2  O   H1  H2  O   H1  H2  
O   H1  H2  O   H1  H2  O   H1  H2  O   H1  H2  O   H1  H2  O   H1  H2  O   H1  
H2  O   H1  H2  O   H1  H2  O   H1  H2  O   H1  H2  O   H1  H2  O   H1  H2  O   
H1  H2  O   H1  H2  O   H1  H2  O   H1  H2  O   H1  H2  O   H1  H2  O   H1  H2  
O   H1  H2  O   H1  H2  O   H1  H2  O   H1  H2  O   H1  H2  O   H1  H2  O   H1  
H2  O   H1  H2  O   H1  H2  O   H1  H2  O   H1  H2  O   H1  H2  O   H1  H2  O   
H1  H2  O   H1  H2  O   H1  H2  O   H1  H2  O   H1  H2  O   H1  H2  O   H1  H2  
O   H1  H2  O   H1  H2  O   H1  H2  O   H1  H2  O   H1  H2  O   H1  H2  O   H1  
H2  O   H1  H2  O   H1  H2  O   H1  H2  O   H1  H2  O   H1  H2  O   H1  H2  O   
H1  H2  O   H1  H2  O   H1  H2  O   H1  H2  O   H1  H2  O   H1  H2  O   H1  H2  
O   H1  H2  O   H1  H2  O   H1  H2  O   H1  H2  O   H1  H2  O   H1  H2  O   H1  
H2  O   H1  H2  O   H1  H2  O   H1  H2  O   H1  H2  O   H1  H2  O   H1  H2  O   
H1  H2  O   H1  H2  O   H1  H2  O   H1  H2  O   H1  H2  O   H1  H2  O   H1  H2  
O   H1  H2  O   H1  H2  O   H1  H2  O   H1  H2  O   H1  H2  O   H1  H2  O   H1  
H2  O   H1  H2  O   H1  H2  O   H1  H2  O   H1  H2  O   H1  H2  O   H1  H2  O   
H1  H2  O   H1  H2  O   H1  H2  O   H1  H2  O   H1  H2  O   H1  H2  O   H1  H2  
O   H1  H2  O   H1  H2  O   H1  H2  O   H1  H2  O   H1  H2  O   H1  H2  O   H1  
H2  O   H1  H2  O   H1  H2  O   H1  H2  O   H1  H2  O   H1  H2  O   H1  H2  O   
H1  H2  O   H1  H2  O   H1  H2  O   H1  H2  O   H1  H2  O   H1  H2  O   H1  H2  
O   H1  H2  O   H1  H2  O   H1  H2  O   H1  H2  O   H1  H2  O   H1  H2  O   H1  
H2  O   H1  H2  O   H1  H2  O   H1  H2  O   H1  H2  O   H1  H2  O   H1  H2  O   
H1  H2  O   H1  H2  O   H1  H2  O   H1  H2  O   H1  H2  O   H1  H2  O   H1  H2  
O   H1  H2  O   H1  H2  O   H1  H2  O   H1  H2  O   H1  H2  O   H1  H2  O   H1  
H2  O   H1  H2  O   H1  H2  O   H1  H2  O   H1  H2  O   H1  H2  O   H1  H2  O   
H1  H2  O   H1  H2  O   H1  H2  O   H1  H2  O   H1  H2  O   H1  H2  O   H1  H2  
O   H1  H2  O   H1  H2  O   H1  H2  O   H1  H2  O   H1  H2  O   H1  H2  O   H1  
H2  O   H1  H2  O   H1  H2  O   H1  H2  O   H1  H2  O   H1  H2  O   H1  H2  O   
H1  H2  O   H1  H2  O   H1  H2  O   H1  H2  O   H1  H2  O   H1  H2  O   H1  H2  
O   H1  H2  O   H1  H2  O   H1  H2  O   H1  H2  O   H1  H2  O   H1  H2  O   H1  
H2  O   H1  H2  O   H1  H2  O   H1  H2  O   H1  H2  O   H1  H2  O   H1  H2  O   
H1  H2  O   H1  H2  O   H1  H2  O   H1  H2  O   H1  H2  O   H1  H2  O   H1  H2  
O   H1  H2  O   H1  H2  O   H1  H2  O   H1  H2  O   H1  H2  O   H1  H2  O   H1  
H2  O   H1  H2  O   H1  H2  O   H1  H2  O   H1  H2  O   H1  H2  O   H1  H2  O   
H1  H2  O   H1  H2  O   H1  H2  O   H1  H2  O   H1  H2  O   H1  H2  O   H1  H2  
O   H1  H2  O   H1  H2  O   H1  H2  O   H1  H2  O   H1  H2  O   H1  H2  O   H1  
H2  O   H1  H2  O   H1  H2  O   H1  H2  O   H1  H2  O   H1  H2  O   H1  H2  O   
H1  H2  O   H1  H2  O   H1  H2  O   H1  H2  O   H1  H2  O   H1  H2  O   H1  H2  
O   H1  H2  O   H1  H2  O   H1  H2  O   H1  H2  O   H1  H2  O   H1  H2  O   H1  
H2  O   H1  H2  O   H1  H2  O   H1  H2  O   H1  H2  O   H1  H2  O   H1  H2  O   
H1  H2  O   H1  H2  O   H1  H2  O   H1  H2  O   H1  H2  O   H1  H2  O   H1  H2  
O   H1  H2  O   H1  H2  O   H1  H2  O   H1  H2  O   H1  H2  O   H1  H2  O   H1  
H2  O   H1  H2  O   H1  H2  O   H1  H2  O   H1  H2  O   H1  H2  O   H1  H2  O   
H1  H2  O   H1  H2  O   H1  H2  O   H1  H2  O   H1  H2  O   H1  H2  O   H1  H2  
O   H1  H2  O   H1  H2  O   H1  H2  O   H1  H2  O   H1  H2  O   H1  H2  O   H1  
H2  O   H1  H2  O   H1  H2  O   H1  H2  O   H1  H2  O   H1  H2  O   H1  H2  O   
H1  H2  O   H1  H2  O   H1  H2  O   H1  H2  O   H1  H2  O   H1  H2  O   H1  H2  
O   H1  H2  O   H1  H2  O   H1  H2  O   H1  H2  O   H1  H2  O   H1  H2  O   H1  
H2  O   H1  H2  O   H1  H2  O   H1  H2  O   H1  H2  O   H1  H2  O   H1  H2  O   
H1  H2  O   H1  H2  O   H1  H2  O   H1  H2  O   H1  H2  O   H1  H2  O   H1  H2  
O   H1  H2  O   H1  H2  O   H1  H2  O   H1  H2  O   H1  H2  O   H1  H2  O   H1  
H2  O   H1  H2  O   H1  H2  O   H1  H2  O   H1  H2  O   H1  H2  O   H1  H2  O   
H1  H2  O   H1  H2  O   H1  H2  O   H1  H2  O   H1  H2  O   H1  H2  O   H1  H2  
O   H1  H2  O   H1  H2  O   H1  H2  O   H1  H2  O   H1  H2  O   H1  H2  O   H1  
H2  O   H1  H2  O   H1  H2  O   H1  H2  O   H1  H2  O   H1  H2  O   H1  H2  O   
H1  H2  O   H1  H2  O   H1  H2  O   H1  H2  O   H1  H2  O   H1  H2  O   H1  H2  
O   H1  H2  O   H1  H2  O   H1  H2  O   H1  H2  O   H1  H2  O   H1  H2  O   H1  
H2  O   H1  H2  O   H1  H2  O   H1  H2  O   H1  H2  O   H1  H2  O   H1  H2  O   
H1  H2  O   H1  H2  O   H1  H2  O   H1  H2  O   H1  H2  O   H1  H2  O   H1  H2  
O   H1  H2  O   H1  H2  O   H1  H2  O   H1  H2  O   H1  H2  O   H1  H2  O   H1  
H2  O   H1  H2  O   H1  H2  O   H1  H2  O   H1  H2  O   H1  H2  O   H1  H2  O   
H1  H2  O   H1  H2  O   H1  H2  O   H1  H2  O   H1  H2  O   H1  H2  O   H1  H2  
O   H1  H2  O   H1  H2  O   H1  H2  O   H1  H2  O   H1  H2  O   H1  H2  O   H1  
H2  O   H1  H2  O   H1  H2  O   H1  H2  O   H1  H2  O   H1  H2  O   H1  H2  O   
H1  H2  O   H1  H2  O   H1  H2  O   H1  H2  O   H1  H2  O   H1  H2  O   H1  H2  
O   H1  H2  O   H1  H2  O   H1  H2  O   H1  H2  O   H1  H2  O   H1  H2  O   H1  
H2  O   H1  H2  O   H1  H2  O   H1  H2  O   H1  H2  O   H1  H2  O   H1  H2  O   
H1  H2  O   H1  H2  O   H1  H2  O   H1  H2  O   H1  H2  O   H1  H2  O   H1  H2  
O   H1  H2  O   H1  H2  O   H1  H2  O   H1  H2  O   H1  H2  O   H1  H2  O   H1  
H2  O   H1  H2  O   H1  H2  O   H1  H2  O   H1  H2  O   H1  H2  O   H1  H2  O   
H1  H2  O   H1  H2  O   H1  H2  O   H1  H2  O   H1  H2  O   H1  H2  O   H1  H2  
O   H1  H2  O   H1  H2  O   H1  H2  O   H1  H2  O   H1  H2  O   H1  H2  O   H1  
H2  O   H1  H2  O   H1  H2  O   H1  H2  O   H1  H2  O   H1  H2  O   H1  H2  O   
H1  H2  O   H1  H2  O   H1  H2  O   H1  H2  O   H1  H2  O   H1  H2  O   H1  H2  
O   H1  H2  O   H1  H2  O   H1  H2  O   H1  H2  O   H1  H2  O   H1  H2  O   H1  
H2  O   H1  H2  O   H1  H2  O   H1  H2  O   H1  H2  O   H1  H2  O   H1  H2  O   
H1  H2  O   H1  H2  O   H1  H2  O   H1  H2  O   H1  H2  O   H1  H2  O   H1  H2  
O   H1  H2  O   H1  H2  O   H1  H2  O   H1  H2  O   H1  H2  O   H1  H2  O   H1  
H2  O   H1  H2  O   H1  H2  O   H1  H2  O   H1  H2  O   H1  H2  O   H1  H2  O   
H1  H2  O   H1  H2  O   H1  H2  O   H1  H2  O   H1  H2  O   H1  H2  O   H1  H2  
O   H1  H2  O   H1  H2  O   H1  H2  O   H1  H2  O   H1  H2  O   H1  H2  O   H1  
H2  O   H1  H2  O   H1  H2  O   H1  H2  O   H1  H2  O   H1  H2  O   H1  H2  O   
H1  H2  O   H1  H2  O   H1  H2  O   H1  H2  O   H1  H2  O   H1  H2  O   H1  H2  
O   H1  H2  O   H1  H2  O   H1  H2  O   H1  H2  O   H1  H2  O   H1  H2  O   H1  
H2  O   H1  H2  O   H1  H2  O   H1  H2  O   H1  H2  O   H1  H2  O   H1  H2  O   
H1  H2  O   H1  H2  O   H1  H2  O   H1  H2  O   H1  H2  O   H1  H2  O   H1  H2  
O   H1  H2  O   H1  H2  O   H1  H2  O   H1  H2  O   H1  H2  O   H1  H2  O   H1  
H2  O   H1  H2  O   H1  H2  O   H1  H2  O   H1  H2  O   H1  H2  O   H1  H2  O   
H1  H2  O   H1  H2  O   H1  H2  O   H1  H2  O   H1  H2  O   H1  H2  O   H1  H2  
O   H1  H2  O   H1  H2  O   H1  H2  O   H1  H2  O   H1  H2  O   H1  H2  O   H1  
H2  O   H1  H2  O   H1  H2  O   H1  H2  O   H1  H2  O   H1  H2  O   H1  H2  O   
H1  H2  O   H1  H2  O   H1  H2  O   H1  H2  O   H1  H2  O   H1  H2  O   H1  H2  
O   H1  H2  O   H1  H2  O   H1  H2  O   H1  H2  O   H1  H2  O   H1  H2  O   H1  
H2  O   H1  H2  O   H1  H2  O   H1  H2  O   H1  H2  O   H1  H2  O   H1  H2  O   
H1  H2  O   H1  H2  O   H1  H2  O   H1  H2  O   H1  H2  O   H1  H2  O   H1  H2  
O   H1  H2  O   H1  H2  O   H1  H2  O   H1  H2  O   H1  H2  O   H1  H2  O   H1  
H2  O   H1  H2  O   H1  H2  O   H1  H2  O   H1  H2  O   H1  H2  O   H1  H2  O   
H1  H2  O   H1  H2  O   H1  H2  O   H1  H2  O   H1  H2  O   H1  H2  O   H1  H2  
O   H1  H2  O   H1  H2  O   H1  H2  O   H1  H2  O   H1  H2  O   H1  H2  O   H1  
H2  O   H1  H2  O   H1  H2  O   H1  H2  O   H1  H2  O   H1  H2  O   H1  H2  O   
H1  H2  O   H1  H2  O   H1  H2  O   H1  H2  O   H1  H2  O   H1  H2  O   H1  H2  
O   H1  H2  O   H1  H2  O   H1  H2  O   H1  H2  O   H1  H2  O   H1  H2  O   H1  
H2  O   H1  H2  O   H1  H2  O   H1  H2  O   H1  H2  O   H1  H2  O   H1  H2  O   
H1  H2  O   H1  H2  O   H1  H2  O   H1  H2  O   H1  H2  O   H1  H2  O   H1  H2  
O   H1  H2  O   H1  H2  O   H1  H2  O   H1  H2  O   H1  H2  O   H1  H2  O   H1  
H2  O   H1  H2  O   H1  H2  O   H1  H2  O   H1  H2  O   H1  H2  O   H1  H2  O   
H1  H2  O   H1  H2  O   H1  H2  O   H1  H2  O   H1  H2  O   H1  H2  O   H1  H2  
O   H1  H2  O   H1  H2  O   H1  H2  O   H1  H2  O   H1  H2  O   H1  H2  O   H1  
H2  O   H1  H2  O   H1  H2  O   H1  H2  O   H1  H2  O   H1  H2  O   H1  H2  O   
H1  H2  O   H1  H2  O   H1  H2  O   H1  H2  O   H1  H2  O   H1  H2  O   H1  H2  
O   H1  H2  O   H1  H2  O   H1  H2  O   H1  H2  O   H1  H2  O   H1  H2  O   H1  
H2  O   H1  H2  O   H1  H2  O   H1  H2  O   H1  H2  O   H1  H2  O   H1  H2  O   
H1  H2  O   H1  H2  O   H1  H2  O   H1  H2  O   H1  H2  O   H1  H2  O   H1  H2  
O   H1  H2  O   H1  H2  O   H1  H2  O   H1  H2  O   H1  H2  O   H1  H2  O   H1  
H2  O   H1  H2  O   H1  H2  O   H1  H2  O   H1  H2  O   H1  H2  O   H1  H2  O   
H1  H2  O   H1  H2  O   H1  H2  O   H1  H2  O   H1  H2  O   H1  H2  O   H1  H2  
O   H1  H2  O   H1  H2  O   H1  H2  O   H1  H2  O   H1  H2  O   H1  H2  O   H1  
H2  O   H1  H2  O   H1  H2  O   H1  H2  O   H1  H2  O   H1  H2  O   H1  H2  O   
H1  H2  O   H1  H2  O   H1  H2  O   H1  H2  O   H1  H2  O   H1  H2  O   H1  H2  
O   H1  H2  O   H1  H2  O   H1  H2  O   H1  H2  O   H1  H2  O   H1  H2  O   H1  
H2  O   H1  H2  O   H1  H2  O   H1  H2  O   H1  H2  O   H1  H2  O   H1  H2  O   
H1  H2  O   H1  H2  O   H1  H2  O   H1  H2  O   H1  H2  O   H1  H2  O   H1  H2  
O   H1  H2  O   H1  H2  O   H1  H2  O   H1  H2  O   H1  H2  O   H1  H2  O   H1  
H2  O   H1  H2  O   H1  H2  O   H1  H2  O   H1  H2  O   H1  H2  O   H1  H2  O   
H1  H2  O   H1  H2  O   H1  H2  O   H1  H2  O   H1  H2  O   H1  H2  O   H1  H2  
O   H1  H2  O   H1  H2  O   H1  H2  O   H1  H2  O   H1  H2  O   H1  H2  O   H1  
H2  O   H1  H2  O   H1  H2  O   H1  H2  O   H1  H2  O   H1  H2  O   H1  H2  O   
H1  H2  O   H1  H2  O   H1  H2  O   H1  H2  O   H1  H2  O   H1  H2  O   H1  H2  
O   H1  H2  O   H1  H2  O   H1  H2  O   H1  H2  O   H1  H2  O   H1  H2  O   H1  
H2  O   H1  H2  O   H1  H2  O   H1  H2  O   H1  H2  O   H1  H2  O   H1  H2  O   
H1  H2  O   H1  H2  O   H1  H2  O   H1  H2  O   H1  H2  O   H1  H2  O   H1  H2  
O   H1  H2  O   H1  H2  O   H1  H2  O   H1  H2  O   H1  H2  O   H1  H2  O   H1  
H2  O   H1  H2  O   H1  H2  O   H1  H2  O   H1  H2  O   H1  H2  O   H1  H2  O   
H1  H2  O   H1  H2  O   H1  H2  O   H1  H2  O   H1  H2  O   H1  H2  O   H1  H2  
O   H1  H2  O   H1  H2  O   H1  H2  O   H1  H2  O   H1  H2  O   H1  H2  O   H1  
H2  O   H1  H2  O   H1  H2  O   H1  H2  O   H1  H2  O   H1  H2  O   H1  H2  O   
H1  H2  O   H1  H2  O   H1  H2  O   H1  H2  O   H1  H2  O   H1  H2  O   H1  H2  
O   H1  H2  O   H1  H2  O   H1  H2  O   H1  H2  O   H1  H2  O   H1  H2  O   H1  
H2  O   H1  H2  O   H1  H2  O   H1  H2  O   H1  H2  O   H1  H2  O   H1  H2  O   
H1  H2  O   H1  H2  O   H1  H2  O   H1  H2  O   H1  H2  O   H1  H2  O   H1  H2  
O   H1  H2  O   H1  H2  O   H1  H2  O   H1  H2  O   H1  H2  O   H1  H2  O   H1  
H2  O   H1  H2  O   H1  H2  O   H1  H2  O   H1  H2  O   H1  H2  O   H1  H2  O   
H1  H2  O   H1  H2  O   H1  H2  O   H1  H2  O   H1  H2  O   H1  H2  O   H1  H2  
O   H1  H2  O   H1  H2  O   H1  H2  O   H1  H2  O   H1  H2  O   H1  H2  O   H1  
H2  O   H1  H2  O   H1  H2  O   H1  H2  O   H1  H2  O   H1  H2  O   H1  H2  O   
H1  H2  O   H1  H2  O   H1  H2  O   H1  H2  O   H1  H2  O   H1  H2  O   H1  H2  
O   H1  H2  O   H1  H2  O   H1  H2  O   H1  H2  O   H1  H2  O   H1  H2  O   H1  
H2  O   H1  H2  O   H1  H2  O   H1  H2  O   H1  H2  O   H1  H2  O   H1  H2  O   
H1  H2  O   H1  H2  O   H1  H2  O   H1  H2  O   H1  H2  O   H1  H2  O   H1  H2  
O   H1  H2  O   H1  H2  O   H1  H2  O   H1  H2  O   H1  H2  O   H1  H2  O   H1  
H2  O   H1  H2  O   H1  H2  O   H1  H2  O   H1  H2  O   H1  H2  O   H1  H2  O   
H1  H2  O   H1  H2  O   H1  H2  O   H1  H2  O   H1  H2  O   H1  H2  O   H1  H2  
O   H1  H2  O   H1  H2  O   H1  H2  O   H1  H2  O   H1  H2  O   H1  H2  O   H1  
H2  O   H1  H2  O   H1  H2  O   H1  H2  O   H1  H2  O   H1  H2  O   H1  H2  O   
H1  H2  O   H1  H2  O   H1  H2  O   H1  H2  O   H1  H2  O   H1  H2  O   H1  H2  
O   H1  H2  O   H1  H2  O   H1  H2  O   H1  H2  O   H1  H2  O   H1  H2  O   H1  
H2  O   H1  H2  O   H1  H2  O   H1  H2  O   H1  H2  O   H1  H2  O   H1  H2  O   
H1  H2  O   H1  H2  O   H1  H2  O   H1  H2  O   H1  H2  O   H1  H2  O   H1  H2  
O   H1  H2  O   H1  H2  O   H1  H2  O   H1  H2  O   H1  H2  O   H1  H2  O   H1  
H2  O   H1  H2  O   H1  H2  O   H1  H2  O   H1  H2  O   H1  H2  O   H1  H2  O   
H1  H2  O   H1  H2  O   H1  H2  O   H1  H2  O   H1  H2  O   H1  H2  O   H1  H2  
O   H1  H2  O   H1  H2  O   H1  H2  O   H1  H2  O   H1  H2  O   H1  H2  O   H1  
H2  O   H1  H2  O   H1  H2  O   H1  H2  O   H1  H2  O   H1  H2  O   H1  H2  O   
H1  H2  O   H1  H2  O   H1  H2  O   H1  H2  O   H1  H2  O   H1  H2  O   H1  H2  
O   H1  H2  O   H1  H2  O   H1  H2  O   H1  H2  O   H1  H2  O   H1  H2  O   H1  
H2  O   H1  H2  O   H1  H2  O   H1  H2  O   H1  H2  O   H1  H2  O   H1  H2  O   
H1  H2  O   H1  H2  O   H1  H2  O   H1  H2  O   H1  H2  O   H1  H2  O   H1  H2  
O   H1  H2  O   H1  H2  O   H1  H2  O   H1  H2  O   H1  H2  O   H1  H2  O   H1  
H2  O   H1  H2  O   H1  H2  O   H1  H2  O   H1  H2  O   H1  H2  O   H1  H2  O   
H1  H2  O   H1  H2  O   H1  H2  O   H1  H2  O   H1  H2  O   H1  H2  O   H1  H2  
O   H1  H2  O   H1  H2  O   H1  H2  O   H1  H2  O   H1  H2  O   H1  H2  O   H1  
H2  O   H1  H2  O   H1  H2  O   H1  H2  O   H1  H2  O   H1  H2  O   H1  H2  O   
H1  H2  O   H1  H2  O   H1  H2  O   H1  H2  O   H1  H2  O   H1  H2  O   H1  H2  
O   H1  H2  O   H1  H2  O   H1  H2  O   H1  H2  O   H1  H2  O   H1  H2  O   H1  
H2  O   H1  H2  O   H1  H2  O   H1  H2  O   H1  H2  O   H1  H2  O   H1  H2  O   
H1  H2  O   H1  H2  O   H1  H2  O   H1  H2  O   H1  H2  O   H1  H2  O   H1  H2  
O   H1  H2  O   H1  H2  O   H1  H2  O   H1  H2  O   H1  H2  O   H1  H2  O   H1  
H2  O   H1  H2  O   H1  H2  O   H1  H2  O   H1  H2  O   H1  H2  O   H1  H2  O   
H1  H2  O   H1  H2  O   H1  H2  O   H1  H2  O   H1  H2  O   H1  H2  O   H1  H2  
O   H1  H2  O   H1  H2  O   H1  H2  O   H1  H2  O   H1  H2  O   H1  H2  O   H1  
H2  O   H1  H2  O   H1  H2  O   H1  H2  O   H1  H2  O   H1  H2  O   H1  H2  O   
H1  H2  O   H1  H2  O   H1  H2  O   H1  H2  O   H1  H2  O   H1  H2  O   H1  H2  
O   H1  H2  O   H1  H2  O   H1  H2  O   H1  H2  O   H1  H2  O   H1  H2  O   H1  
H2  O   H1  H2  O   H1  H2  O   H1  H2  O   H1  H2  O   H1  H2  O   H1  H2  O   
H1  H2  O   H1  H2  O   H1  H2  O   H1  H2  O   H1  H2  O   H1  H2  O   H1  H2  
O   H1  H2  O   H1  H2  O   H1  H2  O   H1  H2  O   H1  H2  O   H1  H2  O   H1  
H2  O   H1  H2  O   H1  H2  O   H1  H2  O   H1  H2  O   H1  H2  O   H1  H2  O   
H1  H2  O   H1  H2  O   H1  H2  O   H1  H2  O   H1  H2  O   H1  H2  O   H1  H2  
O   H1  H2  O   H1  H2  O   H1  H2  O   H1  H2  O   H1  H2  O   H1  H2  O   H1  
H2  O   H1  H2  O   H1  H2  O   H1  H2  O   H1  H2  O   H1  H2  O   H1  H2  O   
H1  H2  O   H1  H2  O   H1  H2  O   H1  H2  O   H1  H2  O   H1  H2  O   H1  H2  
O   H1  H2  O   H1  H2  O   H1  H2  O   H1  H2  O   H1  H2  O   H1  H2  O   H1  
H2  O   H1  H2  O   H1  H2  O   H1  H2  O   H1  H2  O   H1  H2  O   H1  H2  O   
H1  H2  O   H1  H2  O   H1  H2  O   H1  H2  O   H1  H2  O   H1  H2  O   H1  H2  
O   H1  H2  O   H1  H2  O   H1  H2  O   H1  H2  O   H1  H2  O   H1  H2  O   H1  
H2  O   H1  H2  O   H1  H2  O   H1  H2  O   H1  H2  O   H1  H2  O   H1  H2  O   
H1  H2  O   H1  H2  O   H1  H2  O   H1  H2  O   H1  H2  O   H1  H2  O   H1  H2  
O   H1  H2  O   H1  H2  O   H1  H2  O   H1  H2  O   H1  H2  O   H1  H2  O   H1  
H2  O   H1  H2  O   H1  H2  O   H1  H2  O   H1  H2  O   H1  H2  O   H1  H2  O   
H1  H2  O   H1  H2  O   H1  H2  O   H1  H2  O   H1  H2  O   H1  H2  O   H1  H2  
O   H1  H2  O   H1  H2  O   H1  H2  O   H1  H2  O   H1  H2  O   H1  H2  O   H1  
H2  O   H1  H2  O   H1  H2  O   H1  H2  O   H1  H2  O   H1  H2  O   H1  H2  O   
H1  H2  O   H1  H2  O   H1  H2  O   H1  H2  O   H1  H2  O   H1  H2  O   H1  H2  
O   H1  H2  O   H1  H2  O   H1  H2  O   H1  H2  O   H1  H2  O   H1  H2  O   H1  
H2  O   H1  H2  O   H1  H2  O   H1  H2  O   H1  H2  O   H1  H2  O   H1  H2  O   
H1  H2  O   H1  H2  O   H1  H2  O   H1  H2  O   H1  H2  O   H1  H2  O   H1  H2  
O   H1  H2  O   H1  H2  O   H1  H2  O   H1  H2  O   H1  H2  O   H1  H2  O   H1  
H2  O   H1  H2  O   H1  H2  O   H1  H2  O   H1  H2  O   H1  H2  O   H1  H2  O   
H1  H2  O   H1  H2  O   H1  H2  O   H1  H2  O   H1  H2  O   H1  H2  O   H1  H2  
O   H1  H2  O   H1  H2  O   H1  H2  O   H1  H2  O   H1  H2  O   H1  H2  O   H1  
H2  O   H1  H2  O   H1  H2  O   H1  H2  O   H1  H2  O   H1  H2  O   H1  H2  O   
H1  H2  O   H1  H2  O   H1  H2  O   H1  H2  O   H1  H2  O   H1  H2  O   H1  H2  
O   H1  H2  O   H1  H2  O   H1  H2  O   H1  H2  O   H1  H2  O   H1  H2  O   H1  
H2  O   H1  H2  O   H1  H2  O   H1  H2  O   H1  H2  O   H1  H2  O   H1  H2  O   
H1  H2  O   H1  H2  O   H1  H2  O   H1  H2  O   H1  H2  O   H1  H2  O   H1  H2  
O   H1  H2  O   H1  H2  O   H1  H2  O   H1  H2  O   H1  H2  O   H1  H2  O   H1  
H2  O   H1  H2  O   H1  H2  O   H1  H2  O   H1  H2  O   H1  H2  O   H1  H2  O   
H1  H2  O   H1  H2  O   H1  H2  O   H1  H2  O   H1  H2  O   H1  H2  O   H1  H2  
O   H1  H2  O   H1  H2  O   H1  H2  O   H1  H2  O   H1  H2  O   H1  H2  O   H1  
H2  O   H1  H2  O   H1  H2  O   H1  H2  O   H1  H2  O   H1  H2  O   H1  H2  O   
H1  H2  O   H1  H2  O   H1  H2  O   H1  H2  O   H1  H2  O   H1  H2  O   H1  H2  
O   H1  H2  O   H1  H2  O   H1  H2  O   H1  H2  O   H1  H2  O   H1  H2  O   H1  
H2  O   H1  H2  O   H1  H2  O   H1  H2  O   H1  H2  O   H1  H2  O   H1  H2  O   
H1  H2  O   H1  H2  O   H1  H2  O   H1  H2  O   H1  H2  O   H1  H2  O   H1  H2  
O   H1  H2  O   H1  H2  O   H1  H2  O   H1  H2  O   H1  H2  O   H1  H2  O   H1  
H2  O   H1  H2  O   H1  H2  O   H1  H2  O   H1  H2  O   H1  H2  O   H1  H2  O   
H1  H2  O   H1  H2  O   H1  H2  O   H1  H2  O   H1  H2  O   H1  H2  O   H1  H2  
O   H1  H2  O   H1  H2  O   H1  H2  O   H1  H2  O   H1  H2  O   H1  H2  O   H1  
H2  O   H1  H2  O   H1  H2  O   H1  H2  O   H1  H2  O   H1  H2  O   H1  H2  O   
H1  H2  O   H1  H2  O   H1  H2  O   H1  H2  O   H1  H2  O   H1  H2  O   H1  H2  
O   H1  H2  O   H1  H2  O   H1  H2  O   H1  H2  O   H1  H2  O   H1  H2  O   H1  
H2  O   H1  H2  O   H1  H2  O   H1  H2  O   H1  H2  O   H1  H2  O   H1  H2  O   
H1  H2  O   H1  H2  O   H1  H2  O   H1  H2  O   H1  H2  O   H1  H2  O   H1  H2  
O   H1  H2  O   H1  H2  O   H1  H2  O   H1  H2  O   H1  H2  O   H1  H2  O   H1  
H2  O   H1  H2  O   H1  H2  O   H1  H2  O   H1  H2  O   H1  H2  O   H1  H2  O   
H1  H2  O   H1  H2  O   H1  H2  O   H1  H2  O   H1  H2  O   H1  H2  O   H1  H2  
O   H1  H2  O   H1  H2  O   H1  H2  O   H1  H2  O   H1  H2  O   H1  H2  O   H1  
H2  O   H1  H2  O   H1  H2  O   H1  H2  O   H1  H2  O   H1  H2  O   H1  H2  O   
H1  H2  O   H1  H2  O   H1  H2  O   H1  H2  O   H1  H2  O   H1  H2  O   H1  H2  
O   H1  H2  O   H1  H2  O   H1  H2  O   H1  H2  O   H1  H2  O   H1  H2  O   H1  
H2  O   H1  H2  O   H1  H2  O   H1  H2  O   H1  H2  O   H1  H2  O   H1  H2  O   
H1  H2  O   H1  H2  O   H1  H2  O   H1  H2  O   H1  H2  O   H1  H2  O   H1  H2  
O   H1  H2  O   H1  H2  O   H1  H2  O   H1  H2  O   H1  H2  O   H1  H2  O   H1  
H2  O   H1  H2  O   H1  H2  O   H1  H2  O   H1  H2  O   H1  H2  O   H1  H2  O   
H1  H2  O   H1  H2  O   H1  H2  O   H1  H2  O   H1  H2  O   H1  H2  O   H1  H2  
O   H1  H2  O   H1  H2  O   H1  H2  O   H1  H2  O   H1  H2  O   H1  H2  O   H1  
H2  O   H1  H2  O   H1  H2  O   H1  H2  O   H1  H2  O   H1  H2  O   H1  H2  O   
H1  H2  O   H1  H2  O   H1  H2  O   H1  H2  O   H1  H2  O   H1  H2  O   H1  H2  
O   H1  H2  O   H1  H2  O   H1  H2  O   H1  H2  O   H1  H2  O   H1  H2  O   H1  
H2  O   H1  H2  O   H1  H2  O   H1  H2  O   H1  H2  O   H1  H2  O   H1  H2  O   
H1  H2  O   H1  H2  O   H1  H2  O   H1  H2  O   H1  H2  O   H1  H2  O   H1  H2  
O   H1  H2  O   H1  H2  O   H1  H2  O   H1  H2  O   H1  H2  O   H1  H2  O   H1  
H2  O   H1  H2  O   H1  H2  O   H1  H2  O   H1  H2  O   H1  H2  O   H1  H2  O   
H1  H2  O   H1  H2  O   H1  H2  O   H1  H2  O   H1  H2  O   H1  H2  O   H1  H2  
O   H1  H2  O   H1  H2  O   H1  H2  O   H1  H2  O   H1  H2  O   H1  H2  O   H1  
H2  O   H1  H2  O   H1  H2  O   H1  H2  O   H1  H2  O   H1  H2  O   H1  H2  O   
H1  H2  O   H1  H2  O   H1  H2  O   H1  H2  O   H1  H2  O   H1  H2  O   H1  H2  
O   H1  H2  O   H1  H2  O   H1  H2  O   H1  H2  O   H1  H2  O   H1  H2  O   H1  
H2  O   H1  H2  O   H1  H2  O   H1  H2  O   H1  H2  O   H1  H2  O   H1  H2  O   
H1  H2  O   H1  H2  O   H1  H2  O   H1  H2  O   H1  H2  O   H1  H2  O   H1  H2  
O   H1  H2  O   H1  H2  O   H1  H2  O   H1  H2  O   H1  H2  O   H1  H2  O   H1  
H2  O   H1  H2  O   H1  H2  O   H1  H2  O   H1  H2  O   H1  H2  O   H1  H2  O   
H1  H2  O   H1  H2  O   H1  H2  O   H1  H2  O   H1  H2  O   H1  H2  O   H1  H2  
O   H1  H2  O   H1  H2  O   H1  H2  O   H1  H2  O   H1  H2  O   H1  H2  O   H1  
H2  O   H1  H2  O   H1  H2  O   H1  H2  O   H1  H2  O   H1  H2  O   H1  H2  O   
H1  H2  O   H1  H2  O   H1  H2  O   H1  H2  O   H1  H2  O   H1  H2  O   H1  H2  
O   H1  H2  O   H1  H2  O   H1  H2  O   H1  H2  O   H1  H2  O   H1  H2  O   H1  
H2  O   H1  H2  O   H1  H2  O   H1  H2  O   H1  H2  O   H1  H2  O   H1  H2  O   
H1  H2  O   H1  H2  O   H1  H2  O   H1  H2  O   H1  H2  O   H1  H2  O   H1  H2  
O   H1  H2  O   H1  H2  O   H1  H2  O   H1  H2  O   H1  H2  O   H1  H2  O   H1  
H2  O   H1  H2  O   H1  H2  O   H1  H2  O   H1  H2  O   H1  H2  O   H1  H2  O   
H1  H2  O   H1  H2  O   H1  H2  O   H1  H2  O   H1  H2  O   H1  H2  O   H1  H2  
O   H1  H2  O   H1  H2  O   H1  H2  O   H1  H2  O   H1  H2  O   H1  H2  O   H1  
H2  O   H1  H2  O   H1  H2  O   H1  H2  O   H1  H2  O   H1  H2  O   H1  H2  O   
H1  H2  O   H1  H2  O   H1  H2  O   H1  H2  O   H1  H2  O   H1  H2  O   H1  H2  
O   H1  H2  O   H1  H2  O   H1  H2  O   H1  H2  O   H1  H2  O   H1  H2  O   H1  
H2  O   H1  H2  O   H1  H2  O   H1  H2  O   H1  H2  O   H1  H2  O   H1  H2  O   
H1  H2  O   H1  H2  O   H1  H2  O   H1  H2  O   H1  H2  O   H1  H2  O   H1  H2  
O   H1  H2  O   H1  H2  O   H1  H2  O   H1  H2  O   H1  H2  O   H1  H2  O   H1  
H2  O   H1  H2  O   H1  H2  O   H1  H2  O   H1  H2  O   H1  H2  O   H1  H2  O   
H1  H2  O   H1  H2  O   H1  H2  O   H1  H2  O   H1  H2  O   H1  H2  O   H1  H2  
O   H1  H2  O   H1  H2  O   H1  H2  O   H1  H2  O   H1  H2  O   H1  H2  O   H1  
H2  O   H1  H2  O   H1  H2  O   H1  H2  O   H1  H2  O   H1  H2  O   H1  H2  O   
H1  H2  O   H1  H2  O   H1  H2  O   H1  H2  O   H1  H2  O   H1  H2  O   H1  H2  
O   H1  H2  O   H1  H2  O   H1  H2  O   H1  H2  O   H1  H2  O   H1  H2  O   H1  
H2  O   H1  H2  O   H1  H2  O   H1  H2  O   H1  H2  O   H1  H2  O   H1  H2  O   
H1  H2  O   H1  H2  O   H1  H2  O   H1  H2  O   H1  H2  O   H1  H2  O   H1  H2  
O   H1  H2  O   H1  H2  O   H1  H2  O   H1  H2  O   H1  H2  O   H1  H2  O   H1  
H2  O   H1  H2  O   H1  H2  O   H1  H2  O   H1  H2  O   H1  H2  O   H1  H2  O   
H1  H2  O   H1  H2  O   H1  H2  O   H1  H2  O   H1  H2  O   H1  H2  O   H1  H2  
O   H1  H2  O   H1  H2  O   H1  H2  O   H1  H2  O   H1  H2  O   H1  H2  O   H1  
H2  O   H1  H2  O   H1  H2  O   H1  H2  O   H1  H2  O   H1  H2  O   H1  H2  O   
H1  H2  O   H1  H2  O   H1  H2  O   H1  H2  O   H1  H2  O   H1  H2  O   H1  H2  
O   H1  H2  O   H1  H2  O   H1  H2  O   H1  H2  O   H1  H2  O   H1  H2  O   H1  
H2  O   H1  H2  O   H1  H2  O   H1  H2  O   H1  H2  O   H1  H2  O   H1  H2  O   
H1  H2  O   H1  H2  O   H1  H2  O   H1  H2  O   H1  H2  O   H1  H2  O   H1  H2  
O   H1  H2  O   H1  H2  O   H1  H2  O   H1  H2  O   H1  H2  O   H1  H2  O   H1  
H2  O   H1  H2  O   H1  H2  O   H1  H2  O   H1  H2  O   H1  H2  O   H1  H2  O   
H1  H2  O   H1  H2  O   H1  H2  O   H1  H2  O   H1  H2  O   H1  H2  O   H1  H2  
O   H1  H2  O   H1  H2  O   H1  H2  O   H1  H2  O   H1  H2  O   H1  H2  O   H1  
H2  O   H1  H2  O   H1  H2  O   H1  H2  O   H1  H2  O   H1  H2  O   H1  H2  O   
H1  H2  O   H1  H2  O   H1  H2  O   H1  H2  O   H1  H2  O   H1  H2  O   H1  H2  
O   H1  H2  O   H1  H2  O   H1  H2  O   H1  H2  O   H1  H2  O   H1  H2  O   H1  
H2  O   H1  H2  O   H1  H2  O   H1  H2  O   H1  H2  O   H1  H2  O   H1  H2  O   
H1  H2  O   H1  H2  O   H1  H2  O   H1  H2  O   H1  H2  O   H1  H2  O   H1  H2  
O   H1  H2  O   H1  H2  O   H1  H2  O   H1  H2  O   H1  H2  O   H1  H2  O   H1  
H2  O   H1  H2  O   H1  H2  O   H1  H2  O   H1  H2  O   H1  H2  O   H1  H2  O   
H1  H2  O   H1  H2  O   H1  H2  O   H1  H2  O   H1  H2  O   H1  H2  O   H1  H2  
O   H1  H2  O   H1  H2  O   H1  H2  O   H1  H2  O   H1  H2  O   H1  H2  O   H1  
H2  O   H1  H2  O   H1  H2  O   H1  H2  O   H1  H2  O   H1  H2  O   H1  H2  O   
H1  H2  O   H1  H2  O   H1  H2  O   H1  H2  O   H1  H2  O   H1  H2  O   H1  H2  
O   H1  H2  O   H1  H2  O   H1  H2  O   H1  H2  O   H1  H2  O   H1  H2  O   H1  
H2  O   H1  H2  O   H1  H2  O   H1  H2  O   H1  H2  O   H1  H2  O   H1  H2  O   
H1  H2  O   H1  H2  O   H1  H2  O   H1  H2  O   H1  H2  O   H1  H2  O   H1  H2  
O   H1  H2  O   H1  H2  O   H1  H2  O   H1  H2  O   H1  H2  O   H1  H2  O   H1  
H2  O   H1  H2  O   H1  H2  O   H1  H2  O   H1  H2  O   H1  H2  O   H1  H2  O   
H1  H2  O   H1  H2  O   H1  H2  O   H1  H2  O   H1  H2  O   H1  H2  O   H1  H2  
O   H1  H2  O   H1  H2  O   H1  H2  O   H1  H2  O   H1  H2  O   H1  H2  O   H1  
H2  O   H1  H2  O   H1  H2  O   H1  H2  O   H1  H2  O   H1  H2  O   H1  H2  O   
H1  H2  O   H1  H2  O   H1  H2  O   H1  H2  O   H1  H2  O   H1  H2  O   H1  H2  
O   H1  H2  O   H1  H2  O   H1  H2  O   H1  H2  O   H1  H2  O   H1  H2  O   H1  
H2  O   H1  H2  O   H1  H2  O   H1  H2  O   H1  H2  O   H1  H2  O   H1  H2  O   
H1  H2  O   H1  H2  O   H1  H2  O   H1  H2  O   H1  H2  O   H1  H2  O   H1  H2  
O   H1  H2  O   H1  H2  O   H1  H2  O   H1  H2  O   H1  H2  O   H1  H2  O   H1  
H2  O   H1  H2  O   H1  H2  O   H1  H2  O   H1  H2  O   H1  H2  O   H1  H2  O   
H1  H2  O   H1  H2  O   H1  H2  O   H1  H2  O   H1  H2  O   H1  H2  O   H1  H2  
O   H1  H2  O   H1  H2  O   H1  H2  O   H1  H2  O   H1  H2  O   H1  H2  O   H1  
H2  O   H1  H2  O   H1  H2  O   H1  H2  O   H1  H2  O   H1  H2  O   H1  H2  O   
H1  H2  O   H1  H2  O   H1  H2  O   H1  H2  O   H1  H2  O   H1  H2  O   H1  H2  
O   H1  H2  O   H1  H2  O   H1  H2  O   H1  H2  O   H1  H2  O   H1  H2  O   H1  
H2  O   H1  H2  O   H1  H2  O   H1  H2  O   H1  H2  O   H1  H2  O   H1  H2  O   
H1  H2  O   H1  H2  O   H1  H2  O   H1  H2  O   H1  H2  O   H1  H2  O   H1  H2  
O   H1  H2  O   H1  H2  O   H1  H2  O   H1  H2  O   H1  H2  O   H1  H2  O   H1  
H2  O   H1  H2  O   H1  H2  O   H1  H2  O   H1  H2  O   H1  H2  O   H1  H2  O   
H1  H2  O   H1  H2  O   H1  H2  O   H1  H2  O   H1  H2  O   H1  H2  O   H1  H2  
O   H1  H2  O   H1  H2  O   H1  H2  O   H1  H2  O   H1  H2  O   H1  H2  O   H1  
H2  O   H1  H2  O   H1  H2  O   H1  H2  O   H1  H2  O   H1  H2  O   H1  H2  O   
H1  H2  O   H1  H2  O   H1  H2  O   H1  H2  O   H1  H2  O   H1  H2  O   H1  H2  
O   H1  H2  O   H1  H2  O   H1  H2  O   H1  H2  O   H1  H2  O   H1  H2  O   H1  
H2  O   H1  H2  O   H1  H2  O   H1  H2  O   H1  H2  O   H1  H2  O   H1  H2  O   
H1  H2  O   H1  H2  O   H1  H2  O   H1  H2  O   H1  H2  O   H1  H2  O   H1  H2  
O   H1  H2  O   H1  H2  O   H1  H2  O   H1  H2  O   H1  H2  O   H1  H2  O   H1  
H2  O   H1  H2  O   H1  H2  O   H1  H2  O   H1  H2  O   H1  H2  O   H1  H2  O   
H1  H2  O   H1  H2  O   H1  H2  O   H1  H2  O   H1  H2  O   H1  H2  O   H1  H2  
O   H1  H2  O   H1  H2  O   H1  H2  O   H1  H2  O   H1  H2  O   H1  H2  O   H1  
H2  O   H1  H2  O   H1  H2  O   H1  H2  O   H1  H2  O   H1  H2  O   H1  H2  O   
H1  H2  O   H1  H2  O   H1  H2  O   H1  H2  O   H1  H2  O   H1  H2  O   H1  H2  
O   H1  H2  O   H1  H2  O   H1  H2  O   H1  H2  O   H1  H2  O   H1  H2  O   H1  
H2  O   H1  H2  O   H1  H2  O   H1  H2  O   H1  H2  O   H1  H2  O   H1  H2  O   
H1  H2  O   H1  H2  O   H1  H2  O   H1  H2  O   H1  H2  O   H1  H2  O   H1  H2  
O   H1  H2  O   H1  H2  O   H1  H2  O   H1  H2  O   H1  H2  O   H1  H2  O   H1  
H2  O   H1  H2  O   H1  H2  O   H1  H2  O   H1  H2  O   H1  H2  O   H1  H2  O   
H1  H2  O   H1  H2  O   H1  H2  O   H1  H2  O   H1  H2  O   H1  H2  O   H1  H2  
O   H1  H2  O   H1  H2  O   H1  H2  O   H1  H2  O   H1  H2  O   H1  H2  O   H1  
H2  O   H1  H2  O   H1  H2  O   H1  H2  O   H1  H2  O   H1  H2  O   H1  H2  O   
H1  H2  O   H1  H2  O   H1  H2  O   H1  H2  O   H1  H2  O   H1  H2  O   H1  H2  
O   H1  H2  O   H1  H2  O   H1  H2  O   H1  H2  O   H1  H2  O   H1  H2  O   H1  
H2  O   H1  H2  O   H1  H2  O   H1  H2  O   H1  H2  O   H1  H2  O   H1  H2  O   
H1  H2  O   H1  H2  O   H1  H2  O   H1  H2  O   H1  H2  O   H1  H2  O   H1  H2  
O   H1  H2  O   H1  H2  O   H1  H2  O   H1  H2  O   H1  H2  O   H1  H2  O   H1  
H2  O   H1  H2  O   H1  H2  O   H1  H2  O   H1  H2  O   H1  H2  O   H1  H2  O   
H1  H2  O   H1  H2  O   H1  H2  O   H1  H2  O   H1  H2  O   H1  H2  O   H1  H2  
O   H1  H2  O   H1  H2  O   H1  H2  O   H1  H2  O   H1  H2  O   H1  H2  O   H1  
H2  O   H1  H2  O   H1  H2  O   H1  H2  O   H1  H2  O   H1  H2  O   H1  H2  O   
H1  H2  O   H1  H2  O   H1  H2  O   H1  H2  O   H1  H2  O   H1  H2  O   H1  H2  
O   H1  H2  O   H1  H2  O   H1  H2  O   H1  H2  O   H1  H2  O   H1  H2  O   H1  
H2  O   H1  H2  O   H1  H2  O   H1  H2  O   H1  H2  O   H1  H2  O   H1  H2  O   
H1  H2  O   H1  H2  O   H1  H2  O   H1  H2  O   H1  H2  O   H1  H2  O   H1  H2  
O   H1  H2  O   H1  H2  O   H1  H2  O   H1  H2  O   H1  H2  O   H1  H2  O   H1  
H2  O   H1  H2  O   H1  H2  O   H1  H2  O   H1  H2  O   H1  H2  O   H1  H2  O   
H1  H2  O   H1  H2  O   H1  H2  O   H1  H2  O   H1  H2  O   H1  H2  O   H1  H2  
O   H1  H2  O   H1  H2  O   H1  H2  O   H1  H2  O   H1  H2  O   H1  H2  O   H1  
H2  O   H1  H2  O   H1  H2  O   H1  H2  O   H1  H2  O   H1  H2  O   H1  H2  O   
H1  H2  O   H1  H2  O   H1  H2  O   H1  H2  O   H1  H2  O   H1  H2  O   H1  H2  
O   H1  H2  O   H1  H2  O   H1  H2  O   H1  H2  O   H1  H2  O   H1  H2  O   H1  
H2  O   H1  H2  O   H1  H2  O   H1  H2  O   H1  H2  O   H1  H2  O   H1  H2  O   
H1  H2  O   H1  H2  O   H1  H2  O   H1  H2  O   H1  H2  O   H1  H2  O   H1  H2  
O   H1  H2  O   H1  H2  O   H1  H2  O   H1  H2  O   H1  H2  O   H1  H2  O   H1  
H2  O   H1  H2  O   H1  H2  O   H1  H2  O   H1  H2  O   H1  H2  O   H1  H2  O   
H1  H2  O   H1  H2  O   H1  H2  O   H1  H2  O   H1  H2  O   H1  H2  O   H1  H2  
O   H1  H2  O   H1  H2  O   H1  H2  O   H1  H2  O   H1  H2  O   H1  H2  O   H1  
H2  O   H1  H2  O   H1  H2  O   H1  H2  O   H1  H2  O   H1  H2  O   H1  H2  O   
H1  H2  O   H1  H2  O   H1  H2  O   H1  H2  O   H1  H2  O   H1  H2  O   H1  H2  
O   H1  H2  O   H1  H2  O   H1  H2  O   H1  H2  O   H1  H2  O   H1  H2  O   H1  
H2  O   H1  H2  O   H1  H2  O   H1  H2  O   H1  H2  O   H1  H2  O   H1  H2  O   
H1  H2  O   H1  H2  O   H1  H2  O   H1  H2  O   H1  H2  O   H1  H2  O   H1  H2  
O   H1  H2  O   H1  H2  O   H1  H2  O   H1  H2  O   H1  H2  O   H1  H2  O   H1  
H2  O   H1  H2  O   H1  H2  O   H1  H2  O   H1  H2  O   H1  H2  O   H1  H2  O   
H1  H2  O   H1  H2  O   H1  H2  O   H1  H2  O   H1  H2  O   H1  H2  O   H1  H2  
O   H1  H2  O   H1  H2  O   H1  H2  O   H1  H2  O   H1  H2  O   H1  H2  O   H1  
H2  O   H1  H2  O   H1  H2  O   H1  H2  O   H1  H2  O   H1  H2  O   H1  H2  O   
H1  H2  O   H1  H2  O   H1  H2  O   H1  H2  O   H1  H2  O   H1  H2  O   H1  H2  
O   H1  H2  O   H1  H2  O   H1  H2  O   H1  H2  O   H1  H2  O   H1  H2  O   H1  
H2  O   H1  H2  O   H1  H2  O   H1  H2  O   H1  H2  O   H1  H2  O   H1  H2  O   
H1  H2  O   H1  H2  O   H1  H2  O   H1  H2  O   H1  H2  O   H1  H2  O   H1  H2  
O   H1  H2  O   H1  H2  O   H1  H2  O   H1  H2  O   H1  H2  O   H1  H2  O   H1  
H2  O   H1  H2  O   H1  H2  O   H1  H2  O   H1  H2  O   H1  H2  O   H1  H2  O   
H1  H2  O   H1  H2  O   H1  H2  O   H1  H2  O   H1  H2  O   H1  H2  O   H1  H2  
O   H1  H2  O   H1  H2  O   H1  H2  O   H1  H2  O   H1  H2  O   H1  H2  O   H1  
H2  O   H1  H2  O   H1  H2  O   H1  H2  O   H1  H2  O   H1  H2  O   H1  H2  O   
H1  H2  O   H1  H2  O   H1  H2  O   H1  H2  O   H1  H2  O   H1  H2  O   H1  H2  
O   H1  H2  O   H1  H2  O   H1  H2  O   H1  H2  O   H1  H2  O   H1  H2  O   H1  
H2  O   H1  H2  O   H1  H2  O   H1  H2  O   H1  H2  O   H1  H2  O   H1  H2  O   
H1  H2  O   H1  H2  O   H1  H2  O   H1  H2  O   H1  H2  O   H1  H2  O   H1  H2  
O   H1  H2  O   H1  H2  O   H1  H2  O   H1  H2  O   H1  H2  O   H1  H2  O   H1  
H2  O   H1  H2  O   H1  H2  O   H1  H2  O   H1  H2  O   H1  H2  O   H1  H2  O   
H1  H2  O   H1  H2  O   H1  H2  O   H1  H2  O   H1  H2  O   H1  H2  O   H1  H2  
O   H1  H2  O   H1  H2  O   H1  H2  O   H1  H2  O   H1  H2  O   H1  H2  O   H1  
H2  O   H1  H2  O   H1  H2  O   H1  H2  O   H1  H2  O   H1  H2  O   H1  H2  O   
H1  H2  O   H1  H2  O   H1  H2  O   H1  H2  O   H1  H2  O   H1  H2  O   H1  H2  
O   H1  H2  O   H1  H2  O   H1  H2  O   H1  H2  O   H1  H2  O   H1  H2  O   H1  
H2  O   H1  H2  O   H1  H2  O   H1  H2  O   H1  H2  O   H1  H2  O   H1  H2  O   
H1  H2  O   H1  H2  O   H1  H2  O   H1  H2  O   H1  H2  O   H1  H2  O   H1  H2  
O   H1  H2  O   H1  H2  O   H1  H2  O   H1  H2  O   H1  H2  O   H1  H2  O   H1  
H2  O   H1  H2  O   H1  H2  O   H1  H2  O   H1  H2  O   H1  H2  O   H1  H2  O   
H1  H2  O   H1  H2  O   H1  H2  O   H1  H2  O   H1  H2  O   H1  H2  O   H1  H2  
O   H1  H2  O   H1  H2  O   H1  H2  O   H1  H2  O   H1  H2  O   H1  H2  O   H1  
H2  O   H1  H2  O   H1  H2  O   H1  H2  O   H1  H2  O   H1  H2  O   H1  H2  O   
H1  H2  O   H1  H2  O   H1  H2  O   H1  H2  O   H1  H2  O   H1  H2  O   H1  H2  
O   H1  H2  O   H1  H2  O   H1  H2  O   H1  H2  O   H1  H2  O   H1  H2  O   H1  
H2  O   H1  H2  O   H1  H2  O   H1  H2  O   H1  H2  O   H1  H2  O   H1  H2  O   
H1  H2  O   H1  H2  O   H1  H2  O   H1  H2  O   H1  H2  O   H1  H2  O   H1  H2  
O   H1  H2  O   H1  H2  O   H1  H2  O   H1  H2  O   H1  H2  O   H1  H2  O   H1  
H2  O   H1  H2  O   H1  H2  O   H1  H2  O   H1  H2  O   H1  H2  O   H1  H2  O   
H1  H2  O   H1  H2  O   H1  H2  O   H1  H2  O   H1  H2  O   H1  H2  O   H1  H2  
O   H1  H2  O   H1  H2  O   H1  H2  O   H1  H2  O   H1  H2  O   H1  H2  O   H1  
H2  O   H1  H2  O   H1  H2  O   H1  H2  O   H1  H2  O   H1  H2  O   H1  H2  O   
H1  H2  O   H1  H2  O   H1  H2  O   H1  H2  O   H1  H2  O   H1  H2  O   H1  H2  
O   H1  H2  O   H1  H2  O   H1  H2  O   H1  H2  O   H1  H2  O   H1  H2  O   H1  
H2  O   H1  H2  O   H1  H2  O   H1  H2  O   H1  H2  O   H1  H2  O   H1  H2  O   
H1  H2  O   H1  H2  O   H1  H2  O   H1  H2  O   H1  H2  O   H1  H2  O   H1  H2  
O   H1  H2  O   H1  H2  O   H1  H2  O   H1  H2  O   H1  H2  O   H1  H2  O   H1  
H2  O   H1  H2  O   H1  H2  O   H1  H2  O   H1  H2  O   H1  H2  O   H1  H2  O   
H1  H2  O   H1  H2  O   H1  H2  O   H1  H2  O   H1  H2  O   H1  H2  O   H1  H2  
O   H1  H2  O   H1  H2  O   H1  H2  O   H1  H2  O   H1  H2  O   H1  H2  O   H1  
H2  O   H1  H2  O   H1  H2  O   H1  H2  O   H1  H2  O   H1  H2  O   H1  H2  O   
H1  H2  O   H1  H2  O   H1  H2  O   H1  H2  O   H1  H2  O   H1  H2  O   H1  H2  
O   H1  H2  O   H1  H2  O   H1  H2  O   H1  H2  O   H1  H2  O   H1  H2  O   H1  
H2  O   H1  H2  O   H1  H2  O   H1  H2  O   H1  H2  O   H1  H2  O   H1  H2  O   
H1  H2  O   H1  H2  O   H1  H2  O   H1  H2  O   H1  H2  O   H1  H2  O   H1  H2  
O   H1  H2  O   H1  H2  O   H1  H2  O   H1  H2  O   H1  H2  O   H1  H2  O   H1  
H2  O   H1  H2  O   H1  H2  O   H1  H2  O   H1  H2  O   H1  H2  O   H1  H2  O   
H1  H2  O   H1  H2  O   H1  H2  O   H1  H2  O   H1  H2  O   H1  H2  O   H1  H2  
O   H1  H2  O   H1  H2  O   H1  H2  O   H1  H2  O   H1  H2  O   H1  H2  O   H1  
H2  O   H1  H2  O   H1  H2  O   H1  H2  O   H1  H2  O   H1  H2  O   H1  H2  O   
H1  H2  O   H1  H2  O   H1  H2  O   H1  H2  O   H1  H2  O   H1  H2  O   H1  H2  
O   H1  H2  O   H1  H2  O   H1  H2  O   H1  H2  O   H1  H2  O   H1  H2  O   H1  
H2  O   H1  H2  O   H1  H2  O   H1  H2  O   H1  H2  O   H1  H2  O   H1  H2  O   
H1  H2  O   H1  H2  O   H1  H2  O   H1  H2  O   H1  H2  O   H1  H2  O   H1  H2  
O   H1  H2  O   H1  H2  O   H1  H2  O   H1  H2  O   H1  H2  O   H1  H2  O   H1  
H2  O   H1  H2  O   H1  H2  O   H1  H2  O   H1  H2  O   H1  H2  O   H1  H2  O   
H1  H2  O   H1  H2  O   H1  H2  O   H1  H2  O   H1  H2  O   H1  H2  O   H1  H2  
O   H1  H2  O   H1  H2  O   H1  H2  O   H1  H2  O   H1  H2  O   H1  H2  O   H1  
H2  O   H1  H2  O   H1  H2  O   H1  H2  O   H1  H2  O   H1  H2  O   H1  H2  O   
H1  H2  O   H1  H2  O   H1  H2  O   H1  H2  O   H1  H2  O   H1  H2  O   H1  H2  
O   H1  H2  O   H1  H2  O   H1  H2  O   H1  H2  O   H1  H2  O   H1  H2  O   H1  
H2  O   H1  H2  O   H1  H2  O   H1  H2  O   H1  H2  O   H1  H2  O   H1  H2  O   
H1  H2  O   H1  H2  O   H1  H2  O   H1  H2  O   H1  H2  O   H1  H2  O   H1  H2  
O   H1  H2  O   H1  H2  O   H1  H2  O   H1  H2  O   H1  H2  O   H1  H2  O   H1  
H2  O   H1  H2  O   H1  H2  O   H1  H2  O   H1  H2  O   H1  H2  O   H1  H2  O   
H1  H2  O   H1  H2  O   H1  H2  O   H1  H2  O   H1  H2  O   H1  H2  O   H1  H2  
O   H1  H2  O   H1  H2  O   H1  H2  O   H1  H2  O   H1  H2  O   H1  H2  O   H1  
H2  O   H1  H2  O   H1  H2  O   H1  H2  O   H1  H2  O   H1  H2  O   H1  H2  O   
H1  H2  O   H1  H2  O   H1  H2  O   H1  H2  O   H1  H2  O   H1  H2  O   H1  H2  
O   H1  H2  O   H1  H2  O   H1  H2  O   H1  H2  O   H1  H2  O   H1  H2  O   H1  
H2  O   H1  H2  O   H1  H2  O   H1  H2  O   H1  H2  O   H1  H2  O   H1  H2  O   
H1  H2  O   H1  H2  O   H1  H2  O   H1  H2  O   H1  H2  O   H1  H2  O   H1  H2  
O   H1  H2  O   H1  H2  O   H1  H2  O   H1  H2  O   H1  H2  O   H1  H2  O   H1  
H2  O   H1  H2  O   H1  H2  O   H1  H2  O   H1  H2  O   H1  H2  O   H1  H2  O   
H1  H2  O   H1  H2  O   H1  H2  O   H1  H2  O   H1  H2  O   H1  H2  O   H1  H2  
O   H1  H2  O   H1  H2  O   H1  H2  O   H1  H2  O   H1  H2  O   H1  H2  O   H1  
H2  O   H1  H2  O   H1  H2  O   H1  H2  O   H1  H2  O   H1  H2  O   H1  H2  O   
H1  H2  O   H1  H2  O   H1  H2  O   H1  H2  O   H1  H2  O   H1  H2  O   H1  H2  
O   H1  H2  O   H1  H2  O   H1  H2  O   H1  H2  O   H1  H2  O   H1  H2  O   H1  
H2  O   H1  H2  O   H1  H2  O   H1  H2  O   H1  H2  O   H1  H2  O   H1  H2  O   
H1  H2  O   H1  H2  O   H1  H2  O   H1  H2  O   H1  H2  O   H1  H2  O   H1  H2  
O   H1  H2  O   H1  H2  O   H1  H2  O   H1  H2  O   H1  H2  O   H1  H2  O   H1  
H2  O   H1  H2  O   H1  H2  O   H1  H2  O   H1  H2  O   H1  H2  O   H1  H2  O   
H1  H2  O   H1  H2  O   H1  H2  O   H1  H2  O   H1  H2  O   H1  H2  O   H1  H2  
O   H1  H2  O   H1  H2  O   H1  H2  O   H1  H2  O   H1  H2  O   H1  H2  O   H1  
H2  O   H1  H2  O   H1  H2  O   H1  H2  O   H1  H2  O   H1  H2  O   H1  H2  O   
H1  H2  O   H1  H2  O   H1  H2  O   H1  H2  O   H1  H2  O   H1  H2  O   H1  H2  
O   H1  H2  O   H1  H2  O   H1  H2  O   H1  H2  O   H1  H2  O   H1  H2  O   H1  
H2  O   H1  H2  O   H1  H2  O   H1  H2  O   H1  H2  O   H1  H2  O   H1  H2  O   
H1  H2  O   H1  H2  O   H1  H2  O   H1  H2  O   H1  H2  O   H1  H2  O   H1  H2  
O   H1  H2  O   H1  H2  O   H1  H2  O   H1  H2  O   H1  H2  O   H1  H2  O   H1  
H2  O   H1  H2  O   H1  H2  O   H1  H2  O   H1  H2  O   H1  H2  O   H1  H2  O   
H1  H2  O   H1  H2  O   H1  H2  O   H1  H2  O   H1  H2  O   H1  H2  O   H1  H2  
O   H1  H2  O   H1  H2  O   H1  H2  O   H1  H2  O   H1  H2  O   H1  H2  O   H1  
H2  O   H1  H2  O   H1  H2  O   H1  H2  O   H1  H2  O   H1  H2  O   H1  H2  O   
H1  H2  O   H1  H2  O   H1  H2  O   H1  H2  O   H1  H2  O   H1  H2  O   H1  H2  
O   H1  H2  O   H1  H2  O   H1  H2  O   H1  H2  O   H1  H2  O   H1  H2  O   H1  
H2  O   H1  H2  O   H1  H2  O   H1  H2  O   H1  H2  O   H1  H2  O   H1  H2  O   
H1  H2  O   H1  H2  O   H1  H2  O   H1  H2  O   H1  H2  O   H1  H2  O   H1  H2  
O   H1  H2  O   H1  H2  O   H1  H2  O   H1  H2  O   H1  H2  O   H1  H2  O   H1  
H2  O   H1  H2  O   H1  H2  O   H1  H2  O   H1  H2  O   H1  H2  O   H1  H2  O   
H1  H2  O   H1  H2  O   H1  H2  O   H1  H2  O   H1  H2  O   H1  H2  O   H1  H2  
O   H1  H2  O   H1  H2  O   H1  H2  O   H1  H2  O   H1  H2  O   H1  H2  O   H1  
H2  O   H1  H2  O   H1  H2  O   H1  H2  O   H1  H2  O   H1  H2  O   H1  H2  O   
H1  H2  O   H1  H2  O   H1  H2  O   H1  H2  O   H1  H2  O   H1  H2  O   H1  H2  
O   H1  H2  O   H1  H2  O   H1  H2  O   H1  H2  O   H1  H2  O   H1  H2  O   H1  
H2  O   H1  H2  O   H1  H2  O   H1  H2  O   H1  H2  O   H1  H2  O   H1  H2  O   
H1  H2  O   H1  H2  O   H1  H2  O   H1  H2  O   H1  H2  O   H1  H2  O   H1  H2  
O   H1  H2  O   H1  H2  O   H1  H2  O   H1  H2  O   H1  H2  O   H1  H2  O   H1  
H2  O   H1  H2  O   H1  H2  O   H1  H2  O   H1  H2  O   H1  H2  O   H1  H2  O   
H1  H2  O   H1  H2  O   H1  H2  O   H1  H2  O   H1  H2  O   H1  H2  O   H1  H2  
O   H1  H2  O   H1  H2  O   H1  H2  O   H1  H2  O   H1  H2  O   H1  H2  O   H1  
H2  O   H1  H2  O   H1  H2  O   H1  H2  O   H1  H2  O   H1  H2  O   H1  H2  O   
H1  H2  O   H1  H2  O   H1  H2  O   H1  H2  O   H1  H2  O   H1  H2  O   H1  H2  
O   H1  H2  O   H1  H2  O   H1  H2  O   H1  H2  O   H1  H2  O   H1  H2  O   H1  
H2  O   H1  H2  O   H1  H2  O   H1  H2  O   H1  H2  O   H1  H2  O   H1  H2  O   
H1  H2  O   H1  H2  O   H1  H2  O   H1  H2  O   H1  H2  O   H1  H2  O   H1  H2  
O   H1  H2  O   H1  H2  O   H1  H2  O   H1  H2  O   H1  H2  O   H1  H2  O   H1  
H2  O   H1  H2  O   H1  H2  O   H1  H2  O   H1  H2  O   H1  H2  O   H1  H2  O   
H1  H2  O   H1  H2  O   H1  H2  O   H1  H2  O   H1  H2  O   H1  H2  O   H1  H2  
O   H1  H2  O   H1  H2  O   H1  H2  O   H1  H2  O   H1  H2  O   H1  H2  O   H1  
H2  O   H1  H2  O   H1  H2  O   H1  H2  O   H1  H2  O   H1  H2  O   H1  H2  O   
H1  H2  O   H1  H2  O   H1  H2  O   H1  H2  O   H1  H2  O   H1  H2  O   H1  H2  
O   H1  H2  O   H1  H2  O   H1  H2  O   H1  H2  O   H1  H2  O   H1  H2  O   H1  
H2  O   H1  H2  O   H1  H2  O   H1  H2  O   H1  H2  O   H1  H2  O   H1  H2  O   
H1  H2  O   H1  H2  O   H1  H2  O   H1  H2  O   H1  H2  O   H1  H2  O   H1  H2  
O   H1  H2  O   H1  H2  O   H1  H2  O   H1  H2  O   H1  H2  O   H1  H2  O   H1  
H2  O   H1  H2  O   H1  H2  O   H1  H2  O   H1  H2  O   H1  H2  O   H1  H2  O   
H1  H2  O   H1  H2  O   H1  H2  O   H1  H2  O   H1  H2  O   H1  H2  O   H1  H2  
O   H1  H2  O   H1  H2  O   H1  H2  O   H1  H2  O   H1  H2  O   H1  H2  O   H1  
H2  O   H1  H2  O   H1  H2  O   H1  H2  O   H1  H2  O   H1  H2  O   H1  H2  O   
H1  H2  O   H1  H2  O   H1  H2  O   H1  H2  O   H1  H2  O   H1  H2  O   H1  H2  
O   H1  H2  O   H1  H2  O   H1  H2  O   H1  H2  O   H1  H2  O   H1  H2  O   H1  
H2  O   H1  H2  O   H1  H2  O   H1  H2  O   H1  H2  O   H1  H2  O   H1  H2  O   
H1  H2  O   H1  H2  O   H1  H2  O   H1  H2  O   H1  H2  O   H1  H2  O   H1  H2  
O   H1  H2  O   H1  H2  O   H1  H2  O   H1  H2  O   H1  H2  O   H1  H2  O   H1  
H2  O   H1  H2  O   H1  H2  O   H1  H2  O   H1  H2  O   H1  H2  O   H1  H2  O   
H1  H2  O   H1  H2  O   H1  H2  O   H1  H2  O   H1  H2  O   H1  H2  O   H1  H2  
O   H1  H2  O   H1  H2  O   H1  H2  O   H1  H2  O   H1  H2  O   H1  H2  O   H1  
H2  O   H1  H2  O   H1  H2  O   H1  H2  O   H1  H2  O   H1  H2  O   H1  H2  O   
H1  H2  O   H1  H2  O   H1  H2  O   H1  H2  O   H1  H2  O   H1  H2  O   H1  H2  
O   H1  H2  O   H1  H2  O   H1  H2  O   H1  H2  O   H1  H2  O   H1  H2  O   H1  
H2  O   H1  H2  O   H1  H2  O   H1  H2  O   H1  H2  O   H1  H2  O   H1  H2  O   
H1  H2  O   H1  H2  O   H1  H2  O   H1  H2  O   H1  H2  O   H1  H2  O   H1  H2  
O   H1  H2  O   H1  H2  O   H1  H2  O   H1  H2  O   H1  H2  O   H1  H2  O   H1  
H2  O   H1  H2  O   H1  H2  O   H1  H2  O   H1  H2  O   H1  H2  O   H1  H2  O   
H1  H2  O   H1  H2  O   H1  H2  O   H1  H2  O   H1  H2  O   H1  H2  O   H1  H2  
O   H1  H2  O   H1  H2  O   H1  H2  O   H1  H2  O   H1  H2  O   H1  H2  O   H1  
H2  O   H1  H2  O   H1  H2  O   H1  H2  O   H1  H2  O   H1  H2  O   H1  H2  O   
H1  H2  O   H1  H2  O   H1  H2  O   H1  H2  O   H1  H2  O   H1  H2  O   H1  H2  
O   H1  H2  O   H1  H2  O   H1  H2  O   H1  H2  O   H1  H2  O   H1  H2  O   H1  
H2  O   H1  H2  O   H1  H2  O   H1  H2  O   H1  H2  O   H1  H2  O   H1  H2  O   
H1  H2  O   H1  H2  O   H1  H2  O   H1  H2  O   H1  H2  O   H1  H2  O   H1  H2  
O   H1  H2  O   H1  H2  O   H1  H2  O   H1  H2  O   H1  H2  O   H1  H2  O   H1  
H2  O   H1  H2  O   H1  H2  O   H1  H2  O   H1  H2  O   H1  H2  O   H1  H2  O   
H1  H2  O   H1  H2  O   H1  H2  O   H1  H2  O   H1  H2  O   H1  H2  O   H1  H2  
O   H1  H2  O   H1  H2  O   H1  H2  O   H1  H2  O   H1  H2  O   H1  H2  O   H1  
H2  O   H1  H2  O   H1  H2  O   H1  H2  O   H1  H2  O   H1  H2  O   H1  H2  O   
H1  H2  O   H1  H2  O   H1  H2  O   H1  H2  O   H1  H2  O   H1  H2  O   H1  H2  
O   H1  H2  O   H1  H2  O   H1  H2  O   H1  H2  O   H1  H2  O   H1  H2  O   H1  
H2  O   H1  H2  O   H1  H2  O   H1  H2  O   H1  H2  O   H1  H2  O   H1  H2  O   
H1  H2  O   H1  H2  O   H1  H2  O   H1  H2  O   H1  H2  O   H1  H2  O   H1  H2  
O   H1  H2  O   H1  H2  O   H1  H2  O   H1  H2  O   H1  H2  O   H1  H2  O   H1  
H2  O   H1  H2  O   H1  H2  O   H1  H2  O   H1  H2  O   H1  H2  O   H1  H2  O   
H1  H2  O   H1  H2  O   H1  H2  O   H1  H2  O   H1  H2  O   H1  H2  O   H1  H2  
O   H1  H2  O   H1  H2  O   H1  H2  O   H1  H2  O   H1  H2  O   H1  H2  O   H1  
H2  O   H1  H2  O   H1  H2  O   H1  H2  O   H1  H2  O   H1  H2  O   H1  H2  O   
H1  H2  O   H1  H2  O   H1  H2  O   H1  H2  O   H1  H2  O   H1  H2  O   H1  H2  
O   H1  H2  O   H1  H2  O   H1  H2  O   H1  H2  O   H1  H2  O   H1  H2  O   H1  
H2  O   H1  H2  O   H1  H2  O   H1  H2  O   H1  H2  O   H1  H2  O   H1  H2  O   
H1  H2  O   H1  H2  O   H1  H2  O   H1  H2  O   H1  H2  O   H1  H2  O   H1  H2  
O   H1  H2  O   H1  H2  O   H1  H2  O   H1  H2  O   H1  H2  O   H1  H2  O   H1  
H2  O   H1  H2  O   H1  H2  O   H1  H2  O   H1  H2  O   H1  H2  O   H1  H2  O   
H1  H2  O   H1  H2  O   H1  H2  O   H1  H2  O   H1  H2  O   H1  H2  O   H1  H2  
O   H1  H2  O   H1  H2  O   H1  H2  O   H1  H2  O   H1  H2  O   H1  H2  O   H1  
H2  O   H1  H2  O   H1  H2  O   H1  H2  O   H1  H2  O   H1  H2  O   H1  H2  O   
H1  H2  O   H1  H2  O   H1  H2  O   H1  H2  O   H1  H2  O   H1  H2  O   H1  H2  
O   H1  H2  O   H1  H2  O   H1  H2  O   H1  H2  O   H1  H2  O   H1  H2  O   H1  
H2  O   H1  H2  O   H1  H2  O   H1  H2  O   H1  H2  O   H1  H2  O   H1  H2  O   
H1  H2  O   H1  H2  O   H1  H2  O   H1  H2  O   H1  H2  O   H1  H2  O   H1  H2  
O   H1  H2  O   H1  H2  O   H1  H2  O   H1  H2  O   H1  H2  O   H1  H2  O   H1  
H2  O   H1  H2  O   H1  H2  O   H1  H2  O   H1  H2  O   H1  H2  O   H1  H2  O   
H1  H2  O   H1  H2  O   H1  H2  O   H1  H2  O   H1  H2  O   H1  H2  O   H1  H2  
O   H1  H2  O   H1  H2  O   H1  H2  O   H1  H2  O   H1  H2  O   H1  H2  O   H1  
H2  O   H1  H2  O   H1  H2  O   H1  H2  O   H1  H2  O   H1  H2  O   H1  H2  O   
H1  H2  O   H1  H2  O   H1  H2  O   H1  H2  O   H1  H2  O   H1  H2  O   H1  H2  
O   H1  H2  O   H1  H2  O   H1  H2  O   H1  H2  O   H1  H2  O   H1  H2  O   H1  
H2  O   H1  H2  O   H1  H2  O   H1  H2  O   H1  H2  O   H1  H2  O   H1  H2  O   
H1  H2  O   H1  H2  O   H1  H2  O   H1  H2  O   H1  H2  O   H1  H2  O   H1  H2  
O   H1  H2  O   H1  H2  O   H1  H2  O   H1  H2  O   H1  H2  O   H1  H2  O   H1  
H2  O   H1  H2  O   H1  H2  O   H1  H2  O   H1  H2  O   H1  H2  O   H1  H2  O   
H1  H2  O   H1  H2  O   H1  H2  O   H1  H2  O   H1  H2  O   H1  H2  O   H1  H2  
O   H1  H2  O   H1  H2  O   H1  H2  O   H1  H2  O   H1  H2  O   H1  H2  O   H1  
H2  O   H1  H2  O   H1  H2  O   H1  H2  O   H1  H2  O   H1  H2  O   H1  H2  O   
H1  H2  O   H1  H2  O   H1  H2  O   H1  H2  O   H1  H2  O   H1  H2  O   H1  H2  
O   H1  H2  O   H1  H2  O   H1  H2  O   H1  H2  O   H1  H2  O   H1  H2  O   H1  
H2  O   H1  H2  O   H1  H2  O   H1  H2  O   H1  H2  O   H1  H2  O   H1  H2  O   
H1  H2  O   H1  H2  O   H1  H2  O   H1  H2  O   H1  H2  O   H1  H2  O   H1  H2  
O   H1  H2  O   H1  H2  O   H1  H2  O   H1  H2  O   H1  H2  O   H1  H2  O   H1  
H2  O   H1  H2  O   H1  H2  O   H1  H2  O   H1  H2  O   H1  H2  O   H1  H2  O   
H1  H2  O   H1  H2  O   H1  H2  O   H1  H2  O   H1  H2  O   H1  H2  O   H1  H2  
O   H1  H2  O   H1  H2  O   H1  H2  O   H1  H2  O   H1  H2  O   H1  H2  O   H1  
H2  O   H1  H2  O   H1  H2  O   H1  H2  O   H1  H2  O   H1  H2  O   H1  H2  O   
H1  H2  O   H1  H2  O   H1  H2  O   H1  H2  O   H1  H2  O   H1  H2  O   H1  H2  
O   H1  H2  O   H1  H2  O   H1  H2  O   H1  H2  O   H1  H2  O   H1  H2  O   H1  
H2  O   H1  H2  O   H1  H2  O   H1  H2  O   H1  H2  O   H1  H2  O   H1  H2  O   
H1  H2  O   H1  H2  O   H1  H2  O   H1  H2  O   H1  H2  O   H1  H2  O   H1  H2  
O   H1  H2  O   H1  H2  O   H1  H2  O   H1  H2  O   H1  H2  O   H1  H2  O   H1  
H2  O   H1  H2  O   H1  H2  O   H1  H2  O   H1  H2  O   H1  H2  O   H1  H2  O   
H1  H2  O   H1  H2  O   H1  H2  O   H1  H2  O   H1  H2  O   H1  H2  O   H1  H2  
O   H1  H2  O   H1  H2  O   H1  H2  O   H1  H2  O   H1  H2  O   H1  H2  O   H1  
H2  O   H1  H2  O   H1  H2  O   H1  H2  O   H1  H2  O   H1  H2  O   H1  H2  O   
H1  H2  O   H1  H2  O   H1  H2  O   H1  H2  O   H1  H2  O   H1  H2  O   H1  H2  
O   H1  H2  O   H1  H2  O   H1  H2  O   H1  H2  O   H1  H2  O   H1  H2  O   H1  
H2  O   H1  H2  O   H1  H2  O   H1  H2  O   H1  H2  O   H1  H2  O   H1  H2  O   
H1  H2  O   H1  H2  O   H1  H2  O   H1  H2  O   H1  H2  O   H1  H2  O   H1  H2  
O   H1  H2  O   H1  H2  O   H1  H2  O   H1  H2  O   H1  H2  O   H1  H2  O   H1  
H2  O   H1  H2  O   H1  H2  O   H1  H2  O   H1  H2  O   H1  H2  O   H1  H2  O   
H1  H2  O   H1  H2  O   H1  H2  O   H1  H2  O   H1  H2  O   H1  H2  O   H1  H2  
O   H1  H2  O   H1  H2  O   H1  H2  O   H1  H2  O   H1  H2  O   H1  H2  O   H1  
H2  O   H1  H2  O   H1  H2  O   H1  H2  O   H1  H2  O   H1  H2  O   H1  H2  O   
H1  H2  O   H1  H2  O   H1  H2  O   H1  H2  O   H1  H2  O   H1  H2  O   H1  H2  
O   H1  H2  O   H1  H2  O   H1  H2  O   H1  H2  O   H1  H2  O   H1  H2  O   H1  
H2  O   H1  H2  O   H1  H2  O   H1  H2  O   H1  H2  O   H1  H2  O   H1  H2  O   
H1  H2  O   H1  H2  O   H1  H2  O   H1  H2  O   H1  H2  O   H1  H2  O   H1  H2  
O   H1  H2  O   H1  H2  O   H1  H2  O   H1  H2  O   H1  H2  O   H1  H2  O   H1  
H2  O   H1  H2  O   H1  H2  O   H1  H2  O   H1  H2  O   H1  H2  O   H1  H2  O   
H1  H2  O   H1  H2  O   H1  H2  O   H1  H2  O   H1  H2  O   H1  H2  O   H1  H2  
O   H1  H2  O   H1  H2  O   H1  H2  O   H1  H2  O   H1  H2  O   H1  H2  O   H1  
H2  O   H1  H2  O   H1  H2  O   H1  H2  O   H1  H2  O   H1  H2  O   H1  H2  O   
H1  H2  O   H1  H2  O   H1  H2  O   H1  H2  O   H1  H2  O   H1  H2  O   H1  H2  
O   H1  H2  O   H1  H2  O   H1  H2  O   H1  H2  O   H1  H2  O   H1  H2  O   H1  
H2  O   H1  H2  O   H1  H2  O   H1  H2  O   H1  H2  O   H1  H2  O   H1  H2  O   
H1  H2  O   H1  H2  O   H1  H2  O   H1  H2  O   H1  H2  O   H1  H2  O   H1  H2  
O   H1  H2  O   H1  H2  O   H1  H2  O   H1  H2  O   H1  H2  O   H1  H2  O   H1  
H2  O   H1  H2  O   H1  H2  O   H1  H2  O   H1  H2  O   H1  H2  O   H1  H2  O   
H1  H2  O   H1  H2  O   H1  H2  O   H1  H2  O   H1  H2  O   H1  H2  O   H1  H2  
O   H1  H2  O   H1  H2  O   H1  H2  O   H1  H2  O   H1  H2  O   H1  H2  O   H1  
H2  O   H1  H2  O   H1  H2  O   H1  H2  O   H1  H2  O   H1  H2  O   H1  H2  O   
H1  H2  O   H1  H2  O   H1  H2  O   H1  H2  O   H1  H2  O   H1  H2  O   H1  H2  
O   H1  H2  O   H1  H2  O   H1  H2  O   H1  H2  O   H1  H2  O   H1  H2  O   H1  
H2  O   H1  H2  O   H1  H2  O   H1  H2  O   H1  H2  O   H1  H2  O   H1  H2  O   
H1  H2  O   H1  H2  O   H1  H2  O   H1  H2  O   H1  H2  O   H1  H2  O   H1  H2  
O   H1  H2  O   H1  H2  O   H1  H2  O   H1  H2  O   H1  H2  O   H1  H2  O   H1  
H2  O   H1  H2  O   H1  H2  O   H1  H2  O   H1  H2  O   H1  H2  O   H1  H2  O   
H1  H2  O   H1  H2  O   H1  H2  O   H1  H2  O   H1  H2  O   H1  H2  O   H1  H2  
O   H1  H2  O   H1  H2  O   H1  H2  O   H1  H2  O   H1  H2  O   H1  H2  O   H1  
H2  O   H1  H2  O   H1  H2  O   H1  H2  O   H1  H2  O   H1  H2  O   H1  H2  O   
H1  H2  O   H1  H2  O   H1  H2  O   H1  H2  O   H1  H2  O   H1  H2  O   H1  H2  
O   H1  H2  O   H1  H2  O   H1  H2  O   H1  H2  O   H1  H2  O   H1  H2  O   H1  
H2  O   H1  H2  O   H1  H2  O   H1  H2  O   H1  H2  O   H1  H2  O   H1  H2  O   
H1  H2  O   H1  H2  O   H1  H2  O   H1  H2  O   H1  H2  O   H1  H2  O   H1  H2  
O   H1  H2  O   H1  H2  O   H1  H2  O   H1  H2  O   H1  H2  O   H1  H2  O   H1  
H2  O   H1  H2  O   H1  H2  O   H1  H2  O   H1  H2  O   H1  H2  O   H1  H2  O   
H1  H2  O   H1  H2  O   H1  H2  O   H1  H2  O   H1  H2  O   H1  H2  O   H1  H2  
O   H1  H2  O   H1  H2  O   H1  H2  O   H1  H2  O   H1  H2  O   H1  H2  O   H1  
H2  O   H1  H2  O   H1  H2  O   H1  H2  O   H1  H2  O   H1  H2  O   H1  H2  O   
H1  H2  O   H1  H2  O   H1  H2  O   H1  H2  O   H1  H2  O   H1  H2  O   H1  H2  
O   H1  H2  O   H1  H2  O   H1  H2  O   H1  H2  O   H1  H2  O   H1  H2  O   H1  
H2  O   H1  H2  O   H1  H2  O   H1  H2  O   H1  H2  O   H1  H2  O   H1  H2  O   
H1  H2  O   H1  H2  O   H1  H2  O   H1  H2  O   H1  H2  O   H1  H2  O   H1  H2  
O   H1  H2  O   H1  H2  O   H1  H2  O   H1  H2  O   H1  H2  O   H1  H2  O   H1  
H2  O   H1  H2  O   H1  H2  O   H1  H2  O   H1  H2  O   H1  H2  O   H1  H2  O   
H1  H2  O   H1  H2  O   H1  H2  O   H1  H2  O   H1  H2  O   H1  H2  O   H1  H2  
O   H1  H2  O   H1  H2  O   H1  H2  O   H1  H2  O   H1  H2  O   H1  H2  O   H1  
H2  O   H1  H2  O   H1  H2  O   H1  H2  O   H1  H2  O   H1  H2  O   H1  H2  O   
H1  H2  O   H1  H2  O   H1  H2  O   H1  H2  O   H1  H2  O   H1  H2  O   H1  H2  
O   H1  H2  O   H1  H2  O   H1  H2  O   H1  H2  O   H1  H2  O   H1  H2  O   H1  
H2  O   H1  H2  O   H1  H2  O   H1  H2  O   H1  H2  O   H1  H2  O   H1  H2  O   
H1  H2  O   H1  H2  O   H1  H2  O   H1  H2  O   H1  H2  O   H1  H2  O   H1  H2  
O   H1  H2  O   H1  H2  O   H1  H2  O   H1  H2  O   H1  H2  O   H1  H2  O   H1  
H2  O   H1  H2  O   H1  H2  O   H1  H2  O   H1  H2  O   H1  H2  O   H1  H2  O   
H1  H2  O   H1  H2  O   H1  H2  O   H1  H2  O   H1  H2  O   H1  H2  O   H1  H2  
O   H1  H2  O   H1  H2  O   H1  H2  O   H1  H2  O   H1  H2  O   H1  H2  O   H1  
H2  O   H1  H2  O   H1  H2  O   H1  H2  O   H1  H2  O   H1  H2  O   H1  H2  O   
H1  H2  O   H1  H2  O   H1  H2  O   H1  H2  O   H1  H2  O   H1  H2  O   H1  H2  
O   H1  H2  O   H1  H2  O   H1  H2  O   H1  H2  O   H1  H2  O   H1  H2  O   H1  
H2  O   H1  H2  O   H1  H2  O   H1  H2  O   H1  H2  O   H1  H2  O   H1  H2  O   
H1  H2  O   H1  H2  O   H1  H2  O   H1  H2  O   H1  H2  O   H1  H2  O   H1  H2  
O   H1  H2  O   H1  H2  O   H1  H2  O   H1  H2  O   H1  H2  O   H1  H2  O   H1  
H2  O   H1  H2  O   H1  H2  O   H1  H2  O   H1  H2  O   H1  H2  O   H1  H2  O   
H1  H2  O   H1  H2  O   H1  H2  O   H1  H2  O   H1  H2  O   H1  H2  O   H1  H2  
O   H1  H2  O   H1  H2  O   H1  H2  O   H1  H2  O   H1  H2  O   H1  H2  O   H1  
H2  O   H1  H2  O   H1  H2  O   H1  H2  O   H1  H2  O   H1  H2  O   H1  H2  O   
H1  H2  O   H1  H2  O   H1  H2  O   H1  H2  O   H1  H2  O   H1  H2  O   H1  H2  
O   H1  H2  O   H1  H2  O   H1  H2  O   H1  H2  O   H1  H2  O   H1  H2  O   H1  
H2  O   H1  H2  O   H1  H2  O   H1  H2  O   H1  H2  O   H1  H2  O   H1  H2  O   
H1  H2  O   H1  H2  O   H1  H2  O   H1  H2  O   H1  H2  O   H1  H2  O   H1  H2  
O   H1  H2  O   H1  H2  O   H1  H2  O   H1  H2  O   H1  H2  O   H1  H2  O   H1  
H2  O   H1  H2  O   H1  H2  O   H1  H2  O   H1  H2  O   H1  H2  O   H1  H2  O   
H1  H2  O   H1  H2  O   H1  H2  O   H1  H2  O   H1  H2  O   H1  H2  O   H1  H2  
O   H1  H2  O   H1  H2  O   H1  H2  O   H1  H2  O   H1  H2  O   H1  H2  O   H1  
H2  O   H1  H2  O   H1  H2  O   H1  H2  O   H1  H2  O   H1  H2  O   H1  H2  O   
H1  H2  O   H1  H2  O   H1  H2  O   H1  H2  O   H1  H2  O   H1  H2  O   H1  H2  
O   H1  H2  O   H1  H2  O   H1  H2  O   H1  H2  O   H1  H2  O   H1  H2  O   H1  
H2  O   H1  H2  O   H1  H2  O   H1  H2  O   H1  H2  O   H1  H2  O   H1  H2  O   
H1  H2  O   H1  H2  O   H1  H2  O   H1  H2  O   H1  H2  O   H1  H2  O   H1  H2  
O   H1  H2  O   H1  H2  O   H1  H2  O   H1  H2  O   H1  H2  O   H1  H2  O   H1  
H2  O   H1  H2  O   H1  H2  O   H1  H2  O   H1  H2  O   H1  H2  O   H1  H2  O   
H1  H2  O   H1  H2  O   H1  H2  O   H1  H2  O   H1  H2  O   H1  H2  O   H1  H2  
O   H1  H2  O   H1  H2  O   H1  H2  O   H1  H2  O   H1  H2  O   H1  H2  O   H1  
H2  O   H1  H2  O   H1  H2  O   H1  H2  O   H1  H2  O   H1  H2  O   H1  H2  O   
H1  H2  O   H1  H2  O   H1  H2  O   H1  H2  O   H1  H2  O   H1  H2  O   H1  H2  
O   H1  H2  O   H1  H2  O   H1  H2  O   H1  H2  O   H1  H2  O   H1  H2  O   H1  
H2  O   H1  H2  O   H1  H2  O   H1  H2  O   H1  H2  O   H1  H2  O   H1  H2  O   
H1  H2  O   H1  H2  O   H1  H2  O   H1  H2  O   H1  H2  O   H1  H2  O   H1  H2  
O   H1  H2  O   H1  H2  O   H1  H2  O   H1  H2  O   H1  H2  O   H1  H2  O   H1  
H2  O   H1  H2  O   H1  H2  O   H1  H2  O   H1  H2  O   H1  H2  O   H1  H2  O   
H1  H2  O   H1  H2  O   H1  H2  O   H1  H2  O   H1  H2  O   H1  H2  O   H1  H2  
O   H1  H2  O   H1  H2  O   H1  H2  O   H1  H2  O   H1  H2  O   H1  H2  O   H1  
H2  O   H1  H2  O   H1  H2  O   H1  H2  O   H1  H2  O   H1  H2  O   H1  H2  O   
H1  H2  O   H1  H2  O   H1  H2  O   H1  H2  O   H1  H2  O   H1  H2  O   H1  H2  
O   H1  H2  O   H1  H2  O   H1  H2  O   H1  H2  O   H1  H2  O   H1  H2  O   H1  
H2  O   H1  H2  O   H1  H2  O   H1  H2  O   H1  H2  O   H1  H2  O   H1  H2  O   
H1  H2  O   H1  H2  O   H1  H2  O   H1  H2  O   H1  H2  O   H1  H2  O   H1  H2  
O   H1  H2  O   H1  H2  O   H1  H2  O   H1  H2  O   H1  H2  O   H1  H2  O   H1  
H2  O   H1  H2  O   H1  H2  O   H1  H2  O   H1  H2  O   H1  H2  O   H1  H2  O   
H1  H2  O   H1  H2  O   H1  H2  O   H1  H2  O   H1  H2  O   H1  H2  O   H1  H2  
O   H1  H2  O   H1  H2  O   H1  H2  O   H1  H2  O   H1  H2  O   H1  H2  O   H1  
H2  O   H1  H2  O   H1  H2  O   H1  H2  O   H1  H2  O   H1  H2  O   H1  H2  O   
H1  H2  O   H1  H2  O   H1  H2  O   H1  H2  O   H1  H2  O   H1  H2  O   H1  H2  
O   H1  H2  O   H1  H2  O   H1  H2  O   H1  H2  O   H1  H2  O   H1  H2  O   H1  
H2  O   H1  H2  O   H1  H2  O   H1  H2  O   H1  H2  O   H1  H2  O   H1  H2  O   
H1  H2  O   H1  H2  O   H1  H2  O   H1  H2  O   H1  H2  O   H1  H2  O   H1  H2  
O   H1  H2  O   H1  H2  O   H1  H2  O   H1  H2  O   H1  H2  O   H1  H2  O   H1  
H2  O   H1  H2  O   H1  H2  O   H1  H2  O   H1  H2  O   H1  H2  O   H1  H2  O   
H1  H2  O   H1  H2  O   H1  H2  O   H1  H2  O   H1  H2  O   H1  H2  O   H1  H2  
O   H1  H2  O   H1  H2  O   H1  H2  O   H1  H2  O   H1  H2  O   H1  H2  O   H1  
H2  O   H1  H2  O   H1  H2  O   H1  H2  O   H1  H2  O   H1  H2  O   H1  H2  O   
H1  H2  O   H1  H2  O   H1  H2  O   H1  H2  O   H1  H2  O   H1  H2  O   H1  H2  
O   H1  H2  O   H1  H2  O   H1  H2  O   H1  H2  O   H1  H2  O   H1  H2  O   H1  
H2  O   H1  H2  O   H1  H2  O   H1  H2  O   H1  H2  O   H1  H2  O   H1  H2  O   
H1  H2  O   H1  H2  O   H1  H2  O   H1  H2  O   H1  H2  O   H1  H2  O   H1  H2  
O   H1  H2  O   H1  H2  O   H1  H2  O   H1  H2  O   H1  H2  O   H1  H2  O   H1  
H2  O   H1  H2  O   H1  H2  O   H1  H2  O   H1  H2  O   H1  H2  O   H1  H2  O   
H1  H2  O   H1  H2  O   H1  H2  O   H1  H2  O   H1  H2  O   H1  H2  O   H1  H2  
O   H1  H2  O   H1  H2  O   H1  H2  O   H1  H2  O   H1  H2  O   H1  H2  O   H1  
H2  O   H1  H2  O   H1  H2  O   H1  H2  O   H1  H2  O   H1  H2  O   H1  H2  O   
H1  H2  O   H1  H2  O   H1  H2  O   H1  H2  O   H1  H2  O   H1  H2  O   H1  H2  
O   H1  H2  O   H1  H2  O   H1  H2  O   H1  H2  O   H1  H2  O   H1  H2  O   H1  
H2  O   H1  H2  O   H1  H2  O   H1  H2  O   H1  H2  O   H1  H2  O   H1  H2  O   
H1  H2  O   H1  H2  O   H1  H2  O   H1  H2  O   H1  H2  O   H1  H2  O   H1  H2  
O   H1  H2  O   H1  H2  O   H1  H2  O   H1  H2  O   H1  H2  O   H1  H2  O   H1  
H2  O   H1  H2  O   H1  H2  O   H1  H2  O   H1  H2  O   H1  H2  O   H1  H2  O   
H1  H2  O   H1  H2  O   H1  H2  O   H1  H2  O   H1  H2  O   H1  H2  O   H1  H2  
O   H1  H2  O   H1  H2  O   H1  H2  O   H1  H2  O   H1  H2  O   H1  H2  O   H1  
H2  O   H1  H2  O   H1  H2  O   H1  H2  O   H1  H2  O   H1  H2  O   H1  H2  O   
H1  H2  O   H1  H2  O   H1  H2  O   H1  H2  O   H1  H2  O   H1  H2  O   H1  H2  
O   H1  H2  O   H1  H2  O   H1  H2  O   H1  H2  O   H1  H2  O   H1  H2  O   H1  
H2  O   H1  H2  O   H1  H2  O   H1  H2  O   H1  H2  O   H1  H2  O   H1  H2  O   
H1  H2  O   H1  H2  O   H1  H2  O   H1  H2  O   H1  H2  O   H1  H2  O   H1  H2  
O   H1  H2  O   H1  H2  O   H1  H2  O   H1  H2  O   H1  H2  O   H1  H2  O   H1  
H2  O   H1  H2  O   H1  H2  O   H1  H2  O   H1  H2  O   H1  H2  O   H1  H2  O   
H1  H2  O   H1  H2  O   H1  H2  O   H1  H2  O   H1  H2  O   H1  H2  O   H1  H2  
O   H1  H2  O   H1  H2  O   H1  H2  O   H1  H2  O   H1  H2  O   H1  H2  O   H1  
H2  O   H1  H2  O   H1  H2  O   H1  H2  O   H1  H2  O   H1  H2  O   H1  H2  O   
H1  H2  O   H1  H2  O   H1  H2  O   H1  H2  O   H1  H2  O   H1  H2  O   H1  H2  
O   H1  H2  O   H1  H2  O   H1  H2  O   H1  H2  O   H1  H2  O   H1  H2  O   H1  
H2  O   H1  H2  O   H1  H2  O   H1  H2  O   H1  H2  O   H1  H2  O   H1  H2  O   
H1  H2  O   H1  H2  O   H1  H2  O   H1  H2  O   H1  H2  O   H1  H2  O   H1  H2  
O   H1  H2  O   H1  H2  O   H1  H2  O   H1  H2  O   H1  H2  O   H1  H2  O   H1  
H2  O   H1  H2  O   H1  H2  O   H1  H2  O   H1  H2  O   H1  H2  O   H1  H2  O   
H1  H2  O   H1  H2  O   H1  H2  O   H1  H2  O   H1  H2  O   H1  H2  O   H1  H2  
O   H1  H2  O   H1  H2  O   H1  H2  O   H1  H2  O   H1  H2  O   H1  H2  O   H1  
H2  O   H1  H2  O   H1  H2  O   H1  H2  O   H1  H2  O   H1  H2  O   H1  H2  O   
H1  H2  O   H1  H2  O   H1  H2  O   H1  H2  O   H1  H2  O   H1  H2  O   H1  H2  
O   H1  H2  O   H1  H2  O   H1  H2  O   H1  H2  O   H1  H2  O   H1  H2  O   H1  
H2  O   H1  H2  O   H1  H2  O   H1  H2  O   H1  H2  O   H1  H2  O   H1  H2  O   
H1  H2  O   H1  H2  O   H1  H2  O   H1  H2  O   H1  H2  O   H1  H2  O   H1  H2  
O   H1  H2  O   H1  H2  O   H1  H2  O   H1  H2  O   H1  H2  O   H1  H2  O   H1  
H2  O   H1  H2  O   H1  H2  O   H1  H2  O   H1  H2  O   H1  H2  O   H1  H2  O   
H1  H2  O   H1  H2  O   H1  H2  O   H1  H2  O   H1  H2  O   H1  H2  O   H1  H2  
O   H1  H2  O   H1  H2  O   H1  H2  O   H1  H2  O   H1  H2  O   H1  H2  O   H1  
H2  O   H1  H2  O   H1  H2  O   H1  H2  O   H1  H2  O   H1  H2  O   H1  H2  O   
H1  H2  O   H1  H2  O   H1  H2  O   H1  H2  O   H1  H2  O   H1  H2  O   H1  H2  
O   H1  H2  O   H1  H2  O   H1  H2  O   H1  H2  O   H1  H2  O   H1  H2  O   H1  
H2  O   H1  H2  O   H1  H2  O   H1  H2  O   H1  H2  O   H1  H2  O   H1  H2  O   
H1  H2  O   H1  H2  O   H1  H2  O   H1  H2  O   H1  H2  O   H1  H2  O   H1  H2  
O   H1  H2  O   H1  H2  O   H1  H2  O   H1  H2  O   H1  H2  O   H1  H2  O   H1  
H2  O   H1  H2  O   H1  H2  O   H1  H2  O   H1  H2  O   H1  H2  O   H1  H2  O   
H1  H2  O   H1  H2  O   H1  H2  O   H1  H2  O   H1  H2  O   H1  H2  O   H1  H2  
O   H1  H2  O   H1  H2  O   H1  H2  O   H1  H2  O   H1  H2  O   H1  H2  O   H1  
H2  O   H1  H2  O   H1  H2  O   H1  H2  O   H1  H2  O   H1  H2  O   H1  H2  O   
H1  H2  O   H1  H2  O   H1  H2  O   H1  H2  O   H1  H2  O   H1  H2  O   H1  H2  
O   H1  H2  O   H1  H2  O   H1  H2  O   H1  H2  O   H1  H2  O   H1  H2  O   H1  
H2  O   H1  H2  O   H1  H2  O   H1  H2  O   H1  H2  O   H1  H2  O   H1  H2  O   
H1  H2  O   H1  H2  O   H1  H2  O   H1  H2  O   H1  H2  O   H1  H2  O   H1  H2  
O   H1  H2  O   H1  H2  O   H1  H2  O   H1  H2  O   H1  H2  O   H1  H2  O   H1  
H2  O   H1  H2  O   H1  H2  O   H1  H2  O   H1  H2  O   H1  H2  O   H1  H2  O   
H1  H2  O   H1  H2  O   H1  H2  O   H1  H2  O   H1  H2  O   H1  H2  O   H1  H2  
O   H1  H2  O   H1  H2  O   H1  H2  O   H1  H2  O   H1  H2  O   H1  H2  O   H1  
H2  O   H1  H2  O   H1  H2  O   H1  H2  O   H1  H2  O   H1  H2  O   H1  H2  O   
H1  H2  O   H1  H2  O   H1  H2  O   H1  H2  O   H1  H2  O   H1  H2  O   H1  H2  
O   H1  H2  O   H1  H2  O   H1  H2  O   H1  H2  O   H1  H2  O   H1  H2  O   H1  
H2  O   H1  H2  O   H1  H2  O   H1  H2  O   H1  H2  O   H1  H2  O   H1  H2  O   
H1  H2  O   H1  H2  O   H1  H2  O   H1  H2  O   H1  H2  O   H1  H2  O   H1  H2  
O   H1  H2  O   H1  H2  O   H1  H2  O   H1  H2  O   H1  H2  O   H1  H2  O   H1  
H2  O   H1  H2  O   H1  H2  O   H1  H2  O   H1  H2  O   H1  H2  O   H1  H2  O   
H1  H2  O   H1  H2  O   H1  H2  O   H1  H2  O   H1  H2  O   H1  H2  O   H1  H2  
O   H1  H2  O   H1  H2  O   H1  H2  O   H1  H2  O   H1  H2  O   H1  H2  O   H1  
H2  O   H1  H2  O   H1  H2  O   H1  H2  O   H1  H2  O   H1  H2  O   H1  H2  O   
H1  H2  O   H1  H2  O   H1  H2  O   H1  H2  O   H1  H2  O   H1  H2  O   H1  H2  
O   H1  H2  O   H1  H2  O   H1  H2  O   H1  H2  O   H1  H2  O   H1  H2  O   H1  
H2  O   H1  H2  O   H1  H2  O   H1  H2  O   H1  H2  O   H1  H2  O   H1  H2  O   
H1  H2  O   H1  H2  O   H1  H2  O   H1  H2  O   H1  H2  O   H1  H2  O   H1  H2  
O   H1  H2  O   H1  H2  O   H1  H2  O   H1  H2  O   H1  H2  O   H1  H2  O   H1  
H2  O   H1  H2  O   H1  H2  O   H1  H2  O   H1  H2  O   H1  H2  O   H1  H2  O   
H1  H2  O   H1  H2  O   H1  H2  O   H1  H2  O   H1  H2  O   H1  H2  O   H1  H2  
O   H1  H2  O   H1  H2  O   H1  H2  O   H1  H2  O   H1  H2  O   H1  H2  O   H1  
H2  O   H1  H2  O   H1  H2  O   H1  H2  O   H1  H2  O   H1  H2  O   H1  H2  O   
H1  H2  O   H1  H2  O   H1  H2  O   H1  H2  O   H1  H2  O   H1  H2  O   H1  H2  
O   H1  H2  O   H1  H2  O   H1  H2  O   H1  H2  O   H1  H2  O   H1  H2  O   H1  
H2  O   H1  H2  O   H1  H2  O   H1  H2  O   H1  H2  O   H1  H2  O   H1  H2  O   
H1  H2  O   H1  H2  O   H1  H2  O   H1  H2  O   H1  H2  O   H1  H2  O   H1  H2  
O   H1  H2  O   H1  H2  O   H1  H2  O   H1  H2  O   H1  H2  O   H1  H2  O   H1  
H2  O   H1  H2  O   H1  H2  O   H1  H2  O   H1  H2  O   H1  H2  O   H1  H2  O   
H1  H2  O   H1  H2  O   H1  H2  O   H1  H2  O   H1  H2  O   H1  H2  O   H1  H2  
O   H1  H2  O   H1  H2  O   H1  H2  O   H1  H2  O   H1  H2  O   H1  H2  O   H1  
H2  O   H1  H2  O   H1  H2  O   H1  H2  O   H1  H2  O   H1  H2  O   H1  H2  O   
H1  H2  O   H1  H2  O   H1  H2  O   H1  H2  O   H1  H2  O   H1  H2  O   H1  H2  
O   H1  H2  O   H1  H2  O   H1  H2  O   H1  H2  O   H1  H2  O   H1  H2  O   H1  
H2  O   H1  H2  O   H1  H2  O   H1  H2  O   H1  H2  O   H1  H2  O   H1  H2  O   
H1  H2  O   H1  H2  O   H1  H2  O   H1  H2  O   H1  H2  O   H1  H2  O   H1  H2  
O   H1  H2  O   H1  H2  O   H1  H2  O   H1  H2  O   H1  H2  O   H1  H2  O   H1  
H2  O   H1  H2  O   H1  H2  O   H1  H2  O   H1  H2  O   H1  H2  O   H1  H2  O   
H1  H2  O   H1  H2  O   H1  H2  O   H1  H2  O   H1  H2  O   H1  H2  O   H1  H2  
O   H1  H2  O   H1  H2  O   H1  H2  O   H1  H2  O   H1  H2  O   H1  H2  O   H1  
H2  O   H1  H2  O   H1  H2  O   H1  H2  O   H1  H2  O   H1  H2  O   H1  H2  O   
H1  H2  O   H1  H2  O   H1  H2  O   H1  H2  O   H1  H2  O   H1  H2  O   H1  H2  
O   H1  H2  O   H1  H2  O   H1  H2  O   H1  H2  O   H1  H2  O   H1  H2  O   H1  
H2  O   H1  H2  O   H1  H2  O   H1  H2  O   H1  H2  O   H1  H2  O   H1  H2  O   
H1  H2  O   H1  H2  O   H1  H2  O   H1  H2  O   H1  H2  O   H1  H2  O   H1  H2  
O   H1  H2  O   H1  H2  O   H1  H2  O   H1  H2  O   H1  H2  O   H1  H2  O   H1  
H2  O   H1  H2  O   H1  H2  O   H1  H2  O   H1  H2  O   H1  H2  O   H1  H2  O   
H1  H2  O   H1  H2  O   H1  H2  O   H1  H2  O   H1  H2  O   H1  H2  O   H1  H2  
O   H1  H2  O   H1  H2  O   H1  H2  O   H1  H2  O   H1  H2  O   H1  H2  O   H1  
H2  O   H1  H2  O   H1  H2  O   H1  H2  O   H1  H2  O   H1  H2  O   H1  H2  O   
H1  H2  O   H1  H2  O   H1  H2  O   H1  H2  O   H1  H2  O   H1  H2  O   H1  H2  
O   H1  H2  O   H1  H2  O   H1  H2  O   H1  H2  O   H1  H2  O   H1  H2  O   H1  
H2  O   H1  H2  O   H1  H2  O   H1  H2  O   H1  H2  O   H1  H2  O   H1  H2  O   
H1  H2  O   H1  H2  O   H1  H2  O   H1  H2  O   H1  H2  O   H1  H2  O   H1  H2  
O   H1  H2  O   H1  H2  O   H1  H2  O   H1  H2  O   H1  H2  O   H1  H2  O   H1  
H2  O   H1  H2  O   H1  H2  O   H1  H2  O   H1  H2  O   H1  H2  O   H1  H2  O   
H1  H2  O   H1  H2  O   H1  H2  O   H1  H2  O   H1  H2  O   H1  H2  O   H1  H2  
O   H1  H2  O   H1  H2  O   H1  H2  O   H1  H2  O   H1  H2  O   H1  H2  O   H1  
H2  O   H1  H2  O   H1  H2  O   H1  H2  O   H1  H2  O   H1  H2  O   H1  H2  O   
H1  H2  O   H1  H2  O   H1  H2  O   H1  H2  O   H1  H2  O   H1  H2  O   H1  H2  
O   H1  H2  O   H1  H2  O   H1  H2  O   H1  H2  O   H1  H2  O   H1  H2  O   H1  
H2  O   H1  H2  O   H1  H2  O   H1  H2  O   H1  H2  O   H1  H2  O   H1  H2  O   
H1  H2  O   H1  H2  O   H1  H2  O   H1  H2  O   H1  H2  O   H1  H2  O   H1  H2  
O   H1  H2  O   H1  H2  O   H1  H2  O   H1  H2  O   H1  H2  O   H1  H2  O   H1  
H2  O   H1  H2  O   H1  H2  O   H1  H2  O   H1  H2  O   H1  H2  O   H1  H2  O   
H1  H2  O   H1  H2  O   H1  H2  O   H1  H2  O   H1  H2  O   H1  H2  O   H1  H2  
O   H1  H2  O   H1  H2  O   H1  H2  O   H1  H2  O   H1  H2  O   H1  H2  O   H1  
H2  O   H1  H2  O   H1  H2  O   H1  H2  O   H1  H2  O   H1  H2  O   H1  H2  O   
H1  H2  O   H1  H2  O   H1  H2  O   H1  H2  O   H1  H2  O   H1  H2  O   H1  H2  
O   H1  H2  O   H1  H2  O   H1  H2  O   H1  H2  O   H1  H2  O   H1  H2  O   H1  
H2  O   H1  H2  O   H1  H2  O   H1  H2  O   H1  H2  O   H1  H2  O   H1  H2  O   
H1  H2  O   H1  H2  O   H1  H2  O   H1  H2  O   H1  H2  O   H1  H2  O   H1  H2  
O   H1  H2  O   H1  H2  O   H1  H2  O   H1  H2  O   H1  H2  O   H1  H2  O   H1  
H2  O   H1  H2  O   H1  H2  O   H1  H2  O   H1  H2  O   H1  H2  O   H1  H2  O   
H1  H2  O   H1  H2  O   H1  H2  O   H1  H2  O   H1  H2  O   H1  H2  O   H1  H2  
O   H1  H2  O   H1  H2  O   H1  H2  O   H1  H2  O   H1  H2  O   H1  H2  O   H1  
H2  O   H1  H2  O   H1  H2  O   H1  H2  O   H1  H2  O   H1  H2  O   H1  H2  O   
H1  H2  O   H1  H2  O   H1  H2  O   H1  H2  O   H1  H2  O   H1  H2  O   H1  H2  
O   H1  H2  O   H1  H2  O   H1  H2  O   H1  H2  O   H1  H2  O   H1  H2  O   H1  
H2  O   H1  H2  O   H1  H2  O   H1  H2  O   H1  H2  O   H1  H2  O   H1  H2  O   
H1  H2  O   H1  H2  O   H1  H2  O   H1  H2  O   H1  H2  O   H1  H2  O   H1  H2  
O   H1  H2  O   H1  H2  O   H1  H2  O   H1  H2  O   H1  H2  O   H1  H2  O   H1  
H2  O   H1  H2  O   H1  H2  O   H1  H2  O   H1  H2  O   H1  H2  O   H1  H2  O   
H1  H2  O   H1  H2  O   H1  H2  O   H1  H2  O   H1  H2  O   H1  H2  O   H1  H2  
O   H1  H2  O   H1  H2  O   H1  H2  O   H1  H2  O   H1  H2  O   H1  H2  O   H1  
H2  O   H1  H2  O   H1  H2  O   H1  H2  O   H1  H2  O   H1  H2  O   H1  H2  O   
H1  H2  O   H1  H2  O   H1  H2  O   H1  H2  O   H1  H2  O   H1  H2  O   H1  H2  
O   H1  H2  O   H1  H2  O   H1  H2  O   H1  H2  O   H1  H2  O   H1  H2  O   H1  
H2  O   H1  H2  O   H1  H2  O   H1  H2  O   H1  H2  O   H1  H2  O   H1  H2  O   
H1  H2  O   H1  H2  O   H1  H2  O   H1  H2  O   H1  H2  O   H1  H2  O   H1  H2  
O   H1  H2  O   H1  H2  O   H1  H2  O   H1  H2  O   H1  H2  O   H1  H2  O   H1  
H2  O   H1  H2  O   H1  H2  O   H1  H2  O   H1  H2  O   H1  H2  O   H1  H2  O   
H1  H2  O   H1  H2  O   H1  H2  O   H1  H2  O   H1  H2  O   H1  H2  O   H1  H2  
O   H1  H2  O   H1  H2  O   H1  H2  O   H1  H2  O   H1  H2  O   H1  H2  O   H1  
H2  O   H1  H2  O   H1  H2  O   H1  H2  O   H1  H2  O   H1  H2  O   H1  H2  O   
H1  H2  O   H1  H2  O   H1  H2  O   H1  H2  O   H1  H2  O   H1  H2  O   H1  H2  
O   H1  H2  O   H1  H2  O   H1  H2  O   H1  H2  O   H1  H2  O   H1  H2  O   H1  
H2  O   H1  H2  O   H1  H2  O   H1  H2  O   H1  H2  O   H1  H2  O   H1  H2  O   
H1  H2  O   H1  H2  O   H1  H2  O   H1  H2  O   H1  H2  O   H1  H2  O   H1  H2  
O   H1  H2  O   H1  H2  O   H1  H2  O   H1  H2  O   H1  H2  O   H1  H2  O   H1  
H2  O   H1  H2  O   H1  H2  O   H1  H2  O   H1  H2  O   H1  H2  O   H1  H2  O   
H1  H2  O   H1  H2  O   H1  H2  O   H1  H2  O   H1  H2  O   H1  H2  O   H1  H2  
O   H1  H2  O   H1  H2  O   H1  H2  O   H1  H2  O   H1  H2  O   H1  H2  O   H1  
H2  O   H1  H2  O   H1  H2  O   H1  H2  O   H1  H2  O   H1  H2  O   H1  H2  O   
H1  H2  O   H1  H2  O   H1  H2  O   H1  H2  O   H1  H2  O   H1  H2  O   H1  H2  
O   H1  H2  O   H1  H2  O   H1  H2  O   H1  H2  O   H1  H2  O   H1  H2  O   H1  
H2  O   H1  H2  O   H1  H2  O   H1  H2  O   H1  H2  O   H1  H2  O   H1  H2  O   
H1  H2  O   H1  H2  O   H1  H2  O   H1  H2  O   H1  H2  O   H1  H2  O   H1  H2  
O   H1  H2  O   H1  H2  O   H1  H2  O   H1  H2  O   H1  H2  O   H1  H2  O   H1  
H2  O   H1  H2  O   H1  H2  O   H1  H2  O   H1  H2  O   H1  H2  O   H1  H2  O   
H1  H2  O   H1  H2  O   H1  H2  O   H1  H2  O   H1  H2  O   H1  H2  O   H1  H2  
O   H1  H2  O   H1  H2  O   H1  H2  O   H1  H2  O   H1  H2  O   H1  H2  O   H1  
H2  O   H1  H2  O   H1  H2  O   H1  H2  O   H1  H2  O   H1  H2  O   H1  H2  O   
H1  H2  O   H1  H2  O   H1  H2  O   H1  H2  O   H1  H2  O   H1  H2  O   H1  H2  
O   H1  H2  O   H1  H2  O   H1  H2  O   H1  H2  O   H1  H2  O   H1  H2  O   H1  
H2  O   H1  H2  O   H1  H2  O   H1  H2  O   H1  H2  O   H1  H2  O   H1  H2  O   
H1  H2  O   H1  H2  O   H1  H2  O   H1  H2  O   H1  H2  O   H1  H2  O   H1  H2  
O   H1  H2  O   H1  H2  O   H1  H2  O   H1  H2  O   H1  H2  O   H1  H2  O   H1  
H2  O   H1  H2  O   H1  H2  O   H1  H2  O   H1  H2  O   H1  H2  O   H1  H2  O   
H1  H2  O   H1  H2  O   H1  H2  O   H1  H2  O   H1  H2  O   H1  H2  O   H1  H2  
O   H1  H2  O   H1  H2  O   H1  H2  O   H1  H2  O   H1  H2  O   H1  H2  O   H1  
H2  O   H1  H2  O   H1  H2  O   H1  H2  O   H1  H2  O   H1  H2  O   H1  H2  O   
H1  H2  O   H1  H2  O   H1  H2  O   H1  H2  O   H1  H2  O   H1  H2  O   H1  H2  
O   H1  H2  O   H1  H2  O   H1  H2  O   H1  H2  O   H1  H2  O   H1  H2  O   H1  
H2  O   H1  H2  O   H1  H2  O   H1  H2  O   H1  H2  O   H1  H2  O   H1  H2  O   
H1  H2  O   H1  H2  O   H1  H2  O   H1  H2  O   H1  H2  O   H1  H2  O   H1  H2  
O   H1  H2  O   H1  H2  O   H1  H2  O   H1  H2  O   H1  H2  O   H1  H2  O   H1  
H2  O   H1  H2  O   H1  H2  O   H1  H2  O   H1  H2  O   H1  H2  O   H1  H2  O   
H1  H2  O   H1  H2  O   H1  H2  O   H1  H2  O   H1  H2  O   H1  H2  O   H1  H2  
O   H1  H2  O   H1  H2  O   H1  H2  O   H1  H2  O   H1  H2  O   H1  H2  O   H1  
H2  O   H1  H2  O   H1  H2  O   H1  H2  O   H1  H2  O   H1  H2  O   H1  H2  O   
H1  H2  O   H1  H2  O   H1  H2  O   H1  H2  O   H1  H2  O   H1  H2  O   H1  H2  
O   H1  H2  O   H1  H2  O   H1  H2  O   H1  H2  O   H1  H2  O   H1  H2  O   H1  
H2  O   H1  H2  O   H1  H2  O   H1  H2  O   H1  H2  O   H1  H2  O   H1  H2  O   
H1  H2  O   H1  H2  O   H1  H2  O   H1  H2  O   H1  H2  O   H1  H2  O   H1  H2  
O   H1  H2  O   H1  H2  O   H1  H2  O   H1  H2  O   H1  H2  O   H1  H2  O   H1  
H2  O   H1  H2  O   H1  H2  O   H1  H2  O   H1  H2  O   H1  H2  O   H1  H2  O   
H1  H2  O   H1  H2  O   H1  H2  O   H1  H2  O   H1  H2  O   H1  H2  O   H1  H2  
O   H1  H2  O   H1  H2  O   H1  H2  O   H1  H2  O   H1  H2  O   H1  H2  O   H1  
H2  O   H1  H2  O   H1  H2  O   H1  H2  O   H1  H2  O   H1  H2  O   H1  H2  O   
H1  H2  O   H1  H2  O   H1  H2  O   H1  H2  O   H1  H2  O   H1  H2  O   H1  H2  
O   H1  H2  O   H1  H2  O   H1  H2  O   H1  H2  O   H1  H2  O   H1  H2  O   H1  
H2  O   H1  H2  O   H1  H2  O   H1  H2  O   H1  H2  O   H1  H2  O   H1  H2  O   
H1  H2  O   H1  H2  O   H1  H2  O   H1  H2  O   H1  H2  O   H1  H2  O   H1  H2  
O   H1  H2  O   H1  H2  O   H1  H2  O   H1  H2  O   H1  H2  O   H1  H2  O   H1  
H2  O   H1  H2  O   H1  H2  O   H1  H2  O   H1  H2  O   H1  H2  O   H1  H2  O   
H1  H2  O   H1  H2  O   H1  H2  O   H1  H2  O   H1  H2  O   H1  H2  O   H1  H2  
O   H1  H2  O   H1  H2  O   H1  H2  O   H1  H2  O   H1  H2  O   H1  H2  O   H1  
H2  O   H1  H2  O   H1  H2  O   H1  H2  O   H1  H2  O   H1  H2  O   H1  H2  O   
H1  H2  O   H1  H2  O   H1  H2  O   H1  H2  O   H1  H2  O   H1  H2  O   H1  H2  
O   H1  H2  O   H1  H2  O   H1  H2  O   H1  H2  O   H1  H2  O   H1  H2  O   H1  
H2  O   H1  H2  O   H1  H2  O   H1  H2  O   H1  H2  O   H1  H2  O   H1  H2  O   
H1  H2  O   H1  H2  O   H1  H2  O   H1  H2  O   H1  H2  O   H1  H2  O   H1  H2  
O   H1  H2  O   H1  H2  O   H1  H2  O   H1  H2  O   H1  H2  O   H1  H2  O   H1  
H2  O   H1  H2  O   H1  H2  O   H1  H2  O   H1  H2  O   H1  H2  O   H1  H2  O   
H1  H2  O   H1  H2  O   H1  H2  O   H1  H2  O   H1  H2  O   H1  H2  O   H1  H2  
O   H1  H2  O   H1  H2  O   H1  H2  O   H1  H2  O   H1  H2  O   H1  H2  O   H1  
H2  O   H1  H2  O   H1  H2  O   H1  H2  O   H1  H2  O   H1  H2  O   H1  H2  O   
H1  H2  O   H1  H2  O   H1  H2  O   H1  H2  O   H1  H2  O   H1  H2  O   H1  H2  
O   H1  H2  O   H1  H2  O   H1  H2  O   H1  H2  O   H1  H2  O   H1  H2  O   H1  
H2  O   H1  H2  O   H1  H2  O   H1  H2  O   H1  H2  O   H1  H2  O   H1  H2  O   
H1  H2  O   H1  H2  O   H1  H2  O   H1  H2  O   H1  H2  O   H1  H2  O   H1  H2  
O   H1  H2  O   H1  H2  O   H1  H2  O   H1  H2  O   H1  H2  O   H1  H2  O   H1  
H2  O   H1  H2  O   H1  H2  O   H1  H2  O   H1  H2  O   H1  H2  O   H1  H2  O   
H1  H2  O   H1  H2  O   H1  H2  O   H1  H2  O   H1  H2  O   H1  H2  O   H1  H2  
O   H1  H2  O   H1  H2  O   H1  H2  O   H1  H2  O   H1  H2  O   H1  H2  O   H1  
H2  O   H1  H2  O   H1  H2  O   H1  H2  O   H1  H2  O   H1  H2  O   H1  H2  O   
H1  H2  O   H1  H2  O   H1  H2  O   H1  H2  O   H1  H2  O   H1  H2  O   H1  H2  
O   H1  H2  O   H1  H2  O   H1  H2  O   H1  H2  O   H1  H2  O   H1  H2  O   H1  
H2  O   H1  H2  O   H1  H2  O   H1  H2  O   H1  H2  O   H1  H2  O   H1  H2  O   
H1  H2  O   H1  H2  O   H1  H2  O   H1  H2  O   H1  H2  O   H1  H2  O   H1  H2  
O   H1  H2  O   H1  H2  O   H1  H2  O   H1  H2  O   H1  H2  O   H1  H2  O   H1  
H2  O   H1  H2  O   H1  H2  O   H1  H2  O   H1  H2  O   H1  H2  O   H1  H2  O   
H1  H2  O   H1  H2  O   H1  H2  O   H1  H2  O   H1  H2  O   H1  H2  O   H1  H2  
O   H1  H2  O   H1  H2  O   H1  H2  O   H1  H2  O   H1  H2  O   H1  H2  O   H1  
H2  O   H1  H2  O   H1  H2  O   H1  H2  O   H1  H2  O   H1  H2  O   H1  H2  O   
H1  H2  O   H1  H2  O   H1  H2  O   H1  H2  O   H1  H2  O   H1  H2  O   H1  H2  
O   H1  H2  O   H1  H2  O   H1  H2  O   H1  H2  O   H1  H2  O   H1  H2  O   H1  
H2  O   H1  H2  O   H1  H2  O   H1  H2  O   H1  H2  O   H1  H2  O   H1  H2  O   
H1  H2  O   H1  H2  O   H1  H2  O   H1  H2  O   H1  H2  O   H1  H2  O   H1  H2  
O   H1  H2  O   H1  H2  O   H1  H2  O   H1  H2  O   H1  H2  O   H1  H2  O   H1  
H2  O   H1  H2  O   H1  H2  O   H1  H2  O   H1  H2  O   H1  H2  O   H1  H2  O   
H1  H2  O   H1  H2  O   H1  H2  O   H1  H2  O   H1  H2  O   H1  H2  O   H1  H2  
O   H1  H2  O   H1  H2  O   H1  H2  O   H1  H2  O   H1  H2  O   H1  H2  O   H1  
H2  O   H1  H2  O   H1  H2  O   H1  H2  O   H1  H2  O   H1  H2  O   H1  H2  O   
H1  H2  O   H1  H2  O   H1  H2  O   H1  H2  O   H1  H2  O   H1  H2  O   H1  H2  
O   H1  H2  O   H1  H2  O   H1  H2  O   H1  H2  O   H1  H2  O   H1  H2  O   H1  
H2  O   H1  H2  O   H1  H2  O   H1  H2  O   H1  H2  O   H1  H2  O   H1  H2  O   
H1  H2  O   H1  H2  O   H1  H2  O   H1  H2  O   H1  H2  O   H1  H2  O   H1  H2  
O   H1  H2  O   H1  H2  O   H1  H2  O   H1  H2  O   H1  H2  O   H1  H2  O   H1  
H2  O   H1  H2  O   H1  H2  O   H1  H2  O   H1  H2  O   H1  H2  O   H1  H2  O   
H1  H2  O   H1  H2  O   H1  H2  O   H1  H2  O   H1  H2  O   H1  H2  O   H1  H2  
O   H1  H2  O   H1  H2  O   H1  H2  O   H1  H2  O   H1  H2  O   H1  H2  O   H1  
H2  O   H1  H2  O   H1  H2  O   H1  H2  O   H1  H2  O   H1  H2  O   H1  H2  O   
H1  H2  O   H1  H2  O   H1  H2  O   H1  H2  O   H1  H2  O   H1  H2  O   H1  H2  
O   H1  H2  O   H1  H2  O   H1  H2  O   H1  H2  O   H1  H2  O   H1  H2  O   H1  
H2  O   H1  H2  O   H1  H2  O   H1  H2  O   H1  H2  O   H1  H2  O   H1  H2  O   
H1  H2  O   H1  H2  O   H1  H2  O   H1  H2  O   H1  H2  O   H1  H2  O   H1  H2  
O   H1  H2  O   H1  H2  O   H1  H2  O   H1  H2  O   H1  H2  O   H1  H2  O   H1  
H2  O   H1  H2  O   H1  H2  O   H1  H2  O   H1  H2  O   H1  H2  O   H1  H2  O   
H1  H2  O   H1  H2  O   H1  H2  O   H1  H2  O   H1  H2  O   H1  H2  O   H1  H2  
O   H1  H2  O   H1  H2  O   H1  H2  O   H1  H2  O   H1  H2  O   H1  H2  O   H1  
H2  O   H1  H2  O   H1  H2  O   H1  H2  O   H1  H2  O   H1  H2  O   H1  H2  O   
H1  H2  O   H1  H2  O   H1  H2  O   H1  H2  O   H1  H2  O   H1  H2  O   H1  H2  
O   H1  H2  O   H1  H2  O   H1  H2  O   H1  H2  O   H1  H2  O   H1  H2  O   H1  
H2  O   H1  H2  O   H1  H2  O   H1  H2  O   H1  H2  O   H1  H2  O   H1  H2  O   
H1  H2  O   H1  H2  O   H1  H2  O   H1  H2  O   H1  H2  O   H1  H2  O   H1  H2  
O   H1  H2  O   H1  H2  O   H1  H2  O   H1  H2  O   H1  H2  O   H1  H2  O   H1  
H2  O   H1  H2  O   H1  H2  O   H1  H2  O   H1  H2  O   H1  H2  O   H1  H2  O   
H1  H2  O   H1  H2  O   H1  H2  O   H1  H2  O   H1  H2  O   H1  H2  O   H1  H2  
O   H1  H2  O   H1  H2  O   H1  H2  O   H1  H2  O   H1  H2  O   H1  H2  O   H1  
H2  O   H1  H2  O   H1  H2  O   H1  H2  O   H1  H2  O   H1  H2  O   H1  H2  O   
H1  H2  O   H1  H2  O   H1  H2  O   H1  H2  O   H1  H2  O   H1  H2  O   H1  H2  
O   H1  H2  O   H1  H2  O   H1  H2  O   H1  H2  O   H1  H2  O   H1  H2  O   H1  
H2  O   H1  H2  O   H1  H2  O   H1  H2  O   H1  H2  O   H1  H2  O   H1  H2  O   
H1  H2  O   H1  H2  O   H1  H2  O   H1  H2  O   H1  H2  O   H1  H2  O   H1  H2  
O   H1  H2  O   H1  H2  O   H1  H2  O   H1  H2  O   H1  H2  O   H1  H2  O   H1  
H2  O   H1  H2  O   H1  H2  O   H1  H2  O   H1  H2  O   H1  H2  O   H1  H2  O   
H1  H2  O   H1  H2  O   H1  H2  O   H1  H2  O   H1  H2  O   H1  H2  O   H1  H2  
O   H1  H2  O   H1  H2  O   H1  H2  O   H1  H2  O   H1  H2  O   H1  H2  O   H1  
H2  O   H1  H2  O   H1  H2  O   H1  H2  O   H1  H2  O   H1  H2  O   H1  H2  O   
H1  H2  O   H1  H2  O   H1  H2  O   H1  H2  O   H1  H2  O   H1  H2  O   H1  H2  
O   H1  H2  O   H1  H2  O   H1  H2  O   H1  H2  O   H1  H2  O   H1  H2  O   H1  
H2  O   H1  H2  O   H1  H2  O   H1  H2  O   H1  H2  O   H1  H2  O   H1  H2  O   
H1  H2  O   H1  H2  O   H1  H2  O   H1  H2  O   H1  H2  O   H1  H2  O   H1  H2  
O   H1  H2  O   H1  H2  O   H1  H2  O   H1  H2  O   H1  H2  O   H1  H2  O   H1  
H2  O   H1  H2  O   H1  H2  O   H1  H2  O   H1  H2  O   H1  H2  O   H1  H2  O   
H1  H2  O   H1  H2  O   H1  H2  O   H1  H2  O   H1  H2  O   H1  H2  O   H1  H2  
O   H1  H2  O   H1  H2  O   H1  H2  O   H1  H2  O   H1  H2  O   H1  H2  O   H1  
H2  O   H1  H2  O   H1  H2  O   H1  H2  O   H1  H2  O   H1  H2  O   H1  H2  O   
H1  H2  O   H1  H2  O   H1  H2  O   H1  H2  O   H1  H2  O   H1  H2  O   H1  H2  
O   H1  H2  O   H1  H2  O   H1  H2  O   H1  H2  O   H1  H2  O   H1  H2  O   H1  
H2  O   H1  H2  O   H1  H2  O   H1  H2  O   H1  H2  O   H1  H2  O   H1  H2  O   
H1  H2  O   H1  H2  O   H1  H2  O   H1  H2  O   H1  H2  O   H1  H2  O   H1  H2  
O   H1  H2  O   H1  H2  O   H1  H2  O   H1  H2  O   H1  H2  O   H1  H2  O   H1  
H2  O   H1  H2  O   H1  H2  O   H1  H2  O   H1  H2  O   H1  H2  O   H1  H2  O   
H1  H2  O   H1  H2  O   H1  H2  O   H1  H2  O   H1  H2  O   H1  H2  O   H1  H2  
O   H1  H2  O   H1  H2  O   H1  H2  O   H1  H2  O   H1  H2  O   H1  H2  O   H1  
H2  O   H1  H2  O   H1  H2  O   H1  H2  O   H1  H2  O   H1  H2  O   H1  H2  O   
H1  H2  O   H1  H2  O   H1  H2  O   H1  H2  O   H1  H2  O   H1  H2  O   H1  H2  
O   H1  H2  O   H1  H2  O   H1  H2  O   H1  H2  O   H1  H2  O   H1  H2  O   H1  
H2  O   H1  H2  O   H1  H2  O   H1  H2  O   H1  H2  O   H1  H2  O   H1  H2  O   
H1  H2  O   H1  H2  O   H1  H2  O   H1  H2  O   H1  H2  O   H1  H2  O   H1  H2  
O   H1  H2  O   H1  H2  O   H1  H2  O   H1  H2  O   H1  H2  O   H1  H2  O   H1  
H2  O   H1  H2  O   H1  H2  O   H1  H2  O   H1  H2  O   H1  H2  O   H1  H2  O   
H1  H2  O   H1  H2  O   H1  H2  O   H1  H2  O   H1  H2  O   H1  H2  O   H1  H2  
O   H1  H2  O   H1  H2  O   H1  H2  O   H1  H2  O   H1  H2  O   H1  H2  O   H1  
H2  O   H1  H2  O   H1  H2  O   H1  H2  O   H1  H2  O   H1  H2  O   H1  H2  O   
H1  H2  O   H1  H2  O   H1  H2  O   H1  H2  O   H1  H2  O   H1  H2  O   H1  H2  
O   H1  H2  O   H1  H2  O   H1  H2  O   H1  H2  O   H1  H2  O   H1  H2  O   H1  
H2  O   H1  H2  O   H1  H2  O   H1  H2  O   H1  H2  O   H1  H2  O   H1  H2  O   
H1  H2  O   H1  H2  O   H1  H2  O   H1  H2  O   H1  H2  O   H1  H2  O   H1  H2  
O   H1  H2  O   H1  H2  O   H1  H2  O   H1  H2  O   H1  H2  O   H1  H2  O   H1  
H2  O   H1  H2  O   H1  H2  O   H1  H2  O   H1  H2  O   H1  H2  O   H1  H2  O   
H1  H2  O   H1  H2  O   H1  H2  O   H1  H2  O   H1  H2  O   H1  H2  O   H1  H2  
O   H1  H2  O   H1  H2  O   H1  H2  O   H1  H2  O   H1  H2  O   H1  H2  O   H1  
H2  O   H1  H2  O   H1  H2  O   H1  H2  O   H1  H2  O   H1  H2  O   H1  H2  O   
H1  H2  O   H1  H2  O   H1  H2  O   H1  H2  O   H1  H2  O   H1  H2  O   H1  H2  
O   H1  H2  O   H1  H2  O   H1  H2  O   H1  H2  O   H1  H2  O   H1  H2  O   H1  
H2  O   H1  H2  O   H1  H2  O   H1  H2  O   H1  H2  O   H1  H2  O   H1  H2  O   
H1  H2  O   H1  H2  O   H1  H2  O   H1  H2  O   H1  H2  O   H1  H2  O   H1  H2  
O   H1  H2  O   H1  H2  O   H1  H2  O   H1  H2  O   H1  H2  O   H1  H2  O   H1  
H2  O   H1  H2  O   H1  H2  O   H1  H2  O   H1  H2  O   H1  H2  O   H1  H2  O   
H1  H2  O   H1  H2  O   H1  H2  O   H1  H2  O   H1  H2  O   H1  H2  O   H1  H2  
O   H1  H2  O   H1  H2  O   H1  H2  O   H1  H2  O   H1  H2  O   H1  H2  O   H1  
H2  O   H1  H2  O   H1  H2  O   H1  H2  O   H1  H2  O   H1  H2  O   H1  H2  O   
H1  H2  O   H1  H2  O   H1  H2  O   H1  H2  O   H1  H2  O   H1  H2  O   H1  H2  
O   H1  H2  O   H1  H2  O   H1  H2  O   H1  H2  O   H1  H2  O   H1  H2  O   H1  
H2  O   H1  H2  O   H1  H2  O   H1  H2  O   H1  H2  O   H1  H2  O   H1  H2  O   
H1  H2  O   H1  H2  O   H1  H2  O   H1  H2  O   H1  H2  O   H1  H2  O   H1  H2  
O   H1  H2  O   H1  H2  O   H1  H2  O   H1  H2  O   H1  H2  O   H1  H2  O   H1  
H2  O   H1  H2  O   H1  H2  O   H1  H2  O   H1  H2  O   H1  H2  O   H1  H2  O   
H1  H2  O   H1  H2  O   H1  H2  O   H1  H2  O   H1  H2  O   H1  H2  O   H1  H2  
O   H1  H2  O   H1  H2  O   H1  H2  O   H1  H2  O   H1  H2  O   H1  H2  O   H1  
H2  O   H1  H2  O   H1  H2  O   H1  H2  O   H1  H2  O   H1  H2  O   H1  H2  O   
H1  H2  O   H1  H2  O   H1  H2  O   H1  H2  O   H1  H2  O   H1  H2  O   H1  H2  
O   H1  H2  O   H1  H2  O   H1  H2  O   H1  H2  O   H1  H2  O   H1  H2  O   H1  
H2  O   H1  H2  O   H1  H2  O   H1  H2  O   H1  H2  O   H1  H2  O   H1  H2  O   
H1  H2  O   H1  H2  O   H1  H2  O   H1  H2  O   H1  H2  O   H1  H2  O   H1  H2  
O   H1  H2  O   H1  H2  O   H1  H2  O   H1  H2  O   H1  H2  O   H1  H2  O   H1  
H2  O   H1  H2  O   H1  H2  O   H1  H2  O   H1  H2  O   H1  H2  O   H1  H2  O   
H1  H2  O   H1  H2  O   H1  H2  O   H1  H2  O   H1  H2  O   H1  H2  O   H1  H2  
O   H1  H2  O   H1  H2  O   H1  H2  O   H1  H2  O   H1  H2  O   H1  H2  O   H1  
H2  O   H1  H2  O   H1  H2  O   H1  H2  O   H1  H2  O   H1  H2  O   H1  H2  O   
H1  H2  O   H1  H2  O   H1  H2  O   H1  H2  O   H1  H2  O   H1  H2  O   H1  H2  
O   H1  H2  O   H1  H2  O   H1  H2  O   H1  H2  O   H1  H2  O   H1  H2  O   H1  
H2  O   H1  H2  O   H1  H2  O   H1  H2  O   H1  H2  O   H1  H2  O   H1  H2  O   
H1  H2  O   H1  H2  O   H1  H2  O   H1  H2  O   H1  H2  O   H1  H2  O   H1  H2  
O   H1  H2  O   H1  H2  O   H1  H2  O   H1  H2  O   H1  H2  O   H1  H2  O   H1  
H2  O   H1  H2  O   H1  H2  O   H1  H2  O   H1  H2  O   H1  H2  O   H1  H2  O   
H1  H2  O   H1  H2  O   H1  H2  O   H1  H2  O   H1  H2  O   H1  H2  O   H1  H2  
O   H1  H2  O   H1  H2  O   H1  H2  O   H1  H2  O   H1  H2  O   H1  H2  O   H1  
H2  O   H1  H2  O   H1  H2  O   H1  H2  O   H1  H2  O   H1  H2  O   H1  H2  O   
H1  H2  O   H1  H2  O   H1  H2  O   H1  H2  O   H1  H2  O   H1  H2  O   H1  H2  
O   H1  H2  O   H1  H2  O   H1  H2  O   H1  H2  O   H1  H2  O   H1  H2  O   H1  
H2  O   H1  H2  O   H1  H2  O   H1  H2  O   H1  H2  O   H1  H2  O   H1  H2  O   
H1  H2  O   H1  H2  O   H1  H2  O   H1  H2  O   H1  H2  O   H1  H2  O   H1  H2  
O   H1  H2  O   H1  H2  O   H1  H2  O   H1  H2  O   H1  H2  O   H1  H2  O   H1  
H2  O   H1  H2  O   H1  H2  O   H1  H2  O   H1  H2  O   H1  H2  O   H1  H2  O   
H1  H2  O   H1  H2  O   H1  H2  O   H1  H2  O   H1  H2  O   H1  H2  O   H1  H2  
O   H1  H2  O   H1  H2  O   H1  H2  O   H1  H2  O   H1  H2  O   H1  H2  O   H1  
H2  O   H1  H2  O   H1  H2  O   H1  H2  O   H1  H2  O   H1  H2  O   H1  H2  O   
H1  H2  O   H1  H2  O   H1  H2  O   H1  H2  O   H1  H2  O   H1  H2  O   H1  H2  
O   H1  H2  O   H1  H2  O   H1  H2  O   H1  H2  O   H1  H2  O   H1  H2  O   H1  
H2  O   H1  H2  O   H1  H2  O   H1  H2  O   H1  H2  O   H1  H2  O   H1  H2  O   
H1  H2  O   H1  H2  O   H1  H2  O   H1  H2  O   H1  H2  O   H1  H2  O   H1  H2  
O   H1  H2  O   H1  H2  O   H1  H2  O   H1  H2  O   H1  H2  O   H1  H2  O   H1  
H2  O   H1  H2  O   H1  H2  O   H1  H2  O   H1  H2  O   H1  H2  O   H1  H2  O   
H1  H2  O   H1  H2  O   H1  H2  O   H1  H2  O   H1  H2  O   H1  H2  O   H1  H2  
O   H1  H2  O   H1  H2  O   H1  H2  O   H1  H2  O   H1  H2  O   H1  H2  O   H1  
H2  O   H1  H2  O   H1  H2  O   H1  H2  O   H1  H2  O   H1  H2  O   H1  H2  O   
H1  H2  O   H1  H2  O   H1  H2  O   H1  H2  O   H1  H2  O   H1  H2  O   H1  H2  
O   H1  H2  O   H1  H2  O   H1  H2  O   H1  H2  O   H1  H2  O   H1  H2  O   H1  
H2  O   H1  H2  O   H1  H2  O   H1  H2  O   H1  H2  O   H1  H2  O   H1  H2  O   
H1  H2  O   H1  H2  O   H1  H2  O   H1  H2  O   H1  H2  O   H1  H2  O   H1  H2  
O   H1  H2  O   H1  H2  O   H1  H2  O   H1  H2  O   H1  H2  O   H1  H2  O   H1  
H2  O   H1  H2  O   H1  H2  O   H1  H2  O   H1  H2  O   H1  H2  O   H1  H2  O   
H1  H2  O   H1  H2  O   H1  H2  O   H1  H2  O   H1  H2  O   H1  H2  O   H1  H2  
O   H1  H2  O   H1  H2  O   H1  H2  O   H1  H2  O   H1  H2  O   H1  H2  O   H1  
H2  O   H1  H2  O   H1  H2  O   H1  H2  O   H1  H2  O   H1  H2  O   H1  H2  O   
H1  H2  O   H1  H2  O   H1  H2  O   H1  H2  O   H1  H2  O   H1  H2  O   H1  H2  
O   H1  H2  O   H1  H2  O   H1  H2  O   H1  H2  O   H1  H2  O   H1  H2  O   H1  
H2  O   H1  H2  O   H1  H2  O   H1  H2  O   H1  H2  O   H1  H2  O   H1  H2  O   
H1  H2  O   H1  H2  O   H1  H2  O   H1  H2  O   H1  H2  O   H1  H2  O   H1  H2  
O   H1  H2  O   H1  H2  O   H1  H2  O   H1  H2  O   H1  H2  O   H1  H2  O   H1  
H2  O   H1  H2  O   H1  H2  O   H1  H2  O   H1  H2  O   H1  H2  O   H1  H2  O   
H1  H2  O   H1  H2  O   H1  H2  O   H1  H2  O   H1  H2  O   H1  H2  O   H1  H2  
O   H1  H2  O   H1  H2  O   H1  H2  O   H1  H2  O   H1  H2  O   H1  H2  O   H1  
H2  O   H1  H2  O   H1  H2  O   H1  H2  O   H1  H2  O   H1  H2  O   H1  H2  O   
H1  H2  O   H1  H2  O   H1  H2  O   H1  H2  O   H1  H2  O   H1  H2  O   H1  H2  
O   H1  H2  O   H1  H2  O   H1  H2  O   H1  H2  O   H1  H2  O   H1  H2  O   H1  
H2  O   H1  H2  O   H1  H2  O   H1  H2  O   H1  H2  O   H1  H2  O   H1  H2  O   
H1  H2  O   H1  H2  O   H1  H2  O   H1  H2  O   H1  H2  O   H1  H2  O   H1  H2  
O   H1  H2  O   H1  H2  O   H1  H2  O   H1  H2  O   H1  H2  O   H1  H2  O   H1  
H2  O   H1  H2  O   H1  H2  O   H1  H2  O   H1  H2  O   H1  H2  O   H1  H2  O   
H1  H2  O   H1  H2  O   H1  H2  O   H1  H2  O   H1  H2  O   H1  H2  O   H1  H2  
O   H1  H2  O   H1  H2  O   H1  H2  O   H1  H2  O   H1  H2  O   H1  H2  O   H1  
H2  O   H1  H2  O   H1  H2  O   H1  H2  O   H1  H2  O   H1  H2  O   H1  H2  O   
H1  H2  O   H1  H2  O   H1  H2  O   H1  H2  O   H1  H2  O   H1  H2  O   H1  H2  
O   H1  H2  O   H1  H2  O   H1  H2  O   H1  H2  O   H1  H2  O   H1  H2  O   H1  
H2  O   H1  H2  O   H1  H2  O   H1  H2  O   H1  H2  O   H1  H2  O   H1  H2  O   
H1  H2  O   H1  H2  O   H1  H2  O   H1  H2  O   H1  H2  O   H1  H2  O   H1  H2  
O   H1  H2  O   H1  H2  O   H1  H2  O   H1  H2  O   H1  H2  O   H1  H2  O   H1  
H2  O   H1  H2  O   H1  H2  O   H1  H2  O   H1  H2  O   H1  H2  O   H1  H2  O   
H1  H2  O   H1  H2  O   H1  H2  O   H1  H2  O   H1  H2  O   H1  H2  O   H1  H2  
O   H1  H2  O   H1  H2  O   H1  H2  O   H1  H2  O   H1  H2  O   H1  H2  O   H1  
H2  O   H1  H2  O   H1  H2  O   H1  H2  O   H1  H2  O   H1  H2  O   H1  H2  O   
H1  H2  O   H1  H2  O   H1  H2  O   H1  H2  O   H1  H2  O   H1  H2  O   H1  H2  
O   H1  H2  O   H1  H2  O   H1  H2  O   H1  H2  O   H1  H2  O   H1  H2  O   H1  
H2  O   H1  H2  O   H1  H2  O   H1  H2  O   H1  H2  O   H1  H2  O   H1  H2  O   
H1  H2  O   H1  H2  O   H1  H2  O   H1  H2  O   H1  H2  O   H1  H2  O   H1  H2  
O   H1  H2  O   H1  H2  O   H1  H2  O   H1  H2  O   H1  H2  O   H1  H2  O   H1  
H2  O   H1  H2  O   H1  H2  O   H1  H2  O   H1  H2  O   H1  H2  O   H1  H2  O   
H1  H2  O   H1  H2  O   H1  H2  O   H1  H2  O   H1  H2  O   H1  H2  O   H1  H2  
O   H1  H2  O   H1  H2  O   H1  H2  O   H1  H2  O   H1  H2  O   H1  H2  O   H1  
H2  O   H1  H2  O   H1  H2  O   H1  H2  O   H1  H2  O   H1  H2  O   H1  H2  O   
H1  H2  O   H1  H2  O   H1  H2  O   H1  H2  O   H1  H2  O   H1  H2  O   H1  H2  
O   H1  H2  O   H1  H2  O   H1  H2  O   H1  H2  O   H1  H2  O   H1  H2  O   H1  
H2  O   H1  H2  O   H1  H2  O   H1  H2  O   H1  H2  O   H1  H2  O   H1  H2  O   
H1  H2  O   H1  H2  O   H1  H2  O   H1  H2  O   H1  H2  O   H1  H2  O   H1  H2  
O   H1  H2  O   H1  H2  O   H1  H2  O   H1  H2  O   H1  H2  O   H1  H2  O   H1  
H2  O   H1  H2  O   H1  H2  O   H1  H2  O   H1  H2  O   H1  H2  O   H1  H2  O   
H1  H2  O   H1  H2  O   H1  H2  O   H1  H2  O   H1  H2  O   H1  H2  O   H1  H2  
O   H1  H2  O   H1  H2  O   H1  H2  O   H1  H2  O   H1  H2  O   H1  H2  O   H1  
H2  O   H1  H2  O   H1  H2  O   H1  H2  O   H1  H2  O   H1  H2  O   H1  H2  O   
H1  H2  O   H1  H2  O   H1  H2  O   H1  H2  O   H1  H2  O   H1  H2  O   H1  H2  
O   H1  H2  O   H1  H2  O   H1  H2  O   H1  H2  O   H1  H2  O   H1  H2  O   H1  
H2  O   H1  H2  O   H1  H2  O   H1  H2  O   H1  H2  O   H1  H2  O   H1  H2  O   
H1  H2  O   H1  H2  O   H1  H2  O   H1  H2  O   H1  H2  O   H1  H2  O   H1  H2  
O   H1  H2  O   H1  H2  O   H1  H2  O   H1  H2  O   H1  H2  O   H1  H2  O   H1  
H2  O   H1  H2  O   H1  H2  O   H1  H2  O   H1  H2  O   H1  H2  O   H1  H2  O   
H1  H2  O   H1  H2  O   H1  H2  O   H1  H2  O   H1  H2  O   H1  H2  O   H1  H2  
O   H1  H2  O   H1  H2  O   H1  H2  O   H1  H2  O   H1  H2  O   H1  H2  O   H1  
H2  O   H1  H2  O   H1  H2  O   H1  H2  O   H1  H2  O   H1  H2  O   H1  H2  O   
H1  H2  O   H1  H2  O   H1  H2  O   H1  H2  O   H1  H2  O   H1  H2  O   H1  H2  
O   H1  H2  O   H1  H2  O   H1  H2  O   H1  H2  O   H1  H2  O   H1  H2  O   H1  
H2  O   H1  H2  O   H1  H2  O   H1  H2  O   H1  H2  O   H1  H2  O   H1  H2  O   
H1  H2  O   H1  H2  O   H1  H2  O   H1  H2  O   H1  H2  O   H1  H2  O   H1  H2  
O   H1  H2  O   H1  H2  O   H1  H2  O   H1  H2  O   H1  H2  O   H1  H2  O   H1  
H2  O   H1  H2  O   H1  H2  O   H1  H2  O   H1  H2  O   H1  H2  O   H1  H2  O   
H1  H2  O   H1  H2  O   H1  H2  O   H1  H2  O   H1  H2  O   H1  H2  O   H1  H2  
O   H1  H2  O   H1  H2  O   H1  H2  O   H1  H2  O   H1  H2  O   H1  H2  O   H1  
H2  O   H1  H2  O   H1  H2  O   H1  H2  O   H1  H2  O   H1  H2  O   H1  H2  O   
H1  H2  O   H1  H2  O   H1  H2  O   H1  H2  O   H1  H2  O   H1  H2  O   H1  H2  
O   H1  H2  O   H1  H2  O   H1  H2  O   H1  H2  O   H1  H2  O   H1  H2  O   H1  
H2  O   H1  H2  O   H1  H2  O   H1  H2  O   H1  H2  O   H1  H2  O   H1  H2  O   
H1  H2  O   H1  H2  O   H1  H2  O   H1  H2  O   H1  H2  O   H1  H2  O   H1  H2  
O   H1  H2  O   H1  H2  O   H1  H2  O   H1  H2  O   H1  H2  O   H1  H2  O   H1  
H2  O   H1  H2  O   H1  H2  O   H1  H2  O   H1  H2  O   H1  H2  O   H1  H2  O   
H1  H2  O   H1  H2  O   H1  H2  O   H1  H2  O   H1  H2  O   H1  H2  O   H1  H2  
O   H1  H2  O   H1  H2  O   H1  H2  O   H1  H2  O   H1  H2  O   H1  H2  O   H1  
H2  O   H1  H2  O   H1  H2  O   H1  H2  O   H1  H2  O   H1  H2  O   H1  H2  O   
H1  H2  O   H1  H2  O   H1  H2  O   H1  H2  O   H1  H2  O   H1  H2  O   H1  H2  
O   H1  H2  O   H1  H2  O   H1  H2  O   H1  H2  O   H1  H2  O   H1  H2  O   H1  
H2  O   H1  H2  O   H1  H2  O   H1  H2  O   H1  H2  O   H1  H2  O   H1  H2  O   
H1  H2  O   H1  H2  O   H1  H2  O   H1  H2  O   H1  H2  O   H1  H2  O   H1  H2  
O   H1  H2  O   H1  H2  O   H1  H2  O   H1  H2  O   H1  H2  O   H1  H2  O   H1  
H2  O   H1  H2  O   H1  H2  O   H1  H2  O   H1  H2  O   H1  H2  O   H1  H2  O   
H1  H2  O   H1  H2  O   H1  H2  O   H1  H2  O   H1  H2  O   H1  H2  O   H1  H2  
O   H1  H2  O   H1  H2  O   H1  H2  O   H1  H2  O   H1  H2  O   H1  H2  O   H1  
H2  O   H1  H2  O   H1  H2  O   H1  H2  O   H1  H2  O   H1  H2  O   H1  H2  O   
H1  H2  O   H1  H2  O   H1  H2  O   H1  H2  O   H1  H2  O   H1  H2  O   H1  H2  
O   H1  H2  O   H1  H2  O   H1  H2  O   H1  H2  O   H1  H2  O   H1  H2  O   H1  
H2  O   H1  H2  O   H1  H2  O   H1  H2  O   H1  H2  O   H1  H2  O   H1  H2  O   
H1  H2  O   H1  H2  O   H1  H2  O   H1  H2  O   H1  H2  O   H1  H2  O   H1  H2  
O   H1  H2  O   H1  H2  O   H1  H2  O   H1  H2  O   H1  H2  O   H1  H2  O   H1  
H2  O   H1  H2  O   H1  H2  O   H1  H2  O   H1  H2  O   H1  H2  O   H1  H2  O   
H1  H2  O   H1  H2  O   H1  H2  O   H1  H2  O   H1  H2  O   H1  H2  O   H1  H2  
O   H1  H2  O   H1  H2  O   H1  H2  O   H1  H2  O   H1  H2  O   H1  H2  O   H1  
H2  O   H1  H2  O   H1  H2  O   H1  H2  O   H1  H2  O   H1  H2  O   H1  H2  O   
H1  H2  O   H1  H2  O   H1  H2  O   H1  H2  O   H1  H2  O   H1  H2  O   H1  H2  
O   H1  H2  O   H1  H2  O   H1  H2  O   H1  H2  O   H1  H2  O   H1  H2  O   H1  
H2  O   H1  H2  O   H1  H2  O   H1  H2  O   H1  H2  O   H1  H2  O   H1  H2  O   
H1  H2  O   H1  H2  O   H1  H2  O   H1  H2  O   H1  H2  O   H1  H2  O   H1  H2  
O   H1  H2  O   H1  H2  O   H1  H2  O   H1  H2  O   H1  H2  O   H1  H2  O   H1  
H2  O   H1  H2  O   H1  H2  O   H1  H2  O   H1  H2  O   H1  H2  O   H1  H2  O   
H1  H2  O   H1  H2  O   H1  H2  O   H1  H2  O   H1  H2  O   H1  H2  O   H1  H2  
O   H1  H2  O   H1  H2  O   H1  H2  O   H1  H2  O   H1  H2  O   H1  H2  O   H1  
H2  O   H1  H2  O   H1  H2  O   H1  H2  O   H1  H2  O   H1  H2  O   H1  H2  O   
H1  H2  O   H1  H2  O   H1  H2  O   H1  H2  O   H1  H2  O   H1  H2  O   H1  H2  
O   H1  H2  O   H1  H2  O   H1  H2  O   H1  H2  O   H1  H2  O   H1  H2  O   H1  
H2  O   H1  H2  O   H1  H2  O   H1  H2  O   H1  H2  O   H1  H2  O   H1  H2  O   
H1  H2  O   H1  H2  O   H1  H2  O   H1  H2  O   H1  H2  O   H1  H2  O   H1  H2  
O   H1  H2  O   H1  H2  O   H1  H2  O   H1  H2  O   H1  H2  O   H1  H2  O   H1  
H2  O   H1  H2  O   H1  H2  O   H1  H2  O   H1  H2  O   H1  H2  O   H1  H2  O   
H1  H2  O   H1  H2  O   H1  H2  O   H1  H2  O   H1  H2  O   H1  H2  O   H1  H2  
O   H1  H2  O   H1  H2  O   H1  H2  O   H1  H2  O   H1  H2  O   H1  H2  O   H1  
H2  O   H1  H2  O   H1  H2  O   H1  H2  O   H1  H2  O   H1  H2  O   H1  H2  O   
H1  H2  O   H1  H2  O   H1  H2  O   H1  H2  O   H1  H2  O   H1  H2  O   H1  H2  
O   H1  H2  O   H1  H2  O   H1  H2  O   H1  H2  O   H1  H2  O   H1  H2  O   H1  
H2  O   H1  H2  O   H1  H2  O   H1  H2  O   H1  H2  O   H1  H2  O   H1  H2  O   
H1  H2  O   H1  H2  O   H1  H2  O   H1  H2  O   H1  H2  O   H1  H2  O   H1  H2  
O   H1  H2  O   H1  H2  O   H1  H2  O   H1  H2  O   H1  H2  O   H1  H2  O   H1  
H2  O   H1  H2  O   H1  H2  O   H1  H2  O   H1  H2  O   H1  H2  O   H1  H2  O   
H1  H2  O   H1  H2  O   H1  H2  O   H1  H2  O   H1  H2  O   H1  H2  O   H1  H2  
O   H1  H2  O   H1  H2  O   H1  H2  O   H1  H2  O   H1  H2  O   H1  H2  O   H1  
H2  O   H1  H2  O   H1  H2  O   H1  H2  O   H1  H2  O   H1  H2  O   H1  H2  O   
H1  H2  O   H1  H2  O   H1  H2  O   H1  H2  O   H1  H2  O   H1  H2  O   H1  H2  
O   H1  H2  O   H1  H2  O   H1  H2  O   H1  H2  O   H1  H2  O   H1  H2  O   H1  
H2  O   H1  H2  O   H1  H2  O   H1  H2  O   H1  H2  O   H1  H2  O   H1  H2  O   
H1  H2  O   H1  H2  O   H1  H2  O   H1  H2  O   H1  H2  O   H1  H2  O   H1  H2  
O   H1  H2  O   H1  H2  O   H1  H2  O   H1  H2  O   H1  H2  O   H1  H2  O   H1  
H2  O   H1  H2  O   H1  H2  O   H1  H2  O   H1  H2  O   H1  H2  O   H1  H2  O   
H1  H2  O   H1  H2  O   H1  H2  O   H1  H2  O   H1  H2  O   H1  H2  O   H1  H2  
O   H1  H2  O   H1  H2  O   H1  H2  O   H1  H2  O   H1  H2  O   H1  H2  O   H1  
H2  O   H1  H2  O   H1  H2  O   H1  H2  O   H1  H2  O   H1  H2  O   H1  H2  O   
H1  H2  O   H1  H2  O   H1  H2  O   H1  H2  O   H1  H2  O   H1  H2  O   H1  H2  
O   H1  H2  O   H1  H2  O   H1  H2  O   H1  H2  O   H1  H2  O   H1  H2  O   H1  
H2  O   H1  H2  O   H1  H2  O   H1  H2  O   H1  H2  O   H1  H2  O   H1  H2  O   
H1  H2  O   H1  H2  O   H1  H2  O   H1  H2  O   H1  H2  O   H1  H2  O   H1  H2  
O   H1  H2  O   H1  H2  O   H1  H2  O   H1  H2  O   H1  H2  O   H1  H2  O   H1  
H2  O   H1  H2  O   H1  H2  O   H1  H2  O   H1  H2  O   H1  H2  O   H1  H2  O   
H1  H2  O   H1  H2  O   H1  H2  O   H1  H2  O   H1  H2  O   H1  H2  O   H1  H2  
O   H1  H2  O   H1  H2  O   H1  H2  O   H1  H2  O   H1  H2  O   H1  H2  O   H1  
H2  O   H1  H2  O   H1  H2  O   H1  H2  O   H1  H2  O   H1  H2  O   H1  H2  O   
H1  H2  O   H1  H2  O   H1  H2  O   H1  H2  O   H1  H2  O   H1  H2  O   H1  H2  
O   H1  H2  O   H1  H2  O   H1  H2  O   H1  H2  O   H1  H2  O   H1  H2  O   H1  
H2  O   H1  H2  O   H1  H2  O   H1  H2  O   H1  H2  O   H1  H2  O   H1  H2  O   
H1  H2  O   H1  H2  O   H1  H2  O   H1  H2  O   H1  H2  O   H1  H2  O   H1  H2  
O   H1  H2  O   H1  H2  O   H1  H2  O   H1  H2  O   H1  H2  O   H1  H2  O   H1  
H2  O   H1  H2  O   H1  H2  O   H1  H2  O   H1  H2  O   H1  H2  O   H1  H2  O   
H1  H2  O   H1  H2  O   H1  H2  O   H1  H2  O   H1  H2  O   H1  H2  O   H1  H2  
O   H1  H2  O   H1  H2  O   H1  H2  O   H1  H2  O   H1  H2  O   H1  H2  O   H1  
H2  O   H1  H2  O   H1  H2  O   H1  H2  O   H1  H2  O   H1  H2  O   H1  H2  O   
H1  H2  O   H1  H2  O   H1  H2  O   H1  H2  O   H1  H2  O   H1  H2  O   H1  H2  
O   H1  H2  O   H1  H2  O   H1  H2  O   H1  H2  O   H1  H2  O   H1  H2  O   H1  
H2  O   H1  H2  O   H1  H2  O   H1  H2  O   H1  H2  O   H1  H2  O   H1  H2  O   
H1  H2  O   H1  H2  O   H1  H2  O   H1  H2  O   H1  H2  O   H1  H2  O   H1  H2  
O   H1  H2  O   H1  H2  O   H1  H2  O   H1  H2  O   H1  H2  O   H1  H2  O   H1  
H2  O   H1  H2  O   H1  H2  O   H1  H2  O   H1  H2  O   H1  H2  O   H1  H2  O   
H1  H2  O   H1  H2  O   H1  H2  O   H1  H2  O   H1  H2  O   H1  H2  O   H1  H2  
O   H1  H2  O   H1  H2  O   H1  H2  O   H1  H2  O   H1  H2  O   H1  H2  O   H1  
H2  O   H1  H2  O   H1  H2  O   H1  H2  O   H1  H2  O   H1  H2  O   H1  H2  O   
H1  H2  O   H1  H2  O   H1  H2  O   H1  H2  O   H1  H2  O   H1  H2  O   H1  H2  
O   H1  H2  O   H1  H2  O   H1  H2  O   H1  H2  O   H1  H2  O   H1  H2  O   H1  
H2  O   H1  H2  O   H1  H2  O   H1  H2  O   H1  H2  O   H1  H2  O   H1  H2  O   
H1  H2  O   H1  H2  O   H1  H2  O   H1  H2  O   H1  H2  O   H1  H2  O   H1  H2  
O   H1  H2  O   H1  H2  O   H1  H2  O   H1  H2  O   H1  H2  O   H1  H2  O   H1  
H2  O   H1  H2  O   H1  H2  O   H1  H2  O   H1  H2  O   H1  H2  O   H1  H2  O   
H1  H2  O   H1  H2  O   H1  H2  O   H1  H2  O   H1  H2  O   H1  H2  O   H1  H2  
O   H1  H2  O   H1  H2  O   H1  H2  O   H1  H2  O   H1  H2  O   H1  H2  O   H1  
H2  O   H1  H2  O   H1  H2  O   H1  H2  O   H1  H2  O   H1  H2  O   H1  H2  O   
H1  H2  O   H1  H2  O   H1  H2  O   H1  H2  O   H1  H2  O   H1  H2  O   H1  H2  
O   H1  H2  O   H1  H2  O   H1  H2  O   H1  H2  O   H1  H2  O   H1  H2  O   H1  
H2  O   H1  H2  O   H1  H2  O   H1  H2  O   H1  H2  O   H1  H2  O   H1  H2  O   
H1  H2  O   H1  H2  O   H1  H2  O   H1  H2  O   H1  H2  O   H1  H2  O   H1  H2  
O   H1  H2  O   H1  H2  O   H1  H2  O   H1  H2  O   H1  H2  O   H1  H2  O   H1  
H2  O   H1  H2  O   H1  H2  O   H1  H2  O   H1  H2  O   H1  H2  O   H1  H2  O   
H1  H2  O   H1  H2  O   H1  H2  O   H1  H2  O   H1  H2  O   H1  H2  O   H1  H2  
O   H1  H2  O   H1  H2  O   H1  H2  O   H1  H2  O   H1  H2  O   H1  H2  O   H1  
H2  O   H1  H2  O   H1  H2  O   H1  H2  O   H1  H2  O   H1  H2  O   H1  H2  O   
H1  H2  O   H1  H2  O   H1  H2  O   H1  H2  O   H1  H2  O   H1  H2  O   H1  H2  
O   H1  H2  O   H1  H2  O   H1  H2  O   H1  H2  O   H1  H2  O   H1  H2  O   H1  
H2  O   H1  H2  O   H1  H2  O   H1  H2  O   H1  H2  O   H1  H2  O   H1  H2  O   
H1  H2  O   H1  H2  O   H1  H2  O   H1  H2  O   H1  H2  O   H1  H2  O   H1  H2  
O   H1  H2  O   H1  H2  O   H1  H2  O   H1  H2  O   H1  H2  O   H1  H2  O   H1  
H2  O   H1  H2  O   H1  H2  O   H1  H2  O   H1  H2  O   H1  H2  O   H1  H2  O   
H1  H2  O   H1  H2  O   H1  H2  O   H1  H2  O   H1  H2  O   H1  H2  O   H1  H2  
O   H1  H2  O   H1  H2  O   H1  H2  O   H1  H2  O   H1  H2  O   H1  H2  O   H1  
H2  O   H1  H2  O   H1  H2  O   H1  H2  O   H1  H2  O   H1  H2  O   H1  H2  O   
H1  H2  O   H1  H2  O   H1  H2  O   H1  H2  O   H1  H2  O   H1  H2  O   H1  H2  
O   H1  H2  O   H1  H2  O   H1  H2  O   H1  H2  O   H1  H2  O   H1  H2  O   H1  
H2  O   H1  H2  O   H1  H2  O   H1  H2  O   H1  H2  O   H1  H2  O   H1  H2  O   
H1  H2  O   H1  H2  O   H1  H2  O   H1  H2  O   H1  H2  O   H1  H2  O   H1  H2  
O   H1  H2  O   H1  H2  O   H1  H2  O   H1  H2  O   H1  H2  O   H1  H2  O   H1  
H2  O   H1  H2  O   H1  H2  O   H1  H2  O   H1  H2  O   H1  H2  O   H1  H2  O   
H1  H2  O   H1  H2  O   H1  H2  O   H1  H2  O   H1  H2  O   H1  H2  O   H1  H2  
O   H1  H2  O   H1  H2  O   H1  H2  O   H1  H2  O   H1  H2  O   H1  H2  O   H1  
H2  O   H1  H2  O   H1  H2  O   H1  H2  O   H1  H2  O   H1  H2  O   H1  H2  O   
H1  H2  O   H1  H2  O   H1  H2  O   H1  H2  O   H1  H2  O   H1  H2  O   H1  H2  
O   H1  H2  O   H1  H2  O   H1  H2  O   H1  H2  O   H1  H2  O   H1  H2  O   H1  
H2  O   H1  H2  O   H1  H2  O   H1  H2  O   H1  H2  O   H1  H2  O   H1  H2  O   
H1  H2  O   H1  H2  O   H1  H2  O   H1  H2  O   H1  H2  O   H1  H2  O   H1  H2  
O   H1  H2  O   H1  H2  O   H1  H2  O   H1  H2  O   H1  H2  O   H1  H2  O   H1  
H2  O   H1  H2  O   H1  H2  O   H1  H2  O   H1  H2  O   H1  H2  O   H1  H2  O   
H1  H2  O   H1  H2  O   H1  H2  O   H1  H2  O   H1  H2  O   H1  H2  O   H1  H2  
O   H1  H2  O   H1  H2  O   H1  H2  O   H1  H2  O   H1  H2  O   H1  H2  O   H1  
H2  O   H1  H2  O   H1  H2  O   H1  H2  O   H1  H2  O   H1  H2  O   H1  H2  O   
H1  H2  O   H1  H2  O   H1  H2  O   H1  H2  O   H1  H2  O   H1  H2  O   H1  H2  
O   H1  H2  O   H1  H2  O   H1  H2  O   H1  H2  O   H1  H2  O   H1  H2  O   H1  
H2  O   H1  H2  O   H1  H2  O   H1  H2  O   H1  H2  O   H1  H2  O   H1  H2  O   
H1  H2  O   H1  H2  O   H1  H2  O   H1  H2  O   H1  H2  O   H1  H2  O   H1  H2  
O   H1  H2  O   H1  H2  O   H1  H2  O   H1  H2  O   H1  H2  O   H1  H2  O   H1  
H2  O   H1  H2  O   H1  H2  O   H1  H2  O   H1  H2  O   H1  H2  O   H1  H2  O   
H1  H2  O   H1  H2  O   H1  H2  O   H1  H2  O   H1  H2  O   H1  H2  O   H1  H2  
O   H1  H2  O   H1  H2  O   H1  H2  O   H1  H2  O   H1  H2  O   H1  H2  O   H1  
H2  O   H1  H2  O   H1  H2  O   H1  H2  O   H1  H2  O   H1  H2  O   H1  H2  O   
H1  H2  O   H1  H2  O   H1  H2  O   H1  H2  O   H1  H2  O   H1  H2  O   H1  H2  
O   H1  H2  O   H1  H2  O   H1  H2  O   H1  H2  O   H1  H2  O   H1  H2  O   H1  
H2  O   H1  H2  O   H1  H2  O   H1  H2  O   H1  H2  O   H1  H2  O   H1  H2  O   
H1  H2  O   H1  H2  O   H1  H2  O   H1  H2  O   H1  H2  O   H1  H2  O   H1  H2  
O   H1  H2  O   H1  H2  O   H1  H2  O   H1  H2  O   H1  H2  O   H1  H2  O   H1  
H2  O   H1  H2  O   H1  H2  O   H1  H2  O   H1  H2  O   H1  H2  O   H1  H2  O   
H1  H2  O   H1  H2  O   H1  H2  O   H1  H2  O   H1  H2  O   H1  H2  O   H1  H2  
O   H1  H2  O   H1  H2  O   H1  H2  O   H1  H2  O   H1  H2  O   H1  H2  O   H1  
H2  O   H1  H2  O   H1  H2  O   H1  H2  O   H1  H2  O   H1  H2  O   H1  H2  O   
H1  H2  O   H1  H2  O   H1  H2  O   H1  H2  O   H1  H2  O   H1  H2  O   H1  H2  
O   H1  H2  O   H1  H2  O   H1  H2  O   H1  H2  O   H1  H2  O   H1  H2  O   H1  
H2  O   H1  H2  O   H1  H2  O   H1  H2  O   H1  H2  O   H1  H2  O   H1  H2  O   
H1  H2  O   H1  H2  O   H1  H2  O   H1  H2  O   H1  H2  O   H1  H2  O   H1  H2  
O   H1  H2  O   H1  H2  O   H1  H2  O   H1  H2  O   H1  H2  O   H1  H2  O   H1  
H2  O   H1  H2  O   H1  H2  O   H1  H2  O   H1  H2  O   H1  H2  O   H1  H2  O   
H1  H2  O   H1  H2  O   H1  H2  O   H1  H2  O   H1  H2  O   H1  H2  O   H1  H2  
O   H1  H2  O   H1  H2  O   H1  H2  O   H1  H2  O   H1  H2  O   H1  H2  O   H1  
H2  O   H1  H2  O   H1  H2  O   H1  H2  O   H1  H2  O   H1  H2  O   H1  H2  O   
H1  H2  O   H1  H2  O   H1  H2  O   H1  H2  O   H1  H2  O   H1  H2  O   H1  H2  
O   H1  H2  O   H1  H2  O   H1  H2  O   H1  H2  O   H1  H2  O   H1  H2  O   H1  
H2  O   H1  H2  O   H1  H2  O   H1  H2  O   H1  H2  O   H1  H2  O   H1  H2  O   
H1  H2  O   H1  H2  O   H1  H2  O   H1  H2  O   H1  H2  O   H1  H2  O   H1  H2  
O   H1  H2  O   H1  H2  O   H1  H2  O   H1  H2  O   H1  H2  O   H1  H2  O   H1  
H2  O   H1  H2  O   H1  H2  O   H1  H2  O   H1  H2  O   H1  H2  O   H1  H2  O   
H1  H2  O   H1  H2  O   H1  H2  O   H1  H2  O   H1  H2  O   H1  H2  O   H1  H2  
O   H1  H2  O   H1  H2  O   H1  H2  O   H1  H2  O   H1  H2  O   H1  H2  O   H1  
H2  O   H1  H2  O   H1  H2  O   H1  H2  O   H1  H2  O   H1  H2  O   H1  H2  O   
H1  H2  O   H1  H2  O   H1  H2  O   H1  H2  O   H1  H2  O   H1  H2  O   H1  H2  
O   H1  H2  O   H1  H2  O   H1  H2  O   H1  H2  O   H1  H2  O   H1  H2  O   H1  
H2  O   H1  H2  O   H1  H2  O   H1  H2  O   H1  H2  O   H1  H2  O   H1  H2  O   
H1  H2  O   H1  H2  O   H1  H2  O   H1  H2  O   H1  H2  O   H1  H2  O   H1  H2  
O   H1  H2  O   H1  H2  O   H1  H2  O   H1  H2  O   H1  H2  O   H1  H2  O   H1  
H2  O   H1  H2  O   H1  H2  O   H1  H2  O   H1  H2  O   H1  H2  O   H1  H2  O   
H1  H2  O   H1  H2  O   H1  H2  O   H1  H2  O   H1  H2  O   H1  H2  O   H1  H2  
O   H1  H2  O   H1  H2  O   H1  H2  O   H1  H2  O   H1  H2  O   H1  H2  O   H1  
H2  O   H1  H2  O   H1  H2  O   H1  H2  O   H1  H2  O   H1  H2  O   H1  H2  O   
H1  H2  O   H1  H2  O   H1  H2  O   H1  H2  O   H1  H2  O   H1  H2  O   H1  H2  
O   H1  H2  O   H1  H2  O   H1  H2  O   H1  H2  O   H1  H2  O   H1  H2  O   H1  
H2  O   H1  H2  O   H1  H2  O   H1  H2  O   H1  H2  O   H1  H2  O   H1  H2  O   
H1  H2  O   H1  H2  O   H1  H2  O   H1  H2  O   H1  H2  O   H1  H2  O   H1  H2  
O   H1  H2  O   H1  H2  O   H1  H2  O   H1  H2  O   H1  H2  O   H1  H2  O   H1  
H2  O   H1  H2  O   H1  H2  O   H1  H2  O   H1  H2  O   H1  H2  O   H1  H2  O   
H1  H2  O   H1  H2  O   H1  H2  O   H1  H2  O   H1  H2  O   H1  H2  O   H1  H2  
O   H1  H2  O   H1  H2  O   H1  H2  O   H1  H2  O   H1  H2  O   H1  H2  O   H1  
H2  O   H1  H2  O   H1  H2  O   H1  H2  O   H1  H2  O   H1  H2  O   H1  H2  O   
H1  H2  O   H1  H2  O   H1  H2  O   H1  H2  O   H1  H2  O   H1  H2  O   H1  H2  
O   H1  H2  O   H1  H2  O   H1  H2  O   H1  H2  O   H1  H2  O   H1  H2  O   H1  
H2  O   H1  H2  O   H1  H2  O   H1  H2  O   H1  H2  O   H1  H2  O   H1  H2  O   
H1  H2  O   H1  H2  O   H1  H2  O   H1  H2  O   H1  H2  O   H1  H2  O   H1  H2  
O   H1  H2  O   H1  H2  O   H1  H2  O   H1  H2  O   H1  H2  O   H1  H2  O   H1  
H2  O   H1  H2  O   H1  H2  O   H1  H2  O   H1  H2  O   H1  H2  O   H1  H2  O   
H1  H2  O   H1  H2  O   H1  H2  O   H1  H2  O   H1  H2  O   H1  H2  O   H1  H2  
O   H1  H2  O   H1  H2  O   H1  H2  O   H1  H2  O   H1  H2  O   H1  H2  O   H1  
H2  O   H1  H2  O   H1  H2  O   H1  H2  O   H1  H2  O   H1  H2  O   H1  H2  O   
H1  H2  O   H1  H2  O   H1  H2  O   H1  H2  O   H1  H2  O   H1  H2  O   H1  H2  
O   H1  H2  O   H1  H2  O   H1  H2  O   H1  H2  O   H1  H2  O   H1  H2  O   H1  
H2  O   H1  H2  O   H1  H2  O   H1  H2  O   H1  H2  O   H1  H2  O   H1  H2  O   
H1  H2  O   H1  H2  O   H1  H2  O   H1  H2  O   H1  H2  O   H1  H2  O   H1  H2  
O   H1  H2  O   H1  H2  O   H1  H2  O   H1  H2  O   H1  H2  O   H1  H2  O   H1  
H2  O   H1  H2  O   H1  H2  O   H1  H2  O   H1  H2  O   H1  H2  O   H1  H2  O   
H1  H2  O   H1  H2  O   H1  H2  O   H1  H2  O   H1  H2  O   H1  H2  O   H1  H2  
O   H1  H2  O   H1  H2  O   H1  H2  O   H1  H2  O   H1  H2  O   H1  H2  O   H1  
H2  O   H1  H2  O   H1  H2  O   H1  H2  O   H1  H2  O   H1  H2  O   H1  H2  O   
H1  H2  O   H1  H2  O   H1  H2  O   H1  H2  O   H1  H2  O   H1  H2  O   H1  H2  
O   H1  H2  O   H1  H2  O   H1  H2  O   H1  H2  O   H1  H2  O   H1  H2  O   H1  
H2  O   H1  H2  O   H1  H2  O   H1  H2  O   H1  H2  O   H1  H2  O   H1  H2  O   
H1  H2  O   H1  H2  O   H1  H2  O   H1  H2  O   H1  H2  O   H1  H2  O   H1  H2  
O   H1  H2  O   H1  H2  O   H1  H2  O   H1  H2  O   H1  H2  O   H1  H2  O   H1  
H2  O   H1  H2  O   H1  H2  O   H1  H2  O   H1  H2  O   H1  H2  O   H1  H2  O   
H1  H2  O   H1  H2  O   H1  H2  O   H1  H2  O   H1  H2  O   H1  H2  O   H1  H2  
O   H1  H2  O   H1  H2  O   H1  H2  O   H1  H2  O   H1  H2  O   H1  H2  O   H1  
H2  O   H1  H2  O   H1  H2  O   H1  H2  O   H1  H2  O   H1  H2  O   H1  H2  O   
H1  H2  O   H1  H2  O   H1  H2  O   H1  H2  O   H1  H2  O   H1  H2  O   H1  H2  
O   H1  H2  O   H1  H2  O   H1  H2  O   H1  H2  O   H1  H2  O   H1  H2  O   H1  
H2  O   H1  H2  O   H1  H2  O   H1  H2  O   H1  H2  O   H1  H2  O   H1  H2  O   
H1  H2  O   H1  H2  O   H1  H2  O   H1  H2  O   H1  H2  O   H1  H2  O   H1  H2  
O   H1  H2  O   H1  H2  O   H1  H2  O   H1  H2  O   H1  H2  O   H1  H2  O   H1  
H2  O   H1  H2  O   H1  H2  O   H1  H2  O   H1  H2  O   H1  H2  O   H1  H2  O   
H1  H2  O   H1  H2  O   H1  H2  O   H1  H2  O   H1  H2  O   H1  H2  O   H1  H2  
O   H1  H2  O   H1  H2  O   H1  H2  O   H1  H2  O   H1  H2  O   H1  H2  O   H1  
H2  O   H1  H2  O   H1  H2  O   H1  H2  O   H1  H2  O   H1  H2  O   H1  H2  O   
H1  H2  O   H1  H2  O   H1  H2  O   H1  H2  O   H1  H2  O   H1  H2  O   H1  H2  
O   H1  H2  O   H1  H2  O   H1  H2  O   H1  H2  O   H1  H2  O   H1  H2  O   H1  
H2  O   H1  H2  O   H1  H2  O   H1  H2  O   H1  H2  O   H1  H2  O   H1  H2  O   
H1  H2  O   H1  H2  O   H1  H2  O   H1  H2  O   H1  H2  O   H1  H2  O   H1  H2  
O   H1  H2  O   H1  H2  O   H1  H2  O   H1  H2  O   H1  H2  O   H1  H2  O   H1  
H2  O   H1  H2  O   H1  H2  O   H1  H2  O   H1  H2  O   H1  H2  O   H1  H2  O   
H1  H2  O   H1  H2  O   H1  H2  O   H1  H2  O   H1  H2  O   H1  H2  O   H1  H2  
O   H1  H2  O   H1  H2  O   H1  H2  O   H1  H2  O   H1  H2  O   H1  H2  O   H1  
H2  O   H1  H2  O   H1  H2  O   H1  H2  O   H1  H2  O   H1  H2  O   H1  H2  O   
H1  H2  O   H1  H2  O   H1  H2  O   H1  H2  O   H1  H2  O   H1  H2  O   H1  H2  
O   H1  H2  O   H1  H2  O   H1  H2  O   H1  H2  O   H1  H2  O   H1  H2  O   H1  
H2  O   H1  H2  O   H1  H2  O   H1  H2  O   H1  H2  O   H1  H2  O   H1  H2  O   
H1  H2  O   H1  H2  O   H1  H2  O   H1  H2  O   H1  H2  O   H1  H2  O   H1  H2  
O   H1  H2  O   H1  H2  O   H1  H2  O   H1  H2  O   H1  H2  O   H1  H2  O   H1  
H2  O   H1  H2  O   H1  H2  O   H1  H2  O   H1  H2  O   H1  H2  O   H1  H2  O   
H1  H2  O   H1  H2  O   H1  H2  O   H1  H2  O   H1  H2  O   H1  H2  O   H1  H2  
O   H1  H2  O   H1  H2  O   H1  H2  O   H1  H2  O   H1  H2  O   H1  H2  O   H1  
H2  O   H1  H2  O   H1  H2  O   H1  H2  O   H1  H2  O   H1  H2  O   H1  H2  O   
H1  H2  O   H1  H2  O   H1  H2  O   H1  H2  O   H1  H2  O   H1  H2  O   H1  H2  
O   H1  H2  O   H1  H2  O   H1  H2  O   H1  H2  O   H1  H2  O   H1  H2  O   H1  
H2  O   H1  H2  O   H1  H2  O   H1  H2  O   H1  H2  O   H1  H2  O   H1  H2  O   
H1  H2  O   H1  H2  O   H1  H2  O   H1  H2  O   H1  H2  O   H1  H2  O   H1  H2  
O   H1  H2  O   H1  H2  O   H1  H2  O   H1  H2  O   H1  H2  O   H1  H2  O   H1  
H2  O   H1  H2  O   H1  H2  O   H1  H2  O   H1  H2  O   H1  H2  O   H1  H2  O   
H1  H2  O   H1  H2  O   H1  H2  O   H1  H2  O   H1  H2  O   H1  H2  O   H1  H2  
O   H1  H2  O   H1  H2  O   H1  H2  O   H1  H2  O   H1  H2  O   H1  H2  O   H1  
H2  O   H1  H2  O   H1  H2  O   H1  H2  O   H1  H2  O   H1  H2  O   H1  H2  O   
H1  H2  O   H1  H2  O   H1  H2  O   H1  H2  O   H1  H2  O   H1  H2  O   H1  H2  
O   H1  H2  O   H1  H2  O   H1  H2  O   H1  H2  O   H1  H2  O   H1  H2  O   H1  
H2  O   H1  H2  O   H1  H2  O   H1  H2  O   H1  H2  O   H1  H2  O   H1  H2  O   
H1  H2  O   H1  H2  O   H1  H2  O   H1  H2  O   H1  H2  O   H1  H2  O   H1  H2  
O   H1  H2  O   H1  H2  O   H1  H2  O   H1  H2  O   H1  H2  O   H1  H2  O   H1  
H2  O   H1  H2  O   H1  H2  O   H1  H2  O   H1  H2  O   H1  H2  O   H1  H2  O   
H1  H2  O   H1  H2  O   H1  H2  O   H1  H2  O   H1  H2  O   H1  H2  O   H1  H2  
O   H1  H2  O   H1  H2  O   H1  H2  O   H1  H2  O   H1  H2  O   H1  H2  O   H1  
H2  O   H1  H2  O   H1  H2  O   H1  H2  O   H1  H2  O   H1  H2  O   H1  H2  O   
H1  H2  O   H1  H2  O   H1  H2  O   H1  H2  O   H1  H2  O   H1  H2  O   H1  H2  
O   H1  H2  O   H1  H2  O   H1  H2  O   H1  H2  O   H1  H2  O   H1  H2  O   H1  
H2  O   H1  H2  O   H1  H2  O   H1  H2  O   H1  H2  O   H1  H2  O   H1  H2  O   
H1  H2  O   H1  H2  O   H1  H2  O   H1  H2  O   H1  H2  O   H1  H2  O   H1  H2  
O   H1  H2  O   H1  H2  O   H1  H2  O   H1  H2  O   H1  H2  O   H1  H2  O   H1  
H2  O   H1  H2  O   H1  H2  O   H1  H2  O   H1  H2  O   H1  H2  O   H1  H2  O   
H1  H2  O   H1  H2  O   H1  H2  O   H1  H2  O   H1  H2  O   H1  H2  O   H1  H2  
O   H1  H2  O   H1  H2  O   H1  H2  O   H1  H2  O   H1  H2  O   H1  H2  O   H1  
H2  O   H1  H2  O   H1  H2  O   H1  H2  O   H1  H2  O   H1  H2  O   H1  H2  O   
H1  H2  O   H1  H2  O   H1  H2  O   H1  H2  O   H1  H2  O   H1  H2  O   H1  H2  
O   H1  H2  O   H1  H2  O   H1  H2  O   H1  H2  O   H1  H2  O   H1  H2  O   H1  
H2  O   H1  H2  O   H1  H2  O   H1  H2  O   H1  H2  O   H1  H2  O   H1  H2  O   
H1  H2  O   H1  H2  O   H1  H2  O   H1  H2  O   H1  H2  O   H1  H2  O   H1  H2  
O   H1  H2  O   H1  H2  O   H1  H2  O   H1  H2  O   H1  H2  O   H1  H2  O   H1  
H2  O   H1  H2  O   H1  H2  O   H1  H2  O   H1  H2  O   H1  H2  O   H1  H2  O   
H1  H2  O   H1  H2  O   H1  H2  O   H1  H2  O   H1  H2  O   H1  H2  O   H1  H2  
O   H1  H2  O   H1  H2  O   H1  H2  O   H1  H2  O   H1  H2  O   H1  H2  O   H1  
H2  O   H1  H2  O   H1  H2  O   H1  H2  O   H1  H2  O   H1  H2  O   H1  H2  O   
H1  H2  O   H1  H2  O   H1  H2  O   H1  H2  O   H1  H2  O   H1  H2  O   H1  H2  
O   H1  H2  O   H1  H2  O   H1  H2  O   H1  H2  O   H1  H2  O   H1  H2  O   H1  
H2  O   H1  H2  O   H1  H2  O   H1  H2  O   H1  H2  O   H1  H2  O   H1  H2  O   
H1  H2  O   H1  H2  O   H1  H2  O   H1  H2  O   H1  H2  O   H1  H2  O   H1  H2  
O   H1  H2  O   H1  H2  O   H1  H2  O   H1  H2  O   H1  H2  O   H1  H2  O   H1  
H2  O   H1  H2  O   H1  H2  O   H1  H2  O   H1  H2  O   H1  H2  O   H1  H2  O   
H1  H2  O   H1  H2  O   H1  H2  O   H1  H2  O   H1  H2  O   H1  H2  O   H1  H2  
O   H1  H2  O   H1  H2  O   H1  H2  O   H1  H2  O   H1  H2  O   H1  H2  O   H1  
H2  O   H1  H2  O   H1  H2  O   H1  H2  O   H1  H2  O   H1  H2  O   H1  H2  O   
H1  H2  O   H1  H2  O   H1  H2  O   H1  H2  O   H1  H2  O   H1  H2  O   H1  H2  
O   H1  H2  O   H1  H2  O   H1  H2  O   H1  H2  O   H1  H2  O   H1  H2  O   H1  
H2  O   H1  H2  O   H1  H2  O   H1  H2  O   H1  H2  O   H1  H2  O   H1  H2  O   
H1  H2  O   H1  H2  O   H1  H2  O   H1  H2  O   H1  H2  O   H1  H2  O   H1  H2  
O   H1  H2  O   H1  H2  O   H1  H2  O   H1  H2  O   H1  H2  O   H1  H2  O   H1  
H2  O   H1  H2  O   H1  H2  O   H1  H2  O   H1  H2  O   H1  H2  O   H1  H2  O   
H1  H2  O   H1  H2  O   H1  H2  O   H1  H2  O   H1  H2  O   H1  H2  O   H1  H2  
O   H1  H2  O   H1  H2  O   H1  H2  O   H1  H2  O   H1  H2  O   H1  H2  O   H1  
H2  O   H1  H2  O   H1  H2  O   H1  H2  O   H1  H2  O   H1  H2  O   H1  H2  O   
H1  H2  O   H1  H2  O   H1  H2  O   H1  H2  O   H1  H2  O   H1  H2  O   H1  H2  
O   H1  H2  O   H1  H2  O   H1  H2  O   H1  H2  O   H1  H2  O   H1  H2  O   H1  
H2  O   H1  H2  O   H1  H2  O   H1  H2  O   H1  H2  O   H1  H2  O   H1  H2  O   
H1  H2  O   H1  H2  O   H1  H2  O   H1  H2  O   H1  H2  O   H1  H2  O   H1  H2  
O   H1  H2  O   H1  H2  O   H1  H2  O   H1  H2  O   H1  H2  O   H1  H2  O   H1  
H2  O   H1  H2  O   H1  H2  O   H1  H2  O   H1  H2  O   H1  H2  O   H1  H2  O   
H1  H2  O   H1  H2  O   H1  H2  O   H1  H2  O   H1  H2  O   H1  H2  O   H1  H2  
O   H1  H2  O   H1  H2  O   H1  H2  O   H1  H2  O   H1  H2  O   H1  H2  O   H1  
H2  O   H1  H2  O   H1  H2  O   H1  H2  O   H1  H2  O   H1  H2  O   H1  H2  O   
H1  H2  O   H1  H2  O   H1  H2  O   H1  H2  O   H1  H2  O   H1  H2  O   H1  H2  
O   H1  H2  O   H1  H2  O   H1  H2  O   H1  H2  O   H1  H2  O   H1  H2  O   H1  
H2  O   H1  H2  O   H1  H2  O   H1  H2  O   H1  H2  O   H1  H2  O   H1  H2  O   
H1  H2  O   H1  H2  O   H1  H2  O   H1  H2  O   H1  H2  O   H1  H2  O   H1  H2  
O   H1  H2  O   H1  H2  O   H1  H2  O   H1  H2  O   H1  H2  O   H1  H2  O   H1  
H2  O   H1  H2  O   H1  H2  O   H1  H2  O   H1  H2  O   H1  H2  O   H1  H2  O   
H1  H2  O   H1  H2  O   H1  H2  O   H1  H2  O   H1  H2  O   H1  H2  O   H1  H2  
O   H1  H2  O   H1  H2  O   H1  H2  O   H1  H2  O   H1  H2  O   H1  H2  O   H1  
H2  O   H1  H2  O   H1  H2  O   H1  H2  O   H1  H2  O   H1  H2  O   H1  H2  O   
H1  H2  O   H1  H2  O   H1  H2  O   H1  H2  O   H1  H2  O   H1  H2  O   H1  H2  
O   H1  H2  O   H1  H2  O   H1  H2  O   H1  H2  O   H1  H2  O   H1  H2  O   H1  
H2  O   H1  H2  O   H1  H2  O   H1  H2  O   H1  H2  O   H1  H2  O   H1  H2  O   
H1  H2  O   H1  H2  O   H1  H2  O   H1  H2  O   H1  H2  O   H1  H2  O   H1  H2  
O   H1  H2  O   H1  H2  O   H1  H2  O   H1  H2  O   H1  H2  O   H1  H2  O   H1  
H2  O   H1  H2  O   H1  H2  O   H1  H2  O   H1  H2  O   H1  H2  O   H1  H2  O   
H1  H2  O   H1  H2  O   H1  H2  O   H1  H2  O   H1  H2  O   H1  H2  O   H1  H2  
O   H1  H2  O   H1  H2  O   H1  H2  O   H1  H2  O   H1  H2  O   H1  H2  O   H1  
H2  O   H1  H2  O   H1  H2  O   H1  H2  O   H1  H2  O   H1  H2  O   H1  H2  O   
H1  H2  O   H1  H2  O   H1  H2  O   H1  H2  O   H1  H2  O   H1  H2  O   H1  H2  
O   H1  H2  O   H1  H2  O   H1  H2  O   H1  H2  O   H1  H2  O   H1  H2  O   H1  
H2  O   H1  H2  O   H1  H2  O   H1  H2  O   H1  H2  O   H1  H2  O   H1  H2  O   
H1  H2  O   H1  H2  O   H1  H2  O   H1  H2  O   H1  H2  O   H1  H2  O   H1  H2  
O   H1  H2  O   H1  H2  O   H1  H2  O   H1  H2  O   H1  H2  O   H1  H2  O   H1  
H2  O   H1  H2  O   H1  H2  O   H1  H2  O   H1  H2  O   H1  H2  O   H1  H2  O   
H1  H2  O   H1  H2  O   H1  H2  O   H1  H2  O   H1  H2  O   H1  H2  O   H1  H2  
O   H1  H2  O   H1  H2  O   H1  H2  O   H1  H2  O   H1  H2  O   H1  H2  O   H1  
H2  O   H1  H2  O   H1  H2  O   H1  H2  O   H1  H2  O   H1  H2  O   H1  H2  O   
H1  H2  O   H1  H2  O   H1  H2  O   H1  H2  O   H1  H2  O   H1  H2  O   H1  H2  
O   H1  H2  O   H1  H2  O   H1  H2  O   H1  H2  O   H1  H2  O   H1  H2  O   H1  
H2  O   H1  H2  O   H1  H2  O   H1  H2  O   H1  H2  O   H1  H2  O   H1  H2  O   
H1  H2  O   H1  H2  O   H1  H2  O   H1  H2  O   H1  H2  O   H1  H2  O   H1  H2  
O   H1  H2  O   H1  H2  O   H1  H2  O   H1  H2  O   H1  H2  O   H1  H2  O   H1  
H2  O   H1  H2  O   H1  H2  O   H1  H2  O   H1  H2  O   H1  H2  O   H1  H2  O   
H1  H2  O   H1  H2  O   H1  H2  O   H1  H2  O   H1  H2  O   H1  H2  O   H1  H2  
O   H1  H2  O   H1  H2  O   H1  H2  O   H1  H2  O   H1  H2  O   H1  H2  O   H1  
H2  O   H1  H2  O   H1  H2  O   H1  H2  O   H1  H2  O   H1  H2  O   H1  H2  O   
H1  H2  O   H1  H2  O   H1  H2  O   H1  H2  O   H1  H2  O   H1  H2  O   H1  H2  
O   H1  H2  O   H1  H2  O   H1  H2  O   H1  H2  O   H1  H2  O   H1  H2  O   H1  
H2  O   H1  H2  O   H1  H2  O   H1  H2  O   H1  H2  O   H1  H2  O   H1  H2  O   
H1  H2  O   H1  H2  O   H1  H2  O   H1  H2  O   H1  H2  O   H1  H2  O   H1  H2  
O   H1  H2  O   H1  H2  O   H1  H2  O   H1  H2  O   H1  H2  O   H1  H2  O   H1  
H2  O   H1  H2  O   H1  H2  O   H1  H2  O   H1  H2  O   H1  H2  O   H1  H2  O   
H1  H2  O   H1  H2  O   H1  H2  O   H1  H2  O   H1  H2  O   H1  H2  O   H1  H2  
O   H1  H2  O   H1  H2  O   H1  H2  O   H1  H2  O   H1  H2  O   H1  H2  O   H1  
H2  O   H1  H2  O   H1  H2  O   H1  H2  O   H1  H2  O   H1  H2  O   H1  H2  O   
H1  H2  O   H1  H2  O   H1  H2  O   H1  H2  O   H1  H2  O   H1  H2  O   H1  H2  
O   H1  H2  O   H1  H2  O   H1  H2  O   H1  H2  O   H1  H2  O   H1  H2  O   H1  
H2  O   H1  H2  O   H1  H2  O   H1  H2  O   H1  H2  O   H1  H2  O   H1  H2  O   
H1  H2  O   H1  H2  O   H1  H2  O   H1  H2  O   H1  H2  O   H1  H2  O   H1  H2  
O   H1  H2  O   H1  H2  O   H1  H2  O   H1  H2  O   H1  H2  O   H1  H2  O   H1  
H2  O   H1  H2  O   H1  H2  O   H1  H2  O   H1  H2  O   H1  H2  O   H1  H2  O   
H1  H2  O   H1  H2  O   H1  H2  O   H1  H2  O   H1  H2  O   H1  H2  O   H1  H2  
O   H1  H2  O   H1  H2  O   H1  H2  O   H1  H2  O   H1  H2  O   H1  H2  O   H1  
H2  O   H1  H2  O   H1  H2  O   H1  H2  O   H1  H2  O   H1  H2  O   H1  H2  O   
H1  H2  O   H1  H2  O   H1  H2  O   H1  H2  O   H1  H2  O   H1  H2  O   H1  H2  
O   H1  H2  O   H1  H2  O   H1  H2  O   H1  H2  O   H1  H2  O   H1  H2  O   H1  
H2  O   H1  H2  O   H1  H2  O   H1  H2  O   H1  H2  O   H1  H2  O   H1  H2  O   
H1  H2  O   H1  H2  O   H1  H2  O   H1  H2  O   H1  H2  O   H1  H2  O   H1  H2  
O   H1  H2  O   H1  H2  O   H1  H2  O   H1  H2  O   H1  H2  O   H1  H2  O   H1  
H2  O   H1  H2  O   H1  H2  O   H1  H2  O   H1  H2  O   H1  H2  O   H1  H2  O   
H1  H2  O   H1  H2  O   H1  H2  O   H1  H2  O   H1  H2  O   H1  H2  O   H1  H2  
O   H1  H2  O   H1  H2  O   H1  H2  O   H1  H2  O   H1  H2  O   H1  H2  O   H1  
H2  O   H1  H2  O   H1  H2  O   H1  H2  O   H1  H2  O   H1  H2  O   H1  H2  O   
H1  H2  O   H1  H2  O   H1  H2  O   H1  H2  O   H1  H2  O   H1  H2  O   H1  H2  
O   H1  H2  O   H1  H2  O   H1  H2  O   H1  H2  O   H1  H2  O   H1  H2  O   H1  
H2  O   H1  H2  O   H1  H2  O   H1  H2  O   H1  H2  O   H1  H2  O   H1  H2  O   
H1  H2  O   H1  H2  O   H1  H2  O   H1  H2  O   H1  H2  O   H1  H2  O   H1  H2  
O   H1  H2  O   H1  H2  O   H1  H2  O   H1  H2  O   H1  H2  O   H1  H2  O   H1  
H2  O   H1  H2  O   H1  H2  O   H1  H2  O   H1  H2  O   H1  H2  O   H1  H2  O   
H1  H2  O   H1  H2  O   H1  H2  O   H1  H2  O   H1  H2  O   H1  H2  O   H1  H2  
O   H1  H2  O   H1  H2  O   H1  H2  O   H1  H2  O   H1  H2  O   H1  H2  O   H1  
H2  O   H1  H2  O   H1  H2  O   H1  H2  O   H1  H2  O   H1  H2  O   H1  H2  O   
H1  H2  O   H1  H2  O   H1  H2  O   H1  H2  O   H1  H2  O   H1  H2  O   H1  H2  
O   H1  H2  O   H1  H2  O   H1  H2  O   H1  H2  O   H1  H2  O   H1  H2  O   H1  
H2  O   H1  H2  O   H1  H2  O   H1  H2  O   H1  H2  O   H1  H2  O   H1  H2  O   
H1  H2  O   H1  H2  O   H1  H2  O   H1  H2  O   H1  H2  O   H1  H2  O   H1  H2  
O   H1  H2  O   H1  H2  O   H1  H2  O   H1  H2  O   H1  H2  O   H1  H2  O   H1  
H2  O   H1  H2  O   H1  H2  O   H1  H2  O   H1  H2  O   H1  H2  O   H1  H2  O   
H1  H2  O   H1  H2  O   H1  H2  O   H1  H2  O   H1  H2  O   H1  H2  O   H1  H2  
O   H1  H2  O   H1  H2  O   H1  H2  O   H1  H2  O   H1  H2  O   H1  H2  O   H1  
H2  O   H1  H2  O   H1  H2  O   H1  H2  O   H1  H2  O   H1  H2  O   H1  H2  O   
H1  H2  O   H1  H2  O   H1  H2  O   H1  H2  O   H1  H2  O   H1  H2  O   H1  H2  
O   H1  H2  O   H1  H2  O   H1  H2  O   H1  H2  O   H1  H2  O   H1  H2  O   H1  
H2  O   H1  H2  O   H1  H2  O   H1  H2  O   H1  H2  O   H1  H2  O   H1  H2  O   
H1  H2  O   H1  H2  O   H1  H2  O   H1  H2  O   H1  H2  O   H1  H2  O   H1  H2  
O   H1  H2  O   H1  H2  O   H1  H2  O   H1  H2  O   H1  H2  O   H1  H2  O   H1  
H2  O   H1  H2  O   H1  H2  O   H1  H2  O   H1  H2  O   H1  H2  O   H1  H2  O   
H1  H2  O   H1  H2  O   H1  H2  O   H1  H2  O   H1  H2  O   H1  H2  O   H1  H2  
O   H1  H2  O   H1  H2  O   H1  H2  O   H1  H2  O   H1  H2  O   H1  H2  O   H1  
H2  O   H1  H2  O   H1  H2  O   H1  H2  O   H1  H2  O   H1  H2  O   H1  H2  O   
H1  H2  O   H1  H2  O   H1  H2  O   H1  H2  O   H1  H2  O   H1  H2  O   H1  H2  
O   H1  H2  O   H1  H2  O   H1  H2  O   H1  H2  O   H1  H2  O   H1  H2  O   H1  
H2  O   H1  H2  O   H1  H2  O   H1  H2  O   H1  H2  O   H1  H2  O   H1  H2  O   
H1  H2  O   H1  H2  O   H1  H2  O   H1  H2  O   H1  H2  O   H1  H2  O   H1  H2  
O   H1  H2  O   H1  H2  O   H1  H2  O   H1  H2  O   H1  H2  O   H1  H2  O   H1  
H2  O   H1  H2  O   H1  H2  O   H1  H2  O   H1  H2  O   H1  H2  O   H1  H2  O   
H1  H2  O   H1  H2  O   H1  H2  O   H1  H2  O   H1  H2  O   H1  H2  O   H1  H2  
O   H1  H2  O   H1  H2  O   H1  H2  O   H1  H2  O   H1  H2  O   H1  H2  O   H1  
H2  O   H1  H2  O   H1  H2  O   H1  H2  O   H1  H2  O   H1  H2  O   H1  H2  O   
H1  H2  O   H1  H2  O   H1  H2  O   H1  H2  O   H1  H2  O   H1  H2  O   H1  H2  
O   H1  H2  O   H1  H2  O   H1  H2  O   H1  H2  O   H1  H2  O   H1  H2  O   H1  
H2  O   H1  H2  O   H1  H2  O   H1  H2  O   H1  H2  O   H1  H2  O   H1  H2  O   
H1  H2  O   H1  H2  O   H1  H2  O   H1  H2  O   H1  H2  O   H1  H2  O   H1  H2  
O   H1  H2  O   H1  H2  O   H1  H2  O   H1  H2  O   H1  H2  O   H1  H2  O   H1  
H2  O   H1  H2  O   H1  H2  O   H1  H2  O   H1  H2  O   H1  H2  O   H1  H2  O   
H1  H2  O   H1  H2  O   H1  H2  O   H1  H2  O   H1  H2  O   H1  H2  O   H1  H2  
O   H1  H2  O   H1  H2  O   H1  H2  O   H1  H2  O   H1  H2  O   H1  H2  O   H1  
H2  O   H1  H2  O   H1  H2  O   H1  H2  O   H1  H2  O   H1  H2  O   H1  H2  O   
H1  H2  O   H1  H2  O   H1  H2  O   H1  H2  O   H1  H2  O   H1  H2  O   H1  H2  
O   H1  H2  O   H1  H2  O   H1  H2  O   H1  H2  O   H1  H2  O   H1  H2  O   H1  
H2  O   H1  H2  O   H1  H2  O   H1  H2  O   H1  H2  O   H1  H2  O   H1  H2  O   
H1  H2  O   H1  H2  O   H1  H2  O   H1  H2  O   H1  H2  O   H1  H2  O   H1  H2  
O   H1  H2  O   H1  H2  O   H1  H2  O   H1  H2  O   H1  H2  O   H1  H2  O   H1  
H2  O   H1  H2  O   H1  H2  O   H1  H2  O   H1  H2  O   H1  H2  O   H1  H2  O   
H1  H2  O   H1  H2  O   H1  H2  O   H1  H2  O   H1  H2  O   H1  H2  O   H1  H2  
O   H1  H2  O   H1  H2  O   H1  H2  O   H1  H2  O   H1  H2  O   H1  H2  O   H1  
H2  O   H1  H2  O   H1  H2  O   H1  H2  O   H1  H2  O   H1  H2  O   H1  H2  O   
H1  H2  O   H1  H2  O   H1  H2  O   H1  H2  O   H1  H2  O   H1  H2  O   H1  H2  
O   H1  H2  O   H1  H2  O   H1  H2  O   H1  H2  O   H1  H2  O   H1  H2  O   H1  
H2  O   H1  H2  O   H1  H2  O   H1  H2  O   H1  H2  O   H1  H2  O   H1  H2  O   
H1  H2  O   H1  H2  O   H1  H2  O   H1  H2  O   H1  H2  O   H1  H2  O   H1  H2  
O   H1  H2  O   H1  H2  O   H1  H2  O   H1  H2  O   H1  H2  O   H1  H2  O   H1  
H2  O   H1  H2  O   H1  H2  O   H1  H2  O   H1  H2  O   H1  H2  O   H1  H2  O   
H1  H2  O   H1  H2  O   H1  H2  O   H1  H2  O   H1  H2  O   H1  H2  O   H1  H2  
O   H1  H2  O   H1  H2  O   H1  H2  O   H1  H2  O   H1  H2  O   H1  H2  O   H1  
H2  O   H1  H2  O   H1  H2  O   H1  H2  O   H1  H2  O   H1  H2  O   H1  H2  O   
H1  H2  O   H1  H2  O   H1  H2  O   H1  H2  O   H1  H2  O   H1  H2  O   H1  H2  
O   H1  H2  O   H1  H2  O   H1  H2  O   H1  H2  O   H1  H2  O   H1  H2  O   H1  
H2  O   H1  H2  O   H1  H2  O   H1  H2  O   H1  H2  O   H1  H2  O   H1  H2  O   
H1  H2  O   H1  H2  O   H1  H2  O   H1  H2  O   H1  H2  O   H1  H2  O   H1  H2  
O   H1  H2  O   H1  H2  O   H1  H2  O   H1  H2  O   H1  H2  O   H1  H2  O   H1  
H2  O   H1  H2  O   H1  H2  O   H1  H2  O   H1  H2  O   H1  H2  O   H1  H2  O   
H1  H2  O   H1  H2  O   H1  H2  O   H1  H2  O   H1  H2  O   H1  H2  O   H1  H2  
O   H1  H2  O   H1  H2  O   H1  H2  O   H1  H2  O   H1  H2  O   H1  H2  O   H1  
H2  O   H1  H2  O   H1  H2  O   H1  H2  O   H1  H2  O   H1  H2  O   H1  H2  O   
H1  H2  O   H1  H2  O   H1  H2  O   H1  H2  O   H1  H2  O   H1  H2  O   H1  H2  
O   H1  H2  O   H1  H2  O   H1  H2  O   H1  H2  O   H1  H2  O   H1  H2  O   H1  
H2  O   H1  H2  O   H1  H2  O   H1  H2  O   H1  H2  O   H1  H2  O   H1  H2  O   
H1  H2  O   H1  H2  O   H1  H2  O   H1  H2  O   H1  H2  O   H1  H2  O   H1  H2  
O   H1  H2  O   H1  H2  O   H1  H2  O   H1  H2  O   H1  H2  O   H1  H2  O   H1  
H2  O   H1  H2  O   H1  H2  O   H1  H2  O   H1  H2  O   H1  H2  O   H1  H2  O   
H1  H2  O   H1  H2  O   H1  H2  O   H1  H2  O   H1  H2  O   H1  H2  O   H1  H2  
O   H1  H2  O   H1  H2  O   H1  H2  O   H1  H2  O   H1  H2  O   H1  H2  O   H1  
H2  O   H1  H2  O   H1  H2  O   H1  H2  O   H1  H2  O   H1  H2  O   H1  H2  O   
H1  H2  O   H1  H2  O   H1  H2  O   H1  H2  O   H1  H2  O   H1  H2  O   H1  H2  
O   H1  H2  O   H1  H2  O   H1  H2  O   H1  H2  O   H1  H2  O   H1  H2  O   H1  
H2  O   H1  H2  O   H1  H2  O   H1  H2  O   H1  H2  O   H1  H2  O   H1  H2  O   
H1  H2  O   H1  H2  O   H1  H2  O   H1  H2  O   H1  H2  O   H1  H2  O   H1  H2  
O   H1  H2  O   H1  H2  O   H1  H2  O   H1  H2  O   H1  H2  O   H1  H2  O   H1  
H2  O   H1  H2  O   H1  H2  O   H1  H2  O   H1  H2  O   H1  H2  O   H1  H2  O   
H1  H2  O   H1  H2  O   H1  H2  O   H1  H2  O   H1  H2  O   H1  H2  O   H1  H2  
O   H1  H2  O   H1  H2  O   H1  H2  O   H1  H2  O   H1  H2  O   H1  H2  O   H1  
H2  O   H1  H2  O   H1  H2  O   H1  H2  O   H1  H2  O   H1  H2  O   H1  H2  O   
H1  H2  O   H1  H2  O   H1  H2  O   H1  H2  O   H1  H2  O   H1  H2  O   H1  H2  
O   H1  H2  O   H1  H2  O   H1  H2  O   H1  H2  O   H1  H2  O   H1  H2  O   H1  
H2  O   H1  H2  O   H1  H2  O   H1  H2  O   H1  H2  O   H1  H2  O   H1  H2  O   
H1  H2  O   H1  H2  O   H1  H2  O   H1  H2  O   H1  H2  O   H1  H2  O   H1  H2  
O   H1  H2  O   H1  H2  O   H1  H2  O   H1  H2  O   H1  H2  O   H1  H2  O   H1  
H2  O   H1  H2  O   H1  H2  O   H1  H2  O   H1  H2  O   H1  H2  O   H1  H2  O   
H1  H2  O   H1  H2  O   H1  H2  O   H1  H2  O   H1  H2  O   H1  H2  O   H1  H2  
O   H1  H2  O   H1  H2  O   H1  H2  O   H1  H2  O   H1  H2  O   H1  H2  O   H1  
H2  O   H1  H2  O   H1  H2  O   H1  H2  O   H1  H2  O   H1  H2  O   H1  H2  O   
H1  H2  O   H1  H2  O   H1  H2  O   H1  H2  O   H1  H2  O   H1  H2  O   H1  H2  
O   H1  H2  O   H1  H2  O   H1  H2  O   H1  H2  O   H1  H2  O   H1  H2  O   H1  
H2  O   H1  H2  O   H1  H2  O   H1  H2  O   H1  H2  O   H1  H2  O   H1  H2  O   
H1  H2  O   H1  H2  O   H1  H2  O   H1  H2  O   H1  H2  O   H1  H2  O   H1  H2  
O   H1  H2  O   H1  H2  O   H1  H2  O   H1  H2  O   H1  H2  O   H1  H2  O   H1  
H2  O   H1  H2  O   H1  H2  O   H1  H2  O   H1  H2  O   H1  H2  O   H1  H2  O   
H1  H2  O   H1  H2  O   H1  H2  O   H1  H2  O   H1  H2  O   H1  H2  O   H1  H2  
O   H1  H2  O   H1  H2  O   H1  H2  O   H1  H2  O   H1  H2  O   H1  H2  O   H1  
H2  O   H1  H2  O   H1  H2  O   H1  H2  O   H1  H2  O   H1  H2  O   H1  H2  O   
H1  H2  O   H1  H2  O   H1  H2  O   H1  H2  O   H1  H2  O   H1  H2  O   H1  H2  
O   H1  H2  O   H1  H2  O   H1  H2  O   H1  H2  O   H1  H2  O   H1  H2  O   H1  
H2  O   H1  H2  O   H1  H2  O   H1  H2  O   H1  H2  O   H1  H2  O   H1  H2  O   
H1  H2  O   H1  H2  O   H1  H2  O   H1  H2  O   H1  H2  O   H1  H2  O   H1  H2  
O   H1  H2  O   H1  H2  O   H1  H2  O   H1  H2  O   H1  H2  O   H1  H2  O   H1  
H2  O   H1  H2  O   H1  H2  O   H1  H2  O   H1  H2  O   H1  H2  O   H1  H2  O   
H1  H2  O   H1  H2  O   H1  H2  O   H1  H2  O   H1  H2  O   H1  H2  O   H1  H2  
O   H1  H2  O   H1  H2  O   H1  H2  O   H1  H2  O   H1  H2  O   H1  H2  O   H1  
H2  O   H1  H2  O   H1  H2  O   H1  H2  O   H1  H2  O   H1  H2  O   H1  H2  O   
H1  H2  O   H1  H2  O   H1  H2  O   H1  H2  O   H1  H2  O   H1  H2  O   H1  H2  
O   H1  H2  O   H1  H2  O   H1  H2  O   H1  H2  O   H1  H2  O   H1  H2  O   H1  
H2  O   H1  H2  O   H1  H2  O   H1  H2  O   H1  H2  O   H1  H2  O   H1  H2  O   
H1  H2  O   H1  H2  O   H1  H2  O   H1  H2  O   H1  H2  O   H1  H2  O   H1  H2  
O   H1  H2  O   H1  H2  O   H1  H2  O   H1  H2  O   H1  H2  O   H1  H2  O   H1  
H2  O   H1  H2  O   H1  H2  O   H1  H2  O   H1  H2  O   H1  H2  O   H1  H2  O   
H1  H2  O   H1  H2  O   H1  H2  O   H1  H2  O   H1  H2  O   H1  H2  O   H1  H2  
O   H1  H2  O   H1  H2  O   H1  H2  O   H1  H2  O   H1  H2  O   H1  H2  O   H1  
H2  O   H1  H2  O   H1  H2  O   H1  H2  O   H1  H2  O   H1  H2  O   H1  H2  O   
H1  H2  O   H1  H2  O   H1  H2  O   H1  H2  O   H1  H2  O   H1  H2  O   H1  H2  
O   H1  H2  O   H1  H2  O   H1  H2  O   H1  H2  O   H1  H2  O   H1  H2  O   H1  
H2  O   H1  H2  O   H1  H2  O   H1  H2  O   H1  H2  O   H1  H2  O   H1  H2  O   
H1  H2  O   H1  H2  O   H1  H2  O   H1  H2  O   H1  H2  O   H1  H2  O   H1  H2  
O   H1  H2  O   H1  H2  O   H1  H2  O   H1  H2  O   H1  H2  O   H1  H2  O   H1  
H2  O   H1  H2  O   H1  H2  O   H1  H2  O   H1  H2  O   H1  H2  O   H1  H2  O   
H1  H2  O   H1  H2  O   H1  H2  O   H1  H2  O   H1  H2  O   H1  H2  O   H1  H2  
O   H1  H2  O   H1  H2  O   H1  H2  O   H1  H2  O   H1  H2  O   H1  H2  O   H1  
H2  O   H1  H2  O   H1  H2  O   H1  H2  O   H1  H2  O   H1  H2  O   H1  H2  O   
H1  H2  O   H1  H2  O   H1  H2  O   H1  H2  O   H1  H2  O   H1  H2  O   H1  H2  
O   H1  H2  O   H1  H2  O   H1  H2  O   H1  H2  O   H1  H2  O   H1  H2  O   H1  
H2  O   H1  H2  O   H1  H2  O   H1  H2  O   H1  H2  O   H1  H2  O   H1  H2  O   
H1  H2  O   H1  H2  O   H1  H2  O   H1  H2  O   H1  H2  O   H1  H2  O   H1  H2  
O   H1  H2  O   H1  H2  O   H1  H2  O   H1  H2  O   H1  H2  O   H1  H2  O   H1  
H2  O   H1  H2  O   H1  H2  O   H1  H2  O   H1  H2  O   H1  H2  O   H1  H2  O   
H1  H2  O   H1  H2  O   H1  H2  O   H1  H2  O   H1  H2  O   H1  H2  O   H1  H2  
O   H1  H2  O   H1  H2  O   H1  H2  O   H1  H2  O   H1  H2  O   H1  H2  O   H1  
H2  O   H1  H2  O   H1  H2  O   H1  H2  O   H1  H2  O   H1  H2  O   H1  H2  O   
H1  H2  O   H1  H2  O   H1  H2  O   H1  H2  O   H1  H2  O   H1  H2  O   H1  H2  
O   H1  H2  O   H1  H2  O   H1  H2  O   H1  H2  O   H1  H2  O   H1  H2  O   H1  
H2  O   H1  H2  O   H1  H2  O   H1  H2  O   H1  H2  O   H1  H2  O   H1  H2  O   
H1  H2  O   H1  H2  O   H1  H2  O   H1  H2  O   H1  H2  O   H1  H2  O   H1  H2  
O   H1  H2  O   H1  H2  O   H1  H2  O   H1  H2  O   H1  H2  O   H1  H2  O   H1  
H2  O   H1  H2  O   H1  H2  O   H1  H2  O   H1  H2  O   H1  H2  O   H1  H2  O   
H1  H2  O   H1  H2  O   H1  H2  O   H1  H2  O   H1  H2  O   H1  H2  O   H1  H2  
O   H1  H2  O   H1  H2  O   H1  H2  O   H1  H2  O   H1  H2  O   H1  H2  O   H1  
H2  O   H1  H2  O   H1  H2  O   H1  H2  O   H1  H2  O   H1  H2  O   H1  H2  O   
H1  H2  O   H1  H2  O   H1  H2  O   H1  H2  O   H1  H2  O   H1  H2  O   H1  H2  
O   H1  H2  O   H1  H2  O   H1  H2  O   H1  H2  O   H1  H2  O   H1  H2  O   H1  
H2  O   H1  H2  O   H1  H2  O   H1  H2  O   H1  H2  O   H1  H2  O   H1  H2  O   
H1  H2  O   H1  H2  O   H1  H2  O   H1  H2  O   H1  H2  O   H1  H2  O   H1  H2  
O   H1  H2  O   H1  H2  O   H1  H2  O   H1  H2  O   H1  H2  O   H1  H2  O   H1  
H2  O   H1  H2  O   H1  H2  O   H1  H2  O   H1  H2  O   H1  H2  O   H1  H2  O   
H1  H2  O   H1  H2  O   H1  H2  O   H1  H2  O   H1  H2  O   H1  H2  O   H1  H2  
O   H1  H2  O   H1  H2  O   H1  H2  O   H1  H2  O   H1  H2  O   H1  H2  O   H1  
H2  O   H1  H2  O   H1  H2  O   H1  H2  O   H1  H2  O   H1  H2  O   H1  H2  O   
H1  H2  O   H1  H2  O   H1  H2  O   H1  H2  O   H1  H2  O   H1  H2  O   H1  H2  
O   H1  H2  O   H1  H2  O   H1  H2  O   H1  H2  O   H1  H2  O   H1  H2  O   H1  
H2  O   H1  H2  O   H1  H2  O   H1  H2  O   H1  H2  O   H1  H2  O   H1  H2  O   
H1  H2  O   H1  H2  O   H1  H2  O   H1  H2  O   H1  H2  O   H1  H2  O   H1  H2  
O   H1  H2  O   H1  H2  O   H1  H2  O   H1  H2  O   H1  H2  O   H1  H2  O   H1  
H2  O   H1  H2  O   H1  H2  O   H1  H2  O   H1  H2  O   H1  H2  O   H1  H2  O   
H1  H2  O   H1  H2  O   H1  H2  O   H1  H2  O   H1  H2  O   H1  H2  O   H1  H2  
O   H1  H2  O   H1  H2  O   H1  H2  O   H1  H2  O   H1  H2  O   H1  H2  O   H1  
H2  O   H1  H2  O   H1  H2  O   H1  H2  O   H1  H2  O   H1  H2  O   H1  H2  O   
H1  H2  O   H1  H2  O   H1  H2  O   H1  H2  O   H1  H2  O   H1  H2  O   H1  H2  
O   H1  H2  O   H1  H2  O   H1  H2  O   H1  H2  O   H1  H2  O   H1  H2  O   H1  
H2  O   H1  H2  O   H1  H2  O   H1  H2  O   H1  H2  O   H1  H2  O   H1  H2  O   
H1  H2  O   H1  H2  O   H1  H2  O   H1  H2  O   H1  H2  O   H1  H2  O   H1  H2  
O   H1  H2  O   H1  H2  O   H1  H2  O   H1  H2  O   H1  H2  O   H1  H2  O   H1  
H2  O   H1  H2  O   H1  H2  O   H1  H2  O   H1  H2  O   H1  H2  O   H1  H2  O   
H1  H2  O   H1  H2  O   H1  H2  O   H1  H2  O   H1  H2  O   H1  H2  O   H1  H2  
O   H1  H2  O   H1  H2  O   H1  H2  O   H1  H2  O   H1  H2  O   H1  H2  O   H1  
H2  O   H1  H2  O   H1  H2  O   H1  H2  O   H1  H2  O   H1  H2  O   H1  H2  O   
H1  H2  O   H1  H2  O   H1  H2  O   H1  H2  O   H1  H2  O   H1  H2  O   H1  H2  
O   H1  H2  O   H1  H2  O   H1  H2  O   H1  H2  O   H1  H2  O   H1  H2  O   H1  
H2  O   H1  H2  O   H1  H2  O   H1  H2  O   H1  H2  O   H1  H2  O   H1  H2  O   
H1  H2  O   H1  H2  O   H1  H2  O   H1  H2  O   H1  H2  O   H1  H2  O   H1  H2  
O   H1  H2  O   H1  H2  O   H1  H2  O   H1  H2  O   H1  H2  O   H1  H2  O   H1  
H2  O   H1  H2  O   H1  H2  O   H1  H2  O   H1  H2  O   H1  H2  O   H1  H2  O   
H1  H2  O   H1  H2  O   H1  H2  O   H1  H2  O   H1  H2  O   H1  H2  O   H1  H2  
O   H1  H2  O   H1  H2  O   H1  H2  O   H1  H2  O   H1  H2  O   H1  H2  O   H1  
H2  O   H1  H2  O   H1  H2  O   H1  H2  O   H1  H2  O   H1  H2  O   H1  H2  O   
H1  H2  O   H1  H2  O   H1  H2  O   H1  H2  O   H1  H2  O   H1  H2  O   H1  H2  
O   H1  H2  O   H1  H2  O   H1  H2  O   H1  H2  O   H1  H2  O   H1  H2  O   H1  
H2  O   H1  H2  O   H1  H2  O   H1  H2  O   H1  H2  O   H1  H2  O   H1  H2  O   
H1  H2  O   H1  H2  O   H1  H2  O   H1  H2  O   H1  H2  O   H1  H2  O   H1  H2  
O   H1  H2  O   H1  H2  O   H1  H2  O   H1  H2  O   H1  H2  O   H1  H2  O   H1  
H2  O   H1  H2  O   H1  H2  O   H1  H2  O   H1  H2  O   H1  H2  O   H1  H2  O   
H1  H2  O   H1  H2  O   H1  H2  O   H1  H2  O   H1  H2  O   H1  H2  O   H1  H2  
O   H1  H2  O   H1  H2  O   H1  H2  O   H1  H2  O   H1  H2  O   H1  H2  O   H1  
H2  O   H1  H2  O   H1  H2  O   H1  H2  O   H1  H2  O   H1  H2  O   H1  H2  O   
H1  H2  O   H1  H2  O   H1  H2  O   H1  H2  O   H1  H2  O   H1  H2  O   H1  H2  
O   H1  H2  O   H1  H2  O   H1  H2  O   H1  H2  O   H1  H2  O   H1  H2  O   H1  
H2  O   H1  H2  O   H1  H2  O   H1  H2  O   H1  H2  O   H1  H2  O   H1  H2  O   
H1  H2  O   H1  H2  O   H1  H2  O   H1  H2  O   H1  H2  O   H1  H2  O   H1  H2  
O   H1  H2  O   H1  H2  O   H1  H2  O   H1  H2  O   H1  H2  O   H1  H2  O   H1  
H2  O   H1  H2  O   H1  H2  O   H1  H2  O   H1  H2  O   H1  H2  O   H1  H2  O   
H1  H2  O   H1  H2  O   H1  H2  O   H1  H2  O   H1  H2  O   H1  H2  O   H1  H2  
O   H1  H2  O   H1  H2  O   H1  H2  O   H1  H2  O   H1  H2  O   H1  H2  O   H1  
H2  O   H1  H2  O   H1  H2  O   H1  H2  O   H1  H2  O   H1  H2  O   H1  H2  O   
H1  H2  O   H1  H2  O   H1  H2  O   H1  H2  O   H1  H2  O   H1  H2  O   H1  H2  
O   H1  H2  O   H1  H2  O   H1  H2  O   H1  H2  O   H1  H2  O   H1  H2  O   H1  
H2  O   H1  H2  O   H1  H2  O   H1  H2  O   H1  H2  O   H1  H2  O   H1  H2  O   
H1  H2  O   H1  H2  O   H1  H2  O   H1  H2  O   H1  H2  O   H1  H2  O   H1  H2  
O   H1  H2  O   H1  H2  O   H1  H2  O   H1  H2  O   H1  H2  O   H1  H2  O   H1  
H2  O   H1  H2  O   H1  H2  O   H1  H2  O   H1  H2  O   H1  H2  O   H1  H2  O   
H1  H2  O   H1  H2  O   H1  H2  O   H1  H2  O   H1  H2  O   H1  H2  O   H1  H2  
O   H1  H2  O   H1  H2  O   H1  H2  O   H1  H2  O   H1  H2  O   H1  H2  O   H1  
H2  O   H1  H2  O   H1  H2  O   H1  H2  O   H1  H2  O   H1  H2  O   H1  H2  O   
H1  H2  O   H1  H2  O   H1  H2  O   H1  H2  O   H1  H2  O   H1  H2  O   H1  H2  
O   H1  H2  O   H1  H2  O   H1  H2  O   H1  H2  O   H1  H2  O   H1  H2  O   H1  
H2  O   H1  H2  O   H1  H2  O   H1  H2  O   H1  H2  O   H1  H2  O   H1  H2  O   
H1  H2  O   H1  H2  O   H1  H2  O   H1  H2  O   H1  H2  O   H1  H2  O   H1  H2  
O   H1  H2  O   H1  H2  O   H1  H2  O   H1  H2  O   H1  H2  O   H1  H2  O   H1  
H2  O   H1  H2  O   H1  H2  O   H1  H2  O   H1  H2  O   H1  H2  O   H1  H2  O   
H1  H2  O   H1  H2  O   H1  H2  O   H1  H2  O   H1  H2  O   H1  H2  O   H1  H2  
O   H1  H2  O   H1  H2  O   H1  H2  O   H1  H2  O   H1  H2  O   H1  H2  O   H1  
H2  O   H1  H2  O   H1  H2  O   H1  H2  O   H1  H2  O   H1  H2  O   H1  H2  O   
H1  H2  O   H1  H2  O   H1  H2  O   H1  H2  O   H1  H2  O   H1  H2  O   H1  H2  
O   H1  H2  O   H1  H2  O   H1  H2  O   H1  H2  O   H1  H2  O   H1  H2  O   H1  
H2  O   H1  H2  O   H1  H2  O   H1  H2  O   H1  H2  O   H1  H2  O   H1  H2  O   
H1  H2  O   H1  H2  O   H1  H2  O   H1  H2  O   H1  H2  O   H1  H2  O   H1  H2  
O   H1  H2  O   H1  H2  O   H1  H2  O   H1  H2  O   H1  H2  O   H1  H2  O   H1  
H2  O   H1  H2  O   H1  H2  O   H1  H2  O   H1  H2  O   H1  H2  O   H1  H2  O   
H1  H2  O   H1  H2  O   H1  H2  O   H1  H2  O   H1  H2  O   H1  H2  O   H1  H2  
O   H1  H2  O   H1  H2  O   H1  H2  O   H1  H2  O   H1  H2  O   H1  H2  O   H1  
H2  O   H1  H2  O   H1  H2  O   H1  H2  O   H1  H2  O   H1  H2  O   H1  H2  O   
H1  H2  O   H1  H2  O   H1  H2  O   H1  H2  O   H1  H2  O   H1  H2  O   H1  H2  
O   H1  H2  O   H1  H2  O   H1  H2  O   H1  H2  O   H1  H2  O   H1  H2  O   H1  
H2  O   H1  H2  O   H1  H2  O   H1  H2  O   H1  H2  O   H1  H2  O   H1  H2  O   
H1  H2  O   H1  H2  O   H1  H2  O   H1  H2  O   H1  H2  O   H1  H2  O   H1  H2  
O   H1  H2  O   H1  H2  O   H1  H2  O   H1  H2  O   H1  H2  O   H1  H2  O   H1  
H2  O   H1  H2  O   H1  H2  O   H1  H2  O   H1  H2  O   H1  H2  O   H1  H2  O   
H1  H2  O   H1  H2  O   H1  H2  O   H1  H2  O   H1  H2  O   H1  H2  O   H1  H2  
O   H1  H2  O   H1  H2  O   H1  H2  O   H1  H2  O   H1  H2  O   H1  H2  O   H1  
H2  O   H1  H2  O   H1  H2  O   H1  H2  O   H1  H2  O   H1  H2  O   H1  H2  O   
H1  H2  O   H1  H2  O   H1  H2  O   H1  H2  O   H1  H2  O   H1  H2  O   H1  H2  
O   H1  H2  O   H1  H2  O   H1  H2  O   H1  H2  O   H1  H2  O   H1  H2  O   H1  
H2  O   H1  H2  O   H1  H2  O   H1  H2  O   H1  H2  O   H1  H2  O   H1  H2  O   
H1  H2  O   H1  H2  O   H1  H2  O   H1  H2  O   H1  H2  O   H1  H2  O   H1  H2  
O   H1  H2  O   H1  H2  O   H1  H2  O   H1  H2  O   H1  H2  O   H1  H2  O   H1  
H2  O   H1  H2  O   H1  H2  O   H1  H2  O   H1  H2  O   H1  H2  O   H1  H2  O   
H1  H2  O   H1  H2  O   H1  H2  O   H1  H2  O   H1  H2  O   H1  H2  O   H1  H2  
O   H1  H2  O   H1  H2  O   H1  H2  O   H1  H2  O   H1  H2  O   H1  H2  O   H1  
H2  O   H1  H2  O   H1  H2  O   H1  H2  O   H1  H2  O   H1  H2  O   H1  H2  O   
H1  H2  O   H1  H2  O   H1  H2  O   H1  H2  O   H1  H2  O   H1  H2  O   H1  H2  
O   H1  H2  O   H1  H2  O   H1  H2  O   H1  H2  O   H1  H2  O   H1  H2  O   H1  
H2  O   H1  H2  O   H1  H2  O   H1  H2  O   H1  H2  O   H1  H2  O   H1  H2  O   
H1  H2  O   H1  H2  O   H1  H2  O   H1  H2  O   H1  H2  O   H1  H2  O   H1  H2  
O   H1  H2  O   H1  H2  O   H1  H2  O   H1  H2  O   H1  H2  O   H1  H2  O   H1  
H2  O   H1  H2  O   H1  H2  O   H1  H2  O   H1  H2  O   H1  H2  O   H1  H2  O   
H1  H2  O   H1  H2  O   H1  H2  O   H1  H2  O   H1  H2  O   H1  H2  O   H1  H2  
O   H1  H2  O   H1  H2  O   H1  H2  O   H1  H2  O   H1  H2  O   H1  H2  O   H1  
H2  O   H1  H2  O   H1  H2  O   H1  H2  O   H1  H2  O   H1  H2  O   H1  H2  O   
H1  H2  O   H1  H2  O   H1  H2  O   H1  H2  O   H1  H2  O   H1  H2  O   H1  H2  
O   H1  H2  O   H1  H2  O   H1  H2  O   H1  H2  O   H1  H2  O   H1  H2  O   H1  
H2  O   H1  H2  O   H1  H2  O   H1  H2  O   H1  H2  O   H1  H2  O   H1  H2  O   
H1  H2  O   H1  H2  O   H1  H2  O   H1  H2  O   H1  H2  O   H1  H2  O   H1  H2  
O   H1  H2  O   H1  H2  O   H1  H2  O   H1  H2  O   H1  H2  O   H1  H2  O   H1  
H2  O   H1  H2  O   H1  H2  O   H1  H2  O   H1  H2  O   H1  H2  O   H1  H2  O   
H1  H2  O   H1  H2  O   H1  H2  O   H1  H2  O   H1  H2  O   H1  H2  O   H1  H2  
O   H1  H2  O   H1  H2  O   H1  H2  O   H1  H2  O   H1  H2  O   H1  H2  O   H1  
H2  O   H1  H2  O   H1  H2  O   H1  H2  O   H1  H2  O   H1  H2  O   H1  H2  O   
H1  H2  O   H1  H2  O   H1  H2  O   H1  H2  O   H1  H2  O   H1  H2  O   H1  H2  
O   H1  H2  O   H1  H2  O   H1  H2  O   H1  H2  O   H1  H2  O   H1  H2  O   H1  
H2  O   H1  H2  O   H1  H2  O   H1  H2  O   H1  H2  O   H1  H2  O   H1  H2  O   
H1  H2  O   H1  H2  O   H1  H2  O   H1  H2  O   H1  H2  O   H1  H2  O   H1  H2  
O   H1  H2  O   H1  H2  O   H1  H2  O   H1  H2  O   H1  H2  O   H1  H2  O   H1  
H2  O   H1  H2  O   H1  H2  O   H1  H2  O   H1  H2  O   H1  H2  O   H1  H2  O   
H1  H2  O   H1  H2  O   H1  H2  O   H1  H2  O   H1  H2  O   H1  H2  O   H1  H2  
O   H1  H2  O   H1  H2  O   H1  H2  O   H1  H2  O   H1  H2  O   H1  H2  O   H1  
H2  O   H1  H2  O   H1  H2  O   H1  H2  O   H1  H2  O   H1  H2  O   H1  H2  O   
H1  H2  O   H1  H2  O   H1  H2  O   H1  H2  O   H1  H2  O   H1  H2  O   H1  H2  
O   H1  H2  O   H1  H2  O   H1  H2  O   H1  H2  O   H1  H2  O   H1  H2  O   H1  
H2  O   H1  H2  O   H1  H2  O   H1  H2  O   H1  H2  O   H1  H2  O   H1  H2  O   
H1  H2  O   H1  H2  O   H1  H2  O   H1  H2  O   H1  H2  O   H1  H2  O   H1  H2  
O   H1  H2  O   H1  H2  O   H1  H2  O   H1  H2  O   H1  H2  O   H1  H2  O   H1  
H2  O   H1  H2  O   H1  H2  O   H1  H2  O   H1  H2  O   H1  H2  O   H1  H2  O   
H1  H2  O   H1  H2  O   H1  H2  O   H1  H2  O   H1  H2  O   H1  H2  O   H1  H2  
O   H1  H2  O   H1  H2  O   H1  H2  O   H1  H2  O   H1  H2  O   H1  H2  O   H1  
H2  O   H1  H2  O   H1  H2  O   H1  H2  O   H1  H2  O   H1  H2  O   H1  H2  O   
H1  H2  O   H1  H2  O   H1  H2  O   H1  H2  O   H1  H2  O   H1  H2  O   H1  H2  
O   H1  H2  O   H1  H2  O   H1  H2  O   H1  H2  O   H1  H2  O   H1  H2  O   H1  
H2  O   H1  H2  O   H1  H2  O   H1  H2  O   H1  H2  O   H1  H2  O   H1  H2  O   
H1  H2  O   H1  H2  O   H1  H2  O   H1  H2  O   H1  H2  O   H1  H2  O   H1  H2  
O   H1  H2  O   H1  H2  O   H1  H2  O   H1  H2  O   H1  H2  O   H1  H2  O   H1  
H2  O   H1  H2  O   H1  H2  O   H1  H2  O   H1  H2  O   H1  H2  O   H1  H2  O   
H1  H2  O   H1  H2  O   H1  H2  O   H1  H2  O   H1  H2  O   H1  H2  O   H1  H2  
O   H1  H2  O   H1  H2  O   H1  H2  O   H1  H2  O   H1  H2  O   H1  H2  O   H1  
H2  O   H1  H2  O   H1  H2  O   H1  H2  O   H1  H2  O   H1  H2  O   H1  H2  O   
H1  H2  O   H1  H2  O   H1  H2  O   H1  H2  O   H1  H2  O   H1  H2  O   H1  H2  
O   H1  H2  O   H1  H2  O   H1  H2  O   H1  H2  O   H1  H2  O   H1  H2  O   H1  
H2  O   H1  H2  O   H1  H2  O   H1  H2  O   H1  H2  O   H1  H2  O   H1  H2  O   
H1  H2  O   H1  H2  O   H1  H2  O   H1  H2  O   H1  H2  O   H1  H2  O   H1  H2  
O   H1  H2  O   H1  H2  O   H1  H2  O   H1  H2  O   H1  H2  O   H1  H2  O   H1  
H2  O   H1  H2  O   H1  H2  O   H1  H2  O   H1  H2  O   H1  H2  O   H1  H2  O   
H1  H2  O   H1  H2  O   H1  H2  O   H1  H2  O   H1  H2  O   H1  H2  O   H1  H2  
O   H1  H2  O   H1  H2  O   H1  H2  O   H1  H2  O   H1  H2  O   H1  H2  O   H1  
H2  O   H1  H2  O   H1  H2  O   H1  H2  O   H1  H2  O   H1  H2  O   H1  H2  O   
H1  H2  O   H1  H2  O   H1  H2  O   H1  H2  O   H1  H2  O   H1  H2  O   H1  H2  
O   H1  H2  O   H1  H2  O   H1  H2  O   H1  H2  O   H1  H2  O   H1  H2  O   H1  
H2  O   H1  H2  O   H1  H2  O   H1  H2  O   H1  H2  O   H1  H2  O   H1  H2  O   
H1  H2  O   H1  H2  O   H1  H2  O   H1  H2  O   H1  H2  O   H1  H2  O   H1  H2  
O   H1  H2  O   H1  H2  O   H1  H2  O   H1  H2  O   H1  H2  O   H1  H2  O   H1  
H2  O   H1  H2  O   H1  H2  O   H1  H2  O   H1  H2  O   H1  H2  O   H1  H2  O   
H1  H2  O   H1  H2  O   H1  H2  O   H1  H2  O   H1  H2  O   H1  H2  O   H1  H2  
O   H1  H2  O   H1  H2  O   H1  H2  O   H1  H2  O   H1  H2  O   H1  H2  O   H1  
H2  O   H1  H2  O   H1  H2  O   H1  H2  O   H1  H2  O   H1  H2  O   H1  H2  O   
H1  H2  O   H1  H2  O   H1  H2  O   H1  H2  O   H1  H2  O   H1  H2  O   H1  H2  
O   H1  H2  O   H1  H2  O   H1  H2  O   H1  H2  O   H1  H2  O   H1  H2  O   H1  
H2  O   H1  H2  O   H1  H2  O   H1  H2  O   H1  H2  O   H1  H2  O   H1  H2  O   
H1  H2  O   H1  H2  O   H1  H2  O   H1  H2  O   H1  H2  O   H1  H2  O   H1  H2  
O   H1  H2  O   H1  H2  O   H1  H2  O   H1  H2  O   H1  H2  O   H1  H2  O   H1  
H2  O   H1  H2  O   H1  H2  O   H1  H2  O   H1  H2  O   H1  H2  O   H1  H2  O   
H1  H2  O   H1  H2  O   H1  H2  O   H1  H2  O   H1  H2  O   H1  H2  O   H1  H2  
O   H1  H2  O   H1  H2  O   H1  H2  O   H1  H2  O   H1  H2  O   H1  H2  O   H1  
H2  O   H1  H2  O   H1  H2  O   H1  H2  O   H1  H2  O   H1  H2  O   H1  H2  O   
H1  H2  O   H1  H2  O   H1  H2  O   H1  H2  O   H1  H2  O   H1  H2  O   H1  H2  
O   H1  H2  O   H1  H2  O   H1  H2  O   H1  H2  O   H1  H2  O   H1  H2  O   H1  
H2  O   H1  H2  O   H1  H2  O   H1  H2  O   H1  H2  O   H1  H2  O   H1  H2  O   
H1  H2  O   H1  H2  O   H1  H2  O   H1  H2  O   H1  H2  O   H1  H2  O   H1  H2  
O   H1  H2  O   H1  H2  O   H1  H2  O   H1  H2  O   H1  H2  O   H1  H2  O   H1  
H2  O   H1  H2  O   H1  H2  O   H1  H2  O   H1  H2  O   H1  H2  O   H1  H2  O   
H1  H2  O   H1  H2  O   H1  H2  O   H1  H2  O   H1  H2  O   H1  H2  O   H1  H2  
O   H1  H2  O   H1  H2  O   H1  H2  O   H1  H2  O   H1  H2  O   H1  H2  O   H1  
H2  O   H1  H2  O   H1  H2  O   H1  H2  O   H1  H2  O   H1  H2  O   H1  H2  O   
H1  H2  O   H1  H2  O   H1  H2  O   H1  H2  O   H1  H2  O   H1  H2  O   H1  H2  
O   H1  H2  O   H1  H2  O   H1  H2  O   H1  H2  O   H1  H2  O   H1  H2  O   H1  
H2  O   H1  H2  O   H1  H2  O   H1  H2  O   H1  H2  O   H1  H2  O   H1  H2  O   
H1  H2  O   H1  H2  O   H1  H2  O   H1  H2  O   H1  H2  O   H1  H2  O   H1  H2  
O   H1  H2  O   H1  H2  O   H1  H2  O   H1  H2  O   H1  H2  O   H1  H2  O   H1  
H2  O   H1  H2  O   H1  H2  O   H1  H2  O   H1  H2  O   H1  H2  O   H1  H2  O   
H1  H2  O   H1  H2  O   H1  H2  O   H1  H2  O   H1  H2  O   H1  H2  O   H1  H2  
O   H1  H2  O   H1  H2  O   H1  H2  O   H1  H2  O   H1  H2  O   H1  H2  O   H1  
H2  O   H1  H2  O   H1  H2  O   H1  H2  O   H1  H2  O   H1  H2  O   H1  H2  O   
H1  H2  O   H1  H2  O   H1  H2  O   H1  H2  O   H1  H2  O   H1  H2  O   H1  H2  
O   H1  H2  O   H1  H2  O   H1  H2  O   H1  H2  O   H1  H2  O   H1  H2  O   H1  
H2  O   H1  H2  O   H1  H2  O   H1  H2  O   H1  H2  O   H1  H2  O   H1  H2  O   
H1  H2  O   H1  H2  O   H1  H2  O   H1  H2  O   H1  H2  O   H1  H2  O   H1  H2  
O   H1  H2  O   H1  H2  O   H1  H2  O   H1  H2  O   H1  H2  O   H1  H2  O   H1  
H2  O   H1  H2  O   H1  H2  O   H1  H2  O   H1  H2  O   H1  H2  O   H1  H2  O   
H1  H2  O   H1  H2  O   H1  H2  O   H1  H2  O   H1  H2  O   H1  H2  O   H1  H2  
O   H1  H2  O   H1  H2  O   H1  H2  O   H1  H2  O   H1  H2  O   H1  H2  O   H1  
H2  O   H1  H2  O   H1  H2  O   H1  H2  O   H1  H2  O   H1  H2  O   H1  H2  O   
H1  H2  O   H1  H2  O   H1  H2  O   H1  H2  O   H1  H2  O   H1  H2  O   H1  H2  
O   H1  H2  O   H1  H2  O   H1  H2  O   H1  H2  O   H1  H2  O   H1  H2  O   H1  
H2  O   H1  H2  O   H1  H2  O   H1  H2  O   H1  H2  O   H1  H2  O   H1  H2  O   
H1  H2  O   H1  H2  O   H1  H2  O   H1  H2  O   H1  H2  O   H1  H2  O   H1  H2  
O   H1  H2  O   H1  H2  O   H1  H2  O   H1  H2  O   H1  H2  O   H1  H2  O   H1  
H2  O   H1  H2  O   H1  H2  O   H1  H2  O   H1  H2  O   H1  H2  O   H1  H2  O   
H1  H2  O   H1  H2  O   H1  H2  O   H1  H2  O   H1  H2  O   H1  H2  O   H1  H2  
O   H1  H2  O   H1  H2  O   H1  H2  O   H1  H2  O   H1  H2  O   H1  H2  O   H1  
H2  O   H1  H2  O   H1  H2  O   H1  H2  O   H1  H2  O   H1  H2  O   H1  H2  O   
H1  H2  O   H1  H2  O   H1  H2  O   H1  H2  O   H1  H2  O   H1  H2  O   H1  H2  
O   H1  H2  O   H1  H2  O   H1  H2  O   H1  H2  O   H1  H2  O   H1  H2  O   H1  
H2  O   H1  H2  O   H1  H2  O   H1  H2  O   H1  H2  O   H1  H2  O   H1  H2  O   
H1  H2  O   H1  H2  O   H1  H2  O   H1  H2  O   H1  H2  O   H1  H2  O   H1  H2  
O   H1  H2  O   H1  H2  O   H1  H2  O   H1  H2  O   H1  H2  O   H1  H2  O   H1  
H2  O   H1  H2  O   H1  H2  O   H1  H2  O   H1  H2  O   H1  H2  O   H1  H2  O   
H1  H2  O   H1  H2  O   H1  H2  O   H1  H2  O   H1  H2  O   H1  H2  O   H1  H2  
O   H1  H2  O   H1  H2  O   H1  H2  O   H1  H2  O   H1  H2  O   H1  H2  O   H1  
H2  O   H1  H2  O   H1  H2  O   H1  H2  O   H1  H2  O   H1  H2  O   H1  H2  O   
H1  H2  O   H1  H2  O   H1  H2  O   H1  H2  O   H1  H2  O   H1  H2  O   H1  H2  
O   H1  H2  O   H1  H2  O   H1  H2  O   H1  H2  O   H1  H2  O   H1  H2  O   H1  
H2  O   H1  H2  O   H1  H2  O   H1  H2  O   H1  H2  O   H1  H2  O   H1  H2  O   
H1  H2  O   H1  H2  O   H1  H2  O   H1  H2  O   H1  H2  O   H1  H2  O   H1  H2  
O   H1  H2  O   H1  H2  O   H1  H2  O   H1  H2  O   H1  H2  O   H1  H2  O   H1  
H2  O   H1  H2  O   H1  H2  O   H1  H2  O   H1  H2  O   H1  H2  O   H1  H2  O   
H1  H2  O   H1  H2  O   H1  H2  O   H1  H2  O   H1  H2  O   H1  H2  O   H1  H2  
O   H1  H2  O   H1  H2  O   H1  H2  O   H1  H2  O   H1  H2  O   H1  H2  O   H1  
H2  O   H1  H2  O   H1  H2  O   H1  H2  O   H1  H2  O   H1  H2  O   H1  H2  O   
H1  H2  O   H1  H2  O   H1  H2  O   H1  H2  O   H1  H2  O   H1  H2  O   H1  H2  
O   H1  H2  O   H1  H2  O   H1  H2  O   H1  H2  O   H1  H2  O   H1  H2  O   H1  
H2  O   H1  H2  O   H1  H2  O   H1  H2  O   H1  H2  O   H1  H2  O   H1  H2  O   
H1  H2  O   H1  H2  O   H1  H2  O   H1  H2  O   H1  H2  O   H1  H2  O   H1  H2  
O   H1  H2  O   H1  H2  O   H1  H2  O   H1  H2  O   H1  H2  O   H1  H2  O   H1  
H2  O   H1  H2  O   H1  H2  O   H1  H2  O   H1  H2  O   H1  H2  O   H1  H2  O   
H1  H2  O   H1  H2  O   H1  H2  O   H1  H2  O   H1  H2  O   H1  H2  O   H1  H2  
O   H1  H2  O   H1  H2  O   H1  H2  O   H1  H2  O   H1  H2  O   H1  H2  O   H1  
H2  O   H1  H2  O   H1  H2  O   H1  H2  O   H1  H2  O   H1  H2  O   H1  H2  O   
H1  H2  O   H1  H2  O   H1  H2  O   H1  H2  O   H1  H2  O   H1  H2  O   H1  H2  
O   H1  H2  O   H1  H2  O   H1  H2  O   H1  H2  O   H1  H2  O   H1  H2  O   H1  
H2  O   H1  H2  O   H1  H2  O   H1  H2  O   H1  H2  O   H1  H2  O   H1  H2  O   
H1  H2  O   H1  H2  O   H1  H2  O   H1  H2  O   H1  H2  O   H1  H2  O   H1  H2  
O   H1  H2  O   H1  H2  O   H1  H2  O   H1  H2  O   H1  H2  O   H1  H2  O   H1  
H2  O   H1  H2  O   H1  H2  O   H1  H2  O   H1  H2  O   H1  H2  O   H1  H2  O   
H1  H2  O   H1  H2  O   H1  H2  O   H1  H2  O   H1  H2  O   H1  H2  O   H1  H2  
O   H1  H2  O   H1  H2  O   H1  H2  O   H1  H2  O   H1  H2  O   H1  H2  O   H1  
H2  O   H1  H2  O   H1  H2  O   H1  H2  O   H1  H2  O   H1  H2  O   H1  H2  O   
H1  H2  O   H1  H2  O   H1  H2  O   H1  H2  O   H1  H2  O   H1  H2  O   H1  H2  
O   H1  H2  O   H1  H2  O   H1  H2  O   H1  H2  O   H1  H2  O   H1  H2  O   H1  
H2  O   H1  H2  O   H1  H2  O   H1  H2  O   H1  H2  O   H1  H2  O   H1  H2  O   
H1  H2  O   H1  H2  O   H1  H2  O   H1  H2  O   H1  H2  O   H1  H2  O   H1  H2  
O   H1  H2  O   H1  H2  O   H1  H2  O   H1  H2  O   H1  H2  O   H1  H2  O   H1  
H2  O   H1  H2  O   H1  H2  O   H1  H2  O   H1  H2  O   H1  H2  O   H1  H2  O   
H1  H2  O   H1  H2  O   H1  H2  O   H1  H2  O   H1  H2  O   H1  H2  O   H1  H2  
O   H1  H2  O   H1  H2  O   H1  H2  O   H1  H2  O   H1  H2  O   H1  H2  O   H1  
H2  O   H1  H2  O   H1  H2  O   H1  H2  O   H1  H2  O   H1  H2  O   H1  H2  O   
H1  H2  O   H1  H2  O   H1  H2  O   H1  H2  O   H1  H2  O   H1  H2  O   H1  H2  
O   H1  H2  O   H1  H2  O   H1  H2  O   H1  H2  O   H1  H2  O   H1  H2  O   H1  
H2  O   H1  H2  O   H1  H2  O   H1  H2  O   H1  H2  O   H1  H2  O   H1  H2  O   
H1  H2  O   H1  H2  O   H1  H2  O   H1  H2  O   H1  H2  O   H1  H2  O   H1  H2  
O   H1  H2  O   H1  H2  O   H1  H2  O   H1  H2  O   H1  H2  O   H1  H2  O   H1  
H2  O   H1  H2  O   H1  H2  O   H1  H2  O   H1  H2  O   H1  H2  O   H1  H2  O   
H1  H2  O   H1  H2  O   H1  H2  O   H1  H2  O   H1  H2  O   H1  H2  O   H1  H2  
O   H1  H2  O   H1  H2  O   H1  H2  O   H1  H2  O   H1  H2  O   H1  H2  O   H1  
H2  O   H1  H2  O   H1  H2  O   H1  H2  O   H1  H2  O   H1  H2  O   H1  H2  O   
H1  H2  O   H1  H2  O   H1  H2  O   H1  H2  O   H1  H2  O   H1  H2  O   H1  H2  
O   H1  H2  O   H1  H2  O   H1  H2  O   H1  H2  O   H1  H2  O   H1  H2  O   H1  
H2  O   H1  H2  O   H1  H2  O   H1  H2  O   H1  H2  O   H1  H2  O   H1  H2  O   
H1  H2  O   H1  H2  O   H1  H2  O   H1  H2  O   H1  H2  O   H1  H2  O   H1  H2  
O   H1  H2  O   H1  H2  O   H1  H2  O   H1  H2  O   H1  H2  O   H1  H2  O   H1  
H2  O   H1  H2  
%FLAG CHARGE                                                                    
%FORMAT(5E16.8)                                                                 
 -1.33314347E+01  3.03036849E+00 -1.58679788E+01  3.03036849E+00 -1.33314347E+01
 -1.58679788E+01  3.03036849E+00 -1.33314347E+01 -1.58679788E+01  3.03036849E+00
 -1.58679788E+01  3.03036849E+00 -1.58679788E+01  3.03036849E+00 -1.58679788E+01
  1.25976227E+00  1.64778246E+01  1.25976227E+00  1.64778246E+01  1.25976227E+00
  1.64778246E+01  6.32313810E-01  6.32313810E-01  6.32313810E-01  6.32313810E-01
  2.52688634E-01  2.52688634E-01  2.52688634E-01  2.52688634E-01  2.52688634E-01
  2.52688634E-01  6.32313810E-01  6.32313810E-01  6.32313810E-01  6.32313810E-01
  6.32313810E-01  6.32313810E-01  6.32313810E-01  6.32313810E-01  3.64446000E+01
  1.82223000E+01 -1.54452215E+01  7.72261074E+00  7.72261074E+00 -1.54452215E+01
  7.72261074E+00  7.72261074E+00 -1.54452215E+01  7.72261074E+00  7.72261074E+00
 -1.54452215E+01  7.72261074E+00  7.72261074E+00 -1.54452215E+01  7.72261074E+00
  7.72261074E+00 -1.54452215E+01  7.72261074E+00  7.72261074E+00 -1.54452215E+01
  7.72261074E+00  7.72261074E+00 -1.54452215E+01  7.72261074E+00  7.72261074E+00
 -1.54452215E+01  7.72261074E+00  7.72261074E+00 -1.54452215E+01  7.72261074E+00
  7.72261074E+00 -1.54452215E+01  7.72261074E+00  7.72261074E+00 -1.54452215E+01
  7.72261074E+00  7.72261074E+00 -1.54452215E+01  7.72261074E+00  7.72261074E+00
 -1.54452215E+01  7.72261074E+00  7.72261074E+00 -1.54452215E+01  7.72261074E+00
  7.72261074E+00 -1.54452215E+01  7.72261074E+00  7.72261074E+00 -1.54452215E+01
  7.72261074E+00  7.72261074E+00 -1.54452215E+01  7.72261074E+00  7.72261074E+00
 -1.54452215E+01  7.72261074E+00  7.72261074E+00 -1.54452215E+01  7.72261074E+00
  7.72261074E+00 -1.54452215E+01  7.72261074E+00  7.72261074E+00 -1.54452215E+01
  7.72261074E+00  7.72261074E+00 -1.54452215E+01  7.72261074E+00  7.72261074E+00
 -1.54452215E+01  7.72261074E+00  7.72261074E+00 -1.54452215E+01  7.72261074E+00
  7.72261074E+00 -1.54452215E+01  7.72261074E+00  7.72261074E+00 -1.54452215E+01
  7.72261074E+00  7.72261074E+00 -1.54452215E+01  7.72261074E+00  7.72261074E+00
 -1.54452215E+01  7.72261074E+00  7.72261074E+00 -1.54452215E+01  7.72261074E+00
  7.72261074E+00 -1.54452215E+01  7.72261074E+00  7.72261074E+00 -1.54452215E+01
  7.72261074E+00  7.72261074E+00 -1.54452215E+01  7.72261074E+00  7.72261074E+00
 -1.54452215E+01  7.72261074E+00  7.72261074E+00 -1.54452215E+01  7.72261074E+00
  7.72261074E+00 -1.54452215E+01  7.72261074E+00  7.72261074E+00 -1.54452215E+01
  7.72261074E+00  7.72261074E+00 -1.54452215E+01  7.72261074E+00  7.72261074E+00
 -1.54452215E+01  7.72261074E+00  7.72261074E+00 -1.54452215E+01  7.72261074E+00
  7.72261074E+00 -1.54452215E+01  7.72261074E+00  7.72261074E+00 -1.54452215E+01
  7.72261074E+00  7.72261074E+00 -1.54452215E+01  7.72261074E+00  7.72261074E+00
 -1.54452215E+01  7.72261074E+00  7.72261074E+00 -1.54452215E+01  7.72261074E+00
  7.72261074E+00 -1.54452215E+01  7.72261074E+00  7.72261074E+00 -1.54452215E+01
  7.72261074E+00  7.72261074E+00 -1.54452215E+01  7.72261074E+00  7.72261074E+00
 -1.54452215E+01  7.72261074E+00  7.72261074E+00 -1.54452215E+01  7.72261074E+00
  7.72261074E+00 -1.54452215E+01  7.72261074E+00  7.72261074E+00 -1.54452215E+01
  7.72261074E+00  7.72261074E+00 -1.54452215E+01  7.72261074E+00  7.72261074E+00
 -1.54452215E+01  7.72261074E+00  7.72261074E+00 -1.54452215E+01  7.72261074E+00
  7.72261074E+00 -1.54452215E+01  7.72261074E+00  7.72261074E+00 -1.54452215E+01
  7.72261074E+00  7.72261074E+00 -1.54452215E+01  7.72261074E+00  7.72261074E+00
 -1.54452215E+01  7.72261074E+00  7.72261074E+00 -1.54452215E+01  7.72261074E+00
  7.72261074E+00 -1.54452215E+01  7.72261074E+00  7.72261074E+00 -1.54452215E+01
  7.72261074E+00  7.72261074E+00 -1.54452215E+01  7.72261074E+00  7.72261074E+00
 -1.54452215E+01  7.72261074E+00  7.72261074E+00 -1.54452215E+01  7.72261074E+00
  7.72261074E+00 -1.54452215E+01  7.72261074E+00  7.72261074E+00 -1.54452215E+01
  7.72261074E+00  7.72261074E+00 -1.54452215E+01  7.72261074E+00  7.72261074E+00
 -1.54452215E+01  7.72261074E+00  7.72261074E+00 -1.54452215E+01  7.72261074E+00
  7.72261074E+00 -1.54452215E+01  7.72261074E+00  7.72261074E+00 -1.54452215E+01
  7.72261074E+00  7.72261074E+00 -1.54452215E+01  7.72261074E+00  7.72261074E+00
 -1.54452215E+01  7.72261074E+00  7.72261074E+00 -1.54452215E+01  7.72261074E+00
  7.72261074E+00 -1.54452215E+01  7.72261074E+00  7.72261074E+00 -1.54452215E+01
  7.72261074E+00  7.72261074E+00 -1.54452215E+01  7.72261074E+00  7.72261074E+00
 -1.54452215E+01  7.72261074E+00  7.72261074E+00 -1.54452215E+01  7.72261074E+00
  7.72261074E+00 -1.54452215E+01  7.72261074E+00  7.72261074E+00 -1.54452215E+01
  7.72261074E+00  7.72261074E+00 -1.54452215E+01  7.72261074E+00  7.72261074E+00
 -1.54452215E+01  7.72261074E+00  7.72261074E+00 -1.54452215E+01  7.72261074E+00
  7.72261074E+00 -1.54452215E+01  7.72261074E+00  7.72261074E+00 -1.54452215E+01
  7.72261074E+00  7.72261074E+00 -1.54452215E+01  7.72261074E+00  7.72261074E+00
 -1.54452215E+01  7.72261074E+00  7.72261074E+00 -1.54452215E+01  7.72261074E+00
  7.72261074E+00 -1.54452215E+01  7.72261074E+00  7.72261074E+00 -1.54452215E+01
  7.72261074E+00  7.72261074E+00 -1.54452215E+01  7.72261074E+00  7.72261074E+00
 -1.54452215E+01  7.72261074E+00  7.72261074E+00 -1.54452215E+01  7.72261074E+00
  7.72261074E+00 -1.54452215E+01  7.72261074E+00  7.72261074E+00 -1.54452215E+01
  7.72261074E+00  7.72261074E+00 -1.54452215E+01  7.72261074E+00  7.72261074E+00
 -1.54452215E+01  7.72261074E+00  7.72261074E+00 -1.54452215E+01  7.72261074E+00
  7.72261074E+00 -1.54452215E+01  7.72261074E+00  7.72261074E+00 -1.54452215E+01
  7.72261074E+00  7.72261074E+00 -1.54452215E+01  7.72261074E+00  7.72261074E+00
 -1.54452215E+01  7.72261074E+00  7.72261074E+00 -1.54452215E+01  7.72261074E+00
  7.72261074E+00 -1.54452215E+01  7.72261074E+00  7.72261074E+00 -1.54452215E+01
  7.72261074E+00  7.72261074E+00 -1.54452215E+01  7.72261074E+00  7.72261074E+00
 -1.54452215E+01  7.72261074E+00  7.72261074E+00 -1.54452215E+01  7.72261074E+00
  7.72261074E+00 -1.54452215E+01  7.72261074E+00  7.72261074E+00 -1.54452215E+01
  7.72261074E+00  7.72261074E+00 -1.54452215E+01  7.72261074E+00  7.72261074E+00
 -1.54452215E+01  7.72261074E+00  7.72261074E+00 -1.54452215E+01  7.72261074E+00
  7.72261074E+00 -1.54452215E+01  7.72261074E+00  7.72261074E+00 -1.54452215E+01
  7.72261074E+00  7.72261074E+00 -1.54452215E+01  7.72261074E+00  7.72261074E+00
 -1.54452215E+01  7.72261074E+00  7.72261074E+00 -1.54452215E+01  7.72261074E+00
  7.72261074E+00 -1.54452215E+01  7.72261074E+00  7.72261074E+00 -1.54452215E+01
  7.72261074E+00  7.72261074E+00 -1.54452215E+01  7.72261074E+00  7.72261074E+00
 -1.54452215E+01  7.72261074E+00  7.72261074E+00 -1.54452215E+01  7.72261074E+00
  7.72261074E+00 -1.54452215E+01  7.72261074E+00  7.72261074E+00 -1.54452215E+01
  7.72261074E+00  7.72261074E+00 -1.54452215E+01  7.72261074E+00  7.72261074E+00
 -1.54452215E+01  7.72261074E+00  7.72261074E+00 -1.54452215E+01  7.72261074E+00
  7.72261074E+00 -1.54452215E+01  7.72261074E+00  7.72261074E+00 -1.54452215E+01
  7.72261074E+00  7.72261074E+00 -1.54452215E+01  7.72261074E+00  7.72261074E+00
 -1.54452215E+01  7.72261074E+00  7.72261074E+00 -1.54452215E+01  7.72261074E+00
  7.72261074E+00 -1.54452215E+01  7.72261074E+00  7.72261074E+00 -1.54452215E+01
  7.72261074E+00  7.72261074E+00 -1.54452215E+01  7.72261074E+00  7.72261074E+00
 -1.54452215E+01  7.72261074E+00  7.72261074E+00 -1.54452215E+01  7.72261074E+00
  7.72261074E+00 -1.54452215E+01  7.72261074E+00  7.72261074E+00 -1.54452215E+01
  7.72261074E+00  7.72261074E+00 -1.54452215E+01  7.72261074E+00  7.72261074E+00
 -1.54452215E+01  7.72261074E+00  7.72261074E+00 -1.54452215E+01  7.72261074E+00
  7.72261074E+00 -1.54452215E+01  7.72261074E+00  7.72261074E+00 -1.54452215E+01
  7.72261074E+00  7.72261074E+00 -1.54452215E+01  7.72261074E+00  7.72261074E+00
 -1.54452215E+01  7.72261074E+00  7.72261074E+00 -1.54452215E+01  7.72261074E+00
  7.72261074E+00 -1.54452215E+01  7.72261074E+00  7.72261074E+00 -1.54452215E+01
  7.72261074E+00  7.72261074E+00 -1.54452215E+01  7.72261074E+00  7.72261074E+00
 -1.54452215E+01  7.72261074E+00  7.72261074E+00 -1.54452215E+01  7.72261074E+00
  7.72261074E+00 -1.54452215E+01  7.72261074E+00  7.72261074E+00 -1.54452215E+01
  7.72261074E+00  7.72261074E+00 -1.54452215E+01  7.72261074E+00  7.72261074E+00
 -1.54452215E+01  7.72261074E+00  7.72261074E+00 -1.54452215E+01  7.72261074E+00
  7.72261074E+00 -1.54452215E+01  7.72261074E+00  7.72261074E+00 -1.54452215E+01
  7.72261074E+00  7.72261074E+00 -1.54452215E+01  7.72261074E+00  7.72261074E+00
 -1.54452215E+01  7.72261074E+00  7.72261074E+00 -1.54452215E+01  7.72261074E+00
  7.72261074E+00 -1.54452215E+01  7.72261074E+00  7.72261074E+00 -1.54452215E+01
  7.72261074E+00  7.72261074E+00 -1.54452215E+01  7.72261074E+00  7.72261074E+00
 -1.54452215E+01  7.72261074E+00  7.72261074E+00 -1.54452215E+01  7.72261074E+00
  7.72261074E+00 -1.54452215E+01  7.72261074E+00  7.72261074E+00 -1.54452215E+01
  7.72261074E+00  7.72261074E+00 -1.54452215E+01  7.72261074E+00  7.72261074E+00
 -1.54452215E+01  7.72261074E+00  7.72261074E+00 -1.54452215E+01  7.72261074E+00
  7.72261074E+00 -1.54452215E+01  7.72261074E+00  7.72261074E+00 -1.54452215E+01
  7.72261074E+00  7.72261074E+00 -1.54452215E+01  7.72261074E+00  7.72261074E+00
 -1.54452215E+01  7.72261074E+00  7.72261074E+00 -1.54452215E+01  7.72261074E+00
  7.72261074E+00 -1.54452215E+01  7.72261074E+00  7.72261074E+00 -1.54452215E+01
  7.72261074E+00  7.72261074E+00 -1.54452215E+01  7.72261074E+00  7.72261074E+00
 -1.54452215E+01  7.72261074E+00  7.72261074E+00 -1.54452215E+01  7.72261074E+00
  7.72261074E+00 -1.54452215E+01  7.72261074E+00  7.72261074E+00 -1.54452215E+01
  7.72261074E+00  7.72261074E+00 -1.54452215E+01  7.72261074E+00  7.72261074E+00
 -1.54452215E+01  7.72261074E+00  7.72261074E+00 -1.54452215E+01  7.72261074E+00
  7.72261074E+00 -1.54452215E+01  7.72261074E+00  7.72261074E+00 -1.54452215E+01
  7.72261074E+00  7.72261074E+00 -1.54452215E+01  7.72261074E+00  7.72261074E+00
 -1.54452215E+01  7.72261074E+00  7.72261074E+00 -1.54452215E+01  7.72261074E+00
  7.72261074E+00 -1.54452215E+01  7.72261074E+00  7.72261074E+00 -1.54452215E+01
  7.72261074E+00  7.72261074E+00 -1.54452215E+01  7.72261074E+00  7.72261074E+00
 -1.54452215E+01  7.72261074E+00  7.72261074E+00 -1.54452215E+01  7.72261074E+00
  7.72261074E+00 -1.54452215E+01  7.72261074E+00  7.72261074E+00 -1.54452215E+01
  7.72261074E+00  7.72261074E+00 -1.54452215E+01  7.72261074E+00  7.72261074E+00
 -1.54452215E+01  7.72261074E+00  7.72261074E+00 -1.54452215E+01  7.72261074E+00
  7.72261074E+00 -1.54452215E+01  7.72261074E+00  7.72261074E+00 -1.54452215E+01
  7.72261074E+00  7.72261074E+00 -1.54452215E+01  7.72261074E+00  7.72261074E+00
 -1.54452215E+01  7.72261074E+00  7.72261074E+00 -1.54452215E+01  7.72261074E+00
  7.72261074E+00 -1.54452215E+01  7.72261074E+00  7.72261074E+00 -1.54452215E+01
  7.72261074E+00  7.72261074E+00 -1.54452215E+01  7.72261074E+00  7.72261074E+00
 -1.54452215E+01  7.72261074E+00  7.72261074E+00 -1.54452215E+01  7.72261074E+00
  7.72261074E+00 -1.54452215E+01  7.72261074E+00  7.72261074E+00 -1.54452215E+01
  7.72261074E+00  7.72261074E+00 -1.54452215E+01  7.72261074E+00  7.72261074E+00
 -1.54452215E+01  7.72261074E+00  7.72261074E+00 -1.54452215E+01  7.72261074E+00
  7.72261074E+00 -1.54452215E+01  7.72261074E+00  7.72261074E+00 -1.54452215E+01
  7.72261074E+00  7.72261074E+00 -1.54452215E+01  7.72261074E+00  7.72261074E+00
 -1.54452215E+01  7.72261074E+00  7.72261074E+00 -1.54452215E+01  7.72261074E+00
  7.72261074E+00 -1.54452215E+01  7.72261074E+00  7.72261074E+00 -1.54452215E+01
  7.72261074E+00  7.72261074E+00 -1.54452215E+01  7.72261074E+00  7.72261074E+00
 -1.54452215E+01  7.72261074E+00  7.72261074E+00 -1.54452215E+01  7.72261074E+00
  7.72261074E+00 -1.54452215E+01  7.72261074E+00  7.72261074E+00 -1.54452215E+01
  7.72261074E+00  7.72261074E+00 -1.54452215E+01  7.72261074E+00  7.72261074E+00
 -1.54452215E+01  7.72261074E+00  7.72261074E+00 -1.54452215E+01  7.72261074E+00
  7.72261074E+00 -1.54452215E+01  7.72261074E+00  7.72261074E+00 -1.54452215E+01
  7.72261074E+00  7.72261074E+00 -1.54452215E+01  7.72261074E+00  7.72261074E+00
 -1.54452215E+01  7.72261074E+00  7.72261074E+00 -1.54452215E+01  7.72261074E+00
  7.72261074E+00 -1.54452215E+01  7.72261074E+00  7.72261074E+00 -1.54452215E+01
  7.72261074E+00  7.72261074E+00 -1.54452215E+01  7.72261074E+00  7.72261074E+00
 -1.54452215E+01  7.72261074E+00  7.72261074E+00 -1.54452215E+01  7.72261074E+00
  7.72261074E+00 -1.54452215E+01  7.72261074E+00  7.72261074E+00 -1.54452215E+01
  7.72261074E+00  7.72261074E+00 -1.54452215E+01  7.72261074E+00  7.72261074E+00
 -1.54452215E+01  7.72261074E+00  7.72261074E+00 -1.54452215E+01  7.72261074E+00
  7.72261074E+00 -1.54452215E+01  7.72261074E+00  7.72261074E+00 -1.54452215E+01
  7.72261074E+00  7.72261074E+00 -1.54452215E+01  7.72261074E+00  7.72261074E+00
 -1.54452215E+01  7.72261074E+00  7.72261074E+00 -1.54452215E+01  7.72261074E+00
  7.72261074E+00 -1.54452215E+01  7.72261074E+00  7.72261074E+00 -1.54452215E+01
  7.72261074E+00  7.72261074E+00 -1.54452215E+01  7.72261074E+00  7.72261074E+00
 -1.54452215E+01  7.72261074E+00  7.72261074E+00 -1.54452215E+01  7.72261074E+00
  7.72261074E+00 -1.54452215E+01  7.72261074E+00  7.72261074E+00 -1.54452215E+01
  7.72261074E+00  7.72261074E+00 -1.54452215E+01  7.72261074E+00  7.72261074E+00
 -1.54452215E+01  7.72261074E+00  7.72261074E+00 -1.54452215E+01  7.72261074E+00
  7.72261074E+00 -1.54452215E+01  7.72261074E+00  7.72261074E+00 -1.54452215E+01
  7.72261074E+00  7.72261074E+00 -1.54452215E+01  7.72261074E+00  7.72261074E+00
 -1.54452215E+01  7.72261074E+00  7.72261074E+00 -1.54452215E+01  7.72261074E+00
  7.72261074E+00 -1.54452215E+01  7.72261074E+00  7.72261074E+00 -1.54452215E+01
  7.72261074E+00  7.72261074E+00 -1.54452215E+01  7.72261074E+00  7.72261074E+00
 -1.54452215E+01  7.72261074E+00  7.72261074E+00 -1.54452215E+01  7.72261074E+00
  7.72261074E+00 -1.54452215E+01  7.72261074E+00  7.72261074E+00 -1.54452215E+01
  7.72261074E+00  7.72261074E+00 -1.54452215E+01  7.72261074E+00  7.72261074E+00
 -1.54452215E+01  7.72261074E+00  7.72261074E+00 -1.54452215E+01  7.72261074E+00
  7.72261074E+00 -1.54452215E+01  7.72261074E+00  7.72261074E+00 -1.54452215E+01
  7.72261074E+00  7.72261074E+00 -1.54452215E+01  7.72261074E+00  7.72261074E+00
 -1.54452215E+01  7.72261074E+00  7.72261074E+00 -1.54452215E+01  7.72261074E+00
  7.72261074E+00 -1.54452215E+01  7.72261074E+00  7.72261074E+00 -1.54452215E+01
  7.72261074E+00  7.72261074E+00 -1.54452215E+01  7.72261074E+00  7.72261074E+00
 -1.54452215E+01  7.72261074E+00  7.72261074E+00 -1.54452215E+01  7.72261074E+00
  7.72261074E+00 -1.54452215E+01  7.72261074E+00  7.72261074E+00 -1.54452215E+01
  7.72261074E+00  7.72261074E+00 -1.54452215E+01  7.72261074E+00  7.72261074E+00
 -1.54452215E+01  7.72261074E+00  7.72261074E+00 -1.54452215E+01  7.72261074E+00
  7.72261074E+00 -1.54452215E+01  7.72261074E+00  7.72261074E+00 -1.54452215E+01
  7.72261074E+00  7.72261074E+00 -1.54452215E+01  7.72261074E+00  7.72261074E+00
 -1.54452215E+01  7.72261074E+00  7.72261074E+00 -1.54452215E+01  7.72261074E+00
  7.72261074E+00 -1.54452215E+01  7.72261074E+00  7.72261074E+00 -1.54452215E+01
  7.72261074E+00  7.72261074E+00 -1.54452215E+01  7.72261074E+00  7.72261074E+00
 -1.54452215E+01  7.72261074E+00  7.72261074E+00 -1.54452215E+01  7.72261074E+00
  7.72261074E+00 -1.54452215E+01  7.72261074E+00  7.72261074E+00 -1.54452215E+01
  7.72261074E+00  7.72261074E+00 -1.54452215E+01  7.72261074E+00  7.72261074E+00
 -1.54452215E+01  7.72261074E+00  7.72261074E+00 -1.54452215E+01  7.72261074E+00
  7.72261074E+00 -1.54452215E+01  7.72261074E+00  7.72261074E+00 -1.54452215E+01
  7.72261074E+00  7.72261074E+00 -1.54452215E+01  7.72261074E+00  7.72261074E+00
 -1.54452215E+01  7.72261074E+00  7.72261074E+00 -1.54452215E+01  7.72261074E+00
  7.72261074E+00 -1.54452215E+01  7.72261074E+00  7.72261074E+00 -1.54452215E+01
  7.72261074E+00  7.72261074E+00 -1.54452215E+01  7.72261074E+00  7.72261074E+00
 -1.54452215E+01  7.72261074E+00  7.72261074E+00 -1.54452215E+01  7.72261074E+00
  7.72261074E+00 -1.54452215E+01  7.72261074E+00  7.72261074E+00 -1.54452215E+01
  7.72261074E+00  7.72261074E+00 -1.54452215E+01  7.72261074E+00  7.72261074E+00
 -1.54452215E+01  7.72261074E+00  7.72261074E+00 -1.54452215E+01  7.72261074E+00
  7.72261074E+00 -1.54452215E+01  7.72261074E+00  7.72261074E+00 -1.54452215E+01
  7.72261074E+00  7.72261074E+00 -1.54452215E+01  7.72261074E+00  7.72261074E+00
 -1.54452215E+01  7.72261074E+00  7.72261074E+00 -1.54452215E+01  7.72261074E+00
  7.72261074E+00 -1.54452215E+01  7.72261074E+00  7.72261074E+00 -1.54452215E+01
  7.72261074E+00  7.72261074E+00 -1.54452215E+01  7.72261074E+00  7.72261074E+00
 -1.54452215E+01  7.72261074E+00  7.72261074E+00 -1.54452215E+01  7.72261074E+00
  7.72261074E+00 -1.54452215E+01  7.72261074E+00  7.72261074E+00 -1.54452215E+01
  7.72261074E+00  7.72261074E+00 -1.54452215E+01  7.72261074E+00  7.72261074E+00
 -1.54452215E+01  7.72261074E+00  7.72261074E+00 -1.54452215E+01  7.72261074E+00
  7.72261074E+00 -1.54452215E+01  7.72261074E+00  7.72261074E+00 -1.54452215E+01
  7.72261074E+00  7.72261074E+00 -1.54452215E+01  7.72261074E+00  7.72261074E+00
 -1.54452215E+01  7.72261074E+00  7.72261074E+00 -1.54452215E+01  7.72261074E+00
  7.72261074E+00 -1.54452215E+01  7.72261074E+00  7.72261074E+00 -1.54452215E+01
  7.72261074E+00  7.72261074E+00 -1.54452215E+01  7.72261074E+00  7.72261074E+00
 -1.54452215E+01  7.72261074E+00  7.72261074E+00 -1.54452215E+01  7.72261074E+00
  7.72261074E+00 -1.54452215E+01  7.72261074E+00  7.72261074E+00 -1.54452215E+01
  7.72261074E+00  7.72261074E+00 -1.54452215E+01  7.72261074E+00  7.72261074E+00
 -1.54452215E+01  7.72261074E+00  7.72261074E+00 -1.54452215E+01  7.72261074E+00
  7.72261074E+00 -1.54452215E+01  7.72261074E+00  7.72261074E+00 -1.54452215E+01
  7.72261074E+00  7.72261074E+00 -1.54452215E+01  7.72261074E+00  7.72261074E+00
 -1.54452215E+01  7.72261074E+00  7.72261074E+00 -1.54452215E+01  7.72261074E+00
  7.72261074E+00 -1.54452215E+01  7.72261074E+00  7.72261074E+00 -1.54452215E+01
  7.72261074E+00  7.72261074E+00 -1.54452215E+01  7.72261074E+00  7.72261074E+00
 -1.54452215E+01  7.72261074E+00  7.72261074E+00 -1.54452215E+01  7.72261074E+00
  7.72261074E+00 -1.54452215E+01  7.72261074E+00  7.72261074E+00 -1.54452215E+01
  7.72261074E+00  7.72261074E+00 -1.54452215E+01  7.72261074E+00  7.72261074E+00
 -1.54452215E+01  7.72261074E+00  7.72261074E+00 -1.54452215E+01  7.72261074E+00
  7.72261074E+00 -1.54452215E+01  7.72261074E+00  7.72261074E+00 -1.54452215E+01
  7.72261074E+00  7.72261074E+00 -1.54452215E+01  7.72261074E+00  7.72261074E+00
 -1.54452215E+01  7.72261074E+00  7.72261074E+00 -1.54452215E+01  7.72261074E+00
  7.72261074E+00 -1.54452215E+01  7.72261074E+00  7.72261074E+00 -1.54452215E+01
  7.72261074E+00  7.72261074E+00 -1.54452215E+01  7.72261074E+00  7.72261074E+00
 -1.54452215E+01  7.72261074E+00  7.72261074E+00 -1.54452215E+01  7.72261074E+00
  7.72261074E+00 -1.54452215E+01  7.72261074E+00  7.72261074E+00 -1.54452215E+01
  7.72261074E+00  7.72261074E+00 -1.54452215E+01  7.72261074E+00  7.72261074E+00
 -1.54452215E+01  7.72261074E+00  7.72261074E+00 -1.54452215E+01  7.72261074E+00
  7.72261074E+00 -1.54452215E+01  7.72261074E+00  7.72261074E+00 -1.54452215E+01
  7.72261074E+00  7.72261074E+00 -1.54452215E+01  7.72261074E+00  7.72261074E+00
 -1.54452215E+01  7.72261074E+00  7.72261074E+00 -1.54452215E+01  7.72261074E+00
  7.72261074E+00 -1.54452215E+01  7.72261074E+00  7.72261074E+00 -1.54452215E+01
  7.72261074E+00  7.72261074E+00 -1.54452215E+01  7.72261074E+00  7.72261074E+00
 -1.54452215E+01  7.72261074E+00  7.72261074E+00 -1.54452215E+01  7.72261074E+00
  7.72261074E+00 -1.54452215E+01  7.72261074E+00  7.72261074E+00 -1.54452215E+01
  7.72261074E+00  7.72261074E+00 -1.54452215E+01  7.72261074E+00  7.72261074E+00
 -1.54452215E+01  7.72261074E+00  7.72261074E+00 -1.54452215E+01  7.72261074E+00
  7.72261074E+00 -1.54452215E+01  7.72261074E+00  7.72261074E+00 -1.54452215E+01
  7.72261074E+00  7.72261074E+00 -1.54452215E+01  7.72261074E+00  7.72261074E+00
 -1.54452215E+01  7.72261074E+00  7.72261074E+00 -1.54452215E+01  7.72261074E+00
  7.72261074E+00 -1.54452215E+01  7.72261074E+00  7.72261074E+00 -1.54452215E+01
  7.72261074E+00  7.72261074E+00 -1.54452215E+01  7.72261074E+00  7.72261074E+00
 -1.54452215E+01  7.72261074E+00  7.72261074E+00 -1.54452215E+01  7.72261074E+00
  7.72261074E+00 -1.54452215E+01  7.72261074E+00  7.72261074E+00 -1.54452215E+01
  7.72261074E+00  7.72261074E+00 -1.54452215E+01  7.72261074E+00  7.72261074E+00
 -1.54452215E+01  7.72261074E+00  7.72261074E+00 -1.54452215E+01  7.72261074E+00
  7.72261074E+00 -1.54452215E+01  7.72261074E+00  7.72261074E+00 -1.54452215E+01
  7.72261074E+00  7.72261074E+00 -1.54452215E+01  7.72261074E+00  7.72261074E+00
 -1.54452215E+01  7.72261074E+00  7.72261074E+00 -1.54452215E+01  7.72261074E+00
  7.72261074E+00 -1.54452215E+01  7.72261074E+00  7.72261074E+00 -1.54452215E+01
  7.72261074E+00  7.72261074E+00 -1.54452215E+01  7.72261074E+00  7.72261074E+00
 -1.54452215E+01  7.72261074E+00  7.72261074E+00 -1.54452215E+01  7.72261074E+00
  7.72261074E+00 -1.54452215E+01  7.72261074E+00  7.72261074E+00 -1.54452215E+01
  7.72261074E+00  7.72261074E+00 -1.54452215E+01  7.72261074E+00  7.72261074E+00
 -1.54452215E+01  7.72261074E+00  7.72261074E+00 -1.54452215E+01  7.72261074E+00
  7.72261074E+00 -1.54452215E+01  7.72261074E+00  7.72261074E+00 -1.54452215E+01
  7.72261074E+00  7.72261074E+00 -1.54452215E+01  7.72261074E+00  7.72261074E+00
 -1.54452215E+01  7.72261074E+00  7.72261074E+00 -1.54452215E+01  7.72261074E+00
  7.72261074E+00 -1.54452215E+01  7.72261074E+00  7.72261074E+00 -1.54452215E+01
  7.72261074E+00  7.72261074E+00 -1.54452215E+01  7.72261074E+00  7.72261074E+00
 -1.54452215E+01  7.72261074E+00  7.72261074E+00 -1.54452215E+01  7.72261074E+00
  7.72261074E+00 -1.54452215E+01  7.72261074E+00  7.72261074E+00 -1.54452215E+01
  7.72261074E+00  7.72261074E+00 -1.54452215E+01  7.72261074E+00  7.72261074E+00
 -1.54452215E+01  7.72261074E+00  7.72261074E+00 -1.54452215E+01  7.72261074E+00
  7.72261074E+00 -1.54452215E+01  7.72261074E+00  7.72261074E+00 -1.54452215E+01
  7.72261074E+00  7.72261074E+00 -1.54452215E+01  7.72261074E+00  7.72261074E+00
 -1.54452215E+01  7.72261074E+00  7.72261074E+00 -1.54452215E+01  7.72261074E+00
  7.72261074E+00 -1.54452215E+01  7.72261074E+00  7.72261074E+00 -1.54452215E+01
  7.72261074E+00  7.72261074E+00 -1.54452215E+01  7.72261074E+00  7.72261074E+00
 -1.54452215E+01  7.72261074E+00  7.72261074E+00 -1.54452215E+01  7.72261074E+00
  7.72261074E+00 -1.54452215E+01  7.72261074E+00  7.72261074E+00 -1.54452215E+01
  7.72261074E+00  7.72261074E+00 -1.54452215E+01  7.72261074E+00  7.72261074E+00
 -1.54452215E+01  7.72261074E+00  7.72261074E+00 -1.54452215E+01  7.72261074E+00
  7.72261074E+00 -1.54452215E+01  7.72261074E+00  7.72261074E+00 -1.54452215E+01
  7.72261074E+00  7.72261074E+00 -1.54452215E+01  7.72261074E+00  7.72261074E+00
 -1.54452215E+01  7.72261074E+00  7.72261074E+00 -1.54452215E+01  7.72261074E+00
  7.72261074E+00 -1.54452215E+01  7.72261074E+00  7.72261074E+00 -1.54452215E+01
  7.72261074E+00  7.72261074E+00 -1.54452215E+01  7.72261074E+00  7.72261074E+00
 -1.54452215E+01  7.72261074E+00  7.72261074E+00 -1.54452215E+01  7.72261074E+00
  7.72261074E+00 -1.54452215E+01  7.72261074E+00  7.72261074E+00 -1.54452215E+01
  7.72261074E+00  7.72261074E+00 -1.54452215E+01  7.72261074E+00  7.72261074E+00
 -1.54452215E+01  7.72261074E+00  7.72261074E+00 -1.54452215E+01  7.72261074E+00
  7.72261074E+00 -1.54452215E+01  7.72261074E+00  7.72261074E+00 -1.54452215E+01
  7.72261074E+00  7.72261074E+00 -1.54452215E+01  7.72261074E+00  7.72261074E+00
 -1.54452215E+01  7.72261074E+00  7.72261074E+00 -1.54452215E+01  7.72261074E+00
  7.72261074E+00 -1.54452215E+01  7.72261074E+00  7.72261074E+00 -1.54452215E+01
  7.72261074E+00  7.72261074E+00 -1.54452215E+01  7.72261074E+00  7.72261074E+00
 -1.54452215E+01  7.72261074E+00  7.72261074E+00 -1.54452215E+01  7.72261074E+00
  7.72261074E+00 -1.54452215E+01  7.72261074E+00  7.72261074E+00 -1.54452215E+01
  7.72261074E+00  7.72261074E+00 -1.54452215E+01  7.72261074E+00  7.72261074E+00
 -1.54452215E+01  7.72261074E+00  7.72261074E+00 -1.54452215E+01  7.72261074E+00
  7.72261074E+00 -1.54452215E+01  7.72261074E+00  7.72261074E+00 -1.54452215E+01
  7.72261074E+00  7.72261074E+00 -1.54452215E+01  7.72261074E+00  7.72261074E+00
 -1.54452215E+01  7.72261074E+00  7.72261074E+00 -1.54452215E+01  7.72261074E+00
  7.72261074E+00 -1.54452215E+01  7.72261074E+00  7.72261074E+00 -1.54452215E+01
  7.72261074E+00  7.72261074E+00 -1.54452215E+01  7.72261074E+00  7.72261074E+00
 -1.54452215E+01  7.72261074E+00  7.72261074E+00 -1.54452215E+01  7.72261074E+00
  7.72261074E+00 -1.54452215E+01  7.72261074E+00  7.72261074E+00 -1.54452215E+01
  7.72261074E+00  7.72261074E+00 -1.54452215E+01  7.72261074E+00  7.72261074E+00
 -1.54452215E+01  7.72261074E+00  7.72261074E+00 -1.54452215E+01  7.72261074E+00
  7.72261074E+00 -1.54452215E+01  7.72261074E+00  7.72261074E+00 -1.54452215E+01
  7.72261074E+00  7.72261074E+00 -1.54452215E+01  7.72261074E+00  7.72261074E+00
 -1.54452215E+01  7.72261074E+00  7.72261074E+00 -1.54452215E+01  7.72261074E+00
  7.72261074E+00 -1.54452215E+01  7.72261074E+00  7.72261074E+00 -1.54452215E+01
  7.72261074E+00  7.72261074E+00 -1.54452215E+01  7.72261074E+00  7.72261074E+00
 -1.54452215E+01  7.72261074E+00  7.72261074E+00 -1.54452215E+01  7.72261074E+00
  7.72261074E+00 -1.54452215E+01  7.72261074E+00  7.72261074E+00 -1.54452215E+01
  7.72261074E+00  7.72261074E+00 -1.54452215E+01  7.72261074E+00  7.72261074E+00
 -1.54452215E+01  7.72261074E+00  7.72261074E+00 -1.54452215E+01  7.72261074E+00
  7.72261074E+00 -1.54452215E+01  7.72261074E+00  7.72261074E+00 -1.54452215E+01
  7.72261074E+00  7.72261074E+00 -1.54452215E+01  7.72261074E+00  7.72261074E+00
 -1.54452215E+01  7.72261074E+00  7.72261074E+00 -1.54452215E+01  7.72261074E+00
  7.72261074E+00 -1.54452215E+01  7.72261074E+00  7.72261074E+00 -1.54452215E+01
  7.72261074E+00  7.72261074E+00 -1.54452215E+01  7.72261074E+00  7.72261074E+00
 -1.54452215E+01  7.72261074E+00  7.72261074E+00 -1.54452215E+01  7.72261074E+00
  7.72261074E+00 -1.54452215E+01  7.72261074E+00  7.72261074E+00 -1.54452215E+01
  7.72261074E+00  7.72261074E+00 -1.54452215E+01  7.72261074E+00  7.72261074E+00
 -1.54452215E+01  7.72261074E+00  7.72261074E+00 -1.54452215E+01  7.72261074E+00
  7.72261074E+00 -1.54452215E+01  7.72261074E+00  7.72261074E+00 -1.54452215E+01
  7.72261074E+00  7.72261074E+00 -1.54452215E+01  7.72261074E+00  7.72261074E+00
 -1.54452215E+01  7.72261074E+00  7.72261074E+00 -1.54452215E+01  7.72261074E+00
  7.72261074E+00 -1.54452215E+01  7.72261074E+00  7.72261074E+00 -1.54452215E+01
  7.72261074E+00  7.72261074E+00 -1.54452215E+01  7.72261074E+00  7.72261074E+00
 -1.54452215E+01  7.72261074E+00  7.72261074E+00 -1.54452215E+01  7.72261074E+00
  7.72261074E+00 -1.54452215E+01  7.72261074E+00  7.72261074E+00 -1.54452215E+01
  7.72261074E+00  7.72261074E+00 -1.54452215E+01  7.72261074E+00  7.72261074E+00
 -1.54452215E+01  7.72261074E+00  7.72261074E+00 -1.54452215E+01  7.72261074E+00
  7.72261074E+00 -1.54452215E+01  7.72261074E+00  7.72261074E+00 -1.54452215E+01
  7.72261074E+00  7.72261074E+00 -1.54452215E+01  7.72261074E+00  7.72261074E+00
 -1.54452215E+01  7.72261074E+00  7.72261074E+00 -1.54452215E+01  7.72261074E+00
  7.72261074E+00 -1.54452215E+01  7.72261074E+00  7.72261074E+00 -1.54452215E+01
  7.72261074E+00  7.72261074E+00 -1.54452215E+01  7.72261074E+00  7.72261074E+00
 -1.54452215E+01  7.72261074E+00  7.72261074E+00 -1.54452215E+01  7.72261074E+00
  7.72261074E+00 -1.54452215E+01  7.72261074E+00  7.72261074E+00 -1.54452215E+01
  7.72261074E+00  7.72261074E+00 -1.54452215E+01  7.72261074E+00  7.72261074E+00
 -1.54452215E+01  7.72261074E+00  7.72261074E+00 -1.54452215E+01  7.72261074E+00
  7.72261074E+00 -1.54452215E+01  7.72261074E+00  7.72261074E+00 -1.54452215E+01
  7.72261074E+00  7.72261074E+00 -1.54452215E+01  7.72261074E+00  7.72261074E+00
 -1.54452215E+01  7.72261074E+00  7.72261074E+00 -1.54452215E+01  7.72261074E+00
  7.72261074E+00 -1.54452215E+01  7.72261074E+00  7.72261074E+00 -1.54452215E+01
  7.72261074E+00  7.72261074E+00 -1.54452215E+01  7.72261074E+00  7.72261074E+00
 -1.54452215E+01  7.72261074E+00  7.72261074E+00 -1.54452215E+01  7.72261074E+00
  7.72261074E+00 -1.54452215E+01  7.72261074E+00  7.72261074E+00 -1.54452215E+01
  7.72261074E+00  7.72261074E+00 -1.54452215E+01  7.72261074E+00  7.72261074E+00
 -1.54452215E+01  7.72261074E+00  7.72261074E+00 -1.54452215E+01  7.72261074E+00
  7.72261074E+00 -1.54452215E+01  7.72261074E+00  7.72261074E+00 -1.54452215E+01
  7.72261074E+00  7.72261074E+00 -1.54452215E+01  7.72261074E+00  7.72261074E+00
 -1.54452215E+01  7.72261074E+00  7.72261074E+00 -1.54452215E+01  7.72261074E+00
  7.72261074E+00 -1.54452215E+01  7.72261074E+00  7.72261074E+00 -1.54452215E+01
  7.72261074E+00  7.72261074E+00 -1.54452215E+01  7.72261074E+00  7.72261074E+00
 -1.54452215E+01  7.72261074E+00  7.72261074E+00 -1.54452215E+01  7.72261074E+00
  7.72261074E+00 -1.54452215E+01  7.72261074E+00  7.72261074E+00 -1.54452215E+01
  7.72261074E+00  7.72261074E+00 -1.54452215E+01  7.72261074E+00  7.72261074E+00
 -1.54452215E+01  7.72261074E+00  7.72261074E+00 -1.54452215E+01  7.72261074E+00
  7.72261074E+00 -1.54452215E+01  7.72261074E+00  7.72261074E+00 -1.54452215E+01
  7.72261074E+00  7.72261074E+00 -1.54452215E+01  7.72261074E+00  7.72261074E+00
 -1.54452215E+01  7.72261074E+00  7.72261074E+00 -1.54452215E+01  7.72261074E+00
  7.72261074E+00 -1.54452215E+01  7.72261074E+00  7.72261074E+00 -1.54452215E+01
  7.72261074E+00  7.72261074E+00 -1.54452215E+01  7.72261074E+00  7.72261074E+00
 -1.54452215E+01  7.72261074E+00  7.72261074E+00 -1.54452215E+01  7.72261074E+00
  7.72261074E+00 -1.54452215E+01  7.72261074E+00  7.72261074E+00 -1.54452215E+01
  7.72261074E+00  7.72261074E+00 -1.54452215E+01  7.72261074E+00  7.72261074E+00
 -1.54452215E+01  7.72261074E+00  7.72261074E+00 -1.54452215E+01  7.72261074E+00
  7.72261074E+00 -1.54452215E+01  7.72261074E+00  7.72261074E+00 -1.54452215E+01
  7.72261074E+00  7.72261074E+00 -1.54452215E+01  7.72261074E+00  7.72261074E+00
 -1.54452215E+01  7.72261074E+00  7.72261074E+00 -1.54452215E+01  7.72261074E+00
  7.72261074E+00 -1.54452215E+01  7.72261074E+00  7.72261074E+00 -1.54452215E+01
  7.72261074E+00  7.72261074E+00 -1.54452215E+01  7.72261074E+00  7.72261074E+00
 -1.54452215E+01  7.72261074E+00  7.72261074E+00 -1.54452215E+01  7.72261074E+00
  7.72261074E+00 -1.54452215E+01  7.72261074E+00  7.72261074E+00 -1.54452215E+01
  7.72261074E+00  7.72261074E+00 -1.54452215E+01  7.72261074E+00  7.72261074E+00
 -1.54452215E+01  7.72261074E+00  7.72261074E+00 -1.54452215E+01  7.72261074E+00
  7.72261074E+00 -1.54452215E+01  7.72261074E+00  7.72261074E+00 -1.54452215E+01
  7.72261074E+00  7.72261074E+00 -1.54452215E+01  7.72261074E+00  7.72261074E+00
 -1.54452215E+01  7.72261074E+00  7.72261074E+00 -1.54452215E+01  7.72261074E+00
  7.72261074E+00 -1.54452215E+01  7.72261074E+00  7.72261074E+00 -1.54452215E+01
  7.72261074E+00  7.72261074E+00 -1.54452215E+01  7.72261074E+00  7.72261074E+00
 -1.54452215E+01  7.72261074E+00  7.72261074E+00 -1.54452215E+01  7.72261074E+00
  7.72261074E+00 -1.54452215E+01  7.72261074E+00  7.72261074E+00 -1.54452215E+01
  7.72261074E+00  7.72261074E+00 -1.54452215E+01  7.72261074E+00  7.72261074E+00
 -1.54452215E+01  7.72261074E+00  7.72261074E+00 -1.54452215E+01  7.72261074E+00
  7.72261074E+00 -1.54452215E+01  7.72261074E+00  7.72261074E+00 -1.54452215E+01
  7.72261074E+00  7.72261074E+00 -1.54452215E+01  7.72261074E+00  7.72261074E+00
 -1.54452215E+01  7.72261074E+00  7.72261074E+00 -1.54452215E+01  7.72261074E+00
  7.72261074E+00 -1.54452215E+01  7.72261074E+00  7.72261074E+00 -1.54452215E+01
  7.72261074E+00  7.72261074E+00 -1.54452215E+01  7.72261074E+00  7.72261074E+00
 -1.54452215E+01  7.72261074E+00  7.72261074E+00 -1.54452215E+01  7.72261074E+00
  7.72261074E+00 -1.54452215E+01  7.72261074E+00  7.72261074E+00 -1.54452215E+01
  7.72261074E+00  7.72261074E+00 -1.54452215E+01  7.72261074E+00  7.72261074E+00
 -1.54452215E+01  7.72261074E+00  7.72261074E+00 -1.54452215E+01  7.72261074E+00
  7.72261074E+00 -1.54452215E+01  7.72261074E+00  7.72261074E+00 -1.54452215E+01
  7.72261074E+00  7.72261074E+00 -1.54452215E+01  7.72261074E+00  7.72261074E+00
 -1.54452215E+01  7.72261074E+00  7.72261074E+00 -1.54452215E+01  7.72261074E+00
  7.72261074E+00 -1.54452215E+01  7.72261074E+00  7.72261074E+00 -1.54452215E+01
  7.72261074E+00  7.72261074E+00 -1.54452215E+01  7.72261074E+00  7.72261074E+00
 -1.54452215E+01  7.72261074E+00  7.72261074E+00 -1.54452215E+01  7.72261074E+00
  7.72261074E+00 -1.54452215E+01  7.72261074E+00  7.72261074E+00 -1.54452215E+01
  7.72261074E+00  7.72261074E+00 -1.54452215E+01  7.72261074E+00  7.72261074E+00
 -1.54452215E+01  7.72261074E+00  7.72261074E+00 -1.54452215E+01  7.72261074E+00
  7.72261074E+00 -1.54452215E+01  7.72261074E+00  7.72261074E+00 -1.54452215E+01
  7.72261074E+00  7.72261074E+00 -1.54452215E+01  7.72261074E+00  7.72261074E+00
 -1.54452215E+01  7.72261074E+00  7.72261074E+00 -1.54452215E+01  7.72261074E+00
  7.72261074E+00 -1.54452215E+01  7.72261074E+00  7.72261074E+00 -1.54452215E+01
  7.72261074E+00  7.72261074E+00 -1.54452215E+01  7.72261074E+00  7.72261074E+00
 -1.54452215E+01  7.72261074E+00  7.72261074E+00 -1.54452215E+01  7.72261074E+00
  7.72261074E+00 -1.54452215E+01  7.72261074E+00  7.72261074E+00 -1.54452215E+01
  7.72261074E+00  7.72261074E+00 -1.54452215E+01  7.72261074E+00  7.72261074E+00
 -1.54452215E+01  7.72261074E+00  7.72261074E+00 -1.54452215E+01  7.72261074E+00
  7.72261074E+00 -1.54452215E+01  7.72261074E+00  7.72261074E+00 -1.54452215E+01
  7.72261074E+00  7.72261074E+00 -1.54452215E+01  7.72261074E+00  7.72261074E+00
 -1.54452215E+01  7.72261074E+00  7.72261074E+00 -1.54452215E+01  7.72261074E+00
  7.72261074E+00 -1.54452215E+01  7.72261074E+00  7.72261074E+00 -1.54452215E+01
  7.72261074E+00  7.72261074E+00 -1.54452215E+01  7.72261074E+00  7.72261074E+00
 -1.54452215E+01  7.72261074E+00  7.72261074E+00 -1.54452215E+01  7.72261074E+00
  7.72261074E+00 -1.54452215E+01  7.72261074E+00  7.72261074E+00 -1.54452215E+01
  7.72261074E+00  7.72261074E+00 -1.54452215E+01  7.72261074E+00  7.72261074E+00
 -1.54452215E+01  7.72261074E+00  7.72261074E+00 -1.54452215E+01  7.72261074E+00
  7.72261074E+00 -1.54452215E+01  7.72261074E+00  7.72261074E+00 -1.54452215E+01
  7.72261074E+00  7.72261074E+00 -1.54452215E+01  7.72261074E+00  7.72261074E+00
 -1.54452215E+01  7.72261074E+00  7.72261074E+00 -1.54452215E+01  7.72261074E+00
  7.72261074E+00 -1.54452215E+01  7.72261074E+00  7.72261074E+00 -1.54452215E+01
  7.72261074E+00  7.72261074E+00 -1.54452215E+01  7.72261074E+00  7.72261074E+00
 -1.54452215E+01  7.72261074E+00  7.72261074E+00 -1.54452215E+01  7.72261074E+00
  7.72261074E+00 -1.54452215E+01  7.72261074E+00  7.72261074E+00 -1.54452215E+01
  7.72261074E+00  7.72261074E+00 -1.54452215E+01  7.72261074E+00  7.72261074E+00
 -1.54452215E+01  7.72261074E+00  7.72261074E+00 -1.54452215E+01  7.72261074E+00
  7.72261074E+00 -1.54452215E+01  7.72261074E+00  7.72261074E+00 -1.54452215E+01
  7.72261074E+00  7.72261074E+00 -1.54452215E+01  7.72261074E+00  7.72261074E+00
 -1.54452215E+01  7.72261074E+00  7.72261074E+00 -1.54452215E+01  7.72261074E+00
  7.72261074E+00 -1.54452215E+01  7.72261074E+00  7.72261074E+00 -1.54452215E+01
  7.72261074E+00  7.72261074E+00 -1.54452215E+01  7.72261074E+00  7.72261074E+00
 -1.54452215E+01  7.72261074E+00  7.72261074E+00 -1.54452215E+01  7.72261074E+00
  7.72261074E+00 -1.54452215E+01  7.72261074E+00  7.72261074E+00 -1.54452215E+01
  7.72261074E+00  7.72261074E+00 -1.54452215E+01  7.72261074E+00  7.72261074E+00
 -1.54452215E+01  7.72261074E+00  7.72261074E+00 -1.54452215E+01  7.72261074E+00
  7.72261074E+00 -1.54452215E+01  7.72261074E+00  7.72261074E+00 -1.54452215E+01
  7.72261074E+00  7.72261074E+00 -1.54452215E+01  7.72261074E+00  7.72261074E+00
 -1.54452215E+01  7.72261074E+00  7.72261074E+00 -1.54452215E+01  7.72261074E+00
  7.72261074E+00 -1.54452215E+01  7.72261074E+00  7.72261074E+00 -1.54452215E+01
  7.72261074E+00  7.72261074E+00 -1.54452215E+01  7.72261074E+00  7.72261074E+00
 -1.54452215E+01  7.72261074E+00  7.72261074E+00 -1.54452215E+01  7.72261074E+00
  7.72261074E+00 -1.54452215E+01  7.72261074E+00  7.72261074E+00 -1.54452215E+01
  7.72261074E+00  7.72261074E+00 -1.54452215E+01  7.72261074E+00  7.72261074E+00
 -1.54452215E+01  7.72261074E+00  7.72261074E+00 -1.54452215E+01  7.72261074E+00
  7.72261074E+00 -1.54452215E+01  7.72261074E+00  7.72261074E+00 -1.54452215E+01
  7.72261074E+00  7.72261074E+00 -1.54452215E+01  7.72261074E+00  7.72261074E+00
 -1.54452215E+01  7.72261074E+00  7.72261074E+00 -1.54452215E+01  7.72261074E+00
  7.72261074E+00 -1.54452215E+01  7.72261074E+00  7.72261074E+00 -1.54452215E+01
  7.72261074E+00  7.72261074E+00 -1.54452215E+01  7.72261074E+00  7.72261074E+00
 -1.54452215E+01  7.72261074E+00  7.72261074E+00 -1.54452215E+01  7.72261074E+00
  7.72261074E+00 -1.54452215E+01  7.72261074E+00  7.72261074E+00 -1.54452215E+01
  7.72261074E+00  7.72261074E+00 -1.54452215E+01  7.72261074E+00  7.72261074E+00
 -1.54452215E+01  7.72261074E+00  7.72261074E+00 -1.54452215E+01  7.72261074E+00
  7.72261074E+00 -1.54452215E+01  7.72261074E+00  7.72261074E+00 -1.54452215E+01
  7.72261074E+00  7.72261074E+00 -1.54452215E+01  7.72261074E+00  7.72261074E+00
 -1.54452215E+01  7.72261074E+00  7.72261074E+00 -1.54452215E+01  7.72261074E+00
  7.72261074E+00 -1.54452215E+01  7.72261074E+00  7.72261074E+00 -1.54452215E+01
  7.72261074E+00  7.72261074E+00 -1.54452215E+01  7.72261074E+00  7.72261074E+00
 -1.54452215E+01  7.72261074E+00  7.72261074E+00 -1.54452215E+01  7.72261074E+00
  7.72261074E+00 -1.54452215E+01  7.72261074E+00  7.72261074E+00 -1.54452215E+01
  7.72261074E+00  7.72261074E+00 -1.54452215E+01  7.72261074E+00  7.72261074E+00
 -1.54452215E+01  7.72261074E+00  7.72261074E+00 -1.54452215E+01  7.72261074E+00
  7.72261074E+00 -1.54452215E+01  7.72261074E+00  7.72261074E+00 -1.54452215E+01
  7.72261074E+00  7.72261074E+00 -1.54452215E+01  7.72261074E+00  7.72261074E+00
 -1.54452215E+01  7.72261074E+00  7.72261074E+00 -1.54452215E+01  7.72261074E+00
  7.72261074E+00 -1.54452215E+01  7.72261074E+00  7.72261074E+00 -1.54452215E+01
  7.72261074E+00  7.72261074E+00 -1.54452215E+01  7.72261074E+00  7.72261074E+00
 -1.54452215E+01  7.72261074E+00  7.72261074E+00 -1.54452215E+01  7.72261074E+00
  7.72261074E+00 -1.54452215E+01  7.72261074E+00  7.72261074E+00 -1.54452215E+01
  7.72261074E+00  7.72261074E+00 -1.54452215E+01  7.72261074E+00  7.72261074E+00
 -1.54452215E+01  7.72261074E+00  7.72261074E+00 -1.54452215E+01  7.72261074E+00
  7.72261074E+00 -1.54452215E+01  7.72261074E+00  7.72261074E+00 -1.54452215E+01
  7.72261074E+00  7.72261074E+00 -1.54452215E+01  7.72261074E+00  7.72261074E+00
 -1.54452215E+01  7.72261074E+00  7.72261074E+00 -1.54452215E+01  7.72261074E+00
  7.72261074E+00 -1.54452215E+01  7.72261074E+00  7.72261074E+00 -1.54452215E+01
  7.72261074E+00  7.72261074E+00 -1.54452215E+01  7.72261074E+00  7.72261074E+00
 -1.54452215E+01  7.72261074E+00  7.72261074E+00 -1.54452215E+01  7.72261074E+00
  7.72261074E+00 -1.54452215E+01  7.72261074E+00  7.72261074E+00 -1.54452215E+01
  7.72261074E+00  7.72261074E+00 -1.54452215E+01  7.72261074E+00  7.72261074E+00
 -1.54452215E+01  7.72261074E+00  7.72261074E+00 -1.54452215E+01  7.72261074E+00
  7.72261074E+00 -1.54452215E+01  7.72261074E+00  7.72261074E+00 -1.54452215E+01
  7.72261074E+00  7.72261074E+00 -1.54452215E+01  7.72261074E+00  7.72261074E+00
 -1.54452215E+01  7.72261074E+00  7.72261074E+00 -1.54452215E+01  7.72261074E+00
  7.72261074E+00 -1.54452215E+01  7.72261074E+00  7.72261074E+00 -1.54452215E+01
  7.72261074E+00  7.72261074E+00 -1.54452215E+01  7.72261074E+00  7.72261074E+00
 -1.54452215E+01  7.72261074E+00  7.72261074E+00 -1.54452215E+01  7.72261074E+00
  7.72261074E+00 -1.54452215E+01  7.72261074E+00  7.72261074E+00 -1.54452215E+01
  7.72261074E+00  7.72261074E+00 -1.54452215E+01  7.72261074E+00  7.72261074E+00
 -1.54452215E+01  7.72261074E+00  7.72261074E+00 -1.54452215E+01  7.72261074E+00
  7.72261074E+00 -1.54452215E+01  7.72261074E+00  7.72261074E+00 -1.54452215E+01
  7.72261074E+00  7.72261074E+00 -1.54452215E+01  7.72261074E+00  7.72261074E+00
 -1.54452215E+01  7.72261074E+00  7.72261074E+00 -1.54452215E+01  7.72261074E+00
  7.72261074E+00 -1.54452215E+01  7.72261074E+00  7.72261074E+00 -1.54452215E+01
  7.72261074E+00  7.72261074E+00 -1.54452215E+01  7.72261074E+00  7.72261074E+00
 -1.54452215E+01  7.72261074E+00  7.72261074E+00 -1.54452215E+01  7.72261074E+00
  7.72261074E+00 -1.54452215E+01  7.72261074E+00  7.72261074E+00 -1.54452215E+01
  7.72261074E+00  7.72261074E+00 -1.54452215E+01  7.72261074E+00  7.72261074E+00
 -1.54452215E+01  7.72261074E+00  7.72261074E+00 -1.54452215E+01  7.72261074E+00
  7.72261074E+00 -1.54452215E+01  7.72261074E+00  7.72261074E+00 -1.54452215E+01
  7.72261074E+00  7.72261074E+00 -1.54452215E+01  7.72261074E+00  7.72261074E+00
 -1.54452215E+01  7.72261074E+00  7.72261074E+00 -1.54452215E+01  7.72261074E+00
  7.72261074E+00 -1.54452215E+01  7.72261074E+00  7.72261074E+00 -1.54452215E+01
  7.72261074E+00  7.72261074E+00 -1.54452215E+01  7.72261074E+00  7.72261074E+00
 -1.54452215E+01  7.72261074E+00  7.72261074E+00 -1.54452215E+01  7.72261074E+00
  7.72261074E+00 -1.54452215E+01  7.72261074E+00  7.72261074E+00 -1.54452215E+01
  7.72261074E+00  7.72261074E+00 -1.54452215E+01  7.72261074E+00  7.72261074E+00
 -1.54452215E+01  7.72261074E+00  7.72261074E+00 -1.54452215E+01  7.72261074E+00
  7.72261074E+00 -1.54452215E+01  7.72261074E+00  7.72261074E+00 -1.54452215E+01
  7.72261074E+00  7.72261074E+00 -1.54452215E+01  7.72261074E+00  7.72261074E+00
 -1.54452215E+01  7.72261074E+00  7.72261074E+00 -1.54452215E+01  7.72261074E+00
  7.72261074E+00 -1.54452215E+01  7.72261074E+00  7.72261074E+00 -1.54452215E+01
  7.72261074E+00  7.72261074E+00 -1.54452215E+01  7.72261074E+00  7.72261074E+00
 -1.54452215E+01  7.72261074E+00  7.72261074E+00 -1.54452215E+01  7.72261074E+00
  7.72261074E+00 -1.54452215E+01  7.72261074E+00  7.72261074E+00 -1.54452215E+01
  7.72261074E+00  7.72261074E+00 -1.54452215E+01  7.72261074E+00  7.72261074E+00
 -1.54452215E+01  7.72261074E+00  7.72261074E+00 -1.54452215E+01  7.72261074E+00
  7.72261074E+00 -1.54452215E+01  7.72261074E+00  7.72261074E+00 -1.54452215E+01
  7.72261074E+00  7.72261074E+00 -1.54452215E+01  7.72261074E+00  7.72261074E+00
 -1.54452215E+01  7.72261074E+00  7.72261074E+00 -1.54452215E+01  7.72261074E+00
  7.72261074E+00 -1.54452215E+01  7.72261074E+00  7.72261074E+00 -1.54452215E+01
  7.72261074E+00  7.72261074E+00 -1.54452215E+01  7.72261074E+00  7.72261074E+00
 -1.54452215E+01  7.72261074E+00  7.72261074E+00 -1.54452215E+01  7.72261074E+00
  7.72261074E+00 -1.54452215E+01  7.72261074E+00  7.72261074E+00 -1.54452215E+01
  7.72261074E+00  7.72261074E+00 -1.54452215E+01  7.72261074E+00  7.72261074E+00
 -1.54452215E+01  7.72261074E+00  7.72261074E+00 -1.54452215E+01  7.72261074E+00
  7.72261074E+00 -1.54452215E+01  7.72261074E+00  7.72261074E+00 -1.54452215E+01
  7.72261074E+00  7.72261074E+00 -1.54452215E+01  7.72261074E+00  7.72261074E+00
 -1.54452215E+01  7.72261074E+00  7.72261074E+00 -1.54452215E+01  7.72261074E+00
  7.72261074E+00 -1.54452215E+01  7.72261074E+00  7.72261074E+00 -1.54452215E+01
  7.72261074E+00  7.72261074E+00 -1.54452215E+01  7.72261074E+00  7.72261074E+00
 -1.54452215E+01  7.72261074E+00  7.72261074E+00 -1.54452215E+01  7.72261074E+00
  7.72261074E+00 -1.54452215E+01  7.72261074E+00  7.72261074E+00 -1.54452215E+01
  7.72261074E+00  7.72261074E+00 -1.54452215E+01  7.72261074E+00  7.72261074E+00
 -1.54452215E+01  7.72261074E+00  7.72261074E+00 -1.54452215E+01  7.72261074E+00
  7.72261074E+00 -1.54452215E+01  7.72261074E+00  7.72261074E+00 -1.54452215E+01
  7.72261074E+00  7.72261074E+00 -1.54452215E+01  7.72261074E+00  7.72261074E+00
 -1.54452215E+01  7.72261074E+00  7.72261074E+00 -1.54452215E+01  7.72261074E+00
  7.72261074E+00 -1.54452215E+01  7.72261074E+00  7.72261074E+00 -1.54452215E+01
  7.72261074E+00  7.72261074E+00 -1.54452215E+01  7.72261074E+00  7.72261074E+00
 -1.54452215E+01  7.72261074E+00  7.72261074E+00 -1.54452215E+01  7.72261074E+00
  7.72261074E+00 -1.54452215E+01  7.72261074E+00  7.72261074E+00 -1.54452215E+01
  7.72261074E+00  7.72261074E+00 -1.54452215E+01  7.72261074E+00  7.72261074E+00
 -1.54452215E+01  7.72261074E+00  7.72261074E+00 -1.54452215E+01  7.72261074E+00
  7.72261074E+00 -1.54452215E+01  7.72261074E+00  7.72261074E+00 -1.54452215E+01
  7.72261074E+00  7.72261074E+00 -1.54452215E+01  7.72261074E+00  7.72261074E+00
 -1.54452215E+01  7.72261074E+00  7.72261074E+00 -1.54452215E+01  7.72261074E+00
  7.72261074E+00 -1.54452215E+01  7.72261074E+00  7.72261074E+00 -1.54452215E+01
  7.72261074E+00  7.72261074E+00 -1.54452215E+01  7.72261074E+00  7.72261074E+00
 -1.54452215E+01  7.72261074E+00  7.72261074E+00 -1.54452215E+01  7.72261074E+00
  7.72261074E+00 -1.54452215E+01  7.72261074E+00  7.72261074E+00 -1.54452215E+01
  7.72261074E+00  7.72261074E+00 -1.54452215E+01  7.72261074E+00  7.72261074E+00
 -1.54452215E+01  7.72261074E+00  7.72261074E+00 -1.54452215E+01  7.72261074E+00
  7.72261074E+00 -1.54452215E+01  7.72261074E+00  7.72261074E+00 -1.54452215E+01
  7.72261074E+00  7.72261074E+00 -1.54452215E+01  7.72261074E+00  7.72261074E+00
 -1.54452215E+01  7.72261074E+00  7.72261074E+00 -1.54452215E+01  7.72261074E+00
  7.72261074E+00 -1.54452215E+01  7.72261074E+00  7.72261074E+00 -1.54452215E+01
  7.72261074E+00  7.72261074E+00 -1.54452215E+01  7.72261074E+00  7.72261074E+00
 -1.54452215E+01  7.72261074E+00  7.72261074E+00 -1.54452215E+01  7.72261074E+00
  7.72261074E+00 -1.54452215E+01  7.72261074E+00  7.72261074E+00 -1.54452215E+01
  7.72261074E+00  7.72261074E+00 -1.54452215E+01  7.72261074E+00  7.72261074E+00
 -1.54452215E+01  7.72261074E+00  7.72261074E+00 -1.54452215E+01  7.72261074E+00
  7.72261074E+00 -1.54452215E+01  7.72261074E+00  7.72261074E+00 -1.54452215E+01
  7.72261074E+00  7.72261074E+00 -1.54452215E+01  7.72261074E+00  7.72261074E+00
 -1.54452215E+01  7.72261074E+00  7.72261074E+00 -1.54452215E+01  7.72261074E+00
  7.72261074E+00 -1.54452215E+01  7.72261074E+00  7.72261074E+00 -1.54452215E+01
  7.72261074E+00  7.72261074E+00 -1.54452215E+01  7.72261074E+00  7.72261074E+00
 -1.54452215E+01  7.72261074E+00  7.72261074E+00 -1.54452215E+01  7.72261074E+00
  7.72261074E+00 -1.54452215E+01  7.72261074E+00  7.72261074E+00 -1.54452215E+01
  7.72261074E+00  7.72261074E+00 -1.54452215E+01  7.72261074E+00  7.72261074E+00
 -1.54452215E+01  7.72261074E+00  7.72261074E+00 -1.54452215E+01  7.72261074E+00
  7.72261074E+00 -1.54452215E+01  7.72261074E+00  7.72261074E+00 -1.54452215E+01
  7.72261074E+00  7.72261074E+00 -1.54452215E+01  7.72261074E+00  7.72261074E+00
 -1.54452215E+01  7.72261074E+00  7.72261074E+00 -1.54452215E+01  7.72261074E+00
  7.72261074E+00 -1.54452215E+01  7.72261074E+00  7.72261074E+00 -1.54452215E+01
  7.72261074E+00  7.72261074E+00 -1.54452215E+01  7.72261074E+00  7.72261074E+00
 -1.54452215E+01  7.72261074E+00  7.72261074E+00 -1.54452215E+01  7.72261074E+00
  7.72261074E+00 -1.54452215E+01  7.72261074E+00  7.72261074E+00 -1.54452215E+01
  7.72261074E+00  7.72261074E+00 -1.54452215E+01  7.72261074E+00  7.72261074E+00
 -1.54452215E+01  7.72261074E+00  7.72261074E+00 -1.54452215E+01  7.72261074E+00
  7.72261074E+00 -1.54452215E+01  7.72261074E+00  7.72261074E+00 -1.54452215E+01
  7.72261074E+00  7.72261074E+00 -1.54452215E+01  7.72261074E+00  7.72261074E+00
 -1.54452215E+01  7.72261074E+00  7.72261074E+00 -1.54452215E+01  7.72261074E+00
  7.72261074E+00 -1.54452215E+01  7.72261074E+00  7.72261074E+00 -1.54452215E+01
  7.72261074E+00  7.72261074E+00 -1.54452215E+01  7.72261074E+00  7.72261074E+00
 -1.54452215E+01  7.72261074E+00  7.72261074E+00 -1.54452215E+01  7.72261074E+00
  7.72261074E+00 -1.54452215E+01  7.72261074E+00  7.72261074E+00 -1.54452215E+01
  7.72261074E+00  7.72261074E+00 -1.54452215E+01  7.72261074E+00  7.72261074E+00
 -1.54452215E+01  7.72261074E+00  7.72261074E+00 -1.54452215E+01  7.72261074E+00
  7.72261074E+00 -1.54452215E+01  7.72261074E+00  7.72261074E+00 -1.54452215E+01
  7.72261074E+00  7.72261074E+00 -1.54452215E+01  7.72261074E+00  7.72261074E+00
 -1.54452215E+01  7.72261074E+00  7.72261074E+00 -1.54452215E+01  7.72261074E+00
  7.72261074E+00 -1.54452215E+01  7.72261074E+00  7.72261074E+00 -1.54452215E+01
  7.72261074E+00  7.72261074E+00 -1.54452215E+01  7.72261074E+00  7.72261074E+00
 -1.54452215E+01  7.72261074E+00  7.72261074E+00 -1.54452215E+01  7.72261074E+00
  7.72261074E+00 -1.54452215E+01  7.72261074E+00  7.72261074E+00 -1.54452215E+01
  7.72261074E+00  7.72261074E+00 -1.54452215E+01  7.72261074E+00  7.72261074E+00
 -1.54452215E+01  7.72261074E+00  7.72261074E+00 -1.54452215E+01  7.72261074E+00
  7.72261074E+00 -1.54452215E+01  7.72261074E+00  7.72261074E+00 -1.54452215E+01
  7.72261074E+00  7.72261074E+00 -1.54452215E+01  7.72261074E+00  7.72261074E+00
 -1.54452215E+01  7.72261074E+00  7.72261074E+00 -1.54452215E+01  7.72261074E+00
  7.72261074E+00 -1.54452215E+01  7.72261074E+00  7.72261074E+00 -1.54452215E+01
  7.72261074E+00  7.72261074E+00 -1.54452215E+01  7.72261074E+00  7.72261074E+00
 -1.54452215E+01  7.72261074E+00  7.72261074E+00 -1.54452215E+01  7.72261074E+00
  7.72261074E+00 -1.54452215E+01  7.72261074E+00  7.72261074E+00 -1.54452215E+01
  7.72261074E+00  7.72261074E+00 -1.54452215E+01  7.72261074E+00  7.72261074E+00
 -1.54452215E+01  7.72261074E+00  7.72261074E+00 -1.54452215E+01  7.72261074E+00
  7.72261074E+00 -1.54452215E+01  7.72261074E+00  7.72261074E+00 -1.54452215E+01
  7.72261074E+00  7.72261074E+00 -1.54452215E+01  7.72261074E+00  7.72261074E+00
 -1.54452215E+01  7.72261074E+00  7.72261074E+00 -1.54452215E+01  7.72261074E+00
  7.72261074E+00 -1.54452215E+01  7.72261074E+00  7.72261074E+00 -1.54452215E+01
  7.72261074E+00  7.72261074E+00 -1.54452215E+01  7.72261074E+00  7.72261074E+00
 -1.54452215E+01  7.72261074E+00  7.72261074E+00 -1.54452215E+01  7.72261074E+00
  7.72261074E+00 -1.54452215E+01  7.72261074E+00  7.72261074E+00 -1.54452215E+01
  7.72261074E+00  7.72261074E+00 -1.54452215E+01  7.72261074E+00  7.72261074E+00
 -1.54452215E+01  7.72261074E+00  7.72261074E+00 -1.54452215E+01  7.72261074E+00
  7.72261074E+00 -1.54452215E+01  7.72261074E+00  7.72261074E+00 -1.54452215E+01
  7.72261074E+00  7.72261074E+00 -1.54452215E+01  7.72261074E+00  7.72261074E+00
 -1.54452215E+01  7.72261074E+00  7.72261074E+00 -1.54452215E+01  7.72261074E+00
  7.72261074E+00 -1.54452215E+01  7.72261074E+00  7.72261074E+00 -1.54452215E+01
  7.72261074E+00  7.72261074E+00 -1.54452215E+01  7.72261074E+00  7.72261074E+00
 -1.54452215E+01  7.72261074E+00  7.72261074E+00 -1.54452215E+01  7.72261074E+00
  7.72261074E+00 -1.54452215E+01  7.72261074E+00  7.72261074E+00 -1.54452215E+01
  7.72261074E+00  7.72261074E+00 -1.54452215E+01  7.72261074E+00  7.72261074E+00
 -1.54452215E+01  7.72261074E+00  7.72261074E+00 -1.54452215E+01  7.72261074E+00
  7.72261074E+00 -1.54452215E+01  7.72261074E+00  7.72261074E+00 -1.54452215E+01
  7.72261074E+00  7.72261074E+00 -1.54452215E+01  7.72261074E+00  7.72261074E+00
 -1.54452215E+01  7.72261074E+00  7.72261074E+00 -1.54452215E+01  7.72261074E+00
  7.72261074E+00 -1.54452215E+01  7.72261074E+00  7.72261074E+00 -1.54452215E+01
  7.72261074E+00  7.72261074E+00 -1.54452215E+01  7.72261074E+00  7.72261074E+00
 -1.54452215E+01  7.72261074E+00  7.72261074E+00 -1.54452215E+01  7.72261074E+00
  7.72261074E+00 -1.54452215E+01  7.72261074E+00  7.72261074E+00 -1.54452215E+01
  7.72261074E+00  7.72261074E+00 -1.54452215E+01  7.72261074E+00  7.72261074E+00
 -1.54452215E+01  7.72261074E+00  7.72261074E+00 -1.54452215E+01  7.72261074E+00
  7.72261074E+00 -1.54452215E+01  7.72261074E+00  7.72261074E+00 -1.54452215E+01
  7.72261074E+00  7.72261074E+00 -1.54452215E+01  7.72261074E+00  7.72261074E+00
 -1.54452215E+01  7.72261074E+00  7.72261074E+00 -1.54452215E+01  7.72261074E+00
  7.72261074E+00 -1.54452215E+01  7.72261074E+00  7.72261074E+00 -1.54452215E+01
  7.72261074E+00  7.72261074E+00 -1.54452215E+01  7.72261074E+00  7.72261074E+00
 -1.54452215E+01  7.72261074E+00  7.72261074E+00 -1.54452215E+01  7.72261074E+00
  7.72261074E+00 -1.54452215E+01  7.72261074E+00  7.72261074E+00 -1.54452215E+01
  7.72261074E+00  7.72261074E+00 -1.54452215E+01  7.72261074E+00  7.72261074E+00
 -1.54452215E+01  7.72261074E+00  7.72261074E+00 -1.54452215E+01  7.72261074E+00
  7.72261074E+00 -1.54452215E+01  7.72261074E+00  7.72261074E+00 -1.54452215E+01
  7.72261074E+00  7.72261074E+00 -1.54452215E+01  7.72261074E+00  7.72261074E+00
 -1.54452215E+01  7.72261074E+00  7.72261074E+00 -1.54452215E+01  7.72261074E+00
  7.72261074E+00 -1.54452215E+01  7.72261074E+00  7.72261074E+00 -1.54452215E+01
  7.72261074E+00  7.72261074E+00 -1.54452215E+01  7.72261074E+00  7.72261074E+00
 -1.54452215E+01  7.72261074E+00  7.72261074E+00 -1.54452215E+01  7.72261074E+00
  7.72261074E+00 -1.54452215E+01  7.72261074E+00  7.72261074E+00 -1.54452215E+01
  7.72261074E+00  7.72261074E+00 -1.54452215E+01  7.72261074E+00  7.72261074E+00
 -1.54452215E+01  7.72261074E+00  7.72261074E+00 -1.54452215E+01  7.72261074E+00
  7.72261074E+00 -1.54452215E+01  7.72261074E+00  7.72261074E+00 -1.54452215E+01
  7.72261074E+00  7.72261074E+00 -1.54452215E+01  7.72261074E+00  7.72261074E+00
 -1.54452215E+01  7.72261074E+00  7.72261074E+00 -1.54452215E+01  7.72261074E+00
  7.72261074E+00 -1.54452215E+01  7.72261074E+00  7.72261074E+00 -1.54452215E+01
  7.72261074E+00  7.72261074E+00 -1.54452215E+01  7.72261074E+00  7.72261074E+00
 -1.54452215E+01  7.72261074E+00  7.72261074E+00 -1.54452215E+01  7.72261074E+00
  7.72261074E+00 -1.54452215E+01  7.72261074E+00  7.72261074E+00 -1.54452215E+01
  7.72261074E+00  7.72261074E+00 -1.54452215E+01  7.72261074E+00  7.72261074E+00
 -1.54452215E+01  7.72261074E+00  7.72261074E+00 -1.54452215E+01  7.72261074E+00
  7.72261074E+00 -1.54452215E+01  7.72261074E+00  7.72261074E+00 -1.54452215E+01
  7.72261074E+00  7.72261074E+00 -1.54452215E+01  7.72261074E+00  7.72261074E+00
 -1.54452215E+01  7.72261074E+00  7.72261074E+00 -1.54452215E+01  7.72261074E+00
  7.72261074E+00 -1.54452215E+01  7.72261074E+00  7.72261074E+00 -1.54452215E+01
  7.72261074E+00  7.72261074E+00 -1.54452215E+01  7.72261074E+00  7.72261074E+00
 -1.54452215E+01  7.72261074E+00  7.72261074E+00 -1.54452215E+01  7.72261074E+00
  7.72261074E+00 -1.54452215E+01  7.72261074E+00  7.72261074E+00 -1.54452215E+01
  7.72261074E+00  7.72261074E+00 -1.54452215E+01  7.72261074E+00  7.72261074E+00
 -1.54452215E+01  7.72261074E+00  7.72261074E+00 -1.54452215E+01  7.72261074E+00
  7.72261074E+00 -1.54452215E+01  7.72261074E+00  7.72261074E+00 -1.54452215E+01
  7.72261074E+00  7.72261074E+00 -1.54452215E+01  7.72261074E+00  7.72261074E+00
 -1.54452215E+01  7.72261074E+00  7.72261074E+00 -1.54452215E+01  7.72261074E+00
  7.72261074E+00 -1.54452215E+01  7.72261074E+00  7.72261074E+00 -1.54452215E+01
  7.72261074E+00  7.72261074E+00 -1.54452215E+01  7.72261074E+00  7.72261074E+00
 -1.54452215E+01  7.72261074E+00  7.72261074E+00 -1.54452215E+01  7.72261074E+00
  7.72261074E+00 -1.54452215E+01  7.72261074E+00  7.72261074E+00 -1.54452215E+01
  7.72261074E+00  7.72261074E+00 -1.54452215E+01  7.72261074E+00  7.72261074E+00
 -1.54452215E+01  7.72261074E+00  7.72261074E+00 -1.54452215E+01  7.72261074E+00
  7.72261074E+00 -1.54452215E+01  7.72261074E+00  7.72261074E+00 -1.54452215E+01
  7.72261074E+00  7.72261074E+00 -1.54452215E+01  7.72261074E+00  7.72261074E+00
 -1.54452215E+01  7.72261074E+00  7.72261074E+00 -1.54452215E+01  7.72261074E+00
  7.72261074E+00 -1.54452215E+01  7.72261074E+00  7.72261074E+00 -1.54452215E+01
  7.72261074E+00  7.72261074E+00 -1.54452215E+01  7.72261074E+00  7.72261074E+00
 -1.54452215E+01  7.72261074E+00  7.72261074E+00 -1.54452215E+01  7.72261074E+00
  7.72261074E+00 -1.54452215E+01  7.72261074E+00  7.72261074E+00 -1.54452215E+01
  7.72261074E+00  7.72261074E+00 -1.54452215E+01  7.72261074E+00  7.72261074E+00
 -1.54452215E+01  7.72261074E+00  7.72261074E+00 -1.54452215E+01  7.72261074E+00
  7.72261074E+00 -1.54452215E+01  7.72261074E+00  7.72261074E+00 -1.54452215E+01
  7.72261074E+00  7.72261074E+00 -1.54452215E+01  7.72261074E+00  7.72261074E+00
 -1.54452215E+01  7.72261074E+00  7.72261074E+00 -1.54452215E+01  7.72261074E+00
  7.72261074E+00 -1.54452215E+01  7.72261074E+00  7.72261074E+00 -1.54452215E+01
  7.72261074E+00  7.72261074E+00 -1.54452215E+01  7.72261074E+00  7.72261074E+00
 -1.54452215E+01  7.72261074E+00  7.72261074E+00 -1.54452215E+01  7.72261074E+00
  7.72261074E+00 -1.54452215E+01  7.72261074E+00  7.72261074E+00 -1.54452215E+01
  7.72261074E+00  7.72261074E+00 -1.54452215E+01  7.72261074E+00  7.72261074E+00
 -1.54452215E+01  7.72261074E+00  7.72261074E+00 -1.54452215E+01  7.72261074E+00
  7.72261074E+00 -1.54452215E+01  7.72261074E+00  7.72261074E+00 -1.54452215E+01
  7.72261074E+00  7.72261074E+00 -1.54452215E+01  7.72261074E+00  7.72261074E+00
 -1.54452215E+01  7.72261074E+00  7.72261074E+00 -1.54452215E+01  7.72261074E+00
  7.72261074E+00 -1.54452215E+01  7.72261074E+00  7.72261074E+00 -1.54452215E+01
  7.72261074E+00  7.72261074E+00 -1.54452215E+01  7.72261074E+00  7.72261074E+00
 -1.54452215E+01  7.72261074E+00  7.72261074E+00 -1.54452215E+01  7.72261074E+00
  7.72261074E+00 -1.54452215E+01  7.72261074E+00  7.72261074E+00 -1.54452215E+01
  7.72261074E+00  7.72261074E+00 -1.54452215E+01  7.72261074E+00  7.72261074E+00
 -1.54452215E+01  7.72261074E+00  7.72261074E+00 -1.54452215E+01  7.72261074E+00
  7.72261074E+00 -1.54452215E+01  7.72261074E+00  7.72261074E+00 -1.54452215E+01
  7.72261074E+00  7.72261074E+00 -1.54452215E+01  7.72261074E+00  7.72261074E+00
 -1.54452215E+01  7.72261074E+00  7.72261074E+00 -1.54452215E+01  7.72261074E+00
  7.72261074E+00 -1.54452215E+01  7.72261074E+00  7.72261074E+00 -1.54452215E+01
  7.72261074E+00  7.72261074E+00 -1.54452215E+01  7.72261074E+00  7.72261074E+00
 -1.54452215E+01  7.72261074E+00  7.72261074E+00 -1.54452215E+01  7.72261074E+00
  7.72261074E+00 -1.54452215E+01  7.72261074E+00  7.72261074E+00 -1.54452215E+01
  7.72261074E+00  7.72261074E+00 -1.54452215E+01  7.72261074E+00  7.72261074E+00
 -1.54452215E+01  7.72261074E+00  7.72261074E+00 -1.54452215E+01  7.72261074E+00
  7.72261074E+00 -1.54452215E+01  7.72261074E+00  7.72261074E+00 -1.54452215E+01
  7.72261074E+00  7.72261074E+00 -1.54452215E+01  7.72261074E+00  7.72261074E+00
 -1.54452215E+01  7.72261074E+00  7.72261074E+00 -1.54452215E+01  7.72261074E+00
  7.72261074E+00 -1.54452215E+01  7.72261074E+00  7.72261074E+00 -1.54452215E+01
  7.72261074E+00  7.72261074E+00 -1.54452215E+01  7.72261074E+00  7.72261074E+00
 -1.54452215E+01  7.72261074E+00  7.72261074E+00 -1.54452215E+01  7.72261074E+00
  7.72261074E+00 -1.54452215E+01  7.72261074E+00  7.72261074E+00 -1.54452215E+01
  7.72261074E+00  7.72261074E+00 -1.54452215E+01  7.72261074E+00  7.72261074E+00
 -1.54452215E+01  7.72261074E+00  7.72261074E+00 -1.54452215E+01  7.72261074E+00
  7.72261074E+00 -1.54452215E+01  7.72261074E+00  7.72261074E+00 -1.54452215E+01
  7.72261074E+00  7.72261074E+00 -1.54452215E+01  7.72261074E+00  7.72261074E+00
 -1.54452215E+01  7.72261074E+00  7.72261074E+00 -1.54452215E+01  7.72261074E+00
  7.72261074E+00 -1.54452215E+01  7.72261074E+00  7.72261074E+00 -1.54452215E+01
  7.72261074E+00  7.72261074E+00 -1.54452215E+01  7.72261074E+00  7.72261074E+00
 -1.54452215E+01  7.72261074E+00  7.72261074E+00 -1.54452215E+01  7.72261074E+00
  7.72261074E+00 -1.54452215E+01  7.72261074E+00  7.72261074E+00 -1.54452215E+01
  7.72261074E+00  7.72261074E+00 -1.54452215E+01  7.72261074E+00  7.72261074E+00
 -1.54452215E+01  7.72261074E+00  7.72261074E+00 -1.54452215E+01  7.72261074E+00
  7.72261074E+00 -1.54452215E+01  7.72261074E+00  7.72261074E+00 -1.54452215E+01
  7.72261074E+00  7.72261074E+00 -1.54452215E+01  7.72261074E+00  7.72261074E+00
 -1.54452215E+01  7.72261074E+00  7.72261074E+00 -1.54452215E+01  7.72261074E+00
  7.72261074E+00 -1.54452215E+01  7.72261074E+00  7.72261074E+00 -1.54452215E+01
  7.72261074E+00  7.72261074E+00 -1.54452215E+01  7.72261074E+00  7.72261074E+00
 -1.54452215E+01  7.72261074E+00  7.72261074E+00 -1.54452215E+01  7.72261074E+00
  7.72261074E+00 -1.54452215E+01  7.72261074E+00  7.72261074E+00 -1.54452215E+01
  7.72261074E+00  7.72261074E+00 -1.54452215E+01  7.72261074E+00  7.72261074E+00
 -1.54452215E+01  7.72261074E+00  7.72261074E+00 -1.54452215E+01  7.72261074E+00
  7.72261074E+00 -1.54452215E+01  7.72261074E+00  7.72261074E+00 -1.54452215E+01
  7.72261074E+00  7.72261074E+00 -1.54452215E+01  7.72261074E+00  7.72261074E+00
 -1.54452215E+01  7.72261074E+00  7.72261074E+00 -1.54452215E+01  7.72261074E+00
  7.72261074E+00 -1.54452215E+01  7.72261074E+00  7.72261074E+00 -1.54452215E+01
  7.72261074E+00  7.72261074E+00 -1.54452215E+01  7.72261074E+00  7.72261074E+00
 -1.54452215E+01  7.72261074E+00  7.72261074E+00 -1.54452215E+01  7.72261074E+00
  7.72261074E+00 -1.54452215E+01  7.72261074E+00  7.72261074E+00 -1.54452215E+01
  7.72261074E+00  7.72261074E+00 -1.54452215E+01  7.72261074E+00  7.72261074E+00
 -1.54452215E+01  7.72261074E+00  7.72261074E+00 -1.54452215E+01  7.72261074E+00
  7.72261074E+00 -1.54452215E+01  7.72261074E+00  7.72261074E+00 -1.54452215E+01
  7.72261074E+00  7.72261074E+00 -1.54452215E+01  7.72261074E+00  7.72261074E+00
 -1.54452215E+01  7.72261074E+00  7.72261074E+00 -1.54452215E+01  7.72261074E+00
  7.72261074E+00 -1.54452215E+01  7.72261074E+00  7.72261074E+00 -1.54452215E+01
  7.72261074E+00  7.72261074E+00 -1.54452215E+01  7.72261074E+00  7.72261074E+00
 -1.54452215E+01  7.72261074E+00  7.72261074E+00 -1.54452215E+01  7.72261074E+00
  7.72261074E+00 -1.54452215E+01  7.72261074E+00  7.72261074E+00 -1.54452215E+01
  7.72261074E+00  7.72261074E+00 -1.54452215E+01  7.72261074E+00  7.72261074E+00
 -1.54452215E+01  7.72261074E+00  7.72261074E+00 -1.54452215E+01  7.72261074E+00
  7.72261074E+00 -1.54452215E+01  7.72261074E+00  7.72261074E+00 -1.54452215E+01
  7.72261074E+00  7.72261074E+00 -1.54452215E+01  7.72261074E+00  7.72261074E+00
 -1.54452215E+01  7.72261074E+00  7.72261074E+00 -1.54452215E+01  7.72261074E+00
  7.72261074E+00 -1.54452215E+01  7.72261074E+00  7.72261074E+00 -1.54452215E+01
  7.72261074E+00  7.72261074E+00 -1.54452215E+01  7.72261074E+00  7.72261074E+00
 -1.54452215E+01  7.72261074E+00  7.72261074E+00 -1.54452215E+01  7.72261074E+00
  7.72261074E+00 -1.54452215E+01  7.72261074E+00  7.72261074E+00 -1.54452215E+01
  7.72261074E+00  7.72261074E+00 -1.54452215E+01  7.72261074E+00  7.72261074E+00
 -1.54452215E+01  7.72261074E+00  7.72261074E+00 -1.54452215E+01  7.72261074E+00
  7.72261074E+00 -1.54452215E+01  7.72261074E+00  7.72261074E+00 -1.54452215E+01
  7.72261074E+00  7.72261074E+00 -1.54452215E+01  7.72261074E+00  7.72261074E+00
 -1.54452215E+01  7.72261074E+00  7.72261074E+00 -1.54452215E+01  7.72261074E+00
  7.72261074E+00 -1.54452215E+01  7.72261074E+00  7.72261074E+00 -1.54452215E+01
  7.72261074E+00  7.72261074E+00 -1.54452215E+01  7.72261074E+00  7.72261074E+00
 -1.54452215E+01  7.72261074E+00  7.72261074E+00 -1.54452215E+01  7.72261074E+00
  7.72261074E+00 -1.54452215E+01  7.72261074E+00  7.72261074E+00 -1.54452215E+01
  7.72261074E+00  7.72261074E+00 -1.54452215E+01  7.72261074E+00  7.72261074E+00
 -1.54452215E+01  7.72261074E+00  7.72261074E+00 -1.54452215E+01  7.72261074E+00
  7.72261074E+00 -1.54452215E+01  7.72261074E+00  7.72261074E+00 -1.54452215E+01
  7.72261074E+00  7.72261074E+00 -1.54452215E+01  7.72261074E+00  7.72261074E+00
 -1.54452215E+01  7.72261074E+00  7.72261074E+00 -1.54452215E+01  7.72261074E+00
  7.72261074E+00 -1.54452215E+01  7.72261074E+00  7.72261074E+00 -1.54452215E+01
  7.72261074E+00  7.72261074E+00 -1.54452215E+01  7.72261074E+00  7.72261074E+00
 -1.54452215E+01  7.72261074E+00  7.72261074E+00 -1.54452215E+01  7.72261074E+00
  7.72261074E+00 -1.54452215E+01  7.72261074E+00  7.72261074E+00 -1.54452215E+01
  7.72261074E+00  7.72261074E+00 -1.54452215E+01  7.72261074E+00  7.72261074E+00
 -1.54452215E+01  7.72261074E+00  7.72261074E+00 -1.54452215E+01  7.72261074E+00
  7.72261074E+00 -1.54452215E+01  7.72261074E+00  7.72261074E+00 -1.54452215E+01
  7.72261074E+00  7.72261074E+00 -1.54452215E+01  7.72261074E+00  7.72261074E+00
 -1.54452215E+01  7.72261074E+00  7.72261074E+00 -1.54452215E+01  7.72261074E+00
  7.72261074E+00 -1.54452215E+01  7.72261074E+00  7.72261074E+00 -1.54452215E+01
  7.72261074E+00  7.72261074E+00 -1.54452215E+01  7.72261074E+00  7.72261074E+00
 -1.54452215E+01  7.72261074E+00  7.72261074E+00 -1.54452215E+01  7.72261074E+00
  7.72261074E+00 -1.54452215E+01  7.72261074E+00  7.72261074E+00 -1.54452215E+01
  7.72261074E+00  7.72261074E+00 -1.54452215E+01  7.72261074E+00  7.72261074E+00
 -1.54452215E+01  7.72261074E+00  7.72261074E+00 -1.54452215E+01  7.72261074E+00
  7.72261074E+00 -1.54452215E+01  7.72261074E+00  7.72261074E+00 -1.54452215E+01
  7.72261074E+00  7.72261074E+00 -1.54452215E+01  7.72261074E+00  7.72261074E+00
 -1.54452215E+01  7.72261074E+00  7.72261074E+00 -1.54452215E+01  7.72261074E+00
  7.72261074E+00 -1.54452215E+01  7.72261074E+00  7.72261074E+00 -1.54452215E+01
  7.72261074E+00  7.72261074E+00 -1.54452215E+01  7.72261074E+00  7.72261074E+00
 -1.54452215E+01  7.72261074E+00  7.72261074E+00 -1.54452215E+01  7.72261074E+00
  7.72261074E+00 -1.54452215E+01  7.72261074E+00  7.72261074E+00 -1.54452215E+01
  7.72261074E+00  7.72261074E+00 -1.54452215E+01  7.72261074E+00  7.72261074E+00
 -1.54452215E+01  7.72261074E+00  7.72261074E+00 -1.54452215E+01  7.72261074E+00
  7.72261074E+00 -1.54452215E+01  7.72261074E+00  7.72261074E+00 -1.54452215E+01
  7.72261074E+00  7.72261074E+00 -1.54452215E+01  7.72261074E+00  7.72261074E+00
 -1.54452215E+01  7.72261074E+00  7.72261074E+00 -1.54452215E+01  7.72261074E+00
  7.72261074E+00 -1.54452215E+01  7.72261074E+00  7.72261074E+00 -1.54452215E+01
  7.72261074E+00  7.72261074E+00 -1.54452215E+01  7.72261074E+00  7.72261074E+00
 -1.54452215E+01  7.72261074E+00  7.72261074E+00 -1.54452215E+01  7.72261074E+00
  7.72261074E+00 -1.54452215E+01  7.72261074E+00  7.72261074E+00 -1.54452215E+01
  7.72261074E+00  7.72261074E+00 -1.54452215E+01  7.72261074E+00  7.72261074E+00
 -1.54452215E+01  7.72261074E+00  7.72261074E+00 -1.54452215E+01  7.72261074E+00
  7.72261074E+00 -1.54452215E+01  7.72261074E+00  7.72261074E+00 -1.54452215E+01
  7.72261074E+00  7.72261074E+00 -1.54452215E+01  7.72261074E+00  7.72261074E+00
 -1.54452215E+01  7.72261074E+00  7.72261074E+00 -1.54452215E+01  7.72261074E+00
  7.72261074E+00 -1.54452215E+01  7.72261074E+00  7.72261074E+00 -1.54452215E+01
  7.72261074E+00  7.72261074E+00 -1.54452215E+01  7.72261074E+00  7.72261074E+00
 -1.54452215E+01  7.72261074E+00  7.72261074E+00 -1.54452215E+01  7.72261074E+00
  7.72261074E+00 -1.54452215E+01  7.72261074E+00  7.72261074E+00 -1.54452215E+01
  7.72261074E+00  7.72261074E+00 -1.54452215E+01  7.72261074E+00  7.72261074E+00
 -1.54452215E+01  7.72261074E+00  7.72261074E+00 -1.54452215E+01  7.72261074E+00
  7.72261074E+00 -1.54452215E+01  7.72261074E+00  7.72261074E+00 -1.54452215E+01
  7.72261074E+00  7.72261074E+00 -1.54452215E+01  7.72261074E+00  7.72261074E+00
 -1.54452215E+01  7.72261074E+00  7.72261074E+00 -1.54452215E+01  7.72261074E+00
  7.72261074E+00 -1.54452215E+01  7.72261074E+00  7.72261074E+00 -1.54452215E+01
  7.72261074E+00  7.72261074E+00 -1.54452215E+01  7.72261074E+00  7.72261074E+00
 -1.54452215E+01  7.72261074E+00  7.72261074E+00 -1.54452215E+01  7.72261074E+00
  7.72261074E+00 -1.54452215E+01  7.72261074E+00  7.72261074E+00 -1.54452215E+01
  7.72261074E+00  7.72261074E+00 -1.54452215E+01  7.72261074E+00  7.72261074E+00
 -1.54452215E+01  7.72261074E+00  7.72261074E+00 -1.54452215E+01  7.72261074E+00
  7.72261074E+00 -1.54452215E+01  7.72261074E+00  7.72261074E+00 -1.54452215E+01
  7.72261074E+00  7.72261074E+00 -1.54452215E+01  7.72261074E+00  7.72261074E+00
 -1.54452215E+01  7.72261074E+00  7.72261074E+00 -1.54452215E+01  7.72261074E+00
  7.72261074E+00 -1.54452215E+01  7.72261074E+00  7.72261074E+00 -1.54452215E+01
  7.72261074E+00  7.72261074E+00 -1.54452215E+01  7.72261074E+00  7.72261074E+00
 -1.54452215E+01  7.72261074E+00  7.72261074E+00 -1.54452215E+01  7.72261074E+00
  7.72261074E+00 -1.54452215E+01  7.72261074E+00  7.72261074E+00 -1.54452215E+01
  7.72261074E+00  7.72261074E+00 -1.54452215E+01  7.72261074E+00  7.72261074E+00
 -1.54452215E+01  7.72261074E+00  7.72261074E+00 -1.54452215E+01  7.72261074E+00
  7.72261074E+00 -1.54452215E+01  7.72261074E+00  7.72261074E+00 -1.54452215E+01
  7.72261074E+00  7.72261074E+00 -1.54452215E+01  7.72261074E+00  7.72261074E+00
 -1.54452215E+01  7.72261074E+00  7.72261074E+00 -1.54452215E+01  7.72261074E+00
  7.72261074E+00 -1.54452215E+01  7.72261074E+00  7.72261074E+00 -1.54452215E+01
  7.72261074E+00  7.72261074E+00 -1.54452215E+01  7.72261074E+00  7.72261074E+00
 -1.54452215E+01  7.72261074E+00  7.72261074E+00 -1.54452215E+01  7.72261074E+00
  7.72261074E+00 -1.54452215E+01  7.72261074E+00  7.72261074E+00 -1.54452215E+01
  7.72261074E+00  7.72261074E+00 -1.54452215E+01  7.72261074E+00  7.72261074E+00
 -1.54452215E+01  7.72261074E+00  7.72261074E+00 -1.54452215E+01  7.72261074E+00
  7.72261074E+00 -1.54452215E+01  7.72261074E+00  7.72261074E+00 -1.54452215E+01
  7.72261074E+00  7.72261074E+00 -1.54452215E+01  7.72261074E+00  7.72261074E+00
 -1.54452215E+01  7.72261074E+00  7.72261074E+00 -1.54452215E+01  7.72261074E+00
  7.72261074E+00 -1.54452215E+01  7.72261074E+00  7.72261074E+00 -1.54452215E+01
  7.72261074E+00  7.72261074E+00 -1.54452215E+01  7.72261074E+00  7.72261074E+00
 -1.54452215E+01  7.72261074E+00  7.72261074E+00 -1.54452215E+01  7.72261074E+00
  7.72261074E+00 -1.54452215E+01  7.72261074E+00  7.72261074E+00 -1.54452215E+01
  7.72261074E+00  7.72261074E+00 -1.54452215E+01  7.72261074E+00  7.72261074E+00
 -1.54452215E+01  7.72261074E+00  7.72261074E+00 -1.54452215E+01  7.72261074E+00
  7.72261074E+00 -1.54452215E+01  7.72261074E+00  7.72261074E+00 -1.54452215E+01
  7.72261074E+00  7.72261074E+00 -1.54452215E+01  7.72261074E+00  7.72261074E+00
 -1.54452215E+01  7.72261074E+00  7.72261074E+00 -1.54452215E+01  7.72261074E+00
  7.72261074E+00 -1.54452215E+01  7.72261074E+00  7.72261074E+00 -1.54452215E+01
  7.72261074E+00  7.72261074E+00 -1.54452215E+01  7.72261074E+00  7.72261074E+00
 -1.54452215E+01  7.72261074E+00  7.72261074E+00 -1.54452215E+01  7.72261074E+00
  7.72261074E+00 -1.54452215E+01  7.72261074E+00  7.72261074E+00 -1.54452215E+01
  7.72261074E+00  7.72261074E+00 -1.54452215E+01  7.72261074E+00  7.72261074E+00
 -1.54452215E+01  7.72261074E+00  7.72261074E+00 -1.54452215E+01  7.72261074E+00
  7.72261074E+00 -1.54452215E+01  7.72261074E+00  7.72261074E+00 -1.54452215E+01
  7.72261074E+00  7.72261074E+00 -1.54452215E+01  7.72261074E+00  7.72261074E+00
 -1.54452215E+01  7.72261074E+00  7.72261074E+00 -1.54452215E+01  7.72261074E+00
  7.72261074E+00 -1.54452215E+01  7.72261074E+00  7.72261074E+00 -1.54452215E+01
  7.72261074E+00  7.72261074E+00 -1.54452215E+01  7.72261074E+00  7.72261074E+00
 -1.54452215E+01  7.72261074E+00  7.72261074E+00 -1.54452215E+01  7.72261074E+00
  7.72261074E+00 -1.54452215E+01  7.72261074E+00  7.72261074E+00 -1.54452215E+01
  7.72261074E+00  7.72261074E+00 -1.54452215E+01  7.72261074E+00  7.72261074E+00
 -1.54452215E+01  7.72261074E+00  7.72261074E+00 -1.54452215E+01  7.72261074E+00
  7.72261074E+00 -1.54452215E+01  7.72261074E+00  7.72261074E+00 -1.54452215E+01
  7.72261074E+00  7.72261074E+00 -1.54452215E+01  7.72261074E+00  7.72261074E+00
 -1.54452215E+01  7.72261074E+00  7.72261074E+00 -1.54452215E+01  7.72261074E+00
  7.72261074E+00 -1.54452215E+01  7.72261074E+00  7.72261074E+00 -1.54452215E+01
  7.72261074E+00  7.72261074E+00 -1.54452215E+01  7.72261074E+00  7.72261074E+00
 -1.54452215E+01  7.72261074E+00  7.72261074E+00 -1.54452215E+01  7.72261074E+00
  7.72261074E+00 -1.54452215E+01  7.72261074E+00  7.72261074E+00 -1.54452215E+01
  7.72261074E+00  7.72261074E+00 -1.54452215E+01  7.72261074E+00  7.72261074E+00
 -1.54452215E+01  7.72261074E+00  7.72261074E+00 -1.54452215E+01  7.72261074E+00
  7.72261074E+00 -1.54452215E+01  7.72261074E+00  7.72261074E+00 -1.54452215E+01
  7.72261074E+00  7.72261074E+00 -1.54452215E+01  7.72261074E+00  7.72261074E+00
 -1.54452215E+01  7.72261074E+00  7.72261074E+00 -1.54452215E+01  7.72261074E+00
  7.72261074E+00 -1.54452215E+01  7.72261074E+00  7.72261074E+00 -1.54452215E+01
  7.72261074E+00  7.72261074E+00 -1.54452215E+01  7.72261074E+00  7.72261074E+00
 -1.54452215E+01  7.72261074E+00  7.72261074E+00 -1.54452215E+01  7.72261074E+00
  7.72261074E+00 -1.54452215E+01  7.72261074E+00  7.72261074E+00 -1.54452215E+01
  7.72261074E+00  7.72261074E+00 -1.54452215E+01  7.72261074E+00  7.72261074E+00
 -1.54452215E+01  7.72261074E+00  7.72261074E+00 -1.54452215E+01  7.72261074E+00
  7.72261074E+00 -1.54452215E+01  7.72261074E+00  7.72261074E+00 -1.54452215E+01
  7.72261074E+00  7.72261074E+00 -1.54452215E+01  7.72261074E+00  7.72261074E+00
 -1.54452215E+01  7.72261074E+00  7.72261074E+00 -1.54452215E+01  7.72261074E+00
  7.72261074E+00 -1.54452215E+01  7.72261074E+00  7.72261074E+00 -1.54452215E+01
  7.72261074E+00  7.72261074E+00 -1.54452215E+01  7.72261074E+00  7.72261074E+00
 -1.54452215E+01  7.72261074E+00  7.72261074E+00 -1.54452215E+01  7.72261074E+00
  7.72261074E+00 -1.54452215E+01  7.72261074E+00  7.72261074E+00 -1.54452215E+01
  7.72261074E+00  7.72261074E+00 -1.54452215E+01  7.72261074E+00  7.72261074E+00
 -1.54452215E+01  7.72261074E+00  7.72261074E+00 -1.54452215E+01  7.72261074E+00
  7.72261074E+00 -1.54452215E+01  7.72261074E+00  7.72261074E+00 -1.54452215E+01
  7.72261074E+00  7.72261074E+00 -1.54452215E+01  7.72261074E+00  7.72261074E+00
 -1.54452215E+01  7.72261074E+00  7.72261074E+00 -1.54452215E+01  7.72261074E+00
  7.72261074E+00 -1.54452215E+01  7.72261074E+00  7.72261074E+00 -1.54452215E+01
  7.72261074E+00  7.72261074E+00 -1.54452215E+01  7.72261074E+00  7.72261074E+00
 -1.54452215E+01  7.72261074E+00  7.72261074E+00 -1.54452215E+01  7.72261074E+00
  7.72261074E+00 -1.54452215E+01  7.72261074E+00  7.72261074E+00 -1.54452215E+01
  7.72261074E+00  7.72261074E+00 -1.54452215E+01  7.72261074E+00  7.72261074E+00
 -1.54452215E+01  7.72261074E+00  7.72261074E+00 -1.54452215E+01  7.72261074E+00
  7.72261074E+00 -1.54452215E+01  7.72261074E+00  7.72261074E+00 -1.54452215E+01
  7.72261074E+00  7.72261074E+00 -1.54452215E+01  7.72261074E+00  7.72261074E+00
 -1.54452215E+01  7.72261074E+00  7.72261074E+00 -1.54452215E+01  7.72261074E+00
  7.72261074E+00 -1.54452215E+01  7.72261074E+00  7.72261074E+00 -1.54452215E+01
  7.72261074E+00  7.72261074E+00 -1.54452215E+01  7.72261074E+00  7.72261074E+00
 -1.54452215E+01  7.72261074E+00  7.72261074E+00 -1.54452215E+01  7.72261074E+00
  7.72261074E+00 -1.54452215E+01  7.72261074E+00  7.72261074E+00 -1.54452215E+01
  7.72261074E+00  7.72261074E+00 -1.54452215E+01  7.72261074E+00  7.72261074E+00
 -1.54452215E+01  7.72261074E+00  7.72261074E+00 -1.54452215E+01  7.72261074E+00
  7.72261074E+00 -1.54452215E+01  7.72261074E+00  7.72261074E+00 -1.54452215E+01
  7.72261074E+00  7.72261074E+00 -1.54452215E+01  7.72261074E+00  7.72261074E+00
 -1.54452215E+01  7.72261074E+00  7.72261074E+00 -1.54452215E+01  7.72261074E+00
  7.72261074E+00 -1.54452215E+01  7.72261074E+00  7.72261074E+00 -1.54452215E+01
  7.72261074E+00  7.72261074E+00 -1.54452215E+01  7.72261074E+00  7.72261074E+00
 -1.54452215E+01  7.72261074E+00  7.72261074E+00 -1.54452215E+01  7.72261074E+00
  7.72261074E+00 -1.54452215E+01  7.72261074E+00  7.72261074E+00 -1.54452215E+01
  7.72261074E+00  7.72261074E+00 -1.54452215E+01  7.72261074E+00  7.72261074E+00
 -1.54452215E+01  7.72261074E+00  7.72261074E+00 -1.54452215E+01  7.72261074E+00
  7.72261074E+00 -1.54452215E+01  7.72261074E+00  7.72261074E+00 -1.54452215E+01
  7.72261074E+00  7.72261074E+00 -1.54452215E+01  7.72261074E+00  7.72261074E+00
 -1.54452215E+01  7.72261074E+00  7.72261074E+00 -1.54452215E+01  7.72261074E+00
  7.72261074E+00 -1.54452215E+01  7.72261074E+00  7.72261074E+00 -1.54452215E+01
  7.72261074E+00  7.72261074E+00 -1.54452215E+01  7.72261074E+00  7.72261074E+00
 -1.54452215E+01  7.72261074E+00  7.72261074E+00 -1.54452215E+01  7.72261074E+00
  7.72261074E+00 -1.54452215E+01  7.72261074E+00  7.72261074E+00 -1.54452215E+01
  7.72261074E+00  7.72261074E+00 -1.54452215E+01  7.72261074E+00  7.72261074E+00
 -1.54452215E+01  7.72261074E+00  7.72261074E+00 -1.54452215E+01  7.72261074E+00
  7.72261074E+00 -1.54452215E+01  7.72261074E+00  7.72261074E+00 -1.54452215E+01
  7.72261074E+00  7.72261074E+00 -1.54452215E+01  7.72261074E+00  7.72261074E+00
 -1.54452215E+01  7.72261074E+00  7.72261074E+00 -1.54452215E+01  7.72261074E+00
  7.72261074E+00 -1.54452215E+01  7.72261074E+00  7.72261074E+00 -1.54452215E+01
  7.72261074E+00  7.72261074E+00 -1.54452215E+01  7.72261074E+00  7.72261074E+00
 -1.54452215E+01  7.72261074E+00  7.72261074E+00 -1.54452215E+01  7.72261074E+00
  7.72261074E+00 -1.54452215E+01  7.72261074E+00  7.72261074E+00 -1.54452215E+01
  7.72261074E+00  7.72261074E+00 -1.54452215E+01  7.72261074E+00  7.72261074E+00
 -1.54452215E+01  7.72261074E+00  7.72261074E+00 -1.54452215E+01  7.72261074E+00
  7.72261074E+00 -1.54452215E+01  7.72261074E+00  7.72261074E+00 -1.54452215E+01
  7.72261074E+00  7.72261074E+00 -1.54452215E+01  7.72261074E+00  7.72261074E+00
 -1.54452215E+01  7.72261074E+00  7.72261074E+00 -1.54452215E+01  7.72261074E+00
  7.72261074E+00 -1.54452215E+01  7.72261074E+00  7.72261074E+00 -1.54452215E+01
  7.72261074E+00  7.72261074E+00 -1.54452215E+01  7.72261074E+00  7.72261074E+00
 -1.54452215E+01  7.72261074E+00  7.72261074E+00 -1.54452215E+01  7.72261074E+00
  7.72261074E+00 -1.54452215E+01  7.72261074E+00  7.72261074E+00 -1.54452215E+01
  7.72261074E+00  7.72261074E+00 -1.54452215E+01  7.72261074E+00  7.72261074E+00
 -1.54452215E+01  7.72261074E+00  7.72261074E+00 -1.54452215E+01  7.72261074E+00
  7.72261074E+00 -1.54452215E+01  7.72261074E+00  7.72261074E+00 -1.54452215E+01
  7.72261074E+00  7.72261074E+00 -1.54452215E+01  7.72261074E+00  7.72261074E+00
 -1.54452215E+01  7.72261074E+00  7.72261074E+00 -1.54452215E+01  7.72261074E+00
  7.72261074E+00 -1.54452215E+01  7.72261074E+00  7.72261074E+00 -1.54452215E+01
  7.72261074E+00  7.72261074E+00 -1.54452215E+01  7.72261074E+00  7.72261074E+00
 -1.54452215E+01  7.72261074E+00  7.72261074E+00 -1.54452215E+01  7.72261074E+00
  7.72261074E+00 -1.54452215E+01  7.72261074E+00  7.72261074E+00 -1.54452215E+01
  7.72261074E+00  7.72261074E+00 -1.54452215E+01  7.72261074E+00  7.72261074E+00
 -1.54452215E+01  7.72261074E+00  7.72261074E+00 -1.54452215E+01  7.72261074E+00
  7.72261074E+00 -1.54452215E+01  7.72261074E+00  7.72261074E+00 -1.54452215E+01
  7.72261074E+00  7.72261074E+00 -1.54452215E+01  7.72261074E+00  7.72261074E+00
 -1.54452215E+01  7.72261074E+00  7.72261074E+00 -1.54452215E+01  7.72261074E+00
  7.72261074E+00 -1.54452215E+01  7.72261074E+00  7.72261074E+00 -1.54452215E+01
  7.72261074E+00  7.72261074E+00 -1.54452215E+01  7.72261074E+00  7.72261074E+00
 -1.54452215E+01  7.72261074E+00  7.72261074E+00 -1.54452215E+01  7.72261074E+00
  7.72261074E+00 -1.54452215E+01  7.72261074E+00  7.72261074E+00 -1.54452215E+01
  7.72261074E+00  7.72261074E+00 -1.54452215E+01  7.72261074E+00  7.72261074E+00
 -1.54452215E+01  7.72261074E+00  7.72261074E+00 -1.54452215E+01  7.72261074E+00
  7.72261074E+00 -1.54452215E+01  7.72261074E+00  7.72261074E+00 -1.54452215E+01
  7.72261074E+00  7.72261074E+00 -1.54452215E+01  7.72261074E+00  7.72261074E+00
 -1.54452215E+01  7.72261074E+00  7.72261074E+00 -1.54452215E+01  7.72261074E+00
  7.72261074E+00 -1.54452215E+01  7.72261074E+00  7.72261074E+00 -1.54452215E+01
  7.72261074E+00  7.72261074E+00 -1.54452215E+01  7.72261074E+00  7.72261074E+00
 -1.54452215E+01  7.72261074E+00  7.72261074E+00 -1.54452215E+01  7.72261074E+00
  7.72261074E+00 -1.54452215E+01  7.72261074E+00  7.72261074E+00 -1.54452215E+01
  7.72261074E+00  7.72261074E+00 -1.54452215E+01  7.72261074E+00  7.72261074E+00
 -1.54452215E+01  7.72261074E+00  7.72261074E+00 -1.54452215E+01  7.72261074E+00
  7.72261074E+00 -1.54452215E+01  7.72261074E+00  7.72261074E+00 -1.54452215E+01
  7.72261074E+00  7.72261074E+00 -1.54452215E+01  7.72261074E+00  7.72261074E+00
 -1.54452215E+01  7.72261074E+00  7.72261074E+00 -1.54452215E+01  7.72261074E+00
  7.72261074E+00 -1.54452215E+01  7.72261074E+00  7.72261074E+00 -1.54452215E+01
  7.72261074E+00  7.72261074E+00 -1.54452215E+01  7.72261074E+00  7.72261074E+00
 -1.54452215E+01  7.72261074E+00  7.72261074E+00 -1.54452215E+01  7.72261074E+00
  7.72261074E+00 -1.54452215E+01  7.72261074E+00  7.72261074E+00 -1.54452215E+01
  7.72261074E+00  7.72261074E+00 -1.54452215E+01  7.72261074E+00  7.72261074E+00
 -1.54452215E+01  7.72261074E+00  7.72261074E+00 -1.54452215E+01  7.72261074E+00
  7.72261074E+00 -1.54452215E+01  7.72261074E+00  7.72261074E+00 -1.54452215E+01
  7.72261074E+00  7.72261074E+00 -1.54452215E+01  7.72261074E+00  7.72261074E+00
 -1.54452215E+01  7.72261074E+00  7.72261074E+00 -1.54452215E+01  7.72261074E+00
  7.72261074E+00 -1.54452215E+01  7.72261074E+00  7.72261074E+00 -1.54452215E+01
  7.72261074E+00  7.72261074E+00 -1.54452215E+01  7.72261074E+00  7.72261074E+00
 -1.54452215E+01  7.72261074E+00  7.72261074E+00 -1.54452215E+01  7.72261074E+00
  7.72261074E+00 -1.54452215E+01  7.72261074E+00  7.72261074E+00 -1.54452215E+01
  7.72261074E+00  7.72261074E+00 -1.54452215E+01  7.72261074E+00  7.72261074E+00
 -1.54452215E+01  7.72261074E+00  7.72261074E+00 -1.54452215E+01  7.72261074E+00
  7.72261074E+00 -1.54452215E+01  7.72261074E+00  7.72261074E+00 -1.54452215E+01
  7.72261074E+00  7.72261074E+00 -1.54452215E+01  7.72261074E+00  7.72261074E+00
 -1.54452215E+01  7.72261074E+00  7.72261074E+00 -1.54452215E+01  7.72261074E+00
  7.72261074E+00 -1.54452215E+01  7.72261074E+00  7.72261074E+00 -1.54452215E+01
  7.72261074E+00  7.72261074E+00 -1.54452215E+01  7.72261074E+00  7.72261074E+00
 -1.54452215E+01  7.72261074E+00  7.72261074E+00 -1.54452215E+01  7.72261074E+00
  7.72261074E+00 -1.54452215E+01  7.72261074E+00  7.72261074E+00 -1.54452215E+01
  7.72261074E+00  7.72261074E+00 -1.54452215E+01  7.72261074E+00  7.72261074E+00
 -1.54452215E+01  7.72261074E+00  7.72261074E+00 -1.54452215E+01  7.72261074E+00
  7.72261074E+00 -1.54452215E+01  7.72261074E+00  7.72261074E+00 -1.54452215E+01
  7.72261074E+00  7.72261074E+00 -1.54452215E+01  7.72261074E+00  7.72261074E+00
 -1.54452215E+01  7.72261074E+00  7.72261074E+00 -1.54452215E+01  7.72261074E+00
  7.72261074E+00 -1.54452215E+01  7.72261074E+00  7.72261074E+00 -1.54452215E+01
  7.72261074E+00  7.72261074E+00 -1.54452215E+01  7.72261074E+00  7.72261074E+00
 -1.54452215E+01  7.72261074E+00  7.72261074E+00 -1.54452215E+01  7.72261074E+00
  7.72261074E+00 -1.54452215E+01  7.72261074E+00  7.72261074E+00 -1.54452215E+01
  7.72261074E+00  7.72261074E+00 -1.54452215E+01  7.72261074E+00  7.72261074E+00
 -1.54452215E+01  7.72261074E+00  7.72261074E+00 -1.54452215E+01  7.72261074E+00
  7.72261074E+00 -1.54452215E+01  7.72261074E+00  7.72261074E+00 -1.54452215E+01
  7.72261074E+00  7.72261074E+00 -1.54452215E+01  7.72261074E+00  7.72261074E+00
 -1.54452215E+01  7.72261074E+00  7.72261074E+00 -1.54452215E+01  7.72261074E+00
  7.72261074E+00 -1.54452215E+01  7.72261074E+00  7.72261074E+00 -1.54452215E+01
  7.72261074E+00  7.72261074E+00 -1.54452215E+01  7.72261074E+00  7.72261074E+00
 -1.54452215E+01  7.72261074E+00  7.72261074E+00 -1.54452215E+01  7.72261074E+00
  7.72261074E+00 -1.54452215E+01  7.72261074E+00  7.72261074E+00 -1.54452215E+01
  7.72261074E+00  7.72261074E+00 -1.54452215E+01  7.72261074E+00  7.72261074E+00
 -1.54452215E+01  7.72261074E+00  7.72261074E+00 -1.54452215E+01  7.72261074E+00
  7.72261074E+00 -1.54452215E+01  7.72261074E+00  7.72261074E+00 -1.54452215E+01
  7.72261074E+00  7.72261074E+00 -1.54452215E+01  7.72261074E+00  7.72261074E+00
 -1.54452215E+01  7.72261074E+00  7.72261074E+00 -1.54452215E+01  7.72261074E+00
  7.72261074E+00 -1.54452215E+01  7.72261074E+00  7.72261074E+00 -1.54452215E+01
  7.72261074E+00  7.72261074E+00 -1.54452215E+01  7.72261074E+00  7.72261074E+00
 -1.54452215E+01  7.72261074E+00  7.72261074E+00 -1.54452215E+01  7.72261074E+00
  7.72261074E+00 -1.54452215E+01  7.72261074E+00  7.72261074E+00 -1.54452215E+01
  7.72261074E+00  7.72261074E+00 -1.54452215E+01  7.72261074E+00  7.72261074E+00
 -1.54452215E+01  7.72261074E+00  7.72261074E+00 -1.54452215E+01  7.72261074E+00
  7.72261074E+00 -1.54452215E+01  7.72261074E+00  7.72261074E+00 -1.54452215E+01
  7.72261074E+00  7.72261074E+00 -1.54452215E+01  7.72261074E+00  7.72261074E+00
 -1.54452215E+01  7.72261074E+00  7.72261074E+00 -1.54452215E+01  7.72261074E+00
  7.72261074E+00 -1.54452215E+01  7.72261074E+00  7.72261074E+00 -1.54452215E+01
  7.72261074E+00  7.72261074E+00 -1.54452215E+01  7.72261074E+00  7.72261074E+00
 -1.54452215E+01  7.72261074E+00  7.72261074E+00 -1.54452215E+01  7.72261074E+00
  7.72261074E+00 -1.54452215E+01  7.72261074E+00  7.72261074E+00 -1.54452215E+01
  7.72261074E+00  7.72261074E+00 -1.54452215E+01  7.72261074E+00  7.72261074E+00
 -1.54452215E+01  7.72261074E+00  7.72261074E+00 -1.54452215E+01  7.72261074E+00
  7.72261074E+00 -1.54452215E+01  7.72261074E+00  7.72261074E+00 -1.54452215E+01
  7.72261074E+00  7.72261074E+00 -1.54452215E+01  7.72261074E+00  7.72261074E+00
 -1.54452215E+01  7.72261074E+00  7.72261074E+00 -1.54452215E+01  7.72261074E+00
  7.72261074E+00 -1.54452215E+01  7.72261074E+00  7.72261074E+00 -1.54452215E+01
  7.72261074E+00  7.72261074E+00 -1.54452215E+01  7.72261074E+00  7.72261074E+00
 -1.54452215E+01  7.72261074E+00  7.72261074E+00 -1.54452215E+01  7.72261074E+00
  7.72261074E+00 -1.54452215E+01  7.72261074E+00  7.72261074E+00 -1.54452215E+01
  7.72261074E+00  7.72261074E+00 -1.54452215E+01  7.72261074E+00  7.72261074E+00
 -1.54452215E+01  7.72261074E+00  7.72261074E+00 -1.54452215E+01  7.72261074E+00
  7.72261074E+00 -1.54452215E+01  7.72261074E+00  7.72261074E+00 -1.54452215E+01
  7.72261074E+00  7.72261074E+00 -1.54452215E+01  7.72261074E+00  7.72261074E+00
 -1.54452215E+01  7.72261074E+00  7.72261074E+00 -1.54452215E+01  7.72261074E+00
  7.72261074E+00 -1.54452215E+01  7.72261074E+00  7.72261074E+00 -1.54452215E+01
  7.72261074E+00  7.72261074E+00 -1.54452215E+01  7.72261074E+00  7.72261074E+00
 -1.54452215E+01  7.72261074E+00  7.72261074E+00 -1.54452215E+01  7.72261074E+00
  7.72261074E+00 -1.54452215E+01  7.72261074E+00  7.72261074E+00 -1.54452215E+01
  7.72261074E+00  7.72261074E+00 -1.54452215E+01  7.72261074E+00  7.72261074E+00
 -1.54452215E+01  7.72261074E+00  7.72261074E+00 -1.54452215E+01  7.72261074E+00
  7.72261074E+00 -1.54452215E+01  7.72261074E+00  7.72261074E+00 -1.54452215E+01
  7.72261074E+00  7.72261074E+00 -1.54452215E+01  7.72261074E+00  7.72261074E+00
 -1.54452215E+01  7.72261074E+00  7.72261074E+00 -1.54452215E+01  7.72261074E+00
  7.72261074E+00 -1.54452215E+01  7.72261074E+00  7.72261074E+00 -1.54452215E+01
  7.72261074E+00  7.72261074E+00 -1.54452215E+01  7.72261074E+00  7.72261074E+00
 -1.54452215E+01  7.72261074E+00  7.72261074E+00 -1.54452215E+01  7.72261074E+00
  7.72261074E+00 -1.54452215E+01  7.72261074E+00  7.72261074E+00 -1.54452215E+01
  7.72261074E+00  7.72261074E+00 -1.54452215E+01  7.72261074E+00  7.72261074E+00
 -1.54452215E+01  7.72261074E+00  7.72261074E+00 -1.54452215E+01  7.72261074E+00
  7.72261074E+00 -1.54452215E+01  7.72261074E+00  7.72261074E+00 -1.54452215E+01
  7.72261074E+00  7.72261074E+00 -1.54452215E+01  7.72261074E+00  7.72261074E+00
 -1.54452215E+01  7.72261074E+00  7.72261074E+00 -1.54452215E+01  7.72261074E+00
  7.72261074E+00 -1.54452215E+01  7.72261074E+00  7.72261074E+00 -1.54452215E+01
  7.72261074E+00  7.72261074E+00 -1.54452215E+01  7.72261074E+00  7.72261074E+00
 -1.54452215E+01  7.72261074E+00  7.72261074E+00 -1.54452215E+01  7.72261074E+00
  7.72261074E+00 -1.54452215E+01  7.72261074E+00  7.72261074E+00 -1.54452215E+01
  7.72261074E+00  7.72261074E+00 -1.54452215E+01  7.72261074E+00  7.72261074E+00
 -1.54452215E+01  7.72261074E+00  7.72261074E+00 -1.54452215E+01  7.72261074E+00
  7.72261074E+00 -1.54452215E+01  7.72261074E+00  7.72261074E+00 -1.54452215E+01
  7.72261074E+00  7.72261074E+00 -1.54452215E+01  7.72261074E+00  7.72261074E+00
 -1.54452215E+01  7.72261074E+00  7.72261074E+00 -1.54452215E+01  7.72261074E+00
  7.72261074E+00 -1.54452215E+01  7.72261074E+00  7.72261074E+00 -1.54452215E+01
  7.72261074E+00  7.72261074E+00 -1.54452215E+01  7.72261074E+00  7.72261074E+00
 -1.54452215E+01  7.72261074E+00  7.72261074E+00 -1.54452215E+01  7.72261074E+00
  7.72261074E+00 -1.54452215E+01  7.72261074E+00  7.72261074E+00 -1.54452215E+01
  7.72261074E+00  7.72261074E+00 -1.54452215E+01  7.72261074E+00  7.72261074E+00
 -1.54452215E+01  7.72261074E+00  7.72261074E+00 -1.54452215E+01  7.72261074E+00
  7.72261074E+00 -1.54452215E+01  7.72261074E+00  7.72261074E+00 -1.54452215E+01
  7.72261074E+00  7.72261074E+00 -1.54452215E+01  7.72261074E+00  7.72261074E+00
 -1.54452215E+01  7.72261074E+00  7.72261074E+00 -1.54452215E+01  7.72261074E+00
  7.72261074E+00 -1.54452215E+01  7.72261074E+00  7.72261074E+00 -1.54452215E+01
  7.72261074E+00  7.72261074E+00 -1.54452215E+01  7.72261074E+00  7.72261074E+00
 -1.54452215E+01  7.72261074E+00  7.72261074E+00 -1.54452215E+01  7.72261074E+00
  7.72261074E+00 -1.54452215E+01  7.72261074E+00  7.72261074E+00 -1.54452215E+01
  7.72261074E+00  7.72261074E+00 -1.54452215E+01  7.72261074E+00  7.72261074E+00
 -1.54452215E+01  7.72261074E+00  7.72261074E+00 -1.54452215E+01  7.72261074E+00
  7.72261074E+00 -1.54452215E+01  7.72261074E+00  7.72261074E+00 -1.54452215E+01
  7.72261074E+00  7.72261074E+00 -1.54452215E+01  7.72261074E+00  7.72261074E+00
 -1.54452215E+01  7.72261074E+00  7.72261074E+00 -1.54452215E+01  7.72261074E+00
  7.72261074E+00 -1.54452215E+01  7.72261074E+00  7.72261074E+00 -1.54452215E+01
  7.72261074E+00  7.72261074E+00 -1.54452215E+01  7.72261074E+00  7.72261074E+00
 -1.54452215E+01  7.72261074E+00  7.72261074E+00 -1.54452215E+01  7.72261074E+00
  7.72261074E+00 -1.54452215E+01  7.72261074E+00  7.72261074E+00 -1.54452215E+01
  7.72261074E+00  7.72261074E+00 -1.54452215E+01  7.72261074E+00  7.72261074E+00
 -1.54452215E+01  7.72261074E+00  7.72261074E+00 -1.54452215E+01  7.72261074E+00
  7.72261074E+00 -1.54452215E+01  7.72261074E+00  7.72261074E+00 -1.54452215E+01
  7.72261074E+00  7.72261074E+00 -1.54452215E+01  7.72261074E+00  7.72261074E+00
 -1.54452215E+01  7.72261074E+00  7.72261074E+00 -1.54452215E+01  7.72261074E+00
  7.72261074E+00 -1.54452215E+01  7.72261074E+00  7.72261074E+00 -1.54452215E+01
  7.72261074E+00  7.72261074E+00 -1.54452215E+01  7.72261074E+00  7.72261074E+00
 -1.54452215E+01  7.72261074E+00  7.72261074E+00 -1.54452215E+01  7.72261074E+00
  7.72261074E+00 -1.54452215E+01  7.72261074E+00  7.72261074E+00 -1.54452215E+01
  7.72261074E+00  7.72261074E+00 -1.54452215E+01  7.72261074E+00  7.72261074E+00
 -1.54452215E+01  7.72261074E+00  7.72261074E+00 -1.54452215E+01  7.72261074E+00
  7.72261074E+00 -1.54452215E+01  7.72261074E+00  7.72261074E+00 -1.54452215E+01
  7.72261074E+00  7.72261074E+00 -1.54452215E+01  7.72261074E+00  7.72261074E+00
 -1.54452215E+01  7.72261074E+00  7.72261074E+00 -1.54452215E+01  7.72261074E+00
  7.72261074E+00 -1.54452215E+01  7.72261074E+00  7.72261074E+00 -1.54452215E+01
  7.72261074E+00  7.72261074E+00 -1.54452215E+01  7.72261074E+00  7.72261074E+00
 -1.54452215E+01  7.72261074E+00  7.72261074E+00 -1.54452215E+01  7.72261074E+00
  7.72261074E+00 -1.54452215E+01  7.72261074E+00  7.72261074E+00 -1.54452215E+01
  7.72261074E+00  7.72261074E+00 -1.54452215E+01  7.72261074E+00  7.72261074E+00
 -1.54452215E+01  7.72261074E+00  7.72261074E+00 -1.54452215E+01  7.72261074E+00
  7.72261074E+00 -1.54452215E+01  7.72261074E+00  7.72261074E+00 -1.54452215E+01
  7.72261074E+00  7.72261074E+00 -1.54452215E+01  7.72261074E+00  7.72261074E+00
 -1.54452215E+01  7.72261074E+00  7.72261074E+00 -1.54452215E+01  7.72261074E+00
  7.72261074E+00 -1.54452215E+01  7.72261074E+00  7.72261074E+00 -1.54452215E+01
  7.72261074E+00  7.72261074E+00 -1.54452215E+01  7.72261074E+00  7.72261074E+00
 -1.54452215E+01  7.72261074E+00  7.72261074E+00 -1.54452215E+01  7.72261074E+00
  7.72261074E+00 -1.54452215E+01  7.72261074E+00  7.72261074E+00 -1.54452215E+01
  7.72261074E+00  7.72261074E+00 -1.54452215E+01  7.72261074E+00  7.72261074E+00
 -1.54452215E+01  7.72261074E+00  7.72261074E+00 -1.54452215E+01  7.72261074E+00
  7.72261074E+00 -1.54452215E+01  7.72261074E+00  7.72261074E+00 -1.54452215E+01
  7.72261074E+00  7.72261074E+00 -1.54452215E+01  7.72261074E+00  7.72261074E+00
 -1.54452215E+01  7.72261074E+00  7.72261074E+00 -1.54452215E+01  7.72261074E+00
  7.72261074E+00 -1.54452215E+01  7.72261074E+00  7.72261074E+00 -1.54452215E+01
  7.72261074E+00  7.72261074E+00 -1.54452215E+01  7.72261074E+00  7.72261074E+00
 -1.54452215E+01  7.72261074E+00  7.72261074E+00 -1.54452215E+01  7.72261074E+00
  7.72261074E+00 -1.54452215E+01  7.72261074E+00  7.72261074E+00 -1.54452215E+01
  7.72261074E+00  7.72261074E+00 -1.54452215E+01  7.72261074E+00  7.72261074E+00
 -1.54452215E+01  7.72261074E+00  7.72261074E+00 -1.54452215E+01  7.72261074E+00
  7.72261074E+00 -1.54452215E+01  7.72261074E+00  7.72261074E+00 -1.54452215E+01
  7.72261074E+00  7.72261074E+00 -1.54452215E+01  7.72261074E+00  7.72261074E+00
 -1.54452215E+01  7.72261074E+00  7.72261074E+00 -1.54452215E+01  7.72261074E+00
  7.72261074E+00 -1.54452215E+01  7.72261074E+00  7.72261074E+00 -1.54452215E+01
  7.72261074E+00  7.72261074E+00 -1.54452215E+01  7.72261074E+00  7.72261074E+00
 -1.54452215E+01  7.72261074E+00  7.72261074E+00 -1.54452215E+01  7.72261074E+00
  7.72261074E+00 -1.54452215E+01  7.72261074E+00  7.72261074E+00 -1.54452215E+01
  7.72261074E+00  7.72261074E+00 -1.54452215E+01  7.72261074E+00  7.72261074E+00
 -1.54452215E+01  7.72261074E+00  7.72261074E+00 -1.54452215E+01  7.72261074E+00
  7.72261074E+00 -1.54452215E+01  7.72261074E+00  7.72261074E+00 -1.54452215E+01
  7.72261074E+00  7.72261074E+00 -1.54452215E+01  7.72261074E+00  7.72261074E+00
 -1.54452215E+01  7.72261074E+00  7.72261074E+00 -1.54452215E+01  7.72261074E+00
  7.72261074E+00 -1.54452215E+01  7.72261074E+00  7.72261074E+00 -1.54452215E+01
  7.72261074E+00  7.72261074E+00 -1.54452215E+01  7.72261074E+00  7.72261074E+00
 -1.54452215E+01  7.72261074E+00  7.72261074E+00 -1.54452215E+01  7.72261074E+00
  7.72261074E+00 -1.54452215E+01  7.72261074E+00  7.72261074E+00 -1.54452215E+01
  7.72261074E+00  7.72261074E+00 -1.54452215E+01  7.72261074E+00  7.72261074E+00
 -1.54452215E+01  7.72261074E+00  7.72261074E+00 -1.54452215E+01  7.72261074E+00
  7.72261074E+00 -1.54452215E+01  7.72261074E+00  7.72261074E+00 -1.54452215E+01
  7.72261074E+00  7.72261074E+00 -1.54452215E+01  7.72261074E+00  7.72261074E+00
 -1.54452215E+01  7.72261074E+00  7.72261074E+00 -1.54452215E+01  7.72261074E+00
  7.72261074E+00 -1.54452215E+01  7.72261074E+00  7.72261074E+00 -1.54452215E+01
  7.72261074E+00  7.72261074E+00 -1.54452215E+01  7.72261074E+00  7.72261074E+00
 -1.54452215E+01  7.72261074E+00  7.72261074E+00 -1.54452215E+01  7.72261074E+00
  7.72261074E+00 -1.54452215E+01  7.72261074E+00  7.72261074E+00 -1.54452215E+01
  7.72261074E+00  7.72261074E+00 -1.54452215E+01  7.72261074E+00  7.72261074E+00
 -1.54452215E+01  7.72261074E+00  7.72261074E+00 -1.54452215E+01  7.72261074E+00
  7.72261074E+00 -1.54452215E+01  7.72261074E+00  7.72261074E+00 -1.54452215E+01
  7.72261074E+00  7.72261074E+00 -1.54452215E+01  7.72261074E+00  7.72261074E+00
 -1.54452215E+01  7.72261074E+00  7.72261074E+00 -1.54452215E+01  7.72261074E+00
  7.72261074E+00 -1.54452215E+01  7.72261074E+00  7.72261074E+00 -1.54452215E+01
  7.72261074E+00  7.72261074E+00 -1.54452215E+01  7.72261074E+00  7.72261074E+00
 -1.54452215E+01  7.72261074E+00  7.72261074E+00 -1.54452215E+01  7.72261074E+00
  7.72261074E+00 -1.54452215E+01  7.72261074E+00  7.72261074E+00 -1.54452215E+01
  7.72261074E+00  7.72261074E+00 -1.54452215E+01  7.72261074E+00  7.72261074E+00
 -1.54452215E+01  7.72261074E+00  7.72261074E+00 -1.54452215E+01  7.72261074E+00
  7.72261074E+00 -1.54452215E+01  7.72261074E+00  7.72261074E+00 -1.54452215E+01
  7.72261074E+00  7.72261074E+00 -1.54452215E+01  7.72261074E+00  7.72261074E+00
 -1.54452215E+01  7.72261074E+00  7.72261074E+00 -1.54452215E+01  7.72261074E+00
  7.72261074E+00 -1.54452215E+01  7.72261074E+00  7.72261074E+00 -1.54452215E+01
  7.72261074E+00  7.72261074E+00 -1.54452215E+01  7.72261074E+00  7.72261074E+00
 -1.54452215E+01  7.72261074E+00  7.72261074E+00 -1.54452215E+01  7.72261074E+00
  7.72261074E+00 -1.54452215E+01  7.72261074E+00  7.72261074E+00 -1.54452215E+01
  7.72261074E+00  7.72261074E+00 -1.54452215E+01  7.72261074E+00  7.72261074E+00
 -1.54452215E+01  7.72261074E+00  7.72261074E+00 -1.54452215E+01  7.72261074E+00
  7.72261074E+00 -1.54452215E+01  7.72261074E+00  7.72261074E+00 -1.54452215E+01
  7.72261074E+00  7.72261074E+00 -1.54452215E+01  7.72261074E+00  7.72261074E+00
 -1.54452215E+01  7.72261074E+00  7.72261074E+00 -1.54452215E+01  7.72261074E+00
  7.72261074E+00 -1.54452215E+01  7.72261074E+00  7.72261074E+00 -1.54452215E+01
  7.72261074E+00  7.72261074E+00 -1.54452215E+01  7.72261074E+00  7.72261074E+00
 -1.54452215E+01  7.72261074E+00  7.72261074E+00 -1.54452215E+01  7.72261074E+00
  7.72261074E+00 -1.54452215E+01  7.72261074E+00  7.72261074E+00 -1.54452215E+01
  7.72261074E+00  7.72261074E+00 -1.54452215E+01  7.72261074E+00  7.72261074E+00
 -1.54452215E+01  7.72261074E+00  7.72261074E+00 -1.54452215E+01  7.72261074E+00
  7.72261074E+00 -1.54452215E+01  7.72261074E+00  7.72261074E+00 -1.54452215E+01
  7.72261074E+00  7.72261074E+00 -1.54452215E+01  7.72261074E+00  7.72261074E+00
 -1.54452215E+01  7.72261074E+00  7.72261074E+00 -1.54452215E+01  7.72261074E+00
  7.72261074E+00 -1.54452215E+01  7.72261074E+00  7.72261074E+00 -1.54452215E+01
  7.72261074E+00  7.72261074E+00 -1.54452215E+01  7.72261074E+00  7.72261074E+00
 -1.54452215E+01  7.72261074E+00  7.72261074E+00 -1.54452215E+01  7.72261074E+00
  7.72261074E+00 -1.54452215E+01  7.72261074E+00  7.72261074E+00 -1.54452215E+01
  7.72261074E+00  7.72261074E+00 -1.54452215E+01  7.72261074E+00  7.72261074E+00
 -1.54452215E+01  7.72261074E+00  7.72261074E+00 -1.54452215E+01  7.72261074E+00
  7.72261074E+00 -1.54452215E+01  7.72261074E+00  7.72261074E+00 -1.54452215E+01
  7.72261074E+00  7.72261074E+00 -1.54452215E+01  7.72261074E+00  7.72261074E+00
 -1.54452215E+01  7.72261074E+00  7.72261074E+00 -1.54452215E+01  7.72261074E+00
  7.72261074E+00 -1.54452215E+01  7.72261074E+00  7.72261074E+00 -1.54452215E+01
  7.72261074E+00  7.72261074E+00 -1.54452215E+01  7.72261074E+00  7.72261074E+00
 -1.54452215E+01  7.72261074E+00  7.72261074E+00 -1.54452215E+01  7.72261074E+00
  7.72261074E+00 -1.54452215E+01  7.72261074E+00  7.72261074E+00 -1.54452215E+01
  7.72261074E+00  7.72261074E+00 -1.54452215E+01  7.72261074E+00  7.72261074E+00
 -1.54452215E+01  7.72261074E+00  7.72261074E+00 -1.54452215E+01  7.72261074E+00
  7.72261074E+00 -1.54452215E+01  7.72261074E+00  7.72261074E+00 -1.54452215E+01
  7.72261074E+00  7.72261074E+00 -1.54452215E+01  7.72261074E+00  7.72261074E+00
 -1.54452215E+01  7.72261074E+00  7.72261074E+00 -1.54452215E+01  7.72261074E+00
  7.72261074E+00 -1.54452215E+01  7.72261074E+00  7.72261074E+00 -1.54452215E+01
  7.72261074E+00  7.72261074E+00 -1.54452215E+01  7.72261074E+00  7.72261074E+00
 -1.54452215E+01  7.72261074E+00  7.72261074E+00 -1.54452215E+01  7.72261074E+00
  7.72261074E+00 -1.54452215E+01  7.72261074E+00  7.72261074E+00 -1.54452215E+01
  7.72261074E+00  7.72261074E+00 -1.54452215E+01  7.72261074E+00  7.72261074E+00
 -1.54452215E+01  7.72261074E+00  7.72261074E+00 -1.54452215E+01  7.72261074E+00
  7.72261074E+00 -1.54452215E+01  7.72261074E+00  7.72261074E+00 -1.54452215E+01
  7.72261074E+00  7.72261074E+00 -1.54452215E+01  7.72261074E+00  7.72261074E+00
 -1.54452215E+01  7.72261074E+00  7.72261074E+00 -1.54452215E+01  7.72261074E+00
  7.72261074E+00 -1.54452215E+01  7.72261074E+00  7.72261074E+00 -1.54452215E+01
  7.72261074E+00  7.72261074E+00 -1.54452215E+01  7.72261074E+00  7.72261074E+00
 -1.54452215E+01  7.72261074E+00  7.72261074E+00 -1.54452215E+01  7.72261074E+00
  7.72261074E+00 -1.54452215E+01  7.72261074E+00  7.72261074E+00 -1.54452215E+01
  7.72261074E+00  7.72261074E+00 -1.54452215E+01  7.72261074E+00  7.72261074E+00
 -1.54452215E+01  7.72261074E+00  7.72261074E+00 -1.54452215E+01  7.72261074E+00
  7.72261074E+00 -1.54452215E+01  7.72261074E+00  7.72261074E+00 -1.54452215E+01
  7.72261074E+00  7.72261074E+00 -1.54452215E+01  7.72261074E+00  7.72261074E+00
 -1.54452215E+01  7.72261074E+00  7.72261074E+00 -1.54452215E+01  7.72261074E+00
  7.72261074E+00 -1.54452215E+01  7.72261074E+00  7.72261074E+00 -1.54452215E+01
  7.72261074E+00  7.72261074E+00 -1.54452215E+01  7.72261074E+00  7.72261074E+00
 -1.54452215E+01  7.72261074E+00  7.72261074E+00 -1.54452215E+01  7.72261074E+00
  7.72261074E+00 -1.54452215E+01  7.72261074E+00  7.72261074E+00 -1.54452215E+01
  7.72261074E+00  7.72261074E+00 -1.54452215E+01  7.72261074E+00  7.72261074E+00
 -1.54452215E+01  7.72261074E+00  7.72261074E+00 -1.54452215E+01  7.72261074E+00
  7.72261074E+00 -1.54452215E+01  7.72261074E+00  7.72261074E+00 -1.54452215E+01
  7.72261074E+00  7.72261074E+00 -1.54452215E+01  7.72261074E+00  7.72261074E+00
 -1.54452215E+01  7.72261074E+00  7.72261074E+00 -1.54452215E+01  7.72261074E+00
  7.72261074E+00 -1.54452215E+01  7.72261074E+00  7.72261074E+00 -1.54452215E+01
  7.72261074E+00  7.72261074E+00 -1.54452215E+01  7.72261074E+00  7.72261074E+00
 -1.54452215E+01  7.72261074E+00  7.72261074E+00 -1.54452215E+01  7.72261074E+00
  7.72261074E+00 -1.54452215E+01  7.72261074E+00  7.72261074E+00 -1.54452215E+01
  7.72261074E+00  7.72261074E+00 -1.54452215E+01  7.72261074E+00  7.72261074E+00
 -1.54452215E+01  7.72261074E+00  7.72261074E+00 -1.54452215E+01  7.72261074E+00
  7.72261074E+00 -1.54452215E+01  7.72261074E+00  7.72261074E+00 -1.54452215E+01
  7.72261074E+00  7.72261074E+00 -1.54452215E+01  7.72261074E+00  7.72261074E+00
 -1.54452215E+01  7.72261074E+00  7.72261074E+00 -1.54452215E+01  7.72261074E+00
  7.72261074E+00 -1.54452215E+01  7.72261074E+00  7.72261074E+00 -1.54452215E+01
  7.72261074E+00  7.72261074E+00 -1.54452215E+01  7.72261074E+00  7.72261074E+00
 -1.54452215E+01  7.72261074E+00  7.72261074E+00 -1.54452215E+01  7.72261074E+00
  7.72261074E+00 -1.54452215E+01  7.72261074E+00  7.72261074E+00 -1.54452215E+01
  7.72261074E+00  7.72261074E+00 -1.54452215E+01  7.72261074E+00  7.72261074E+00
 -1.54452215E+01  7.72261074E+00  7.72261074E+00 -1.54452215E+01  7.72261074E+00
  7.72261074E+00 -1.54452215E+01  7.72261074E+00  7.72261074E+00 -1.54452215E+01
  7.72261074E+00  7.72261074E+00 -1.54452215E+01  7.72261074E+00  7.72261074E+00
 -1.54452215E+01  7.72261074E+00  7.72261074E+00 -1.54452215E+01  7.72261074E+00
  7.72261074E+00 -1.54452215E+01  7.72261074E+00  7.72261074E+00 -1.54452215E+01
  7.72261074E+00  7.72261074E+00 -1.54452215E+01  7.72261074E+00  7.72261074E+00
 -1.54452215E+01  7.72261074E+00  7.72261074E+00 -1.54452215E+01  7.72261074E+00
  7.72261074E+00 -1.54452215E+01  7.72261074E+00  7.72261074E+00 -1.54452215E+01
  7.72261074E+00  7.72261074E+00 -1.54452215E+01  7.72261074E+00  7.72261074E+00
 -1.54452215E+01  7.72261074E+00  7.72261074E+00 -1.54452215E+01  7.72261074E+00
  7.72261074E+00 -1.54452215E+01  7.72261074E+00  7.72261074E+00 -1.54452215E+01
  7.72261074E+00  7.72261074E+00 -1.54452215E+01  7.72261074E+00  7.72261074E+00
 -1.54452215E+01  7.72261074E+00  7.72261074E+00 -1.54452215E+01  7.72261074E+00
  7.72261074E+00 -1.54452215E+01  7.72261074E+00  7.72261074E+00 -1.54452215E+01
  7.72261074E+00  7.72261074E+00 -1.54452215E+01  7.72261074E+00  7.72261074E+00
 -1.54452215E+01  7.72261074E+00  7.72261074E+00 -1.54452215E+01  7.72261074E+00
  7.72261074E+00 -1.54452215E+01  7.72261074E+00  7.72261074E+00 -1.54452215E+01
  7.72261074E+00  7.72261074E+00 -1.54452215E+01  7.72261074E+00  7.72261074E+00
 -1.54452215E+01  7.72261074E+00  7.72261074E+00 -1.54452215E+01  7.72261074E+00
  7.72261074E+00 -1.54452215E+01  7.72261074E+00  7.72261074E+00 -1.54452215E+01
  7.72261074E+00  7.72261074E+00 -1.54452215E+01  7.72261074E+00  7.72261074E+00
 -1.54452215E+01  7.72261074E+00  7.72261074E+00 -1.54452215E+01  7.72261074E+00
  7.72261074E+00 -1.54452215E+01  7.72261074E+00  7.72261074E+00 -1.54452215E+01
  7.72261074E+00  7.72261074E+00 -1.54452215E+01  7.72261074E+00  7.72261074E+00
 -1.54452215E+01  7.72261074E+00  7.72261074E+00 -1.54452215E+01  7.72261074E+00
  7.72261074E+00 -1.54452215E+01  7.72261074E+00  7.72261074E+00 -1.54452215E+01
  7.72261074E+00  7.72261074E+00 -1.54452215E+01  7.72261074E+00  7.72261074E+00
 -1.54452215E+01  7.72261074E+00  7.72261074E+00 -1.54452215E+01  7.72261074E+00
  7.72261074E+00 -1.54452215E+01  7.72261074E+00  7.72261074E+00 -1.54452215E+01
  7.72261074E+00  7.72261074E+00 -1.54452215E+01  7.72261074E+00  7.72261074E+00
 -1.54452215E+01  7.72261074E+00  7.72261074E+00 -1.54452215E+01  7.72261074E+00
  7.72261074E+00 -1.54452215E+01  7.72261074E+00  7.72261074E+00 -1.54452215E+01
  7.72261074E+00  7.72261074E+00 -1.54452215E+01  7.72261074E+00  7.72261074E+00
 -1.54452215E+01  7.72261074E+00  7.72261074E+00 -1.54452215E+01  7.72261074E+00
  7.72261074E+00 -1.54452215E+01  7.72261074E+00  7.72261074E+00 -1.54452215E+01
  7.72261074E+00  7.72261074E+00 -1.54452215E+01  7.72261074E+00  7.72261074E+00
 -1.54452215E+01  7.72261074E+00  7.72261074E+00 -1.54452215E+01  7.72261074E+00
  7.72261074E+00 -1.54452215E+01  7.72261074E+00  7.72261074E+00 -1.54452215E+01
  7.72261074E+00  7.72261074E+00 -1.54452215E+01  7.72261074E+00  7.72261074E+00
 -1.54452215E+01  7.72261074E+00  7.72261074E+00 -1.54452215E+01  7.72261074E+00
  7.72261074E+00 -1.54452215E+01  7.72261074E+00  7.72261074E+00 -1.54452215E+01
  7.72261074E+00  7.72261074E+00 -1.54452215E+01  7.72261074E+00  7.72261074E+00
 -1.54452215E+01  7.72261074E+00  7.72261074E+00 -1.54452215E+01  7.72261074E+00
  7.72261074E+00 -1.54452215E+01  7.72261074E+00  7.72261074E+00 -1.54452215E+01
  7.72261074E+00  7.72261074E+00 -1.54452215E+01  7.72261074E+00  7.72261074E+00
 -1.54452215E+01  7.72261074E+00  7.72261074E+00 -1.54452215E+01  7.72261074E+00
  7.72261074E+00 -1.54452215E+01  7.72261074E+00  7.72261074E+00 -1.54452215E+01
  7.72261074E+00  7.72261074E+00 -1.54452215E+01  7.72261074E+00  7.72261074E+00
 -1.54452215E+01  7.72261074E+00  7.72261074E+00 -1.54452215E+01  7.72261074E+00
  7.72261074E+00 -1.54452215E+01  7.72261074E+00  7.72261074E+00 -1.54452215E+01
  7.72261074E+00  7.72261074E+00 -1.54452215E+01  7.72261074E+00  7.72261074E+00
 -1.54452215E+01  7.72261074E+00  7.72261074E+00 -1.54452215E+01  7.72261074E+00
  7.72261074E+00 -1.54452215E+01  7.72261074E+00  7.72261074E+00 -1.54452215E+01
  7.72261074E+00  7.72261074E+00 -1.54452215E+01  7.72261074E+00  7.72261074E+00
 -1.54452215E+01  7.72261074E+00  7.72261074E+00 -1.54452215E+01  7.72261074E+00
  7.72261074E+00 -1.54452215E+01  7.72261074E+00  7.72261074E+00 -1.54452215E+01
  7.72261074E+00  7.72261074E+00 -1.54452215E+01  7.72261074E+00  7.72261074E+00
 -1.54452215E+01  7.72261074E+00  7.72261074E+00 -1.54452215E+01  7.72261074E+00
  7.72261074E+00 -1.54452215E+01  7.72261074E+00  7.72261074E+00 -1.54452215E+01
  7.72261074E+00  7.72261074E+00 -1.54452215E+01  7.72261074E+00  7.72261074E+00
 -1.54452215E+01  7.72261074E+00  7.72261074E+00 -1.54452215E+01  7.72261074E+00
  7.72261074E+00 -1.54452215E+01  7.72261074E+00  7.72261074E+00 -1.54452215E+01
  7.72261074E+00  7.72261074E+00 -1.54452215E+01  7.72261074E+00  7.72261074E+00
 -1.54452215E+01  7.72261074E+00  7.72261074E+00 -1.54452215E+01  7.72261074E+00
  7.72261074E+00 -1.54452215E+01  7.72261074E+00  7.72261074E+00 -1.54452215E+01
  7.72261074E+00  7.72261074E+00 -1.54452215E+01  7.72261074E+00  7.72261074E+00
 -1.54452215E+01  7.72261074E+00  7.72261074E+00 -1.54452215E+01  7.72261074E+00
  7.72261074E+00 -1.54452215E+01  7.72261074E+00  7.72261074E+00 -1.54452215E+01
  7.72261074E+00  7.72261074E+00 -1.54452215E+01  7.72261074E+00  7.72261074E+00
 -1.54452215E+01  7.72261074E+00  7.72261074E+00 -1.54452215E+01  7.72261074E+00
  7.72261074E+00 -1.54452215E+01  7.72261074E+00  7.72261074E+00 -1.54452215E+01
  7.72261074E+00  7.72261074E+00 -1.54452215E+01  7.72261074E+00  7.72261074E+00
 -1.54452215E+01  7.72261074E+00  7.72261074E+00 -1.54452215E+01  7.72261074E+00
  7.72261074E+00 -1.54452215E+01  7.72261074E+00  7.72261074E+00 -1.54452215E+01
  7.72261074E+00  7.72261074E+00 -1.54452215E+01  7.72261074E+00  7.72261074E+00
 -1.54452215E+01  7.72261074E+00  7.72261074E+00 -1.54452215E+01  7.72261074E+00
  7.72261074E+00 -1.54452215E+01  7.72261074E+00  7.72261074E+00 -1.54452215E+01
  7.72261074E+00  7.72261074E+00 -1.54452215E+01  7.72261074E+00  7.72261074E+00
 -1.54452215E+01  7.72261074E+00  7.72261074E+00 -1.54452215E+01  7.72261074E+00
  7.72261074E+00 -1.54452215E+01  7.72261074E+00  7.72261074E+00 -1.54452215E+01
  7.72261074E+00  7.72261074E+00 -1.54452215E+01  7.72261074E+00  7.72261074E+00
 -1.54452215E+01  7.72261074E+00  7.72261074E+00 -1.54452215E+01  7.72261074E+00
  7.72261074E+00 -1.54452215E+01  7.72261074E+00  7.72261074E+00 -1.54452215E+01
  7.72261074E+00  7.72261074E+00 -1.54452215E+01  7.72261074E+00  7.72261074E+00
 -1.54452215E+01  7.72261074E+00  7.72261074E+00 -1.54452215E+01  7.72261074E+00
  7.72261074E+00 -1.54452215E+01  7.72261074E+00  7.72261074E+00 -1.54452215E+01
  7.72261074E+00  7.72261074E+00 -1.54452215E+01  7.72261074E+00  7.72261074E+00
 -1.54452215E+01  7.72261074E+00  7.72261074E+00 -1.54452215E+01  7.72261074E+00
  7.72261074E+00 -1.54452215E+01  7.72261074E+00  7.72261074E+00 -1.54452215E+01
  7.72261074E+00  7.72261074E+00 -1.54452215E+01  7.72261074E+00  7.72261074E+00
 -1.54452215E+01  7.72261074E+00  7.72261074E+00 -1.54452215E+01  7.72261074E+00
  7.72261074E+00 -1.54452215E+01  7.72261074E+00  7.72261074E+00 -1.54452215E+01
  7.72261074E+00  7.72261074E+00 -1.54452215E+01  7.72261074E+00  7.72261074E+00
 -1.54452215E+01  7.72261074E+00  7.72261074E+00 -1.54452215E+01  7.72261074E+00
  7.72261074E+00 -1.54452215E+01  7.72261074E+00  7.72261074E+00 -1.54452215E+01
  7.72261074E+00  7.72261074E+00 -1.54452215E+01  7.72261074E+00  7.72261074E+00
 -1.54452215E+01  7.72261074E+00  7.72261074E+00 -1.54452215E+01  7.72261074E+00
  7.72261074E+00 -1.54452215E+01  7.72261074E+00  7.72261074E+00 -1.54452215E+01
  7.72261074E+00  7.72261074E+00 -1.54452215E+01  7.72261074E+00  7.72261074E+00
 -1.54452215E+01  7.72261074E+00  7.72261074E+00 -1.54452215E+01  7.72261074E+00
  7.72261074E+00 -1.54452215E+01  7.72261074E+00  7.72261074E+00 -1.54452215E+01
  7.72261074E+00  7.72261074E+00 -1.54452215E+01  7.72261074E+00  7.72261074E+00
 -1.54452215E+01  7.72261074E+00  7.72261074E+00 -1.54452215E+01  7.72261074E+00
  7.72261074E+00 -1.54452215E+01  7.72261074E+00  7.72261074E+00 -1.54452215E+01
  7.72261074E+00  7.72261074E+00 -1.54452215E+01  7.72261074E+00  7.72261074E+00
 -1.54452215E+01  7.72261074E+00  7.72261074E+00 -1.54452215E+01  7.72261074E+00
  7.72261074E+00 -1.54452215E+01  7.72261074E+00  7.72261074E+00 -1.54452215E+01
  7.72261074E+00  7.72261074E+00 -1.54452215E+01  7.72261074E+00  7.72261074E+00
 -1.54452215E+01  7.72261074E+00  7.72261074E+00 -1.54452215E+01  7.72261074E+00
  7.72261074E+00 -1.54452215E+01  7.72261074E+00  7.72261074E+00 -1.54452215E+01
  7.72261074E+00  7.72261074E+00 -1.54452215E+01  7.72261074E+00  7.72261074E+00
 -1.54452215E+01  7.72261074E+00  7.72261074E+00 -1.54452215E+01  7.72261074E+00
  7.72261074E+00 -1.54452215E+01  7.72261074E+00  7.72261074E+00 -1.54452215E+01
  7.72261074E+00  7.72261074E+00 -1.54452215E+01  7.72261074E+00  7.72261074E+00
 -1.54452215E+01  7.72261074E+00  7.72261074E+00 -1.54452215E+01  7.72261074E+00
  7.72261074E+00 -1.54452215E+01  7.72261074E+00  7.72261074E+00 -1.54452215E+01
  7.72261074E+00  7.72261074E+00 -1.54452215E+01  7.72261074E+00  7.72261074E+00
 -1.54452215E+01  7.72261074E+00  7.72261074E+00 -1.54452215E+01  7.72261074E+00
  7.72261074E+00 -1.54452215E+01  7.72261074E+00  7.72261074E+00 -1.54452215E+01
  7.72261074E+00  7.72261074E+00 -1.54452215E+01  7.72261074E+00  7.72261074E+00
 -1.54452215E+01  7.72261074E+00  7.72261074E+00 -1.54452215E+01  7.72261074E+00
  7.72261074E+00 -1.54452215E+01  7.72261074E+00  7.72261074E+00 -1.54452215E+01
  7.72261074E+00  7.72261074E+00 -1.54452215E+01  7.72261074E+00  7.72261074E+00
 -1.54452215E+01  7.72261074E+00  7.72261074E+00 -1.54452215E+01  7.72261074E+00
  7.72261074E+00 -1.54452215E+01  7.72261074E+00  7.72261074E+00 -1.54452215E+01
  7.72261074E+00  7.72261074E+00 -1.54452215E+01  7.72261074E+00  7.72261074E+00
 -1.54452215E+01  7.72261074E+00  7.72261074E+00 -1.54452215E+01  7.72261074E+00
  7.72261074E+00 -1.54452215E+01  7.72261074E+00  7.72261074E+00 -1.54452215E+01
  7.72261074E+00  7.72261074E+00 -1.54452215E+01  7.72261074E+00  7.72261074E+00
 -1.54452215E+01  7.72261074E+00  7.72261074E+00 -1.54452215E+01  7.72261074E+00
  7.72261074E+00 -1.54452215E+01  7.72261074E+00  7.72261074E+00 -1.54452215E+01
  7.72261074E+00  7.72261074E+00 -1.54452215E+01  7.72261074E+00  7.72261074E+00
 -1.54452215E+01  7.72261074E+00  7.72261074E+00 -1.54452215E+01  7.72261074E+00
  7.72261074E+00 -1.54452215E+01  7.72261074E+00  7.72261074E+00 -1.54452215E+01
  7.72261074E+00  7.72261074E+00 -1.54452215E+01  7.72261074E+00  7.72261074E+00
 -1.54452215E+01  7.72261074E+00  7.72261074E+00 -1.54452215E+01  7.72261074E+00
  7.72261074E+00 -1.54452215E+01  7.72261074E+00  7.72261074E+00 -1.54452215E+01
  7.72261074E+00  7.72261074E+00 -1.54452215E+01  7.72261074E+00  7.72261074E+00
 -1.54452215E+01  7.72261074E+00  7.72261074E+00 -1.54452215E+01  7.72261074E+00
  7.72261074E+00 -1.54452215E+01  7.72261074E+00  7.72261074E+00 -1.54452215E+01
  7.72261074E+00  7.72261074E+00 -1.54452215E+01  7.72261074E+00  7.72261074E+00
 -1.54452215E+01  7.72261074E+00  7.72261074E+00 -1.54452215E+01  7.72261074E+00
  7.72261074E+00 -1.54452215E+01  7.72261074E+00  7.72261074E+00 -1.54452215E+01
  7.72261074E+00  7.72261074E+00 -1.54452215E+01  7.72261074E+00  7.72261074E+00
 -1.54452215E+01  7.72261074E+00  7.72261074E+00 -1.54452215E+01  7.72261074E+00
  7.72261074E+00 -1.54452215E+01  7.72261074E+00  7.72261074E+00 -1.54452215E+01
  7.72261074E+00  7.72261074E+00 -1.54452215E+01  7.72261074E+00  7.72261074E+00
 -1.54452215E+01  7.72261074E+00  7.72261074E+00 -1.54452215E+01  7.72261074E+00
  7.72261074E+00 -1.54452215E+01  7.72261074E+00  7.72261074E+00 -1.54452215E+01
  7.72261074E+00  7.72261074E+00 -1.54452215E+01  7.72261074E+00  7.72261074E+00
 -1.54452215E+01  7.72261074E+00  7.72261074E+00 -1.54452215E+01  7.72261074E+00
  7.72261074E+00 -1.54452215E+01  7.72261074E+00  7.72261074E+00 -1.54452215E+01
  7.72261074E+00  7.72261074E+00 -1.54452215E+01  7.72261074E+00  7.72261074E+00
 -1.54452215E+01  7.72261074E+00  7.72261074E+00 -1.54452215E+01  7.72261074E+00
  7.72261074E+00 -1.54452215E+01  7.72261074E+00  7.72261074E+00 -1.54452215E+01
  7.72261074E+00  7.72261074E+00 -1.54452215E+01  7.72261074E+00  7.72261074E+00
 -1.54452215E+01  7.72261074E+00  7.72261074E+00 -1.54452215E+01  7.72261074E+00
  7.72261074E+00 -1.54452215E+01  7.72261074E+00  7.72261074E+00 -1.54452215E+01
  7.72261074E+00  7.72261074E+00 -1.54452215E+01  7.72261074E+00  7.72261074E+00
 -1.54452215E+01  7.72261074E+00  7.72261074E+00 -1.54452215E+01  7.72261074E+00
  7.72261074E+00 -1.54452215E+01  7.72261074E+00  7.72261074E+00 -1.54452215E+01
  7.72261074E+00  7.72261074E+00 -1.54452215E+01  7.72261074E+00  7.72261074E+00
 -1.54452215E+01  7.72261074E+00  7.72261074E+00 -1.54452215E+01  7.72261074E+00
  7.72261074E+00 -1.54452215E+01  7.72261074E+00  7.72261074E+00 -1.54452215E+01
  7.72261074E+00  7.72261074E+00 -1.54452215E+01  7.72261074E+00  7.72261074E+00
 -1.54452215E+01  7.72261074E+00  7.72261074E+00 -1.54452215E+01  7.72261074E+00
  7.72261074E+00 -1.54452215E+01  7.72261074E+00  7.72261074E+00 -1.54452215E+01
  7.72261074E+00  7.72261074E+00 -1.54452215E+01  7.72261074E+00  7.72261074E+00
 -1.54452215E+01  7.72261074E+00  7.72261074E+00 -1.54452215E+01  7.72261074E+00
  7.72261074E+00 -1.54452215E+01  7.72261074E+00  7.72261074E+00 -1.54452215E+01
  7.72261074E+00  7.72261074E+00 -1.54452215E+01  7.72261074E+00  7.72261074E+00
 -1.54452215E+01  7.72261074E+00  7.72261074E+00 -1.54452215E+01  7.72261074E+00
  7.72261074E+00 -1.54452215E+01  7.72261074E+00  7.72261074E+00 -1.54452215E+01
  7.72261074E+00  7.72261074E+00 -1.54452215E+01  7.72261074E+00  7.72261074E+00
 -1.54452215E+01  7.72261074E+00  7.72261074E+00 -1.54452215E+01  7.72261074E+00
  7.72261074E+00 -1.54452215E+01  7.72261074E+00  7.72261074E+00 -1.54452215E+01
  7.72261074E+00  7.72261074E+00 -1.54452215E+01  7.72261074E+00  7.72261074E+00
 -1.54452215E+01  7.72261074E+00  7.72261074E+00 -1.54452215E+01  7.72261074E+00
  7.72261074E+00 -1.54452215E+01  7.72261074E+00  7.72261074E+00 -1.54452215E+01
  7.72261074E+00  7.72261074E+00 -1.54452215E+01  7.72261074E+00  7.72261074E+00
 -1.54452215E+01  7.72261074E+00  7.72261074E+00 -1.54452215E+01  7.72261074E+00
  7.72261074E+00 -1.54452215E+01  7.72261074E+00  7.72261074E+00 -1.54452215E+01
  7.72261074E+00  7.72261074E+00 -1.54452215E+01  7.72261074E+00  7.72261074E+00
 -1.54452215E+01  7.72261074E+00  7.72261074E+00 -1.54452215E+01  7.72261074E+00
  7.72261074E+00 -1.54452215E+01  7.72261074E+00  7.72261074E+00 -1.54452215E+01
  7.72261074E+00  7.72261074E+00 -1.54452215E+01  7.72261074E+00  7.72261074E+00
 -1.54452215E+01  7.72261074E+00  7.72261074E+00 -1.54452215E+01  7.72261074E+00
  7.72261074E+00 -1.54452215E+01  7.72261074E+00  7.72261074E+00 -1.54452215E+01
  7.72261074E+00  7.72261074E+00 -1.54452215E+01  7.72261074E+00  7.72261074E+00
 -1.54452215E+01  7.72261074E+00  7.72261074E+00 -1.54452215E+01  7.72261074E+00
  7.72261074E+00 -1.54452215E+01  7.72261074E+00  7.72261074E+00 -1.54452215E+01
  7.72261074E+00  7.72261074E+00 -1.54452215E+01  7.72261074E+00  7.72261074E+00
 -1.54452215E+01  7.72261074E+00  7.72261074E+00 -1.54452215E+01  7.72261074E+00
  7.72261074E+00 -1.54452215E+01  7.72261074E+00  7.72261074E+00 -1.54452215E+01
  7.72261074E+00  7.72261074E+00 -1.54452215E+01  7.72261074E+00  7.72261074E+00
 -1.54452215E+01  7.72261074E+00  7.72261074E+00 -1.54452215E+01  7.72261074E+00
  7.72261074E+00 -1.54452215E+01  7.72261074E+00  7.72261074E+00 -1.54452215E+01
  7.72261074E+00  7.72261074E+00 -1.54452215E+01  7.72261074E+00  7.72261074E+00
 -1.54452215E+01  7.72261074E+00  7.72261074E+00 -1.54452215E+01  7.72261074E+00
  7.72261074E+00 -1.54452215E+01  7.72261074E+00  7.72261074E+00 -1.54452215E+01
  7.72261074E+00  7.72261074E+00 -1.54452215E+01  7.72261074E+00  7.72261074E+00
 -1.54452215E+01  7.72261074E+00  7.72261074E+00 -1.54452215E+01  7.72261074E+00
  7.72261074E+00 -1.54452215E+01  7.72261074E+00  7.72261074E+00 -1.54452215E+01
  7.72261074E+00  7.72261074E+00 -1.54452215E+01  7.72261074E+00  7.72261074E+00
 -1.54452215E+01  7.72261074E+00  7.72261074E+00 -1.54452215E+01  7.72261074E+00
  7.72261074E+00 -1.54452215E+01  7.72261074E+00  7.72261074E+00 -1.54452215E+01
  7.72261074E+00  7.72261074E+00 -1.54452215E+01  7.72261074E+00  7.72261074E+00
 -1.54452215E+01  7.72261074E+00  7.72261074E+00 -1.54452215E+01  7.72261074E+00
  7.72261074E+00 -1.54452215E+01  7.72261074E+00  7.72261074E+00 -1.54452215E+01
  7.72261074E+00  7.72261074E+00 -1.54452215E+01  7.72261074E+00  7.72261074E+00
 -1.54452215E+01  7.72261074E+00  7.72261074E+00 -1.54452215E+01  7.72261074E+00
  7.72261074E+00 -1.54452215E+01  7.72261074E+00  7.72261074E+00 -1.54452215E+01
  7.72261074E+00  7.72261074E+00 -1.54452215E+01  7.72261074E+00  7.72261074E+00
 -1.54452215E+01  7.72261074E+00  7.72261074E+00 -1.54452215E+01  7.72261074E+00
  7.72261074E+00 -1.54452215E+01  7.72261074E+00  7.72261074E+00 -1.54452215E+01
  7.72261074E+00  7.72261074E+00 -1.54452215E+01  7.72261074E+00  7.72261074E+00
 -1.54452215E+01  7.72261074E+00  7.72261074E+00 -1.54452215E+01  7.72261074E+00
  7.72261074E+00 -1.54452215E+01  7.72261074E+00  7.72261074E+00 -1.54452215E+01
  7.72261074E+00  7.72261074E+00 -1.54452215E+01  7.72261074E+00  7.72261074E+00
 -1.54452215E+01  7.72261074E+00  7.72261074E+00 -1.54452215E+01  7.72261074E+00
  7.72261074E+00 -1.54452215E+01  7.72261074E+00  7.72261074E+00 -1.54452215E+01
  7.72261074E+00  7.72261074E+00 -1.54452215E+01  7.72261074E+00  7.72261074E+00
 -1.54452215E+01  7.72261074E+00  7.72261074E+00 -1.54452215E+01  7.72261074E+00
  7.72261074E+00 -1.54452215E+01  7.72261074E+00  7.72261074E+00 -1.54452215E+01
  7.72261074E+00  7.72261074E+00 -1.54452215E+01  7.72261074E+00  7.72261074E+00
 -1.54452215E+01  7.72261074E+00  7.72261074E+00 -1.54452215E+01  7.72261074E+00
  7.72261074E+00 -1.54452215E+01  7.72261074E+00  7.72261074E+00 -1.54452215E+01
  7.72261074E+00  7.72261074E+00 -1.54452215E+01  7.72261074E+00  7.72261074E+00
 -1.54452215E+01  7.72261074E+00  7.72261074E+00 -1.54452215E+01  7.72261074E+00
  7.72261074E+00 -1.54452215E+01  7.72261074E+00  7.72261074E+00 -1.54452215E+01
  7.72261074E+00  7.72261074E+00 -1.54452215E+01  7.72261074E+00  7.72261074E+00
 -1.54452215E+01  7.72261074E+00  7.72261074E+00 -1.54452215E+01  7.72261074E+00
  7.72261074E+00 -1.54452215E+01  7.72261074E+00  7.72261074E+00 -1.54452215E+01
  7.72261074E+00  7.72261074E+00 -1.54452215E+01  7.72261074E+00  7.72261074E+00
 -1.54452215E+01  7.72261074E+00  7.72261074E+00 -1.54452215E+01  7.72261074E+00
  7.72261074E+00 -1.54452215E+01  7.72261074E+00  7.72261074E+00 -1.54452215E+01
  7.72261074E+00  7.72261074E+00 -1.54452215E+01  7.72261074E+00  7.72261074E+00
 -1.54452215E+01  7.72261074E+00  7.72261074E+00 -1.54452215E+01  7.72261074E+00
  7.72261074E+00 -1.54452215E+01  7.72261074E+00  7.72261074E+00 -1.54452215E+01
  7.72261074E+00  7.72261074E+00 -1.54452215E+01  7.72261074E+00  7.72261074E+00
 -1.54452215E+01  7.72261074E+00  7.72261074E+00 -1.54452215E+01  7.72261074E+00
  7.72261074E+00 -1.54452215E+01  7.72261074E+00  7.72261074E+00 -1.54452215E+01
  7.72261074E+00  7.72261074E+00 -1.54452215E+01  7.72261074E+00  7.72261074E+00
 -1.54452215E+01  7.72261074E+00  7.72261074E+00 -1.54452215E+01  7.72261074E+00
  7.72261074E+00 -1.54452215E+01  7.72261074E+00  7.72261074E+00 -1.54452215E+01
  7.72261074E+00  7.72261074E+00 -1.54452215E+01  7.72261074E+00  7.72261074E+00
 -1.54452215E+01  7.72261074E+00  7.72261074E+00 -1.54452215E+01  7.72261074E+00
  7.72261074E+00 -1.54452215E+01  7.72261074E+00  7.72261074E+00 -1.54452215E+01
  7.72261074E+00  7.72261074E+00 -1.54452215E+01  7.72261074E+00  7.72261074E+00
 -1.54452215E+01  7.72261074E+00  7.72261074E+00 -1.54452215E+01  7.72261074E+00
  7.72261074E+00 -1.54452215E+01  7.72261074E+00  7.72261074E+00 -1.54452215E+01
  7.72261074E+00  7.72261074E+00 -1.54452215E+01  7.72261074E+00  7.72261074E+00
 -1.54452215E+01  7.72261074E+00  7.72261074E+00 -1.54452215E+01  7.72261074E+00
  7.72261074E+00 -1.54452215E+01  7.72261074E+00  7.72261074E+00 -1.54452215E+01
  7.72261074E+00  7.72261074E+00 -1.54452215E+01  7.72261074E+00  7.72261074E+00
 -1.54452215E+01  7.72261074E+00  7.72261074E+00 -1.54452215E+01  7.72261074E+00
  7.72261074E+00 -1.54452215E+01  7.72261074E+00  7.72261074E+00 -1.54452215E+01
  7.72261074E+00  7.72261074E+00 -1.54452215E+01  7.72261074E+00  7.72261074E+00
 -1.54452215E+01  7.72261074E+00  7.72261074E+00 -1.54452215E+01  7.72261074E+00
  7.72261074E+00 -1.54452215E+01  7.72261074E+00  7.72261074E+00 -1.54452215E+01
  7.72261074E+00  7.72261074E+00 -1.54452215E+01  7.72261074E+00  7.72261074E+00
 -1.54452215E+01  7.72261074E+00  7.72261074E+00 -1.54452215E+01  7.72261074E+00
  7.72261074E+00 -1.54452215E+01  7.72261074E+00  7.72261074E+00 -1.54452215E+01
  7.72261074E+00  7.72261074E+00 -1.54452215E+01  7.72261074E+00  7.72261074E+00
 -1.54452215E+01  7.72261074E+00  7.72261074E+00 -1.54452215E+01  7.72261074E+00
  7.72261074E+00 -1.54452215E+01  7.72261074E+00  7.72261074E+00 -1.54452215E+01
  7.72261074E+00  7.72261074E+00 -1.54452215E+01  7.72261074E+00  7.72261074E+00
 -1.54452215E+01  7.72261074E+00  7.72261074E+00 -1.54452215E+01  7.72261074E+00
  7.72261074E+00 -1.54452215E+01  7.72261074E+00  7.72261074E+00 -1.54452215E+01
  7.72261074E+00  7.72261074E+00 -1.54452215E+01  7.72261074E+00  7.72261074E+00
 -1.54452215E+01  7.72261074E+00  7.72261074E+00 -1.54452215E+01  7.72261074E+00
  7.72261074E+00 -1.54452215E+01  7.72261074E+00  7.72261074E+00 -1.54452215E+01
  7.72261074E+00  7.72261074E+00 -1.54452215E+01  7.72261074E+00  7.72261074E+00
 -1.54452215E+01  7.72261074E+00  7.72261074E+00 -1.54452215E+01  7.72261074E+00
  7.72261074E+00 -1.54452215E+01  7.72261074E+00  7.72261074E+00 -1.54452215E+01
  7.72261074E+00  7.72261074E+00 -1.54452215E+01  7.72261074E+00  7.72261074E+00
 -1.54452215E+01  7.72261074E+00  7.72261074E+00 -1.54452215E+01  7.72261074E+00
  7.72261074E+00 -1.54452215E+01  7.72261074E+00  7.72261074E+00 -1.54452215E+01
  7.72261074E+00  7.72261074E+00 -1.54452215E+01  7.72261074E+00  7.72261074E+00
 -1.54452215E+01  7.72261074E+00  7.72261074E+00 -1.54452215E+01  7.72261074E+00
  7.72261074E+00 -1.54452215E+01  7.72261074E+00  7.72261074E+00 -1.54452215E+01
  7.72261074E+00  7.72261074E+00 -1.54452215E+01  7.72261074E+00  7.72261074E+00
 -1.54452215E+01  7.72261074E+00  7.72261074E+00 -1.54452215E+01  7.72261074E+00
  7.72261074E+00 -1.54452215E+01  7.72261074E+00  7.72261074E+00 -1.54452215E+01
  7.72261074E+00  7.72261074E+00 -1.54452215E+01  7.72261074E+00  7.72261074E+00
 -1.54452215E+01  7.72261074E+00  7.72261074E+00 -1.54452215E+01  7.72261074E+00
  7.72261074E+00 -1.54452215E+01  7.72261074E+00  7.72261074E+00 -1.54452215E+01
  7.72261074E+00  7.72261074E+00 -1.54452215E+01  7.72261074E+00  7.72261074E+00
 -1.54452215E+01  7.72261074E+00  7.72261074E+00 -1.54452215E+01  7.72261074E+00
  7.72261074E+00 -1.54452215E+01  7.72261074E+00  7.72261074E+00 -1.54452215E+01
  7.72261074E+00  7.72261074E+00 -1.54452215E+01  7.72261074E+00  7.72261074E+00
 -1.54452215E+01  7.72261074E+00  7.72261074E+00 -1.54452215E+01  7.72261074E+00
  7.72261074E+00 -1.54452215E+01  7.72261074E+00  7.72261074E+00 -1.54452215E+01
  7.72261074E+00  7.72261074E+00 -1.54452215E+01  7.72261074E+00  7.72261074E+00
 -1.54452215E+01  7.72261074E+00  7.72261074E+00 -1.54452215E+01  7.72261074E+00
  7.72261074E+00 -1.54452215E+01  7.72261074E+00  7.72261074E+00 -1.54452215E+01
  7.72261074E+00  7.72261074E+00 -1.54452215E+01  7.72261074E+00  7.72261074E+00
 -1.54452215E+01  7.72261074E+00  7.72261074E+00 -1.54452215E+01  7.72261074E+00
  7.72261074E+00 -1.54452215E+01  7.72261074E+00  7.72261074E+00 -1.54452215E+01
  7.72261074E+00  7.72261074E+00 -1.54452215E+01  7.72261074E+00  7.72261074E+00
 -1.54452215E+01  7.72261074E+00  7.72261074E+00 -1.54452215E+01  7.72261074E+00
  7.72261074E+00 -1.54452215E+01  7.72261074E+00  7.72261074E+00 -1.54452215E+01
  7.72261074E+00  7.72261074E+00 -1.54452215E+01  7.72261074E+00  7.72261074E+00
 -1.54452215E+01  7.72261074E+00  7.72261074E+00 -1.54452215E+01  7.72261074E+00
  7.72261074E+00 -1.54452215E+01  7.72261074E+00  7.72261074E+00 -1.54452215E+01
  7.72261074E+00  7.72261074E+00 -1.54452215E+01  7.72261074E+00  7.72261074E+00
 -1.54452215E+01  7.72261074E+00  7.72261074E+00 -1.54452215E+01  7.72261074E+00
  7.72261074E+00 -1.54452215E+01  7.72261074E+00  7.72261074E+00 -1.54452215E+01
  7.72261074E+00  7.72261074E+00 -1.54452215E+01  7.72261074E+00  7.72261074E+00
 -1.54452215E+01  7.72261074E+00  7.72261074E+00 -1.54452215E+01  7.72261074E+00
  7.72261074E+00 -1.54452215E+01  7.72261074E+00  7.72261074E+00 -1.54452215E+01
  7.72261074E+00  7.72261074E+00 -1.54452215E+01  7.72261074E+00  7.72261074E+00
 -1.54452215E+01  7.72261074E+00  7.72261074E+00 -1.54452215E+01  7.72261074E+00
  7.72261074E+00 -1.54452215E+01  7.72261074E+00  7.72261074E+00 -1.54452215E+01
  7.72261074E+00  7.72261074E+00 -1.54452215E+01  7.72261074E+00  7.72261074E+00
 -1.54452215E+01  7.72261074E+00  7.72261074E+00 -1.54452215E+01  7.72261074E+00
  7.72261074E+00 -1.54452215E+01  7.72261074E+00  7.72261074E+00 -1.54452215E+01
  7.72261074E+00  7.72261074E+00 -1.54452215E+01  7.72261074E+00  7.72261074E+00
 -1.54452215E+01  7.72261074E+00  7.72261074E+00 -1.54452215E+01  7.72261074E+00
  7.72261074E+00 -1.54452215E+01  7.72261074E+00  7.72261074E+00 -1.54452215E+01
  7.72261074E+00  7.72261074E+00 -1.54452215E+01  7.72261074E+00  7.72261074E+00
 -1.54452215E+01  7.72261074E+00  7.72261074E+00 -1.54452215E+01  7.72261074E+00
  7.72261074E+00 -1.54452215E+01  7.72261074E+00  7.72261074E+00 -1.54452215E+01
  7.72261074E+00  7.72261074E+00 -1.54452215E+01  7.72261074E+00  7.72261074E+00
 -1.54452215E+01  7.72261074E+00  7.72261074E+00 -1.54452215E+01  7.72261074E+00
  7.72261074E+00 -1.54452215E+01  7.72261074E+00  7.72261074E+00 -1.54452215E+01
  7.72261074E+00  7.72261074E+00 -1.54452215E+01  7.72261074E+00  7.72261074E+00
 -1.54452215E+01  7.72261074E+00  7.72261074E+00 -1.54452215E+01  7.72261074E+00
  7.72261074E+00 -1.54452215E+01  7.72261074E+00  7.72261074E+00 -1.54452215E+01
  7.72261074E+00  7.72261074E+00 -1.54452215E+01  7.72261074E+00  7.72261074E+00
 -1.54452215E+01  7.72261074E+00  7.72261074E+00 -1.54452215E+01  7.72261074E+00
  7.72261074E+00 -1.54452215E+01  7.72261074E+00  7.72261074E+00 -1.54452215E+01
  7.72261074E+00  7.72261074E+00 -1.54452215E+01  7.72261074E+00  7.72261074E+00
 -1.54452215E+01  7.72261074E+00  7.72261074E+00 -1.54452215E+01  7.72261074E+00
  7.72261074E+00 -1.54452215E+01  7.72261074E+00  7.72261074E+00 -1.54452215E+01
  7.72261074E+00  7.72261074E+00 -1.54452215E+01  7.72261074E+00  7.72261074E+00
 -1.54452215E+01  7.72261074E+00  7.72261074E+00 -1.54452215E+01  7.72261074E+00
  7.72261074E+00 -1.54452215E+01  7.72261074E+00  7.72261074E+00 -1.54452215E+01
  7.72261074E+00  7.72261074E+00 -1.54452215E+01  7.72261074E+00  7.72261074E+00
 -1.54452215E+01  7.72261074E+00  7.72261074E+00 -1.54452215E+01  7.72261074E+00
  7.72261074E+00 -1.54452215E+01  7.72261074E+00  7.72261074E+00 -1.54452215E+01
  7.72261074E+00  7.72261074E+00 -1.54452215E+01  7.72261074E+00  7.72261074E+00
 -1.54452215E+01  7.72261074E+00  7.72261074E+00 -1.54452215E+01  7.72261074E+00
  7.72261074E+00 -1.54452215E+01  7.72261074E+00  7.72261074E+00 -1.54452215E+01
  7.72261074E+00  7.72261074E+00 -1.54452215E+01  7.72261074E+00  7.72261074E+00
 -1.54452215E+01  7.72261074E+00  7.72261074E+00 -1.54452215E+01  7.72261074E+00
  7.72261074E+00 -1.54452215E+01  7.72261074E+00  7.72261074E+00 -1.54452215E+01
  7.72261074E+00  7.72261074E+00 -1.54452215E+01  7.72261074E+00  7.72261074E+00
 -1.54452215E+01  7.72261074E+00  7.72261074E+00 -1.54452215E+01  7.72261074E+00
  7.72261074E+00 -1.54452215E+01  7.72261074E+00  7.72261074E+00 -1.54452215E+01
  7.72261074E+00  7.72261074E+00 -1.54452215E+01  7.72261074E+00  7.72261074E+00
 -1.54452215E+01  7.72261074E+00  7.72261074E+00 -1.54452215E+01  7.72261074E+00
  7.72261074E+00 -1.54452215E+01  7.72261074E+00  7.72261074E+00 -1.54452215E+01
  7.72261074E+00  7.72261074E+00 -1.54452215E+01  7.72261074E+00  7.72261074E+00
 -1.54452215E+01  7.72261074E+00  7.72261074E+00 -1.54452215E+01  7.72261074E+00
  7.72261074E+00 -1.54452215E+01  7.72261074E+00  7.72261074E+00 -1.54452215E+01
  7.72261074E+00  7.72261074E+00 -1.54452215E+01  7.72261074E+00  7.72261074E+00
 -1.54452215E+01  7.72261074E+00  7.72261074E+00 -1.54452215E+01  7.72261074E+00
  7.72261074E+00 -1.54452215E+01  7.72261074E+00  7.72261074E+00 -1.54452215E+01
  7.72261074E+00  7.72261074E+00 -1.54452215E+01  7.72261074E+00  7.72261074E+00
 -1.54452215E+01  7.72261074E+00  7.72261074E+00 -1.54452215E+01  7.72261074E+00
  7.72261074E+00 -1.54452215E+01  7.72261074E+00  7.72261074E+00 -1.54452215E+01
  7.72261074E+00  7.72261074E+00 -1.54452215E+01  7.72261074E+00  7.72261074E+00
 -1.54452215E+01  7.72261074E+00  7.72261074E+00 -1.54452215E+01  7.72261074E+00
  7.72261074E+00 -1.54452215E+01  7.72261074E+00  7.72261074E+00 -1.54452215E+01
  7.72261074E+00  7.72261074E+00 -1.54452215E+01  7.72261074E+00  7.72261074E+00
 -1.54452215E+01  7.72261074E+00  7.72261074E+00 -1.54452215E+01  7.72261074E+00
  7.72261074E+00 -1.54452215E+01  7.72261074E+00  7.72261074E+00 -1.54452215E+01
  7.72261074E+00  7.72261074E+00 -1.54452215E+01  7.72261074E+00  7.72261074E+00
 -1.54452215E+01  7.72261074E+00  7.72261074E+00 -1.54452215E+01  7.72261074E+00
  7.72261074E+00 -1.54452215E+01  7.72261074E+00  7.72261074E+00 -1.54452215E+01
  7.72261074E+00  7.72261074E+00 -1.54452215E+01  7.72261074E+00  7.72261074E+00
 -1.54452215E+01  7.72261074E+00  7.72261074E+00 -1.54452215E+01  7.72261074E+00
  7.72261074E+00 -1.54452215E+01  7.72261074E+00  7.72261074E+00 -1.54452215E+01
  7.72261074E+00  7.72261074E+00 -1.54452215E+01  7.72261074E+00  7.72261074E+00
 -1.54452215E+01  7.72261074E+00  7.72261074E+00 -1.54452215E+01  7.72261074E+00
  7.72261074E+00 -1.54452215E+01  7.72261074E+00  7.72261074E+00 -1.54452215E+01
  7.72261074E+00  7.72261074E+00 -1.54452215E+01  7.72261074E+00  7.72261074E+00
 -1.54452215E+01  7.72261074E+00  7.72261074E+00 -1.54452215E+01  7.72261074E+00
  7.72261074E+00 -1.54452215E+01  7.72261074E+00  7.72261074E+00 -1.54452215E+01
  7.72261074E+00  7.72261074E+00 -1.54452215E+01  7.72261074E+00  7.72261074E+00
 -1.54452215E+01  7.72261074E+00  7.72261074E+00 -1.54452215E+01  7.72261074E+00
  7.72261074E+00 -1.54452215E+01  7.72261074E+00  7.72261074E+00 -1.54452215E+01
  7.72261074E+00  7.72261074E+00 -1.54452215E+01  7.72261074E+00  7.72261074E+00
 -1.54452215E+01  7.72261074E+00  7.72261074E+00 -1.54452215E+01  7.72261074E+00
  7.72261074E+00 -1.54452215E+01  7.72261074E+00  7.72261074E+00 -1.54452215E+01
  7.72261074E+00  7.72261074E+00 -1.54452215E+01  7.72261074E+00  7.72261074E+00
 -1.54452215E+01  7.72261074E+00  7.72261074E+00 -1.54452215E+01  7.72261074E+00
  7.72261074E+00 -1.54452215E+01  7.72261074E+00  7.72261074E+00 -1.54452215E+01
  7.72261074E+00  7.72261074E+00 -1.54452215E+01  7.72261074E+00  7.72261074E+00
 -1.54452215E+01  7.72261074E+00  7.72261074E+00 -1.54452215E+01  7.72261074E+00
  7.72261074E+00 -1.54452215E+01  7.72261074E+00  7.72261074E+00 -1.54452215E+01
  7.72261074E+00  7.72261074E+00 -1.54452215E+01  7.72261074E+00  7.72261074E+00
 -1.54452215E+01  7.72261074E+00  7.72261074E+00 -1.54452215E+01  7.72261074E+00
  7.72261074E+00 -1.54452215E+01  7.72261074E+00  7.72261074E+00 -1.54452215E+01
  7.72261074E+00  7.72261074E+00 -1.54452215E+01  7.72261074E+00  7.72261074E+00
 -1.54452215E+01  7.72261074E+00  7.72261074E+00 -1.54452215E+01  7.72261074E+00
  7.72261074E+00 -1.54452215E+01  7.72261074E+00  7.72261074E+00 -1.54452215E+01
  7.72261074E+00  7.72261074E+00 -1.54452215E+01  7.72261074E+00  7.72261074E+00
 -1.54452215E+01  7.72261074E+00  7.72261074E+00 -1.54452215E+01  7.72261074E+00
  7.72261074E+00 -1.54452215E+01  7.72261074E+00  7.72261074E+00 -1.54452215E+01
  7.72261074E+00  7.72261074E+00 -1.54452215E+01  7.72261074E+00  7.72261074E+00
 -1.54452215E+01  7.72261074E+00  7.72261074E+00 -1.54452215E+01  7.72261074E+00
  7.72261074E+00 -1.54452215E+01  7.72261074E+00  7.72261074E+00 -1.54452215E+01
  7.72261074E+00  7.72261074E+00 -1.54452215E+01  7.72261074E+00  7.72261074E+00
 -1.54452215E+01  7.72261074E+00  7.72261074E+00 -1.54452215E+01  7.72261074E+00
  7.72261074E+00 -1.54452215E+01  7.72261074E+00  7.72261074E+00 -1.54452215E+01
  7.72261074E+00  7.72261074E+00 -1.54452215E+01  7.72261074E+00  7.72261074E+00
 -1.54452215E+01  7.72261074E+00  7.72261074E+00 -1.54452215E+01  7.72261074E+00
  7.72261074E+00 -1.54452215E+01  7.72261074E+00  7.72261074E+00 -1.54452215E+01
  7.72261074E+00  7.72261074E+00 -1.54452215E+01  7.72261074E+00  7.72261074E+00
 -1.54452215E+01  7.72261074E+00  7.72261074E+00 -1.54452215E+01  7.72261074E+00
  7.72261074E+00 -1.54452215E+01  7.72261074E+00  7.72261074E+00 -1.54452215E+01
  7.72261074E+00  7.72261074E+00 -1.54452215E+01  7.72261074E+00  7.72261074E+00
 -1.54452215E+01  7.72261074E+00  7.72261074E+00 -1.54452215E+01  7.72261074E+00
  7.72261074E+00 -1.54452215E+01  7.72261074E+00  7.72261074E+00 -1.54452215E+01
  7.72261074E+00  7.72261074E+00 -1.54452215E+01  7.72261074E+00  7.72261074E+00
 -1.54452215E+01  7.72261074E+00  7.72261074E+00 -1.54452215E+01  7.72261074E+00
  7.72261074E+00 -1.54452215E+01  7.72261074E+00  7.72261074E+00 -1.54452215E+01
  7.72261074E+00  7.72261074E+00 -1.54452215E+01  7.72261074E+00  7.72261074E+00
 -1.54452215E+01  7.72261074E+00  7.72261074E+00 -1.54452215E+01  7.72261074E+00
  7.72261074E+00 -1.54452215E+01  7.72261074E+00  7.72261074E+00 -1.54452215E+01
  7.72261074E+00  7.72261074E+00 -1.54452215E+01  7.72261074E+00  7.72261074E+00
 -1.54452215E+01  7.72261074E+00  7.72261074E+00 -1.54452215E+01  7.72261074E+00
  7.72261074E+00 -1.54452215E+01  7.72261074E+00  7.72261074E+00 -1.54452215E+01
  7.72261074E+00  7.72261074E+00 -1.54452215E+01  7.72261074E+00  7.72261074E+00
 -1.54452215E+01  7.72261074E+00  7.72261074E+00 -1.54452215E+01  7.72261074E+00
  7.72261074E+00 -1.54452215E+01  7.72261074E+00  7.72261074E+00 -1.54452215E+01
  7.72261074E+00  7.72261074E+00 -1.54452215E+01  7.72261074E+00  7.72261074E+00
 -1.54452215E+01  7.72261074E+00  7.72261074E+00 -1.54452215E+01  7.72261074E+00
  7.72261074E+00 -1.54452215E+01  7.72261074E+00  7.72261074E+00 -1.54452215E+01
  7.72261074E+00  7.72261074E+00 -1.54452215E+01  7.72261074E+00  7.72261074E+00
 -1.54452215E+01  7.72261074E+00  7.72261074E+00 -1.54452215E+01  7.72261074E+00
  7.72261074E+00 -1.54452215E+01  7.72261074E+00  7.72261074E+00 -1.54452215E+01
  7.72261074E+00  7.72261074E+00 -1.54452215E+01  7.72261074E+00  7.72261074E+00
 -1.54452215E+01  7.72261074E+00  7.72261074E+00 -1.54452215E+01  7.72261074E+00
  7.72261074E+00 -1.54452215E+01  7.72261074E+00  7.72261074E+00 -1.54452215E+01
  7.72261074E+00  7.72261074E+00 -1.54452215E+01  7.72261074E+00  7.72261074E+00
 -1.54452215E+01  7.72261074E+00  7.72261074E+00 -1.54452215E+01  7.72261074E+00
  7.72261074E+00 -1.54452215E+01  7.72261074E+00  7.72261074E+00 -1.54452215E+01
  7.72261074E+00  7.72261074E+00 -1.54452215E+01  7.72261074E+00  7.72261074E+00
 -1.54452215E+01  7.72261074E+00  7.72261074E+00 -1.54452215E+01  7.72261074E+00
  7.72261074E+00 -1.54452215E+01  7.72261074E+00  7.72261074E+00 -1.54452215E+01
  7.72261074E+00  7.72261074E+00 -1.54452215E+01  7.72261074E+00  7.72261074E+00
 -1.54452215E+01  7.72261074E+00  7.72261074E+00 -1.54452215E+01  7.72261074E+00
  7.72261074E+00 -1.54452215E+01  7.72261074E+00  7.72261074E+00 -1.54452215E+01
  7.72261074E+00  7.72261074E+00 -1.54452215E+01  7.72261074E+00  7.72261074E+00
 -1.54452215E+01  7.72261074E+00  7.72261074E+00 -1.54452215E+01  7.72261074E+00
  7.72261074E+00 -1.54452215E+01  7.72261074E+00  7.72261074E+00 -1.54452215E+01
  7.72261074E+00  7.72261074E+00 -1.54452215E+01  7.72261074E+00  7.72261074E+00
 -1.54452215E+01  7.72261074E+00  7.72261074E+00 -1.54452215E+01  7.72261074E+00
  7.72261074E+00 -1.54452215E+01  7.72261074E+00  7.72261074E+00 -1.54452215E+01
  7.72261074E+00  7.72261074E+00 -1.54452215E+01  7.72261074E+00  7.72261074E+00
 -1.54452215E+01  7.72261074E+00  7.72261074E+00 -1.54452215E+01  7.72261074E+00
  7.72261074E+00 -1.54452215E+01  7.72261074E+00  7.72261074E+00 -1.54452215E+01
  7.72261074E+00  7.72261074E+00 -1.54452215E+01  7.72261074E+00  7.72261074E+00
 -1.54452215E+01  7.72261074E+00  7.72261074E+00 -1.54452215E+01  7.72261074E+00
  7.72261074E+00 -1.54452215E+01  7.72261074E+00  7.72261074E+00 -1.54452215E+01
  7.72261074E+00  7.72261074E+00 -1.54452215E+01  7.72261074E+00  7.72261074E+00
 -1.54452215E+01  7.72261074E+00  7.72261074E+00 -1.54452215E+01  7.72261074E+00
  7.72261074E+00 -1.54452215E+01  7.72261074E+00  7.72261074E+00 -1.54452215E+01
  7.72261074E+00  7.72261074E+00 -1.54452215E+01  7.72261074E+00  7.72261074E+00
 -1.54452215E+01  7.72261074E+00  7.72261074E+00 -1.54452215E+01  7.72261074E+00
  7.72261074E+00 -1.54452215E+01  7.72261074E+00  7.72261074E+00 -1.54452215E+01
  7.72261074E+00  7.72261074E+00 -1.54452215E+01  7.72261074E+00  7.72261074E+00
 -1.54452215E+01  7.72261074E+00  7.72261074E+00 -1.54452215E+01  7.72261074E+00
  7.72261074E+00 -1.54452215E+01  7.72261074E+00  7.72261074E+00 -1.54452215E+01
  7.72261074E+00  7.72261074E+00 -1.54452215E+01  7.72261074E+00  7.72261074E+00
 -1.54452215E+01  7.72261074E+00  7.72261074E+00 -1.54452215E+01  7.72261074E+00
  7.72261074E+00 -1.54452215E+01  7.72261074E+00  7.72261074E+00 -1.54452215E+01
  7.72261074E+00  7.72261074E+00 -1.54452215E+01  7.72261074E+00  7.72261074E+00
 -1.54452215E+01  7.72261074E+00  7.72261074E+00 -1.54452215E+01  7.72261074E+00
  7.72261074E+00 -1.54452215E+01  7.72261074E+00  7.72261074E+00 -1.54452215E+01
  7.72261074E+00  7.72261074E+00 -1.54452215E+01  7.72261074E+00  7.72261074E+00
 -1.54452215E+01  7.72261074E+00  7.72261074E+00 -1.54452215E+01  7.72261074E+00
  7.72261074E+00 -1.54452215E+01  7.72261074E+00  7.72261074E+00 -1.54452215E+01
  7.72261074E+00  7.72261074E+00 -1.54452215E+01  7.72261074E+00  7.72261074E+00
 -1.54452215E+01  7.72261074E+00  7.72261074E+00 -1.54452215E+01  7.72261074E+00
  7.72261074E+00 -1.54452215E+01  7.72261074E+00  7.72261074E+00 -1.54452215E+01
  7.72261074E+00  7.72261074E+00 -1.54452215E+01  7.72261074E+00  7.72261074E+00
 -1.54452215E+01  7.72261074E+00  7.72261074E+00 -1.54452215E+01  7.72261074E+00
  7.72261074E+00 -1.54452215E+01  7.72261074E+00  7.72261074E+00 -1.54452215E+01
  7.72261074E+00  7.72261074E+00 -1.54452215E+01  7.72261074E+00  7.72261074E+00
 -1.54452215E+01  7.72261074E+00  7.72261074E+00 -1.54452215E+01  7.72261074E+00
  7.72261074E+00 -1.54452215E+01  7.72261074E+00  7.72261074E+00 -1.54452215E+01
  7.72261074E+00  7.72261074E+00 -1.54452215E+01  7.72261074E+00  7.72261074E+00
 -1.54452215E+01  7.72261074E+00  7.72261074E+00 -1.54452215E+01  7.72261074E+00
  7.72261074E+00 -1.54452215E+01  7.72261074E+00  7.72261074E+00 -1.54452215E+01
  7.72261074E+00  7.72261074E+00 -1.54452215E+01  7.72261074E+00  7.72261074E+00
 -1.54452215E+01  7.72261074E+00  7.72261074E+00 -1.54452215E+01  7.72261074E+00
  7.72261074E+00 -1.54452215E+01  7.72261074E+00  7.72261074E+00 -1.54452215E+01
  7.72261074E+00  7.72261074E+00 -1.54452215E+01  7.72261074E+00  7.72261074E+00
 -1.54452215E+01  7.72261074E+00  7.72261074E+00 -1.54452215E+01  7.72261074E+00
  7.72261074E+00 -1.54452215E+01  7.72261074E+00  7.72261074E+00 -1.54452215E+01
  7.72261074E+00  7.72261074E+00 -1.54452215E+01  7.72261074E+00  7.72261074E+00
 -1.54452215E+01  7.72261074E+00  7.72261074E+00 -1.54452215E+01  7.72261074E+00
  7.72261074E+00 -1.54452215E+01  7.72261074E+00  7.72261074E+00 -1.54452215E+01
  7.72261074E+00  7.72261074E+00 -1.54452215E+01  7.72261074E+00  7.72261074E+00
 -1.54452215E+01  7.72261074E+00  7.72261074E+00 -1.54452215E+01  7.72261074E+00
  7.72261074E+00 -1.54452215E+01  7.72261074E+00  7.72261074E+00 -1.54452215E+01
  7.72261074E+00  7.72261074E+00 -1.54452215E+01  7.72261074E+00  7.72261074E+00
 -1.54452215E+01  7.72261074E+00  7.72261074E+00 -1.54452215E+01  7.72261074E+00
  7.72261074E+00 -1.54452215E+01  7.72261074E+00  7.72261074E+00 -1.54452215E+01
  7.72261074E+00  7.72261074E+00 -1.54452215E+01  7.72261074E+00  7.72261074E+00
 -1.54452215E+01  7.72261074E+00  7.72261074E+00 -1.54452215E+01  7.72261074E+00
  7.72261074E+00 -1.54452215E+01  7.72261074E+00  7.72261074E+00 -1.54452215E+01
  7.72261074E+00  7.72261074E+00 -1.54452215E+01  7.72261074E+00  7.72261074E+00
 -1.54452215E+01  7.72261074E+00  7.72261074E+00 -1.54452215E+01  7.72261074E+00
  7.72261074E+00 -1.54452215E+01  7.72261074E+00  7.72261074E+00 -1.54452215E+01
  7.72261074E+00  7.72261074E+00 -1.54452215E+01  7.72261074E+00  7.72261074E+00
 -1.54452215E+01  7.72261074E+00  7.72261074E+00 -1.54452215E+01  7.72261074E+00
  7.72261074E+00 -1.54452215E+01  7.72261074E+00  7.72261074E+00 -1.54452215E+01
  7.72261074E+00  7.72261074E+00 -1.54452215E+01  7.72261074E+00  7.72261074E+00
 -1.54452215E+01  7.72261074E+00  7.72261074E+00 -1.54452215E+01  7.72261074E+00
  7.72261074E+00 -1.54452215E+01  7.72261074E+00  7.72261074E+00 -1.54452215E+01
  7.72261074E+00  7.72261074E+00 -1.54452215E+01  7.72261074E+00  7.72261074E+00
 -1.54452215E+01  7.72261074E+00  7.72261074E+00 -1.54452215E+01  7.72261074E+00
  7.72261074E+00 -1.54452215E+01  7.72261074E+00  7.72261074E+00 -1.54452215E+01
  7.72261074E+00  7.72261074E+00 -1.54452215E+01  7.72261074E+00  7.72261074E+00
 -1.54452215E+01  7.72261074E+00  7.72261074E+00 -1.54452215E+01  7.72261074E+00
  7.72261074E+00 -1.54452215E+01  7.72261074E+00  7.72261074E+00 -1.54452215E+01
  7.72261074E+00  7.72261074E+00 -1.54452215E+01  7.72261074E+00  7.72261074E+00
 -1.54452215E+01  7.72261074E+00  7.72261074E+00 -1.54452215E+01  7.72261074E+00
  7.72261074E+00 -1.54452215E+01  7.72261074E+00  7.72261074E+00 -1.54452215E+01
  7.72261074E+00  7.72261074E+00 -1.54452215E+01  7.72261074E+00  7.72261074E+00
 -1.54452215E+01  7.72261074E+00  7.72261074E+00 -1.54452215E+01  7.72261074E+00
  7.72261074E+00 -1.54452215E+01  7.72261074E+00  7.72261074E+00 -1.54452215E+01
  7.72261074E+00  7.72261074E+00 -1.54452215E+01  7.72261074E+00  7.72261074E+00
 -1.54452215E+01  7.72261074E+00  7.72261074E+00 -1.54452215E+01  7.72261074E+00
  7.72261074E+00 -1.54452215E+01  7.72261074E+00  7.72261074E+00 -1.54452215E+01
  7.72261074E+00  7.72261074E+00 -1.54452215E+01  7.72261074E+00  7.72261074E+00
 -1.54452215E+01  7.72261074E+00  7.72261074E+00 -1.54452215E+01  7.72261074E+00
  7.72261074E+00 -1.54452215E+01  7.72261074E+00  7.72261074E+00 -1.54452215E+01
  7.72261074E+00  7.72261074E+00 -1.54452215E+01  7.72261074E+00  7.72261074E+00
 -1.54452215E+01  7.72261074E+00  7.72261074E+00 -1.54452215E+01  7.72261074E+00
  7.72261074E+00 -1.54452215E+01  7.72261074E+00  7.72261074E+00 -1.54452215E+01
  7.72261074E+00  7.72261074E+00 -1.54452215E+01  7.72261074E+00  7.72261074E+00
 -1.54452215E+01  7.72261074E+00  7.72261074E+00 -1.54452215E+01  7.72261074E+00
  7.72261074E+00 -1.54452215E+01  7.72261074E+00  7.72261074E+00 -1.54452215E+01
  7.72261074E+00  7.72261074E+00 -1.54452215E+01  7.72261074E+00  7.72261074E+00
 -1.54452215E+01  7.72261074E+00  7.72261074E+00 -1.54452215E+01  7.72261074E+00
  7.72261074E+00 -1.54452215E+01  7.72261074E+00  7.72261074E+00 -1.54452215E+01
  7.72261074E+00  7.72261074E+00 -1.54452215E+01  7.72261074E+00  7.72261074E+00
 -1.54452215E+01  7.72261074E+00  7.72261074E+00 -1.54452215E+01  7.72261074E+00
  7.72261074E+00 -1.54452215E+01  7.72261074E+00  7.72261074E+00 -1.54452215E+01
  7.72261074E+00  7.72261074E+00 -1.54452215E+01  7.72261074E+00  7.72261074E+00
 -1.54452215E+01  7.72261074E+00  7.72261074E+00 -1.54452215E+01  7.72261074E+00
  7.72261074E+00 -1.54452215E+01  7.72261074E+00  7.72261074E+00 -1.54452215E+01
  7.72261074E+00  7.72261074E+00 -1.54452215E+01  7.72261074E+00  7.72261074E+00
 -1.54452215E+01  7.72261074E+00  7.72261074E+00 -1.54452215E+01  7.72261074E+00
  7.72261074E+00 -1.54452215E+01  7.72261074E+00  7.72261074E+00 -1.54452215E+01
  7.72261074E+00  7.72261074E+00 -1.54452215E+01  7.72261074E+00  7.72261074E+00
 -1.54452215E+01  7.72261074E+00  7.72261074E+00 -1.54452215E+01  7.72261074E+00
  7.72261074E+00 -1.54452215E+01  7.72261074E+00  7.72261074E+00 -1.54452215E+01
  7.72261074E+00  7.72261074E+00 -1.54452215E+01  7.72261074E+00  7.72261074E+00
 -1.54452215E+01  7.72261074E+00  7.72261074E+00 -1.54452215E+01  7.72261074E+00
  7.72261074E+00 -1.54452215E+01  7.72261074E+00  7.72261074E+00 -1.54452215E+01
  7.72261074E+00  7.72261074E+00 -1.54452215E+01  7.72261074E+00  7.72261074E+00
 -1.54452215E+01  7.72261074E+00  7.72261074E+00 -1.54452215E+01  7.72261074E+00
  7.72261074E+00 -1.54452215E+01  7.72261074E+00  7.72261074E+00 -1.54452215E+01
  7.72261074E+00  7.72261074E+00 -1.54452215E+01  7.72261074E+00  7.72261074E+00
 -1.54452215E+01  7.72261074E+00  7.72261074E+00 -1.54452215E+01  7.72261074E+00
  7.72261074E+00 -1.54452215E+01  7.72261074E+00  7.72261074E+00 -1.54452215E+01
  7.72261074E+00  7.72261074E+00 -1.54452215E+01  7.72261074E+00  7.72261074E+00
 -1.54452215E+01  7.72261074E+00  7.72261074E+00 -1.54452215E+01  7.72261074E+00
  7.72261074E+00 -1.54452215E+01  7.72261074E+00  7.72261074E+00 -1.54452215E+01
  7.72261074E+00  7.72261074E+00 -1.54452215E+01  7.72261074E+00  7.72261074E+00
 -1.54452215E+01  7.72261074E+00  7.72261074E+00 -1.54452215E+01  7.72261074E+00
  7.72261074E+00 -1.54452215E+01  7.72261074E+00  7.72261074E+00 -1.54452215E+01
  7.72261074E+00  7.72261074E+00 -1.54452215E+01  7.72261074E+00  7.72261074E+00
 -1.54452215E+01  7.72261074E+00  7.72261074E+00 -1.54452215E+01  7.72261074E+00
  7.72261074E+00 -1.54452215E+01  7.72261074E+00  7.72261074E+00 -1.54452215E+01
  7.72261074E+00  7.72261074E+00 -1.54452215E+01  7.72261074E+00  7.72261074E+00
 -1.54452215E+01  7.72261074E+00  7.72261074E+00 -1.54452215E+01  7.72261074E+00
  7.72261074E+00 -1.54452215E+01  7.72261074E+00  7.72261074E+00 -1.54452215E+01
  7.72261074E+00  7.72261074E+00 -1.54452215E+01  7.72261074E+00  7.72261074E+00
 -1.54452215E+01  7.72261074E+00  7.72261074E+00 -1.54452215E+01  7.72261074E+00
  7.72261074E+00 -1.54452215E+01  7.72261074E+00  7.72261074E+00 -1.54452215E+01
  7.72261074E+00  7.72261074E+00 -1.54452215E+01  7.72261074E+00  7.72261074E+00
 -1.54452215E+01  7.72261074E+00  7.72261074E+00 -1.54452215E+01  7.72261074E+00
  7.72261074E+00 -1.54452215E+01  7.72261074E+00  7.72261074E+00 -1.54452215E+01
  7.72261074E+00  7.72261074E+00 -1.54452215E+01  7.72261074E+00  7.72261074E+00
 -1.54452215E+01  7.72261074E+00  7.72261074E+00 -1.54452215E+01  7.72261074E+00
  7.72261074E+00 -1.54452215E+01  7.72261074E+00  7.72261074E+00 -1.54452215E+01
  7.72261074E+00  7.72261074E+00 -1.54452215E+01  7.72261074E+00  7.72261074E+00
 -1.54452215E+01  7.72261074E+00  7.72261074E+00 -1.54452215E+01  7.72261074E+00
  7.72261074E+00 -1.54452215E+01  7.72261074E+00  7.72261074E+00 -1.54452215E+01
  7.72261074E+00  7.72261074E+00 -1.54452215E+01  7.72261074E+00  7.72261074E+00
 -1.54452215E+01  7.72261074E+00  7.72261074E+00 -1.54452215E+01  7.72261074E+00
  7.72261074E+00 -1.54452215E+01  7.72261074E+00  7.72261074E+00 -1.54452215E+01
  7.72261074E+00  7.72261074E+00 -1.54452215E+01  7.72261074E+00  7.72261074E+00
 -1.54452215E+01  7.72261074E+00  7.72261074E+00 -1.54452215E+01  7.72261074E+00
  7.72261074E+00 -1.54452215E+01  7.72261074E+00  7.72261074E+00 -1.54452215E+01
  7.72261074E+00  7.72261074E+00 -1.54452215E+01  7.72261074E+00  7.72261074E+00
 -1.54452215E+01  7.72261074E+00  7.72261074E+00 -1.54452215E+01  7.72261074E+00
  7.72261074E+00 -1.54452215E+01  7.72261074E+00  7.72261074E+00 -1.54452215E+01
  7.72261074E+00  7.72261074E+00 -1.54452215E+01  7.72261074E+00  7.72261074E+00
 -1.54452215E+01  7.72261074E+00  7.72261074E+00 -1.54452215E+01  7.72261074E+00
  7.72261074E+00 -1.54452215E+01  7.72261074E+00  7.72261074E+00 -1.54452215E+01
  7.72261074E+00  7.72261074E+00 -1.54452215E+01  7.72261074E+00  7.72261074E+00
 -1.54452215E+01  7.72261074E+00  7.72261074E+00 -1.54452215E+01  7.72261074E+00
  7.72261074E+00 -1.54452215E+01  7.72261074E+00  7.72261074E+00 -1.54452215E+01
  7.72261074E+00  7.72261074E+00 -1.54452215E+01  7.72261074E+00  7.72261074E+00
 -1.54452215E+01  7.72261074E+00  7.72261074E+00 -1.54452215E+01  7.72261074E+00
  7.72261074E+00 -1.54452215E+01  7.72261074E+00  7.72261074E+00 -1.54452215E+01
  7.72261074E+00  7.72261074E+00 -1.54452215E+01  7.72261074E+00  7.72261074E+00
 -1.54452215E+01  7.72261074E+00  7.72261074E+00 -1.54452215E+01  7.72261074E+00
  7.72261074E+00 -1.54452215E+01  7.72261074E+00  7.72261074E+00 -1.54452215E+01
  7.72261074E+00  7.72261074E+00 -1.54452215E+01  7.72261074E+00  7.72261074E+00
 -1.54452215E+01  7.72261074E+00  7.72261074E+00 -1.54452215E+01  7.72261074E+00
  7.72261074E+00 -1.54452215E+01  7.72261074E+00  7.72261074E+00 -1.54452215E+01
  7.72261074E+00  7.72261074E+00 -1.54452215E+01  7.72261074E+00  7.72261074E+00
 -1.54452215E+01  7.72261074E+00  7.72261074E+00 -1.54452215E+01  7.72261074E+00
  7.72261074E+00 -1.54452215E+01  7.72261074E+00  7.72261074E+00 -1.54452215E+01
  7.72261074E+00  7.72261074E+00 -1.54452215E+01  7.72261074E+00  7.72261074E+00
 -1.54452215E+01  7.72261074E+00  7.72261074E+00 -1.54452215E+01  7.72261074E+00
  7.72261074E+00 -1.54452215E+01  7.72261074E+00  7.72261074E+00 -1.54452215E+01
  7.72261074E+00  7.72261074E+00 -1.54452215E+01  7.72261074E+00  7.72261074E+00
 -1.54452215E+01  7.72261074E+00  7.72261074E+00 -1.54452215E+01  7.72261074E+00
  7.72261074E+00 -1.54452215E+01  7.72261074E+00  7.72261074E+00 -1.54452215E+01
  7.72261074E+00  7.72261074E+00 -1.54452215E+01  7.72261074E+00  7.72261074E+00
 -1.54452215E+01  7.72261074E+00  7.72261074E+00 -1.54452215E+01  7.72261074E+00
  7.72261074E+00 -1.54452215E+01  7.72261074E+00  7.72261074E+00 -1.54452215E+01
  7.72261074E+00  7.72261074E+00 -1.54452215E+01  7.72261074E+00  7.72261074E+00
 -1.54452215E+01  7.72261074E+00  7.72261074E+00 -1.54452215E+01  7.72261074E+00
  7.72261074E+00 -1.54452215E+01  7.72261074E+00  7.72261074E+00 -1.54452215E+01
  7.72261074E+00  7.72261074E+00 -1.54452215E+01  7.72261074E+00  7.72261074E+00
 -1.54452215E+01  7.72261074E+00  7.72261074E+00 -1.54452215E+01  7.72261074E+00
  7.72261074E+00 -1.54452215E+01  7.72261074E+00  7.72261074E+00 -1.54452215E+01
  7.72261074E+00  7.72261074E+00 -1.54452215E+01  7.72261074E+00  7.72261074E+00
 -1.54452215E+01  7.72261074E+00  7.72261074E+00 -1.54452215E+01  7.72261074E+00
  7.72261074E+00 -1.54452215E+01  7.72261074E+00  7.72261074E+00 -1.54452215E+01
  7.72261074E+00  7.72261074E+00 -1.54452215E+01  7.72261074E+00  7.72261074E+00
 -1.54452215E+01  7.72261074E+00  7.72261074E+00 -1.54452215E+01  7.72261074E+00
  7.72261074E+00 -1.54452215E+01  7.72261074E+00  7.72261074E+00 -1.54452215E+01
  7.72261074E+00  7.72261074E+00 -1.54452215E+01  7.72261074E+00  7.72261074E+00
 -1.54452215E+01  7.72261074E+00  7.72261074E+00 -1.54452215E+01  7.72261074E+00
  7.72261074E+00 -1.54452215E+01  7.72261074E+00  7.72261074E+00 -1.54452215E+01
  7.72261074E+00  7.72261074E+00 -1.54452215E+01  7.72261074E+00  7.72261074E+00
 -1.54452215E+01  7.72261074E+00  7.72261074E+00 -1.54452215E+01  7.72261074E+00
  7.72261074E+00 -1.54452215E+01  7.72261074E+00  7.72261074E+00 -1.54452215E+01
  7.72261074E+00  7.72261074E+00 -1.54452215E+01  7.72261074E+00  7.72261074E+00
 -1.54452215E+01  7.72261074E+00  7.72261074E+00 -1.54452215E+01  7.72261074E+00
  7.72261074E+00 -1.54452215E+01  7.72261074E+00  7.72261074E+00 -1.54452215E+01
  7.72261074E+00  7.72261074E+00 -1.54452215E+01  7.72261074E+00  7.72261074E+00
 -1.54452215E+01  7.72261074E+00  7.72261074E+00 -1.54452215E+01  7.72261074E+00
  7.72261074E+00 -1.54452215E+01  7.72261074E+00  7.72261074E+00 -1.54452215E+01
  7.72261074E+00  7.72261074E+00 -1.54452215E+01  7.72261074E+00  7.72261074E+00
 -1.54452215E+01  7.72261074E+00  7.72261074E+00 -1.54452215E+01  7.72261074E+00
  7.72261074E+00 -1.54452215E+01  7.72261074E+00  7.72261074E+00 -1.54452215E+01
  7.72261074E+00  7.72261074E+00 -1.54452215E+01  7.72261074E+00  7.72261074E+00
 -1.54452215E+01  7.72261074E+00  7.72261074E+00 -1.54452215E+01  7.72261074E+00
  7.72261074E+00 -1.54452215E+01  7.72261074E+00  7.72261074E+00 -1.54452215E+01
  7.72261074E+00  7.72261074E+00 -1.54452215E+01  7.72261074E+00  7.72261074E+00
 -1.54452215E+01  7.72261074E+00  7.72261074E+00 -1.54452215E+01  7.72261074E+00
  7.72261074E+00 -1.54452215E+01  7.72261074E+00  7.72261074E+00 -1.54452215E+01
  7.72261074E+00  7.72261074E+00 -1.54452215E+01  7.72261074E+00  7.72261074E+00
 -1.54452215E+01  7.72261074E+00  7.72261074E+00 -1.54452215E+01  7.72261074E+00
  7.72261074E+00 -1.54452215E+01  7.72261074E+00  7.72261074E+00 -1.54452215E+01
  7.72261074E+00  7.72261074E+00 -1.54452215E+01  7.72261074E+00  7.72261074E+00
 -1.54452215E+01  7.72261074E+00  7.72261074E+00 -1.54452215E+01  7.72261074E+00
  7.72261074E+00 -1.54452215E+01  7.72261074E+00  7.72261074E+00 -1.54452215E+01
  7.72261074E+00  7.72261074E+00 -1.54452215E+01  7.72261074E+00  7.72261074E+00
 -1.54452215E+01  7.72261074E+00  7.72261074E+00 -1.54452215E+01  7.72261074E+00
  7.72261074E+00 -1.54452215E+01  7.72261074E+00  7.72261074E+00 -1.54452215E+01
  7.72261074E+00  7.72261074E+00 -1.54452215E+01  7.72261074E+00  7.72261074E+00
 -1.54452215E+01  7.72261074E+00  7.72261074E+00 -1.54452215E+01  7.72261074E+00
  7.72261074E+00 -1.54452215E+01  7.72261074E+00  7.72261074E+00 -1.54452215E+01
  7.72261074E+00  7.72261074E+00 -1.54452215E+01  7.72261074E+00  7.72261074E+00
 -1.54452215E+01  7.72261074E+00  7.72261074E+00 -1.54452215E+01  7.72261074E+00
  7.72261074E+00 -1.54452215E+01  7.72261074E+00  7.72261074E+00 -1.54452215E+01
  7.72261074E+00  7.72261074E+00 -1.54452215E+01  7.72261074E+00  7.72261074E+00
 -1.54452215E+01  7.72261074E+00  7.72261074E+00 -1.54452215E+01  7.72261074E+00
  7.72261074E+00 -1.54452215E+01  7.72261074E+00  7.72261074E+00 -1.54452215E+01
  7.72261074E+00  7.72261074E+00 -1.54452215E+01  7.72261074E+00  7.72261074E+00
 -1.54452215E+01  7.72261074E+00  7.72261074E+00 -1.54452215E+01  7.72261074E+00
  7.72261074E+00 -1.54452215E+01  7.72261074E+00  7.72261074E+00 -1.54452215E+01
  7.72261074E+00  7.72261074E+00 -1.54452215E+01  7.72261074E+00  7.72261074E+00
 -1.54452215E+01  7.72261074E+00  7.72261074E+00 -1.54452215E+01  7.72261074E+00
  7.72261074E+00 -1.54452215E+01  7.72261074E+00  7.72261074E+00 -1.54452215E+01
  7.72261074E+00  7.72261074E+00 -1.54452215E+01  7.72261074E+00  7.72261074E+00
 -1.54452215E+01  7.72261074E+00  7.72261074E+00 -1.54452215E+01  7.72261074E+00
  7.72261074E+00 -1.54452215E+01  7.72261074E+00  7.72261074E+00 -1.54452215E+01
  7.72261074E+00  7.72261074E+00 -1.54452215E+01  7.72261074E+00  7.72261074E+00
 -1.54452215E+01  7.72261074E+00  7.72261074E+00 -1.54452215E+01  7.72261074E+00
  7.72261074E+00 -1.54452215E+01  7.72261074E+00  7.72261074E+00 -1.54452215E+01
  7.72261074E+00  7.72261074E+00 -1.54452215E+01  7.72261074E+00  7.72261074E+00
 -1.54452215E+01  7.72261074E+00  7.72261074E+00 -1.54452215E+01  7.72261074E+00
  7.72261074E+00 -1.54452215E+01  7.72261074E+00  7.72261074E+00 -1.54452215E+01
  7.72261074E+00  7.72261074E+00 -1.54452215E+01  7.72261074E+00  7.72261074E+00
 -1.54452215E+01  7.72261074E+00  7.72261074E+00 -1.54452215E+01  7.72261074E+00
  7.72261074E+00 -1.54452215E+01  7.72261074E+00  7.72261074E+00 -1.54452215E+01
  7.72261074E+00  7.72261074E+00 -1.54452215E+01  7.72261074E+00  7.72261074E+00
 -1.54452215E+01  7.72261074E+00  7.72261074E+00 -1.54452215E+01  7.72261074E+00
  7.72261074E+00 -1.54452215E+01  7.72261074E+00  7.72261074E+00 -1.54452215E+01
  7.72261074E+00  7.72261074E+00 -1.54452215E+01  7.72261074E+00  7.72261074E+00
 -1.54452215E+01  7.72261074E+00  7.72261074E+00 -1.54452215E+01  7.72261074E+00
  7.72261074E+00 -1.54452215E+01  7.72261074E+00  7.72261074E+00 -1.54452215E+01
  7.72261074E+00  7.72261074E+00 -1.54452215E+01  7.72261074E+00  7.72261074E+00
 -1.54452215E+01  7.72261074E+00  7.72261074E+00 -1.54452215E+01  7.72261074E+00
  7.72261074E+00 -1.54452215E+01  7.72261074E+00  7.72261074E+00 -1.54452215E+01
  7.72261074E+00  7.72261074E+00 -1.54452215E+01  7.72261074E+00  7.72261074E+00
 -1.54452215E+01  7.72261074E+00  7.72261074E+00 -1.54452215E+01  7.72261074E+00
  7.72261074E+00 -1.54452215E+01  7.72261074E+00  7.72261074E+00 -1.54452215E+01
  7.72261074E+00  7.72261074E+00 -1.54452215E+01  7.72261074E+00  7.72261074E+00
 -1.54452215E+01  7.72261074E+00  7.72261074E+00 -1.54452215E+01  7.72261074E+00
  7.72261074E+00 -1.54452215E+01  7.72261074E+00  7.72261074E+00 -1.54452215E+01
  7.72261074E+00  7.72261074E+00 -1.54452215E+01  7.72261074E+00  7.72261074E+00
 -1.54452215E+01  7.72261074E+00  7.72261074E+00 -1.54452215E+01  7.72261074E+00
  7.72261074E+00 -1.54452215E+01  7.72261074E+00  7.72261074E+00 -1.54452215E+01
  7.72261074E+00  7.72261074E+00 -1.54452215E+01  7.72261074E+00  7.72261074E+00
 -1.54452215E+01  7.72261074E+00  7.72261074E+00 -1.54452215E+01  7.72261074E+00
  7.72261074E+00 -1.54452215E+01  7.72261074E+00  7.72261074E+00 -1.54452215E+01
  7.72261074E+00  7.72261074E+00 -1.54452215E+01  7.72261074E+00  7.72261074E+00
 -1.54452215E+01  7.72261074E+00  7.72261074E+00 -1.54452215E+01  7.72261074E+00
  7.72261074E+00 -1.54452215E+01  7.72261074E+00  7.72261074E+00 -1.54452215E+01
  7.72261074E+00  7.72261074E+00 -1.54452215E+01  7.72261074E+00  7.72261074E+00
 -1.54452215E+01  7.72261074E+00  7.72261074E+00 -1.54452215E+01  7.72261074E+00
  7.72261074E+00 -1.54452215E+01  7.72261074E+00  7.72261074E+00 -1.54452215E+01
  7.72261074E+00  7.72261074E+00 -1.54452215E+01  7.72261074E+00  7.72261074E+00
 -1.54452215E+01  7.72261074E+00  7.72261074E+00 -1.54452215E+01  7.72261074E+00
  7.72261074E+00 -1.54452215E+01  7.72261074E+00  7.72261074E+00 -1.54452215E+01
  7.72261074E+00  7.72261074E+00 -1.54452215E+01  7.72261074E+00  7.72261074E+00
 -1.54452215E+01  7.72261074E+00  7.72261074E+00 -1.54452215E+01  7.72261074E+00
  7.72261074E+00 -1.54452215E+01  7.72261074E+00  7.72261074E+00 -1.54452215E+01
  7.72261074E+00  7.72261074E+00 -1.54452215E+01  7.72261074E+00  7.72261074E+00
 -1.54452215E+01  7.72261074E+00  7.72261074E+00 -1.54452215E+01  7.72261074E+00
  7.72261074E+00 -1.54452215E+01  7.72261074E+00  7.72261074E+00 -1.54452215E+01
  7.72261074E+00  7.72261074E+00 -1.54452215E+01  7.72261074E+00  7.72261074E+00
 -1.54452215E+01  7.72261074E+00  7.72261074E+00 -1.54452215E+01  7.72261074E+00
  7.72261074E+00 -1.54452215E+01  7.72261074E+00  7.72261074E+00 -1.54452215E+01
  7.72261074E+00  7.72261074E+00 -1.54452215E+01  7.72261074E+00  7.72261074E+00
 -1.54452215E+01  7.72261074E+00  7.72261074E+00 -1.54452215E+01  7.72261074E+00
  7.72261074E+00 -1.54452215E+01  7.72261074E+00  7.72261074E+00 -1.54452215E+01
  7.72261074E+00  7.72261074E+00 -1.54452215E+01  7.72261074E+00  7.72261074E+00
 -1.54452215E+01  7.72261074E+00  7.72261074E+00 -1.54452215E+01  7.72261074E+00
  7.72261074E+00 -1.54452215E+01  7.72261074E+00  7.72261074E+00 -1.54452215E+01
  7.72261074E+00  7.72261074E+00 -1.54452215E+01  7.72261074E+00  7.72261074E+00
 -1.54452215E+01  7.72261074E+00  7.72261074E+00 -1.54452215E+01  7.72261074E+00
  7.72261074E+00 -1.54452215E+01  7.72261074E+00  7.72261074E+00 -1.54452215E+01
  7.72261074E+00  7.72261074E+00 -1.54452215E+01  7.72261074E+00  7.72261074E+00
 -1.54452215E+01  7.72261074E+00  7.72261074E+00 -1.54452215E+01  7.72261074E+00
  7.72261074E+00 -1.54452215E+01  7.72261074E+00  7.72261074E+00 -1.54452215E+01
  7.72261074E+00  7.72261074E+00 -1.54452215E+01  7.72261074E+00  7.72261074E+00
 -1.54452215E+01  7.72261074E+00  7.72261074E+00 -1.54452215E+01  7.72261074E+00
  7.72261074E+00 -1.54452215E+01  7.72261074E+00  7.72261074E+00 -1.54452215E+01
  7.72261074E+00  7.72261074E+00 -1.54452215E+01  7.72261074E+00  7.72261074E+00
 -1.54452215E+01  7.72261074E+00  7.72261074E+00 -1.54452215E+01  7.72261074E+00
  7.72261074E+00 -1.54452215E+01  7.72261074E+00  7.72261074E+00 -1.54452215E+01
  7.72261074E+00  7.72261074E+00 -1.54452215E+01  7.72261074E+00  7.72261074E+00
 -1.54452215E+01  7.72261074E+00  7.72261074E+00 -1.54452215E+01  7.72261074E+00
  7.72261074E+00 -1.54452215E+01  7.72261074E+00  7.72261074E+00 -1.54452215E+01
  7.72261074E+00  7.72261074E+00 -1.54452215E+01  7.72261074E+00  7.72261074E+00
 -1.54452215E+01  7.72261074E+00  7.72261074E+00 -1.54452215E+01  7.72261074E+00
  7.72261074E+00 -1.54452215E+01  7.72261074E+00  7.72261074E+00 -1.54452215E+01
  7.72261074E+00  7.72261074E+00 -1.54452215E+01  7.72261074E+00  7.72261074E+00
 -1.54452215E+01  7.72261074E+00  7.72261074E+00 -1.54452215E+01  7.72261074E+00
  7.72261074E+00 -1.54452215E+01  7.72261074E+00  7.72261074E+00 -1.54452215E+01
  7.72261074E+00  7.72261074E+00 -1.54452215E+01  7.72261074E+00  7.72261074E+00
 -1.54452215E+01  7.72261074E+00  7.72261074E+00 -1.54452215E+01  7.72261074E+00
  7.72261074E+00 -1.54452215E+01  7.72261074E+00  7.72261074E+00 -1.54452215E+01
  7.72261074E+00  7.72261074E+00 -1.54452215E+01  7.72261074E+00  7.72261074E+00
 -1.54452215E+01  7.72261074E+00  7.72261074E+00 -1.54452215E+01  7.72261074E+00
  7.72261074E+00 -1.54452215E+01  7.72261074E+00  7.72261074E+00 -1.54452215E+01
  7.72261074E+00  7.72261074E+00 -1.54452215E+01  7.72261074E+00  7.72261074E+00
 -1.54452215E+01  7.72261074E+00  7.72261074E+00 -1.54452215E+01  7.72261074E+00
  7.72261074E+00 -1.54452215E+01  7.72261074E+00  7.72261074E+00 -1.54452215E+01
  7.72261074E+00  7.72261074E+00 -1.54452215E+01  7.72261074E+00  7.72261074E+00
 -1.54452215E+01  7.72261074E+00  7.72261074E+00 -1.54452215E+01  7.72261074E+00
  7.72261074E+00 -1.54452215E+01  7.72261074E+00  7.72261074E+00 -1.54452215E+01
  7.72261074E+00  7.72261074E+00 -1.54452215E+01  7.72261074E+00  7.72261074E+00
 -1.54452215E+01  7.72261074E+00  7.72261074E+00 -1.54452215E+01  7.72261074E+00
  7.72261074E+00 -1.54452215E+01  7.72261074E+00  7.72261074E+00 -1.54452215E+01
  7.72261074E+00  7.72261074E+00 -1.54452215E+01  7.72261074E+00  7.72261074E+00
 -1.54452215E+01  7.72261074E+00  7.72261074E+00 -1.54452215E+01  7.72261074E+00
  7.72261074E+00 -1.54452215E+01  7.72261074E+00  7.72261074E+00 -1.54452215E+01
  7.72261074E+00  7.72261074E+00 -1.54452215E+01  7.72261074E+00  7.72261074E+00
 -1.54452215E+01  7.72261074E+00  7.72261074E+00 -1.54452215E+01  7.72261074E+00
  7.72261074E+00 -1.54452215E+01  7.72261074E+00  7.72261074E+00 -1.54452215E+01
  7.72261074E+00  7.72261074E+00 -1.54452215E+01  7.72261074E+00  7.72261074E+00
 -1.54452215E+01  7.72261074E+00  7.72261074E+00 -1.54452215E+01  7.72261074E+00
  7.72261074E+00 -1.54452215E+01  7.72261074E+00  7.72261074E+00 -1.54452215E+01
  7.72261074E+00  7.72261074E+00 -1.54452215E+01  7.72261074E+00  7.72261074E+00
 -1.54452215E+01  7.72261074E+00  7.72261074E+00 -1.54452215E+01  7.72261074E+00
  7.72261074E+00 -1.54452215E+01  7.72261074E+00  7.72261074E+00 -1.54452215E+01
  7.72261074E+00  7.72261074E+00 -1.54452215E+01  7.72261074E+00  7.72261074E+00
 -1.54452215E+01  7.72261074E+00  7.72261074E+00 -1.54452215E+01  7.72261074E+00
  7.72261074E+00 -1.54452215E+01  7.72261074E+00  7.72261074E+00 -1.54452215E+01
  7.72261074E+00  7.72261074E+00 -1.54452215E+01  7.72261074E+00  7.72261074E+00
 -1.54452215E+01  7.72261074E+00  7.72261074E+00 -1.54452215E+01  7.72261074E+00
  7.72261074E+00 -1.54452215E+01  7.72261074E+00  7.72261074E+00 -1.54452215E+01
  7.72261074E+00  7.72261074E+00 -1.54452215E+01  7.72261074E+00  7.72261074E+00
 -1.54452215E+01  7.72261074E+00  7.72261074E+00 -1.54452215E+01  7.72261074E+00
  7.72261074E+00 -1.54452215E+01  7.72261074E+00  7.72261074E+00 -1.54452215E+01
  7.72261074E+00  7.72261074E+00 -1.54452215E+01  7.72261074E+00  7.72261074E+00
 -1.54452215E+01  7.72261074E+00  7.72261074E+00 -1.54452215E+01  7.72261074E+00
  7.72261074E+00 -1.54452215E+01  7.72261074E+00  7.72261074E+00 -1.54452215E+01
  7.72261074E+00  7.72261074E+00 -1.54452215E+01  7.72261074E+00  7.72261074E+00
 -1.54452215E+01  7.72261074E+00  7.72261074E+00 -1.54452215E+01  7.72261074E+00
  7.72261074E+00 -1.54452215E+01  7.72261074E+00  7.72261074E+00 -1.54452215E+01
  7.72261074E+00  7.72261074E+00 -1.54452215E+01  7.72261074E+00  7.72261074E+00
 -1.54452215E+01  7.72261074E+00  7.72261074E+00 -1.54452215E+01  7.72261074E+00
  7.72261074E+00 -1.54452215E+01  7.72261074E+00  7.72261074E+00 -1.54452215E+01
  7.72261074E+00  7.72261074E+00 -1.54452215E+01  7.72261074E+00  7.72261074E+00
 -1.54452215E+01  7.72261074E+00  7.72261074E+00 -1.54452215E+01  7.72261074E+00
  7.72261074E+00 -1.54452215E+01  7.72261074E+00  7.72261074E+00 -1.54452215E+01
  7.72261074E+00  7.72261074E+00 -1.54452215E+01  7.72261074E+00  7.72261074E+00
 -1.54452215E+01  7.72261074E+00  7.72261074E+00 -1.54452215E+01  7.72261074E+00
  7.72261074E+00 -1.54452215E+01  7.72261074E+00  7.72261074E+00 -1.54452215E+01
  7.72261074E+00  7.72261074E+00 -1.54452215E+01  7.72261074E+00  7.72261074E+00
 -1.54452215E+01  7.72261074E+00  7.72261074E+00 -1.54452215E+01  7.72261074E+00
  7.72261074E+00 -1.54452215E+01  7.72261074E+00  7.72261074E+00 -1.54452215E+01
  7.72261074E+00  7.72261074E+00 -1.54452215E+01  7.72261074E+00  7.72261074E+00
 -1.54452215E+01  7.72261074E+00  7.72261074E+00 -1.54452215E+01  7.72261074E+00
  7.72261074E+00 -1.54452215E+01  7.72261074E+00  7.72261074E+00 -1.54452215E+01
  7.72261074E+00  7.72261074E+00 -1.54452215E+01  7.72261074E+00  7.72261074E+00
 -1.54452215E+01  7.72261074E+00  7.72261074E+00 -1.54452215E+01  7.72261074E+00
  7.72261074E+00 -1.54452215E+01  7.72261074E+00  7.72261074E+00 -1.54452215E+01
  7.72261074E+00  7.72261074E+00 -1.54452215E+01  7.72261074E+00  7.72261074E+00
 -1.54452215E+01  7.72261074E+00  7.72261074E+00 -1.54452215E+01  7.72261074E+00
  7.72261074E+00 -1.54452215E+01  7.72261074E+00  7.72261074E+00 -1.54452215E+01
  7.72261074E+00  7.72261074E+00 -1.54452215E+01  7.72261074E+00  7.72261074E+00
 -1.54452215E+01  7.72261074E+00  7.72261074E+00 -1.54452215E+01  7.72261074E+00
  7.72261074E+00 -1.54452215E+01  7.72261074E+00  7.72261074E+00 -1.54452215E+01
  7.72261074E+00  7.72261074E+00 -1.54452215E+01  7.72261074E+00  7.72261074E+00
 -1.54452215E+01  7.72261074E+00  7.72261074E+00 -1.54452215E+01  7.72261074E+00
  7.72261074E+00 -1.54452215E+01  7.72261074E+00  7.72261074E+00 -1.54452215E+01
  7.72261074E+00  7.72261074E+00 -1.54452215E+01  7.72261074E+00  7.72261074E+00
 -1.54452215E+01  7.72261074E+00  7.72261074E+00 -1.54452215E+01  7.72261074E+00
  7.72261074E+00 -1.54452215E+01  7.72261074E+00  7.72261074E+00 -1.54452215E+01
  7.72261074E+00  7.72261074E+00 -1.54452215E+01  7.72261074E+00  7.72261074E+00
 -1.54452215E+01  7.72261074E+00  7.72261074E+00 -1.54452215E+01  7.72261074E+00
  7.72261074E+00 -1.54452215E+01  7.72261074E+00  7.72261074E+00 -1.54452215E+01
  7.72261074E+00  7.72261074E+00 -1.54452215E+01  7.72261074E+00  7.72261074E+00
 -1.54452215E+01  7.72261074E+00  7.72261074E+00 -1.54452215E+01  7.72261074E+00
  7.72261074E+00 -1.54452215E+01  7.72261074E+00  7.72261074E+00 -1.54452215E+01
  7.72261074E+00  7.72261074E+00 -1.54452215E+01  7.72261074E+00  7.72261074E+00
 -1.54452215E+01  7.72261074E+00  7.72261074E+00 -1.54452215E+01  7.72261074E+00
  7.72261074E+00 -1.54452215E+01  7.72261074E+00  7.72261074E+00 -1.54452215E+01
  7.72261074E+00  7.72261074E+00 -1.54452215E+01  7.72261074E+00  7.72261074E+00
 -1.54452215E+01  7.72261074E+00  7.72261074E+00 -1.54452215E+01  7.72261074E+00
  7.72261074E+00 -1.54452215E+01  7.72261074E+00  7.72261074E+00 -1.54452215E+01
  7.72261074E+00  7.72261074E+00 -1.54452215E+01  7.72261074E+00  7.72261074E+00
 -1.54452215E+01  7.72261074E+00  7.72261074E+00 -1.54452215E+01  7.72261074E+00
  7.72261074E+00 -1.54452215E+01  7.72261074E+00  7.72261074E+00 -1.54452215E+01
  7.72261074E+00  7.72261074E+00 -1.54452215E+01  7.72261074E+00  7.72261074E+00
 -1.54452215E+01  7.72261074E+00  7.72261074E+00 -1.54452215E+01  7.72261074E+00
  7.72261074E+00 -1.54452215E+01  7.72261074E+00  7.72261074E+00 -1.54452215E+01
  7.72261074E+00  7.72261074E+00 -1.54452215E+01  7.72261074E+00  7.72261074E+00
 -1.54452215E+01  7.72261074E+00  7.72261074E+00 -1.54452215E+01  7.72261074E+00
  7.72261074E+00 -1.54452215E+01  7.72261074E+00  7.72261074E+00 -1.54452215E+01
  7.72261074E+00  7.72261074E+00 -1.54452215E+01  7.72261074E+00  7.72261074E+00
 -1.54452215E+01  7.72261074E+00  7.72261074E+00 -1.54452215E+01  7.72261074E+00
  7.72261074E+00 -1.54452215E+01  7.72261074E+00  7.72261074E+00 -1.54452215E+01
  7.72261074E+00  7.72261074E+00 -1.54452215E+01  7.72261074E+00  7.72261074E+00
 -1.54452215E+01  7.72261074E+00  7.72261074E+00 -1.54452215E+01  7.72261074E+00
  7.72261074E+00 -1.54452215E+01  7.72261074E+00  7.72261074E+00 -1.54452215E+01
  7.72261074E+00  7.72261074E+00 -1.54452215E+01  7.72261074E+00  7.72261074E+00
 -1.54452215E+01  7.72261074E+00  7.72261074E+00 -1.54452215E+01  7.72261074E+00
  7.72261074E+00 -1.54452215E+01  7.72261074E+00  7.72261074E+00 -1.54452215E+01
  7.72261074E+00  7.72261074E+00 -1.54452215E+01  7.72261074E+00  7.72261074E+00
 -1.54452215E+01  7.72261074E+00  7.72261074E+00 -1.54452215E+01  7.72261074E+00
  7.72261074E+00 -1.54452215E+01  7.72261074E+00  7.72261074E+00 -1.54452215E+01
  7.72261074E+00  7.72261074E+00 -1.54452215E+01  7.72261074E+00  7.72261074E+00
 -1.54452215E+01  7.72261074E+00  7.72261074E+00 -1.54452215E+01  7.72261074E+00
  7.72261074E+00 -1.54452215E+01  7.72261074E+00  7.72261074E+00 -1.54452215E+01
  7.72261074E+00  7.72261074E+00 -1.54452215E+01  7.72261074E+00  7.72261074E+00
 -1.54452215E+01  7.72261074E+00  7.72261074E+00 -1.54452215E+01  7.72261074E+00
  7.72261074E+00 -1.54452215E+01  7.72261074E+00  7.72261074E+00 -1.54452215E+01
  7.72261074E+00  7.72261074E+00 -1.54452215E+01  7.72261074E+00  7.72261074E+00
 -1.54452215E+01  7.72261074E+00  7.72261074E+00 -1.54452215E+01  7.72261074E+00
  7.72261074E+00 -1.54452215E+01  7.72261074E+00  7.72261074E+00 -1.54452215E+01
  7.72261074E+00  7.72261074E+00 -1.54452215E+01  7.72261074E+00  7.72261074E+00
 -1.54452215E+01  7.72261074E+00  7.72261074E+00 -1.54452215E+01  7.72261074E+00
  7.72261074E+00 -1.54452215E+01  7.72261074E+00  7.72261074E+00 -1.54452215E+01
  7.72261074E+00  7.72261074E+00 -1.54452215E+01  7.72261074E+00  7.72261074E+00
 -1.54452215E+01  7.72261074E+00  7.72261074E+00 -1.54452215E+01  7.72261074E+00
  7.72261074E+00 -1.54452215E+01  7.72261074E+00  7.72261074E+00 -1.54452215E+01
  7.72261074E+00  7.72261074E+00 -1.54452215E+01  7.72261074E+00  7.72261074E+00
 -1.54452215E+01  7.72261074E+00  7.72261074E+00 -1.54452215E+01  7.72261074E+00
  7.72261074E+00 -1.54452215E+01  7.72261074E+00  7.72261074E+00 -1.54452215E+01
  7.72261074E+00  7.72261074E+00 -1.54452215E+01  7.72261074E+00  7.72261074E+00
 -1.54452215E+01  7.72261074E+00  7.72261074E+00 -1.54452215E+01  7.72261074E+00
  7.72261074E+00 -1.54452215E+01  7.72261074E+00  7.72261074E+00 -1.54452215E+01
  7.72261074E+00  7.72261074E+00 -1.54452215E+01  7.72261074E+00  7.72261074E+00
 -1.54452215E+01  7.72261074E+00  7.72261074E+00 -1.54452215E+01  7.72261074E+00
  7.72261074E+00 -1.54452215E+01  7.72261074E+00  7.72261074E+00 -1.54452215E+01
  7.72261074E+00  7.72261074E+00 -1.54452215E+01  7.72261074E+00  7.72261074E+00
 -1.54452215E+01  7.72261074E+00  7.72261074E+00 -1.54452215E+01  7.72261074E+00
  7.72261074E+00 -1.54452215E+01  7.72261074E+00  7.72261074E+00 -1.54452215E+01
  7.72261074E+00  7.72261074E+00 -1.54452215E+01  7.72261074E+00  7.72261074E+00
 -1.54452215E+01  7.72261074E+00  7.72261074E+00 -1.54452215E+01  7.72261074E+00
  7.72261074E+00 -1.54452215E+01  7.72261074E+00  7.72261074E+00 -1.54452215E+01
  7.72261074E+00  7.72261074E+00 -1.54452215E+01  7.72261074E+00  7.72261074E+00
 -1.54452215E+01  7.72261074E+00  7.72261074E+00 -1.54452215E+01  7.72261074E+00
  7.72261074E+00 -1.54452215E+01  7.72261074E+00  7.72261074E+00 -1.54452215E+01
  7.72261074E+00  7.72261074E+00 -1.54452215E+01  7.72261074E+00  7.72261074E+00
 -1.54452215E+01  7.72261074E+00  7.72261074E+00 -1.54452215E+01  7.72261074E+00
  7.72261074E+00 -1.54452215E+01  7.72261074E+00  7.72261074E+00 -1.54452215E+01
  7.72261074E+00  7.72261074E+00 -1.54452215E+01  7.72261074E+00  7.72261074E+00
 -1.54452215E+01  7.72261074E+00  7.72261074E+00 -1.54452215E+01  7.72261074E+00
  7.72261074E+00 -1.54452215E+01  7.72261074E+00  7.72261074E+00 -1.54452215E+01
  7.72261074E+00  7.72261074E+00 -1.54452215E+01  7.72261074E+00  7.72261074E+00
 -1.54452215E+01  7.72261074E+00  7.72261074E+00 -1.54452215E+01  7.72261074E+00
  7.72261074E+00 -1.54452215E+01  7.72261074E+00  7.72261074E+00 -1.54452215E+01
  7.72261074E+00  7.72261074E+00 -1.54452215E+01  7.72261074E+00  7.72261074E+00
 -1.54452215E+01  7.72261074E+00  7.72261074E+00 -1.54452215E+01  7.72261074E+00
  7.72261074E+00 -1.54452215E+01  7.72261074E+00  7.72261074E+00 -1.54452215E+01
  7.72261074E+00  7.72261074E+00 -1.54452215E+01  7.72261074E+00  7.72261074E+00
 -1.54452215E+01  7.72261074E+00  7.72261074E+00 -1.54452215E+01  7.72261074E+00
  7.72261074E+00 -1.54452215E+01  7.72261074E+00  7.72261074E+00 -1.54452215E+01
  7.72261074E+00  7.72261074E+00 -1.54452215E+01  7.72261074E+00  7.72261074E+00
 -1.54452215E+01  7.72261074E+00  7.72261074E+00 -1.54452215E+01  7.72261074E+00
  7.72261074E+00 -1.54452215E+01  7.72261074E+00  7.72261074E+00 -1.54452215E+01
  7.72261074E+00  7.72261074E+00 -1.54452215E+01  7.72261074E+00  7.72261074E+00
 -1.54452215E+01  7.72261074E+00  7.72261074E+00 -1.54452215E+01  7.72261074E+00
  7.72261074E+00 -1.54452215E+01  7.72261074E+00  7.72261074E+00 -1.54452215E+01
  7.72261074E+00  7.72261074E+00 -1.54452215E+01  7.72261074E+00  7.72261074E+00
 -1.54452215E+01  7.72261074E+00  7.72261074E+00 -1.54452215E+01  7.72261074E+00
  7.72261074E+00 -1.54452215E+01  7.72261074E+00  7.72261074E+00 -1.54452215E+01
  7.72261074E+00  7.72261074E+00 -1.54452215E+01  7.72261074E+00  7.72261074E+00
 -1.54452215E+01  7.72261074E+00  7.72261074E+00 -1.54452215E+01  7.72261074E+00
  7.72261074E+00 -1.54452215E+01  7.72261074E+00  7.72261074E+00 -1.54452215E+01
  7.72261074E+00  7.72261074E+00 -1.54452215E+01  7.72261074E+00  7.72261074E+00
 -1.54452215E+01  7.72261074E+00  7.72261074E+00 -1.54452215E+01  7.72261074E+00
  7.72261074E+00 -1.54452215E+01  7.72261074E+00  7.72261074E+00 -1.54452215E+01
  7.72261074E+00  7.72261074E+00 -1.54452215E+01  7.72261074E+00  7.72261074E+00
 -1.54452215E+01  7.72261074E+00  7.72261074E+00 -1.54452215E+01  7.72261074E+00
  7.72261074E+00 -1.54452215E+01  7.72261074E+00  7.72261074E+00 -1.54452215E+01
  7.72261074E+00  7.72261074E+00 -1.54452215E+01  7.72261074E+00  7.72261074E+00
 -1.54452215E+01  7.72261074E+00  7.72261074E+00 -1.54452215E+01  7.72261074E+00
  7.72261074E+00 -1.54452215E+01  7.72261074E+00  7.72261074E+00 -1.54452215E+01
  7.72261074E+00  7.72261074E+00 -1.54452215E+01  7.72261074E+00  7.72261074E+00
 -1.54452215E+01  7.72261074E+00  7.72261074E+00 -1.54452215E+01  7.72261074E+00
  7.72261074E+00 -1.54452215E+01  7.72261074E+00  7.72261074E+00 -1.54452215E+01
  7.72261074E+00  7.72261074E+00 -1.54452215E+01  7.72261074E+00  7.72261074E+00
 -1.54452215E+01  7.72261074E+00  7.72261074E+00 -1.54452215E+01  7.72261074E+00
  7.72261074E+00 -1.54452215E+01  7.72261074E+00  7.72261074E+00 -1.54452215E+01
  7.72261074E+00  7.72261074E+00 -1.54452215E+01  7.72261074E+00  7.72261074E+00
 -1.54452215E+01  7.72261074E+00  7.72261074E+00 -1.54452215E+01  7.72261074E+00
  7.72261074E+00 -1.54452215E+01  7.72261074E+00  7.72261074E+00 -1.54452215E+01
  7.72261074E+00  7.72261074E+00 -1.54452215E+01  7.72261074E+00  7.72261074E+00
 -1.54452215E+01  7.72261074E+00  7.72261074E+00 -1.54452215E+01  7.72261074E+00
  7.72261074E+00 -1.54452215E+01  7.72261074E+00  7.72261074E+00 -1.54452215E+01
  7.72261074E+00  7.72261074E+00 -1.54452215E+01  7.72261074E+00  7.72261074E+00
 -1.54452215E+01  7.72261074E+00  7.72261074E+00 -1.54452215E+01  7.72261074E+00
  7.72261074E+00 -1.54452215E+01  7.72261074E+00  7.72261074E+00 -1.54452215E+01
  7.72261074E+00  7.72261074E+00 -1.54452215E+01  7.72261074E+00  7.72261074E+00
 -1.54452215E+01  7.72261074E+00  7.72261074E+00 -1.54452215E+01  7.72261074E+00
  7.72261074E+00 -1.54452215E+01  7.72261074E+00  7.72261074E+00 -1.54452215E+01
  7.72261074E+00  7.72261074E+00 -1.54452215E+01  7.72261074E+00  7.72261074E+00
 -1.54452215E+01  7.72261074E+00  7.72261074E+00 -1.54452215E+01  7.72261074E+00
  7.72261074E+00 -1.54452215E+01  7.72261074E+00  7.72261074E+00 -1.54452215E+01
  7.72261074E+00  7.72261074E+00 -1.54452215E+01  7.72261074E+00  7.72261074E+00
 -1.54452215E+01  7.72261074E+00  7.72261074E+00 -1.54452215E+01  7.72261074E+00
  7.72261074E+00 -1.54452215E+01  7.72261074E+00  7.72261074E+00 -1.54452215E+01
  7.72261074E+00  7.72261074E+00 -1.54452215E+01  7.72261074E+00  7.72261074E+00
 -1.54452215E+01  7.72261074E+00  7.72261074E+00 -1.54452215E+01  7.72261074E+00
  7.72261074E+00 -1.54452215E+01  7.72261074E+00  7.72261074E+00 -1.54452215E+01
  7.72261074E+00  7.72261074E+00 -1.54452215E+01  7.72261074E+00  7.72261074E+00
 -1.54452215E+01  7.72261074E+00  7.72261074E+00 -1.54452215E+01  7.72261074E+00
  7.72261074E+00 -1.54452215E+01  7.72261074E+00  7.72261074E+00 -1.54452215E+01
  7.72261074E+00  7.72261074E+00 -1.54452215E+01  7.72261074E+00  7.72261074E+00
 -1.54452215E+01  7.72261074E+00  7.72261074E+00 -1.54452215E+01  7.72261074E+00
  7.72261074E+00 -1.54452215E+01  7.72261074E+00  7.72261074E+00 -1.54452215E+01
  7.72261074E+00  7.72261074E+00 -1.54452215E+01  7.72261074E+00  7.72261074E+00
 -1.54452215E+01  7.72261074E+00  7.72261074E+00 -1.54452215E+01  7.72261074E+00
  7.72261074E+00 -1.54452215E+01  7.72261074E+00  7.72261074E+00 -1.54452215E+01
  7.72261074E+00  7.72261074E+00 -1.54452215E+01  7.72261074E+00  7.72261074E+00
 -1.54452215E+01  7.72261074E+00  7.72261074E+00 -1.54452215E+01  7.72261074E+00
  7.72261074E+00 -1.54452215E+01  7.72261074E+00  7.72261074E+00 -1.54452215E+01
  7.72261074E+00  7.72261074E+00 -1.54452215E+01  7.72261074E+00  7.72261074E+00
 -1.54452215E+01  7.72261074E+00  7.72261074E+00 -1.54452215E+01  7.72261074E+00
  7.72261074E+00 -1.54452215E+01  7.72261074E+00  7.72261074E+00 -1.54452215E+01
  7.72261074E+00  7.72261074E+00 -1.54452215E+01  7.72261074E+00  7.72261074E+00
 -1.54452215E+01  7.72261074E+00  7.72261074E+00 -1.54452215E+01  7.72261074E+00
  7.72261074E+00 -1.54452215E+01  7.72261074E+00  7.72261074E+00 -1.54452215E+01
  7.72261074E+00  7.72261074E+00 -1.54452215E+01  7.72261074E+00  7.72261074E+00
 -1.54452215E+01  7.72261074E+00  7.72261074E+00 -1.54452215E+01  7.72261074E+00
  7.72261074E+00 -1.54452215E+01  7.72261074E+00  7.72261074E+00 -1.54452215E+01
  7.72261074E+00  7.72261074E+00 -1.54452215E+01  7.72261074E+00  7.72261074E+00
 -1.54452215E+01  7.72261074E+00  7.72261074E+00 -1.54452215E+01  7.72261074E+00
  7.72261074E+00 -1.54452215E+01  7.72261074E+00  7.72261074E+00 -1.54452215E+01
  7.72261074E+00  7.72261074E+00 -1.54452215E+01  7.72261074E+00  7.72261074E+00
 -1.54452215E+01  7.72261074E+00  7.72261074E+00 -1.54452215E+01  7.72261074E+00
  7.72261074E+00 -1.54452215E+01  7.72261074E+00  7.72261074E+00 -1.54452215E+01
  7.72261074E+00  7.72261074E+00 -1.54452215E+01  7.72261074E+00  7.72261074E+00
 -1.54452215E+01  7.72261074E+00  7.72261074E+00 -1.54452215E+01  7.72261074E+00
  7.72261074E+00 -1.54452215E+01  7.72261074E+00  7.72261074E+00 -1.54452215E+01
  7.72261074E+00  7.72261074E+00 -1.54452215E+01  7.72261074E+00  7.72261074E+00
 -1.54452215E+01  7.72261074E+00  7.72261074E+00 -1.54452215E+01  7.72261074E+00
  7.72261074E+00 -1.54452215E+01  7.72261074E+00  7.72261074E+00 -1.54452215E+01
  7.72261074E+00  7.72261074E+00 -1.54452215E+01  7.72261074E+00  7.72261074E+00
 -1.54452215E+01  7.72261074E+00  7.72261074E+00 -1.54452215E+01  7.72261074E+00
  7.72261074E+00 -1.54452215E+01  7.72261074E+00  7.72261074E+00 -1.54452215E+01
  7.72261074E+00  7.72261074E+00 -1.54452215E+01  7.72261074E+00  7.72261074E+00
 -1.54452215E+01  7.72261074E+00  7.72261074E+00 -1.54452215E+01  7.72261074E+00
  7.72261074E+00 -1.54452215E+01  7.72261074E+00  7.72261074E+00 -1.54452215E+01
  7.72261074E+00  7.72261074E+00 -1.54452215E+01  7.72261074E+00  7.72261074E+00
 -1.54452215E+01  7.72261074E+00  7.72261074E+00 -1.54452215E+01  7.72261074E+00
  7.72261074E+00 -1.54452215E+01  7.72261074E+00  7.72261074E+00 -1.54452215E+01
  7.72261074E+00  7.72261074E+00 -1.54452215E+01  7.72261074E+00  7.72261074E+00
 -1.54452215E+01  7.72261074E+00  7.72261074E+00 -1.54452215E+01  7.72261074E+00
  7.72261074E+00 -1.54452215E+01  7.72261074E+00  7.72261074E+00 -1.54452215E+01
  7.72261074E+00  7.72261074E+00 -1.54452215E+01  7.72261074E+00  7.72261074E+00
 -1.54452215E+01  7.72261074E+00  7.72261074E+00 -1.54452215E+01  7.72261074E+00
  7.72261074E+00 -1.54452215E+01  7.72261074E+00  7.72261074E+00 -1.54452215E+01
  7.72261074E+00  7.72261074E+00 -1.54452215E+01  7.72261074E+00  7.72261074E+00
 -1.54452215E+01  7.72261074E+00  7.72261074E+00 -1.54452215E+01  7.72261074E+00
  7.72261074E+00 -1.54452215E+01  7.72261074E+00  7.72261074E+00 -1.54452215E+01
  7.72261074E+00  7.72261074E+00 -1.54452215E+01  7.72261074E+00  7.72261074E+00
 -1.54452215E+01  7.72261074E+00  7.72261074E+00 -1.54452215E+01  7.72261074E+00
  7.72261074E+00 -1.54452215E+01  7.72261074E+00  7.72261074E+00 -1.54452215E+01
  7.72261074E+00  7.72261074E+00 -1.54452215E+01  7.72261074E+00  7.72261074E+00
 -1.54452215E+01  7.72261074E+00  7.72261074E+00 -1.54452215E+01  7.72261074E+00
  7.72261074E+00 -1.54452215E+01  7.72261074E+00  7.72261074E+00 -1.54452215E+01
  7.72261074E+00  7.72261074E+00 -1.54452215E+01  7.72261074E+00  7.72261074E+00
 -1.54452215E+01  7.72261074E+00  7.72261074E+00 -1.54452215E+01  7.72261074E+00
  7.72261074E+00 -1.54452215E+01  7.72261074E+00  7.72261074E+00 -1.54452215E+01
  7.72261074E+00  7.72261074E+00 -1.54452215E+01  7.72261074E+00  7.72261074E+00
 -1.54452215E+01  7.72261074E+00  7.72261074E+00 -1.54452215E+01  7.72261074E+00
  7.72261074E+00 -1.54452215E+01  7.72261074E+00  7.72261074E+00 -1.54452215E+01
  7.72261074E+00  7.72261074E+00 -1.54452215E+01  7.72261074E+00  7.72261074E+00
 -1.54452215E+01  7.72261074E+00  7.72261074E+00 -1.54452215E+01  7.72261074E+00
  7.72261074E+00 -1.54452215E+01  7.72261074E+00  7.72261074E+00 -1.54452215E+01
  7.72261074E+00  7.72261074E+00 -1.54452215E+01  7.72261074E+00  7.72261074E+00
 -1.54452215E+01  7.72261074E+00  7.72261074E+00 -1.54452215E+01  7.72261074E+00
  7.72261074E+00 -1.54452215E+01  7.72261074E+00  7.72261074E+00 -1.54452215E+01
  7.72261074E+00  7.72261074E+00 -1.54452215E+01  7.72261074E+00  7.72261074E+00
 -1.54452215E+01  7.72261074E+00  7.72261074E+00 -1.54452215E+01  7.72261074E+00
  7.72261074E+00 -1.54452215E+01  7.72261074E+00  7.72261074E+00 -1.54452215E+01
  7.72261074E+00  7.72261074E+00 -1.54452215E+01  7.72261074E+00  7.72261074E+00
 -1.54452215E+01  7.72261074E+00  7.72261074E+00 -1.54452215E+01  7.72261074E+00
  7.72261074E+00 -1.54452215E+01  7.72261074E+00  7.72261074E+00 -1.54452215E+01
  7.72261074E+00  7.72261074E+00 -1.54452215E+01  7.72261074E+00  7.72261074E+00
 -1.54452215E+01  7.72261074E+00  7.72261074E+00 -1.54452215E+01  7.72261074E+00
  7.72261074E+00 -1.54452215E+01  7.72261074E+00  7.72261074E+00 -1.54452215E+01
  7.72261074E+00  7.72261074E+00 -1.54452215E+01  7.72261074E+00  7.72261074E+00
 -1.54452215E+01  7.72261074E+00  7.72261074E+00 -1.54452215E+01  7.72261074E+00
  7.72261074E+00 -1.54452215E+01  7.72261074E+00  7.72261074E+00 -1.54452215E+01
  7.72261074E+00  7.72261074E+00 -1.54452215E+01  7.72261074E+00  7.72261074E+00
 -1.54452215E+01  7.72261074E+00  7.72261074E+00 -1.54452215E+01  7.72261074E+00
  7.72261074E+00 -1.54452215E+01  7.72261074E+00  7.72261074E+00 -1.54452215E+01
  7.72261074E+00  7.72261074E+00 -1.54452215E+01  7.72261074E+00  7.72261074E+00
 -1.54452215E+01  7.72261074E+00  7.72261074E+00 -1.54452215E+01  7.72261074E+00
  7.72261074E+00 -1.54452215E+01  7.72261074E+00  7.72261074E+00 -1.54452215E+01
  7.72261074E+00  7.72261074E+00 -1.54452215E+01  7.72261074E+00  7.72261074E+00
 -1.54452215E+01  7.72261074E+00  7.72261074E+00 -1.54452215E+01  7.72261074E+00
  7.72261074E+00 -1.54452215E+01  7.72261074E+00  7.72261074E+00 -1.54452215E+01
  7.72261074E+00  7.72261074E+00 -1.54452215E+01  7.72261074E+00  7.72261074E+00
 -1.54452215E+01  7.72261074E+00  7.72261074E+00 -1.54452215E+01  7.72261074E+00
  7.72261074E+00 -1.54452215E+01  7.72261074E+00  7.72261074E+00 -1.54452215E+01
  7.72261074E+00  7.72261074E+00 -1.54452215E+01  7.72261074E+00  7.72261074E+00
 -1.54452215E+01  7.72261074E+00  7.72261074E+00 -1.54452215E+01  7.72261074E+00
  7.72261074E+00 -1.54452215E+01  7.72261074E+00  7.72261074E+00 -1.54452215E+01
  7.72261074E+00  7.72261074E+00 -1.54452215E+01  7.72261074E+00  7.72261074E+00
 -1.54452215E+01  7.72261074E+00  7.72261074E+00 -1.54452215E+01  7.72261074E+00
  7.72261074E+00 -1.54452215E+01  7.72261074E+00  7.72261074E+00 -1.54452215E+01
  7.72261074E+00  7.72261074E+00 -1.54452215E+01  7.72261074E+00  7.72261074E+00
 -1.54452215E+01  7.72261074E+00  7.72261074E+00 -1.54452215E+01  7.72261074E+00
  7.72261074E+00 -1.54452215E+01  7.72261074E+00  7.72261074E+00 -1.54452215E+01
  7.72261074E+00  7.72261074E+00 -1.54452215E+01  7.72261074E+00  7.72261074E+00
 -1.54452215E+01  7.72261074E+00  7.72261074E+00 -1.54452215E+01  7.72261074E+00
  7.72261074E+00 -1.54452215E+01  7.72261074E+00  7.72261074E+00 -1.54452215E+01
  7.72261074E+00  7.72261074E+00 -1.54452215E+01  7.72261074E+00  7.72261074E+00
 -1.54452215E+01  7.72261074E+00  7.72261074E+00 -1.54452215E+01  7.72261074E+00
  7.72261074E+00 -1.54452215E+01  7.72261074E+00  7.72261074E+00 -1.54452215E+01
  7.72261074E+00  7.72261074E+00 -1.54452215E+01  7.72261074E+00  7.72261074E+00
 -1.54452215E+01  7.72261074E+00  7.72261074E+00 -1.54452215E+01  7.72261074E+00
  7.72261074E+00 -1.54452215E+01  7.72261074E+00  7.72261074E+00 -1.54452215E+01
  7.72261074E+00  7.72261074E+00 -1.54452215E+01  7.72261074E+00  7.72261074E+00
 -1.54452215E+01  7.72261074E+00  7.72261074E+00 -1.54452215E+01  7.72261074E+00
  7.72261074E+00 -1.54452215E+01  7.72261074E+00  7.72261074E+00 -1.54452215E+01
  7.72261074E+00  7.72261074E+00 -1.54452215E+01  7.72261074E+00  7.72261074E+00
 -1.54452215E+01  7.72261074E+00  7.72261074E+00 -1.54452215E+01  7.72261074E+00
  7.72261074E+00 -1.54452215E+01  7.72261074E+00  7.72261074E+00 -1.54452215E+01
  7.72261074E+00  7.72261074E+00 -1.54452215E+01  7.72261074E+00  7.72261074E+00
 -1.54452215E+01  7.72261074E+00  7.72261074E+00 -1.54452215E+01  7.72261074E+00
  7.72261074E+00 -1.54452215E+01  7.72261074E+00  7.72261074E+00 -1.54452215E+01
  7.72261074E+00  7.72261074E+00 -1.54452215E+01  7.72261074E+00  7.72261074E+00
 -1.54452215E+01  7.72261074E+00  7.72261074E+00 -1.54452215E+01  7.72261074E+00
  7.72261074E+00 -1.54452215E+01  7.72261074E+00  7.72261074E+00 -1.54452215E+01
  7.72261074E+00  7.72261074E+00 -1.54452215E+01  7.72261074E+00  7.72261074E+00
 -1.54452215E+01  7.72261074E+00  7.72261074E+00 -1.54452215E+01  7.72261074E+00
  7.72261074E+00 -1.54452215E+01  7.72261074E+00  7.72261074E+00 -1.54452215E+01
  7.72261074E+00  7.72261074E+00 -1.54452215E+01  7.72261074E+00  7.72261074E+00
 -1.54452215E+01  7.72261074E+00  7.72261074E+00 -1.54452215E+01  7.72261074E+00
  7.72261074E+00 -1.54452215E+01  7.72261074E+00  7.72261074E+00 -1.54452215E+01
  7.72261074E+00  7.72261074E+00 -1.54452215E+01  7.72261074E+00  7.72261074E+00
 -1.54452215E+01  7.72261074E+00  7.72261074E+00 -1.54452215E+01  7.72261074E+00
  7.72261074E+00 -1.54452215E+01  7.72261074E+00  7.72261074E+00 -1.54452215E+01
  7.72261074E+00  7.72261074E+00 -1.54452215E+01  7.72261074E+00  7.72261074E+00
 -1.54452215E+01  7.72261074E+00  7.72261074E+00 -1.54452215E+01  7.72261074E+00
  7.72261074E+00 -1.54452215E+01  7.72261074E+00  7.72261074E+00 -1.54452215E+01
  7.72261074E+00  7.72261074E+00 -1.54452215E+01  7.72261074E+00  7.72261074E+00
 -1.54452215E+01  7.72261074E+00  7.72261074E+00 -1.54452215E+01  7.72261074E+00
  7.72261074E+00 -1.54452215E+01  7.72261074E+00  7.72261074E+00 -1.54452215E+01
  7.72261074E+00  7.72261074E+00 -1.54452215E+01  7.72261074E+00  7.72261074E+00
 -1.54452215E+01  7.72261074E+00  7.72261074E+00 -1.54452215E+01  7.72261074E+00
  7.72261074E+00 -1.54452215E+01  7.72261074E+00  7.72261074E+00 -1.54452215E+01
  7.72261074E+00  7.72261074E+00 -1.54452215E+01  7.72261074E+00  7.72261074E+00
 -1.54452215E+01  7.72261074E+00  7.72261074E+00 -1.54452215E+01  7.72261074E+00
  7.72261074E+00 -1.54452215E+01  7.72261074E+00  7.72261074E+00 -1.54452215E+01
  7.72261074E+00  7.72261074E+00 -1.54452215E+01  7.72261074E+00  7.72261074E+00
 -1.54452215E+01  7.72261074E+00  7.72261074E+00 -1.54452215E+01  7.72261074E+00
  7.72261074E+00 -1.54452215E+01  7.72261074E+00  7.72261074E+00 -1.54452215E+01
  7.72261074E+00  7.72261074E+00 -1.54452215E+01  7.72261074E+00  7.72261074E+00
 -1.54452215E+01  7.72261074E+00  7.72261074E+00 -1.54452215E+01  7.72261074E+00
  7.72261074E+00 -1.54452215E+01  7.72261074E+00  7.72261074E+00 -1.54452215E+01
  7.72261074E+00  7.72261074E+00 -1.54452215E+01  7.72261074E+00  7.72261074E+00
 -1.54452215E+01  7.72261074E+00  7.72261074E+00 -1.54452215E+01  7.72261074E+00
  7.72261074E+00 -1.54452215E+01  7.72261074E+00  7.72261074E+00 -1.54452215E+01
  7.72261074E+00  7.72261074E+00 -1.54452215E+01  7.72261074E+00  7.72261074E+00
 -1.54452215E+01  7.72261074E+00  7.72261074E+00 -1.54452215E+01  7.72261074E+00
  7.72261074E+00 -1.54452215E+01  7.72261074E+00  7.72261074E+00 -1.54452215E+01
  7.72261074E+00  7.72261074E+00 -1.54452215E+01  7.72261074E+00  7.72261074E+00
 -1.54452215E+01  7.72261074E+00  7.72261074E+00 -1.54452215E+01  7.72261074E+00
  7.72261074E+00 -1.54452215E+01  7.72261074E+00  7.72261074E+00 -1.54452215E+01
  7.72261074E+00  7.72261074E+00 -1.54452215E+01  7.72261074E+00  7.72261074E+00
 -1.54452215E+01  7.72261074E+00  7.72261074E+00 -1.54452215E+01  7.72261074E+00
  7.72261074E+00 -1.54452215E+01  7.72261074E+00  7.72261074E+00 -1.54452215E+01
  7.72261074E+00  7.72261074E+00 -1.54452215E+01  7.72261074E+00  7.72261074E+00
 -1.54452215E+01  7.72261074E+00  7.72261074E+00 -1.54452215E+01  7.72261074E+00
  7.72261074E+00 -1.54452215E+01  7.72261074E+00  7.72261074E+00 -1.54452215E+01
  7.72261074E+00  7.72261074E+00 -1.54452215E+01  7.72261074E+00  7.72261074E+00
 -1.54452215E+01  7.72261074E+00  7.72261074E+00 -1.54452215E+01  7.72261074E+00
  7.72261074E+00 -1.54452215E+01  7.72261074E+00  7.72261074E+00 -1.54452215E+01
  7.72261074E+00  7.72261074E+00 -1.54452215E+01  7.72261074E+00  7.72261074E+00
 -1.54452215E+01  7.72261074E+00  7.72261074E+00 -1.54452215E+01  7.72261074E+00
  7.72261074E+00 -1.54452215E+01  7.72261074E+00  7.72261074E+00 -1.54452215E+01
  7.72261074E+00  7.72261074E+00 -1.54452215E+01  7.72261074E+00  7.72261074E+00
 -1.54452215E+01  7.72261074E+00  7.72261074E+00 -1.54452215E+01  7.72261074E+00
  7.72261074E+00 -1.54452215E+01  7.72261074E+00  7.72261074E+00 -1.54452215E+01
  7.72261074E+00  7.72261074E+00 -1.54452215E+01  7.72261074E+00  7.72261074E+00
 -1.54452215E+01  7.72261074E+00  7.72261074E+00 -1.54452215E+01  7.72261074E+00
  7.72261074E+00 -1.54452215E+01  7.72261074E+00  7.72261074E+00 -1.54452215E+01
  7.72261074E+00  7.72261074E+00 -1.54452215E+01  7.72261074E+00  7.72261074E+00
 -1.54452215E+01  7.72261074E+00  7.72261074E+00 -1.54452215E+01  7.72261074E+00
  7.72261074E+00 -1.54452215E+01  7.72261074E+00  7.72261074E+00 -1.54452215E+01
  7.72261074E+00  7.72261074E+00 -1.54452215E+01  7.72261074E+00  7.72261074E+00
 -1.54452215E+01  7.72261074E+00  7.72261074E+00 -1.54452215E+01  7.72261074E+00
  7.72261074E+00 -1.54452215E+01  7.72261074E+00  7.72261074E+00 -1.54452215E+01
  7.72261074E+00  7.72261074E+00 -1.54452215E+01  7.72261074E+00  7.72261074E+00
 -1.54452215E+01  7.72261074E+00  7.72261074E+00 -1.54452215E+01  7.72261074E+00
  7.72261074E+00 -1.54452215E+01  7.72261074E+00  7.72261074E+00 -1.54452215E+01
  7.72261074E+00  7.72261074E+00 -1.54452215E+01  7.72261074E+00  7.72261074E+00
 -1.54452215E+01  7.72261074E+00  7.72261074E+00 -1.54452215E+01  7.72261074E+00
  7.72261074E+00 -1.54452215E+01  7.72261074E+00  7.72261074E+00 -1.54452215E+01
  7.72261074E+00  7.72261074E+00 -1.54452215E+01  7.72261074E+00  7.72261074E+00
 -1.54452215E+01  7.72261074E+00  7.72261074E+00 -1.54452215E+01  7.72261074E+00
  7.72261074E+00 -1.54452215E+01  7.72261074E+00  7.72261074E+00 -1.54452215E+01
  7.72261074E+00  7.72261074E+00 -1.54452215E+01  7.72261074E+00  7.72261074E+00
 -1.54452215E+01  7.72261074E+00  7.72261074E+00 -1.54452215E+01  7.72261074E+00
  7.72261074E+00 -1.54452215E+01  7.72261074E+00  7.72261074E+00 -1.54452215E+01
  7.72261074E+00  7.72261074E+00 -1.54452215E+01  7.72261074E+00  7.72261074E+00
 -1.54452215E+01  7.72261074E+00  7.72261074E+00 -1.54452215E+01  7.72261074E+00
  7.72261074E+00 -1.54452215E+01  7.72261074E+00  7.72261074E+00 -1.54452215E+01
  7.72261074E+00  7.72261074E+00 -1.54452215E+01  7.72261074E+00  7.72261074E+00
 -1.54452215E+01  7.72261074E+00  7.72261074E+00 -1.54452215E+01  7.72261074E+00
  7.72261074E+00 -1.54452215E+01  7.72261074E+00  7.72261074E+00 -1.54452215E+01
  7.72261074E+00  7.72261074E+00 -1.54452215E+01  7.72261074E+00  7.72261074E+00
 -1.54452215E+01  7.72261074E+00  7.72261074E+00 -1.54452215E+01  7.72261074E+00
  7.72261074E+00 -1.54452215E+01  7.72261074E+00  7.72261074E+00 -1.54452215E+01
  7.72261074E+00  7.72261074E+00 -1.54452215E+01  7.72261074E+00  7.72261074E+00
 -1.54452215E+01  7.72261074E+00  7.72261074E+00 -1.54452215E+01  7.72261074E+00
  7.72261074E+00 -1.54452215E+01  7.72261074E+00  7.72261074E+00 -1.54452215E+01
  7.72261074E+00  7.72261074E+00 -1.54452215E+01  7.72261074E+00  7.72261074E+00
 -1.54452215E+01  7.72261074E+00  7.72261074E+00 -1.54452215E+01  7.72261074E+00
  7.72261074E+00 -1.54452215E+01  7.72261074E+00  7.72261074E+00 -1.54452215E+01
  7.72261074E+00  7.72261074E+00 -1.54452215E+01  7.72261074E+00  7.72261074E+00
 -1.54452215E+01  7.72261074E+00  7.72261074E+00 -1.54452215E+01  7.72261074E+00
  7.72261074E+00 -1.54452215E+01  7.72261074E+00  7.72261074E+00 -1.54452215E+01
  7.72261074E+00  7.72261074E+00 -1.54452215E+01  7.72261074E+00  7.72261074E+00
 -1.54452215E+01  7.72261074E+00  7.72261074E+00 -1.54452215E+01  7.72261074E+00
  7.72261074E+00 -1.54452215E+01  7.72261074E+00  7.72261074E+00 -1.54452215E+01
  7.72261074E+00  7.72261074E+00 -1.54452215E+01  7.72261074E+00  7.72261074E+00
 -1.54452215E+01  7.72261074E+00  7.72261074E+00 -1.54452215E+01  7.72261074E+00
  7.72261074E+00 -1.54452215E+01  7.72261074E+00  7.72261074E+00 -1.54452215E+01
  7.72261074E+00  7.72261074E+00 -1.54452215E+01  7.72261074E+00  7.72261074E+00
 -1.54452215E+01  7.72261074E+00  7.72261074E+00 -1.54452215E+01  7.72261074E+00
  7.72261074E+00 -1.54452215E+01  7.72261074E+00  7.72261074E+00 -1.54452215E+01
  7.72261074E+00  7.72261074E+00 -1.54452215E+01  7.72261074E+00  7.72261074E+00
 -1.54452215E+01  7.72261074E+00  7.72261074E+00 -1.54452215E+01  7.72261074E+00
  7.72261074E+00 -1.54452215E+01  7.72261074E+00  7.72261074E+00 -1.54452215E+01
  7.72261074E+00  7.72261074E+00 -1.54452215E+01  7.72261074E+00  7.72261074E+00
 -1.54452215E+01  7.72261074E+00  7.72261074E+00 -1.54452215E+01  7.72261074E+00
  7.72261074E+00 -1.54452215E+01  7.72261074E+00  7.72261074E+00 -1.54452215E+01
  7.72261074E+00  7.72261074E+00 -1.54452215E+01  7.72261074E+00  7.72261074E+00
 -1.54452215E+01  7.72261074E+00  7.72261074E+00 -1.54452215E+01  7.72261074E+00
  7.72261074E+00 -1.54452215E+01  7.72261074E+00  7.72261074E+00 -1.54452215E+01
  7.72261074E+00  7.72261074E+00 -1.54452215E+01  7.72261074E+00  7.72261074E+00
 -1.54452215E+01  7.72261074E+00  7.72261074E+00 -1.54452215E+01  7.72261074E+00
  7.72261074E+00 -1.54452215E+01  7.72261074E+00  7.72261074E+00 -1.54452215E+01
  7.72261074E+00  7.72261074E+00 -1.54452215E+01  7.72261074E+00  7.72261074E+00
 -1.54452215E+01  7.72261074E+00  7.72261074E+00 -1.54452215E+01  7.72261074E+00
  7.72261074E+00 -1.54452215E+01  7.72261074E+00  7.72261074E+00 -1.54452215E+01
  7.72261074E+00  7.72261074E+00 -1.54452215E+01  7.72261074E+00  7.72261074E+00
 -1.54452215E+01  7.72261074E+00  7.72261074E+00 -1.54452215E+01  7.72261074E+00
  7.72261074E+00 -1.54452215E+01  7.72261074E+00  7.72261074E+00 -1.54452215E+01
  7.72261074E+00  7.72261074E+00 -1.54452215E+01  7.72261074E+00  7.72261074E+00
 -1.54452215E+01  7.72261074E+00  7.72261074E+00 -1.54452215E+01  7.72261074E+00
  7.72261074E+00 -1.54452215E+01  7.72261074E+00  7.72261074E+00 -1.54452215E+01
  7.72261074E+00  7.72261074E+00 -1.54452215E+01  7.72261074E+00  7.72261074E+00
 -1.54452215E+01  7.72261074E+00  7.72261074E+00 -1.54452215E+01  7.72261074E+00
  7.72261074E+00 -1.54452215E+01  7.72261074E+00  7.72261074E+00 -1.54452215E+01
  7.72261074E+00  7.72261074E+00 -1.54452215E+01  7.72261074E+00  7.72261074E+00
 -1.54452215E+01  7.72261074E+00  7.72261074E+00 -1.54452215E+01  7.72261074E+00
  7.72261074E+00 -1.54452215E+01  7.72261074E+00  7.72261074E+00 -1.54452215E+01
  7.72261074E+00  7.72261074E+00 -1.54452215E+01  7.72261074E+00  7.72261074E+00
 -1.54452215E+01  7.72261074E+00  7.72261074E+00 -1.54452215E+01  7.72261074E+00
  7.72261074E+00 -1.54452215E+01  7.72261074E+00  7.72261074E+00 -1.54452215E+01
  7.72261074E+00  7.72261074E+00 -1.54452215E+01  7.72261074E+00  7.72261074E+00
 -1.54452215E+01  7.72261074E+00  7.72261074E+00 -1.54452215E+01  7.72261074E+00
  7.72261074E+00 -1.54452215E+01  7.72261074E+00  7.72261074E+00 -1.54452215E+01
  7.72261074E+00  7.72261074E+00 -1.54452215E+01  7.72261074E+00  7.72261074E+00
 -1.54452215E+01  7.72261074E+00  7.72261074E+00 -1.54452215E+01  7.72261074E+00
  7.72261074E+00 -1.54452215E+01  7.72261074E+00  7.72261074E+00 -1.54452215E+01
  7.72261074E+00  7.72261074E+00 -1.54452215E+01  7.72261074E+00  7.72261074E+00
 -1.54452215E+01  7.72261074E+00  7.72261074E+00 -1.54452215E+01  7.72261074E+00
  7.72261074E+00 -1.54452215E+01  7.72261074E+00  7.72261074E+00 -1.54452215E+01
  7.72261074E+00  7.72261074E+00 -1.54452215E+01  7.72261074E+00  7.72261074E+00
 -1.54452215E+01  7.72261074E+00  7.72261074E+00 -1.54452215E+01  7.72261074E+00
  7.72261074E+00 -1.54452215E+01  7.72261074E+00  7.72261074E+00 -1.54452215E+01
  7.72261074E+00  7.72261074E+00 -1.54452215E+01  7.72261074E+00  7.72261074E+00
 -1.54452215E+01  7.72261074E+00  7.72261074E+00 -1.54452215E+01  7.72261074E+00
  7.72261074E+00 -1.54452215E+01  7.72261074E+00  7.72261074E+00 -1.54452215E+01
  7.72261074E+00  7.72261074E+00 -1.54452215E+01  7.72261074E+00  7.72261074E+00
 -1.54452215E+01  7.72261074E+00  7.72261074E+00 -1.54452215E+01  7.72261074E+00
  7.72261074E+00 -1.54452215E+01  7.72261074E+00  7.72261074E+00 -1.54452215E+01
  7.72261074E+00  7.72261074E+00 -1.54452215E+01  7.72261074E+00  7.72261074E+00
 -1.54452215E+01  7.72261074E+00  7.72261074E+00 -1.54452215E+01  7.72261074E+00
  7.72261074E+00 -1.54452215E+01  7.72261074E+00  7.72261074E+00 -1.54452215E+01
  7.72261074E+00  7.72261074E+00 -1.54452215E+01  7.72261074E+00  7.72261074E+00
 -1.54452215E+01  7.72261074E+00  7.72261074E+00 -1.54452215E+01  7.72261074E+00
  7.72261074E+00 -1.54452215E+01  7.72261074E+00  7.72261074E+00 -1.54452215E+01
  7.72261074E+00  7.72261074E+00 -1.54452215E+01  7.72261074E+00  7.72261074E+00
 -1.54452215E+01  7.72261074E+00  7.72261074E+00 -1.54452215E+01  7.72261074E+00
  7.72261074E+00 -1.54452215E+01  7.72261074E+00  7.72261074E+00 -1.54452215E+01
  7.72261074E+00  7.72261074E+00 -1.54452215E+01  7.72261074E+00  7.72261074E+00
 -1.54452215E+01  7.72261074E+00  7.72261074E+00 -1.54452215E+01  7.72261074E+00
  7.72261074E+00 -1.54452215E+01  7.72261074E+00  7.72261074E+00 -1.54452215E+01
  7.72261074E+00  7.72261074E+00 -1.54452215E+01  7.72261074E+00  7.72261074E+00
 -1.54452215E+01  7.72261074E+00  7.72261074E+00 -1.54452215E+01  7.72261074E+00
  7.72261074E+00 -1.54452215E+01  7.72261074E+00  7.72261074E+00 -1.54452215E+01
  7.72261074E+00  7.72261074E+00 -1.54452215E+01  7.72261074E+00  7.72261074E+00
 -1.54452215E+01  7.72261074E+00  7.72261074E+00 -1.54452215E+01  7.72261074E+00
  7.72261074E+00 -1.54452215E+01  7.72261074E+00  7.72261074E+00 -1.54452215E+01
  7.72261074E+00  7.72261074E+00 -1.54452215E+01  7.72261074E+00  7.72261074E+00
 -1.54452215E+01  7.72261074E+00  7.72261074E+00 -1.54452215E+01  7.72261074E+00
  7.72261074E+00 -1.54452215E+01  7.72261074E+00  7.72261074E+00 -1.54452215E+01
  7.72261074E+00  7.72261074E+00 -1.54452215E+01  7.72261074E+00  7.72261074E+00
 -1.54452215E+01  7.72261074E+00  7.72261074E+00 -1.54452215E+01  7.72261074E+00
  7.72261074E+00 -1.54452215E+01  7.72261074E+00  7.72261074E+00 -1.54452215E+01
  7.72261074E+00  7.72261074E+00 -1.54452215E+01  7.72261074E+00  7.72261074E+00
 -1.54452215E+01  7.72261074E+00  7.72261074E+00 -1.54452215E+01  7.72261074E+00
  7.72261074E+00 -1.54452215E+01  7.72261074E+00  7.72261074E+00 -1.54452215E+01
  7.72261074E+00  7.72261074E+00 -1.54452215E+01  7.72261074E+00  7.72261074E+00
 -1.54452215E+01  7.72261074E+00  7.72261074E+00 -1.54452215E+01  7.72261074E+00
  7.72261074E+00 -1.54452215E+01  7.72261074E+00  7.72261074E+00 -1.54452215E+01
  7.72261074E+00  7.72261074E+00 -1.54452215E+01  7.72261074E+00  7.72261074E+00
 -1.54452215E+01  7.72261074E+00  7.72261074E+00 -1.54452215E+01  7.72261074E+00
  7.72261074E+00 -1.54452215E+01  7.72261074E+00  7.72261074E+00 -1.54452215E+01
  7.72261074E+00  7.72261074E+00 -1.54452215E+01  7.72261074E+00  7.72261074E+00
 -1.54452215E+01  7.72261074E+00  7.72261074E+00 -1.54452215E+01  7.72261074E+00
  7.72261074E+00 -1.54452215E+01  7.72261074E+00  7.72261074E+00 -1.54452215E+01
  7.72261074E+00  7.72261074E+00 -1.54452215E+01  7.72261074E+00  7.72261074E+00
 -1.54452215E+01  7.72261074E+00  7.72261074E+00 -1.54452215E+01  7.72261074E+00
  7.72261074E+00 -1.54452215E+01  7.72261074E+00  7.72261074E+00 -1.54452215E+01
  7.72261074E+00  7.72261074E+00 -1.54452215E+01  7.72261074E+00  7.72261074E+00
 -1.54452215E+01  7.72261074E+00  7.72261074E+00 -1.54452215E+01  7.72261074E+00
  7.72261074E+00 -1.54452215E+01  7.72261074E+00  7.72261074E+00 -1.54452215E+01
  7.72261074E+00  7.72261074E+00 -1.54452215E+01  7.72261074E+00  7.72261074E+00
 -1.54452215E+01  7.72261074E+00  7.72261074E+00 -1.54452215E+01  7.72261074E+00
  7.72261074E+00 -1.54452215E+01  7.72261074E+00  7.72261074E+00 -1.54452215E+01
  7.72261074E+00  7.72261074E+00 -1.54452215E+01  7.72261074E+00  7.72261074E+00
 -1.54452215E+01  7.72261074E+00  7.72261074E+00 -1.54452215E+01  7.72261074E+00
  7.72261074E+00 -1.54452215E+01  7.72261074E+00  7.72261074E+00 -1.54452215E+01
  7.72261074E+00  7.72261074E+00 -1.54452215E+01  7.72261074E+00  7.72261074E+00
 -1.54452215E+01  7.72261074E+00  7.72261074E+00 -1.54452215E+01  7.72261074E+00
  7.72261074E+00 -1.54452215E+01  7.72261074E+00  7.72261074E+00 -1.54452215E+01
  7.72261074E+00  7.72261074E+00 -1.54452215E+01  7.72261074E+00  7.72261074E+00
 -1.54452215E+01  7.72261074E+00  7.72261074E+00 -1.54452215E+01  7.72261074E+00
  7.72261074E+00 -1.54452215E+01  7.72261074E+00  7.72261074E+00 -1.54452215E+01
  7.72261074E+00  7.72261074E+00 -1.54452215E+01  7.72261074E+00  7.72261074E+00
 -1.54452215E+01  7.72261074E+00  7.72261074E+00 -1.54452215E+01  7.72261074E+00
  7.72261074E+00 -1.54452215E+01  7.72261074E+00  7.72261074E+00 -1.54452215E+01
  7.72261074E+00  7.72261074E+00 -1.54452215E+01  7.72261074E+00  7.72261074E+00
 -1.54452215E+01  7.72261074E+00  7.72261074E+00 -1.54452215E+01  7.72261074E+00
  7.72261074E+00 -1.54452215E+01  7.72261074E+00  7.72261074E+00 -1.54452215E+01
  7.72261074E+00  7.72261074E+00 -1.54452215E+01  7.72261074E+00  7.72261074E+00
 -1.54452215E+01  7.72261074E+00  7.72261074E+00 -1.54452215E+01  7.72261074E+00
  7.72261074E+00 -1.54452215E+01  7.72261074E+00  7.72261074E+00 -1.54452215E+01
  7.72261074E+00  7.72261074E+00 -1.54452215E+01  7.72261074E+00  7.72261074E+00
 -1.54452215E+01  7.72261074E+00  7.72261074E+00 -1.54452215E+01  7.72261074E+00
  7.72261074E+00 -1.54452215E+01  7.72261074E+00  7.72261074E+00 -1.54452215E+01
  7.72261074E+00  7.72261074E+00 -1.54452215E+01  7.72261074E+00  7.72261074E+00
 -1.54452215E+01  7.72261074E+00  7.72261074E+00 -1.54452215E+01  7.72261074E+00
  7.72261074E+00 -1.54452215E+01  7.72261074E+00  7.72261074E+00 -1.54452215E+01
  7.72261074E+00  7.72261074E+00 -1.54452215E+01  7.72261074E+00  7.72261074E+00
 -1.54452215E+01  7.72261074E+00  7.72261074E+00 -1.54452215E+01  7.72261074E+00
  7.72261074E+00 -1.54452215E+01  7.72261074E+00  7.72261074E+00 -1.54452215E+01
  7.72261074E+00  7.72261074E+00 -1.54452215E+01  7.72261074E+00  7.72261074E+00
 -1.54452215E+01  7.72261074E+00  7.72261074E+00 -1.54452215E+01  7.72261074E+00
  7.72261074E+00 -1.54452215E+01  7.72261074E+00  7.72261074E+00 -1.54452215E+01
  7.72261074E+00  7.72261074E+00 -1.54452215E+01  7.72261074E+00  7.72261074E+00
 -1.54452215E+01  7.72261074E+00  7.72261074E+00 -1.54452215E+01  7.72261074E+00
  7.72261074E+00 -1.54452215E+01  7.72261074E+00  7.72261074E+00 -1.54452215E+01
  7.72261074E+00  7.72261074E+00 -1.54452215E+01  7.72261074E+00  7.72261074E+00
 -1.54452215E+01  7.72261074E+00  7.72261074E+00 -1.54452215E+01  7.72261074E+00
  7.72261074E+00 -1.54452215E+01  7.72261074E+00  7.72261074E+00 -1.54452215E+01
  7.72261074E+00  7.72261074E+00 -1.54452215E+01  7.72261074E+00  7.72261074E+00
 -1.54452215E+01  7.72261074E+00  7.72261074E+00 -1.54452215E+01  7.72261074E+00
  7.72261074E+00 -1.54452215E+01  7.72261074E+00  7.72261074E+00 -1.54452215E+01
  7.72261074E+00  7.72261074E+00 -1.54452215E+01  7.72261074E+00  7.72261074E+00
 -1.54452215E+01  7.72261074E+00  7.72261074E+00 -1.54452215E+01  7.72261074E+00
  7.72261074E+00 -1.54452215E+01  7.72261074E+00  7.72261074E+00 -1.54452215E+01
  7.72261074E+00  7.72261074E+00 -1.54452215E+01  7.72261074E+00  7.72261074E+00
 -1.54452215E+01  7.72261074E+00  7.72261074E+00 -1.54452215E+01  7.72261074E+00
  7.72261074E+00 -1.54452215E+01  7.72261074E+00  7.72261074E+00 -1.54452215E+01
  7.72261074E+00  7.72261074E+00 -1.54452215E+01  7.72261074E+00  7.72261074E+00
 -1.54452215E+01  7.72261074E+00  7.72261074E+00 -1.54452215E+01  7.72261074E+00
  7.72261074E+00 -1.54452215E+01  7.72261074E+00  7.72261074E+00 -1.54452215E+01
  7.72261074E+00  7.72261074E+00 -1.54452215E+01  7.72261074E+00  7.72261074E+00
 -1.54452215E+01  7.72261074E+00  7.72261074E+00 -1.54452215E+01  7.72261074E+00
  7.72261074E+00 -1.54452215E+01  7.72261074E+00  7.72261074E+00 -1.54452215E+01
  7.72261074E+00  7.72261074E+00 -1.54452215E+01  7.72261074E+00  7.72261074E+00
 -1.54452215E+01  7.72261074E+00  7.72261074E+00 -1.54452215E+01  7.72261074E+00
  7.72261074E+00 -1.54452215E+01  7.72261074E+00  7.72261074E+00 -1.54452215E+01
  7.72261074E+00  7.72261074E+00 -1.54452215E+01  7.72261074E+00  7.72261074E+00
 -1.54452215E+01  7.72261074E+00  7.72261074E+00 -1.54452215E+01  7.72261074E+00
  7.72261074E+00 -1.54452215E+01  7.72261074E+00  7.72261074E+00 -1.54452215E+01
  7.72261074E+00  7.72261074E+00 -1.54452215E+01  7.72261074E+00  7.72261074E+00
 -1.54452215E+01  7.72261074E+00  7.72261074E+00 -1.54452215E+01  7.72261074E+00
  7.72261074E+00 -1.54452215E+01  7.72261074E+00  7.72261074E+00 -1.54452215E+01
  7.72261074E+00  7.72261074E+00 -1.54452215E+01  7.72261074E+00  7.72261074E+00
 -1.54452215E+01  7.72261074E+00  7.72261074E+00 -1.54452215E+01  7.72261074E+00
  7.72261074E+00 -1.54452215E+01  7.72261074E+00  7.72261074E+00 -1.54452215E+01
  7.72261074E+00  7.72261074E+00 -1.54452215E+01  7.72261074E+00  7.72261074E+00
 -1.54452215E+01  7.72261074E+00  7.72261074E+00 -1.54452215E+01  7.72261074E+00
  7.72261074E+00 -1.54452215E+01  7.72261074E+00  7.72261074E+00 -1.54452215E+01
  7.72261074E+00  7.72261074E+00 -1.54452215E+01  7.72261074E+00  7.72261074E+00
 -1.54452215E+01  7.72261074E+00  7.72261074E+00 -1.54452215E+01  7.72261074E+00
  7.72261074E+00 -1.54452215E+01  7.72261074E+00  7.72261074E+00 -1.54452215E+01
  7.72261074E+00  7.72261074E+00 -1.54452215E+01  7.72261074E+00  7.72261074E+00
 -1.54452215E+01  7.72261074E+00  7.72261074E+00 -1.54452215E+01  7.72261074E+00
  7.72261074E+00 -1.54452215E+01  7.72261074E+00  7.72261074E+00 -1.54452215E+01
  7.72261074E+00  7.72261074E+00 -1.54452215E+01  7.72261074E+00  7.72261074E+00
 -1.54452215E+01  7.72261074E+00  7.72261074E+00 -1.54452215E+01  7.72261074E+00
  7.72261074E+00 -1.54452215E+01  7.72261074E+00  7.72261074E+00 -1.54452215E+01
  7.72261074E+00  7.72261074E+00 -1.54452215E+01  7.72261074E+00  7.72261074E+00
 -1.54452215E+01  7.72261074E+00  7.72261074E+00 -1.54452215E+01  7.72261074E+00
  7.72261074E+00 -1.54452215E+01  7.72261074E+00  7.72261074E+00 -1.54452215E+01
  7.72261074E+00  7.72261074E+00 -1.54452215E+01  7.72261074E+00  7.72261074E+00
 -1.54452215E+01  7.72261074E+00  7.72261074E+00 -1.54452215E+01  7.72261074E+00
  7.72261074E+00 -1.54452215E+01  7.72261074E+00  7.72261074E+00 -1.54452215E+01
  7.72261074E+00  7.72261074E+00 -1.54452215E+01  7.72261074E+00  7.72261074E+00
 -1.54452215E+01  7.72261074E+00  7.72261074E+00 -1.54452215E+01  7.72261074E+00
  7.72261074E+00 -1.54452215E+01  7.72261074E+00  7.72261074E+00 -1.54452215E+01
  7.72261074E+00  7.72261074E+00 -1.54452215E+01  7.72261074E+00  7.72261074E+00
 -1.54452215E+01  7.72261074E+00  7.72261074E+00 -1.54452215E+01  7.72261074E+00
  7.72261074E+00 -1.54452215E+01  7.72261074E+00  7.72261074E+00 -1.54452215E+01
  7.72261074E+00  7.72261074E+00 -1.54452215E+01  7.72261074E+00  7.72261074E+00
 -1.54452215E+01  7.72261074E+00  7.72261074E+00 -1.54452215E+01  7.72261074E+00
  7.72261074E+00 -1.54452215E+01  7.72261074E+00  7.72261074E+00 -1.54452215E+01
  7.72261074E+00  7.72261074E+00 -1.54452215E+01  7.72261074E+00  7.72261074E+00
 -1.54452215E+01  7.72261074E+00  7.72261074E+00 -1.54452215E+01  7.72261074E+00
  7.72261074E+00 -1.54452215E+01  7.72261074E+00  7.72261074E+00 -1.54452215E+01
  7.72261074E+00  7.72261074E+00 -1.54452215E+01  7.72261074E+00  7.72261074E+00
 -1.54452215E+01  7.72261074E+00  7.72261074E+00 -1.54452215E+01  7.72261074E+00
  7.72261074E+00 -1.54452215E+01  7.72261074E+00  7.72261074E+00 -1.54452215E+01
  7.72261074E+00  7.72261074E+00 -1.54452215E+01  7.72261074E+00  7.72261074E+00
 -1.54452215E+01  7.72261074E+00  7.72261074E+00 -1.54452215E+01  7.72261074E+00
  7.72261074E+00 -1.54452215E+01  7.72261074E+00  7.72261074E+00 -1.54452215E+01
  7.72261074E+00  7.72261074E+00 -1.54452215E+01  7.72261074E+00  7.72261074E+00
 -1.54452215E+01  7.72261074E+00  7.72261074E+00 -1.54452215E+01  7.72261074E+00
  7.72261074E+00 -1.54452215E+01  7.72261074E+00  7.72261074E+00 -1.54452215E+01
  7.72261074E+00  7.72261074E+00 -1.54452215E+01  7.72261074E+00  7.72261074E+00
 -1.54452215E+01  7.72261074E+00  7.72261074E+00 -1.54452215E+01  7.72261074E+00
  7.72261074E+00 -1.54452215E+01  7.72261074E+00  7.72261074E+00 -1.54452215E+01
  7.72261074E+00  7.72261074E+00 -1.54452215E+01  7.72261074E+00  7.72261074E+00
 -1.54452215E+01  7.72261074E+00  7.72261074E+00 -1.54452215E+01  7.72261074E+00
  7.72261074E+00 -1.54452215E+01  7.72261074E+00  7.72261074E+00 -1.54452215E+01
  7.72261074E+00  7.72261074E+00 -1.54452215E+01  7.72261074E+00  7.72261074E+00
 -1.54452215E+01  7.72261074E+00  7.72261074E+00 -1.54452215E+01  7.72261074E+00
  7.72261074E+00 -1.54452215E+01  7.72261074E+00  7.72261074E+00 -1.54452215E+01
  7.72261074E+00  7.72261074E+00 -1.54452215E+01  7.72261074E+00  7.72261074E+00
 -1.54452215E+01  7.72261074E+00  7.72261074E+00 -1.54452215E+01  7.72261074E+00
  7.72261074E+00 -1.54452215E+01  7.72261074E+00  7.72261074E+00 -1.54452215E+01
  7.72261074E+00  7.72261074E+00 -1.54452215E+01  7.72261074E+00  7.72261074E+00
 -1.54452215E+01  7.72261074E+00  7.72261074E+00 -1.54452215E+01  7.72261074E+00
  7.72261074E+00 -1.54452215E+01  7.72261074E+00  7.72261074E+00 -1.54452215E+01
  7.72261074E+00  7.72261074E+00 -1.54452215E+01  7.72261074E+00  7.72261074E+00
 -1.54452215E+01  7.72261074E+00  7.72261074E+00 -1.54452215E+01  7.72261074E+00
  7.72261074E+00 -1.54452215E+01  7.72261074E+00  7.72261074E+00 -1.54452215E+01
  7.72261074E+00  7.72261074E+00 -1.54452215E+01  7.72261074E+00  7.72261074E+00
 -1.54452215E+01  7.72261074E+00  7.72261074E+00 -1.54452215E+01  7.72261074E+00
  7.72261074E+00 -1.54452215E+01  7.72261074E+00  7.72261074E+00 -1.54452215E+01
  7.72261074E+00  7.72261074E+00 -1.54452215E+01  7.72261074E+00  7.72261074E+00
 -1.54452215E+01  7.72261074E+00  7.72261074E+00 -1.54452215E+01  7.72261074E+00
  7.72261074E+00 -1.54452215E+01  7.72261074E+00  7.72261074E+00 -1.54452215E+01
  7.72261074E+00  7.72261074E+00 -1.54452215E+01  7.72261074E+00  7.72261074E+00
 -1.54452215E+01  7.72261074E+00  7.72261074E+00 -1.54452215E+01  7.72261074E+00
  7.72261074E+00 -1.54452215E+01  7.72261074E+00  7.72261074E+00 -1.54452215E+01
  7.72261074E+00  7.72261074E+00 -1.54452215E+01  7.72261074E+00  7.72261074E+00
 -1.54452215E+01  7.72261074E+00  7.72261074E+00 -1.54452215E+01  7.72261074E+00
  7.72261074E+00 -1.54452215E+01  7.72261074E+00  7.72261074E+00 -1.54452215E+01
  7.72261074E+00  7.72261074E+00 -1.54452215E+01  7.72261074E+00  7.72261074E+00
 -1.54452215E+01  7.72261074E+00  7.72261074E+00 -1.54452215E+01  7.72261074E+00
  7.72261074E+00 -1.54452215E+01  7.72261074E+00  7.72261074E+00 -1.54452215E+01
  7.72261074E+00  7.72261074E+00 -1.54452215E+01  7.72261074E+00  7.72261074E+00
 -1.54452215E+01  7.72261074E+00  7.72261074E+00 -1.54452215E+01  7.72261074E+00
  7.72261074E+00 -1.54452215E+01  7.72261074E+00  7.72261074E+00 -1.54452215E+01
  7.72261074E+00  7.72261074E+00 -1.54452215E+01  7.72261074E+00  7.72261074E+00
 -1.54452215E+01  7.72261074E+00  7.72261074E+00 -1.54452215E+01  7.72261074E+00
  7.72261074E+00 -1.54452215E+01  7.72261074E+00  7.72261074E+00 -1.54452215E+01
  7.72261074E+00  7.72261074E+00 -1.54452215E+01  7.72261074E+00  7.72261074E+00
 -1.54452215E+01  7.72261074E+00  7.72261074E+00 -1.54452215E+01  7.72261074E+00
  7.72261074E+00 -1.54452215E+01  7.72261074E+00  7.72261074E+00 -1.54452215E+01
  7.72261074E+00  7.72261074E+00 -1.54452215E+01  7.72261074E+00  7.72261074E+00
 -1.54452215E+01  7.72261074E+00  7.72261074E+00 -1.54452215E+01  7.72261074E+00
  7.72261074E+00 -1.54452215E+01  7.72261074E+00  7.72261074E+00 -1.54452215E+01
  7.72261074E+00  7.72261074E+00 -1.54452215E+01  7.72261074E+00  7.72261074E+00
 -1.54452215E+01  7.72261074E+00  7.72261074E+00 -1.54452215E+01  7.72261074E+00
  7.72261074E+00 -1.54452215E+01  7.72261074E+00  7.72261074E+00 -1.54452215E+01
  7.72261074E+00  7.72261074E+00 -1.54452215E+01  7.72261074E+00  7.72261074E+00
 -1.54452215E+01  7.72261074E+00  7.72261074E+00 -1.54452215E+01  7.72261074E+00
  7.72261074E+00 -1.54452215E+01  7.72261074E+00  7.72261074E+00 -1.54452215E+01
  7.72261074E+00  7.72261074E+00 -1.54452215E+01  7.72261074E+00  7.72261074E+00
 -1.54452215E+01  7.72261074E+00  7.72261074E+00 -1.54452215E+01  7.72261074E+00
  7.72261074E+00 -1.54452215E+01  7.72261074E+00  7.72261074E+00 -1.54452215E+01
  7.72261074E+00  7.72261074E+00 -1.54452215E+01  7.72261074E+00  7.72261074E+00
 -1.54452215E+01  7.72261074E+00  7.72261074E+00 -1.54452215E+01  7.72261074E+00
  7.72261074E+00 -1.54452215E+01  7.72261074E+00  7.72261074E+00 -1.54452215E+01
  7.72261074E+00  7.72261074E+00 -1.54452215E+01  7.72261074E+00  7.72261074E+00
 -1.54452215E+01  7.72261074E+00  7.72261074E+00 -1.54452215E+01  7.72261074E+00
  7.72261074E+00 -1.54452215E+01  7.72261074E+00  7.72261074E+00 -1.54452215E+01
  7.72261074E+00  7.72261074E+00 -1.54452215E+01  7.72261074E+00  7.72261074E+00
 -1.54452215E+01  7.72261074E+00  7.72261074E+00 -1.54452215E+01  7.72261074E+00
  7.72261074E+00 -1.54452215E+01  7.72261074E+00  7.72261074E+00 -1.54452215E+01
  7.72261074E+00  7.72261074E+00 -1.54452215E+01  7.72261074E+00  7.72261074E+00
 -1.54452215E+01  7.72261074E+00  7.72261074E+00 -1.54452215E+01  7.72261074E+00
  7.72261074E+00 -1.54452215E+01  7.72261074E+00  7.72261074E+00 -1.54452215E+01
  7.72261074E+00  7.72261074E+00 -1.54452215E+01  7.72261074E+00  7.72261074E+00
 -1.54452215E+01  7.72261074E+00  7.72261074E+00 -1.54452215E+01  7.72261074E+00
  7.72261074E+00 -1.54452215E+01  7.72261074E+00  7.72261074E+00 -1.54452215E+01
  7.72261074E+00  7.72261074E+00 -1.54452215E+01  7.72261074E+00  7.72261074E+00
 -1.54452215E+01  7.72261074E+00  7.72261074E+00 -1.54452215E+01  7.72261074E+00
  7.72261074E+00 -1.54452215E+01  7.72261074E+00  7.72261074E+00 -1.54452215E+01
  7.72261074E+00  7.72261074E+00 -1.54452215E+01  7.72261074E+00  7.72261074E+00
 -1.54452215E+01  7.72261074E+00  7.72261074E+00 -1.54452215E+01  7.72261074E+00
  7.72261074E+00 -1.54452215E+01  7.72261074E+00  7.72261074E+00 -1.54452215E+01
  7.72261074E+00  7.72261074E+00 -1.54452215E+01  7.72261074E+00  7.72261074E+00
 -1.54452215E+01  7.72261074E+00  7.72261074E+00 -1.54452215E+01  7.72261074E+00
  7.72261074E+00 -1.54452215E+01  7.72261074E+00  7.72261074E+00 -1.54452215E+01
  7.72261074E+00  7.72261074E+00 -1.54452215E+01  7.72261074E+00  7.72261074E+00
 -1.54452215E+01  7.72261074E+00  7.72261074E+00 -1.54452215E+01  7.72261074E+00
  7.72261074E+00 -1.54452215E+01  7.72261074E+00  7.72261074E+00 -1.54452215E+01
  7.72261074E+00  7.72261074E+00 -1.54452215E+01  7.72261074E+00  7.72261074E+00
 -1.54452215E+01  7.72261074E+00  7.72261074E+00 -1.54452215E+01  7.72261074E+00
  7.72261074E+00 -1.54452215E+01  7.72261074E+00  7.72261074E+00 -1.54452215E+01
  7.72261074E+00  7.72261074E+00 -1.54452215E+01  7.72261074E+00  7.72261074E+00
 -1.54452215E+01  7.72261074E+00  7.72261074E+00 -1.54452215E+01  7.72261074E+00
  7.72261074E+00 -1.54452215E+01  7.72261074E+00  7.72261074E+00 -1.54452215E+01
  7.72261074E+00  7.72261074E+00 -1.54452215E+01  7.72261074E+00  7.72261074E+00
 -1.54452215E+01  7.72261074E+00  7.72261074E+00 -1.54452215E+01  7.72261074E+00
  7.72261074E+00 -1.54452215E+01  7.72261074E+00  7.72261074E+00 -1.54452215E+01
  7.72261074E+00  7.72261074E+00 -1.54452215E+01  7.72261074E+00  7.72261074E+00
 -1.54452215E+01  7.72261074E+00  7.72261074E+00 -1.54452215E+01  7.72261074E+00
  7.72261074E+00 -1.54452215E+01  7.72261074E+00  7.72261074E+00 -1.54452215E+01
  7.72261074E+00  7.72261074E+00 -1.54452215E+01  7.72261074E+00  7.72261074E+00
 -1.54452215E+01  7.72261074E+00  7.72261074E+00 -1.54452215E+01  7.72261074E+00
  7.72261074E+00 -1.54452215E+01  7.72261074E+00  7.72261074E+00 -1.54452215E+01
  7.72261074E+00  7.72261074E+00 -1.54452215E+01  7.72261074E+00  7.72261074E+00
 -1.54452215E+01  7.72261074E+00  7.72261074E+00 -1.54452215E+01  7.72261074E+00
  7.72261074E+00 -1.54452215E+01  7.72261074E+00  7.72261074E+00 -1.54452215E+01
  7.72261074E+00  7.72261074E+00 -1.54452215E+01  7.72261074E+00  7.72261074E+00
 -1.54452215E+01  7.72261074E+00  7.72261074E+00 -1.54452215E+01  7.72261074E+00
  7.72261074E+00 -1.54452215E+01  7.72261074E+00  7.72261074E+00 -1.54452215E+01
  7.72261074E+00  7.72261074E+00 -1.54452215E+01  7.72261074E+00  7.72261074E+00
 -1.54452215E+01  7.72261074E+00  7.72261074E+00 -1.54452215E+01  7.72261074E+00
  7.72261074E+00 -1.54452215E+01  7.72261074E+00  7.72261074E+00 -1.54452215E+01
  7.72261074E+00  7.72261074E+00 -1.54452215E+01  7.72261074E+00  7.72261074E+00
 -1.54452215E+01  7.72261074E+00  7.72261074E+00 -1.54452215E+01  7.72261074E+00
  7.72261074E+00 -1.54452215E+01  7.72261074E+00  7.72261074E+00 -1.54452215E+01
  7.72261074E+00  7.72261074E+00 -1.54452215E+01  7.72261074E+00  7.72261074E+00
 -1.54452215E+01  7.72261074E+00  7.72261074E+00 -1.54452215E+01  7.72261074E+00
  7.72261074E+00 -1.54452215E+01  7.72261074E+00  7.72261074E+00 -1.54452215E+01
  7.72261074E+00  7.72261074E+00 -1.54452215E+01  7.72261074E+00  7.72261074E+00
 -1.54452215E+01  7.72261074E+00  7.72261074E+00 -1.54452215E+01  7.72261074E+00
  7.72261074E+00 -1.54452215E+01  7.72261074E+00  7.72261074E+00 -1.54452215E+01
  7.72261074E+00  7.72261074E+00 -1.54452215E+01  7.72261074E+00  7.72261074E+00
 -1.54452215E+01  7.72261074E+00  7.72261074E+00 -1.54452215E+01  7.72261074E+00
  7.72261074E+00 -1.54452215E+01  7.72261074E+00  7.72261074E+00 -1.54452215E+01
  7.72261074E+00  7.72261074E+00 -1.54452215E+01  7.72261074E+00  7.72261074E+00
 -1.54452215E+01  7.72261074E+00  7.72261074E+00 -1.54452215E+01  7.72261074E+00
  7.72261074E+00 -1.54452215E+01  7.72261074E+00  7.72261074E+00 -1.54452215E+01
  7.72261074E+00  7.72261074E+00 -1.54452215E+01  7.72261074E+00  7.72261074E+00
 -1.54452215E+01  7.72261074E+00  7.72261074E+00 -1.54452215E+01  7.72261074E+00
  7.72261074E+00 -1.54452215E+01  7.72261074E+00  7.72261074E+00 -1.54452215E+01
  7.72261074E+00  7.72261074E+00 -1.54452215E+01  7.72261074E+00  7.72261074E+00
 -1.54452215E+01  7.72261074E+00  7.72261074E+00 -1.54452215E+01  7.72261074E+00
  7.72261074E+00 -1.54452215E+01  7.72261074E+00  7.72261074E+00 -1.54452215E+01
  7.72261074E+00  7.72261074E+00 -1.54452215E+01  7.72261074E+00  7.72261074E+00
 -1.54452215E+01  7.72261074E+00  7.72261074E+00 -1.54452215E+01  7.72261074E+00
  7.72261074E+00 -1.54452215E+01  7.72261074E+00  7.72261074E+00 -1.54452215E+01
  7.72261074E+00  7.72261074E+00 -1.54452215E+01  7.72261074E+00  7.72261074E+00
 -1.54452215E+01  7.72261074E+00  7.72261074E+00 -1.54452215E+01  7.72261074E+00
  7.72261074E+00 -1.54452215E+01  7.72261074E+00  7.72261074E+00 -1.54452215E+01
  7.72261074E+00  7.72261074E+00 -1.54452215E+01  7.72261074E+00  7.72261074E+00
 -1.54452215E+01  7.72261074E+00  7.72261074E+00 -1.54452215E+01  7.72261074E+00
  7.72261074E+00 -1.54452215E+01  7.72261074E+00  7.72261074E+00 -1.54452215E+01
  7.72261074E+00  7.72261074E+00 -1.54452215E+01  7.72261074E+00  7.72261074E+00
 -1.54452215E+01  7.72261074E+00  7.72261074E+00 -1.54452215E+01  7.72261074E+00
  7.72261074E+00 -1.54452215E+01  7.72261074E+00  7.72261074E+00 -1.54452215E+01
  7.72261074E+00  7.72261074E+00 -1.54452215E+01  7.72261074E+00  7.72261074E+00
 -1.54452215E+01  7.72261074E+00  7.72261074E+00 -1.54452215E+01  7.72261074E+00
  7.72261074E+00 -1.54452215E+01  7.72261074E+00  7.72261074E+00 -1.54452215E+01
  7.72261074E+00  7.72261074E+00 -1.54452215E+01  7.72261074E+00  7.72261074E+00
 -1.54452215E+01  7.72261074E+00  7.72261074E+00 -1.54452215E+01  7.72261074E+00
  7.72261074E+00 -1.54452215E+01  7.72261074E+00  7.72261074E+00 -1.54452215E+01
  7.72261074E+00  7.72261074E+00 -1.54452215E+01  7.72261074E+00  7.72261074E+00
 -1.54452215E+01  7.72261074E+00  7.72261074E+00 -1.54452215E+01  7.72261074E+00
  7.72261074E+00 -1.54452215E+01  7.72261074E+00  7.72261074E+00 -1.54452215E+01
  7.72261074E+00  7.72261074E+00 -1.54452215E+01  7.72261074E+00  7.72261074E+00
 -1.54452215E+01  7.72261074E+00  7.72261074E+00 -1.54452215E+01  7.72261074E+00
  7.72261074E+00 -1.54452215E+01  7.72261074E+00  7.72261074E+00 -1.54452215E+01
  7.72261074E+00  7.72261074E+00 -1.54452215E+01  7.72261074E+00  7.72261074E+00
 -1.54452215E+01  7.72261074E+00  7.72261074E+00 -1.54452215E+01  7.72261074E+00
  7.72261074E+00 -1.54452215E+01  7.72261074E+00  7.72261074E+00 -1.54452215E+01
  7.72261074E+00  7.72261074E+00 -1.54452215E+01  7.72261074E+00  7.72261074E+00
 -1.54452215E+01  7.72261074E+00  7.72261074E+00 -1.54452215E+01  7.72261074E+00
  7.72261074E+00 -1.54452215E+01  7.72261074E+00  7.72261074E+00 -1.54452215E+01
  7.72261074E+00  7.72261074E+00 -1.54452215E+01  7.72261074E+00  7.72261074E+00
 -1.54452215E+01  7.72261074E+00  7.72261074E+00 -1.54452215E+01  7.72261074E+00
  7.72261074E+00 -1.54452215E+01  7.72261074E+00  7.72261074E+00 -1.54452215E+01
  7.72261074E+00  7.72261074E+00 -1.54452215E+01  7.72261074E+00  7.72261074E+00
 -1.54452215E+01  7.72261074E+00  7.72261074E+00 -1.54452215E+01  7.72261074E+00
  7.72261074E+00 -1.54452215E+01  7.72261074E+00  7.72261074E+00 -1.54452215E+01
  7.72261074E+00  7.72261074E+00 -1.54452215E+01  7.72261074E+00  7.72261074E+00
 -1.54452215E+01  7.72261074E+00  7.72261074E+00 -1.54452215E+01  7.72261074E+00
  7.72261074E+00 -1.54452215E+01  7.72261074E+00  7.72261074E+00 -1.54452215E+01
  7.72261074E+00  7.72261074E+00 -1.54452215E+01  7.72261074E+00  7.72261074E+00
 -1.54452215E+01  7.72261074E+00  7.72261074E+00 -1.54452215E+01  7.72261074E+00
  7.72261074E+00 -1.54452215E+01  7.72261074E+00  7.72261074E+00 -1.54452215E+01
  7.72261074E+00  7.72261074E+00 -1.54452215E+01  7.72261074E+00  7.72261074E+00
 -1.54452215E+01  7.72261074E+00  7.72261074E+00 -1.54452215E+01  7.72261074E+00
  7.72261074E+00 -1.54452215E+01  7.72261074E+00  7.72261074E+00 -1.54452215E+01
  7.72261074E+00  7.72261074E+00 -1.54452215E+01  7.72261074E+00  7.72261074E+00
 -1.54452215E+01  7.72261074E+00  7.72261074E+00 -1.54452215E+01  7.72261074E+00
  7.72261074E+00 -1.54452215E+01  7.72261074E+00  7.72261074E+00 -1.54452215E+01
  7.72261074E+00  7.72261074E+00 -1.54452215E+01  7.72261074E+00  7.72261074E+00
 -1.54452215E+01  7.72261074E+00  7.72261074E+00 -1.54452215E+01  7.72261074E+00
  7.72261074E+00 -1.54452215E+01  7.72261074E+00  7.72261074E+00 -1.54452215E+01
  7.72261074E+00  7.72261074E+00 -1.54452215E+01  7.72261074E+00  7.72261074E+00
 -1.54452215E+01  7.72261074E+00  7.72261074E+00 -1.54452215E+01  7.72261074E+00
  7.72261074E+00 -1.54452215E+01  7.72261074E+00  7.72261074E+00 -1.54452215E+01
  7.72261074E+00  7.72261074E+00 -1.54452215E+01  7.72261074E+00  7.72261074E+00
 -1.54452215E+01  7.72261074E+00  7.72261074E+00 -1.54452215E+01  7.72261074E+00
  7.72261074E+00 -1.54452215E+01  7.72261074E+00  7.72261074E+00 -1.54452215E+01
  7.72261074E+00  7.72261074E+00 -1.54452215E+01  7.72261074E+00  7.72261074E+00
 -1.54452215E+01  7.72261074E+00  7.72261074E+00 -1.54452215E+01  7.72261074E+00
  7.72261074E+00 -1.54452215E+01  7.72261074E+00  7.72261074E+00 -1.54452215E+01
  7.72261074E+00  7.72261074E+00 -1.54452215E+01  7.72261074E+00  7.72261074E+00
 -1.54452215E+01  7.72261074E+00  7.72261074E+00 -1.54452215E+01  7.72261074E+00
  7.72261074E+00 -1.54452215E+01  7.72261074E+00  7.72261074E+00 -1.54452215E+01
  7.72261074E+00  7.72261074E+00 -1.54452215E+01  7.72261074E+00  7.72261074E+00
 -1.54452215E+01  7.72261074E+00  7.72261074E+00 -1.54452215E+01  7.72261074E+00
  7.72261074E+00 -1.54452215E+01  7.72261074E+00  7.72261074E+00 -1.54452215E+01
  7.72261074E+00  7.72261074E+00 -1.54452215E+01  7.72261074E+00  7.72261074E+00
 -1.54452215E+01  7.72261074E+00  7.72261074E+00 -1.54452215E+01  7.72261074E+00
  7.72261074E+00 -1.54452215E+01  7.72261074E+00  7.72261074E+00 -1.54452215E+01
  7.72261074E+00  7.72261074E+00 -1.54452215E+01  7.72261074E+00  7.72261074E+00
 -1.54452215E+01  7.72261074E+00  7.72261074E+00 -1.54452215E+01  7.72261074E+00
  7.72261074E+00 -1.54452215E+01  7.72261074E+00  7.72261074E+00 -1.54452215E+01
  7.72261074E+00  7.72261074E+00 -1.54452215E+01  7.72261074E+00  7.72261074E+00
 -1.54452215E+01  7.72261074E+00  7.72261074E+00 -1.54452215E+01  7.72261074E+00
  7.72261074E+00 -1.54452215E+01  7.72261074E+00  7.72261074E+00 -1.54452215E+01
  7.72261074E+00  7.72261074E+00 -1.54452215E+01  7.72261074E+00  7.72261074E+00
 -1.54452215E+01  7.72261074E+00  7.72261074E+00 -1.54452215E+01  7.72261074E+00
  7.72261074E+00 -1.54452215E+01  7.72261074E+00  7.72261074E+00 -1.54452215E+01
  7.72261074E+00  7.72261074E+00 -1.54452215E+01  7.72261074E+00  7.72261074E+00
 -1.54452215E+01  7.72261074E+00  7.72261074E+00 -1.54452215E+01  7.72261074E+00
  7.72261074E+00 -1.54452215E+01  7.72261074E+00  7.72261074E+00 -1.54452215E+01
  7.72261074E+00  7.72261074E+00 -1.54452215E+01  7.72261074E+00  7.72261074E+00
 -1.54452215E+01  7.72261074E+00  7.72261074E+00 -1.54452215E+01  7.72261074E+00
  7.72261074E+00 -1.54452215E+01  7.72261074E+00  7.72261074E+00 -1.54452215E+01
  7.72261074E+00  7.72261074E+00 -1.54452215E+01  7.72261074E+00  7.72261074E+00
 -1.54452215E+01  7.72261074E+00  7.72261074E+00 -1.54452215E+01  7.72261074E+00
  7.72261074E+00 -1.54452215E+01  7.72261074E+00  7.72261074E+00 -1.54452215E+01
  7.72261074E+00  7.72261074E+00 -1.54452215E+01  7.72261074E+00  7.72261074E+00
 -1.54452215E+01  7.72261074E+00  7.72261074E+00 -1.54452215E+01  7.72261074E+00
  7.72261074E+00 -1.54452215E+01  7.72261074E+00  7.72261074E+00 -1.54452215E+01
  7.72261074E+00  7.72261074E+00 -1.54452215E+01  7.72261074E+00  7.72261074E+00
 -1.54452215E+01  7.72261074E+00  7.72261074E+00 -1.54452215E+01  7.72261074E+00
  7.72261074E+00 -1.54452215E+01  7.72261074E+00  7.72261074E+00 -1.54452215E+01
  7.72261074E+00  7.72261074E+00 -1.54452215E+01  7.72261074E+00  7.72261074E+00
 -1.54452215E+01  7.72261074E+00  7.72261074E+00 -1.54452215E+01  7.72261074E+00
  7.72261074E+00 -1.54452215E+01  7.72261074E+00  7.72261074E+00 -1.54452215E+01
  7.72261074E+00  7.72261074E+00 -1.54452215E+01  7.72261074E+00  7.72261074E+00
 -1.54452215E+01  7.72261074E+00  7.72261074E+00 -1.54452215E+01  7.72261074E+00
  7.72261074E+00 -1.54452215E+01  7.72261074E+00  7.72261074E+00 -1.54452215E+01
  7.72261074E+00  7.72261074E+00 -1.54452215E+01  7.72261074E+00  7.72261074E+00
 -1.54452215E+01  7.72261074E+00  7.72261074E+00 -1.54452215E+01  7.72261074E+00
  7.72261074E+00 -1.54452215E+01  7.72261074E+00  7.72261074E+00 -1.54452215E+01
  7.72261074E+00  7.72261074E+00 -1.54452215E+01  7.72261074E+00  7.72261074E+00
 -1.54452215E+01  7.72261074E+00  7.72261074E+00 -1.54452215E+01  7.72261074E+00
  7.72261074E+00 -1.54452215E+01  7.72261074E+00  7.72261074E+00 -1.54452215E+01
  7.72261074E+00  7.72261074E+00 -1.54452215E+01  7.72261074E+00  7.72261074E+00
 -1.54452215E+01  7.72261074E+00  7.72261074E+00 -1.54452215E+01  7.72261074E+00
  7.72261074E+00 -1.54452215E+01  7.72261074E+00  7.72261074E+00 -1.54452215E+01
  7.72261074E+00  7.72261074E+00 -1.54452215E+01  7.72261074E+00  7.72261074E+00
 -1.54452215E+01  7.72261074E+00  7.72261074E+00 -1.54452215E+01  7.72261074E+00
  7.72261074E+00 -1.54452215E+01  7.72261074E+00  7.72261074E+00 -1.54452215E+01
  7.72261074E+00  7.72261074E+00 -1.54452215E+01  7.72261074E+00  7.72261074E+00
 -1.54452215E+01  7.72261074E+00  7.72261074E+00 -1.54452215E+01  7.72261074E+00
  7.72261074E+00 -1.54452215E+01  7.72261074E+00  7.72261074E+00 -1.54452215E+01
  7.72261074E+00  7.72261074E+00 -1.54452215E+01  7.72261074E+00  7.72261074E+00
 -1.54452215E+01  7.72261074E+00  7.72261074E+00 -1.54452215E+01  7.72261074E+00
  7.72261074E+00 -1.54452215E+01  7.72261074E+00  7.72261074E+00 -1.54452215E+01
  7.72261074E+00  7.72261074E+00 -1.54452215E+01  7.72261074E+00  7.72261074E+00
 -1.54452215E+01  7.72261074E+00  7.72261074E+00 -1.54452215E+01  7.72261074E+00
  7.72261074E+00 -1.54452215E+01  7.72261074E+00  7.72261074E+00 -1.54452215E+01
  7.72261074E+00  7.72261074E+00 -1.54452215E+01  7.72261074E+00  7.72261074E+00
 -1.54452215E+01  7.72261074E+00  7.72261074E+00 -1.54452215E+01  7.72261074E+00
  7.72261074E+00 -1.54452215E+01  7.72261074E+00  7.72261074E+00 -1.54452215E+01
  7.72261074E+00  7.72261074E+00 -1.54452215E+01  7.72261074E+00  7.72261074E+00
 -1.54452215E+01  7.72261074E+00  7.72261074E+00 -1.54452215E+01  7.72261074E+00
  7.72261074E+00 -1.54452215E+01  7.72261074E+00  7.72261074E+00 -1.54452215E+01
  7.72261074E+00  7.72261074E+00 -1.54452215E+01  7.72261074E+00  7.72261074E+00
 -1.54452215E+01  7.72261074E+00  7.72261074E+00 -1.54452215E+01  7.72261074E+00
  7.72261074E+00 -1.54452215E+01  7.72261074E+00  7.72261074E+00 -1.54452215E+01
  7.72261074E+00  7.72261074E+00 -1.54452215E+01  7.72261074E+00  7.72261074E+00
 -1.54452215E+01  7.72261074E+00  7.72261074E+00 -1.54452215E+01  7.72261074E+00
  7.72261074E+00 -1.54452215E+01  7.72261074E+00  7.72261074E+00 -1.54452215E+01
  7.72261074E+00  7.72261074E+00 -1.54452215E+01  7.72261074E+00  7.72261074E+00
 -1.54452215E+01  7.72261074E+00  7.72261074E+00 -1.54452215E+01  7.72261074E+00
  7.72261074E+00 -1.54452215E+01  7.72261074E+00  7.72261074E+00 -1.54452215E+01
  7.72261074E+00  7.72261074E+00 -1.54452215E+01  7.72261074E+00  7.72261074E+00
 -1.54452215E+01  7.72261074E+00  7.72261074E+00 -1.54452215E+01  7.72261074E+00
  7.72261074E+00 -1.54452215E+01  7.72261074E+00  7.72261074E+00 -1.54452215E+01
  7.72261074E+00  7.72261074E+00 -1.54452215E+01  7.72261074E+00  7.72261074E+00
 -1.54452215E+01  7.72261074E+00  7.72261074E+00 -1.54452215E+01  7.72261074E+00
  7.72261074E+00 -1.54452215E+01  7.72261074E+00  7.72261074E+00 -1.54452215E+01
  7.72261074E+00  7.72261074E+00 -1.54452215E+01  7.72261074E+00  7.72261074E+00
 -1.54452215E+01  7.72261074E+00  7.72261074E+00 -1.54452215E+01  7.72261074E+00
  7.72261074E+00 -1.54452215E+01  7.72261074E+00  7.72261074E+00 -1.54452215E+01
  7.72261074E+00  7.72261074E+00 -1.54452215E+01  7.72261074E+00  7.72261074E+00
 -1.54452215E+01  7.72261074E+00  7.72261074E+00 -1.54452215E+01  7.72261074E+00
  7.72261074E+00 -1.54452215E+01  7.72261074E+00  7.72261074E+00 -1.54452215E+01
  7.72261074E+00  7.72261074E+00 -1.54452215E+01  7.72261074E+00  7.72261074E+00
 -1.54452215E+01  7.72261074E+00  7.72261074E+00 -1.54452215E+01  7.72261074E+00
  7.72261074E+00 -1.54452215E+01  7.72261074E+00  7.72261074E+00 -1.54452215E+01
  7.72261074E+00  7.72261074E+00 -1.54452215E+01  7.72261074E+00  7.72261074E+00
 -1.54452215E+01  7.72261074E+00  7.72261074E+00 -1.54452215E+01  7.72261074E+00
  7.72261074E+00 -1.54452215E+01  7.72261074E+00  7.72261074E+00 -1.54452215E+01
  7.72261074E+00  7.72261074E+00 -1.54452215E+01  7.72261074E+00  7.72261074E+00
 -1.54452215E+01  7.72261074E+00  7.72261074E+00 -1.54452215E+01  7.72261074E+00
  7.72261074E+00 -1.54452215E+01  7.72261074E+00  7.72261074E+00 -1.54452215E+01
  7.72261074E+00  7.72261074E+00 -1.54452215E+01  7.72261074E+00  7.72261074E+00
 -1.54452215E+01  7.72261074E+00  7.72261074E+00 -1.54452215E+01  7.72261074E+00
  7.72261074E+00 -1.54452215E+01  7.72261074E+00  7.72261074E+00 -1.54452215E+01
  7.72261074E+00  7.72261074E+00 -1.54452215E+01  7.72261074E+00  7.72261074E+00
 -1.54452215E+01  7.72261074E+00  7.72261074E+00 -1.54452215E+01  7.72261074E+00
  7.72261074E+00 -1.54452215E+01  7.72261074E+00  7.72261074E+00 -1.54452215E+01
  7.72261074E+00  7.72261074E+00 -1.54452215E+01  7.72261074E+00  7.72261074E+00
 -1.54452215E+01  7.72261074E+00  7.72261074E+00 -1.54452215E+01  7.72261074E+00
  7.72261074E+00 -1.54452215E+01  7.72261074E+00  7.72261074E+00 -1.54452215E+01
  7.72261074E+00  7.72261074E+00 -1.54452215E+01  7.72261074E+00  7.72261074E+00
 -1.54452215E+01  7.72261074E+00  7.72261074E+00 -1.54452215E+01  7.72261074E+00
  7.72261074E+00 -1.54452215E+01  7.72261074E+00  7.72261074E+00 -1.54452215E+01
  7.72261074E+00  7.72261074E+00 -1.54452215E+01  7.72261074E+00  7.72261074E+00
 -1.54452215E+01  7.72261074E+00  7.72261074E+00 -1.54452215E+01  7.72261074E+00
  7.72261074E+00 -1.54452215E+01  7.72261074E+00  7.72261074E+00 -1.54452215E+01
  7.72261074E+00  7.72261074E+00 -1.54452215E+01  7.72261074E+00  7.72261074E+00
 -1.54452215E+01  7.72261074E+00  7.72261074E+00 -1.54452215E+01  7.72261074E+00
  7.72261074E+00 -1.54452215E+01  7.72261074E+00  7.72261074E+00 -1.54452215E+01
  7.72261074E+00  7.72261074E+00 -1.54452215E+01  7.72261074E+00  7.72261074E+00
 -1.54452215E+01  7.72261074E+00  7.72261074E+00 -1.54452215E+01  7.72261074E+00
  7.72261074E+00 -1.54452215E+01  7.72261074E+00  7.72261074E+00 -1.54452215E+01
  7.72261074E+00  7.72261074E+00 -1.54452215E+01  7.72261074E+00  7.72261074E+00
 -1.54452215E+01  7.72261074E+00  7.72261074E+00 -1.54452215E+01  7.72261074E+00
  7.72261074E+00 -1.54452215E+01  7.72261074E+00  7.72261074E+00 -1.54452215E+01
  7.72261074E+00  7.72261074E+00 -1.54452215E+01  7.72261074E+00  7.72261074E+00
 -1.54452215E+01  7.72261074E+00  7.72261074E+00 -1.54452215E+01  7.72261074E+00
  7.72261074E+00 -1.54452215E+01  7.72261074E+00  7.72261074E+00 -1.54452215E+01
  7.72261074E+00  7.72261074E+00 -1.54452215E+01  7.72261074E+00  7.72261074E+00
 -1.54452215E+01  7.72261074E+00  7.72261074E+00 -1.54452215E+01  7.72261074E+00
  7.72261074E+00 -1.54452215E+01  7.72261074E+00  7.72261074E+00 -1.54452215E+01
  7.72261074E+00  7.72261074E+00 -1.54452215E+01  7.72261074E+00  7.72261074E+00
 -1.54452215E+01  7.72261074E+00  7.72261074E+00 -1.54452215E+01  7.72261074E+00
  7.72261074E+00 -1.54452215E+01  7.72261074E+00  7.72261074E+00 -1.54452215E+01
  7.72261074E+00  7.72261074E+00 -1.54452215E+01  7.72261074E+00  7.72261074E+00
 -1.54452215E+01  7.72261074E+00  7.72261074E+00 -1.54452215E+01  7.72261074E+00
  7.72261074E+00 -1.54452215E+01  7.72261074E+00  7.72261074E+00 -1.54452215E+01
  7.72261074E+00  7.72261074E+00 -1.54452215E+01  7.72261074E+00  7.72261074E+00
 -1.54452215E+01  7.72261074E+00  7.72261074E+00 -1.54452215E+01  7.72261074E+00
  7.72261074E+00 -1.54452215E+01  7.72261074E+00  7.72261074E+00 -1.54452215E+01
  7.72261074E+00  7.72261074E+00 -1.54452215E+01  7.72261074E+00  7.72261074E+00
 -1.54452215E+01  7.72261074E+00  7.72261074E+00 -1.54452215E+01  7.72261074E+00
  7.72261074E+00 -1.54452215E+01  7.72261074E+00  7.72261074E+00 -1.54452215E+01
  7.72261074E+00  7.72261074E+00 -1.54452215E+01  7.72261074E+00  7.72261074E+00
 -1.54452215E+01  7.72261074E+00  7.72261074E+00 -1.54452215E+01  7.72261074E+00
  7.72261074E+00 -1.54452215E+01  7.72261074E+00  7.72261074E+00 -1.54452215E+01
  7.72261074E+00  7.72261074E+00 -1.54452215E+01  7.72261074E+00  7.72261074E+00
 -1.54452215E+01  7.72261074E+00  7.72261074E+00 -1.54452215E+01  7.72261074E+00
  7.72261074E+00 -1.54452215E+01  7.72261074E+00  7.72261074E+00 -1.54452215E+01
  7.72261074E+00  7.72261074E+00 -1.54452215E+01  7.72261074E+00  7.72261074E+00
 -1.54452215E+01  7.72261074E+00  7.72261074E+00 -1.54452215E+01  7.72261074E+00
  7.72261074E+00 -1.54452215E+01  7.72261074E+00  7.72261074E+00 -1.54452215E+01
  7.72261074E+00  7.72261074E+00 -1.54452215E+01  7.72261074E+00  7.72261074E+00
 -1.54452215E+01  7.72261074E+00  7.72261074E+00 -1.54452215E+01  7.72261074E+00
  7.72261074E+00 -1.54452215E+01  7.72261074E+00  7.72261074E+00 -1.54452215E+01
  7.72261074E+00  7.72261074E+00 -1.54452215E+01  7.72261074E+00  7.72261074E+00
 -1.54452215E+01  7.72261074E+00  7.72261074E+00 -1.54452215E+01  7.72261074E+00
  7.72261074E+00 -1.54452215E+01  7.72261074E+00  7.72261074E+00 -1.54452215E+01
  7.72261074E+00  7.72261074E+00 -1.54452215E+01  7.72261074E+00  7.72261074E+00
 -1.54452215E+01  7.72261074E+00  7.72261074E+00 -1.54452215E+01  7.72261074E+00
  7.72261074E+00 -1.54452215E+01  7.72261074E+00  7.72261074E+00 -1.54452215E+01
  7.72261074E+00  7.72261074E+00 -1.54452215E+01  7.72261074E+00  7.72261074E+00
 -1.54452215E+01  7.72261074E+00  7.72261074E+00 -1.54452215E+01  7.72261074E+00
  7.72261074E+00 -1.54452215E+01  7.72261074E+00  7.72261074E+00 -1.54452215E+01
  7.72261074E+00  7.72261074E+00 -1.54452215E+01  7.72261074E+00  7.72261074E+00
 -1.54452215E+01  7.72261074E+00  7.72261074E+00 -1.54452215E+01  7.72261074E+00
  7.72261074E+00 -1.54452215E+01  7.72261074E+00  7.72261074E+00 -1.54452215E+01
  7.72261074E+00  7.72261074E+00 -1.54452215E+01  7.72261074E+00  7.72261074E+00
 -1.54452215E+01  7.72261074E+00  7.72261074E+00 -1.54452215E+01  7.72261074E+00
  7.72261074E+00 -1.54452215E+01  7.72261074E+00  7.72261074E+00 -1.54452215E+01
  7.72261074E+00  7.72261074E+00 -1.54452215E+01  7.72261074E+00  7.72261074E+00
 -1.54452215E+01  7.72261074E+00  7.72261074E+00 -1.54452215E+01  7.72261074E+00
  7.72261074E+00 -1.54452215E+01  7.72261074E+00  7.72261074E+00 -1.54452215E+01
  7.72261074E+00  7.72261074E+00 -1.54452215E+01  7.72261074E+00  7.72261074E+00
 -1.54452215E+01  7.72261074E+00  7.72261074E+00 -1.54452215E+01  7.72261074E+00
  7.72261074E+00 -1.54452215E+01  7.72261074E+00  7.72261074E+00 -1.54452215E+01
  7.72261074E+00  7.72261074E+00 -1.54452215E+01  7.72261074E+00  7.72261074E+00
 -1.54452215E+01  7.72261074E+00  7.72261074E+00 -1.54452215E+01  7.72261074E+00
  7.72261074E+00 -1.54452215E+01  7.72261074E+00  7.72261074E+00 -1.54452215E+01
  7.72261074E+00  7.72261074E+00 -1.54452215E+01  7.72261074E+00  7.72261074E+00
 -1.54452215E+01  7.72261074E+00  7.72261074E+00 -1.54452215E+01  7.72261074E+00
  7.72261074E+00 -1.54452215E+01  7.72261074E+00  7.72261074E+00 -1.54452215E+01
  7.72261074E+00  7.72261074E+00 -1.54452215E+01  7.72261074E+00  7.72261074E+00
 -1.54452215E+01  7.72261074E+00  7.72261074E+00 -1.54452215E+01  7.72261074E+00
  7.72261074E+00 -1.54452215E+01  7.72261074E+00  7.72261074E+00 -1.54452215E+01
  7.72261074E+00  7.72261074E+00 -1.54452215E+01  7.72261074E+00  7.72261074E+00
 -1.54452215E+01  7.72261074E+00  7.72261074E+00 -1.54452215E+01  7.72261074E+00
  7.72261074E+00 -1.54452215E+01  7.72261074E+00  7.72261074E+00 -1.54452215E+01
  7.72261074E+00  7.72261074E+00 -1.54452215E+01  7.72261074E+00  7.72261074E+00
 -1.54452215E+01  7.72261074E+00  7.72261074E+00 -1.54452215E+01  7.72261074E+00
  7.72261074E+00 -1.54452215E+01  7.72261074E+00  7.72261074E+00 -1.54452215E+01
  7.72261074E+00  7.72261074E+00 -1.54452215E+01  7.72261074E+00  7.72261074E+00
 -1.54452215E+01  7.72261074E+00  7.72261074E+00 -1.54452215E+01  7.72261074E+00
  7.72261074E+00 -1.54452215E+01  7.72261074E+00  7.72261074E+00 -1.54452215E+01
  7.72261074E+00  7.72261074E+00 -1.54452215E+01  7.72261074E+00  7.72261074E+00
 -1.54452215E+01  7.72261074E+00  7.72261074E+00 -1.54452215E+01  7.72261074E+00
  7.72261074E+00 -1.54452215E+01  7.72261074E+00  7.72261074E+00 -1.54452215E+01
  7.72261074E+00  7.72261074E+00 -1.54452215E+01  7.72261074E+00  7.72261074E+00
 -1.54452215E+01  7.72261074E+00  7.72261074E+00 -1.54452215E+01  7.72261074E+00
  7.72261074E+00 -1.54452215E+01  7.72261074E+00  7.72261074E+00 -1.54452215E+01
  7.72261074E+00  7.72261074E+00 -1.54452215E+01  7.72261074E+00  7.72261074E+00
 -1.54452215E+01  7.72261074E+00  7.72261074E+00 -1.54452215E+01  7.72261074E+00
  7.72261074E+00 -1.54452215E+01  7.72261074E+00  7.72261074E+00 -1.54452215E+01
  7.72261074E+00  7.72261074E+00 -1.54452215E+01  7.72261074E+00  7.72261074E+00
 -1.54452215E+01  7.72261074E+00  7.72261074E+00 -1.54452215E+01  7.72261074E+00
  7.72261074E+00 -1.54452215E+01  7.72261074E+00  7.72261074E+00 -1.54452215E+01
  7.72261074E+00  7.72261074E+00 -1.54452215E+01  7.72261074E+00  7.72261074E+00
 -1.54452215E+01  7.72261074E+00  7.72261074E+00 -1.54452215E+01  7.72261074E+00
  7.72261074E+00 -1.54452215E+01  7.72261074E+00  7.72261074E+00 -1.54452215E+01
  7.72261074E+00  7.72261074E+00 -1.54452215E+01  7.72261074E+00  7.72261074E+00
 -1.54452215E+01  7.72261074E+00  7.72261074E+00 -1.54452215E+01  7.72261074E+00
  7.72261074E+00 -1.54452215E+01  7.72261074E+00  7.72261074E+00 -1.54452215E+01
  7.72261074E+00  7.72261074E+00 -1.54452215E+01  7.72261074E+00  7.72261074E+00
 -1.54452215E+01  7.72261074E+00  7.72261074E+00 -1.54452215E+01  7.72261074E+00
  7.72261074E+00 -1.54452215E+01  7.72261074E+00  7.72261074E+00 -1.54452215E+01
  7.72261074E+00  7.72261074E+00 -1.54452215E+01  7.72261074E+00  7.72261074E+00
 -1.54452215E+01  7.72261074E+00  7.72261074E+00 -1.54452215E+01  7.72261074E+00
  7.72261074E+00 -1.54452215E+01  7.72261074E+00  7.72261074E+00 -1.54452215E+01
  7.72261074E+00  7.72261074E+00 -1.54452215E+01  7.72261074E+00  7.72261074E+00
 -1.54452215E+01  7.72261074E+00  7.72261074E+00 -1.54452215E+01  7.72261074E+00
  7.72261074E+00 -1.54452215E+01  7.72261074E+00  7.72261074E+00 -1.54452215E+01
  7.72261074E+00  7.72261074E+00 -1.54452215E+01  7.72261074E+00  7.72261074E+00
 -1.54452215E+01  7.72261074E+00  7.72261074E+00 -1.54452215E+01  7.72261074E+00
  7.72261074E+00 -1.54452215E+01  7.72261074E+00  7.72261074E+00 -1.54452215E+01
  7.72261074E+00  7.72261074E+00 -1.54452215E+01  7.72261074E+00  7.72261074E+00
 -1.54452215E+01  7.72261074E+00  7.72261074E+00 -1.54452215E+01  7.72261074E+00
  7.72261074E+00 -1.54452215E+01  7.72261074E+00  7.72261074E+00 -1.54452215E+01
  7.72261074E+00  7.72261074E+00 -1.54452215E+01  7.72261074E+00  7.72261074E+00
 -1.54452215E+01  7.72261074E+00  7.72261074E+00 -1.54452215E+01  7.72261074E+00
  7.72261074E+00 -1.54452215E+01  7.72261074E+00  7.72261074E+00 -1.54452215E+01
  7.72261074E+00  7.72261074E+00 -1.54452215E+01  7.72261074E+00  7.72261074E+00
 -1.54452215E+01  7.72261074E+00  7.72261074E+00 -1.54452215E+01  7.72261074E+00
  7.72261074E+00 -1.54452215E+01  7.72261074E+00  7.72261074E+00 -1.54452215E+01
  7.72261074E+00  7.72261074E+00 -1.54452215E+01  7.72261074E+00  7.72261074E+00
 -1.54452215E+01  7.72261074E+00  7.72261074E+00 -1.54452215E+01  7.72261074E+00
  7.72261074E+00 -1.54452215E+01  7.72261074E+00  7.72261074E+00 -1.54452215E+01
  7.72261074E+00  7.72261074E+00 -1.54452215E+01  7.72261074E+00  7.72261074E+00
 -1.54452215E+01  7.72261074E+00  7.72261074E+00 -1.54452215E+01  7.72261074E+00
  7.72261074E+00 -1.54452215E+01  7.72261074E+00  7.72261074E+00 -1.54452215E+01
  7.72261074E+00  7.72261074E+00 -1.54452215E+01  7.72261074E+00  7.72261074E+00
 -1.54452215E+01  7.72261074E+00  7.72261074E+00 -1.54452215E+01  7.72261074E+00
  7.72261074E+00 -1.54452215E+01  7.72261074E+00  7.72261074E+00 -1.54452215E+01
  7.72261074E+00  7.72261074E+00 -1.54452215E+01  7.72261074E+00  7.72261074E+00
 -1.54452215E+01  7.72261074E+00  7.72261074E+00 -1.54452215E+01  7.72261074E+00
  7.72261074E+00 -1.54452215E+01  7.72261074E+00  7.72261074E+00 -1.54452215E+01
  7.72261074E+00  7.72261074E+00 -1.54452215E+01  7.72261074E+00  7.72261074E+00
 -1.54452215E+01  7.72261074E+00  7.72261074E+00 -1.54452215E+01  7.72261074E+00
  7.72261074E+00 -1.54452215E+01  7.72261074E+00  7.72261074E+00 -1.54452215E+01
  7.72261074E+00  7.72261074E+00 -1.54452215E+01  7.72261074E+00  7.72261074E+00
 -1.54452215E+01  7.72261074E+00  7.72261074E+00 -1.54452215E+01  7.72261074E+00
  7.72261074E+00 -1.54452215E+01  7.72261074E+00  7.72261074E+00 -1.54452215E+01
  7.72261074E+00  7.72261074E+00 -1.54452215E+01  7.72261074E+00  7.72261074E+00
 -1.54452215E+01  7.72261074E+00  7.72261074E+00 -1.54452215E+01  7.72261074E+00
  7.72261074E+00 -1.54452215E+01  7.72261074E+00  7.72261074E+00 -1.54452215E+01
  7.72261074E+00  7.72261074E+00 -1.54452215E+01  7.72261074E+00  7.72261074E+00
 -1.54452215E+01  7.72261074E+00  7.72261074E+00 -1.54452215E+01  7.72261074E+00
  7.72261074E+00 -1.54452215E+01  7.72261074E+00  7.72261074E+00 -1.54452215E+01
  7.72261074E+00  7.72261074E+00 -1.54452215E+01  7.72261074E+00  7.72261074E+00
 -1.54452215E+01  7.72261074E+00  7.72261074E+00 -1.54452215E+01  7.72261074E+00
  7.72261074E+00 -1.54452215E+01  7.72261074E+00  7.72261074E+00 -1.54452215E+01
  7.72261074E+00  7.72261074E+00 -1.54452215E+01  7.72261074E+00  7.72261074E+00
 -1.54452215E+01  7.72261074E+00  7.72261074E+00 -1.54452215E+01  7.72261074E+00
  7.72261074E+00 -1.54452215E+01  7.72261074E+00  7.72261074E+00 -1.54452215E+01
  7.72261074E+00  7.72261074E+00 -1.54452215E+01  7.72261074E+00  7.72261074E+00
 -1.54452215E+01  7.72261074E+00  7.72261074E+00 -1.54452215E+01  7.72261074E+00
  7.72261074E+00 -1.54452215E+01  7.72261074E+00  7.72261074E+00 -1.54452215E+01
  7.72261074E+00  7.72261074E+00 -1.54452215E+01  7.72261074E+00  7.72261074E+00
 -1.54452215E+01  7.72261074E+00  7.72261074E+00 -1.54452215E+01  7.72261074E+00
  7.72261074E+00 -1.54452215E+01  7.72261074E+00  7.72261074E+00 -1.54452215E+01
  7.72261074E+00  7.72261074E+00 -1.54452215E+01  7.72261074E+00  7.72261074E+00
 -1.54452215E+01  7.72261074E+00  7.72261074E+00 -1.54452215E+01  7.72261074E+00
  7.72261074E+00 -1.54452215E+01  7.72261074E+00  7.72261074E+00 -1.54452215E+01
  7.72261074E+00  7.72261074E+00 -1.54452215E+01  7.72261074E+00  7.72261074E+00
 -1.54452215E+01  7.72261074E+00  7.72261074E+00 -1.54452215E+01  7.72261074E+00
  7.72261074E+00 -1.54452215E+01  7.72261074E+00  7.72261074E+00 -1.54452215E+01
  7.72261074E+00  7.72261074E+00 -1.54452215E+01  7.72261074E+00  7.72261074E+00
 -1.54452215E+01  7.72261074E+00  7.72261074E+00 -1.54452215E+01  7.72261074E+00
  7.72261074E+00 -1.54452215E+01  7.72261074E+00  7.72261074E+00 -1.54452215E+01
  7.72261074E+00  7.72261074E+00 -1.54452215E+01  7.72261074E+00  7.72261074E+00
 -1.54452215E+01  7.72261074E+00  7.72261074E+00 -1.54452215E+01  7.72261074E+00
  7.72261074E+00 -1.54452215E+01  7.72261074E+00  7.72261074E+00 -1.54452215E+01
  7.72261074E+00  7.72261074E+00 -1.54452215E+01  7.72261074E+00  7.72261074E+00
 -1.54452215E+01  7.72261074E+00  7.72261074E+00 -1.54452215E+01  7.72261074E+00
  7.72261074E+00 -1.54452215E+01  7.72261074E+00  7.72261074E+00 -1.54452215E+01
  7.72261074E+00  7.72261074E+00 -1.54452215E+01  7.72261074E+00  7.72261074E+00
 -1.54452215E+01  7.72261074E+00  7.72261074E+00 -1.54452215E+01  7.72261074E+00
  7.72261074E+00 -1.54452215E+01  7.72261074E+00  7.72261074E+00 -1.54452215E+01
  7.72261074E+00  7.72261074E+00 -1.54452215E+01  7.72261074E+00  7.72261074E+00
 -1.54452215E+01  7.72261074E+00  7.72261074E+00 -1.54452215E+01  7.72261074E+00
  7.72261074E+00 -1.54452215E+01  7.72261074E+00  7.72261074E+00 -1.54452215E+01
  7.72261074E+00  7.72261074E+00 -1.54452215E+01  7.72261074E+00  7.72261074E+00
 -1.54452215E+01  7.72261074E+00  7.72261074E+00 -1.54452215E+01  7.72261074E+00
  7.72261074E+00 -1.54452215E+01  7.72261074E+00  7.72261074E+00 -1.54452215E+01
  7.72261074E+00  7.72261074E+00 -1.54452215E+01  7.72261074E+00  7.72261074E+00
 -1.54452215E+01  7.72261074E+00  7.72261074E+00 -1.54452215E+01  7.72261074E+00
  7.72261074E+00 -1.54452215E+01  7.72261074E+00  7.72261074E+00 -1.54452215E+01
  7.72261074E+00  7.72261074E+00 -1.54452215E+01  7.72261074E+00  7.72261074E+00
 -1.54452215E+01  7.72261074E+00  7.72261074E+00 -1.54452215E+01  7.72261074E+00
  7.72261074E+00 -1.54452215E+01  7.72261074E+00  7.72261074E+00 -1.54452215E+01
  7.72261074E+00  7.72261074E+00 -1.54452215E+01  7.72261074E+00  7.72261074E+00
 -1.54452215E+01  7.72261074E+00  7.72261074E+00 -1.54452215E+01  7.72261074E+00
  7.72261074E+00 -1.54452215E+01  7.72261074E+00  7.72261074E+00 -1.54452215E+01
  7.72261074E+00  7.72261074E+00 -1.54452215E+01  7.72261074E+00  7.72261074E+00
 -1.54452215E+01  7.72261074E+00  7.72261074E+00 -1.54452215E+01  7.72261074E+00
  7.72261074E+00 -1.54452215E+01  7.72261074E+00  7.72261074E+00 -1.54452215E+01
  7.72261074E+00  7.72261074E+00 -1.54452215E+01  7.72261074E+00  7.72261074E+00
 -1.54452215E+01  7.72261074E+00  7.72261074E+00 -1.54452215E+01  7.72261074E+00
  7.72261074E+00 -1.54452215E+01  7.72261074E+00  7.72261074E+00 -1.54452215E+01
  7.72261074E+00  7.72261074E+00 -1.54452215E+01  7.72261074E+00  7.72261074E+00
 -1.54452215E+01  7.72261074E+00  7.72261074E+00 -1.54452215E+01  7.72261074E+00
  7.72261074E+00 -1.54452215E+01  7.72261074E+00  7.72261074E+00 -1.54452215E+01
  7.72261074E+00  7.72261074E+00 -1.54452215E+01  7.72261074E+00  7.72261074E+00
 -1.54452215E+01  7.72261074E+00  7.72261074E+00 -1.54452215E+01  7.72261074E+00
  7.72261074E+00 -1.54452215E+01  7.72261074E+00  7.72261074E+00 -1.54452215E+01
  7.72261074E+00  7.72261074E+00 -1.54452215E+01  7.72261074E+00  7.72261074E+00
 -1.54452215E+01  7.72261074E+00  7.72261074E+00 -1.54452215E+01  7.72261074E+00
  7.72261074E+00 -1.54452215E+01  7.72261074E+00  7.72261074E+00 -1.54452215E+01
  7.72261074E+00  7.72261074E+00 -1.54452215E+01  7.72261074E+00  7.72261074E+00
 -1.54452215E+01  7.72261074E+00  7.72261074E+00 -1.54452215E+01  7.72261074E+00
  7.72261074E+00 -1.54452215E+01  7.72261074E+00  7.72261074E+00 -1.54452215E+01
  7.72261074E+00  7.72261074E+00 -1.54452215E+01  7.72261074E+00  7.72261074E+00
 -1.54452215E+01  7.72261074E+00  7.72261074E+00 -1.54452215E+01  7.72261074E+00
  7.72261074E+00 -1.54452215E+01  7.72261074E+00  7.72261074E+00 -1.54452215E+01
  7.72261074E+00  7.72261074E+00 -1.54452215E+01  7.72261074E+00  7.72261074E+00
 -1.54452215E+01  7.72261074E+00  7.72261074E+00 -1.54452215E+01  7.72261074E+00
  7.72261074E+00 -1.54452215E+01  7.72261074E+00  7.72261074E+00 -1.54452215E+01
  7.72261074E+00  7.72261074E+00 -1.54452215E+01  7.72261074E+00  7.72261074E+00
 -1.54452215E+01  7.72261074E+00  7.72261074E+00 -1.54452215E+01  7.72261074E+00
  7.72261074E+00 -1.54452215E+01  7.72261074E+00  7.72261074E+00 -1.54452215E+01
  7.72261074E+00  7.72261074E+00 -1.54452215E+01  7.72261074E+00  7.72261074E+00
 -1.54452215E+01  7.72261074E+00  7.72261074E+00 -1.54452215E+01  7.72261074E+00
  7.72261074E+00 -1.54452215E+01  7.72261074E+00  7.72261074E+00 -1.54452215E+01
  7.72261074E+00  7.72261074E+00 -1.54452215E+01  7.72261074E+00  7.72261074E+00
 -1.54452215E+01  7.72261074E+00  7.72261074E+00 -1.54452215E+01  7.72261074E+00
  7.72261074E+00 -1.54452215E+01  7.72261074E+00  7.72261074E+00 -1.54452215E+01
  7.72261074E+00  7.72261074E+00 -1.54452215E+01  7.72261074E+00  7.72261074E+00
 -1.54452215E+01  7.72261074E+00  7.72261074E+00 -1.54452215E+01  7.72261074E+00
  7.72261074E+00 -1.54452215E+01  7.72261074E+00  7.72261074E+00 -1.54452215E+01
  7.72261074E+00  7.72261074E+00 -1.54452215E+01  7.72261074E+00  7.72261074E+00
 -1.54452215E+01  7.72261074E+00  7.72261074E+00 -1.54452215E+01  7.72261074E+00
  7.72261074E+00 -1.54452215E+01  7.72261074E+00  7.72261074E+00 -1.54452215E+01
  7.72261074E+00  7.72261074E+00 -1.54452215E+01  7.72261074E+00  7.72261074E+00
 -1.54452215E+01  7.72261074E+00  7.72261074E+00 -1.54452215E+01  7.72261074E+00
  7.72261074E+00 -1.54452215E+01  7.72261074E+00  7.72261074E+00 -1.54452215E+01
  7.72261074E+00  7.72261074E+00 -1.54452215E+01  7.72261074E+00  7.72261074E+00
 -1.54452215E+01  7.72261074E+00  7.72261074E+00 -1.54452215E+01  7.72261074E+00
  7.72261074E+00 -1.54452215E+01  7.72261074E+00  7.72261074E+00 -1.54452215E+01
  7.72261074E+00  7.72261074E+00 -1.54452215E+01  7.72261074E+00  7.72261074E+00
 -1.54452215E+01  7.72261074E+00  7.72261074E+00 -1.54452215E+01  7.72261074E+00
  7.72261074E+00 -1.54452215E+01  7.72261074E+00  7.72261074E+00 -1.54452215E+01
  7.72261074E+00  7.72261074E+00 -1.54452215E+01  7.72261074E+00  7.72261074E+00
 -1.54452215E+01  7.72261074E+00  7.72261074E+00 -1.54452215E+01  7.72261074E+00
  7.72261074E+00 -1.54452215E+01  7.72261074E+00  7.72261074E+00 -1.54452215E+01
  7.72261074E+00  7.72261074E+00 -1.54452215E+01  7.72261074E+00  7.72261074E+00
 -1.54452215E+01  7.72261074E+00  7.72261074E+00 -1.54452215E+01  7.72261074E+00
  7.72261074E+00 -1.54452215E+01  7.72261074E+00  7.72261074E+00 -1.54452215E+01
  7.72261074E+00  7.72261074E+00 -1.54452215E+01  7.72261074E+00  7.72261074E+00
 -1.54452215E+01  7.72261074E+00  7.72261074E+00 -1.54452215E+01  7.72261074E+00
  7.72261074E+00 -1.54452215E+01  7.72261074E+00  7.72261074E+00 -1.54452215E+01
  7.72261074E+00  7.72261074E+00 -1.54452215E+01  7.72261074E+00  7.72261074E+00
 -1.54452215E+01  7.72261074E+00  7.72261074E+00 -1.54452215E+01  7.72261074E+00
  7.72261074E+00 -1.54452215E+01  7.72261074E+00  7.72261074E+00 -1.54452215E+01
  7.72261074E+00  7.72261074E+00 -1.54452215E+01  7.72261074E+00  7.72261074E+00
 -1.54452215E+01  7.72261074E+00  7.72261074E+00 -1.54452215E+01  7.72261074E+00
  7.72261074E+00 -1.54452215E+01  7.72261074E+00  7.72261074E+00 -1.54452215E+01
  7.72261074E+00  7.72261074E+00 -1.54452215E+01  7.72261074E+00  7.72261074E+00
 -1.54452215E+01  7.72261074E+00  7.72261074E+00 -1.54452215E+01  7.72261074E+00
  7.72261074E+00 -1.54452215E+01  7.72261074E+00  7.72261074E+00 -1.54452215E+01
  7.72261074E+00  7.72261074E+00 -1.54452215E+01  7.72261074E+00  7.72261074E+00
 -1.54452215E+01  7.72261074E+00  7.72261074E+00 -1.54452215E+01  7.72261074E+00
  7.72261074E+00 -1.54452215E+01  7.72261074E+00  7.72261074E+00 -1.54452215E+01
  7.72261074E+00  7.72261074E+00 -1.54452215E+01  7.72261074E+00  7.72261074E+00
 -1.54452215E+01  7.72261074E+00  7.72261074E+00 -1.54452215E+01  7.72261074E+00
  7.72261074E+00 -1.54452215E+01  7.72261074E+00  7.72261074E+00 -1.54452215E+01
  7.72261074E+00  7.72261074E+00 -1.54452215E+01  7.72261074E+00  7.72261074E+00
 -1.54452215E+01  7.72261074E+00  7.72261074E+00 -1.54452215E+01  7.72261074E+00
  7.72261074E+00 -1.54452215E+01  7.72261074E+00  7.72261074E+00 -1.54452215E+01
  7.72261074E+00  7.72261074E+00 -1.54452215E+01  7.72261074E+00  7.72261074E+00
 -1.54452215E+01  7.72261074E+00  7.72261074E+00 -1.54452215E+01  7.72261074E+00
  7.72261074E+00 -1.54452215E+01  7.72261074E+00  7.72261074E+00 -1.54452215E+01
  7.72261074E+00  7.72261074E+00 -1.54452215E+01  7.72261074E+00  7.72261074E+00
 -1.54452215E+01  7.72261074E+00  7.72261074E+00 -1.54452215E+01  7.72261074E+00
  7.72261074E+00 -1.54452215E+01  7.72261074E+00  7.72261074E+00 -1.54452215E+01
  7.72261074E+00  7.72261074E+00 -1.54452215E+01  7.72261074E+00  7.72261074E+00
 -1.54452215E+01  7.72261074E+00  7.72261074E+00 -1.54452215E+01  7.72261074E+00
  7.72261074E+00 -1.54452215E+01  7.72261074E+00  7.72261074E+00 -1.54452215E+01
  7.72261074E+00  7.72261074E+00 -1.54452215E+01  7.72261074E+00  7.72261074E+00
 -1.54452215E+01  7.72261074E+00  7.72261074E+00 -1.54452215E+01  7.72261074E+00
  7.72261074E+00 -1.54452215E+01  7.72261074E+00  7.72261074E+00 -1.54452215E+01
  7.72261074E+00  7.72261074E+00 -1.54452215E+01  7.72261074E+00  7.72261074E+00
 -1.54452215E+01  7.72261074E+00  7.72261074E+00 -1.54452215E+01  7.72261074E+00
  7.72261074E+00 -1.54452215E+01  7.72261074E+00  7.72261074E+00 -1.54452215E+01
  7.72261074E+00  7.72261074E+00 -1.54452215E+01  7.72261074E+00  7.72261074E+00
 -1.54452215E+01  7.72261074E+00  7.72261074E+00 -1.54452215E+01  7.72261074E+00
  7.72261074E+00 -1.54452215E+01  7.72261074E+00  7.72261074E+00 -1.54452215E+01
  7.72261074E+00  7.72261074E+00 -1.54452215E+01  7.72261074E+00  7.72261074E+00
 -1.54452215E+01  7.72261074E+00  7.72261074E+00 -1.54452215E+01  7.72261074E+00
  7.72261074E+00 -1.54452215E+01  7.72261074E+00  7.72261074E+00 -1.54452215E+01
  7.72261074E+00  7.72261074E+00 -1.54452215E+01  7.72261074E+00  7.72261074E+00
 -1.54452215E+01  7.72261074E+00  7.72261074E+00 -1.54452215E+01  7.72261074E+00
  7.72261074E+00 -1.54452215E+01  7.72261074E+00  7.72261074E+00 -1.54452215E+01
  7.72261074E+00  7.72261074E+00 -1.54452215E+01  7.72261074E+00  7.72261074E+00
 -1.54452215E+01  7.72261074E+00  7.72261074E+00 -1.54452215E+01  7.72261074E+00
  7.72261074E+00 -1.54452215E+01  7.72261074E+00  7.72261074E+00 -1.54452215E+01
  7.72261074E+00  7.72261074E+00 -1.54452215E+01  7.72261074E+00  7.72261074E+00
 -1.54452215E+01  7.72261074E+00  7.72261074E+00 -1.54452215E+01  7.72261074E+00
  7.72261074E+00 -1.54452215E+01  7.72261074E+00  7.72261074E+00 -1.54452215E+01
  7.72261074E+00  7.72261074E+00 -1.54452215E+01  7.72261074E+00  7.72261074E+00
 -1.54452215E+01  7.72261074E+00  7.72261074E+00 -1.54452215E+01  7.72261074E+00
  7.72261074E+00 -1.54452215E+01  7.72261074E+00  7.72261074E+00 -1.54452215E+01
  7.72261074E+00  7.72261074E+00 -1.54452215E+01  7.72261074E+00  7.72261074E+00
 -1.54452215E+01  7.72261074E+00  7.72261074E+00 -1.54452215E+01  7.72261074E+00
  7.72261074E+00 -1.54452215E+01  7.72261074E+00  7.72261074E+00 -1.54452215E+01
  7.72261074E+00  7.72261074E+00 -1.54452215E+01  7.72261074E+00  7.72261074E+00
 -1.54452215E+01  7.72261074E+00  7.72261074E+00 -1.54452215E+01  7.72261074E+00
  7.72261074E+00 -1.54452215E+01  7.72261074E+00  7.72261074E+00 -1.54452215E+01
  7.72261074E+00  7.72261074E+00 -1.54452215E+01  7.72261074E+00  7.72261074E+00
 -1.54452215E+01  7.72261074E+00  7.72261074E+00 -1.54452215E+01  7.72261074E+00
  7.72261074E+00 -1.54452215E+01  7.72261074E+00  7.72261074E+00 -1.54452215E+01
  7.72261074E+00  7.72261074E+00 -1.54452215E+01  7.72261074E+00  7.72261074E+00
 -1.54452215E+01  7.72261074E+00  7.72261074E+00 -1.54452215E+01  7.72261074E+00
  7.72261074E+00 -1.54452215E+01  7.72261074E+00  7.72261074E+00 -1.54452215E+01
  7.72261074E+00  7.72261074E+00 -1.54452215E+01  7.72261074E+00  7.72261074E+00
 -1.54452215E+01  7.72261074E+00  7.72261074E+00 -1.54452215E+01  7.72261074E+00
  7.72261074E+00 -1.54452215E+01  7.72261074E+00  7.72261074E+00 -1.54452215E+01
  7.72261074E+00  7.72261074E+00 -1.54452215E+01  7.72261074E+00  7.72261074E+00
 -1.54452215E+01  7.72261074E+00  7.72261074E+00 -1.54452215E+01  7.72261074E+00
  7.72261074E+00 -1.54452215E+01  7.72261074E+00  7.72261074E+00 -1.54452215E+01
  7.72261074E+00  7.72261074E+00 -1.54452215E+01  7.72261074E+00  7.72261074E+00
 -1.54452215E+01  7.72261074E+00  7.72261074E+00 -1.54452215E+01  7.72261074E+00
  7.72261074E+00 -1.54452215E+01  7.72261074E+00  7.72261074E+00 -1.54452215E+01
  7.72261074E+00  7.72261074E+00 -1.54452215E+01  7.72261074E+00  7.72261074E+00
 -1.54452215E+01  7.72261074E+00  7.72261074E+00 -1.54452215E+01  7.72261074E+00
  7.72261074E+00 -1.54452215E+01  7.72261074E+00  7.72261074E+00 -1.54452215E+01
  7.72261074E+00  7.72261074E+00 -1.54452215E+01  7.72261074E+00  7.72261074E+00
 -1.54452215E+01  7.72261074E+00  7.72261074E+00 -1.54452215E+01  7.72261074E+00
  7.72261074E+00 -1.54452215E+01  7.72261074E+00  7.72261074E+00 -1.54452215E+01
  7.72261074E+00  7.72261074E+00 -1.54452215E+01  7.72261074E+00  7.72261074E+00
 -1.54452215E+01  7.72261074E+00  7.72261074E+00 -1.54452215E+01  7.72261074E+00
  7.72261074E+00 -1.54452215E+01  7.72261074E+00  7.72261074E+00 -1.54452215E+01
  7.72261074E+00  7.72261074E+00 -1.54452215E+01  7.72261074E+00  7.72261074E+00
 -1.54452215E+01  7.72261074E+00  7.72261074E+00 -1.54452215E+01  7.72261074E+00
  7.72261074E+00 -1.54452215E+01  7.72261074E+00  7.72261074E+00 -1.54452215E+01
  7.72261074E+00  7.72261074E+00 -1.54452215E+01  7.72261074E+00  7.72261074E+00
 -1.54452215E+01  7.72261074E+00  7.72261074E+00 -1.54452215E+01  7.72261074E+00
  7.72261074E+00 -1.54452215E+01  7.72261074E+00  7.72261074E+00 -1.54452215E+01
  7.72261074E+00  7.72261074E+00 -1.54452215E+01  7.72261074E+00  7.72261074E+00
 -1.54452215E+01  7.72261074E+00  7.72261074E+00 -1.54452215E+01  7.72261074E+00
  7.72261074E+00 -1.54452215E+01  7.72261074E+00  7.72261074E+00 -1.54452215E+01
  7.72261074E+00  7.72261074E+00 -1.54452215E+01  7.72261074E+00  7.72261074E+00
 -1.54452215E+01  7.72261074E+00  7.72261074E+00 -1.54452215E+01  7.72261074E+00
  7.72261074E+00 -1.54452215E+01  7.72261074E+00  7.72261074E+00 -1.54452215E+01
  7.72261074E+00  7.72261074E+00 -1.54452215E+01  7.72261074E+00  7.72261074E+00
 -1.54452215E+01  7.72261074E+00  7.72261074E+00 -1.54452215E+01  7.72261074E+00
  7.72261074E+00 -1.54452215E+01  7.72261074E+00  7.72261074E+00 -1.54452215E+01
  7.72261074E+00  7.72261074E+00 -1.54452215E+01  7.72261074E+00  7.72261074E+00
 -1.54452215E+01  7.72261074E+00  7.72261074E+00 -1.54452215E+01  7.72261074E+00
  7.72261074E+00 -1.54452215E+01  7.72261074E+00  7.72261074E+00 -1.54452215E+01
  7.72261074E+00  7.72261074E+00 -1.54452215E+01  7.72261074E+00  7.72261074E+00
 -1.54452215E+01  7.72261074E+00  7.72261074E+00 -1.54452215E+01  7.72261074E+00
  7.72261074E+00 -1.54452215E+01  7.72261074E+00  7.72261074E+00 -1.54452215E+01
  7.72261074E+00  7.72261074E+00 -1.54452215E+01  7.72261074E+00  7.72261074E+00
 -1.54452215E+01  7.72261074E+00  7.72261074E+00 -1.54452215E+01  7.72261074E+00
  7.72261074E+00 -1.54452215E+01  7.72261074E+00  7.72261074E+00 -1.54452215E+01
  7.72261074E+00  7.72261074E+00 -1.54452215E+01  7.72261074E+00  7.72261074E+00
 -1.54452215E+01  7.72261074E+00  7.72261074E+00 -1.54452215E+01  7.72261074E+00
  7.72261074E+00 -1.54452215E+01  7.72261074E+00  7.72261074E+00 -1.54452215E+01
  7.72261074E+00  7.72261074E+00 -1.54452215E+01  7.72261074E+00  7.72261074E+00
 -1.54452215E+01  7.72261074E+00  7.72261074E+00 -1.54452215E+01  7.72261074E+00
  7.72261074E+00 -1.54452215E+01  7.72261074E+00  7.72261074E+00 -1.54452215E+01
  7.72261074E+00  7.72261074E+00 -1.54452215E+01  7.72261074E+00  7.72261074E+00
 -1.54452215E+01  7.72261074E+00  7.72261074E+00 -1.54452215E+01  7.72261074E+00
  7.72261074E+00 -1.54452215E+01  7.72261074E+00  7.72261074E+00 -1.54452215E+01
  7.72261074E+00  7.72261074E+00 -1.54452215E+01  7.72261074E+00  7.72261074E+00
 -1.54452215E+01  7.72261074E+00  7.72261074E+00 -1.54452215E+01  7.72261074E+00
  7.72261074E+00 -1.54452215E+01  7.72261074E+00  7.72261074E+00 -1.54452215E+01
  7.72261074E+00  7.72261074E+00 -1.54452215E+01  7.72261074E+00  7.72261074E+00
 -1.54452215E+01  7.72261074E+00  7.72261074E+00 -1.54452215E+01  7.72261074E+00
  7.72261074E+00 -1.54452215E+01  7.72261074E+00  7.72261074E+00 -1.54452215E+01
  7.72261074E+00  7.72261074E+00 -1.54452215E+01  7.72261074E+00  7.72261074E+00
 -1.54452215E+01  7.72261074E+00  7.72261074E+00 -1.54452215E+01  7.72261074E+00
  7.72261074E+00 -1.54452215E+01  7.72261074E+00  7.72261074E+00 -1.54452215E+01
  7.72261074E+00  7.72261074E+00 -1.54452215E+01  7.72261074E+00  7.72261074E+00
 -1.54452215E+01  7.72261074E+00  7.72261074E+00 -1.54452215E+01  7.72261074E+00
  7.72261074E+00 -1.54452215E+01  7.72261074E+00  7.72261074E+00 -1.54452215E+01
  7.72261074E+00  7.72261074E+00 -1.54452215E+01  7.72261074E+00  7.72261074E+00
 -1.54452215E+01  7.72261074E+00  7.72261074E+00 -1.54452215E+01  7.72261074E+00
  7.72261074E+00 -1.54452215E+01  7.72261074E+00  7.72261074E+00 -1.54452215E+01
  7.72261074E+00  7.72261074E+00 -1.54452215E+01  7.72261074E+00  7.72261074E+00
 -1.54452215E+01  7.72261074E+00  7.72261074E+00 -1.54452215E+01  7.72261074E+00
  7.72261074E+00 -1.54452215E+01  7.72261074E+00  7.72261074E+00 -1.54452215E+01
  7.72261074E+00  7.72261074E+00 -1.54452215E+01  7.72261074E+00  7.72261074E+00
 -1.54452215E+01  7.72261074E+00  7.72261074E+00 -1.54452215E+01  7.72261074E+00
  7.72261074E+00 -1.54452215E+01  7.72261074E+00  7.72261074E+00 -1.54452215E+01
  7.72261074E+00  7.72261074E+00 -1.54452215E+01  7.72261074E+00  7.72261074E+00
 -1.54452215E+01  7.72261074E+00  7.72261074E+00 -1.54452215E+01  7.72261074E+00
  7.72261074E+00 -1.54452215E+01  7.72261074E+00  7.72261074E+00 -1.54452215E+01
  7.72261074E+00  7.72261074E+00 -1.54452215E+01  7.72261074E+00  7.72261074E+00
 -1.54452215E+01  7.72261074E+00  7.72261074E+00 -1.54452215E+01  7.72261074E+00
  7.72261074E+00 -1.54452215E+01  7.72261074E+00  7.72261074E+00 -1.54452215E+01
  7.72261074E+00  7.72261074E+00 -1.54452215E+01  7.72261074E+00  7.72261074E+00
 -1.54452215E+01  7.72261074E+00  7.72261074E+00 -1.54452215E+01  7.72261074E+00
  7.72261074E+00 -1.54452215E+01  7.72261074E+00  7.72261074E+00 -1.54452215E+01
  7.72261074E+00  7.72261074E+00 -1.54452215E+01  7.72261074E+00  7.72261074E+00
 -1.54452215E+01  7.72261074E+00  7.72261074E+00 -1.54452215E+01  7.72261074E+00
  7.72261074E+00 -1.54452215E+01  7.72261074E+00  7.72261074E+00 -1.54452215E+01
  7.72261074E+00  7.72261074E+00 -1.54452215E+01  7.72261074E+00  7.72261074E+00
 -1.54452215E+01  7.72261074E+00  7.72261074E+00 -1.54452215E+01  7.72261074E+00
  7.72261074E+00 -1.54452215E+01  7.72261074E+00  7.72261074E+00 -1.54452215E+01
  7.72261074E+00  7.72261074E+00 -1.54452215E+01  7.72261074E+00  7.72261074E+00
 -1.54452215E+01  7.72261074E+00  7.72261074E+00 -1.54452215E+01  7.72261074E+00
  7.72261074E+00 -1.54452215E+01  7.72261074E+00  7.72261074E+00 -1.54452215E+01
  7.72261074E+00  7.72261074E+00 -1.54452215E+01  7.72261074E+00  7.72261074E+00
 -1.54452215E+01  7.72261074E+00  7.72261074E+00 -1.54452215E+01  7.72261074E+00
  7.72261074E+00 -1.54452215E+01  7.72261074E+00  7.72261074E+00 -1.54452215E+01
  7.72261074E+00  7.72261074E+00 -1.54452215E+01  7.72261074E+00  7.72261074E+00
 -1.54452215E+01  7.72261074E+00  7.72261074E+00 -1.54452215E+01  7.72261074E+00
  7.72261074E+00 -1.54452215E+01  7.72261074E+00  7.72261074E+00 -1.54452215E+01
  7.72261074E+00  7.72261074E+00 -1.54452215E+01  7.72261074E+00  7.72261074E+00
 -1.54452215E+01  7.72261074E+00  7.72261074E+00 -1.54452215E+01  7.72261074E+00
  7.72261074E+00 -1.54452215E+01  7.72261074E+00  7.72261074E+00 -1.54452215E+01
  7.72261074E+00  7.72261074E+00 -1.54452215E+01  7.72261074E+00  7.72261074E+00
 -1.54452215E+01  7.72261074E+00  7.72261074E+00 -1.54452215E+01  7.72261074E+00
  7.72261074E+00 -1.54452215E+01  7.72261074E+00  7.72261074E+00 -1.54452215E+01
  7.72261074E+00  7.72261074E+00 -1.54452215E+01  7.72261074E+00  7.72261074E+00
 -1.54452215E+01  7.72261074E+00  7.72261074E+00 -1.54452215E+01  7.72261074E+00
  7.72261074E+00 -1.54452215E+01  7.72261074E+00  7.72261074E+00 -1.54452215E+01
  7.72261074E+00  7.72261074E+00 -1.54452215E+01  7.72261074E+00  7.72261074E+00
 -1.54452215E+01  7.72261074E+00  7.72261074E+00 -1.54452215E+01  7.72261074E+00
  7.72261074E+00 -1.54452215E+01  7.72261074E+00  7.72261074E+00 -1.54452215E+01
  7.72261074E+00  7.72261074E+00 -1.54452215E+01  7.72261074E+00  7.72261074E+00
 -1.54452215E+01  7.72261074E+00  7.72261074E+00 -1.54452215E+01  7.72261074E+00
  7.72261074E+00 -1.54452215E+01  7.72261074E+00  7.72261074E+00 -1.54452215E+01
  7.72261074E+00  7.72261074E+00 -1.54452215E+01  7.72261074E+00  7.72261074E+00
 -1.54452215E+01  7.72261074E+00  7.72261074E+00 -1.54452215E+01  7.72261074E+00
  7.72261074E+00 -1.54452215E+01  7.72261074E+00  7.72261074E+00 -1.54452215E+01
  7.72261074E+00  7.72261074E+00 -1.54452215E+01  7.72261074E+00  7.72261074E+00
 -1.54452215E+01  7.72261074E+00  7.72261074E+00 -1.54452215E+01  7.72261074E+00
  7.72261074E+00 -1.54452215E+01  7.72261074E+00  7.72261074E+00 -1.54452215E+01
  7.72261074E+00  7.72261074E+00 -1.54452215E+01  7.72261074E+00  7.72261074E+00
 -1.54452215E+01  7.72261074E+00  7.72261074E+00 -1.54452215E+01  7.72261074E+00
  7.72261074E+00 -1.54452215E+01  7.72261074E+00  7.72261074E+00 -1.54452215E+01
  7.72261074E+00  7.72261074E+00 -1.54452215E+01  7.72261074E+00  7.72261074E+00
 -1.54452215E+01  7.72261074E+00  7.72261074E+00 -1.54452215E+01  7.72261074E+00
  7.72261074E+00 -1.54452215E+01  7.72261074E+00  7.72261074E+00 -1.54452215E+01
  7.72261074E+00  7.72261074E+00 -1.54452215E+01  7.72261074E+00  7.72261074E+00
 -1.54452215E+01  7.72261074E+00  7.72261074E+00 -1.54452215E+01  7.72261074E+00
  7.72261074E+00 -1.54452215E+01  7.72261074E+00  7.72261074E+00 -1.54452215E+01
  7.72261074E+00  7.72261074E+00 -1.54452215E+01  7.72261074E+00  7.72261074E+00
 -1.54452215E+01  7.72261074E+00  7.72261074E+00 -1.54452215E+01  7.72261074E+00
  7.72261074E+00 -1.54452215E+01  7.72261074E+00  7.72261074E+00 -1.54452215E+01
  7.72261074E+00  7.72261074E+00 -1.54452215E+01  7.72261074E+00  7.72261074E+00
 -1.54452215E+01  7.72261074E+00  7.72261074E+00 -1.54452215E+01  7.72261074E+00
  7.72261074E+00 -1.54452215E+01  7.72261074E+00  7.72261074E+00 -1.54452215E+01
  7.72261074E+00  7.72261074E+00 -1.54452215E+01  7.72261074E+00  7.72261074E+00
 -1.54452215E+01  7.72261074E+00  7.72261074E+00 -1.54452215E+01  7.72261074E+00
  7.72261074E+00 -1.54452215E+01  7.72261074E+00  7.72261074E+00 -1.54452215E+01
  7.72261074E+00  7.72261074E+00 -1.54452215E+01  7.72261074E+00  7.72261074E+00
 -1.54452215E+01  7.72261074E+00  7.72261074E+00 -1.54452215E+01  7.72261074E+00
  7.72261074E+00 -1.54452215E+01  7.72261074E+00  7.72261074E+00 -1.54452215E+01
  7.72261074E+00  7.72261074E+00 -1.54452215E+01  7.72261074E+00  7.72261074E+00
 -1.54452215E+01  7.72261074E+00  7.72261074E+00 -1.54452215E+01  7.72261074E+00
  7.72261074E+00 -1.54452215E+01  7.72261074E+00  7.72261074E+00 -1.54452215E+01
  7.72261074E+00  7.72261074E+00 -1.54452215E+01  7.72261074E+00  7.72261074E+00
 -1.54452215E+01  7.72261074E+00  7.72261074E+00 -1.54452215E+01  7.72261074E+00
  7.72261074E+00 -1.54452215E+01  7.72261074E+00  7.72261074E+00 -1.54452215E+01
  7.72261074E+00  7.72261074E+00 -1.54452215E+01  7.72261074E+00  7.72261074E+00
 -1.54452215E+01  7.72261074E+00  7.72261074E+00 -1.54452215E+01  7.72261074E+00
  7.72261074E+00 -1.54452215E+01  7.72261074E+00  7.72261074E+00 -1.54452215E+01
  7.72261074E+00  7.72261074E+00 -1.54452215E+01  7.72261074E+00  7.72261074E+00
 -1.54452215E+01  7.72261074E+00  7.72261074E+00 -1.54452215E+01  7.72261074E+00
  7.72261074E+00 -1.54452215E+01  7.72261074E+00  7.72261074E+00 -1.54452215E+01
  7.72261074E+00  7.72261074E+00 -1.54452215E+01  7.72261074E+00  7.72261074E+00
 -1.54452215E+01  7.72261074E+00  7.72261074E+00 -1.54452215E+01  7.72261074E+00
  7.72261074E+00 -1.54452215E+01  7.72261074E+00  7.72261074E+00 -1.54452215E+01
  7.72261074E+00  7.72261074E+00 -1.54452215E+01  7.72261074E+00  7.72261074E+00
 -1.54452215E+01  7.72261074E+00  7.72261074E+00 -1.54452215E+01  7.72261074E+00
  7.72261074E+00 -1.54452215E+01  7.72261074E+00  7.72261074E+00 -1.54452215E+01
  7.72261074E+00  7.72261074E+00 -1.54452215E+01  7.72261074E+00  7.72261074E+00
 -1.54452215E+01  7.72261074E+00  7.72261074E+00 -1.54452215E+01  7.72261074E+00
  7.72261074E+00 -1.54452215E+01  7.72261074E+00  7.72261074E+00 -1.54452215E+01
  7.72261074E+00  7.72261074E+00 -1.54452215E+01  7.72261074E+00  7.72261074E+00
 -1.54452215E+01  7.72261074E+00  7.72261074E+00 -1.54452215E+01  7.72261074E+00
  7.72261074E+00 -1.54452215E+01  7.72261074E+00  7.72261074E+00 -1.54452215E+01
  7.72261074E+00  7.72261074E+00 -1.54452215E+01  7.72261074E+00  7.72261074E+00
 -1.54452215E+01  7.72261074E+00  7.72261074E+00 -1.54452215E+01  7.72261074E+00
  7.72261074E+00 -1.54452215E+01  7.72261074E+00  7.72261074E+00 -1.54452215E+01
  7.72261074E+00  7.72261074E+00 -1.54452215E+01  7.72261074E+00  7.72261074E+00
 -1.54452215E+01  7.72261074E+00  7.72261074E+00 -1.54452215E+01  7.72261074E+00
  7.72261074E+00 -1.54452215E+01  7.72261074E+00  7.72261074E+00 -1.54452215E+01
  7.72261074E+00  7.72261074E+00 -1.54452215E+01  7.72261074E+00  7.72261074E+00
 -1.54452215E+01  7.72261074E+00  7.72261074E+00 -1.54452215E+01  7.72261074E+00
  7.72261074E+00 -1.54452215E+01  7.72261074E+00  7.72261074E+00 -1.54452215E+01
  7.72261074E+00  7.72261074E+00 -1.54452215E+01  7.72261074E+00  7.72261074E+00
 -1.54452215E+01  7.72261074E+00  7.72261074E+00 -1.54452215E+01  7.72261074E+00
  7.72261074E+00 -1.54452215E+01  7.72261074E+00  7.72261074E+00 -1.54452215E+01
  7.72261074E+00  7.72261074E+00 -1.54452215E+01  7.72261074E+00  7.72261074E+00
 -1.54452215E+01  7.72261074E+00  7.72261074E+00 -1.54452215E+01  7.72261074E+00
  7.72261074E+00 -1.54452215E+01  7.72261074E+00  7.72261074E+00 -1.54452215E+01
  7.72261074E+00  7.72261074E+00 -1.54452215E+01  7.72261074E+00  7.72261074E+00
 -1.54452215E+01  7.72261074E+00  7.72261074E+00 -1.54452215E+01  7.72261074E+00
  7.72261074E+00 -1.54452215E+01  7.72261074E+00  7.72261074E+00 -1.54452215E+01
  7.72261074E+00  7.72261074E+00 -1.54452215E+01  7.72261074E+00  7.72261074E+00
 -1.54452215E+01  7.72261074E+00  7.72261074E+00 -1.54452215E+01  7.72261074E+00
  7.72261074E+00 -1.54452215E+01  7.72261074E+00  7.72261074E+00 -1.54452215E+01
  7.72261074E+00  7.72261074E+00 -1.54452215E+01  7.72261074E+00  7.72261074E+00
 -1.54452215E+01  7.72261074E+00  7.72261074E+00 -1.54452215E+01  7.72261074E+00
  7.72261074E+00 -1.54452215E+01  7.72261074E+00  7.72261074E+00 -1.54452215E+01
  7.72261074E+00  7.72261074E+00 -1.54452215E+01  7.72261074E+00  7.72261074E+00
 -1.54452215E+01  7.72261074E+00  7.72261074E+00 -1.54452215E+01  7.72261074E+00
  7.72261074E+00 -1.54452215E+01  7.72261074E+00  7.72261074E+00 -1.54452215E+01
  7.72261074E+00  7.72261074E+00 -1.54452215E+01  7.72261074E+00  7.72261074E+00
 -1.54452215E+01  7.72261074E+00  7.72261074E+00 -1.54452215E+01  7.72261074E+00
  7.72261074E+00 -1.54452215E+01  7.72261074E+00  7.72261074E+00 -1.54452215E+01
  7.72261074E+00  7.72261074E+00 -1.54452215E+01  7.72261074E+00  7.72261074E+00
 -1.54452215E+01  7.72261074E+00  7.72261074E+00 -1.54452215E+01  7.72261074E+00
  7.72261074E+00 -1.54452215E+01  7.72261074E+00  7.72261074E+00 -1.54452215E+01
  7.72261074E+00  7.72261074E+00 -1.54452215E+01  7.72261074E+00  7.72261074E+00
 -1.54452215E+01  7.72261074E+00  7.72261074E+00 -1.54452215E+01  7.72261074E+00
  7.72261074E+00 -1.54452215E+01  7.72261074E+00  7.72261074E+00 -1.54452215E+01
  7.72261074E+00  7.72261074E+00 -1.54452215E+01  7.72261074E+00  7.72261074E+00
 -1.54452215E+01  7.72261074E+00  7.72261074E+00 -1.54452215E+01  7.72261074E+00
  7.72261074E+00 -1.54452215E+01  7.72261074E+00  7.72261074E+00 -1.54452215E+01
  7.72261074E+00  7.72261074E+00 -1.54452215E+01  7.72261074E+00  7.72261074E+00
 -1.54452215E+01  7.72261074E+00  7.72261074E+00 -1.54452215E+01  7.72261074E+00
  7.72261074E+00 -1.54452215E+01  7.72261074E+00  7.72261074E+00 -1.54452215E+01
  7.72261074E+00  7.72261074E+00 -1.54452215E+01  7.72261074E+00  7.72261074E+00
 -1.54452215E+01  7.72261074E+00  7.72261074E+00 -1.54452215E+01  7.72261074E+00
  7.72261074E+00 -1.54452215E+01  7.72261074E+00  7.72261074E+00 -1.54452215E+01
  7.72261074E+00  7.72261074E+00 -1.54452215E+01  7.72261074E+00  7.72261074E+00
 -1.54452215E+01  7.72261074E+00  7.72261074E+00 -1.54452215E+01  7.72261074E+00
  7.72261074E+00 -1.54452215E+01  7.72261074E+00  7.72261074E+00 -1.54452215E+01
  7.72261074E+00  7.72261074E+00 -1.54452215E+01  7.72261074E+00  7.72261074E+00
 -1.54452215E+01  7.72261074E+00  7.72261074E+00 -1.54452215E+01  7.72261074E+00
  7.72261074E+00 -1.54452215E+01  7.72261074E+00  7.72261074E+00 -1.54452215E+01
  7.72261074E+00  7.72261074E+00 -1.54452215E+01  7.72261074E+00  7.72261074E+00
 -1.54452215E+01  7.72261074E+00  7.72261074E+00 -1.54452215E+01  7.72261074E+00
  7.72261074E+00 -1.54452215E+01  7.72261074E+00  7.72261074E+00 -1.54452215E+01
  7.72261074E+00  7.72261074E+00 -1.54452215E+01  7.72261074E+00  7.72261074E+00
 -1.54452215E+01  7.72261074E+00  7.72261074E+00 -1.54452215E+01  7.72261074E+00
  7.72261074E+00 -1.54452215E+01  7.72261074E+00  7.72261074E+00 -1.54452215E+01
  7.72261074E+00  7.72261074E+00 -1.54452215E+01  7.72261074E+00  7.72261074E+00
 -1.54452215E+01  7.72261074E+00  7.72261074E+00 -1.54452215E+01  7.72261074E+00
  7.72261074E+00 -1.54452215E+01  7.72261074E+00  7.72261074E+00 -1.54452215E+01
  7.72261074E+00  7.72261074E+00 -1.54452215E+01  7.72261074E+00  7.72261074E+00
 -1.54452215E+01  7.72261074E+00  7.72261074E+00 -1.54452215E+01  7.72261074E+00
  7.72261074E+00 -1.54452215E+01  7.72261074E+00  7.72261074E+00 -1.54452215E+01
  7.72261074E+00  7.72261074E+00 -1.54452215E+01  7.72261074E+00  7.72261074E+00
 -1.54452215E+01  7.72261074E+00  7.72261074E+00 -1.54452215E+01  7.72261074E+00
  7.72261074E+00 -1.54452215E+01  7.72261074E+00  7.72261074E+00 -1.54452215E+01
  7.72261074E+00  7.72261074E+00 -1.54452215E+01  7.72261074E+00  7.72261074E+00
 -1.54452215E+01  7.72261074E+00  7.72261074E+00 -1.54452215E+01  7.72261074E+00
  7.72261074E+00 -1.54452215E+01  7.72261074E+00  7.72261074E+00 -1.54452215E+01
  7.72261074E+00  7.72261074E+00 -1.54452215E+01  7.72261074E+00  7.72261074E+00
 -1.54452215E+01  7.72261074E+00  7.72261074E+00 -1.54452215E+01  7.72261074E+00
  7.72261074E+00 -1.54452215E+01  7.72261074E+00  7.72261074E+00 -1.54452215E+01
  7.72261074E+00  7.72261074E+00 -1.54452215E+01  7.72261074E+00  7.72261074E+00
 -1.54452215E+01  7.72261074E+00  7.72261074E+00 -1.54452215E+01  7.72261074E+00
  7.72261074E+00 -1.54452215E+01  7.72261074E+00  7.72261074E+00 -1.54452215E+01
  7.72261074E+00  7.72261074E+00 -1.54452215E+01  7.72261074E+00  7.72261074E+00
 -1.54452215E+01  7.72261074E+00  7.72261074E+00 -1.54452215E+01  7.72261074E+00
  7.72261074E+00 -1.54452215E+01  7.72261074E+00  7.72261074E+00 -1.54452215E+01
  7.72261074E+00  7.72261074E+00 -1.54452215E+01  7.72261074E+00  7.72261074E+00
 -1.54452215E+01  7.72261074E+00  7.72261074E+00 -1.54452215E+01  7.72261074E+00
  7.72261074E+00 -1.54452215E+01  7.72261074E+00  7.72261074E+00 -1.54452215E+01
  7.72261074E+00  7.72261074E+00 -1.54452215E+01  7.72261074E+00  7.72261074E+00
 -1.54452215E+01  7.72261074E+00  7.72261074E+00 -1.54452215E+01  7.72261074E+00
  7.72261074E+00 -1.54452215E+01  7.72261074E+00  7.72261074E+00 -1.54452215E+01
  7.72261074E+00  7.72261074E+00 -1.54452215E+01  7.72261074E+00  7.72261074E+00
 -1.54452215E+01  7.72261074E+00  7.72261074E+00 -1.54452215E+01  7.72261074E+00
  7.72261074E+00 -1.54452215E+01  7.72261074E+00  7.72261074E+00 -1.54452215E+01
  7.72261074E+00  7.72261074E+00 -1.54452215E+01  7.72261074E+00  7.72261074E+00
 -1.54452215E+01  7.72261074E+00  7.72261074E+00 -1.54452215E+01  7.72261074E+00
  7.72261074E+00 -1.54452215E+01  7.72261074E+00  7.72261074E+00 -1.54452215E+01
  7.72261074E+00  7.72261074E+00 -1.54452215E+01  7.72261074E+00  7.72261074E+00
 -1.54452215E+01  7.72261074E+00  7.72261074E+00 -1.54452215E+01  7.72261074E+00
  7.72261074E+00 -1.54452215E+01  7.72261074E+00  7.72261074E+00 -1.54452215E+01
  7.72261074E+00  7.72261074E+00 -1.54452215E+01  7.72261074E+00  7.72261074E+00
 -1.54452215E+01  7.72261074E+00  7.72261074E+00 -1.54452215E+01  7.72261074E+00
  7.72261074E+00 -1.54452215E+01  7.72261074E+00  7.72261074E+00 -1.54452215E+01
  7.72261074E+00  7.72261074E+00 -1.54452215E+01  7.72261074E+00  7.72261074E+00
 -1.54452215E+01  7.72261074E+00  7.72261074E+00 -1.54452215E+01  7.72261074E+00
  7.72261074E+00 -1.54452215E+01  7.72261074E+00  7.72261074E+00 -1.54452215E+01
  7.72261074E+00  7.72261074E+00 -1.54452215E+01  7.72261074E+00  7.72261074E+00
 -1.54452215E+01  7.72261074E+00  7.72261074E+00 -1.54452215E+01  7.72261074E+00
  7.72261074E+00 -1.54452215E+01  7.72261074E+00  7.72261074E+00 -1.54452215E+01
  7.72261074E+00  7.72261074E+00 -1.54452215E+01  7.72261074E+00  7.72261074E+00
 -1.54452215E+01  7.72261074E+00  7.72261074E+00 -1.54452215E+01  7.72261074E+00
  7.72261074E+00 -1.54452215E+01  7.72261074E+00  7.72261074E+00 -1.54452215E+01
  7.72261074E+00  7.72261074E+00 -1.54452215E+01  7.72261074E+00  7.72261074E+00
 -1.54452215E+01  7.72261074E+00  7.72261074E+00 -1.54452215E+01  7.72261074E+00
  7.72261074E+00 -1.54452215E+01  7.72261074E+00  7.72261074E+00 -1.54452215E+01
  7.72261074E+00  7.72261074E+00 -1.54452215E+01  7.72261074E+00  7.72261074E+00
 -1.54452215E+01  7.72261074E+00  7.72261074E+00 -1.54452215E+01  7.72261074E+00
  7.72261074E+00 -1.54452215E+01  7.72261074E+00  7.72261074E+00 -1.54452215E+01
  7.72261074E+00  7.72261074E+00 -1.54452215E+01  7.72261074E+00  7.72261074E+00
 -1.54452215E+01  7.72261074E+00  7.72261074E+00 -1.54452215E+01  7.72261074E+00
  7.72261074E+00 -1.54452215E+01  7.72261074E+00  7.72261074E+00 -1.54452215E+01
  7.72261074E+00  7.72261074E+00 -1.54452215E+01  7.72261074E+00  7.72261074E+00
 -1.54452215E+01  7.72261074E+00  7.72261074E+00 -1.54452215E+01  7.72261074E+00
  7.72261074E+00 -1.54452215E+01  7.72261074E+00  7.72261074E+00 -1.54452215E+01
  7.72261074E+00  7.72261074E+00 -1.54452215E+01  7.72261074E+00  7.72261074E+00
 -1.54452215E+01  7.72261074E+00  7.72261074E+00 -1.54452215E+01  7.72261074E+00
  7.72261074E+00 -1.54452215E+01  7.72261074E+00  7.72261074E+00 -1.54452215E+01
  7.72261074E+00  7.72261074E+00 -1.54452215E+01  7.72261074E+00  7.72261074E+00
 -1.54452215E+01  7.72261074E+00  7.72261074E+00 -1.54452215E+01  7.72261074E+00
  7.72261074E+00 -1.54452215E+01  7.72261074E+00  7.72261074E+00 -1.54452215E+01
  7.72261074E+00  7.72261074E+00 -1.54452215E+01  7.72261074E+00  7.72261074E+00
 -1.54452215E+01  7.72261074E+00  7.72261074E+00 -1.54452215E+01  7.72261074E+00
  7.72261074E+00 -1.54452215E+01  7.72261074E+00  7.72261074E+00 -1.54452215E+01
  7.72261074E+00  7.72261074E+00 -1.54452215E+01  7.72261074E+00  7.72261074E+00
 -1.54452215E+01  7.72261074E+00  7.72261074E+00 -1.54452215E+01  7.72261074E+00
  7.72261074E+00 -1.54452215E+01  7.72261074E+00  7.72261074E+00 -1.54452215E+01
  7.72261074E+00  7.72261074E+00 -1.54452215E+01  7.72261074E+00  7.72261074E+00
 -1.54452215E+01  7.72261074E+00  7.72261074E+00 -1.54452215E+01  7.72261074E+00
  7.72261074E+00 -1.54452215E+01  7.72261074E+00  7.72261074E+00 -1.54452215E+01
  7.72261074E+00  7.72261074E+00 -1.54452215E+01  7.72261074E+00  7.72261074E+00
 -1.54452215E+01  7.72261074E+00  7.72261074E+00 -1.54452215E+01  7.72261074E+00
  7.72261074E+00 -1.54452215E+01  7.72261074E+00  7.72261074E+00 -1.54452215E+01
  7.72261074E+00  7.72261074E+00 -1.54452215E+01  7.72261074E+00  7.72261074E+00
 -1.54452215E+01  7.72261074E+00  7.72261074E+00 -1.54452215E+01  7.72261074E+00
  7.72261074E+00 -1.54452215E+01  7.72261074E+00  7.72261074E+00 -1.54452215E+01
  7.72261074E+00  7.72261074E+00 -1.54452215E+01  7.72261074E+00  7.72261074E+00
 -1.54452215E+01  7.72261074E+00  7.72261074E+00 -1.54452215E+01  7.72261074E+00
  7.72261074E+00 -1.54452215E+01  7.72261074E+00  7.72261074E+00 -1.54452215E+01
  7.72261074E+00  7.72261074E+00 -1.54452215E+01  7.72261074E+00  7.72261074E+00
 -1.54452215E+01  7.72261074E+00  7.72261074E+00 -1.54452215E+01  7.72261074E+00
  7.72261074E+00 -1.54452215E+01  7.72261074E+00  7.72261074E+00 -1.54452215E+01
  7.72261074E+00  7.72261074E+00 -1.54452215E+01  7.72261074E+00  7.72261074E+00
 -1.54452215E+01  7.72261074E+00  7.72261074E+00 -1.54452215E+01  7.72261074E+00
  7.72261074E+00 -1.54452215E+01  7.72261074E+00  7.72261074E+00 -1.54452215E+01
  7.72261074E+00  7.72261074E+00 -1.54452215E+01  7.72261074E+00  7.72261074E+00
 -1.54452215E+01  7.72261074E+00  7.72261074E+00 -1.54452215E+01  7.72261074E+00
  7.72261074E+00 -1.54452215E+01  7.72261074E+00  7.72261074E+00 -1.54452215E+01
  7.72261074E+00  7.72261074E+00 -1.54452215E+01  7.72261074E+00  7.72261074E+00
 -1.54452215E+01  7.72261074E+00  7.72261074E+00 -1.54452215E+01  7.72261074E+00
  7.72261074E+00 -1.54452215E+01  7.72261074E+00  7.72261074E+00 -1.54452215E+01
  7.72261074E+00  7.72261074E+00 -1.54452215E+01  7.72261074E+00  7.72261074E+00
 -1.54452215E+01  7.72261074E+00  7.72261074E+00 -1.54452215E+01  7.72261074E+00
  7.72261074E+00 -1.54452215E+01  7.72261074E+00  7.72261074E+00 -1.54452215E+01
  7.72261074E+00  7.72261074E+00 -1.54452215E+01  7.72261074E+00  7.72261074E+00
 -1.54452215E+01  7.72261074E+00  7.72261074E+00 -1.54452215E+01  7.72261074E+00
  7.72261074E+00 -1.54452215E+01  7.72261074E+00  7.72261074E+00 -1.54452215E+01
  7.72261074E+00  7.72261074E+00 -1.54452215E+01  7.72261074E+00  7.72261074E+00
 -1.54452215E+01  7.72261074E+00  7.72261074E+00 -1.54452215E+01  7.72261074E+00
  7.72261074E+00 -1.54452215E+01  7.72261074E+00  7.72261074E+00 -1.54452215E+01
  7.72261074E+00  7.72261074E+00 -1.54452215E+01  7.72261074E+00  7.72261074E+00
 -1.54452215E+01  7.72261074E+00  7.72261074E+00 -1.54452215E+01  7.72261074E+00
  7.72261074E+00 -1.54452215E+01  7.72261074E+00  7.72261074E+00 -1.54452215E+01
  7.72261074E+00  7.72261074E+00 -1.54452215E+01  7.72261074E+00  7.72261074E+00
 -1.54452215E+01  7.72261074E+00  7.72261074E+00 -1.54452215E+01  7.72261074E+00
  7.72261074E+00 -1.54452215E+01  7.72261074E+00  7.72261074E+00 -1.54452215E+01
  7.72261074E+00  7.72261074E+00 -1.54452215E+01  7.72261074E+00  7.72261074E+00
 -1.54452215E+01  7.72261074E+00  7.72261074E+00 -1.54452215E+01  7.72261074E+00
  7.72261074E+00 -1.54452215E+01  7.72261074E+00  7.72261074E+00 -1.54452215E+01
  7.72261074E+00  7.72261074E+00 -1.54452215E+01  7.72261074E+00  7.72261074E+00
 -1.54452215E+01  7.72261074E+00  7.72261074E+00 -1.54452215E+01  7.72261074E+00
  7.72261074E+00 -1.54452215E+01  7.72261074E+00  7.72261074E+00 -1.54452215E+01
  7.72261074E+00  7.72261074E+00 -1.54452215E+01  7.72261074E+00  7.72261074E+00
 -1.54452215E+01  7.72261074E+00  7.72261074E+00 -1.54452215E+01  7.72261074E+00
  7.72261074E+00 -1.54452215E+01  7.72261074E+00  7.72261074E+00 -1.54452215E+01
  7.72261074E+00  7.72261074E+00 -1.54452215E+01  7.72261074E+00  7.72261074E+00
 -1.54452215E+01  7.72261074E+00  7.72261074E+00 -1.54452215E+01  7.72261074E+00
  7.72261074E+00 -1.54452215E+01  7.72261074E+00  7.72261074E+00 -1.54452215E+01
  7.72261074E+00  7.72261074E+00 -1.54452215E+01  7.72261074E+00  7.72261074E+00
 -1.54452215E+01  7.72261074E+00  7.72261074E+00 -1.54452215E+01  7.72261074E+00
  7.72261074E+00 -1.54452215E+01  7.72261074E+00  7.72261074E+00 -1.54452215E+01
  7.72261074E+00  7.72261074E+00 -1.54452215E+01  7.72261074E+00  7.72261074E+00
 -1.54452215E+01  7.72261074E+00  7.72261074E+00 -1.54452215E+01  7.72261074E+00
  7.72261074E+00 -1.54452215E+01  7.72261074E+00  7.72261074E+00 -1.54452215E+01
  7.72261074E+00  7.72261074E+00 -1.54452215E+01  7.72261074E+00  7.72261074E+00
 -1.54452215E+01  7.72261074E+00  7.72261074E+00 -1.54452215E+01  7.72261074E+00
  7.72261074E+00 -1.54452215E+01  7.72261074E+00  7.72261074E+00 -1.54452215E+01
  7.72261074E+00  7.72261074E+00 -1.54452215E+01  7.72261074E+00  7.72261074E+00
 -1.54452215E+01  7.72261074E+00  7.72261074E+00 -1.54452215E+01  7.72261074E+00
  7.72261074E+00 -1.54452215E+01  7.72261074E+00  7.72261074E+00 -1.54452215E+01
  7.72261074E+00  7.72261074E+00 -1.54452215E+01  7.72261074E+00  7.72261074E+00
 -1.54452215E+01  7.72261074E+00  7.72261074E+00 -1.54452215E+01  7.72261074E+00
  7.72261074E+00 -1.54452215E+01  7.72261074E+00  7.72261074E+00 -1.54452215E+01
  7.72261074E+00  7.72261074E+00 -1.54452215E+01  7.72261074E+00  7.72261074E+00
 -1.54452215E+01  7.72261074E+00  7.72261074E+00 -1.54452215E+01  7.72261074E+00
  7.72261074E+00 -1.54452215E+01  7.72261074E+00  7.72261074E+00 -1.54452215E+01
  7.72261074E+00  7.72261074E+00 -1.54452215E+01  7.72261074E+00  7.72261074E+00
 -1.54452215E+01  7.72261074E+00  7.72261074E+00 -1.54452215E+01  7.72261074E+00
  7.72261074E+00 -1.54452215E+01  7.72261074E+00  7.72261074E+00 -1.54452215E+01
  7.72261074E+00  7.72261074E+00 -1.54452215E+01  7.72261074E+00  7.72261074E+00
 -1.54452215E+01  7.72261074E+00  7.72261074E+00 -1.54452215E+01  7.72261074E+00
  7.72261074E+00 -1.54452215E+01  7.72261074E+00  7.72261074E+00 -1.54452215E+01
  7.72261074E+00  7.72261074E+00 -1.54452215E+01  7.72261074E+00  7.72261074E+00
 -1.54452215E+01  7.72261074E+00  7.72261074E+00 -1.54452215E+01  7.72261074E+00
  7.72261074E+00 -1.54452215E+01  7.72261074E+00  7.72261074E+00 -1.54452215E+01
  7.72261074E+00  7.72261074E+00 -1.54452215E+01  7.72261074E+00  7.72261074E+00
 -1.54452215E+01  7.72261074E+00  7.72261074E+00 -1.54452215E+01  7.72261074E+00
  7.72261074E+00 -1.54452215E+01  7.72261074E+00  7.72261074E+00 -1.54452215E+01
  7.72261074E+00  7.72261074E+00 -1.54452215E+01  7.72261074E+00  7.72261074E+00
 -1.54452215E+01  7.72261074E+00  7.72261074E+00 -1.54452215E+01  7.72261074E+00
  7.72261074E+00 -1.54452215E+01  7.72261074E+00  7.72261074E+00 -1.54452215E+01
  7.72261074E+00  7.72261074E+00 -1.54452215E+01  7.72261074E+00  7.72261074E+00
 -1.54452215E+01  7.72261074E+00  7.72261074E+00 -1.54452215E+01  7.72261074E+00
  7.72261074E+00 -1.54452215E+01  7.72261074E+00  7.72261074E+00 -1.54452215E+01
  7.72261074E+00  7.72261074E+00 -1.54452215E+01  7.72261074E+00  7.72261074E+00
 -1.54452215E+01  7.72261074E+00  7.72261074E+00 -1.54452215E+01  7.72261074E+00
  7.72261074E+00 -1.54452215E+01  7.72261074E+00  7.72261074E+00 -1.54452215E+01
  7.72261074E+00  7.72261074E+00 -1.54452215E+01  7.72261074E+00  7.72261074E+00
 -1.54452215E+01  7.72261074E+00  7.72261074E+00 -1.54452215E+01  7.72261074E+00
  7.72261074E+00 -1.54452215E+01  7.72261074E+00  7.72261074E+00 -1.54452215E+01
  7.72261074E+00  7.72261074E+00 -1.54452215E+01  7.72261074E+00  7.72261074E+00
 -1.54452215E+01  7.72261074E+00  7.72261074E+00 -1.54452215E+01  7.72261074E+00
  7.72261074E+00 -1.54452215E+01  7.72261074E+00  7.72261074E+00 -1.54452215E+01
  7.72261074E+00  7.72261074E+00 -1.54452215E+01  7.72261074E+00  7.72261074E+00
 -1.54452215E+01  7.72261074E+00  7.72261074E+00 -1.54452215E+01  7.72261074E+00
  7.72261074E+00 -1.54452215E+01  7.72261074E+00  7.72261074E+00 -1.54452215E+01
  7.72261074E+00  7.72261074E+00 -1.54452215E+01  7.72261074E+00  7.72261074E+00
 -1.54452215E+01  7.72261074E+00  7.72261074E+00 -1.54452215E+01  7.72261074E+00
  7.72261074E+00 -1.54452215E+01  7.72261074E+00  7.72261074E+00 -1.54452215E+01
  7.72261074E+00  7.72261074E+00 -1.54452215E+01  7.72261074E+00  7.72261074E+00
 -1.54452215E+01  7.72261074E+00  7.72261074E+00 -1.54452215E+01  7.72261074E+00
  7.72261074E+00 -1.54452215E+01  7.72261074E+00  7.72261074E+00 -1.54452215E+01
  7.72261074E+00  7.72261074E+00 -1.54452215E+01  7.72261074E+00  7.72261074E+00
 -1.54452215E+01  7.72261074E+00  7.72261074E+00 -1.54452215E+01  7.72261074E+00
  7.72261074E+00 -1.54452215E+01  7.72261074E+00  7.72261074E+00 -1.54452215E+01
  7.72261074E+00  7.72261074E+00 -1.54452215E+01  7.72261074E+00  7.72261074E+00
 -1.54452215E+01  7.72261074E+00  7.72261074E+00 -1.54452215E+01  7.72261074E+00
  7.72261074E+00 -1.54452215E+01  7.72261074E+00  7.72261074E+00 -1.54452215E+01
  7.72261074E+00  7.72261074E+00 -1.54452215E+01  7.72261074E+00  7.72261074E+00
 -1.54452215E+01  7.72261074E+00  7.72261074E+00 -1.54452215E+01  7.72261074E+00
  7.72261074E+00 -1.54452215E+01  7.72261074E+00  7.72261074E+00 -1.54452215E+01
  7.72261074E+00  7.72261074E+00 -1.54452215E+01  7.72261074E+00  7.72261074E+00
 -1.54452215E+01  7.72261074E+00  7.72261074E+00 -1.54452215E+01  7.72261074E+00
  7.72261074E+00 -1.54452215E+01  7.72261074E+00  7.72261074E+00 -1.54452215E+01
  7.72261074E+00  7.72261074E+00 -1.54452215E+01  7.72261074E+00  7.72261074E+00
 -1.54452215E+01  7.72261074E+00  7.72261074E+00 -1.54452215E+01  7.72261074E+00
  7.72261074E+00 -1.54452215E+01  7.72261074E+00  7.72261074E+00 -1.54452215E+01
  7.72261074E+00  7.72261074E+00 -1.54452215E+01  7.72261074E+00  7.72261074E+00
 -1.54452215E+01  7.72261074E+00  7.72261074E+00 -1.54452215E+01  7.72261074E+00
  7.72261074E+00 -1.54452215E+01  7.72261074E+00  7.72261074E+00 -1.54452215E+01
  7.72261074E+00  7.72261074E+00 -1.54452215E+01  7.72261074E+00  7.72261074E+00
 -1.54452215E+01  7.72261074E+00  7.72261074E+00 -1.54452215E+01  7.72261074E+00
  7.72261074E+00 -1.54452215E+01  7.72261074E+00  7.72261074E+00 -1.54452215E+01
  7.72261074E+00  7.72261074E+00 -1.54452215E+01  7.72261074E+00  7.72261074E+00
 -1.54452215E+01  7.72261074E+00  7.72261074E+00 -1.54452215E+01  7.72261074E+00
  7.72261074E+00 -1.54452215E+01  7.72261074E+00  7.72261074E+00 -1.54452215E+01
  7.72261074E+00  7.72261074E+00 -1.54452215E+01  7.72261074E+00  7.72261074E+00
 -1.54452215E+01  7.72261074E+00  7.72261074E+00 -1.54452215E+01  7.72261074E+00
  7.72261074E+00 -1.54452215E+01  7.72261074E+00  7.72261074E+00 -1.54452215E+01
  7.72261074E+00  7.72261074E+00 -1.54452215E+01  7.72261074E+00  7.72261074E+00
 -1.54452215E+01  7.72261074E+00  7.72261074E+00 -1.54452215E+01  7.72261074E+00
  7.72261074E+00 -1.54452215E+01  7.72261074E+00  7.72261074E+00 -1.54452215E+01
  7.72261074E+00  7.72261074E+00 -1.54452215E+01  7.72261074E+00  7.72261074E+00
 -1.54452215E+01  7.72261074E+00  7.72261074E+00 -1.54452215E+01  7.72261074E+00
  7.72261074E+00 -1.54452215E+01  7.72261074E+00  7.72261074E+00 -1.54452215E+01
  7.72261074E+00  7.72261074E+00 -1.54452215E+01  7.72261074E+00  7.72261074E+00
 -1.54452215E+01  7.72261074E+00  7.72261074E+00 -1.54452215E+01  7.72261074E+00
  7.72261074E+00 -1.54452215E+01  7.72261074E+00  7.72261074E+00 -1.54452215E+01
  7.72261074E+00  7.72261074E+00 -1.54452215E+01  7.72261074E+00  7.72261074E+00
 -1.54452215E+01  7.72261074E+00  7.72261074E+00 -1.54452215E+01  7.72261074E+00
  7.72261074E+00 -1.54452215E+01  7.72261074E+00  7.72261074E+00 -1.54452215E+01
  7.72261074E+00  7.72261074E+00 -1.54452215E+01  7.72261074E+00  7.72261074E+00
 -1.54452215E+01  7.72261074E+00  7.72261074E+00 -1.54452215E+01  7.72261074E+00
  7.72261074E+00 -1.54452215E+01  7.72261074E+00  7.72261074E+00 -1.54452215E+01
  7.72261074E+00  7.72261074E+00 -1.54452215E+01  7.72261074E+00  7.72261074E+00
 -1.54452215E+01  7.72261074E+00  7.72261074E+00 -1.54452215E+01  7.72261074E+00
  7.72261074E+00 -1.54452215E+01  7.72261074E+00  7.72261074E+00 -1.54452215E+01
  7.72261074E+00  7.72261074E+00 -1.54452215E+01  7.72261074E+00  7.72261074E+00
 -1.54452215E+01  7.72261074E+00  7.72261074E+00 -1.54452215E+01  7.72261074E+00
  7.72261074E+00 -1.54452215E+01  7.72261074E+00  7.72261074E+00 -1.54452215E+01
  7.72261074E+00  7.72261074E+00 -1.54452215E+01  7.72261074E+00  7.72261074E+00
 -1.54452215E+01  7.72261074E+00  7.72261074E+00 -1.54452215E+01  7.72261074E+00
  7.72261074E+00 -1.54452215E+01  7.72261074E+00  7.72261074E+00 -1.54452215E+01
  7.72261074E+00  7.72261074E+00 -1.54452215E+01  7.72261074E+00  7.72261074E+00
 -1.54452215E+01  7.72261074E+00  7.72261074E+00 -1.54452215E+01  7.72261074E+00
  7.72261074E+00 -1.54452215E+01  7.72261074E+00  7.72261074E+00 -1.54452215E+01
  7.72261074E+00  7.72261074E+00 -1.54452215E+01  7.72261074E+00  7.72261074E+00
 -1.54452215E+01  7.72261074E+00  7.72261074E+00 -1.54452215E+01  7.72261074E+00
  7.72261074E+00 -1.54452215E+01  7.72261074E+00  7.72261074E+00 -1.54452215E+01
  7.72261074E+00  7.72261074E+00 -1.54452215E+01  7.72261074E+00  7.72261074E+00
 -1.54452215E+01  7.72261074E+00  7.72261074E+00 -1.54452215E+01  7.72261074E+00
  7.72261074E+00 -1.54452215E+01  7.72261074E+00  7.72261074E+00 -1.54452215E+01
  7.72261074E+00  7.72261074E+00 -1.54452215E+01  7.72261074E+00  7.72261074E+00
 -1.54452215E+01  7.72261074E+00  7.72261074E+00 -1.54452215E+01  7.72261074E+00
  7.72261074E+00 -1.54452215E+01  7.72261074E+00  7.72261074E+00 -1.54452215E+01
  7.72261074E+00  7.72261074E+00 -1.54452215E+01  7.72261074E+00  7.72261074E+00
 -1.54452215E+01  7.72261074E+00  7.72261074E+00 -1.54452215E+01  7.72261074E+00
  7.72261074E+00 -1.54452215E+01  7.72261074E+00  7.72261074E+00 -1.54452215E+01
  7.72261074E+00  7.72261074E+00 -1.54452215E+01  7.72261074E+00  7.72261074E+00
 -1.54452215E+01  7.72261074E+00  7.72261074E+00 -1.54452215E+01  7.72261074E+00
  7.72261074E+00 -1.54452215E+01  7.72261074E+00  7.72261074E+00 -1.54452215E+01
  7.72261074E+00  7.72261074E+00 -1.54452215E+01  7.72261074E+00  7.72261074E+00
 -1.54452215E+01  7.72261074E+00  7.72261074E+00 -1.54452215E+01  7.72261074E+00
  7.72261074E+00 -1.54452215E+01  7.72261074E+00  7.72261074E+00 -1.54452215E+01
  7.72261074E+00  7.72261074E+00 -1.54452215E+01  7.72261074E+00  7.72261074E+00
 -1.54452215E+01  7.72261074E+00  7.72261074E+00 -1.54452215E+01  7.72261074E+00
  7.72261074E+00 -1.54452215E+01  7.72261074E+00  7.72261074E+00 -1.54452215E+01
  7.72261074E+00  7.72261074E+00 -1.54452215E+01  7.72261074E+00  7.72261074E+00
 -1.54452215E+01  7.72261074E+00  7.72261074E+00 -1.54452215E+01  7.72261074E+00
  7.72261074E+00 -1.54452215E+01  7.72261074E+00  7.72261074E+00 -1.54452215E+01
  7.72261074E+00  7.72261074E+00 -1.54452215E+01  7.72261074E+00  7.72261074E+00
 -1.54452215E+01  7.72261074E+00  7.72261074E+00 -1.54452215E+01  7.72261074E+00
  7.72261074E+00 -1.54452215E+01  7.72261074E+00  7.72261074E+00 -1.54452215E+01
  7.72261074E+00  7.72261074E+00 -1.54452215E+01  7.72261074E+00  7.72261074E+00
 -1.54452215E+01  7.72261074E+00  7.72261074E+00 -1.54452215E+01  7.72261074E+00
  7.72261074E+00 -1.54452215E+01  7.72261074E+00  7.72261074E+00 -1.54452215E+01
  7.72261074E+00  7.72261074E+00 -1.54452215E+01  7.72261074E+00  7.72261074E+00
 -1.54452215E+01  7.72261074E+00  7.72261074E+00 -1.54452215E+01  7.72261074E+00
  7.72261074E+00 -1.54452215E+01  7.72261074E+00  7.72261074E+00 -1.54452215E+01
  7.72261074E+00  7.72261074E+00 -1.54452215E+01  7.72261074E+00  7.72261074E+00
 -1.54452215E+01  7.72261074E+00  7.72261074E+00 -1.54452215E+01  7.72261074E+00
  7.72261074E+00 -1.54452215E+01  7.72261074E+00  7.72261074E+00 -1.54452215E+01
  7.72261074E+00  7.72261074E+00 -1.54452215E+01  7.72261074E+00  7.72261074E+00
 -1.54452215E+01  7.72261074E+00  7.72261074E+00 -1.54452215E+01  7.72261074E+00
  7.72261074E+00 -1.54452215E+01  7.72261074E+00  7.72261074E+00 -1.54452215E+01
  7.72261074E+00  7.72261074E+00 -1.54452215E+01  7.72261074E+00  7.72261074E+00
 -1.54452215E+01  7.72261074E+00  7.72261074E+00 -1.54452215E+01  7.72261074E+00
  7.72261074E+00 -1.54452215E+01  7.72261074E+00  7.72261074E+00 -1.54452215E+01
  7.72261074E+00  7.72261074E+00 -1.54452215E+01  7.72261074E+00  7.72261074E+00
 -1.54452215E+01  7.72261074E+00  7.72261074E+00 -1.54452215E+01  7.72261074E+00
  7.72261074E+00 -1.54452215E+01  7.72261074E+00  7.72261074E+00 -1.54452215E+01
  7.72261074E+00  7.72261074E+00 -1.54452215E+01  7.72261074E+00  7.72261074E+00
 -1.54452215E+01  7.72261074E+00  7.72261074E+00 -1.54452215E+01  7.72261074E+00
  7.72261074E+00 -1.54452215E+01  7.72261074E+00  7.72261074E+00 -1.54452215E+01
  7.72261074E+00  7.72261074E+00 -1.54452215E+01  7.72261074E+00  7.72261074E+00
 -1.54452215E+01  7.72261074E+00  7.72261074E+00 -1.54452215E+01  7.72261074E+00
  7.72261074E+00 -1.54452215E+01  7.72261074E+00  7.72261074E+00 -1.54452215E+01
  7.72261074E+00  7.72261074E+00 -1.54452215E+01  7.72261074E+00  7.72261074E+00
 -1.54452215E+01  7.72261074E+00  7.72261074E+00 -1.54452215E+01  7.72261074E+00
  7.72261074E+00 -1.54452215E+01  7.72261074E+00  7.72261074E+00 -1.54452215E+01
  7.72261074E+00  7.72261074E+00 -1.54452215E+01  7.72261074E+00  7.72261074E+00
 -1.54452215E+01  7.72261074E+00  7.72261074E+00 -1.54452215E+01  7.72261074E+00
  7.72261074E+00 -1.54452215E+01  7.72261074E+00  7.72261074E+00 -1.54452215E+01
  7.72261074E+00  7.72261074E+00 -1.54452215E+01  7.72261074E+00  7.72261074E+00
 -1.54452215E+01  7.72261074E+00  7.72261074E+00 -1.54452215E+01  7.72261074E+00
  7.72261074E+00 -1.54452215E+01  7.72261074E+00  7.72261074E+00 -1.54452215E+01
  7.72261074E+00  7.72261074E+00 -1.54452215E+01  7.72261074E+00  7.72261074E+00
 -1.54452215E+01  7.72261074E+00  7.72261074E+00 -1.54452215E+01  7.72261074E+00
  7.72261074E+00 -1.54452215E+01  7.72261074E+00  7.72261074E+00 -1.54452215E+01
  7.72261074E+00  7.72261074E+00 -1.54452215E+01  7.72261074E+00  7.72261074E+00
 -1.54452215E+01  7.72261074E+00  7.72261074E+00 -1.54452215E+01  7.72261074E+00
  7.72261074E+00 -1.54452215E+01  7.72261074E+00  7.72261074E+00 -1.54452215E+01
  7.72261074E+00  7.72261074E+00 -1.54452215E+01  7.72261074E+00  7.72261074E+00
 -1.54452215E+01  7.72261074E+00  7.72261074E+00 -1.54452215E+01  7.72261074E+00
  7.72261074E+00 -1.54452215E+01  7.72261074E+00  7.72261074E+00 -1.54452215E+01
  7.72261074E+00  7.72261074E+00 -1.54452215E+01  7.72261074E+00  7.72261074E+00
 -1.54452215E+01  7.72261074E+00  7.72261074E+00 -1.54452215E+01  7.72261074E+00
  7.72261074E+00 -1.54452215E+01  7.72261074E+00  7.72261074E+00 -1.54452215E+01
  7.72261074E+00  7.72261074E+00 -1.54452215E+01  7.72261074E+00  7.72261074E+00
 -1.54452215E+01  7.72261074E+00  7.72261074E+00 -1.54452215E+01  7.72261074E+00
  7.72261074E+00 -1.54452215E+01  7.72261074E+00  7.72261074E+00 -1.54452215E+01
  7.72261074E+00  7.72261074E+00 -1.54452215E+01  7.72261074E+00  7.72261074E+00
 -1.54452215E+01  7.72261074E+00  7.72261074E+00 -1.54452215E+01  7.72261074E+00
  7.72261074E+00 -1.54452215E+01  7.72261074E+00  7.72261074E+00 -1.54452215E+01
  7.72261074E+00  7.72261074E+00 -1.54452215E+01  7.72261074E+00  7.72261074E+00
 -1.54452215E+01  7.72261074E+00  7.72261074E+00 -1.54452215E+01  7.72261074E+00
  7.72261074E+00 -1.54452215E+01  7.72261074E+00  7.72261074E+00 -1.54452215E+01
  7.72261074E+00  7.72261074E+00 -1.54452215E+01  7.72261074E+00  7.72261074E+00
 -1.54452215E+01  7.72261074E+00  7.72261074E+00 -1.54452215E+01  7.72261074E+00
  7.72261074E+00 -1.54452215E+01  7.72261074E+00  7.72261074E+00 -1.54452215E+01
  7.72261074E+00  7.72261074E+00 -1.54452215E+01  7.72261074E+00  7.72261074E+00
 -1.54452215E+01  7.72261074E+00  7.72261074E+00 -1.54452215E+01  7.72261074E+00
  7.72261074E+00 -1.54452215E+01  7.72261074E+00  7.72261074E+00 -1.54452215E+01
  7.72261074E+00  7.72261074E+00 -1.54452215E+01  7.72261074E+00  7.72261074E+00
 -1.54452215E+01  7.72261074E+00  7.72261074E+00 -1.54452215E+01  7.72261074E+00
  7.72261074E+00 -1.54452215E+01  7.72261074E+00  7.72261074E+00 -1.54452215E+01
  7.72261074E+00  7.72261074E+00 -1.54452215E+01  7.72261074E+00  7.72261074E+00
 -1.54452215E+01  7.72261074E+00  7.72261074E+00 -1.54452215E+01  7.72261074E+00
  7.72261074E+00 -1.54452215E+01  7.72261074E+00  7.72261074E+00 -1.54452215E+01
  7.72261074E+00  7.72261074E+00 -1.54452215E+01  7.72261074E+00  7.72261074E+00
 -1.54452215E+01  7.72261074E+00  7.72261074E+00 -1.54452215E+01  7.72261074E+00
  7.72261074E+00 -1.54452215E+01  7.72261074E+00  7.72261074E+00 -1.54452215E+01
  7.72261074E+00  7.72261074E+00 -1.54452215E+01  7.72261074E+00  7.72261074E+00
 -1.54452215E+01  7.72261074E+00  7.72261074E+00 -1.54452215E+01  7.72261074E+00
  7.72261074E+00 -1.54452215E+01  7.72261074E+00  7.72261074E+00 -1.54452215E+01
  7.72261074E+00  7.72261074E+00 -1.54452215E+01  7.72261074E+00  7.72261074E+00
 -1.54452215E+01  7.72261074E+00  7.72261074E+00 -1.54452215E+01  7.72261074E+00
  7.72261074E+00 -1.54452215E+01  7.72261074E+00  7.72261074E+00 -1.54452215E+01
  7.72261074E+00  7.72261074E+00 -1.54452215E+01  7.72261074E+00  7.72261074E+00
 -1.54452215E+01  7.72261074E+00  7.72261074E+00 -1.54452215E+01  7.72261074E+00
  7.72261074E+00 -1.54452215E+01  7.72261074E+00  7.72261074E+00 -1.54452215E+01
  7.72261074E+00  7.72261074E+00 -1.54452215E+01  7.72261074E+00  7.72261074E+00
 -1.54452215E+01  7.72261074E+00  7.72261074E+00 -1.54452215E+01  7.72261074E+00
  7.72261074E+00 -1.54452215E+01  7.72261074E+00  7.72261074E+00 -1.54452215E+01
  7.72261074E+00  7.72261074E+00 -1.54452215E+01  7.72261074E+00  7.72261074E+00
 -1.54452215E+01  7.72261074E+00  7.72261074E+00 -1.54452215E+01  7.72261074E+00
  7.72261074E+00 -1.54452215E+01  7.72261074E+00  7.72261074E+00 -1.54452215E+01
  7.72261074E+00  7.72261074E+00 -1.54452215E+01  7.72261074E+00  7.72261074E+00
 -1.54452215E+01  7.72261074E+00  7.72261074E+00 -1.54452215E+01  7.72261074E+00
  7.72261074E+00 -1.54452215E+01  7.72261074E+00  7.72261074E+00 -1.54452215E+01
  7.72261074E+00  7.72261074E+00 -1.54452215E+01  7.72261074E+00  7.72261074E+00
 -1.54452215E+01  7.72261074E+00  7.72261074E+00 -1.54452215E+01  7.72261074E+00
  7.72261074E+00 -1.54452215E+01  7.72261074E+00  7.72261074E+00 -1.54452215E+01
  7.72261074E+00  7.72261074E+00 -1.54452215E+01  7.72261074E+00  7.72261074E+00
 -1.54452215E+01  7.72261074E+00  7.72261074E+00 -1.54452215E+01  7.72261074E+00
  7.72261074E+00 -1.54452215E+01  7.72261074E+00  7.72261074E+00 -1.54452215E+01
  7.72261074E+00  7.72261074E+00 -1.54452215E+01  7.72261074E+00  7.72261074E+00
 -1.54452215E+01  7.72261074E+00  7.72261074E+00 -1.54452215E+01  7.72261074E+00
  7.72261074E+00 -1.54452215E+01  7.72261074E+00  7.72261074E+00 -1.54452215E+01
  7.72261074E+00  7.72261074E+00 -1.54452215E+01  7.72261074E+00  7.72261074E+00
 -1.54452215E+01  7.72261074E+00  7.72261074E+00 -1.54452215E+01  7.72261074E+00
  7.72261074E+00 -1.54452215E+01  7.72261074E+00  7.72261074E+00 -1.54452215E+01
  7.72261074E+00  7.72261074E+00 -1.54452215E+01  7.72261074E+00  7.72261074E+00
 -1.54452215E+01  7.72261074E+00  7.72261074E+00 -1.54452215E+01  7.72261074E+00
  7.72261074E+00 -1.54452215E+01  7.72261074E+00  7.72261074E+00 -1.54452215E+01
  7.72261074E+00  7.72261074E+00 -1.54452215E+01  7.72261074E+00  7.72261074E+00
 -1.54452215E+01  7.72261074E+00  7.72261074E+00 -1.54452215E+01  7.72261074E+00
  7.72261074E+00 -1.54452215E+01  7.72261074E+00  7.72261074E+00 -1.54452215E+01
  7.72261074E+00  7.72261074E+00 -1.54452215E+01  7.72261074E+00  7.72261074E+00
 -1.54452215E+01  7.72261074E+00  7.72261074E+00 -1.54452215E+01  7.72261074E+00
  7.72261074E+00 -1.54452215E+01  7.72261074E+00  7.72261074E+00 -1.54452215E+01
  7.72261074E+00  7.72261074E+00 -1.54452215E+01  7.72261074E+00  7.72261074E+00
 -1.54452215E+01  7.72261074E+00  7.72261074E+00 -1.54452215E+01  7.72261074E+00
  7.72261074E+00 -1.54452215E+01  7.72261074E+00  7.72261074E+00 -1.54452215E+01
  7.72261074E+00  7.72261074E+00 -1.54452215E+01  7.72261074E+00  7.72261074E+00
 -1.54452215E+01  7.72261074E+00  7.72261074E+00 -1.54452215E+01  7.72261074E+00
  7.72261074E+00 -1.54452215E+01  7.72261074E+00  7.72261074E+00 -1.54452215E+01
  7.72261074E+00  7.72261074E+00 -1.54452215E+01  7.72261074E+00  7.72261074E+00
 -1.54452215E+01  7.72261074E+00  7.72261074E+00 -1.54452215E+01  7.72261074E+00
  7.72261074E+00 -1.54452215E+01  7.72261074E+00  7.72261074E+00 -1.54452215E+01
  7.72261074E+00  7.72261074E+00 -1.54452215E+01  7.72261074E+00  7.72261074E+00
 -1.54452215E+01  7.72261074E+00  7.72261074E+00 -1.54452215E+01  7.72261074E+00
  7.72261074E+00 -1.54452215E+01  7.72261074E+00  7.72261074E+00 -1.54452215E+01
  7.72261074E+00  7.72261074E+00 -1.54452215E+01  7.72261074E+00  7.72261074E+00
 -1.54452215E+01  7.72261074E+00  7.72261074E+00 -1.54452215E+01  7.72261074E+00
  7.72261074E+00 -1.54452215E+01  7.72261074E+00  7.72261074E+00 -1.54452215E+01
  7.72261074E+00  7.72261074E+00 -1.54452215E+01  7.72261074E+00  7.72261074E+00
 -1.54452215E+01  7.72261074E+00  7.72261074E+00 -1.54452215E+01  7.72261074E+00
  7.72261074E+00 -1.54452215E+01  7.72261074E+00  7.72261074E+00 -1.54452215E+01
  7.72261074E+00  7.72261074E+00 -1.54452215E+01  7.72261074E+00  7.72261074E+00
 -1.54452215E+01  7.72261074E+00  7.72261074E+00 -1.54452215E+01  7.72261074E+00
  7.72261074E+00 -1.54452215E+01  7.72261074E+00  7.72261074E+00 -1.54452215E+01
  7.72261074E+00  7.72261074E+00 -1.54452215E+01  7.72261074E+00  7.72261074E+00
 -1.54452215E+01  7.72261074E+00  7.72261074E+00 -1.54452215E+01  7.72261074E+00
  7.72261074E+00 -1.54452215E+01  7.72261074E+00  7.72261074E+00 -1.54452215E+01
  7.72261074E+00  7.72261074E+00 -1.54452215E+01  7.72261074E+00  7.72261074E+00
 -1.54452215E+01  7.72261074E+00  7.72261074E+00 -1.54452215E+01  7.72261074E+00
  7.72261074E+00 -1.54452215E+01  7.72261074E+00  7.72261074E+00 -1.54452215E+01
  7.72261074E+00  7.72261074E+00 -1.54452215E+01  7.72261074E+00  7.72261074E+00
 -1.54452215E+01  7.72261074E+00  7.72261074E+00 -1.54452215E+01  7.72261074E+00
  7.72261074E+00 -1.54452215E+01  7.72261074E+00  7.72261074E+00 -1.54452215E+01
  7.72261074E+00  7.72261074E+00 -1.54452215E+01  7.72261074E+00  7.72261074E+00
 -1.54452215E+01  7.72261074E+00  7.72261074E+00 -1.54452215E+01  7.72261074E+00
  7.72261074E+00 -1.54452215E+01  7.72261074E+00  7.72261074E+00 -1.54452215E+01
  7.72261074E+00  7.72261074E+00 -1.54452215E+01  7.72261074E+00  7.72261074E+00
 -1.54452215E+01  7.72261074E+00  7.72261074E+00 -1.54452215E+01  7.72261074E+00
  7.72261074E+00 -1.54452215E+01  7.72261074E+00  7.72261074E+00 -1.54452215E+01
  7.72261074E+00  7.72261074E+00 -1.54452215E+01  7.72261074E+00  7.72261074E+00
 -1.54452215E+01  7.72261074E+00  7.72261074E+00 -1.54452215E+01  7.72261074E+00
  7.72261074E+00 -1.54452215E+01  7.72261074E+00  7.72261074E+00 -1.54452215E+01
  7.72261074E+00  7.72261074E+00 -1.54452215E+01  7.72261074E+00  7.72261074E+00
 -1.54452215E+01  7.72261074E+00  7.72261074E+00 -1.54452215E+01  7.72261074E+00
  7.72261074E+00 -1.54452215E+01  7.72261074E+00  7.72261074E+00 -1.54452215E+01
  7.72261074E+00  7.72261074E+00 -1.54452215E+01  7.72261074E+00  7.72261074E+00
 -1.54452215E+01  7.72261074E+00  7.72261074E+00 -1.54452215E+01  7.72261074E+00
  7.72261074E+00 -1.54452215E+01  7.72261074E+00  7.72261074E+00 -1.54452215E+01
  7.72261074E+00  7.72261074E+00 -1.54452215E+01  7.72261074E+00  7.72261074E+00
 -1.54452215E+01  7.72261074E+00  7.72261074E+00 -1.54452215E+01  7.72261074E+00
  7.72261074E+00 -1.54452215E+01  7.72261074E+00  7.72261074E+00 -1.54452215E+01
  7.72261074E+00  7.72261074E+00 -1.54452215E+01  7.72261074E+00  7.72261074E+00
 -1.54452215E+01  7.72261074E+00  7.72261074E+00 -1.54452215E+01  7.72261074E+00
  7.72261074E+00 -1.54452215E+01  7.72261074E+00  7.72261074E+00 -1.54452215E+01
  7.72261074E+00  7.72261074E+00 -1.54452215E+01  7.72261074E+00  7.72261074E+00
 -1.54452215E+01  7.72261074E+00  7.72261074E+00 -1.54452215E+01  7.72261074E+00
  7.72261074E+00 -1.54452215E+01  7.72261074E+00  7.72261074E+00 -1.54452215E+01
  7.72261074E+00  7.72261074E+00 -1.54452215E+01  7.72261074E+00  7.72261074E+00
 -1.54452215E+01  7.72261074E+00  7.72261074E+00 -1.54452215E+01  7.72261074E+00
  7.72261074E+00 -1.54452215E+01  7.72261074E+00  7.72261074E+00 -1.54452215E+01
  7.72261074E+00  7.72261074E+00 -1.54452215E+01  7.72261074E+00  7.72261074E+00
 -1.54452215E+01  7.72261074E+00  7.72261074E+00 -1.54452215E+01  7.72261074E+00
  7.72261074E+00 -1.54452215E+01  7.72261074E+00  7.72261074E+00 -1.54452215E+01
  7.72261074E+00  7.72261074E+00 -1.54452215E+01  7.72261074E+00  7.72261074E+00
 -1.54452215E+01  7.72261074E+00  7.72261074E+00 -1.54452215E+01  7.72261074E+00
  7.72261074E+00 -1.54452215E+01  7.72261074E+00  7.72261074E+00 -1.54452215E+01
  7.72261074E+00  7.72261074E+00 -1.54452215E+01  7.72261074E+00  7.72261074E+00
 -1.54452215E+01  7.72261074E+00  7.72261074E+00 -1.54452215E+01  7.72261074E+00
  7.72261074E+00 -1.54452215E+01  7.72261074E+00  7.72261074E+00 -1.54452215E+01
  7.72261074E+00  7.72261074E+00 -1.54452215E+01  7.72261074E+00  7.72261074E+00
 -1.54452215E+01  7.72261074E+00  7.72261074E+00 -1.54452215E+01  7.72261074E+00
  7.72261074E+00 -1.54452215E+01  7.72261074E+00  7.72261074E+00 -1.54452215E+01
  7.72261074E+00  7.72261074E+00 -1.54452215E+01  7.72261074E+00  7.72261074E+00
 -1.54452215E+01  7.72261074E+00  7.72261074E+00 -1.54452215E+01  7.72261074E+00
  7.72261074E+00 -1.54452215E+01  7.72261074E+00  7.72261074E+00 -1.54452215E+01
  7.72261074E+00  7.72261074E+00 -1.54452215E+01  7.72261074E+00  7.72261074E+00
 -1.54452215E+01  7.72261074E+00  7.72261074E+00 -1.54452215E+01  7.72261074E+00
  7.72261074E+00 -1.54452215E+01  7.72261074E+00  7.72261074E+00 -1.54452215E+01
  7.72261074E+00  7.72261074E+00 -1.54452215E+01  7.72261074E+00  7.72261074E+00
 -1.54452215E+01  7.72261074E+00  7.72261074E+00 -1.54452215E+01  7.72261074E+00
  7.72261074E+00 -1.54452215E+01  7.72261074E+00  7.72261074E+00 -1.54452215E+01
  7.72261074E+00  7.72261074E+00 -1.54452215E+01  7.72261074E+00  7.72261074E+00
 -1.54452215E+01  7.72261074E+00  7.72261074E+00 -1.54452215E+01  7.72261074E+00
  7.72261074E+00 -1.54452215E+01  7.72261074E+00  7.72261074E+00 -1.54452215E+01
  7.72261074E+00  7.72261074E+00 -1.54452215E+01  7.72261074E+00  7.72261074E+00
 -1.54452215E+01  7.72261074E+00  7.72261074E+00 -1.54452215E+01  7.72261074E+00
  7.72261074E+00 -1.54452215E+01  7.72261074E+00  7.72261074E+00 -1.54452215E+01
  7.72261074E+00  7.72261074E+00 -1.54452215E+01  7.72261074E+00  7.72261074E+00
 -1.54452215E+01  7.72261074E+00  7.72261074E+00 -1.54452215E+01  7.72261074E+00
  7.72261074E+00 -1.54452215E+01  7.72261074E+00  7.72261074E+00 -1.54452215E+01
  7.72261074E+00  7.72261074E+00 -1.54452215E+01  7.72261074E+00  7.72261074E+00
 -1.54452215E+01  7.72261074E+00  7.72261074E+00 -1.54452215E+01  7.72261074E+00
  7.72261074E+00 -1.54452215E+01  7.72261074E+00  7.72261074E+00 -1.54452215E+01
  7.72261074E+00  7.72261074E+00 -1.54452215E+01  7.72261074E+00  7.72261074E+00
 -1.54452215E+01  7.72261074E+00  7.72261074E+00 -1.54452215E+01  7.72261074E+00
  7.72261074E+00 -1.54452215E+01  7.72261074E+00  7.72261074E+00 -1.54452215E+01
  7.72261074E+00  7.72261074E+00 -1.54452215E+01  7.72261074E+00  7.72261074E+00
 -1.54452215E+01  7.72261074E+00  7.72261074E+00 -1.54452215E+01  7.72261074E+00
  7.72261074E+00 -1.54452215E+01  7.72261074E+00  7.72261074E+00 -1.54452215E+01
  7.72261074E+00  7.72261074E+00 -1.54452215E+01  7.72261074E+00  7.72261074E+00
 -1.54452215E+01  7.72261074E+00  7.72261074E+00 -1.54452215E+01  7.72261074E+00
  7.72261074E+00 -1.54452215E+01  7.72261074E+00  7.72261074E+00 -1.54452215E+01
  7.72261074E+00  7.72261074E+00 -1.54452215E+01  7.72261074E+00  7.72261074E+00
 -1.54452215E+01  7.72261074E+00  7.72261074E+00 -1.54452215E+01  7.72261074E+00
  7.72261074E+00 -1.54452215E+01  7.72261074E+00  7.72261074E+00 -1.54452215E+01
  7.72261074E+00  7.72261074E+00 -1.54452215E+01  7.72261074E+00  7.72261074E+00
 -1.54452215E+01  7.72261074E+00  7.72261074E+00 -1.54452215E+01  7.72261074E+00
  7.72261074E+00 -1.54452215E+01  7.72261074E+00  7.72261074E+00 -1.54452215E+01
  7.72261074E+00  7.72261074E+00 -1.54452215E+01  7.72261074E+00  7.72261074E+00
 -1.54452215E+01  7.72261074E+00  7.72261074E+00 -1.54452215E+01  7.72261074E+00
  7.72261074E+00 -1.54452215E+01  7.72261074E+00  7.72261074E+00 -1.54452215E+01
  7.72261074E+00  7.72261074E+00 -1.54452215E+01  7.72261074E+00  7.72261074E+00
 -1.54452215E+01  7.72261074E+00  7.72261074E+00 -1.54452215E+01  7.72261074E+00
  7.72261074E+00 -1.54452215E+01  7.72261074E+00  7.72261074E+00 -1.54452215E+01
  7.72261074E+00  7.72261074E+00 -1.54452215E+01  7.72261074E+00  7.72261074E+00
 -1.54452215E+01  7.72261074E+00  7.72261074E+00 -1.54452215E+01  7.72261074E+00
  7.72261074E+00 -1.54452215E+01  7.72261074E+00  7.72261074E+00 -1.54452215E+01
  7.72261074E+00  7.72261074E+00 -1.54452215E+01  7.72261074E+00  7.72261074E+00
 -1.54452215E+01  7.72261074E+00  7.72261074E+00 -1.54452215E+01  7.72261074E+00
  7.72261074E+00 -1.54452215E+01  7.72261074E+00  7.72261074E+00 -1.54452215E+01
  7.72261074E+00  7.72261074E+00 -1.54452215E+01  7.72261074E+00  7.72261074E+00
 -1.54452215E+01  7.72261074E+00  7.72261074E+00 -1.54452215E+01  7.72261074E+00
  7.72261074E+00 -1.54452215E+01  7.72261074E+00  7.72261074E+00 -1.54452215E+01
  7.72261074E+00  7.72261074E+00 -1.54452215E+01  7.72261074E+00  7.72261074E+00
 -1.54452215E+01  7.72261074E+00  7.72261074E+00 -1.54452215E+01  7.72261074E+00
  7.72261074E+00 -1.54452215E+01  7.72261074E+00  7.72261074E+00 -1.54452215E+01
  7.72261074E+00  7.72261074E+00 -1.54452215E+01  7.72261074E+00  7.72261074E+00
 -1.54452215E+01  7.72261074E+00  7.72261074E+00 -1.54452215E+01  7.72261074E+00
  7.72261074E+00 -1.54452215E+01  7.72261074E+00  7.72261074E+00 -1.54452215E+01
  7.72261074E+00  7.72261074E+00 -1.54452215E+01  7.72261074E+00  7.72261074E+00
 -1.54452215E+01  7.72261074E+00  7.72261074E+00 -1.54452215E+01  7.72261074E+00
  7.72261074E+00 -1.54452215E+01  7.72261074E+00  7.72261074E+00 -1.54452215E+01
  7.72261074E+00  7.72261074E+00 -1.54452215E+01  7.72261074E+00  7.72261074E+00
 -1.54452215E+01  7.72261074E+00  7.72261074E+00 -1.54452215E+01  7.72261074E+00
  7.72261074E+00 -1.54452215E+01  7.72261074E+00  7.72261074E+00 -1.54452215E+01
  7.72261074E+00  7.72261074E+00 -1.54452215E+01  7.72261074E+00  7.72261074E+00
 -1.54452215E+01  7.72261074E+00  7.72261074E+00 -1.54452215E+01  7.72261074E+00
  7.72261074E+00 -1.54452215E+01  7.72261074E+00  7.72261074E+00 -1.54452215E+01
  7.72261074E+00  7.72261074E+00 -1.54452215E+01  7.72261074E+00  7.72261074E+00
 -1.54452215E+01  7.72261074E+00  7.72261074E+00 -1.54452215E+01  7.72261074E+00
  7.72261074E+00 -1.54452215E+01  7.72261074E+00  7.72261074E+00 -1.54452215E+01
  7.72261074E+00  7.72261074E+00 -1.54452215E+01  7.72261074E+00  7.72261074E+00
 -1.54452215E+01  7.72261074E+00  7.72261074E+00 -1.54452215E+01  7.72261074E+00
  7.72261074E+00 -1.54452215E+01  7.72261074E+00  7.72261074E+00 -1.54452215E+01
  7.72261074E+00  7.72261074E+00 -1.54452215E+01  7.72261074E+00  7.72261074E+00
 -1.54452215E+01  7.72261074E+00  7.72261074E+00 -1.54452215E+01  7.72261074E+00
  7.72261074E+00 -1.54452215E+01  7.72261074E+00  7.72261074E+00 -1.54452215E+01
  7.72261074E+00  7.72261074E+00 -1.54452215E+01  7.72261074E+00  7.72261074E+00
 -1.54452215E+01  7.72261074E+00  7.72261074E+00 -1.54452215E+01  7.72261074E+00
  7.72261074E+00 -1.54452215E+01  7.72261074E+00  7.72261074E+00 -1.54452215E+01
  7.72261074E+00  7.72261074E+00 -1.54452215E+01  7.72261074E+00  7.72261074E+00
 -1.54452215E+01  7.72261074E+00  7.72261074E+00 -1.54452215E+01  7.72261074E+00
  7.72261074E+00 -1.54452215E+01  7.72261074E+00  7.72261074E+00 -1.54452215E+01
  7.72261074E+00  7.72261074E+00 -1.54452215E+01  7.72261074E+00  7.72261074E+00
 -1.54452215E+01  7.72261074E+00  7.72261074E+00 -1.54452215E+01  7.72261074E+00
  7.72261074E+00 -1.54452215E+01  7.72261074E+00  7.72261074E+00 -1.54452215E+01
  7.72261074E+00  7.72261074E+00 -1.54452215E+01  7.72261074E+00  7.72261074E+00
 -1.54452215E+01  7.72261074E+00  7.72261074E+00 -1.54452215E+01  7.72261074E+00
  7.72261074E+00 -1.54452215E+01  7.72261074E+00  7.72261074E+00 -1.54452215E+01
  7.72261074E+00  7.72261074E+00 -1.54452215E+01  7.72261074E+00  7.72261074E+00
 -1.54452215E+01  7.72261074E+00  7.72261074E+00 -1.54452215E+01  7.72261074E+00
  7.72261074E+00 -1.54452215E+01  7.72261074E+00  7.72261074E+00 -1.54452215E+01
  7.72261074E+00  7.72261074E+00 -1.54452215E+01  7.72261074E+00  7.72261074E+00
 -1.54452215E+01  7.72261074E+00  7.72261074E+00 -1.54452215E+01  7.72261074E+00
  7.72261074E+00 -1.54452215E+01  7.72261074E+00  7.72261074E+00 -1.54452215E+01
  7.72261074E+00  7.72261074E+00 -1.54452215E+01  7.72261074E+00  7.72261074E+00
 -1.54452215E+01  7.72261074E+00  7.72261074E+00 -1.54452215E+01  7.72261074E+00
  7.72261074E+00 -1.54452215E+01  7.72261074E+00  7.72261074E+00 -1.54452215E+01
  7.72261074E+00  7.72261074E+00 -1.54452215E+01  7.72261074E+00  7.72261074E+00
 -1.54452215E+01  7.72261074E+00  7.72261074E+00 -1.54452215E+01  7.72261074E+00
  7.72261074E+00 -1.54452215E+01  7.72261074E+00  7.72261074E+00 -1.54452215E+01
  7.72261074E+00  7.72261074E+00 -1.54452215E+01  7.72261074E+00  7.72261074E+00
 -1.54452215E+01  7.72261074E+00  7.72261074E+00 -1.54452215E+01  7.72261074E+00
  7.72261074E+00 -1.54452215E+01  7.72261074E+00  7.72261074E+00 -1.54452215E+01
  7.72261074E+00  7.72261074E+00 -1.54452215E+01  7.72261074E+00  7.72261074E+00
 -1.54452215E+01  7.72261074E+00  7.72261074E+00 -1.54452215E+01  7.72261074E+00
  7.72261074E+00 -1.54452215E+01  7.72261074E+00  7.72261074E+00 -1.54452215E+01
  7.72261074E+00  7.72261074E+00 -1.54452215E+01  7.72261074E+00  7.72261074E+00
 -1.54452215E+01  7.72261074E+00  7.72261074E+00 -1.54452215E+01  7.72261074E+00
  7.72261074E+00 -1.54452215E+01  7.72261074E+00  7.72261074E+00 -1.54452215E+01
  7.72261074E+00  7.72261074E+00 -1.54452215E+01  7.72261074E+00  7.72261074E+00
 -1.54452215E+01  7.72261074E+00  7.72261074E+00 -1.54452215E+01  7.72261074E+00
  7.72261074E+00 -1.54452215E+01  7.72261074E+00  7.72261074E+00 -1.54452215E+01
  7.72261074E+00  7.72261074E+00 -1.54452215E+01  7.72261074E+00  7.72261074E+00
 -1.54452215E+01  7.72261074E+00  7.72261074E+00 -1.54452215E+01  7.72261074E+00
  7.72261074E+00 -1.54452215E+01  7.72261074E+00  7.72261074E+00 -1.54452215E+01
  7.72261074E+00  7.72261074E+00 -1.54452215E+01  7.72261074E+00  7.72261074E+00
 -1.54452215E+01  7.72261074E+00  7.72261074E+00 -1.54452215E+01  7.72261074E+00
  7.72261074E+00 -1.54452215E+01  7.72261074E+00  7.72261074E+00 -1.54452215E+01
  7.72261074E+00  7.72261074E+00 -1.54452215E+01  7.72261074E+00  7.72261074E+00
 -1.54452215E+01  7.72261074E+00  7.72261074E+00 -1.54452215E+01  7.72261074E+00
  7.72261074E+00 -1.54452215E+01  7.72261074E+00  7.72261074E+00 -1.54452215E+01
  7.72261074E+00  7.72261074E+00 -1.54452215E+01  7.72261074E+00  7.72261074E+00
 -1.54452215E+01  7.72261074E+00  7.72261074E+00 -1.54452215E+01  7.72261074E+00
  7.72261074E+00 -1.54452215E+01  7.72261074E+00  7.72261074E+00 -1.54452215E+01
  7.72261074E+00  7.72261074E+00 -1.54452215E+01  7.72261074E+00  7.72261074E+00
 -1.54452215E+01  7.72261074E+00  7.72261074E+00 -1.54452215E+01  7.72261074E+00
  7.72261074E+00 -1.54452215E+01  7.72261074E+00  7.72261074E+00 -1.54452215E+01
  7.72261074E+00  7.72261074E+00 -1.54452215E+01  7.72261074E+00  7.72261074E+00
 -1.54452215E+01  7.72261074E+00  7.72261074E+00 -1.54452215E+01  7.72261074E+00
  7.72261074E+00 -1.54452215E+01  7.72261074E+00  7.72261074E+00 -1.54452215E+01
  7.72261074E+00  7.72261074E+00 -1.54452215E+01  7.72261074E+00  7.72261074E+00
 -1.54452215E+01  7.72261074E+00  7.72261074E+00 -1.54452215E+01  7.72261074E+00
  7.72261074E+00 -1.54452215E+01  7.72261074E+00  7.72261074E+00 -1.54452215E+01
  7.72261074E+00  7.72261074E+00 -1.54452215E+01  7.72261074E+00  7.72261074E+00
 -1.54452215E+01  7.72261074E+00  7.72261074E+00 -1.54452215E+01  7.72261074E+00
  7.72261074E+00 -1.54452215E+01  7.72261074E+00  7.72261074E+00 -1.54452215E+01
  7.72261074E+00  7.72261074E+00 -1.54452215E+01  7.72261074E+00  7.72261074E+00
 -1.54452215E+01  7.72261074E+00  7.72261074E+00 -1.54452215E+01  7.72261074E+00
  7.72261074E+00 -1.54452215E+01  7.72261074E+00  7.72261074E+00 -1.54452215E+01
  7.72261074E+00  7.72261074E+00 -1.54452215E+01  7.72261074E+00  7.72261074E+00
 -1.54452215E+01  7.72261074E+00  7.72261074E+00 -1.54452215E+01  7.72261074E+00
  7.72261074E+00 -1.54452215E+01  7.72261074E+00  7.72261074E+00 -1.54452215E+01
  7.72261074E+00  7.72261074E+00 -1.54452215E+01  7.72261074E+00  7.72261074E+00
 -1.54452215E+01  7.72261074E+00  7.72261074E+00 -1.54452215E+01  7.72261074E+00
  7.72261074E+00 -1.54452215E+01  7.72261074E+00  7.72261074E+00 -1.54452215E+01
  7.72261074E+00  7.72261074E+00 -1.54452215E+01  7.72261074E+00  7.72261074E+00
 -1.54452215E+01  7.72261074E+00  7.72261074E+00 -1.54452215E+01  7.72261074E+00
  7.72261074E+00 -1.54452215E+01  7.72261074E+00  7.72261074E+00 -1.54452215E+01
  7.72261074E+00  7.72261074E+00 -1.54452215E+01  7.72261074E+00  7.72261074E+00
 -1.54452215E+01  7.72261074E+00  7.72261074E+00 -1.54452215E+01  7.72261074E+00
  7.72261074E+00 -1.54452215E+01  7.72261074E+00  7.72261074E+00 -1.54452215E+01
  7.72261074E+00  7.72261074E+00 -1.54452215E+01  7.72261074E+00  7.72261074E+00
 -1.54452215E+01  7.72261074E+00  7.72261074E+00 -1.54452215E+01  7.72261074E+00
  7.72261074E+00 -1.54452215E+01  7.72261074E+00  7.72261074E+00 -1.54452215E+01
  7.72261074E+00  7.72261074E+00 -1.54452215E+01  7.72261074E+00  7.72261074E+00
 -1.54452215E+01  7.72261074E+00  7.72261074E+00 -1.54452215E+01  7.72261074E+00
  7.72261074E+00 -1.54452215E+01  7.72261074E+00  7.72261074E+00 -1.54452215E+01
  7.72261074E+00  7.72261074E+00 -1.54452215E+01  7.72261074E+00  7.72261074E+00
 -1.54452215E+01  7.72261074E+00  7.72261074E+00 -1.54452215E+01  7.72261074E+00
  7.72261074E+00 -1.54452215E+01  7.72261074E+00  7.72261074E+00 -1.54452215E+01
  7.72261074E+00  7.72261074E+00 -1.54452215E+01  7.72261074E+00  7.72261074E+00
 -1.54452215E+01  7.72261074E+00  7.72261074E+00 -1.54452215E+01  7.72261074E+00
  7.72261074E+00 -1.54452215E+01  7.72261074E+00  7.72261074E+00 -1.54452215E+01
  7.72261074E+00  7.72261074E+00 -1.54452215E+01  7.72261074E+00  7.72261074E+00
 -1.54452215E+01  7.72261074E+00  7.72261074E+00 -1.54452215E+01  7.72261074E+00
  7.72261074E+00 -1.54452215E+01  7.72261074E+00  7.72261074E+00 -1.54452215E+01
  7.72261074E+00  7.72261074E+00 -1.54452215E+01  7.72261074E+00  7.72261074E+00
 -1.54452215E+01  7.72261074E+00  7.72261074E+00 -1.54452215E+01  7.72261074E+00
  7.72261074E+00 -1.54452215E+01  7.72261074E+00  7.72261074E+00 -1.54452215E+01
  7.72261074E+00  7.72261074E+00 -1.54452215E+01  7.72261074E+00  7.72261074E+00
 -1.54452215E+01  7.72261074E+00  7.72261074E+00 -1.54452215E+01  7.72261074E+00
  7.72261074E+00 -1.54452215E+01  7.72261074E+00  7.72261074E+00 -1.54452215E+01
  7.72261074E+00  7.72261074E+00 -1.54452215E+01  7.72261074E+00  7.72261074E+00
 -1.54452215E+01  7.72261074E+00  7.72261074E+00 -1.54452215E+01  7.72261074E+00
  7.72261074E+00 -1.54452215E+01  7.72261074E+00  7.72261074E+00 -1.54452215E+01
  7.72261074E+00  7.72261074E+00 -1.54452215E+01  7.72261074E+00  7.72261074E+00
 -1.54452215E+01  7.72261074E+00  7.72261074E+00 -1.54452215E+01  7.72261074E+00
  7.72261074E+00 -1.54452215E+01  7.72261074E+00  7.72261074E+00 -1.54452215E+01
  7.72261074E+00  7.72261074E+00 -1.54452215E+01  7.72261074E+00  7.72261074E+00
 -1.54452215E+01  7.72261074E+00  7.72261074E+00 -1.54452215E+01  7.72261074E+00
  7.72261074E+00 -1.54452215E+01  7.72261074E+00  7.72261074E+00 -1.54452215E+01
  7.72261074E+00  7.72261074E+00 -1.54452215E+01  7.72261074E+00  7.72261074E+00
 -1.54452215E+01  7.72261074E+00  7.72261074E+00 -1.54452215E+01  7.72261074E+00
  7.72261074E+00 -1.54452215E+01  7.72261074E+00  7.72261074E+00 -1.54452215E+01
  7.72261074E+00  7.72261074E+00 -1.54452215E+01  7.72261074E+00  7.72261074E+00
 -1.54452215E+01  7.72261074E+00  7.72261074E+00 -1.54452215E+01  7.72261074E+00
  7.72261074E+00 -1.54452215E+01  7.72261074E+00  7.72261074E+00 -1.54452215E+01
  7.72261074E+00  7.72261074E+00 -1.54452215E+01  7.72261074E+00  7.72261074E+00
 -1.54452215E+01  7.72261074E+00  7.72261074E+00 -1.54452215E+01  7.72261074E+00
  7.72261074E+00 -1.54452215E+01  7.72261074E+00  7.72261074E+00 -1.54452215E+01
  7.72261074E+00  7.72261074E+00 -1.54452215E+01  7.72261074E+00  7.72261074E+00
 -1.54452215E+01  7.72261074E+00  7.72261074E+00 -1.54452215E+01  7.72261074E+00
  7.72261074E+00 -1.54452215E+01  7.72261074E+00  7.72261074E+00 -1.54452215E+01
  7.72261074E+00  7.72261074E+00 -1.54452215E+01  7.72261074E+00  7.72261074E+00
 -1.54452215E+01  7.72261074E+00  7.72261074E+00 -1.54452215E+01  7.72261074E+00
  7.72261074E+00 -1.54452215E+01  7.72261074E+00  7.72261074E+00 -1.54452215E+01
  7.72261074E+00  7.72261074E+00 -1.54452215E+01  7.72261074E+00  7.72261074E+00
 -1.54452215E+01  7.72261074E+00  7.72261074E+00 -1.54452215E+01  7.72261074E+00
  7.72261074E+00 -1.54452215E+01  7.72261074E+00  7.72261074E+00 -1.54452215E+01
  7.72261074E+00  7.72261074E+00 -1.54452215E+01  7.72261074E+00  7.72261074E+00
 -1.54452215E+01  7.72261074E+00  7.72261074E+00 -1.54452215E+01  7.72261074E+00
  7.72261074E+00 -1.54452215E+01  7.72261074E+00  7.72261074E+00 -1.54452215E+01
  7.72261074E+00  7.72261074E+00 -1.54452215E+01  7.72261074E+00  7.72261074E+00
 -1.54452215E+01  7.72261074E+00  7.72261074E+00 -1.54452215E+01  7.72261074E+00
  7.72261074E+00 -1.54452215E+01  7.72261074E+00  7.72261074E+00 -1.54452215E+01
  7.72261074E+00  7.72261074E+00 -1.54452215E+01  7.72261074E+00  7.72261074E+00
 -1.54452215E+01  7.72261074E+00  7.72261074E+00 -1.54452215E+01  7.72261074E+00
  7.72261074E+00 -1.54452215E+01  7.72261074E+00  7.72261074E+00 -1.54452215E+01
  7.72261074E+00  7.72261074E+00 -1.54452215E+01  7.72261074E+00  7.72261074E+00
 -1.54452215E+01  7.72261074E+00  7.72261074E+00 -1.54452215E+01  7.72261074E+00
  7.72261074E+00 -1.54452215E+01  7.72261074E+00  7.72261074E+00 -1.54452215E+01
  7.72261074E+00  7.72261074E+00 -1.54452215E+01  7.72261074E+00  7.72261074E+00
 -1.54452215E+01  7.72261074E+00  7.72261074E+00 -1.54452215E+01  7.72261074E+00
  7.72261074E+00 -1.54452215E+01  7.72261074E+00  7.72261074E+00 -1.54452215E+01
  7.72261074E+00  7.72261074E+00 -1.54452215E+01  7.72261074E+00  7.72261074E+00
 -1.54452215E+01  7.72261074E+00  7.72261074E+00 -1.54452215E+01  7.72261074E+00
  7.72261074E+00 -1.54452215E+01  7.72261074E+00  7.72261074E+00 -1.54452215E+01
  7.72261074E+00  7.72261074E+00 -1.54452215E+01  7.72261074E+00  7.72261074E+00
 -1.54452215E+01  7.72261074E+00  7.72261074E+00 -1.54452215E+01  7.72261074E+00
  7.72261074E+00 -1.54452215E+01  7.72261074E+00  7.72261074E+00 -1.54452215E+01
  7.72261074E+00  7.72261074E+00 -1.54452215E+01  7.72261074E+00  7.72261074E+00
 -1.54452215E+01  7.72261074E+00  7.72261074E+00 -1.54452215E+01  7.72261074E+00
  7.72261074E+00 -1.54452215E+01  7.72261074E+00  7.72261074E+00 -1.54452215E+01
  7.72261074E+00  7.72261074E+00 -1.54452215E+01  7.72261074E+00  7.72261074E+00
 -1.54452215E+01  7.72261074E+00  7.72261074E+00 -1.54452215E+01  7.72261074E+00
  7.72261074E+00 -1.54452215E+01  7.72261074E+00  7.72261074E+00 -1.54452215E+01
  7.72261074E+00  7.72261074E+00 -1.54452215E+01  7.72261074E+00  7.72261074E+00
 -1.54452215E+01  7.72261074E+00  7.72261074E+00 -1.54452215E+01  7.72261074E+00
  7.72261074E+00 -1.54452215E+01  7.72261074E+00  7.72261074E+00 -1.54452215E+01
  7.72261074E+00  7.72261074E+00 -1.54452215E+01  7.72261074E+00  7.72261074E+00
 -1.54452215E+01  7.72261074E+00  7.72261074E+00 -1.54452215E+01  7.72261074E+00
  7.72261074E+00 -1.54452215E+01  7.72261074E+00  7.72261074E+00 -1.54452215E+01
  7.72261074E+00  7.72261074E+00 -1.54452215E+01  7.72261074E+00  7.72261074E+00
 -1.54452215E+01  7.72261074E+00  7.72261074E+00 -1.54452215E+01  7.72261074E+00
  7.72261074E+00 -1.54452215E+01  7.72261074E+00  7.72261074E+00 -1.54452215E+01
  7.72261074E+00  7.72261074E+00 -1.54452215E+01  7.72261074E+00  7.72261074E+00
 -1.54452215E+01  7.72261074E+00  7.72261074E+00 -1.54452215E+01  7.72261074E+00
  7.72261074E+00 -1.54452215E+01  7.72261074E+00  7.72261074E+00 -1.54452215E+01
  7.72261074E+00  7.72261074E+00 -1.54452215E+01  7.72261074E+00  7.72261074E+00
 -1.54452215E+01  7.72261074E+00  7.72261074E+00 -1.54452215E+01  7.72261074E+00
  7.72261074E+00 -1.54452215E+01  7.72261074E+00  7.72261074E+00 -1.54452215E+01
  7.72261074E+00  7.72261074E+00 -1.54452215E+01  7.72261074E+00  7.72261074E+00
 -1.54452215E+01  7.72261074E+00  7.72261074E+00 -1.54452215E+01  7.72261074E+00
  7.72261074E+00 -1.54452215E+01  7.72261074E+00  7.72261074E+00 -1.54452215E+01
  7.72261074E+00  7.72261074E+00 -1.54452215E+01  7.72261074E+00  7.72261074E+00
 -1.54452215E+01  7.72261074E+00  7.72261074E+00 -1.54452215E+01  7.72261074E+00
  7.72261074E+00 -1.54452215E+01  7.72261074E+00  7.72261074E+00 -1.54452215E+01
  7.72261074E+00  7.72261074E+00 -1.54452215E+01  7.72261074E+00  7.72261074E+00
 -1.54452215E+01  7.72261074E+00  7.72261074E+00 -1.54452215E+01  7.72261074E+00
  7.72261074E+00 -1.54452215E+01  7.72261074E+00  7.72261074E+00 -1.54452215E+01
  7.72261074E+00  7.72261074E+00 -1.54452215E+01  7.72261074E+00  7.72261074E+00
 -1.54452215E+01  7.72261074E+00  7.72261074E+00 -1.54452215E+01  7.72261074E+00
  7.72261074E+00 -1.54452215E+01  7.72261074E+00  7.72261074E+00 -1.54452215E+01
  7.72261074E+00  7.72261074E+00 -1.54452215E+01  7.72261074E+00  7.72261074E+00
 -1.54452215E+01  7.72261074E+00  7.72261074E+00 -1.54452215E+01  7.72261074E+00
  7.72261074E+00 -1.54452215E+01  7.72261074E+00  7.72261074E+00 -1.54452215E+01
  7.72261074E+00  7.72261074E+00 -1.54452215E+01  7.72261074E+00  7.72261074E+00
 -1.54452215E+01  7.72261074E+00  7.72261074E+00 -1.54452215E+01  7.72261074E+00
  7.72261074E+00 -1.54452215E+01  7.72261074E+00  7.72261074E+00 -1.54452215E+01
  7.72261074E+00  7.72261074E+00 -1.54452215E+01  7.72261074E+00  7.72261074E+00
 -1.54452215E+01  7.72261074E+00  7.72261074E+00 -1.54452215E+01  7.72261074E+00
  7.72261074E+00 -1.54452215E+01  7.72261074E+00  7.72261074E+00 -1.54452215E+01
  7.72261074E+00  7.72261074E+00 -1.54452215E+01  7.72261074E+00  7.72261074E+00
 -1.54452215E+01  7.72261074E+00  7.72261074E+00 -1.54452215E+01  7.72261074E+00
  7.72261074E+00 -1.54452215E+01  7.72261074E+00  7.72261074E+00 -1.54452215E+01
  7.72261074E+00  7.72261074E+00 -1.54452215E+01  7.72261074E+00  7.72261074E+00
 -1.54452215E+01  7.72261074E+00  7.72261074E+00 -1.54452215E+01  7.72261074E+00
  7.72261074E+00 -1.54452215E+01  7.72261074E+00  7.72261074E+00 -1.54452215E+01
  7.72261074E+00  7.72261074E+00 -1.54452215E+01  7.72261074E+00  7.72261074E+00
 -1.54452215E+01  7.72261074E+00  7.72261074E+00 -1.54452215E+01  7.72261074E+00
  7.72261074E+00 -1.54452215E+01  7.72261074E+00  7.72261074E+00 -1.54452215E+01
  7.72261074E+00  7.72261074E+00 -1.54452215E+01  7.72261074E+00  7.72261074E+00
 -1.54452215E+01  7.72261074E+00  7.72261074E+00 -1.54452215E+01  7.72261074E+00
  7.72261074E+00 -1.54452215E+01  7.72261074E+00  7.72261074E+00 -1.54452215E+01
  7.72261074E+00  7.72261074E+00 -1.54452215E+01  7.72261074E+00  7.72261074E+00
 -1.54452215E+01  7.72261074E+00  7.72261074E+00 -1.54452215E+01  7.72261074E+00
  7.72261074E+00 -1.54452215E+01  7.72261074E+00  7.72261074E+00 -1.54452215E+01
  7.72261074E+00  7.72261074E+00 -1.54452215E+01  7.72261074E+00  7.72261074E+00
 -1.54452215E+01  7.72261074E+00  7.72261074E+00 -1.54452215E+01  7.72261074E+00
  7.72261074E+00 -1.54452215E+01  7.72261074E+00  7.72261074E+00 -1.54452215E+01
  7.72261074E+00  7.72261074E+00 -1.54452215E+01  7.72261074E+00  7.72261074E+00
 -1.54452215E+01  7.72261074E+00  7.72261074E+00 -1.54452215E+01  7.72261074E+00
  7.72261074E+00 -1.54452215E+01  7.72261074E+00  7.72261074E+00 -1.54452215E+01
  7.72261074E+00  7.72261074E+00 -1.54452215E+01  7.72261074E+00  7.72261074E+00
 -1.54452215E+01  7.72261074E+00  7.72261074E+00 -1.54452215E+01  7.72261074E+00
  7.72261074E+00 -1.54452215E+01  7.72261074E+00  7.72261074E+00 -1.54452215E+01
  7.72261074E+00  7.72261074E+00 -1.54452215E+01  7.72261074E+00  7.72261074E+00
 -1.54452215E+01  7.72261074E+00  7.72261074E+00 -1.54452215E+01  7.72261074E+00
  7.72261074E+00 -1.54452215E+01  7.72261074E+00  7.72261074E+00 -1.54452215E+01
  7.72261074E+00  7.72261074E+00 -1.54452215E+01  7.72261074E+00  7.72261074E+00
 -1.54452215E+01  7.72261074E+00  7.72261074E+00 -1.54452215E+01  7.72261074E+00
  7.72261074E+00 -1.54452215E+01  7.72261074E+00  7.72261074E+00 -1.54452215E+01
  7.72261074E+00  7.72261074E+00 -1.54452215E+01  7.72261074E+00  7.72261074E+00
 -1.54452215E+01  7.72261074E+00  7.72261074E+00 -1.54452215E+01  7.72261074E+00
  7.72261074E+00 -1.54452215E+01  7.72261074E+00  7.72261074E+00 -1.54452215E+01
  7.72261074E+00  7.72261074E+00 -1.54452215E+01  7.72261074E+00  7.72261074E+00
 -1.54452215E+01  7.72261074E+00  7.72261074E+00 -1.54452215E+01  7.72261074E+00
  7.72261074E+00 -1.54452215E+01  7.72261074E+00  7.72261074E+00 -1.54452215E+01
  7.72261074E+00  7.72261074E+00 -1.54452215E+01  7.72261074E+00  7.72261074E+00
 -1.54452215E+01  7.72261074E+00  7.72261074E+00 -1.54452215E+01  7.72261074E+00
  7.72261074E+00 -1.54452215E+01  7.72261074E+00  7.72261074E+00 -1.54452215E+01
  7.72261074E+00  7.72261074E+00 -1.54452215E+01  7.72261074E+00  7.72261074E+00
 -1.54452215E+01  7.72261074E+00  7.72261074E+00 -1.54452215E+01  7.72261074E+00
  7.72261074E+00 -1.54452215E+01  7.72261074E+00  7.72261074E+00 -1.54452215E+01
  7.72261074E+00  7.72261074E+00 -1.54452215E+01  7.72261074E+00  7.72261074E+00
 -1.54452215E+01  7.72261074E+00  7.72261074E+00 -1.54452215E+01  7.72261074E+00
  7.72261074E+00 -1.54452215E+01  7.72261074E+00  7.72261074E+00 -1.54452215E+01
  7.72261074E+00  7.72261074E+00 -1.54452215E+01  7.72261074E+00  7.72261074E+00
 -1.54452215E+01  7.72261074E+00  7.72261074E+00 -1.54452215E+01  7.72261074E+00
  7.72261074E+00 -1.54452215E+01  7.72261074E+00  7.72261074E+00 -1.54452215E+01
  7.72261074E+00  7.72261074E+00 -1.54452215E+01  7.72261074E+00  7.72261074E+00
 -1.54452215E+01  7.72261074E+00  7.72261074E+00 -1.54452215E+01  7.72261074E+00
  7.72261074E+00 -1.54452215E+01  7.72261074E+00  7.72261074E+00 -1.54452215E+01
  7.72261074E+00  7.72261074E+00 -1.54452215E+01  7.72261074E+00  7.72261074E+00
 -1.54452215E+01  7.72261074E+00  7.72261074E+00 -1.54452215E+01  7.72261074E+00
  7.72261074E+00 -1.54452215E+01  7.72261074E+00  7.72261074E+00 -1.54452215E+01
  7.72261074E+00  7.72261074E+00 -1.54452215E+01  7.72261074E+00  7.72261074E+00
 -1.54452215E+01  7.72261074E+00  7.72261074E+00 -1.54452215E+01  7.72261074E+00
  7.72261074E+00 -1.54452215E+01  7.72261074E+00  7.72261074E+00 -1.54452215E+01
  7.72261074E+00  7.72261074E+00 -1.54452215E+01  7.72261074E+00  7.72261074E+00
 -1.54452215E+01  7.72261074E+00  7.72261074E+00 -1.54452215E+01  7.72261074E+00
  7.72261074E+00 -1.54452215E+01  7.72261074E+00  7.72261074E+00 -1.54452215E+01
  7.72261074E+00  7.72261074E+00 -1.54452215E+01  7.72261074E+00  7.72261074E+00
 -1.54452215E+01  7.72261074E+00  7.72261074E+00 -1.54452215E+01  7.72261074E+00
  7.72261074E+00 -1.54452215E+01  7.72261074E+00  7.72261074E+00 -1.54452215E+01
  7.72261074E+00  7.72261074E+00 -1.54452215E+01  7.72261074E+00  7.72261074E+00
 -1.54452215E+01  7.72261074E+00  7.72261074E+00 -1.54452215E+01  7.72261074E+00
  7.72261074E+00 -1.54452215E+01  7.72261074E+00  7.72261074E+00 -1.54452215E+01
  7.72261074E+00  7.72261074E+00 -1.54452215E+01  7.72261074E+00  7.72261074E+00
 -1.54452215E+01  7.72261074E+00  7.72261074E+00 -1.54452215E+01  7.72261074E+00
  7.72261074E+00 -1.54452215E+01  7.72261074E+00  7.72261074E+00 -1.54452215E+01
  7.72261074E+00  7.72261074E+00 -1.54452215E+01  7.72261074E+00  7.72261074E+00
 -1.54452215E+01  7.72261074E+00  7.72261074E+00 -1.54452215E+01  7.72261074E+00
  7.72261074E+00 -1.54452215E+01  7.72261074E+00  7.72261074E+00 -1.54452215E+01
  7.72261074E+00  7.72261074E+00 -1.54452215E+01  7.72261074E+00  7.72261074E+00
 -1.54452215E+01  7.72261074E+00  7.72261074E+00 -1.54452215E+01  7.72261074E+00
  7.72261074E+00 -1.54452215E+01  7.72261074E+00  7.72261074E+00 -1.54452215E+01
  7.72261074E+00  7.72261074E+00 -1.54452215E+01  7.72261074E+00  7.72261074E+00
 -1.54452215E+01  7.72261074E+00  7.72261074E+00 -1.54452215E+01  7.72261074E+00
  7.72261074E+00 -1.54452215E+01  7.72261074E+00  7.72261074E+00 -1.54452215E+01
  7.72261074E+00  7.72261074E+00 -1.54452215E+01  7.72261074E+00  7.72261074E+00
 -1.54452215E+01  7.72261074E+00  7.72261074E+00 -1.54452215E+01  7.72261074E+00
  7.72261074E+00 -1.54452215E+01  7.72261074E+00  7.72261074E+00 -1.54452215E+01
  7.72261074E+00  7.72261074E+00 -1.54452215E+01  7.72261074E+00  7.72261074E+00
 -1.54452215E+01  7.72261074E+00  7.72261074E+00 -1.54452215E+01  7.72261074E+00
  7.72261074E+00 -1.54452215E+01  7.72261074E+00  7.72261074E+00 -1.54452215E+01
  7.72261074E+00  7.72261074E+00 -1.54452215E+01  7.72261074E+00  7.72261074E+00
 -1.54452215E+01  7.72261074E+00  7.72261074E+00 -1.54452215E+01  7.72261074E+00
  7.72261074E+00 -1.54452215E+01  7.72261074E+00  7.72261074E+00 -1.54452215E+01
  7.72261074E+00  7.72261074E+00 -1.54452215E+01  7.72261074E+00  7.72261074E+00
 -1.54452215E+01  7.72261074E+00  7.72261074E+00 -1.54452215E+01  7.72261074E+00
  7.72261074E+00 -1.54452215E+01  7.72261074E+00  7.72261074E+00 -1.54452215E+01
  7.72261074E+00  7.72261074E+00 -1.54452215E+01  7.72261074E+00  7.72261074E+00
 -1.54452215E+01  7.72261074E+00  7.72261074E+00 -1.54452215E+01  7.72261074E+00
  7.72261074E+00 -1.54452215E+01  7.72261074E+00  7.72261074E+00 -1.54452215E+01
  7.72261074E+00  7.72261074E+00 -1.54452215E+01  7.72261074E+00  7.72261074E+00
 -1.54452215E+01  7.72261074E+00  7.72261074E+00 -1.54452215E+01  7.72261074E+00
  7.72261074E+00 -1.54452215E+01  7.72261074E+00  7.72261074E+00 -1.54452215E+01
  7.72261074E+00  7.72261074E+00 -1.54452215E+01  7.72261074E+00  7.72261074E+00
 -1.54452215E+01  7.72261074E+00  7.72261074E+00 -1.54452215E+01  7.72261074E+00
  7.72261074E+00 -1.54452215E+01  7.72261074E+00  7.72261074E+00 -1.54452215E+01
  7.72261074E+00  7.72261074E+00 -1.54452215E+01  7.72261074E+00  7.72261074E+00
 -1.54452215E+01  7.72261074E+00  7.72261074E+00 -1.54452215E+01  7.72261074E+00
  7.72261074E+00 -1.54452215E+01  7.72261074E+00  7.72261074E+00 -1.54452215E+01
  7.72261074E+00  7.72261074E+00 -1.54452215E+01  7.72261074E+00  7.72261074E+00
 -1.54452215E+01  7.72261074E+00  7.72261074E+00 -1.54452215E+01  7.72261074E+00
  7.72261074E+00 -1.54452215E+01  7.72261074E+00  7.72261074E+00 -1.54452215E+01
  7.72261074E+00  7.72261074E+00 -1.54452215E+01  7.72261074E+00  7.72261074E+00
 -1.54452215E+01  7.72261074E+00  7.72261074E+00 -1.54452215E+01  7.72261074E+00
  7.72261074E+00 -1.54452215E+01  7.72261074E+00  7.72261074E+00 -1.54452215E+01
  7.72261074E+00  7.72261074E+00 -1.54452215E+01  7.72261074E+00  7.72261074E+00
 -1.54452215E+01  7.72261074E+00  7.72261074E+00 -1.54452215E+01  7.72261074E+00
  7.72261074E+00 -1.54452215E+01  7.72261074E+00  7.72261074E+00 -1.54452215E+01
  7.72261074E+00  7.72261074E+00 -1.54452215E+01  7.72261074E+00  7.72261074E+00
 -1.54452215E+01  7.72261074E+00  7.72261074E+00 -1.54452215E+01  7.72261074E+00
  7.72261074E+00 -1.54452215E+01  7.72261074E+00  7.72261074E+00 -1.54452215E+01
  7.72261074E+00  7.72261074E+00 -1.54452215E+01  7.72261074E+00  7.72261074E+00
 -1.54452215E+01  7.72261074E+00  7.72261074E+00 -1.54452215E+01  7.72261074E+00
  7.72261074E+00 -1.54452215E+01  7.72261074E+00  7.72261074E+00 -1.54452215E+01
  7.72261074E+00  7.72261074E+00 -1.54452215E+01  7.72261074E+00  7.72261074E+00
 -1.54452215E+01  7.72261074E+00  7.72261074E+00 -1.54452215E+01  7.72261074E+00
  7.72261074E+00 -1.54452215E+01  7.72261074E+00  7.72261074E+00 -1.54452215E+01
  7.72261074E+00  7.72261074E+00 -1.54452215E+01  7.72261074E+00  7.72261074E+00
 -1.54452215E+01  7.72261074E+00  7.72261074E+00 -1.54452215E+01  7.72261074E+00
  7.72261074E+00 -1.54452215E+01  7.72261074E+00  7.72261074E+00 -1.54452215E+01
  7.72261074E+00  7.72261074E+00 -1.54452215E+01  7.72261074E+00  7.72261074E+00
 -1.54452215E+01  7.72261074E+00  7.72261074E+00 -1.54452215E+01  7.72261074E+00
  7.72261074E+00 -1.54452215E+01  7.72261074E+00  7.72261074E+00 -1.54452215E+01
  7.72261074E+00  7.72261074E+00 -1.54452215E+01  7.72261074E+00  7.72261074E+00
 -1.54452215E+01  7.72261074E+00  7.72261074E+00 -1.54452215E+01  7.72261074E+00
  7.72261074E+00 -1.54452215E+01  7.72261074E+00  7.72261074E+00 -1.54452215E+01
  7.72261074E+00  7.72261074E+00 -1.54452215E+01  7.72261074E+00  7.72261074E+00
 -1.54452215E+01  7.72261074E+00  7.72261074E+00 -1.54452215E+01  7.72261074E+00
  7.72261074E+00 -1.54452215E+01  7.72261074E+00  7.72261074E+00 -1.54452215E+01
  7.72261074E+00  7.72261074E+00 -1.54452215E+01  7.72261074E+00  7.72261074E+00
 -1.54452215E+01  7.72261074E+00  7.72261074E+00 -1.54452215E+01  7.72261074E+00
  7.72261074E+00 -1.54452215E+01  7.72261074E+00  7.72261074E+00 -1.54452215E+01
  7.72261074E+00  7.72261074E+00 -1.54452215E+01  7.72261074E+00  7.72261074E+00
 -1.54452215E+01  7.72261074E+00  7.72261074E+00 -1.54452215E+01  7.72261074E+00
  7.72261074E+00 -1.54452215E+01  7.72261074E+00  7.72261074E+00 -1.54452215E+01
  7.72261074E+00  7.72261074E+00 -1.54452215E+01  7.72261074E+00  7.72261074E+00
 -1.54452215E+01  7.72261074E+00  7.72261074E+00 -1.54452215E+01  7.72261074E+00
  7.72261074E+00 -1.54452215E+01  7.72261074E+00  7.72261074E+00 -1.54452215E+01
  7.72261074E+00  7.72261074E+00 -1.54452215E+01  7.72261074E+00  7.72261074E+00
 -1.54452215E+01  7.72261074E+00  7.72261074E+00 -1.54452215E+01  7.72261074E+00
  7.72261074E+00 -1.54452215E+01  7.72261074E+00  7.72261074E+00 -1.54452215E+01
  7.72261074E+00  7.72261074E+00 -1.54452215E+01  7.72261074E+00  7.72261074E+00
 -1.54452215E+01  7.72261074E+00  7.72261074E+00 -1.54452215E+01  7.72261074E+00
  7.72261074E+00 -1.54452215E+01  7.72261074E+00  7.72261074E+00 -1.54452215E+01
  7.72261074E+00  7.72261074E+00 -1.54452215E+01  7.72261074E+00  7.72261074E+00
 -1.54452215E+01  7.72261074E+00  7.72261074E+00 -1.54452215E+01  7.72261074E+00
  7.72261074E+00 -1.54452215E+01  7.72261074E+00  7.72261074E+00 -1.54452215E+01
  7.72261074E+00  7.72261074E+00 -1.54452215E+01  7.72261074E+00  7.72261074E+00
 -1.54452215E+01  7.72261074E+00  7.72261074E+00 -1.54452215E+01  7.72261074E+00
  7.72261074E+00 -1.54452215E+01  7.72261074E+00  7.72261074E+00 -1.54452215E+01
  7.72261074E+00  7.72261074E+00 -1.54452215E+01  7.72261074E+00  7.72261074E+00
 -1.54452215E+01  7.72261074E+00  7.72261074E+00 -1.54452215E+01  7.72261074E+00
  7.72261074E+00 -1.54452215E+01  7.72261074E+00  7.72261074E+00 -1.54452215E+01
  7.72261074E+00  7.72261074E+00 -1.54452215E+01  7.72261074E+00  7.72261074E+00
 -1.54452215E+01  7.72261074E+00  7.72261074E+00 -1.54452215E+01  7.72261074E+00
  7.72261074E+00 -1.54452215E+01  7.72261074E+00  7.72261074E+00 -1.54452215E+01
  7.72261074E+00  7.72261074E+00 -1.54452215E+01  7.72261074E+00  7.72261074E+00
 -1.54452215E+01  7.72261074E+00  7.72261074E+00 -1.54452215E+01  7.72261074E+00
  7.72261074E+00 -1.54452215E+01  7.72261074E+00  7.72261074E+00 -1.54452215E+01
  7.72261074E+00  7.72261074E+00 -1.54452215E+01  7.72261074E+00  7.72261074E+00
 -1.54452215E+01  7.72261074E+00  7.72261074E+00 -1.54452215E+01  7.72261074E+00
  7.72261074E+00 -1.54452215E+01  7.72261074E+00  7.72261074E+00 -1.54452215E+01
  7.72261074E+00  7.72261074E+00 -1.54452215E+01  7.72261074E+00  7.72261074E+00
 -1.54452215E+01  7.72261074E+00  7.72261074E+00 -1.54452215E+01  7.72261074E+00
  7.72261074E+00 -1.54452215E+01  7.72261074E+00  7.72261074E+00 -1.54452215E+01
  7.72261074E+00  7.72261074E+00 -1.54452215E+01  7.72261074E+00  7.72261074E+00
 -1.54452215E+01  7.72261074E+00  7.72261074E+00 -1.54452215E+01  7.72261074E+00
  7.72261074E+00 -1.54452215E+01  7.72261074E+00  7.72261074E+00 -1.54452215E+01
  7.72261074E+00  7.72261074E+00 -1.54452215E+01  7.72261074E+00  7.72261074E+00
 -1.54452215E+01  7.72261074E+00  7.72261074E+00 -1.54452215E+01  7.72261074E+00
  7.72261074E+00 -1.54452215E+01  7.72261074E+00  7.72261074E+00 -1.54452215E+01
  7.72261074E+00  7.72261074E+00 -1.54452215E+01  7.72261074E+00  7.72261074E+00
 -1.54452215E+01  7.72261074E+00  7.72261074E+00 -1.54452215E+01  7.72261074E+00
  7.72261074E+00 -1.54452215E+01  7.72261074E+00  7.72261074E+00 -1.54452215E+01
  7.72261074E+00  7.72261074E+00 -1.54452215E+01  7.72261074E+00  7.72261074E+00
 -1.54452215E+01  7.72261074E+00  7.72261074E+00 -1.54452215E+01  7.72261074E+00
  7.72261074E+00 -1.54452215E+01  7.72261074E+00  7.72261074E+00 -1.54452215E+01
  7.72261074E+00  7.72261074E+00 -1.54452215E+01  7.72261074E+00  7.72261074E+00
 -1.54452215E+01  7.72261074E+00  7.72261074E+00 -1.54452215E+01  7.72261074E+00
  7.72261074E+00 -1.54452215E+01  7.72261074E+00  7.72261074E+00 -1.54452215E+01
  7.72261074E+00  7.72261074E+00 -1.54452215E+01  7.72261074E+00  7.72261074E+00
 -1.54452215E+01  7.72261074E+00  7.72261074E+00 -1.54452215E+01  7.72261074E+00
  7.72261074E+00 -1.54452215E+01  7.72261074E+00  7.72261074E+00 -1.54452215E+01
  7.72261074E+00  7.72261074E+00 -1.54452215E+01  7.72261074E+00  7.72261074E+00
 -1.54452215E+01  7.72261074E+00  7.72261074E+00 -1.54452215E+01  7.72261074E+00
  7.72261074E+00 -1.54452215E+01  7.72261074E+00  7.72261074E+00 -1.54452215E+01
  7.72261074E+00  7.72261074E+00 -1.54452215E+01  7.72261074E+00  7.72261074E+00
 -1.54452215E+01  7.72261074E+00  7.72261074E+00 -1.54452215E+01  7.72261074E+00
  7.72261074E+00 -1.54452215E+01  7.72261074E+00  7.72261074E+00 -1.54452215E+01
  7.72261074E+00  7.72261074E+00 -1.54452215E+01  7.72261074E+00  7.72261074E+00
 -1.54452215E+01  7.72261074E+00  7.72261074E+00 -1.54452215E+01  7.72261074E+00
  7.72261074E+00 -1.54452215E+01  7.72261074E+00  7.72261074E+00 -1.54452215E+01
  7.72261074E+00  7.72261074E+00 -1.54452215E+01  7.72261074E+00  7.72261074E+00
 -1.54452215E+01  7.72261074E+00  7.72261074E+00 -1.54452215E+01  7.72261074E+00
  7.72261074E+00 -1.54452215E+01  7.72261074E+00  7.72261074E+00 -1.54452215E+01
  7.72261074E+00  7.72261074E+00 -1.54452215E+01  7.72261074E+00  7.72261074E+00
 -1.54452215E+01  7.72261074E+00  7.72261074E+00 -1.54452215E+01  7.72261074E+00
  7.72261074E+00 -1.54452215E+01  7.72261074E+00  7.72261074E+00 -1.54452215E+01
  7.72261074E+00  7.72261074E+00 -1.54452215E+01  7.72261074E+00  7.72261074E+00
 -1.54452215E+01  7.72261074E+00  7.72261074E+00 -1.54452215E+01  7.72261074E+00
  7.72261074E+00 -1.54452215E+01  7.72261074E+00  7.72261074E+00 -1.54452215E+01
  7.72261074E+00  7.72261074E+00 -1.54452215E+01  7.72261074E+00  7.72261074E+00
 -1.54452215E+01  7.72261074E+00  7.72261074E+00 -1.54452215E+01  7.72261074E+00
  7.72261074E+00 -1.54452215E+01  7.72261074E+00  7.72261074E+00 -1.54452215E+01
  7.72261074E+00  7.72261074E+00 -1.54452215E+01  7.72261074E+00  7.72261074E+00
 -1.54452215E+01  7.72261074E+00  7.72261074E+00 -1.54452215E+01  7.72261074E+00
  7.72261074E+00 -1.54452215E+01  7.72261074E+00  7.72261074E+00 -1.54452215E+01
  7.72261074E+00  7.72261074E+00 -1.54452215E+01  7.72261074E+00  7.72261074E+00
 -1.54452215E+01  7.72261074E+00  7.72261074E+00 -1.54452215E+01  7.72261074E+00
  7.72261074E+00 -1.54452215E+01  7.72261074E+00  7.72261074E+00 -1.54452215E+01
  7.72261074E+00  7.72261074E+00 -1.54452215E+01  7.72261074E+00  7.72261074E+00
 -1.54452215E+01  7.72261074E+00  7.72261074E+00 -1.54452215E+01  7.72261074E+00
  7.72261074E+00 -1.54452215E+01  7.72261074E+00  7.72261074E+00 -1.54452215E+01
  7.72261074E+00  7.72261074E+00 -1.54452215E+01  7.72261074E+00  7.72261074E+00
 -1.54452215E+01  7.72261074E+00  7.72261074E+00 -1.54452215E+01  7.72261074E+00
  7.72261074E+00 -1.54452215E+01  7.72261074E+00  7.72261074E+00 -1.54452215E+01
  7.72261074E+00  7.72261074E+00 -1.54452215E+01  7.72261074E+00  7.72261074E+00
 -1.54452215E+01  7.72261074E+00  7.72261074E+00 -1.54452215E+01  7.72261074E+00
  7.72261074E+00 -1.54452215E+01  7.72261074E+00  7.72261074E+00 -1.54452215E+01
  7.72261074E+00  7.72261074E+00 -1.54452215E+01  7.72261074E+00  7.72261074E+00
 -1.54452215E+01  7.72261074E+00  7.72261074E+00 -1.54452215E+01  7.72261074E+00
  7.72261074E+00 -1.54452215E+01  7.72261074E+00  7.72261074E+00 -1.54452215E+01
  7.72261074E+00  7.72261074E+00 -1.54452215E+01  7.72261074E+00  7.72261074E+00
 -1.54452215E+01  7.72261074E+00  7.72261074E+00 -1.54452215E+01  7.72261074E+00
  7.72261074E+00 -1.54452215E+01  7.72261074E+00  7.72261074E+00 -1.54452215E+01
  7.72261074E+00  7.72261074E+00 -1.54452215E+01  7.72261074E+00  7.72261074E+00
 -1.54452215E+01  7.72261074E+00  7.72261074E+00 -1.54452215E+01  7.72261074E+00
  7.72261074E+00 -1.54452215E+01  7.72261074E+00  7.72261074E+00 -1.54452215E+01
  7.72261074E+00  7.72261074E+00 -1.54452215E+01  7.72261074E+00  7.72261074E+00
 -1.54452215E+01  7.72261074E+00  7.72261074E+00 -1.54452215E+01  7.72261074E+00
  7.72261074E+00 -1.54452215E+01  7.72261074E+00  7.72261074E+00 -1.54452215E+01
  7.72261074E+00  7.72261074E+00 -1.54452215E+01  7.72261074E+00  7.72261074E+00
 -1.54452215E+01  7.72261074E+00  7.72261074E+00 -1.54452215E+01  7.72261074E+00
  7.72261074E+00 -1.54452215E+01  7.72261074E+00  7.72261074E+00 -1.54452215E+01
  7.72261074E+00  7.72261074E+00 -1.54452215E+01  7.72261074E+00  7.72261074E+00
 -1.54452215E+01  7.72261074E+00  7.72261074E+00 -1.54452215E+01  7.72261074E+00
  7.72261074E+00 -1.54452215E+01  7.72261074E+00  7.72261074E+00 -1.54452215E+01
  7.72261074E+00  7.72261074E+00 -1.54452215E+01  7.72261074E+00  7.72261074E+00
 -1.54452215E+01  7.72261074E+00  7.72261074E+00 -1.54452215E+01  7.72261074E+00
  7.72261074E+00 -1.54452215E+01  7.72261074E+00  7.72261074E+00 -1.54452215E+01
  7.72261074E+00  7.72261074E+00 -1.54452215E+01  7.72261074E+00  7.72261074E+00
 -1.54452215E+01  7.72261074E+00  7.72261074E+00 -1.54452215E+01  7.72261074E+00
  7.72261074E+00 -1.54452215E+01  7.72261074E+00  7.72261074E+00 -1.54452215E+01
  7.72261074E+00  7.72261074E+00 -1.54452215E+01  7.72261074E+00  7.72261074E+00
 -1.54452215E+01  7.72261074E+00  7.72261074E+00 -1.54452215E+01  7.72261074E+00
  7.72261074E+00 -1.54452215E+01  7.72261074E+00  7.72261074E+00 -1.54452215E+01
  7.72261074E+00  7.72261074E+00 -1.54452215E+01  7.72261074E+00  7.72261074E+00
 -1.54452215E+01  7.72261074E+00  7.72261074E+00 -1.54452215E+01  7.72261074E+00
  7.72261074E+00 -1.54452215E+01  7.72261074E+00  7.72261074E+00 -1.54452215E+01
  7.72261074E+00  7.72261074E+00 -1.54452215E+01  7.72261074E+00  7.72261074E+00
 -1.54452215E+01  7.72261074E+00  7.72261074E+00 -1.54452215E+01  7.72261074E+00
  7.72261074E+00 -1.54452215E+01  7.72261074E+00  7.72261074E+00 -1.54452215E+01
  7.72261074E+00  7.72261074E+00 -1.54452215E+01  7.72261074E+00  7.72261074E+00
 -1.54452215E+01  7.72261074E+00  7.72261074E+00 -1.54452215E+01  7.72261074E+00
  7.72261074E+00 -1.54452215E+01  7.72261074E+00  7.72261074E+00 -1.54452215E+01
  7.72261074E+00  7.72261074E+00 -1.54452215E+01  7.72261074E+00  7.72261074E+00
 -1.54452215E+01  7.72261074E+00  7.72261074E+00 -1.54452215E+01  7.72261074E+00
  7.72261074E+00 -1.54452215E+01  7.72261074E+00  7.72261074E+00 -1.54452215E+01
  7.72261074E+00  7.72261074E+00 -1.54452215E+01  7.72261074E+00  7.72261074E+00
 -1.54452215E+01  7.72261074E+00  7.72261074E+00 -1.54452215E+01  7.72261074E+00
  7.72261074E+00 -1.54452215E+01  7.72261074E+00  7.72261074E+00 -1.54452215E+01
  7.72261074E+00  7.72261074E+00 -1.54452215E+01  7.72261074E+00  7.72261074E+00
 -1.54452215E+01  7.72261074E+00  7.72261074E+00 -1.54452215E+01  7.72261074E+00
  7.72261074E+00 -1.54452215E+01  7.72261074E+00  7.72261074E+00 -1.54452215E+01
  7.72261074E+00  7.72261074E+00 -1.54452215E+01  7.72261074E+00  7.72261074E+00
 -1.54452215E+01  7.72261074E+00  7.72261074E+00 -1.54452215E+01  7.72261074E+00
  7.72261074E+00 -1.54452215E+01  7.72261074E+00  7.72261074E+00 -1.54452215E+01
  7.72261074E+00  7.72261074E+00 -1.54452215E+01  7.72261074E+00  7.72261074E+00
 -1.54452215E+01  7.72261074E+00  7.72261074E+00 -1.54452215E+01  7.72261074E+00
  7.72261074E+00 -1.54452215E+01  7.72261074E+00  7.72261074E+00 -1.54452215E+01
  7.72261074E+00  7.72261074E+00 -1.54452215E+01  7.72261074E+00  7.72261074E+00
 -1.54452215E+01  7.72261074E+00  7.72261074E+00 -1.54452215E+01  7.72261074E+00
  7.72261074E+00 -1.54452215E+01  7.72261074E+00  7.72261074E+00 -1.54452215E+01
  7.72261074E+00  7.72261074E+00 -1.54452215E+01  7.72261074E+00  7.72261074E+00
 -1.54452215E+01  7.72261074E+00  7.72261074E+00 -1.54452215E+01  7.72261074E+00
  7.72261074E+00 -1.54452215E+01  7.72261074E+00  7.72261074E+00 -1.54452215E+01
  7.72261074E+00  7.72261074E+00 -1.54452215E+01  7.72261074E+00  7.72261074E+00
 -1.54452215E+01  7.72261074E+00  7.72261074E+00 -1.54452215E+01  7.72261074E+00
  7.72261074E+00 -1.54452215E+01  7.72261074E+00  7.72261074E+00 -1.54452215E+01
  7.72261074E+00  7.72261074E+00 -1.54452215E+01  7.72261074E+00  7.72261074E+00
 -1.54452215E+01  7.72261074E+00  7.72261074E+00 -1.54452215E+01  7.72261074E+00
  7.72261074E+00 -1.54452215E+01  7.72261074E+00  7.72261074E+00 -1.54452215E+01
  7.72261074E+00  7.72261074E+00 -1.54452215E+01  7.72261074E+00  7.72261074E+00
 -1.54452215E+01  7.72261074E+00  7.72261074E+00 -1.54452215E+01  7.72261074E+00
  7.72261074E+00 -1.54452215E+01  7.72261074E+00  7.72261074E+00 -1.54452215E+01
  7.72261074E+00  7.72261074E+00 -1.54452215E+01  7.72261074E+00  7.72261074E+00
 -1.54452215E+01  7.72261074E+00  7.72261074E+00 -1.54452215E+01  7.72261074E+00
  7.72261074E+00 -1.54452215E+01  7.72261074E+00  7.72261074E+00 -1.54452215E+01
  7.72261074E+00  7.72261074E+00 -1.54452215E+01  7.72261074E+00  7.72261074E+00
 -1.54452215E+01  7.72261074E+00  7.72261074E+00 -1.54452215E+01  7.72261074E+00
  7.72261074E+00 -1.54452215E+01  7.72261074E+00  7.72261074E+00 -1.54452215E+01
  7.72261074E+00  7.72261074E+00 -1.54452215E+01  7.72261074E+00  7.72261074E+00
 -1.54452215E+01  7.72261074E+00  7.72261074E+00 -1.54452215E+01  7.72261074E+00
  7.72261074E+00 -1.54452215E+01  7.72261074E+00  7.72261074E+00 -1.54452215E+01
  7.72261074E+00  7.72261074E+00 -1.54452215E+01  7.72261074E+00  7.72261074E+00
 -1.54452215E+01  7.72261074E+00  7.72261074E+00 -1.54452215E+01  7.72261074E+00
  7.72261074E+00 -1.54452215E+01  7.72261074E+00  7.72261074E+00 -1.54452215E+01
  7.72261074E+00  7.72261074E+00 -1.54452215E+01  7.72261074E+00  7.72261074E+00
 -1.54452215E+01  7.72261074E+00  7.72261074E+00 -1.54452215E+01  7.72261074E+00
  7.72261074E+00 -1.54452215E+01  7.72261074E+00  7.72261074E+00 -1.54452215E+01
  7.72261074E+00  7.72261074E+00 -1.54452215E+01  7.72261074E+00  7.72261074E+00
 -1.54452215E+01  7.72261074E+00  7.72261074E+00 -1.54452215E+01  7.72261074E+00
  7.72261074E+00 -1.54452215E+01  7.72261074E+00  7.72261074E+00 -1.54452215E+01
  7.72261074E+00  7.72261074E+00 -1.54452215E+01  7.72261074E+00  7.72261074E+00
 -1.54452215E+01  7.72261074E+00  7.72261074E+00 -1.54452215E+01  7.72261074E+00
  7.72261074E+00 -1.54452215E+01  7.72261074E+00  7.72261074E+00 -1.54452215E+01
  7.72261074E+00  7.72261074E+00 -1.54452215E+01  7.72261074E+00  7.72261074E+00
 -1.54452215E+01  7.72261074E+00  7.72261074E+00 -1.54452215E+01  7.72261074E+00
  7.72261074E+00 -1.54452215E+01  7.72261074E+00  7.72261074E+00 -1.54452215E+01
  7.72261074E+00  7.72261074E+00 -1.54452215E+01  7.72261074E+00  7.72261074E+00
 -1.54452215E+01  7.72261074E+00  7.72261074E+00 -1.54452215E+01  7.72261074E+00
  7.72261074E+00 -1.54452215E+01  7.72261074E+00  7.72261074E+00 -1.54452215E+01
  7.72261074E+00  7.72261074E+00 -1.54452215E+01  7.72261074E+00  7.72261074E+00
 -1.54452215E+01  7.72261074E+00  7.72261074E+00 -1.54452215E+01  7.72261074E+00
  7.72261074E+00 -1.54452215E+01  7.72261074E+00  7.72261074E+00 -1.54452215E+01
  7.72261074E+00  7.72261074E+00 -1.54452215E+01  7.72261074E+00  7.72261074E+00
 -1.54452215E+01  7.72261074E+00  7.72261074E+00 -1.54452215E+01  7.72261074E+00
  7.72261074E+00 -1.54452215E+01  7.72261074E+00  7.72261074E+00 -1.54452215E+01
  7.72261074E+00  7.72261074E+00 -1.54452215E+01  7.72261074E+00  7.72261074E+00
 -1.54452215E+01  7.72261074E+00  7.72261074E+00 -1.54452215E+01  7.72261074E+00
  7.72261074E+00 -1.54452215E+01  7.72261074E+00  7.72261074E+00 -1.54452215E+01
  7.72261074E+00  7.72261074E+00 -1.54452215E+01  7.72261074E+00  7.72261074E+00
 -1.54452215E+01  7.72261074E+00  7.72261074E+00 -1.54452215E+01  7.72261074E+00
  7.72261074E+00 -1.54452215E+01  7.72261074E+00  7.72261074E+00 -1.54452215E+01
  7.72261074E+00  7.72261074E+00 -1.54452215E+01  7.72261074E+00  7.72261074E+00
 -1.54452215E+01  7.72261074E+00  7.72261074E+00 -1.54452215E+01  7.72261074E+00
  7.72261074E+00 -1.54452215E+01  7.72261074E+00  7.72261074E+00 -1.54452215E+01
  7.72261074E+00  7.72261074E+00 -1.54452215E+01  7.72261074E+00  7.72261074E+00
 -1.54452215E+01  7.72261074E+00  7.72261074E+00 -1.54452215E+01  7.72261074E+00
  7.72261074E+00 -1.54452215E+01  7.72261074E+00  7.72261074E+00 -1.54452215E+01
  7.72261074E+00  7.72261074E+00 -1.54452215E+01  7.72261074E+00  7.72261074E+00
 -1.54452215E+01  7.72261074E+00  7.72261074E+00 -1.54452215E+01  7.72261074E+00
  7.72261074E+00 -1.54452215E+01  7.72261074E+00  7.72261074E+00 -1.54452215E+01
  7.72261074E+00  7.72261074E+00 -1.54452215E+01  7.72261074E+00  7.72261074E+00
 -1.54452215E+01  7.72261074E+00  7.72261074E+00 -1.54452215E+01  7.72261074E+00
  7.72261074E+00 -1.54452215E+01  7.72261074E+00  7.72261074E+00 -1.54452215E+01
  7.72261074E+00  7.72261074E+00 -1.54452215E+01  7.72261074E+00  7.72261074E+00
 -1.54452215E+01  7.72261074E+00  7.72261074E+00 -1.54452215E+01  7.72261074E+00
  7.72261074E+00 -1.54452215E+01  7.72261074E+00  7.72261074E+00 -1.54452215E+01
  7.72261074E+00  7.72261074E+00 -1.54452215E+01  7.72261074E+00  7.72261074E+00
 -1.54452215E+01  7.72261074E+00  7.72261074E+00 -1.54452215E+01  7.72261074E+00
  7.72261074E+00 -1.54452215E+01  7.72261074E+00  7.72261074E+00 -1.54452215E+01
  7.72261074E+00  7.72261074E+00 -1.54452215E+01  7.72261074E+00  7.72261074E+00
 -1.54452215E+01  7.72261074E+00  7.72261074E+00 -1.54452215E+01  7.72261074E+00
  7.72261074E+00 -1.54452215E+01  7.72261074E+00  7.72261074E+00 -1.54452215E+01
  7.72261074E+00  7.72261074E+00 -1.54452215E+01  7.72261074E+00  7.72261074E+00
 -1.54452215E+01  7.72261074E+00  7.72261074E+00 -1.54452215E+01  7.72261074E+00
  7.72261074E+00 -1.54452215E+01  7.72261074E+00  7.72261074E+00 -1.54452215E+01
  7.72261074E+00  7.72261074E+00 -1.54452215E+01  7.72261074E+00  7.72261074E+00
 -1.54452215E+01  7.72261074E+00  7.72261074E+00 -1.54452215E+01  7.72261074E+00
  7.72261074E+00 -1.54452215E+01  7.72261074E+00  7.72261074E+00 -1.54452215E+01
  7.72261074E+00  7.72261074E+00 -1.54452215E+01  7.72261074E+00  7.72261074E+00
 -1.54452215E+01  7.72261074E+00  7.72261074E+00 -1.54452215E+01  7.72261074E+00
  7.72261074E+00 -1.54452215E+01  7.72261074E+00  7.72261074E+00 -1.54452215E+01
  7.72261074E+00  7.72261074E+00 -1.54452215E+01  7.72261074E+00  7.72261074E+00
 -1.54452215E+01  7.72261074E+00  7.72261074E+00 -1.54452215E+01  7.72261074E+00
  7.72261074E+00 -1.54452215E+01  7.72261074E+00  7.72261074E+00 -1.54452215E+01
  7.72261074E+00  7.72261074E+00 -1.54452215E+01  7.72261074E+00  7.72261074E+00
 -1.54452215E+01  7.72261074E+00  7.72261074E+00 -1.54452215E+01  7.72261074E+00
  7.72261074E+00 -1.54452215E+01  7.72261074E+00  7.72261074E+00 -1.54452215E+01
  7.72261074E+00  7.72261074E+00 -1.54452215E+01  7.72261074E+00  7.72261074E+00
 -1.54452215E+01  7.72261074E+00  7.72261074E+00 -1.54452215E+01  7.72261074E+00
  7.72261074E+00 -1.54452215E+01  7.72261074E+00  7.72261074E+00 -1.54452215E+01
  7.72261074E+00  7.72261074E+00 -1.54452215E+01  7.72261074E+00  7.72261074E+00
 -1.54452215E+01  7.72261074E+00  7.72261074E+00 -1.54452215E+01  7.72261074E+00
  7.72261074E+00 -1.54452215E+01  7.72261074E+00  7.72261074E+00 -1.54452215E+01
  7.72261074E+00  7.72261074E+00 -1.54452215E+01  7.72261074E+00  7.72261074E+00
 -1.54452215E+01  7.72261074E+00  7.72261074E+00 -1.54452215E+01  7.72261074E+00
  7.72261074E+00 -1.54452215E+01  7.72261074E+00  7.72261074E+00 -1.54452215E+01
  7.72261074E+00  7.72261074E+00 -1.54452215E+01  7.72261074E+00  7.72261074E+00
 -1.54452215E+01  7.72261074E+00  7.72261074E+00 -1.54452215E+01  7.72261074E+00
  7.72261074E+00 -1.54452215E+01  7.72261074E+00  7.72261074E+00 -1.54452215E+01
  7.72261074E+00  7.72261074E+00 -1.54452215E+01  7.72261074E+00  7.72261074E+00
 -1.54452215E+01  7.72261074E+00  7.72261074E+00 -1.54452215E+01  7.72261074E+00
  7.72261074E+00 -1.54452215E+01  7.72261074E+00  7.72261074E+00 -1.54452215E+01
  7.72261074E+00  7.72261074E+00 -1.54452215E+01  7.72261074E+00  7.72261074E+00
 -1.54452215E+01  7.72261074E+00  7.72261074E+00 -1.54452215E+01  7.72261074E+00
  7.72261074E+00 -1.54452215E+01  7.72261074E+00  7.72261074E+00 -1.54452215E+01
  7.72261074E+00  7.72261074E+00 -1.54452215E+01  7.72261074E+00  7.72261074E+00
 -1.54452215E+01  7.72261074E+00  7.72261074E+00 -1.54452215E+01  7.72261074E+00
  7.72261074E+00 -1.54452215E+01  7.72261074E+00  7.72261074E+00 -1.54452215E+01
  7.72261074E+00  7.72261074E+00 -1.54452215E+01  7.72261074E+00  7.72261074E+00
 -1.54452215E+01  7.72261074E+00  7.72261074E+00 -1.54452215E+01  7.72261074E+00
  7.72261074E+00 -1.54452215E+01  7.72261074E+00  7.72261074E+00 -1.54452215E+01
  7.72261074E+00  7.72261074E+00 -1.54452215E+01  7.72261074E+00  7.72261074E+00
 -1.54452215E+01  7.72261074E+00  7.72261074E+00 -1.54452215E+01  7.72261074E+00
  7.72261074E+00 -1.54452215E+01  7.72261074E+00  7.72261074E+00 -1.54452215E+01
  7.72261074E+00  7.72261074E+00 -1.54452215E+01  7.72261074E+00  7.72261074E+00
 -1.54452215E+01  7.72261074E+00  7.72261074E+00 -1.54452215E+01  7.72261074E+00
  7.72261074E+00 -1.54452215E+01  7.72261074E+00  7.72261074E+00 -1.54452215E+01
  7.72261074E+00  7.72261074E+00 -1.54452215E+01  7.72261074E+00  7.72261074E+00
 -1.54452215E+01  7.72261074E+00  7.72261074E+00 -1.54452215E+01  7.72261074E+00
  7.72261074E+00 -1.54452215E+01  7.72261074E+00  7.72261074E+00 -1.54452215E+01
  7.72261074E+00  7.72261074E+00 -1.54452215E+01  7.72261074E+00  7.72261074E+00
 -1.54452215E+01  7.72261074E+00  7.72261074E+00 -1.54452215E+01  7.72261074E+00
  7.72261074E+00 -1.54452215E+01  7.72261074E+00  7.72261074E+00 -1.54452215E+01
  7.72261074E+00  7.72261074E+00 -1.54452215E+01  7.72261074E+00  7.72261074E+00
 -1.54452215E+01  7.72261074E+00  7.72261074E+00 -1.54452215E+01  7.72261074E+00
  7.72261074E+00 -1.54452215E+01  7.72261074E+00  7.72261074E+00 -1.54452215E+01
  7.72261074E+00  7.72261074E+00 -1.54452215E+01  7.72261074E+00  7.72261074E+00
 -1.54452215E+01  7.72261074E+00  7.72261074E+00 -1.54452215E+01  7.72261074E+00
  7.72261074E+00 -1.54452215E+01  7.72261074E+00  7.72261074E+00 -1.54452215E+01
  7.72261074E+00  7.72261074E+00 -1.54452215E+01  7.72261074E+00  7.72261074E+00
 -1.54452215E+01  7.72261074E+00  7.72261074E+00 -1.54452215E+01  7.72261074E+00
  7.72261074E+00 -1.54452215E+01  7.72261074E+00  7.72261074E+00 -1.54452215E+01
  7.72261074E+00  7.72261074E+00 -1.54452215E+01  7.72261074E+00  7.72261074E+00
 -1.54452215E+01  7.72261074E+00  7.72261074E+00 -1.54452215E+01  7.72261074E+00
  7.72261074E+00 -1.54452215E+01  7.72261074E+00  7.72261074E+00 -1.54452215E+01
  7.72261074E+00  7.72261074E+00 -1.54452215E+01  7.72261074E+00  7.72261074E+00
 -1.54452215E+01  7.72261074E+00  7.72261074E+00 -1.54452215E+01  7.72261074E+00
  7.72261074E+00 -1.54452215E+01  7.72261074E+00  7.72261074E+00 -1.54452215E+01
  7.72261074E+00  7.72261074E+00 -1.54452215E+01  7.72261074E+00  7.72261074E+00
 -1.54452215E+01  7.72261074E+00  7.72261074E+00 -1.54452215E+01  7.72261074E+00
  7.72261074E+00 -1.54452215E+01  7.72261074E+00  7.72261074E+00 -1.54452215E+01
  7.72261074E+00  7.72261074E+00 -1.54452215E+01  7.72261074E+00  7.72261074E+00
 -1.54452215E+01  7.72261074E+00  7.72261074E+00 -1.54452215E+01  7.72261074E+00
  7.72261074E+00 -1.54452215E+01  7.72261074E+00  7.72261074E+00 -1.54452215E+01
  7.72261074E+00  7.72261074E+00 -1.54452215E+01  7.72261074E+00  7.72261074E+00
 -1.54452215E+01  7.72261074E+00  7.72261074E+00 -1.54452215E+01  7.72261074E+00
  7.72261074E+00 -1.54452215E+01  7.72261074E+00  7.72261074E+00 -1.54452215E+01
  7.72261074E+00  7.72261074E+00 -1.54452215E+01  7.72261074E+00  7.72261074E+00
 -1.54452215E+01  7.72261074E+00  7.72261074E+00 -1.54452215E+01  7.72261074E+00
  7.72261074E+00 -1.54452215E+01  7.72261074E+00  7.72261074E+00 -1.54452215E+01
  7.72261074E+00  7.72261074E+00 -1.54452215E+01  7.72261074E+00  7.72261074E+00
 -1.54452215E+01  7.72261074E+00  7.72261074E+00 -1.54452215E+01  7.72261074E+00
  7.72261074E+00 -1.54452215E+01  7.72261074E+00  7.72261074E+00 -1.54452215E+01
  7.72261074E+00  7.72261074E+00 -1.54452215E+01  7.72261074E+00  7.72261074E+00
 -1.54452215E+01  7.72261074E+00  7.72261074E+00 -1.54452215E+01  7.72261074E+00
  7.72261074E+00 -1.54452215E+01  7.72261074E+00  7.72261074E+00 -1.54452215E+01
  7.72261074E+00  7.72261074E+00 -1.54452215E+01  7.72261074E+00  7.72261074E+00
 -1.54452215E+01  7.72261074E+00  7.72261074E+00 -1.54452215E+01  7.72261074E+00
  7.72261074E+00 -1.54452215E+01  7.72261074E+00  7.72261074E+00 -1.54452215E+01
  7.72261074E+00  7.72261074E+00 -1.54452215E+01  7.72261074E+00  7.72261074E+00
 -1.54452215E+01  7.72261074E+00  7.72261074E+00 -1.54452215E+01  7.72261074E+00
  7.72261074E+00 -1.54452215E+01  7.72261074E+00  7.72261074E+00 -1.54452215E+01
  7.72261074E+00  7.72261074E+00 -1.54452215E+01  7.72261074E+00  7.72261074E+00
 -1.54452215E+01  7.72261074E+00  7.72261074E+00 -1.54452215E+01  7.72261074E+00
  7.72261074E+00 -1.54452215E+01  7.72261074E+00  7.72261074E+00 -1.54452215E+01
  7.72261074E+00  7.72261074E+00 -1.54452215E+01  7.72261074E+00  7.72261074E+00
 -1.54452215E+01  7.72261074E+00  7.72261074E+00 -1.54452215E+01  7.72261074E+00
  7.72261074E+00 -1.54452215E+01  7.72261074E+00  7.72261074E+00 -1.54452215E+01
  7.72261074E+00  7.72261074E+00 -1.54452215E+01  7.72261074E+00  7.72261074E+00
 -1.54452215E+01  7.72261074E+00  7.72261074E+00 -1.54452215E+01  7.72261074E+00
  7.72261074E+00 -1.54452215E+01  7.72261074E+00  7.72261074E+00 -1.54452215E+01
  7.72261074E+00  7.72261074E+00 -1.54452215E+01  7.72261074E+00  7.72261074E+00
 -1.54452215E+01  7.72261074E+00  7.72261074E+00 -1.54452215E+01  7.72261074E+00
  7.72261074E+00 -1.54452215E+01  7.72261074E+00  7.72261074E+00 -1.54452215E+01
  7.72261074E+00  7.72261074E+00 -1.54452215E+01  7.72261074E+00  7.72261074E+00
 -1.54452215E+01  7.72261074E+00  7.72261074E+00 -1.54452215E+01  7.72261074E+00
  7.72261074E+00 -1.54452215E+01  7.72261074E+00  7.72261074E+00 -1.54452215E+01
  7.72261074E+00  7.72261074E+00 -1.54452215E+01  7.72261074E+00  7.72261074E+00
 -1.54452215E+01  7.72261074E+00  7.72261074E+00 -1.54452215E+01  7.72261074E+00
  7.72261074E+00 -1.54452215E+01  7.72261074E+00  7.72261074E+00 -1.54452215E+01
  7.72261074E+00  7.72261074E+00 -1.54452215E+01  7.72261074E+00  7.72261074E+00
 -1.54452215E+01  7.72261074E+00  7.72261074E+00 -1.54452215E+01  7.72261074E+00
  7.72261074E+00 -1.54452215E+01  7.72261074E+00  7.72261074E+00 -1.54452215E+01
  7.72261074E+00  7.72261074E+00 -1.54452215E+01  7.72261074E+00  7.72261074E+00
 -1.54452215E+01  7.72261074E+00  7.72261074E+00 -1.54452215E+01  7.72261074E+00
  7.72261074E+00 -1.54452215E+01  7.72261074E+00  7.72261074E+00 -1.54452215E+01
  7.72261074E+00  7.72261074E+00 -1.54452215E+01  7.72261074E+00  7.72261074E+00
 -1.54452215E+01  7.72261074E+00  7.72261074E+00 -1.54452215E+01  7.72261074E+00
  7.72261074E+00 -1.54452215E+01  7.72261074E+00  7.72261074E+00 -1.54452215E+01
  7.72261074E+00  7.72261074E+00 -1.54452215E+01  7.72261074E+00  7.72261074E+00
 -1.54452215E+01  7.72261074E+00  7.72261074E+00 -1.54452215E+01  7.72261074E+00
  7.72261074E+00 -1.54452215E+01  7.72261074E+00  7.72261074E+00 -1.54452215E+01
  7.72261074E+00  7.72261074E+00 -1.54452215E+01  7.72261074E+00  7.72261074E+00
 -1.54452215E+01  7.72261074E+00  7.72261074E+00 -1.54452215E+01  7.72261074E+00
  7.72261074E+00 -1.54452215E+01  7.72261074E+00  7.72261074E+00 -1.54452215E+01
  7.72261074E+00  7.72261074E+00 -1.54452215E+01  7.72261074E+00  7.72261074E+00
 -1.54452215E+01  7.72261074E+00  7.72261074E+00 -1.54452215E+01  7.72261074E+00
  7.72261074E+00 -1.54452215E+01  7.72261074E+00  7.72261074E+00 -1.54452215E+01
  7.72261074E+00  7.72261074E+00 -1.54452215E+01  7.72261074E+00  7.72261074E+00
 -1.54452215E+01  7.72261074E+00  7.72261074E+00 -1.54452215E+01  7.72261074E+00
  7.72261074E+00 -1.54452215E+01  7.72261074E+00  7.72261074E+00 -1.54452215E+01
  7.72261074E+00  7.72261074E+00 -1.54452215E+01  7.72261074E+00  7.72261074E+00
 -1.54452215E+01  7.72261074E+00  7.72261074E+00 -1.54452215E+01  7.72261074E+00
  7.72261074E+00 -1.54452215E+01  7.72261074E+00  7.72261074E+00 -1.54452215E+01
  7.72261074E+00  7.72261074E+00 -1.54452215E+01  7.72261074E+00  7.72261074E+00
 -1.54452215E+01  7.72261074E+00  7.72261074E+00 -1.54452215E+01  7.72261074E+00
  7.72261074E+00 -1.54452215E+01  7.72261074E+00  7.72261074E+00 -1.54452215E+01
  7.72261074E+00  7.72261074E+00 -1.54452215E+01  7.72261074E+00  7.72261074E+00
 -1.54452215E+01  7.72261074E+00  7.72261074E+00 -1.54452215E+01  7.72261074E+00
  7.72261074E+00 -1.54452215E+01  7.72261074E+00  7.72261074E+00 -1.54452215E+01
  7.72261074E+00  7.72261074E+00 -1.54452215E+01  7.72261074E+00  7.72261074E+00
 -1.54452215E+01  7.72261074E+00  7.72261074E+00 -1.54452215E+01  7.72261074E+00
  7.72261074E+00 -1.54452215E+01  7.72261074E+00  7.72261074E+00 -1.54452215E+01
  7.72261074E+00  7.72261074E+00 -1.54452215E+01  7.72261074E+00  7.72261074E+00
 -1.54452215E+01  7.72261074E+00  7.72261074E+00 -1.54452215E+01  7.72261074E+00
  7.72261074E+00 -1.54452215E+01  7.72261074E+00  7.72261074E+00 -1.54452215E+01
  7.72261074E+00  7.72261074E+00 -1.54452215E+01  7.72261074E+00  7.72261074E+00
 -1.54452215E+01  7.72261074E+00  7.72261074E+00 -1.54452215E+01  7.72261074E+00
  7.72261074E+00 -1.54452215E+01  7.72261074E+00  7.72261074E+00 -1.54452215E+01
  7.72261074E+00  7.72261074E+00 -1.54452215E+01  7.72261074E+00  7.72261074E+00
 -1.54452215E+01  7.72261074E+00  7.72261074E+00 -1.54452215E+01  7.72261074E+00
  7.72261074E+00 -1.54452215E+01  7.72261074E+00  7.72261074E+00 -1.54452215E+01
  7.72261074E+00  7.72261074E+00 -1.54452215E+01  7.72261074E+00  7.72261074E+00
 -1.54452215E+01  7.72261074E+00  7.72261074E+00 -1.54452215E+01  7.72261074E+00
  7.72261074E+00 -1.54452215E+01  7.72261074E+00  7.72261074E+00 -1.54452215E+01
  7.72261074E+00  7.72261074E+00 -1.54452215E+01  7.72261074E+00  7.72261074E+00
 -1.54452215E+01  7.72261074E+00  7.72261074E+00 -1.54452215E+01  7.72261074E+00
  7.72261074E+00 -1.54452215E+01  7.72261074E+00  7.72261074E+00 -1.54452215E+01
  7.72261074E+00  7.72261074E+00 -1.54452215E+01  7.72261074E+00  7.72261074E+00
 -1.54452215E+01  7.72261074E+00  7.72261074E+00 -1.54452215E+01  7.72261074E+00
  7.72261074E+00 -1.54452215E+01  7.72261074E+00  7.72261074E+00 -1.54452215E+01
  7.72261074E+00  7.72261074E+00 -1.54452215E+01  7.72261074E+00  7.72261074E+00
 -1.54452215E+01  7.72261074E+00  7.72261074E+00 -1.54452215E+01  7.72261074E+00
  7.72261074E+00 -1.54452215E+01  7.72261074E+00  7.72261074E+00 -1.54452215E+01
  7.72261074E+00  7.72261074E+00 -1.54452215E+01  7.72261074E+00  7.72261074E+00
 -1.54452215E+01  7.72261074E+00  7.72261074E+00 -1.54452215E+01  7.72261074E+00
  7.72261074E+00 -1.54452215E+01  7.72261074E+00  7.72261074E+00 -1.54452215E+01
  7.72261074E+00  7.72261074E+00 -1.54452215E+01  7.72261074E+00  7.72261074E+00
 -1.54452215E+01  7.72261074E+00  7.72261074E+00 -1.54452215E+01  7.72261074E+00
  7.72261074E+00 -1.54452215E+01  7.72261074E+00  7.72261074E+00 -1.54452215E+01
  7.72261074E+00  7.72261074E+00 -1.54452215E+01  7.72261074E+00  7.72261074E+00
 -1.54452215E+01  7.72261074E+00  7.72261074E+00 -1.54452215E+01  7.72261074E+00
  7.72261074E+00 -1.54452215E+01  7.72261074E+00  7.72261074E+00 -1.54452215E+01
  7.72261074E+00  7.72261074E+00 -1.54452215E+01  7.72261074E+00  7.72261074E+00
 -1.54452215E+01  7.72261074E+00  7.72261074E+00 -1.54452215E+01  7.72261074E+00
  7.72261074E+00 -1.54452215E+01  7.72261074E+00  7.72261074E+00 -1.54452215E+01
  7.72261074E+00  7.72261074E+00 -1.54452215E+01  7.72261074E+00  7.72261074E+00
 -1.54452215E+01  7.72261074E+00  7.72261074E+00 -1.54452215E+01  7.72261074E+00
  7.72261074E+00 -1.54452215E+01  7.72261074E+00  7.72261074E+00 -1.54452215E+01
  7.72261074E+00  7.72261074E+00 -1.54452215E+01  7.72261074E+00  7.72261074E+00
 -1.54452215E+01  7.72261074E+00  7.72261074E+00 -1.54452215E+01  7.72261074E+00
  7.72261074E+00 -1.54452215E+01  7.72261074E+00  7.72261074E+00 -1.54452215E+01
  7.72261074E+00  7.72261074E+00 -1.54452215E+01  7.72261074E+00  7.72261074E+00
 -1.54452215E+01  7.72261074E+00  7.72261074E+00 -1.54452215E+01  7.72261074E+00
  7.72261074E+00 -1.54452215E+01  7.72261074E+00  7.72261074E+00 -1.54452215E+01
  7.72261074E+00  7.72261074E+00 -1.54452215E+01  7.72261074E+00  7.72261074E+00
 -1.54452215E+01  7.72261074E+00  7.72261074E+00 -1.54452215E+01  7.72261074E+00
  7.72261074E+00 -1.54452215E+01  7.72261074E+00  7.72261074E+00 -1.54452215E+01
  7.72261074E+00  7.72261074E+00 -1.54452215E+01  7.72261074E+00  7.72261074E+00
 -1.54452215E+01  7.72261074E+00  7.72261074E+00 -1.54452215E+01  7.72261074E+00
  7.72261074E+00 -1.54452215E+01  7.72261074E+00  7.72261074E+00 -1.54452215E+01
  7.72261074E+00  7.72261074E+00 -1.54452215E+01  7.72261074E+00  7.72261074E+00
 -1.54452215E+01  7.72261074E+00  7.72261074E+00 -1.54452215E+01  7.72261074E+00
  7.72261074E+00 -1.54452215E+01  7.72261074E+00  7.72261074E+00 -1.54452215E+01
  7.72261074E+00  7.72261074E+00 -1.54452215E+01  7.72261074E+00  7.72261074E+00
 -1.54452215E+01  7.72261074E+00  7.72261074E+00 -1.54452215E+01  7.72261074E+00
  7.72261074E+00 -1.54452215E+01  7.72261074E+00  7.72261074E+00 -1.54452215E+01
  7.72261074E+00  7.72261074E+00 -1.54452215E+01  7.72261074E+00  7.72261074E+00
 -1.54452215E+01  7.72261074E+00  7.72261074E+00 -1.54452215E+01  7.72261074E+00
  7.72261074E+00 -1.54452215E+01  7.72261074E+00  7.72261074E+00 -1.54452215E+01
  7.72261074E+00  7.72261074E+00 -1.54452215E+01  7.72261074E+00  7.72261074E+00
 -1.54452215E+01  7.72261074E+00  7.72261074E+00 -1.54452215E+01  7.72261074E+00
  7.72261074E+00 -1.54452215E+01  7.72261074E+00  7.72261074E+00 -1.54452215E+01
  7.72261074E+00  7.72261074E+00 -1.54452215E+01  7.72261074E+00  7.72261074E+00
 -1.54452215E+01  7.72261074E+00  7.72261074E+00 -1.54452215E+01  7.72261074E+00
  7.72261074E+00 -1.54452215E+01  7.72261074E+00  7.72261074E+00 -1.54452215E+01
  7.72261074E+00  7.72261074E+00 -1.54452215E+01  7.72261074E+00  7.72261074E+00
 -1.54452215E+01  7.72261074E+00  7.72261074E+00 -1.54452215E+01  7.72261074E+00
  7.72261074E+00 -1.54452215E+01  7.72261074E+00  7.72261074E+00 -1.54452215E+01
  7.72261074E+00  7.72261074E+00 -1.54452215E+01  7.72261074E+00  7.72261074E+00
 -1.54452215E+01  7.72261074E+00  7.72261074E+00 -1.54452215E+01  7.72261074E+00
  7.72261074E+00 -1.54452215E+01  7.72261074E+00  7.72261074E+00 -1.54452215E+01
  7.72261074E+00  7.72261074E+00 -1.54452215E+01  7.72261074E+00  7.72261074E+00
 -1.54452215E+01  7.72261074E+00  7.72261074E+00 -1.54452215E+01  7.72261074E+00
  7.72261074E+00 -1.54452215E+01  7.72261074E+00  7.72261074E+00 -1.54452215E+01
  7.72261074E+00  7.72261074E+00 -1.54452215E+01  7.72261074E+00  7.72261074E+00
 -1.54452215E+01  7.72261074E+00  7.72261074E+00 -1.54452215E+01  7.72261074E+00
  7.72261074E+00 -1.54452215E+01  7.72261074E+00  7.72261074E+00 -1.54452215E+01
  7.72261074E+00  7.72261074E+00 -1.54452215E+01  7.72261074E+00  7.72261074E+00
 -1.54452215E+01  7.72261074E+00  7.72261074E+00 -1.54452215E+01  7.72261074E+00
  7.72261074E+00 -1.54452215E+01  7.72261074E+00  7.72261074E+00 -1.54452215E+01
  7.72261074E+00  7.72261074E+00 -1.54452215E+01  7.72261074E+00  7.72261074E+00
 -1.54452215E+01  7.72261074E+00  7.72261074E+00 -1.54452215E+01  7.72261074E+00
  7.72261074E+00 -1.54452215E+01  7.72261074E+00  7.72261074E+00 -1.54452215E+01
  7.72261074E+00  7.72261074E+00 -1.54452215E+01  7.72261074E+00  7.72261074E+00
 -1.54452215E+01  7.72261074E+00  7.72261074E+00 -1.54452215E+01  7.72261074E+00
  7.72261074E+00 -1.54452215E+01  7.72261074E+00  7.72261074E+00 -1.54452215E+01
  7.72261074E+00  7.72261074E+00 -1.54452215E+01  7.72261074E+00  7.72261074E+00
 -1.54452215E+01  7.72261074E+00  7.72261074E+00 -1.54452215E+01  7.72261074E+00
  7.72261074E+00 -1.54452215E+01  7.72261074E+00  7.72261074E+00 -1.54452215E+01
  7.72261074E+00  7.72261074E+00 -1.54452215E+01  7.72261074E+00  7.72261074E+00
 -1.54452215E+01  7.72261074E+00  7.72261074E+00 -1.54452215E+01  7.72261074E+00
  7.72261074E+00 -1.54452215E+01  7.72261074E+00  7.72261074E+00 -1.54452215E+01
  7.72261074E+00  7.72261074E+00 -1.54452215E+01  7.72261074E+00  7.72261074E+00
 -1.54452215E+01  7.72261074E+00  7.72261074E+00 -1.54452215E+01  7.72261074E+00
  7.72261074E+00 -1.54452215E+01  7.72261074E+00  7.72261074E+00 -1.54452215E+01
  7.72261074E+00  7.72261074E+00 -1.54452215E+01  7.72261074E+00  7.72261074E+00
 -1.54452215E+01  7.72261074E+00  7.72261074E+00 -1.54452215E+01  7.72261074E+00
  7.72261074E+00 -1.54452215E+01  7.72261074E+00  7.72261074E+00 -1.54452215E+01
  7.72261074E+00  7.72261074E+00 -1.54452215E+01  7.72261074E+00  7.72261074E+00
 -1.54452215E+01  7.72261074E+00  7.72261074E+00 -1.54452215E+01  7.72261074E+00
  7.72261074E+00 -1.54452215E+01  7.72261074E+00  7.72261074E+00 -1.54452215E+01
  7.72261074E+00  7.72261074E+00 -1.54452215E+01  7.72261074E+00  7.72261074E+00
 -1.54452215E+01  7.72261074E+00  7.72261074E+00 -1.54452215E+01  7.72261074E+00
  7.72261074E+00 -1.54452215E+01  7.72261074E+00  7.72261074E+00 -1.54452215E+01
  7.72261074E+00  7.72261074E+00 -1.54452215E+01  7.72261074E+00  7.72261074E+00
 -1.54452215E+01  7.72261074E+00  7.72261074E+00 -1.54452215E+01  7.72261074E+00
  7.72261074E+00 -1.54452215E+01  7.72261074E+00  7.72261074E+00 -1.54452215E+01
  7.72261074E+00  7.72261074E+00 -1.54452215E+01  7.72261074E+00  7.72261074E+00
 -1.54452215E+01  7.72261074E+00  7.72261074E+00 -1.54452215E+01  7.72261074E+00
  7.72261074E+00 -1.54452215E+01  7.72261074E+00  7.72261074E+00 -1.54452215E+01
  7.72261074E+00  7.72261074E+00 -1.54452215E+01  7.72261074E+00  7.72261074E+00
 -1.54452215E+01  7.72261074E+00  7.72261074E+00 -1.54452215E+01  7.72261074E+00
  7.72261074E+00 -1.54452215E+01  7.72261074E+00  7.72261074E+00 -1.54452215E+01
  7.72261074E+00  7.72261074E+00 -1.54452215E+01  7.72261074E+00  7.72261074E+00
 -1.54452215E+01  7.72261074E+00  7.72261074E+00 -1.54452215E+01  7.72261074E+00
  7.72261074E+00 -1.54452215E+01  7.72261074E+00  7.72261074E+00 -1.54452215E+01
  7.72261074E+00  7.72261074E+00 -1.54452215E+01  7.72261074E+00  7.72261074E+00
 -1.54452215E+01  7.72261074E+00  7.72261074E+00 -1.54452215E+01  7.72261074E+00
  7.72261074E+00 -1.54452215E+01  7.72261074E+00  7.72261074E+00 -1.54452215E+01
  7.72261074E+00  7.72261074E+00 -1.54452215E+01  7.72261074E+00  7.72261074E+00
 -1.54452215E+01  7.72261074E+00  7.72261074E+00 -1.54452215E+01  7.72261074E+00
  7.72261074E+00 -1.54452215E+01  7.72261074E+00  7.72261074E+00 -1.54452215E+01
  7.72261074E+00  7.72261074E+00 -1.54452215E+01  7.72261074E+00  7.72261074E+00
 -1.54452215E+01  7.72261074E+00  7.72261074E+00 -1.54452215E+01  7.72261074E+00
  7.72261074E+00 -1.54452215E+01  7.72261074E+00  7.72261074E+00 -1.54452215E+01
  7.72261074E+00  7.72261074E+00 -1.54452215E+01  7.72261074E+00  7.72261074E+00
 -1.54452215E+01  7.72261074E+00  7.72261074E+00 -1.54452215E+01  7.72261074E+00
  7.72261074E+00 -1.54452215E+01  7.72261074E+00  7.72261074E+00 -1.54452215E+01
  7.72261074E+00  7.72261074E+00 -1.54452215E+01  7.72261074E+00  7.72261074E+00
 -1.54452215E+01  7.72261074E+00  7.72261074E+00 -1.54452215E+01  7.72261074E+00
  7.72261074E+00 -1.54452215E+01  7.72261074E+00  7.72261074E+00 -1.54452215E+01
  7.72261074E+00  7.72261074E+00 -1.54452215E+01  7.72261074E+00  7.72261074E+00
 -1.54452215E+01  7.72261074E+00  7.72261074E+00 -1.54452215E+01  7.72261074E+00
  7.72261074E+00 -1.54452215E+01  7.72261074E+00  7.72261074E+00 -1.54452215E+01
  7.72261074E+00  7.72261074E+00 -1.54452215E+01  7.72261074E+00  7.72261074E+00
 -1.54452215E+01  7.72261074E+00  7.72261074E+00 -1.54452215E+01  7.72261074E+00
  7.72261074E+00 -1.54452215E+01  7.72261074E+00  7.72261074E+00 -1.54452215E+01
  7.72261074E+00  7.72261074E+00 -1.54452215E+01  7.72261074E+00  7.72261074E+00
 -1.54452215E+01  7.72261074E+00  7.72261074E+00 -1.54452215E+01  7.72261074E+00
  7.72261074E+00 -1.54452215E+01  7.72261074E+00  7.72261074E+00 -1.54452215E+01
  7.72261074E+00  7.72261074E+00 -1.54452215E+01  7.72261074E+00  7.72261074E+00
 -1.54452215E+01  7.72261074E+00  7.72261074E+00 -1.54452215E+01  7.72261074E+00
  7.72261074E+00 -1.54452215E+01  7.72261074E+00  7.72261074E+00 -1.54452215E+01
  7.72261074E+00  7.72261074E+00 -1.54452215E+01  7.72261074E+00  7.72261074E+00
 -1.54452215E+01  7.72261074E+00  7.72261074E+00 -1.54452215E+01  7.72261074E+00
  7.72261074E+00 -1.54452215E+01  7.72261074E+00  7.72261074E+00 -1.54452215E+01
  7.72261074E+00  7.72261074E+00 -1.54452215E+01  7.72261074E+00  7.72261074E+00
 -1.54452215E+01  7.72261074E+00  7.72261074E+00 -1.54452215E+01  7.72261074E+00
  7.72261074E+00 -1.54452215E+01  7.72261074E+00  7.72261074E+00 -1.54452215E+01
  7.72261074E+00  7.72261074E+00 -1.54452215E+01  7.72261074E+00  7.72261074E+00
 -1.54452215E+01  7.72261074E+00  7.72261074E+00 -1.54452215E+01  7.72261074E+00
  7.72261074E+00 -1.54452215E+01  7.72261074E+00  7.72261074E+00 -1.54452215E+01
  7.72261074E+00  7.72261074E+00 -1.54452215E+01  7.72261074E+00  7.72261074E+00
 -1.54452215E+01  7.72261074E+00  7.72261074E+00 -1.54452215E+01  7.72261074E+00
  7.72261074E+00 -1.54452215E+01  7.72261074E+00  7.72261074E+00 -1.54452215E+01
  7.72261074E+00  7.72261074E+00 -1.54452215E+01  7.72261074E+00  7.72261074E+00
 -1.54452215E+01  7.72261074E+00  7.72261074E+00 -1.54452215E+01  7.72261074E+00
  7.72261074E+00 -1.54452215E+01  7.72261074E+00  7.72261074E+00 -1.54452215E+01
  7.72261074E+00  7.72261074E+00 -1.54452215E+01  7.72261074E+00  7.72261074E+00
 -1.54452215E+01  7.72261074E+00  7.72261074E+00 -1.54452215E+01  7.72261074E+00
  7.72261074E+00 -1.54452215E+01  7.72261074E+00  7.72261074E+00 -1.54452215E+01
  7.72261074E+00  7.72261074E+00 -1.54452215E+01  7.72261074E+00  7.72261074E+00
 -1.54452215E+01  7.72261074E+00  7.72261074E+00 -1.54452215E+01  7.72261074E+00
  7.72261074E+00 -1.54452215E+01  7.72261074E+00  7.72261074E+00 -1.54452215E+01
  7.72261074E+00  7.72261074E+00 -1.54452215E+01  7.72261074E+00  7.72261074E+00
 -1.54452215E+01  7.72261074E+00  7.72261074E+00 -1.54452215E+01  7.72261074E+00
  7.72261074E+00 -1.54452215E+01  7.72261074E+00  7.72261074E+00 -1.54452215E+01
  7.72261074E+00  7.72261074E+00 -1.54452215E+01  7.72261074E+00  7.72261074E+00
 -1.54452215E+01  7.72261074E+00  7.72261074E+00 -1.54452215E+01  7.72261074E+00
  7.72261074E+00 -1.54452215E+01  7.72261074E+00  7.72261074E+00 -1.54452215E+01
  7.72261074E+00  7.72261074E+00 -1.54452215E+01  7.72261074E+00  7.72261074E+00
 -1.54452215E+01  7.72261074E+00  7.72261074E+00 -1.54452215E+01  7.72261074E+00
  7.72261074E+00 -1.54452215E+01  7.72261074E+00  7.72261074E+00 -1.54452215E+01
  7.72261074E+00  7.72261074E+00 -1.54452215E+01  7.72261074E+00  7.72261074E+00
 -1.54452215E+01  7.72261074E+00  7.72261074E+00 -1.54452215E+01  7.72261074E+00
  7.72261074E+00 -1.54452215E+01  7.72261074E+00  7.72261074E+00 -1.54452215E+01
  7.72261074E+00  7.72261074E+00 -1.54452215E+01  7.72261074E+00  7.72261074E+00
 -1.54452215E+01  7.72261074E+00  7.72261074E+00 -1.54452215E+01  7.72261074E+00
  7.72261074E+00 -1.54452215E+01  7.72261074E+00  7.72261074E+00 -1.54452215E+01
  7.72261074E+00  7.72261074E+00 -1.54452215E+01  7.72261074E+00  7.72261074E+00
 -1.54452215E+01  7.72261074E+00  7.72261074E+00 -1.54452215E+01  7.72261074E+00
  7.72261074E+00 -1.54452215E+01  7.72261074E+00  7.72261074E+00 -1.54452215E+01
  7.72261074E+00  7.72261074E+00 -1.54452215E+01  7.72261074E+00  7.72261074E+00
 -1.54452215E+01  7.72261074E+00  7.72261074E+00 -1.54452215E+01  7.72261074E+00
  7.72261074E+00 -1.54452215E+01  7.72261074E+00  7.72261074E+00 -1.54452215E+01
  7.72261074E+00  7.72261074E+00 -1.54452215E+01  7.72261074E+00  7.72261074E+00
 -1.54452215E+01  7.72261074E+00  7.72261074E+00 -1.54452215E+01  7.72261074E+00
  7.72261074E+00 -1.54452215E+01  7.72261074E+00  7.72261074E+00 -1.54452215E+01
  7.72261074E+00  7.72261074E+00 -1.54452215E+01  7.72261074E+00  7.72261074E+00
 -1.54452215E+01  7.72261074E+00  7.72261074E+00 -1.54452215E+01  7.72261074E+00
  7.72261074E+00 -1.54452215E+01  7.72261074E+00  7.72261074E+00 -1.54452215E+01
  7.72261074E+00  7.72261074E+00 -1.54452215E+01  7.72261074E+00  7.72261074E+00
 -1.54452215E+01  7.72261074E+00  7.72261074E+00 -1.54452215E+01  7.72261074E+00
  7.72261074E+00 -1.54452215E+01  7.72261074E+00  7.72261074E+00 -1.54452215E+01
  7.72261074E+00  7.72261074E+00 -1.54452215E+01  7.72261074E+00  7.72261074E+00
 -1.54452215E+01  7.72261074E+00  7.72261074E+00 -1.54452215E+01  7.72261074E+00
  7.72261074E+00 -1.54452215E+01  7.72261074E+00  7.72261074E+00 -1.54452215E+01
  7.72261074E+00  7.72261074E+00 -1.54452215E+01  7.72261074E+00  7.72261074E+00
 -1.54452215E+01  7.72261074E+00  7.72261074E+00 -1.54452215E+01  7.72261074E+00
  7.72261074E+00 -1.54452215E+01  7.72261074E+00  7.72261074E+00 -1.54452215E+01
  7.72261074E+00  7.72261074E+00 -1.54452215E+01  7.72261074E+00  7.72261074E+00
 -1.54452215E+01  7.72261074E+00  7.72261074E+00 -1.54452215E+01  7.72261074E+00
  7.72261074E+00 -1.54452215E+01  7.72261074E+00  7.72261074E+00 -1.54452215E+01
  7.72261074E+00  7.72261074E+00 -1.54452215E+01  7.72261074E+00  7.72261074E+00
 -1.54452215E+01  7.72261074E+00  7.72261074E+00 -1.54452215E+01  7.72261074E+00
  7.72261074E+00 -1.54452215E+01  7.72261074E+00  7.72261074E+00 -1.54452215E+01
  7.72261074E+00  7.72261074E+00 -1.54452215E+01  7.72261074E+00  7.72261074E+00
 -1.54452215E+01  7.72261074E+00  7.72261074E+00 -1.54452215E+01  7.72261074E+00
  7.72261074E+00 -1.54452215E+01  7.72261074E+00  7.72261074E+00 -1.54452215E+01
  7.72261074E+00  7.72261074E+00 -1.54452215E+01  7.72261074E+00  7.72261074E+00
 -1.54452215E+01  7.72261074E+00  7.72261074E+00 -1.54452215E+01  7.72261074E+00
  7.72261074E+00 -1.54452215E+01  7.72261074E+00  7.72261074E+00 -1.54452215E+01
  7.72261074E+00  7.72261074E+00 -1.54452215E+01  7.72261074E+00  7.72261074E+00
 -1.54452215E+01  7.72261074E+00  7.72261074E+00 -1.54452215E+01  7.72261074E+00
  7.72261074E+00 -1.54452215E+01  7.72261074E+00  7.72261074E+00 -1.54452215E+01
  7.72261074E+00  7.72261074E+00 -1.54452215E+01  7.72261074E+00  7.72261074E+00
 -1.54452215E+01  7.72261074E+00  7.72261074E+00 -1.54452215E+01  7.72261074E+00
  7.72261074E+00 -1.54452215E+01  7.72261074E+00  7.72261074E+00 -1.54452215E+01
  7.72261074E+00  7.72261074E+00 -1.54452215E+01  7.72261074E+00  7.72261074E+00
 -1.54452215E+01  7.72261074E+00  7.72261074E+00 -1.54452215E+01  7.72261074E+00
  7.72261074E+00 -1.54452215E+01  7.72261074E+00  7.72261074E+00 -1.54452215E+01
  7.72261074E+00  7.72261074E+00 -1.54452215E+01  7.72261074E+00  7.72261074E+00
 -1.54452215E+01  7.72261074E+00  7.72261074E+00 -1.54452215E+01  7.72261074E+00
  7.72261074E+00 -1.54452215E+01  7.72261074E+00  7.72261074E+00 -1.54452215E+01
  7.72261074E+00  7.72261074E+00 -1.54452215E+01  7.72261074E+00  7.72261074E+00
 -1.54452215E+01  7.72261074E+00  7.72261074E+00 -1.54452215E+01  7.72261074E+00
  7.72261074E+00 -1.54452215E+01  7.72261074E+00  7.72261074E+00 -1.54452215E+01
  7.72261074E+00  7.72261074E+00 -1.54452215E+01  7.72261074E+00  7.72261074E+00
 -1.54452215E+01  7.72261074E+00  7.72261074E+00 -1.54452215E+01  7.72261074E+00
  7.72261074E+00 -1.54452215E+01  7.72261074E+00  7.72261074E+00 -1.54452215E+01
  7.72261074E+00  7.72261074E+00 -1.54452215E+01  7.72261074E+00  7.72261074E+00
 -1.54452215E+01  7.72261074E+00  7.72261074E+00 -1.54452215E+01  7.72261074E+00
  7.72261074E+00 -1.54452215E+01  7.72261074E+00  7.72261074E+00 -1.54452215E+01
  7.72261074E+00  7.72261074E+00 -1.54452215E+01  7.72261074E+00  7.72261074E+00
 -1.54452215E+01  7.72261074E+00  7.72261074E+00 -1.54452215E+01  7.72261074E+00
  7.72261074E+00 -1.54452215E+01  7.72261074E+00  7.72261074E+00 -1.54452215E+01
  7.72261074E+00  7.72261074E+00 -1.54452215E+01  7.72261074E+00  7.72261074E+00
 -1.54452215E+01  7.72261074E+00  7.72261074E+00 -1.54452215E+01  7.72261074E+00
  7.72261074E+00 -1.54452215E+01  7.72261074E+00  7.72261074E+00 -1.54452215E+01
  7.72261074E+00  7.72261074E+00 -1.54452215E+01  7.72261074E+00  7.72261074E+00
 -1.54452215E+01  7.72261074E+00  7.72261074E+00 -1.54452215E+01  7.72261074E+00
  7.72261074E+00 -1.54452215E+01  7.72261074E+00  7.72261074E+00 -1.54452215E+01
  7.72261074E+00  7.72261074E+00 -1.54452215E+01  7.72261074E+00  7.72261074E+00
 -1.54452215E+01  7.72261074E+00  7.72261074E+00 -1.54452215E+01  7.72261074E+00
  7.72261074E+00 -1.54452215E+01  7.72261074E+00  7.72261074E+00 -1.54452215E+01
  7.72261074E+00  7.72261074E+00 -1.54452215E+01  7.72261074E+00  7.72261074E+00
 -1.54452215E+01  7.72261074E+00  7.72261074E+00 -1.54452215E+01  7.72261074E+00
  7.72261074E+00 -1.54452215E+01  7.72261074E+00  7.72261074E+00 -1.54452215E+01
  7.72261074E+00  7.72261074E+00 -1.54452215E+01  7.72261074E+00  7.72261074E+00
 -1.54452215E+01  7.72261074E+00  7.72261074E+00 -1.54452215E+01  7.72261074E+00
  7.72261074E+00 -1.54452215E+01  7.72261074E+00  7.72261074E+00 -1.54452215E+01
  7.72261074E+00  7.72261074E+00 -1.54452215E+01  7.72261074E+00  7.72261074E+00
 -1.54452215E+01  7.72261074E+00  7.72261074E+00 -1.54452215E+01  7.72261074E+00
  7.72261074E+00 -1.54452215E+01  7.72261074E+00  7.72261074E+00 -1.54452215E+01
  7.72261074E+00  7.72261074E+00 -1.54452215E+01  7.72261074E+00  7.72261074E+00
 -1.54452215E+01  7.72261074E+00  7.72261074E+00 -1.54452215E+01  7.72261074E+00
  7.72261074E+00 -1.54452215E+01  7.72261074E+00  7.72261074E+00 -1.54452215E+01
  7.72261074E+00  7.72261074E+00 -1.54452215E+01  7.72261074E+00  7.72261074E+00
 -1.54452215E+01  7.72261074E+00  7.72261074E+00 -1.54452215E+01  7.72261074E+00
  7.72261074E+00 -1.54452215E+01  7.72261074E+00  7.72261074E+00 -1.54452215E+01
  7.72261074E+00  7.72261074E+00 -1.54452215E+01  7.72261074E+00  7.72261074E+00
 -1.54452215E+01  7.72261074E+00  7.72261074E+00 -1.54452215E+01  7.72261074E+00
  7.72261074E+00 -1.54452215E+01  7.72261074E+00  7.72261074E+00 -1.54452215E+01
  7.72261074E+00  7.72261074E+00 -1.54452215E+01  7.72261074E+00  7.72261074E+00
 -1.54452215E+01  7.72261074E+00  7.72261074E+00 -1.54452215E+01  7.72261074E+00
  7.72261074E+00 -1.54452215E+01  7.72261074E+00  7.72261074E+00 -1.54452215E+01
  7.72261074E+00  7.72261074E+00 -1.54452215E+01  7.72261074E+00  7.72261074E+00
 -1.54452215E+01  7.72261074E+00  7.72261074E+00 -1.54452215E+01  7.72261074E+00
  7.72261074E+00 -1.54452215E+01  7.72261074E+00  7.72261074E+00 -1.54452215E+01
  7.72261074E+00  7.72261074E+00 -1.54452215E+01  7.72261074E+00  7.72261074E+00
 -1.54452215E+01  7.72261074E+00  7.72261074E+00 -1.54452215E+01  7.72261074E+00
  7.72261074E+00 -1.54452215E+01  7.72261074E+00  7.72261074E+00 -1.54452215E+01
  7.72261074E+00  7.72261074E+00 -1.54452215E+01  7.72261074E+00  7.72261074E+00
 -1.54452215E+01  7.72261074E+00  7.72261074E+00 -1.54452215E+01  7.72261074E+00
  7.72261074E+00 -1.54452215E+01  7.72261074E+00  7.72261074E+00 -1.54452215E+01
  7.72261074E+00  7.72261074E+00 -1.54452215E+01  7.72261074E+00  7.72261074E+00
 -1.54452215E+01  7.72261074E+00  7.72261074E+00 -1.54452215E+01  7.72261074E+00
  7.72261074E+00 -1.54452215E+01  7.72261074E+00  7.72261074E+00 -1.54452215E+01
  7.72261074E+00  7.72261074E+00 -1.54452215E+01  7.72261074E+00  7.72261074E+00
 -1.54452215E+01  7.72261074E+00  7.72261074E+00 -1.54452215E+01  7.72261074E+00
  7.72261074E+00 -1.54452215E+01  7.72261074E+00  7.72261074E+00 -1.54452215E+01
  7.72261074E+00  7.72261074E+00 -1.54452215E+01  7.72261074E+00  7.72261074E+00
 -1.54452215E+01  7.72261074E+00  7.72261074E+00 -1.54452215E+01  7.72261074E+00
  7.72261074E+00 -1.54452215E+01  7.72261074E+00  7.72261074E+00 -1.54452215E+01
  7.72261074E+00  7.72261074E+00 -1.54452215E+01  7.72261074E+00  7.72261074E+00
 -1.54452215E+01  7.72261074E+00  7.72261074E+00 -1.54452215E+01  7.72261074E+00
  7.72261074E+00 -1.54452215E+01  7.72261074E+00  7.72261074E+00 -1.54452215E+01
  7.72261074E+00  7.72261074E+00 -1.54452215E+01  7.72261074E+00  7.72261074E+00
 -1.54452215E+01  7.72261074E+00  7.72261074E+00 -1.54452215E+01  7.72261074E+00
  7.72261074E+00 -1.54452215E+01  7.72261074E+00  7.72261074E+00 -1.54452215E+01
  7.72261074E+00  7.72261074E+00 -1.54452215E+01  7.72261074E+00  7.72261074E+00
 -1.54452215E+01  7.72261074E+00  7.72261074E+00 -1.54452215E+01  7.72261074E+00
  7.72261074E+00 -1.54452215E+01  7.72261074E+00  7.72261074E+00 -1.54452215E+01
  7.72261074E+00  7.72261074E+00 -1.54452215E+01  7.72261074E+00  7.72261074E+00
 -1.54452215E+01  7.72261074E+00  7.72261074E+00 -1.54452215E+01  7.72261074E+00
  7.72261074E+00 -1.54452215E+01  7.72261074E+00  7.72261074E+00 -1.54452215E+01
  7.72261074E+00  7.72261074E+00 -1.54452215E+01  7.72261074E+00  7.72261074E+00
 -1.54452215E+01  7.72261074E+00  7.72261074E+00 -1.54452215E+01  7.72261074E+00
  7.72261074E+00 -1.54452215E+01  7.72261074E+00  7.72261074E+00 -1.54452215E+01
  7.72261074E+00  7.72261074E+00 -1.54452215E+01  7.72261074E+00  7.72261074E+00
 -1.54452215E+01  7.72261074E+00  7.72261074E+00 -1.54452215E+01  7.72261074E+00
  7.72261074E+00 -1.54452215E+01  7.72261074E+00  7.72261074E+00 -1.54452215E+01
  7.72261074E+00  7.72261074E+00 -1.54452215E+01  7.72261074E+00  7.72261074E+00
 -1.54452215E+01  7.72261074E+00  7.72261074E+00 -1.54452215E+01  7.72261074E+00
  7.72261074E+00 -1.54452215E+01  7.72261074E+00  7.72261074E+00 -1.54452215E+01
  7.72261074E+00  7.72261074E+00 -1.54452215E+01  7.72261074E+00  7.72261074E+00
 -1.54452215E+01  7.72261074E+00  7.72261074E+00 -1.54452215E+01  7.72261074E+00
  7.72261074E+00 -1.54452215E+01  7.72261074E+00  7.72261074E+00 -1.54452215E+01
  7.72261074E+00  7.72261074E+00 -1.54452215E+01  7.72261074E+00  7.72261074E+00
 -1.54452215E+01  7.72261074E+00  7.72261074E+00 -1.54452215E+01  7.72261074E+00
  7.72261074E+00 -1.54452215E+01  7.72261074E+00  7.72261074E+00 -1.54452215E+01
  7.72261074E+00  7.72261074E+00 -1.54452215E+01  7.72261074E+00  7.72261074E+00
 -1.54452215E+01  7.72261074E+00  7.72261074E+00 -1.54452215E+01  7.72261074E+00
  7.72261074E+00 -1.54452215E+01  7.72261074E+00  7.72261074E+00 -1.54452215E+01
  7.72261074E+00  7.72261074E+00 -1.54452215E+01  7.72261074E+00  7.72261074E+00
 -1.54452215E+01  7.72261074E+00  7.72261074E+00 -1.54452215E+01  7.72261074E+00
  7.72261074E+00 -1.54452215E+01  7.72261074E+00  7.72261074E+00 -1.54452215E+01
  7.72261074E+00  7.72261074E+00 -1.54452215E+01  7.72261074E+00  7.72261074E+00
 -1.54452215E+01  7.72261074E+00  7.72261074E+00 -1.54452215E+01  7.72261074E+00
  7.72261074E+00 -1.54452215E+01  7.72261074E+00  7.72261074E+00 -1.54452215E+01
  7.72261074E+00  7.72261074E+00 -1.54452215E+01  7.72261074E+00  7.72261074E+00
 -1.54452215E+01  7.72261074E+00  7.72261074E+00 -1.54452215E+01  7.72261074E+00
  7.72261074E+00 -1.54452215E+01  7.72261074E+00  7.72261074E+00 -1.54452215E+01
  7.72261074E+00  7.72261074E+00 -1.54452215E+01  7.72261074E+00  7.72261074E+00
 -1.54452215E+01  7.72261074E+00  7.72261074E+00 -1.54452215E+01  7.72261074E+00
  7.72261074E+00 -1.54452215E+01  7.72261074E+00  7.72261074E+00 -1.54452215E+01
  7.72261074E+00  7.72261074E+00 -1.54452215E+01  7.72261074E+00  7.72261074E+00
 -1.54452215E+01  7.72261074E+00  7.72261074E+00 -1.54452215E+01  7.72261074E+00
  7.72261074E+00 -1.54452215E+01  7.72261074E+00  7.72261074E+00 -1.54452215E+01
  7.72261074E+00  7.72261074E+00 -1.54452215E+01  7.72261074E+00  7.72261074E+00
 -1.54452215E+01  7.72261074E+00  7.72261074E+00 -1.54452215E+01  7.72261074E+00
  7.72261074E+00 -1.54452215E+01  7.72261074E+00  7.72261074E+00 -1.54452215E+01
  7.72261074E+00  7.72261074E+00 -1.54452215E+01  7.72261074E+00  7.72261074E+00
 -1.54452215E+01  7.72261074E+00  7.72261074E+00 -1.54452215E+01  7.72261074E+00
  7.72261074E+00 -1.54452215E+01  7.72261074E+00  7.72261074E+00 -1.54452215E+01
  7.72261074E+00  7.72261074E+00 -1.54452215E+01  7.72261074E+00  7.72261074E+00
 -1.54452215E+01  7.72261074E+00  7.72261074E+00 -1.54452215E+01  7.72261074E+00
  7.72261074E+00 -1.54452215E+01  7.72261074E+00  7.72261074E+00 -1.54452215E+01
  7.72261074E+00  7.72261074E+00 -1.54452215E+01  7.72261074E+00  7.72261074E+00
 -1.54452215E+01  7.72261074E+00  7.72261074E+00 -1.54452215E+01  7.72261074E+00
  7.72261074E+00 -1.54452215E+01  7.72261074E+00  7.72261074E+00 -1.54452215E+01
  7.72261074E+00  7.72261074E+00 -1.54452215E+01  7.72261074E+00  7.72261074E+00
 -1.54452215E+01  7.72261074E+00  7.72261074E+00 -1.54452215E+01  7.72261074E+00
  7.72261074E+00 -1.54452215E+01  7.72261074E+00  7.72261074E+00 -1.54452215E+01
  7.72261074E+00  7.72261074E+00 -1.54452215E+01  7.72261074E+00  7.72261074E+00
 -1.54452215E+01  7.72261074E+00  7.72261074E+00 -1.54452215E+01  7.72261074E+00
  7.72261074E+00 -1.54452215E+01  7.72261074E+00  7.72261074E+00 -1.54452215E+01
  7.72261074E+00  7.72261074E+00 -1.54452215E+01  7.72261074E+00  7.72261074E+00
 -1.54452215E+01  7.72261074E+00  7.72261074E+00 -1.54452215E+01  7.72261074E+00
  7.72261074E+00 -1.54452215E+01  7.72261074E+00  7.72261074E+00 -1.54452215E+01
  7.72261074E+00  7.72261074E+00 -1.54452215E+01  7.72261074E+00  7.72261074E+00
 -1.54452215E+01  7.72261074E+00  7.72261074E+00 -1.54452215E+01  7.72261074E+00
  7.72261074E+00 -1.54452215E+01  7.72261074E+00  7.72261074E+00 -1.54452215E+01
  7.72261074E+00  7.72261074E+00 -1.54452215E+01  7.72261074E+00  7.72261074E+00
 -1.54452215E+01  7.72261074E+00  7.72261074E+00 -1.54452215E+01  7.72261074E+00
  7.72261074E+00 -1.54452215E+01  7.72261074E+00  7.72261074E+00 -1.54452215E+01
  7.72261074E+00  7.72261074E+00 -1.54452215E+01  7.72261074E+00  7.72261074E+00
 -1.54452215E+01  7.72261074E+00  7.72261074E+00 -1.54452215E+01  7.72261074E+00
  7.72261074E+00 -1.54452215E+01  7.72261074E+00  7.72261074E+00 -1.54452215E+01
  7.72261074E+00  7.72261074E+00 -1.54452215E+01  7.72261074E+00  7.72261074E+00
 -1.54452215E+01  7.72261074E+00  7.72261074E+00 -1.54452215E+01  7.72261074E+00
  7.72261074E+00 -1.54452215E+01  7.72261074E+00  7.72261074E+00 -1.54452215E+01
  7.72261074E+00  7.72261074E+00 -1.54452215E+01  7.72261074E+00  7.72261074E+00
 -1.54452215E+01  7.72261074E+00  7.72261074E+00 -1.54452215E+01  7.72261074E+00
  7.72261074E+00 -1.54452215E+01  7.72261074E+00  7.72261074E+00 -1.54452215E+01
  7.72261074E+00  7.72261074E+00 -1.54452215E+01  7.72261074E+00  7.72261074E+00
 -1.54452215E+01  7.72261074E+00  7.72261074E+00 -1.54452215E+01  7.72261074E+00
  7.72261074E+00 -1.54452215E+01  7.72261074E+00  7.72261074E+00 -1.54452215E+01
  7.72261074E+00  7.72261074E+00 -1.54452215E+01  7.72261074E+00  7.72261074E+00
 -1.54452215E+01  7.72261074E+00  7.72261074E+00 -1.54452215E+01  7.72261074E+00
  7.72261074E+00 -1.54452215E+01  7.72261074E+00  7.72261074E+00 -1.54452215E+01
  7.72261074E+00  7.72261074E+00 -1.54452215E+01  7.72261074E+00  7.72261074E+00
 -1.54452215E+01  7.72261074E+00  7.72261074E+00 -1.54452215E+01  7.72261074E+00
  7.72261074E+00 -1.54452215E+01  7.72261074E+00  7.72261074E+00 -1.54452215E+01
  7.72261074E+00  7.72261074E+00 -1.54452215E+01  7.72261074E+00  7.72261074E+00
 -1.54452215E+01  7.72261074E+00  7.72261074E+00 -1.54452215E+01  7.72261074E+00
  7.72261074E+00 -1.54452215E+01  7.72261074E+00  7.72261074E+00 -1.54452215E+01
  7.72261074E+00  7.72261074E+00 -1.54452215E+01  7.72261074E+00  7.72261074E+00
 -1.54452215E+01  7.72261074E+00  7.72261074E+00 -1.54452215E+01  7.72261074E+00
  7.72261074E+00 -1.54452215E+01  7.72261074E+00  7.72261074E+00 -1.54452215E+01
  7.72261074E+00  7.72261074E+00 -1.54452215E+01  7.72261074E+00  7.72261074E+00
 -1.54452215E+01  7.72261074E+00  7.72261074E+00 -1.54452215E+01  7.72261074E+00
  7.72261074E+00 -1.54452215E+01  7.72261074E+00  7.72261074E+00 -1.54452215E+01
  7.72261074E+00  7.72261074E+00 -1.54452215E+01  7.72261074E+00  7.72261074E+00
 -1.54452215E+01  7.72261074E+00  7.72261074E+00 -1.54452215E+01  7.72261074E+00
  7.72261074E+00 -1.54452215E+01  7.72261074E+00  7.72261074E+00 -1.54452215E+01
  7.72261074E+00  7.72261074E+00 -1.54452215E+01  7.72261074E+00  7.72261074E+00
 -1.54452215E+01  7.72261074E+00  7.72261074E+00 -1.54452215E+01  7.72261074E+00
  7.72261074E+00 -1.54452215E+01  7.72261074E+00  7.72261074E+00 -1.54452215E+01
  7.72261074E+00  7.72261074E+00 -1.54452215E+01  7.72261074E+00  7.72261074E+00
 -1.54452215E+01  7.72261074E+00  7.72261074E+00 -1.54452215E+01  7.72261074E+00
  7.72261074E+00 -1.54452215E+01  7.72261074E+00  7.72261074E+00 -1.54452215E+01
  7.72261074E+00  7.72261074E+00 -1.54452215E+01  7.72261074E+00  7.72261074E+00
 -1.54452215E+01  7.72261074E+00  7.72261074E+00 -1.54452215E+01  7.72261074E+00
  7.72261074E+00 -1.54452215E+01  7.72261074E+00  7.72261074E+00 -1.54452215E+01
  7.72261074E+00  7.72261074E+00 -1.54452215E+01  7.72261074E+00  7.72261074E+00
 -1.54452215E+01  7.72261074E+00  7.72261074E+00 -1.54452215E+01  7.72261074E+00
  7.72261074E+00 -1.54452215E+01  7.72261074E+00  7.72261074E+00 -1.54452215E+01
  7.72261074E+00  7.72261074E+00 -1.54452215E+01  7.72261074E+00  7.72261074E+00
 -1.54452215E+01  7.72261074E+00  7.72261074E+00 -1.54452215E+01  7.72261074E+00
  7.72261074E+00 -1.54452215E+01  7.72261074E+00  7.72261074E+00 -1.54452215E+01
  7.72261074E+00  7.72261074E+00 -1.54452215E+01  7.72261074E+00  7.72261074E+00
 -1.54452215E+01  7.72261074E+00  7.72261074E+00 -1.54452215E+01  7.72261074E+00
  7.72261074E+00 -1.54452215E+01  7.72261074E+00  7.72261074E+00 -1.54452215E+01
  7.72261074E+00  7.72261074E+00 -1.54452215E+01  7.72261074E+00  7.72261074E+00
 -1.54452215E+01  7.72261074E+00  7.72261074E+00 -1.54452215E+01  7.72261074E+00
  7.72261074E+00 -1.54452215E+01  7.72261074E+00  7.72261074E+00 -1.54452215E+01
  7.72261074E+00  7.72261074E+00 -1.54452215E+01  7.72261074E+00  7.72261074E+00
 -1.54452215E+01  7.72261074E+00  7.72261074E+00 -1.54452215E+01  7.72261074E+00
  7.72261074E+00 -1.54452215E+01  7.72261074E+00  7.72261074E+00 -1.54452215E+01
  7.72261074E+00  7.72261074E+00 -1.54452215E+01  7.72261074E+00  7.72261074E+00
 -1.54452215E+01  7.72261074E+00  7.72261074E+00 -1.54452215E+01  7.72261074E+00
  7.72261074E+00 -1.54452215E+01  7.72261074E+00  7.72261074E+00 -1.54452215E+01
  7.72261074E+00  7.72261074E+00 -1.54452215E+01  7.72261074E+00  7.72261074E+00
 -1.54452215E+01  7.72261074E+00  7.72261074E+00 -1.54452215E+01  7.72261074E+00
  7.72261074E+00 -1.54452215E+01  7.72261074E+00  7.72261074E+00 -1.54452215E+01
  7.72261074E+00  7.72261074E+00 -1.54452215E+01  7.72261074E+00  7.72261074E+00
 -1.54452215E+01  7.72261074E+00  7.72261074E+00 -1.54452215E+01  7.72261074E+00
  7.72261074E+00 -1.54452215E+01  7.72261074E+00  7.72261074E+00 -1.54452215E+01
  7.72261074E+00  7.72261074E+00 -1.54452215E+01  7.72261074E+00  7.72261074E+00
 -1.54452215E+01  7.72261074E+00  7.72261074E+00 -1.54452215E+01  7.72261074E+00
  7.72261074E+00 -1.54452215E+01  7.72261074E+00  7.72261074E+00 -1.54452215E+01
  7.72261074E+00  7.72261074E+00 -1.54452215E+01  7.72261074E+00  7.72261074E+00
 -1.54452215E+01  7.72261074E+00  7.72261074E+00 -1.54452215E+01  7.72261074E+00
  7.72261074E+00 -1.54452215E+01  7.72261074E+00  7.72261074E+00 -1.54452215E+01
  7.72261074E+00  7.72261074E+00 -1.54452215E+01  7.72261074E+00  7.72261074E+00
 -1.54452215E+01  7.72261074E+00  7.72261074E+00 -1.54452215E+01  7.72261074E+00
  7.72261074E+00 -1.54452215E+01  7.72261074E+00  7.72261074E+00 -1.54452215E+01
  7.72261074E+00  7.72261074E+00 -1.54452215E+01  7.72261074E+00  7.72261074E+00
 -1.54452215E+01  7.72261074E+00  7.72261074E+00 -1.54452215E+01  7.72261074E+00
  7.72261074E+00 -1.54452215E+01  7.72261074E+00  7.72261074E+00 -1.54452215E+01
  7.72261074E+00  7.72261074E+00 -1.54452215E+01  7.72261074E+00  7.72261074E+00
 -1.54452215E+01  7.72261074E+00  7.72261074E+00 -1.54452215E+01  7.72261074E+00
  7.72261074E+00 -1.54452215E+01  7.72261074E+00  7.72261074E+00 -1.54452215E+01
  7.72261074E+00  7.72261074E+00 -1.54452215E+01  7.72261074E+00  7.72261074E+00
 -1.54452215E+01  7.72261074E+00  7.72261074E+00 -1.54452215E+01  7.72261074E+00
  7.72261074E+00 -1.54452215E+01  7.72261074E+00  7.72261074E+00 -1.54452215E+01
  7.72261074E+00  7.72261074E+00 -1.54452215E+01  7.72261074E+00  7.72261074E+00
 -1.54452215E+01  7.72261074E+00  7.72261074E+00 -1.54452215E+01  7.72261074E+00
  7.72261074E+00 -1.54452215E+01  7.72261074E+00  7.72261074E+00 -1.54452215E+01
  7.72261074E+00  7.72261074E+00 -1.54452215E+01  7.72261074E+00  7.72261074E+00
 -1.54452215E+01  7.72261074E+00  7.72261074E+00 -1.54452215E+01  7.72261074E+00
  7.72261074E+00 -1.54452215E+01  7.72261074E+00  7.72261074E+00 -1.54452215E+01
  7.72261074E+00  7.72261074E+00 -1.54452215E+01  7.72261074E+00  7.72261074E+00
 -1.54452215E+01  7.72261074E+00  7.72261074E+00 -1.54452215E+01  7.72261074E+00
  7.72261074E+00 -1.54452215E+01  7.72261074E+00  7.72261074E+00 -1.54452215E+01
  7.72261074E+00  7.72261074E+00 -1.54452215E+01  7.72261074E+00  7.72261074E+00
 -1.54452215E+01  7.72261074E+00  7.72261074E+00 -1.54452215E+01  7.72261074E+00
  7.72261074E+00 -1.54452215E+01  7.72261074E+00  7.72261074E+00 -1.54452215E+01
  7.72261074E+00  7.72261074E+00 -1.54452215E+01  7.72261074E+00  7.72261074E+00
 -1.54452215E+01  7.72261074E+00  7.72261074E+00 -1.54452215E+01  7.72261074E+00
  7.72261074E+00 -1.54452215E+01  7.72261074E+00  7.72261074E+00 -1.54452215E+01
  7.72261074E+00  7.72261074E+00 -1.54452215E+01  7.72261074E+00  7.72261074E+00
 -1.54452215E+01  7.72261074E+00  7.72261074E+00 -1.54452215E+01  7.72261074E+00
  7.72261074E+00 -1.54452215E+01  7.72261074E+00  7.72261074E+00 -1.54452215E+01
  7.72261074E+00  7.72261074E+00 -1.54452215E+01  7.72261074E+00  7.72261074E+00
 -1.54452215E+01  7.72261074E+00  7.72261074E+00 -1.54452215E+01  7.72261074E+00
  7.72261074E+00 -1.54452215E+01  7.72261074E+00  7.72261074E+00 -1.54452215E+01
  7.72261074E+00  7.72261074E+00 -1.54452215E+01  7.72261074E+00  7.72261074E+00
 -1.54452215E+01  7.72261074E+00  7.72261074E+00 -1.54452215E+01  7.72261074E+00
  7.72261074E+00 -1.54452215E+01  7.72261074E+00  7.72261074E+00 -1.54452215E+01
  7.72261074E+00  7.72261074E+00 -1.54452215E+01  7.72261074E+00  7.72261074E+00
 -1.54452215E+01  7.72261074E+00  7.72261074E+00 -1.54452215E+01  7.72261074E+00
  7.72261074E+00 -1.54452215E+01  7.72261074E+00  7.72261074E+00 -1.54452215E+01
  7.72261074E+00  7.72261074E+00 -1.54452215E+01  7.72261074E+00  7.72261074E+00
 -1.54452215E+01  7.72261074E+00  7.72261074E+00 -1.54452215E+01  7.72261074E+00
  7.72261074E+00 -1.54452215E+01  7.72261074E+00  7.72261074E+00 -1.54452215E+01
  7.72261074E+00  7.72261074E+00 -1.54452215E+01  7.72261074E+00  7.72261074E+00
 -1.54452215E+01  7.72261074E+00  7.72261074E+00 -1.54452215E+01  7.72261074E+00
  7.72261074E+00 -1.54452215E+01  7.72261074E+00  7.72261074E+00 -1.54452215E+01
  7.72261074E+00  7.72261074E+00 -1.54452215E+01  7.72261074E+00  7.72261074E+00
 -1.54452215E+01  7.72261074E+00  7.72261074E+00 -1.54452215E+01  7.72261074E+00
  7.72261074E+00 -1.54452215E+01  7.72261074E+00  7.72261074E+00 -1.54452215E+01
  7.72261074E+00  7.72261074E+00 -1.54452215E+01  7.72261074E+00  7.72261074E+00
 -1.54452215E+01  7.72261074E+00  7.72261074E+00 -1.54452215E+01  7.72261074E+00
  7.72261074E+00 -1.54452215E+01  7.72261074E+00  7.72261074E+00 -1.54452215E+01
  7.72261074E+00  7.72261074E+00 -1.54452215E+01  7.72261074E+00  7.72261074E+00
 -1.54452215E+01  7.72261074E+00  7.72261074E+00 -1.54452215E+01  7.72261074E+00
  7.72261074E+00 -1.54452215E+01  7.72261074E+00  7.72261074E+00 -1.54452215E+01
  7.72261074E+00  7.72261074E+00 -1.54452215E+01  7.72261074E+00  7.72261074E+00
 -1.54452215E+01  7.72261074E+00  7.72261074E+00 -1.54452215E+01  7.72261074E+00
  7.72261074E+00 -1.54452215E+01  7.72261074E+00  7.72261074E+00 -1.54452215E+01
  7.72261074E+00  7.72261074E+00 -1.54452215E+01  7.72261074E+00  7.72261074E+00
 -1.54452215E+01  7.72261074E+00  7.72261074E+00 -1.54452215E+01  7.72261074E+00
  7.72261074E+00 -1.54452215E+01  7.72261074E+00  7.72261074E+00 -1.54452215E+01
  7.72261074E+00  7.72261074E+00 -1.54452215E+01  7.72261074E+00  7.72261074E+00
 -1.54452215E+01  7.72261074E+00  7.72261074E+00 -1.54452215E+01  7.72261074E+00
  7.72261074E+00 -1.54452215E+01  7.72261074E+00  7.72261074E+00 -1.54452215E+01
  7.72261074E+00  7.72261074E+00 -1.54452215E+01  7.72261074E+00  7.72261074E+00
 -1.54452215E+01  7.72261074E+00  7.72261074E+00 -1.54452215E+01  7.72261074E+00
  7.72261074E+00 -1.54452215E+01  7.72261074E+00  7.72261074E+00 -1.54452215E+01
  7.72261074E+00  7.72261074E+00 -1.54452215E+01  7.72261074E+00  7.72261074E+00
 -1.54452215E+01  7.72261074E+00  7.72261074E+00 -1.54452215E+01  7.72261074E+00
  7.72261074E+00 -1.54452215E+01  7.72261074E+00  7.72261074E+00 -1.54452215E+01
  7.72261074E+00  7.72261074E+00 -1.54452215E+01  7.72261074E+00  7.72261074E+00
 -1.54452215E+01  7.72261074E+00  7.72261074E+00 -1.54452215E+01  7.72261074E+00
  7.72261074E+00 -1.54452215E+01  7.72261074E+00  7.72261074E+00 -1.54452215E+01
  7.72261074E+00  7.72261074E+00 -1.54452215E+01  7.72261074E+00  7.72261074E+00
 -1.54452215E+01  7.72261074E+00  7.72261074E+00 -1.54452215E+01  7.72261074E+00
  7.72261074E+00 -1.54452215E+01  7.72261074E+00  7.72261074E+00 -1.54452215E+01
  7.72261074E+00  7.72261074E+00 -1.54452215E+01  7.72261074E+00  7.72261074E+00
 -1.54452215E+01  7.72261074E+00  7.72261074E+00 -1.54452215E+01  7.72261074E+00
  7.72261074E+00 -1.54452215E+01  7.72261074E+00  7.72261074E+00 -1.54452215E+01
  7.72261074E+00  7.72261074E+00 -1.54452215E+01  7.72261074E+00  7.72261074E+00
 -1.54452215E+01  7.72261074E+00  7.72261074E+00 -1.54452215E+01  7.72261074E+00
  7.72261074E+00 -1.54452215E+01  7.72261074E+00  7.72261074E+00 -1.54452215E+01
  7.72261074E+00  7.72261074E+00 -1.54452215E+01  7.72261074E+00  7.72261074E+00
 -1.54452215E+01  7.72261074E+00  7.72261074E+00 -1.54452215E+01  7.72261074E+00
  7.72261074E+00 -1.54452215E+01  7.72261074E+00  7.72261074E+00 -1.54452215E+01
  7.72261074E+00  7.72261074E+00 -1.54452215E+01  7.72261074E+00  7.72261074E+00
 -1.54452215E+01  7.72261074E+00  7.72261074E+00 -1.54452215E+01  7.72261074E+00
  7.72261074E+00 -1.54452215E+01  7.72261074E+00  7.72261074E+00 -1.54452215E+01
  7.72261074E+00  7.72261074E+00 -1.54452215E+01  7.72261074E+00  7.72261074E+00
 -1.54452215E+01  7.72261074E+00  7.72261074E+00 -1.54452215E+01  7.72261074E+00
  7.72261074E+00 -1.54452215E+01  7.72261074E+00  7.72261074E+00 -1.54452215E+01
  7.72261074E+00  7.72261074E+00 -1.54452215E+01  7.72261074E+00  7.72261074E+00
 -1.54452215E+01  7.72261074E+00  7.72261074E+00 -1.54452215E+01  7.72261074E+00
  7.72261074E+00 -1.54452215E+01  7.72261074E+00  7.72261074E+00 -1.54452215E+01
  7.72261074E+00  7.72261074E+00 -1.54452215E+01  7.72261074E+00  7.72261074E+00
 -1.54452215E+01  7.72261074E+00  7.72261074E+00 -1.54452215E+01  7.72261074E+00
  7.72261074E+00 -1.54452215E+01  7.72261074E+00  7.72261074E+00 -1.54452215E+01
  7.72261074E+00  7.72261074E+00 -1.54452215E+01  7.72261074E+00  7.72261074E+00
 -1.54452215E+01  7.72261074E+00  7.72261074E+00 -1.54452215E+01  7.72261074E+00
  7.72261074E+00 -1.54452215E+01  7.72261074E+00  7.72261074E+00 -1.54452215E+01
  7.72261074E+00  7.72261074E+00 -1.54452215E+01  7.72261074E+00  7.72261074E+00
 -1.54452215E+01  7.72261074E+00  7.72261074E+00 -1.54452215E+01  7.72261074E+00
  7.72261074E+00 -1.54452215E+01  7.72261074E+00  7.72261074E+00 -1.54452215E+01
  7.72261074E+00  7.72261074E+00 -1.54452215E+01  7.72261074E+00  7.72261074E+00
 -1.54452215E+01  7.72261074E+00  7.72261074E+00 -1.54452215E+01  7.72261074E+00
  7.72261074E+00 -1.54452215E+01  7.72261074E+00  7.72261074E+00 -1.54452215E+01
  7.72261074E+00  7.72261074E+00 -1.54452215E+01  7.72261074E+00  7.72261074E+00
 -1.54452215E+01  7.72261074E+00  7.72261074E+00 -1.54452215E+01  7.72261074E+00
  7.72261074E+00 -1.54452215E+01  7.72261074E+00  7.72261074E+00 -1.54452215E+01
  7.72261074E+00  7.72261074E+00 -1.54452215E+01  7.72261074E+00  7.72261074E+00
 -1.54452215E+01  7.72261074E+00  7.72261074E+00 -1.54452215E+01  7.72261074E+00
  7.72261074E+00 -1.54452215E+01  7.72261074E+00  7.72261074E+00 -1.54452215E+01
  7.72261074E+00  7.72261074E+00 -1.54452215E+01  7.72261074E+00  7.72261074E+00
 -1.54452215E+01  7.72261074E+00  7.72261074E+00 -1.54452215E+01  7.72261074E+00
  7.72261074E+00 -1.54452215E+01  7.72261074E+00  7.72261074E+00 -1.54452215E+01
  7.72261074E+00  7.72261074E+00 -1.54452215E+01  7.72261074E+00  7.72261074E+00
 -1.54452215E+01  7.72261074E+00  7.72261074E+00 -1.54452215E+01  7.72261074E+00
  7.72261074E+00 -1.54452215E+01  7.72261074E+00  7.72261074E+00 -1.54452215E+01
  7.72261074E+00  7.72261074E+00 -1.54452215E+01  7.72261074E+00  7.72261074E+00
 -1.54452215E+01  7.72261074E+00  7.72261074E+00 -1.54452215E+01  7.72261074E+00
  7.72261074E+00 -1.54452215E+01  7.72261074E+00  7.72261074E+00 -1.54452215E+01
  7.72261074E+00  7.72261074E+00 -1.54452215E+01  7.72261074E+00  7.72261074E+00
 -1.54452215E+01  7.72261074E+00  7.72261074E+00 -1.54452215E+01  7.72261074E+00
  7.72261074E+00 -1.54452215E+01  7.72261074E+00  7.72261074E+00 -1.54452215E+01
  7.72261074E+00  7.72261074E+00 -1.54452215E+01  7.72261074E+00  7.72261074E+00
 -1.54452215E+01  7.72261074E+00  7.72261074E+00 -1.54452215E+01  7.72261074E+00
  7.72261074E+00 -1.54452215E+01  7.72261074E+00  7.72261074E+00 -1.54452215E+01
  7.72261074E+00  7.72261074E+00 -1.54452215E+01  7.72261074E+00  7.72261074E+00
 -1.54452215E+01  7.72261074E+00  7.72261074E+00 -1.54452215E+01  7.72261074E+00
  7.72261074E+00 -1.54452215E+01  7.72261074E+00  7.72261074E+00 -1.54452215E+01
  7.72261074E+00  7.72261074E+00 -1.54452215E+01  7.72261074E+00  7.72261074E+00
 -1.54452215E+01  7.72261074E+00  7.72261074E+00 -1.54452215E+01  7.72261074E+00
  7.72261074E+00 -1.54452215E+01  7.72261074E+00  7.72261074E+00 -1.54452215E+01
  7.72261074E+00  7.72261074E+00 -1.54452215E+01  7.72261074E+00  7.72261074E+00
 -1.54452215E+01  7.72261074E+00  7.72261074E+00 -1.54452215E+01  7.72261074E+00
  7.72261074E+00 -1.54452215E+01  7.72261074E+00  7.72261074E+00 -1.54452215E+01
  7.72261074E+00  7.72261074E+00 -1.54452215E+01  7.72261074E+00  7.72261074E+00
 -1.54452215E+01  7.72261074E+00  7.72261074E+00 -1.54452215E+01  7.72261074E+00
  7.72261074E+00 -1.54452215E+01  7.72261074E+00  7.72261074E+00 -1.54452215E+01
  7.72261074E+00  7.72261074E+00 -1.54452215E+01  7.72261074E+00  7.72261074E+00
 -1.54452215E+01  7.72261074E+00  7.72261074E+00 -1.54452215E+01  7.72261074E+00
  7.72261074E+00 -1.54452215E+01  7.72261074E+00  7.72261074E+00 -1.54452215E+01
  7.72261074E+00  7.72261074E+00 -1.54452215E+01  7.72261074E+00  7.72261074E+00
 -1.54452215E+01  7.72261074E+00  7.72261074E+00 -1.54452215E+01  7.72261074E+00
  7.72261074E+00 -1.54452215E+01  7.72261074E+00  7.72261074E+00 -1.54452215E+01
  7.72261074E+00  7.72261074E+00 -1.54452215E+01  7.72261074E+00  7.72261074E+00
 -1.54452215E+01  7.72261074E+00  7.72261074E+00 -1.54452215E+01  7.72261074E+00
  7.72261074E+00 -1.54452215E+01  7.72261074E+00  7.72261074E+00 -1.54452215E+01
  7.72261074E+00  7.72261074E+00 -1.54452215E+01  7.72261074E+00  7.72261074E+00
 -1.54452215E+01  7.72261074E+00  7.72261074E+00 -1.54452215E+01  7.72261074E+00
  7.72261074E+00 -1.54452215E+01  7.72261074E+00  7.72261074E+00 -1.54452215E+01
  7.72261074E+00  7.72261074E+00 -1.54452215E+01  7.72261074E+00  7.72261074E+00
 -1.54452215E+01  7.72261074E+00  7.72261074E+00 -1.54452215E+01  7.72261074E+00
  7.72261074E+00 -1.54452215E+01  7.72261074E+00  7.72261074E+00 -1.54452215E+01
  7.72261074E+00  7.72261074E+00 -1.54452215E+01  7.72261074E+00  7.72261074E+00
 -1.54452215E+01  7.72261074E+00  7.72261074E+00 -1.54452215E+01  7.72261074E+00
  7.72261074E+00 -1.54452215E+01  7.72261074E+00  7.72261074E+00 -1.54452215E+01
  7.72261074E+00  7.72261074E+00 -1.54452215E+01  7.72261074E+00  7.72261074E+00
 -1.54452215E+01  7.72261074E+00  7.72261074E+00 -1.54452215E+01  7.72261074E+00
  7.72261074E+00 -1.54452215E+01  7.72261074E+00  7.72261074E+00 -1.54452215E+01
  7.72261074E+00  7.72261074E+00 -1.54452215E+01  7.72261074E+00  7.72261074E+00
 -1.54452215E+01  7.72261074E+00  7.72261074E+00 -1.54452215E+01  7.72261074E+00
  7.72261074E+00 -1.54452215E+01  7.72261074E+00  7.72261074E+00 -1.54452215E+01
  7.72261074E+00  7.72261074E+00 -1.54452215E+01  7.72261074E+00  7.72261074E+00
 -1.54452215E+01  7.72261074E+00  7.72261074E+00 -1.54452215E+01  7.72261074E+00
  7.72261074E+00 -1.54452215E+01  7.72261074E+00  7.72261074E+00 -1.54452215E+01
  7.72261074E+00  7.72261074E+00 -1.54452215E+01  7.72261074E+00  7.72261074E+00
 -1.54452215E+01  7.72261074E+00  7.72261074E+00 -1.54452215E+01  7.72261074E+00
  7.72261074E+00 -1.54452215E+01  7.72261074E+00  7.72261074E+00 -1.54452215E+01
  7.72261074E+00  7.72261074E+00 -1.54452215E+01  7.72261074E+00  7.72261074E+00
 -1.54452215E+01  7.72261074E+00  7.72261074E+00 -1.54452215E+01  7.72261074E+00
  7.72261074E+00 -1.54452215E+01  7.72261074E+00  7.72261074E+00 -1.54452215E+01
  7.72261074E+00  7.72261074E+00 -1.54452215E+01  7.72261074E+00  7.72261074E+00
 -1.54452215E+01  7.72261074E+00  7.72261074E+00 -1.54452215E+01  7.72261074E+00
  7.72261074E+00 -1.54452215E+01  7.72261074E+00  7.72261074E+00 -1.54452215E+01
  7.72261074E+00  7.72261074E+00 -1.54452215E+01  7.72261074E+00  7.72261074E+00
 -1.54452215E+01  7.72261074E+00  7.72261074E+00 -1.54452215E+01  7.72261074E+00
  7.72261074E+00 -1.54452215E+01  7.72261074E+00  7.72261074E+00 -1.54452215E+01
  7.72261074E+00  7.72261074E+00 -1.54452215E+01  7.72261074E+00  7.72261074E+00
 -1.54452215E+01  7.72261074E+00  7.72261074E+00 -1.54452215E+01  7.72261074E+00
  7.72261074E+00 -1.54452215E+01  7.72261074E+00  7.72261074E+00 -1.54452215E+01
  7.72261074E+00  7.72261074E+00 -1.54452215E+01  7.72261074E+00  7.72261074E+00
 -1.54452215E+01  7.72261074E+00  7.72261074E+00 -1.54452215E+01  7.72261074E+00
  7.72261074E+00 -1.54452215E+01  7.72261074E+00  7.72261074E+00 -1.54452215E+01
  7.72261074E+00  7.72261074E+00 -1.54452215E+01  7.72261074E+00  7.72261074E+00
 -1.54452215E+01  7.72261074E+00  7.72261074E+00 -1.54452215E+01  7.72261074E+00
  7.72261074E+00 -1.54452215E+01  7.72261074E+00  7.72261074E+00 -1.54452215E+01
  7.72261074E+00  7.72261074E+00 -1.54452215E+01  7.72261074E+00  7.72261074E+00
 -1.54452215E+01  7.72261074E+00  7.72261074E+00 -1.54452215E+01  7.72261074E+00
  7.72261074E+00 -1.54452215E+01  7.72261074E+00  7.72261074E+00 -1.54452215E+01
  7.72261074E+00  7.72261074E+00 -1.54452215E+01  7.72261074E+00  7.72261074E+00
 -1.54452215E+01  7.72261074E+00  7.72261074E+00 -1.54452215E+01  7.72261074E+00
  7.72261074E+00 -1.54452215E+01  7.72261074E+00  7.72261074E+00 -1.54452215E+01
  7.72261074E+00  7.72261074E+00 -1.54452215E+01  7.72261074E+00  7.72261074E+00
 -1.54452215E+01  7.72261074E+00  7.72261074E+00 -1.54452215E+01  7.72261074E+00
  7.72261074E+00 -1.54452215E+01  7.72261074E+00  7.72261074E+00 -1.54452215E+01
  7.72261074E+00  7.72261074E+00 -1.54452215E+01  7.72261074E+00  7.72261074E+00
 -1.54452215E+01  7.72261074E+00  7.72261074E+00 -1.54452215E+01  7.72261074E+00
  7.72261074E+00 -1.54452215E+01  7.72261074E+00  7.72261074E+00 -1.54452215E+01
  7.72261074E+00  7.72261074E+00 -1.54452215E+01  7.72261074E+00  7.72261074E+00
 -1.54452215E+01  7.72261074E+00  7.72261074E+00 -1.54452215E+01  7.72261074E+00
  7.72261074E+00 -1.54452215E+01  7.72261074E+00  7.72261074E+00 -1.54452215E+01
  7.72261074E+00  7.72261074E+00 -1.54452215E+01  7.72261074E+00  7.72261074E+00
 -1.54452215E+01  7.72261074E+00  7.72261074E+00 -1.54452215E+01  7.72261074E+00
  7.72261074E+00 -1.54452215E+01  7.72261074E+00  7.72261074E+00 -1.54452215E+01
  7.72261074E+00  7.72261074E+00 -1.54452215E+01  7.72261074E+00  7.72261074E+00
 -1.54452215E+01  7.72261074E+00  7.72261074E+00 -1.54452215E+01  7.72261074E+00
  7.72261074E+00 -1.54452215E+01  7.72261074E+00  7.72261074E+00 -1.54452215E+01
  7.72261074E+00  7.72261074E+00 -1.54452215E+01  7.72261074E+00  7.72261074E+00
 -1.54452215E+01  7.72261074E+00  7.72261074E+00 -1.54452215E+01  7.72261074E+00
  7.72261074E+00 -1.54452215E+01  7.72261074E+00  7.72261074E+00 -1.54452215E+01
  7.72261074E+00  7.72261074E+00 -1.54452215E+01  7.72261074E+00  7.72261074E+00
 -1.54452215E+01  7.72261074E+00  7.72261074E+00 -1.54452215E+01  7.72261074E+00
  7.72261074E+00 -1.54452215E+01  7.72261074E+00  7.72261074E+00 -1.54452215E+01
  7.72261074E+00  7.72261074E+00 -1.54452215E+01  7.72261074E+00  7.72261074E+00
 -1.54452215E+01  7.72261074E+00  7.72261074E+00 -1.54452215E+01  7.72261074E+00
  7.72261074E+00 -1.54452215E+01  7.72261074E+00  7.72261074E+00 -1.54452215E+01
  7.72261074E+00  7.72261074E+00 -1.54452215E+01  7.72261074E+00  7.72261074E+00
 -1.54452215E+01  7.72261074E+00  7.72261074E+00 -1.54452215E+01  7.72261074E+00
  7.72261074E+00 -1.54452215E+01  7.72261074E+00  7.72261074E+00 -1.54452215E+01
  7.72261074E+00  7.72261074E+00 -1.54452215E+01  7.72261074E+00  7.72261074E+00
 -1.54452215E+01  7.72261074E+00  7.72261074E+00 -1.54452215E+01  7.72261074E+00
  7.72261074E+00 -1.54452215E+01  7.72261074E+00  7.72261074E+00 -1.54452215E+01
  7.72261074E+00  7.72261074E+00 -1.54452215E+01  7.72261074E+00  7.72261074E+00
 -1.54452215E+01  7.72261074E+00  7.72261074E+00 -1.54452215E+01  7.72261074E+00
  7.72261074E+00 -1.54452215E+01  7.72261074E+00  7.72261074E+00 -1.54452215E+01
  7.72261074E+00  7.72261074E+00 -1.54452215E+01  7.72261074E+00  7.72261074E+00
 -1.54452215E+01  7.72261074E+00  7.72261074E+00 -1.54452215E+01  7.72261074E+00
  7.72261074E+00 -1.54452215E+01  7.72261074E+00  7.72261074E+00 -1.54452215E+01
  7.72261074E+00  7.72261074E+00 -1.54452215E+01  7.72261074E+00  7.72261074E+00
 -1.54452215E+01  7.72261074E+00  7.72261074E+00 -1.54452215E+01  7.72261074E+00
  7.72261074E+00 -1.54452215E+01  7.72261074E+00  7.72261074E+00 -1.54452215E+01
  7.72261074E+00  7.72261074E+00 -1.54452215E+01  7.72261074E+00  7.72261074E+00
 -1.54452215E+01  7.72261074E+00  7.72261074E+00 -1.54452215E+01  7.72261074E+00
  7.72261074E+00 -1.54452215E+01  7.72261074E+00  7.72261074E+00 -1.54452215E+01
  7.72261074E+00  7.72261074E+00 -1.54452215E+01  7.72261074E+00  7.72261074E+00
 -1.54452215E+01  7.72261074E+00  7.72261074E+00 -1.54452215E+01  7.72261074E+00
  7.72261074E+00 -1.54452215E+01  7.72261074E+00  7.72261074E+00 -1.54452215E+01
  7.72261074E+00  7.72261074E+00 -1.54452215E+01  7.72261074E+00  7.72261074E+00
 -1.54452215E+01  7.72261074E+00  7.72261074E+00 -1.54452215E+01  7.72261074E+00
  7.72261074E+00 -1.54452215E+01  7.72261074E+00  7.72261074E+00 -1.54452215E+01
  7.72261074E+00  7.72261074E+00 -1.54452215E+01  7.72261074E+00  7.72261074E+00
 -1.54452215E+01  7.72261074E+00  7.72261074E+00 -1.54452215E+01  7.72261074E+00
  7.72261074E+00 -1.54452215E+01  7.72261074E+00  7.72261074E+00 -1.54452215E+01
  7.72261074E+00  7.72261074E+00 -1.54452215E+01  7.72261074E+00  7.72261074E+00
 -1.54452215E+01  7.72261074E+00  7.72261074E+00 -1.54452215E+01  7.72261074E+00
  7.72261074E+00 -1.54452215E+01  7.72261074E+00  7.72261074E+00 -1.54452215E+01
  7.72261074E+00  7.72261074E+00 -1.54452215E+01  7.72261074E+00  7.72261074E+00
 -1.54452215E+01  7.72261074E+00  7.72261074E+00 -1.54452215E+01  7.72261074E+00
  7.72261074E+00 -1.54452215E+01  7.72261074E+00  7.72261074E+00 -1.54452215E+01
  7.72261074E+00  7.72261074E+00 -1.54452215E+01  7.72261074E+00  7.72261074E+00
 -1.54452215E+01  7.72261074E+00  7.72261074E+00 -1.54452215E+01  7.72261074E+00
  7.72261074E+00 -1.54452215E+01  7.72261074E+00  7.72261074E+00 -1.54452215E+01
  7.72261074E+00  7.72261074E+00 -1.54452215E+01  7.72261074E+00  7.72261074E+00
 -1.54452215E+01  7.72261074E+00  7.72261074E+00 -1.54452215E+01  7.72261074E+00
  7.72261074E+00 -1.54452215E+01  7.72261074E+00  7.72261074E+00 -1.54452215E+01
  7.72261074E+00  7.72261074E+00 -1.54452215E+01  7.72261074E+00  7.72261074E+00
 -1.54452215E+01  7.72261074E+00  7.72261074E+00 -1.54452215E+01  7.72261074E+00
  7.72261074E+00 -1.54452215E+01  7.72261074E+00  7.72261074E+00 -1.54452215E+01
  7.72261074E+00  7.72261074E+00 -1.54452215E+01  7.72261074E+00  7.72261074E+00
 -1.54452215E+01  7.72261074E+00  7.72261074E+00 -1.54452215E+01  7.72261074E+00
  7.72261074E+00 -1.54452215E+01  7.72261074E+00  7.72261074E+00 -1.54452215E+01
  7.72261074E+00  7.72261074E+00 -1.54452215E+01  7.72261074E+00  7.72261074E+00
 -1.54452215E+01  7.72261074E+00  7.72261074E+00 -1.54452215E+01  7.72261074E+00
  7.72261074E+00 -1.54452215E+01  7.72261074E+00  7.72261074E+00 -1.54452215E+01
  7.72261074E+00  7.72261074E+00 -1.54452215E+01  7.72261074E+00  7.72261074E+00
 -1.54452215E+01  7.72261074E+00  7.72261074E+00 -1.54452215E+01  7.72261074E+00
  7.72261074E+00 -1.54452215E+01  7.72261074E+00  7.72261074E+00 -1.54452215E+01
  7.72261074E+00  7.72261074E+00 -1.54452215E+01  7.72261074E+00  7.72261074E+00
 -1.54452215E+01  7.72261074E+00  7.72261074E+00 -1.54452215E+01  7.72261074E+00
  7.72261074E+00 -1.54452215E+01  7.72261074E+00  7.72261074E+00 -1.54452215E+01
  7.72261074E+00  7.72261074E+00 -1.54452215E+01  7.72261074E+00  7.72261074E+00
 -1.54452215E+01  7.72261074E+00  7.72261074E+00 -1.54452215E+01  7.72261074E+00
  7.72261074E+00 -1.54452215E+01  7.72261074E+00  7.72261074E+00 -1.54452215E+01
  7.72261074E+00  7.72261074E+00 -1.54452215E+01  7.72261074E+00  7.72261074E+00
 -1.54452215E+01  7.72261074E+00  7.72261074E+00 -1.54452215E+01  7.72261074E+00
  7.72261074E+00 -1.54452215E+01  7.72261074E+00  7.72261074E+00 -1.54452215E+01
  7.72261074E+00  7.72261074E+00 -1.54452215E+01  7.72261074E+00  7.72261074E+00
 -1.54452215E+01  7.72261074E+00  7.72261074E+00 -1.54452215E+01  7.72261074E+00
  7.72261074E+00 -1.54452215E+01  7.72261074E+00  7.72261074E+00 -1.54452215E+01
  7.72261074E+00  7.72261074E+00 -1.54452215E+01  7.72261074E+00  7.72261074E+00
 -1.54452215E+01  7.72261074E+00  7.72261074E+00 -1.54452215E+01  7.72261074E+00
  7.72261074E+00 -1.54452215E+01  7.72261074E+00  7.72261074E+00 -1.54452215E+01
  7.72261074E+00  7.72261074E+00 -1.54452215E+01  7.72261074E+00  7.72261074E+00
 -1.54452215E+01  7.72261074E+00  7.72261074E+00 -1.54452215E+01  7.72261074E+00
  7.72261074E+00 -1.54452215E+01  7.72261074E+00  7.72261074E+00 -1.54452215E+01
  7.72261074E+00  7.72261074E+00 -1.54452215E+01  7.72261074E+00  7.72261074E+00
 -1.54452215E+01  7.72261074E+00  7.72261074E+00 -1.54452215E+01  7.72261074E+00
  7.72261074E+00 -1.54452215E+01  7.72261074E+00  7.72261074E+00 -1.54452215E+01
  7.72261074E+00  7.72261074E+00 -1.54452215E+01  7.72261074E+00  7.72261074E+00
 -1.54452215E+01  7.72261074E+00  7.72261074E+00 -1.54452215E+01  7.72261074E+00
  7.72261074E+00 -1.54452215E+01  7.72261074E+00  7.72261074E+00 -1.54452215E+01
  7.72261074E+00  7.72261074E+00 -1.54452215E+01  7.72261074E+00  7.72261074E+00
 -1.54452215E+01  7.72261074E+00  7.72261074E+00 -1.54452215E+01  7.72261074E+00
  7.72261074E+00 -1.54452215E+01  7.72261074E+00  7.72261074E+00 -1.54452215E+01
  7.72261074E+00  7.72261074E+00 -1.54452215E+01  7.72261074E+00  7.72261074E+00
 -1.54452215E+01  7.72261074E+00  7.72261074E+00 -1.54452215E+01  7.72261074E+00
  7.72261074E+00 -1.54452215E+01  7.72261074E+00  7.72261074E+00 -1.54452215E+01
  7.72261074E+00  7.72261074E+00 -1.54452215E+01  7.72261074E+00  7.72261074E+00
 -1.54452215E+01  7.72261074E+00  7.72261074E+00 -1.54452215E+01  7.72261074E+00
  7.72261074E+00 -1.54452215E+01  7.72261074E+00  7.72261074E+00 -1.54452215E+01
  7.72261074E+00  7.72261074E+00 -1.54452215E+01  7.72261074E+00  7.72261074E+00
 -1.54452215E+01  7.72261074E+00  7.72261074E+00 -1.54452215E+01  7.72261074E+00
  7.72261074E+00 -1.54452215E+01  7.72261074E+00  7.72261074E+00 -1.54452215E+01
  7.72261074E+00  7.72261074E+00 -1.54452215E+01  7.72261074E+00  7.72261074E+00
 -1.54452215E+01  7.72261074E+00  7.72261074E+00 -1.54452215E+01  7.72261074E+00
  7.72261074E+00 -1.54452215E+01  7.72261074E+00  7.72261074E+00 -1.54452215E+01
  7.72261074E+00  7.72261074E+00 -1.54452215E+01  7.72261074E+00  7.72261074E+00
 -1.54452215E+01  7.72261074E+00  7.72261074E+00 -1.54452215E+01  7.72261074E+00
  7.72261074E+00 -1.54452215E+01  7.72261074E+00  7.72261074E+00 -1.54452215E+01
  7.72261074E+00  7.72261074E+00 -1.54452215E+01  7.72261074E+00  7.72261074E+00
 -1.54452215E+01  7.72261074E+00  7.72261074E+00 -1.54452215E+01  7.72261074E+00
  7.72261074E+00 -1.54452215E+01  7.72261074E+00  7.72261074E+00 -1.54452215E+01
  7.72261074E+00  7.72261074E+00 -1.54452215E+01  7.72261074E+00  7.72261074E+00
 -1.54452215E+01  7.72261074E+00  7.72261074E+00 -1.54452215E+01  7.72261074E+00
  7.72261074E+00 -1.54452215E+01  7.72261074E+00  7.72261074E+00 -1.54452215E+01
  7.72261074E+00  7.72261074E+00 -1.54452215E+01  7.72261074E+00  7.72261074E+00
 -1.54452215E+01  7.72261074E+00  7.72261074E+00 -1.54452215E+01  7.72261074E+00
  7.72261074E+00 -1.54452215E+01  7.72261074E+00  7.72261074E+00 -1.54452215E+01
  7.72261074E+00  7.72261074E+00 -1.54452215E+01  7.72261074E+00  7.72261074E+00
 -1.54452215E+01  7.72261074E+00  7.72261074E+00 -1.54452215E+01  7.72261074E+00
  7.72261074E+00 -1.54452215E+01  7.72261074E+00  7.72261074E+00 -1.54452215E+01
  7.72261074E+00  7.72261074E+00 -1.54452215E+01  7.72261074E+00  7.72261074E+00
 -1.54452215E+01  7.72261074E+00  7.72261074E+00 -1.54452215E+01  7.72261074E+00
  7.72261074E+00 -1.54452215E+01  7.72261074E+00  7.72261074E+00 -1.54452215E+01
  7.72261074E+00  7.72261074E+00 -1.54452215E+01  7.72261074E+00  7.72261074E+00
 -1.54452215E+01  7.72261074E+00  7.72261074E+00 -1.54452215E+01  7.72261074E+00
  7.72261074E+00 -1.54452215E+01  7.72261074E+00  7.72261074E+00 -1.54452215E+01
  7.72261074E+00  7.72261074E+00 -1.54452215E+01  7.72261074E+00  7.72261074E+00
 -1.54452215E+01  7.72261074E+00  7.72261074E+00 -1.54452215E+01  7.72261074E+00
  7.72261074E+00 -1.54452215E+01  7.72261074E+00  7.72261074E+00 -1.54452215E+01
  7.72261074E+00  7.72261074E+00 -1.54452215E+01  7.72261074E+00  7.72261074E+00
 -1.54452215E+01  7.72261074E+00  7.72261074E+00 -1.54452215E+01  7.72261074E+00
  7.72261074E+00 -1.54452215E+01  7.72261074E+00  7.72261074E+00 -1.54452215E+01
  7.72261074E+00  7.72261074E+00 -1.54452215E+01  7.72261074E+00  7.72261074E+00
 -1.54452215E+01  7.72261074E+00  7.72261074E+00 -1.54452215E+01  7.72261074E+00
  7.72261074E+00 -1.54452215E+01  7.72261074E+00  7.72261074E+00 -1.54452215E+01
  7.72261074E+00  7.72261074E+00 -1.54452215E+01  7.72261074E+00  7.72261074E+00
 -1.54452215E+01  7.72261074E+00  7.72261074E+00 -1.54452215E+01  7.72261074E+00
  7.72261074E+00 -1.54452215E+01  7.72261074E+00  7.72261074E+00 -1.54452215E+01
  7.72261074E+00  7.72261074E+00 -1.54452215E+01  7.72261074E+00  7.72261074E+00
 -1.54452215E+01  7.72261074E+00  7.72261074E+00 -1.54452215E+01  7.72261074E+00
  7.72261074E+00 -1.54452215E+01  7.72261074E+00  7.72261074E+00 -1.54452215E+01
  7.72261074E+00  7.72261074E+00 -1.54452215E+01  7.72261074E+00  7.72261074E+00
 -1.54452215E+01  7.72261074E+00  7.72261074E+00 -1.54452215E+01  7.72261074E+00
  7.72261074E+00 -1.54452215E+01  7.72261074E+00  7.72261074E+00 -1.54452215E+01
  7.72261074E+00  7.72261074E+00 -1.54452215E+01  7.72261074E+00  7.72261074E+00
 -1.54452215E+01  7.72261074E+00  7.72261074E+00 -1.54452215E+01  7.72261074E+00
  7.72261074E+00 -1.54452215E+01  7.72261074E+00  7.72261074E+00 -1.54452215E+01
  7.72261074E+00  7.72261074E+00 -1.54452215E+01  7.72261074E+00  7.72261074E+00
 -1.54452215E+01  7.72261074E+00  7.72261074E+00 -1.54452215E+01  7.72261074E+00
  7.72261074E+00 -1.54452215E+01  7.72261074E+00  7.72261074E+00 -1.54452215E+01
  7.72261074E+00  7.72261074E+00 -1.54452215E+01  7.72261074E+00  7.72261074E+00
 -1.54452215E+01  7.72261074E+00  7.72261074E+00 -1.54452215E+01  7.72261074E+00
  7.72261074E+00 -1.54452215E+01  7.72261074E+00  7.72261074E+00 -1.54452215E+01
  7.72261074E+00  7.72261074E+00 -1.54452215E+01  7.72261074E+00  7.72261074E+00
 -1.54452215E+01  7.72261074E+00  7.72261074E+00 -1.54452215E+01  7.72261074E+00
  7.72261074E+00 -1.54452215E+01  7.72261074E+00  7.72261074E+00 -1.54452215E+01
  7.72261074E+00  7.72261074E+00 -1.54452215E+01  7.72261074E+00  7.72261074E+00
 -1.54452215E+01  7.72261074E+00  7.72261074E+00 -1.54452215E+01  7.72261074E+00
  7.72261074E+00 -1.54452215E+01  7.72261074E+00  7.72261074E+00 -1.54452215E+01
  7.72261074E+00  7.72261074E+00 -1.54452215E+01  7.72261074E+00  7.72261074E+00
 -1.54452215E+01  7.72261074E+00  7.72261074E+00 -1.54452215E+01  7.72261074E+00
  7.72261074E+00 -1.54452215E+01  7.72261074E+00  7.72261074E+00 -1.54452215E+01
  7.72261074E+00  7.72261074E+00 -1.54452215E+01  7.72261074E+00  7.72261074E+00
 -1.54452215E+01  7.72261074E+00  7.72261074E+00 -1.54452215E+01  7.72261074E+00
  7.72261074E+00 -1.54452215E+01  7.72261074E+00  7.72261074E+00 -1.54452215E+01
  7.72261074E+00  7.72261074E+00 -1.54452215E+01  7.72261074E+00  7.72261074E+00
 -1.54452215E+01  7.72261074E+00  7.72261074E+00 -1.54452215E+01  7.72261074E+00
  7.72261074E+00 -1.54452215E+01  7.72261074E+00  7.72261074E+00 -1.54452215E+01
  7.72261074E+00  7.72261074E+00 -1.54452215E+01  7.72261074E+00  7.72261074E+00
 -1.54452215E+01  7.72261074E+00  7.72261074E+00 -1.54452215E+01  7.72261074E+00
  7.72261074E+00 -1.54452215E+01  7.72261074E+00  7.72261074E+00 -1.54452215E+01
  7.72261074E+00  7.72261074E+00 -1.54452215E+01  7.72261074E+00  7.72261074E+00
 -1.54452215E+01  7.72261074E+00  7.72261074E+00 -1.54452215E+01  7.72261074E+00
  7.72261074E+00 -1.54452215E+01  7.72261074E+00  7.72261074E+00 -1.54452215E+01
  7.72261074E+00  7.72261074E+00 -1.54452215E+01  7.72261074E+00  7.72261074E+00
 -1.54452215E+01  7.72261074E+00  7.72261074E+00 -1.54452215E+01  7.72261074E+00
  7.72261074E+00 -1.54452215E+01  7.72261074E+00  7.72261074E+00 -1.54452215E+01
  7.72261074E+00  7.72261074E+00 -1.54452215E+01  7.72261074E+00  7.72261074E+00
 -1.54452215E+01  7.72261074E+00  7.72261074E+00 -1.54452215E+01  7.72261074E+00
  7.72261074E+00 -1.54452215E+01  7.72261074E+00  7.72261074E+00 -1.54452215E+01
  7.72261074E+00  7.72261074E+00 -1.54452215E+01  7.72261074E+00  7.72261074E+00
 -1.54452215E+01  7.72261074E+00  7.72261074E+00 -1.54452215E+01  7.72261074E+00
  7.72261074E+00 -1.54452215E+01  7.72261074E+00  7.72261074E+00 -1.54452215E+01
  7.72261074E+00  7.72261074E+00 -1.54452215E+01  7.72261074E+00  7.72261074E+00
 -1.54452215E+01  7.72261074E+00  7.72261074E+00 -1.54452215E+01  7.72261074E+00
  7.72261074E+00 -1.54452215E+01  7.72261074E+00  7.72261074E+00 -1.54452215E+01
  7.72261074E+00  7.72261074E+00 -1.54452215E+01  7.72261074E+00  7.72261074E+00
 -1.54452215E+01  7.72261074E+00  7.72261074E+00 -1.54452215E+01  7.72261074E+00
  7.72261074E+00 -1.54452215E+01  7.72261074E+00  7.72261074E+00 -1.54452215E+01
  7.72261074E+00  7.72261074E+00 -1.54452215E+01  7.72261074E+00  7.72261074E+00
 -1.54452215E+01  7.72261074E+00  7.72261074E+00 -1.54452215E+01  7.72261074E+00
  7.72261074E+00 -1.54452215E+01  7.72261074E+00  7.72261074E+00 -1.54452215E+01
  7.72261074E+00  7.72261074E+00 -1.54452215E+01  7.72261074E+00  7.72261074E+00
 -1.54452215E+01  7.72261074E+00  7.72261074E+00 -1.54452215E+01  7.72261074E+00
  7.72261074E+00 -1.54452215E+01  7.72261074E+00  7.72261074E+00 -1.54452215E+01
  7.72261074E+00  7.72261074E+00 -1.54452215E+01  7.72261074E+00  7.72261074E+00
 -1.54452215E+01  7.72261074E+00  7.72261074E+00 -1.54452215E+01  7.72261074E+00
  7.72261074E+00 -1.54452215E+01  7.72261074E+00  7.72261074E+00 -1.54452215E+01
  7.72261074E+00  7.72261074E+00 -1.54452215E+01  7.72261074E+00  7.72261074E+00
 -1.54452215E+01  7.72261074E+00  7.72261074E+00 -1.54452215E+01  7.72261074E+00
  7.72261074E+00 -1.54452215E+01  7.72261074E+00  7.72261074E+00 -1.54452215E+01
  7.72261074E+00  7.72261074E+00 -1.54452215E+01  7.72261074E+00  7.72261074E+00
 -1.54452215E+01  7.72261074E+00  7.72261074E+00 -1.54452215E+01  7.72261074E+00
  7.72261074E+00 -1.54452215E+01  7.72261074E+00  7.72261074E+00 -1.54452215E+01
  7.72261074E+00  7.72261074E+00 -1.54452215E+01  7.72261074E+00  7.72261074E+00
 -1.54452215E+01  7.72261074E+00  7.72261074E+00 -1.54452215E+01  7.72261074E+00
  7.72261074E+00 -1.54452215E+01  7.72261074E+00  7.72261074E+00 -1.54452215E+01
  7.72261074E+00  7.72261074E+00 -1.54452215E+01  7.72261074E+00  7.72261074E+00
 -1.54452215E+01  7.72261074E+00  7.72261074E+00 -1.54452215E+01  7.72261074E+00
  7.72261074E+00 -1.54452215E+01  7.72261074E+00  7.72261074E+00 -1.54452215E+01
  7.72261074E+00  7.72261074E+00 -1.54452215E+01  7.72261074E+00  7.72261074E+00
 -1.54452215E+01  7.72261074E+00  7.72261074E+00 -1.54452215E+01  7.72261074E+00
  7.72261074E+00 -1.54452215E+01  7.72261074E+00  7.72261074E+00 -1.54452215E+01
  7.72261074E+00  7.72261074E+00 -1.54452215E+01  7.72261074E+00  7.72261074E+00
 -1.54452215E+01  7.72261074E+00  7.72261074E+00 -1.54452215E+01  7.72261074E+00
  7.72261074E+00 -1.54452215E+01  7.72261074E+00  7.72261074E+00 -1.54452215E+01
  7.72261074E+00  7.72261074E+00 -1.54452215E+01  7.72261074E+00  7.72261074E+00
 -1.54452215E+01  7.72261074E+00  7.72261074E+00 -1.54452215E+01  7.72261074E+00
  7.72261074E+00 -1.54452215E+01  7.72261074E+00  7.72261074E+00 -1.54452215E+01
  7.72261074E+00  7.72261074E+00 -1.54452215E+01  7.72261074E+00  7.72261074E+00
 -1.54452215E+01  7.72261074E+00  7.72261074E+00 -1.54452215E+01  7.72261074E+00
  7.72261074E+00 -1.54452215E+01  7.72261074E+00  7.72261074E+00 -1.54452215E+01
  7.72261074E+00  7.72261074E+00 -1.54452215E+01  7.72261074E+00  7.72261074E+00
 -1.54452215E+01  7.72261074E+00  7.72261074E+00 -1.54452215E+01  7.72261074E+00
  7.72261074E+00 -1.54452215E+01  7.72261074E+00  7.72261074E+00 -1.54452215E+01
  7.72261074E+00  7.72261074E+00 -1.54452215E+01  7.72261074E+00  7.72261074E+00
 -1.54452215E+01  7.72261074E+00  7.72261074E+00 -1.54452215E+01  7.72261074E+00
  7.72261074E+00 -1.54452215E+01  7.72261074E+00  7.72261074E+00 -1.54452215E+01
  7.72261074E+00  7.72261074E+00 -1.54452215E+01  7.72261074E+00  7.72261074E+00
 -1.54452215E+01  7.72261074E+00  7.72261074E+00 -1.54452215E+01  7.72261074E+00
  7.72261074E+00 -1.54452215E+01  7.72261074E+00  7.72261074E+00 -1.54452215E+01
  7.72261074E+00  7.72261074E+00 -1.54452215E+01  7.72261074E+00  7.72261074E+00
 -1.54452215E+01  7.72261074E+00  7.72261074E+00 -1.54452215E+01  7.72261074E+00
  7.72261074E+00 -1.54452215E+01  7.72261074E+00  7.72261074E+00 -1.54452215E+01
  7.72261074E+00  7.72261074E+00 -1.54452215E+01  7.72261074E+00  7.72261074E+00
 -1.54452215E+01  7.72261074E+00  7.72261074E+00 -1.54452215E+01  7.72261074E+00
  7.72261074E+00 -1.54452215E+01  7.72261074E+00  7.72261074E+00 -1.54452215E+01
  7.72261074E+00  7.72261074E+00 -1.54452215E+01  7.72261074E+00  7.72261074E+00
 -1.54452215E+01  7.72261074E+00  7.72261074E+00 -1.54452215E+01  7.72261074E+00
  7.72261074E+00 -1.54452215E+01  7.72261074E+00  7.72261074E+00 -1.54452215E+01
  7.72261074E+00  7.72261074E+00 -1.54452215E+01  7.72261074E+00  7.72261074E+00
 -1.54452215E+01  7.72261074E+00  7.72261074E+00 -1.54452215E+01  7.72261074E+00
  7.72261074E+00 -1.54452215E+01  7.72261074E+00  7.72261074E+00 -1.54452215E+01
  7.72261074E+00  7.72261074E+00 -1.54452215E+01  7.72261074E+00  7.72261074E+00
 -1.54452215E+01  7.72261074E+00  7.72261074E+00 -1.54452215E+01  7.72261074E+00
  7.72261074E+00 -1.54452215E+01  7.72261074E+00  7.72261074E+00 -1.54452215E+01
  7.72261074E+00  7.72261074E+00 -1.54452215E+01  7.72261074E+00  7.72261074E+00
 -1.54452215E+01  7.72261074E+00  7.72261074E+00 -1.54452215E+01  7.72261074E+00
  7.72261074E+00 -1.54452215E+01  7.72261074E+00  7.72261074E+00 -1.54452215E+01
  7.72261074E+00  7.72261074E+00 -1.54452215E+01  7.72261074E+00  7.72261074E+00
 -1.54452215E+01  7.72261074E+00  7.72261074E+00 -1.54452215E+01  7.72261074E+00
  7.72261074E+00 -1.54452215E+01  7.72261074E+00  7.72261074E+00 -1.54452215E+01
  7.72261074E+00  7.72261074E+00 -1.54452215E+01  7.72261074E+00  7.72261074E+00
 -1.54452215E+01  7.72261074E+00  7.72261074E+00 -1.54452215E+01  7.72261074E+00
  7.72261074E+00 -1.54452215E+01  7.72261074E+00  7.72261074E+00 -1.54452215E+01
  7.72261074E+00  7.72261074E+00 -1.54452215E+01  7.72261074E+00  7.72261074E+00
 -1.54452215E+01  7.72261074E+00  7.72261074E+00 -1.54452215E+01  7.72261074E+00
  7.72261074E+00 -1.54452215E+01  7.72261074E+00  7.72261074E+00 -1.54452215E+01
  7.72261074E+00  7.72261074E+00 -1.54452215E+01  7.72261074E+00  7.72261074E+00
 -1.54452215E+01  7.72261074E+00  7.72261074E+00 -1.54452215E+01  7.72261074E+00
  7.72261074E+00 -1.54452215E+01  7.72261074E+00  7.72261074E+00 -1.54452215E+01
  7.72261074E+00  7.72261074E+00 -1.54452215E+01  7.72261074E+00  7.72261074E+00
 -1.54452215E+01  7.72261074E+00  7.72261074E+00 -1.54452215E+01  7.72261074E+00
  7.72261074E+00 -1.54452215E+01  7.72261074E+00  7.72261074E+00 -1.54452215E+01
  7.72261074E+00  7.72261074E+00 -1.54452215E+01  7.72261074E+00  7.72261074E+00
 -1.54452215E+01  7.72261074E+00  7.72261074E+00 -1.54452215E+01  7.72261074E+00
  7.72261074E+00 -1.54452215E+01  7.72261074E+00  7.72261074E+00 -1.54452215E+01
  7.72261074E+00  7.72261074E+00 -1.54452215E+01  7.72261074E+00  7.72261074E+00
 -1.54452215E+01  7.72261074E+00  7.72261074E+00 -1.54452215E+01  7.72261074E+00
  7.72261074E+00 -1.54452215E+01  7.72261074E+00  7.72261074E+00 -1.54452215E+01
  7.72261074E+00  7.72261074E+00 -1.54452215E+01  7.72261074E+00  7.72261074E+00
 -1.54452215E+01  7.72261074E+00  7.72261074E+00 -1.54452215E+01  7.72261074E+00
  7.72261074E+00 -1.54452215E+01  7.72261074E+00  7.72261074E+00 -1.54452215E+01
  7.72261074E+00  7.72261074E+00 -1.54452215E+01  7.72261074E+00  7.72261074E+00
 -1.54452215E+01  7.72261074E+00  7.72261074E+00 -1.54452215E+01  7.72261074E+00
  7.72261074E+00 -1.54452215E+01  7.72261074E+00  7.72261074E+00 -1.54452215E+01
  7.72261074E+00  7.72261074E+00 -1.54452215E+01  7.72261074E+00  7.72261074E+00
 -1.54452215E+01  7.72261074E+00  7.72261074E+00 -1.54452215E+01  7.72261074E+00
  7.72261074E+00 -1.54452215E+01  7.72261074E+00  7.72261074E+00 -1.54452215E+01
  7.72261074E+00  7.72261074E+00 -1.54452215E+01  7.72261074E+00  7.72261074E+00
 -1.54452215E+01  7.72261074E+00  7.72261074E+00 -1.54452215E+01  7.72261074E+00
  7.72261074E+00 -1.54452215E+01  7.72261074E+00  7.72261074E+00 -1.54452215E+01
  7.72261074E+00  7.72261074E+00 -1.54452215E+01  7.72261074E+00  7.72261074E+00
 -1.54452215E+01  7.72261074E+00  7.72261074E+00 -1.54452215E+01  7.72261074E+00
  7.72261074E+00 -1.54452215E+01  7.72261074E+00  7.72261074E+00 -1.54452215E+01
  7.72261074E+00  7.72261074E+00 -1.54452215E+01  7.72261074E+00  7.72261074E+00
 -1.54452215E+01  7.72261074E+00  7.72261074E+00 -1.54452215E+01  7.72261074E+00
  7.72261074E+00 -1.54452215E+01  7.72261074E+00  7.72261074E+00 -1.54452215E+01
  7.72261074E+00  7.72261074E+00 -1.54452215E+01  7.72261074E+00  7.72261074E+00
 -1.54452215E+01  7.72261074E+00  7.72261074E+00 -1.54452215E+01  7.72261074E+00
  7.72261074E+00 -1.54452215E+01  7.72261074E+00  7.72261074E+00 -1.54452215E+01
  7.72261074E+00  7.72261074E+00 -1.54452215E+01  7.72261074E+00  7.72261074E+00
 -1.54452215E+01  7.72261074E+00  7.72261074E+00 -1.54452215E+01  7.72261074E+00
  7.72261074E+00 -1.54452215E+01  7.72261074E+00  7.72261074E+00 -1.54452215E+01
  7.72261074E+00  7.72261074E+00 -1.54452215E+01  7.72261074E+00  7.72261074E+00
 -1.54452215E+01  7.72261074E+00  7.72261074E+00 -1.54452215E+01  7.72261074E+00
  7.72261074E+00 -1.54452215E+01  7.72261074E+00  7.72261074E+00 -1.54452215E+01
  7.72261074E+00  7.72261074E+00 -1.54452215E+01  7.72261074E+00  7.72261074E+00
 -1.54452215E+01  7.72261074E+00  7.72261074E+00 -1.54452215E+01  7.72261074E+00
  7.72261074E+00 -1.54452215E+01  7.72261074E+00  7.72261074E+00 -1.54452215E+01
  7.72261074E+00  7.72261074E+00 -1.54452215E+01  7.72261074E+00  7.72261074E+00
 -1.54452215E+01  7.72261074E+00  7.72261074E+00 -1.54452215E+01  7.72261074E+00
  7.72261074E+00 -1.54452215E+01  7.72261074E+00  7.72261074E+00 -1.54452215E+01
  7.72261074E+00  7.72261074E+00 -1.54452215E+01  7.72261074E+00  7.72261074E+00
 -1.54452215E+01  7.72261074E+00  7.72261074E+00 -1.54452215E+01  7.72261074E+00
  7.72261074E+00 -1.54452215E+01  7.72261074E+00  7.72261074E+00 -1.54452215E+01
  7.72261074E+00  7.72261074E+00 -1.54452215E+01  7.72261074E+00  7.72261074E+00
 -1.54452215E+01  7.72261074E+00  7.72261074E+00 -1.54452215E+01  7.72261074E+00
  7.72261074E+00 -1.54452215E+01  7.72261074E+00  7.72261074E+00 -1.54452215E+01
  7.72261074E+00  7.72261074E+00 -1.54452215E+01  7.72261074E+00  7.72261074E+00
 -1.54452215E+01  7.72261074E+00  7.72261074E+00 -1.54452215E+01  7.72261074E+00
  7.72261074E+00 -1.54452215E+01  7.72261074E+00  7.72261074E+00 -1.54452215E+01
  7.72261074E+00  7.72261074E+00 -1.54452215E+01  7.72261074E+00  7.72261074E+00
 -1.54452215E+01  7.72261074E+00  7.72261074E+00 -1.54452215E+01  7.72261074E+00
  7.72261074E+00 -1.54452215E+01  7.72261074E+00  7.72261074E+00 -1.54452215E+01
  7.72261074E+00  7.72261074E+00 -1.54452215E+01  7.72261074E+00  7.72261074E+00
 -1.54452215E+01  7.72261074E+00  7.72261074E+00 -1.54452215E+01  7.72261074E+00
  7.72261074E+00 -1.54452215E+01  7.72261074E+00  7.72261074E+00 -1.54452215E+01
  7.72261074E+00  7.72261074E+00 -1.54452215E+01  7.72261074E+00  7.72261074E+00
 -1.54452215E+01  7.72261074E+00  7.72261074E+00 -1.54452215E+01  7.72261074E+00
  7.72261074E+00 -1.54452215E+01  7.72261074E+00  7.72261074E+00 -1.54452215E+01
  7.72261074E+00  7.72261074E+00 -1.54452215E+01  7.72261074E+00  7.72261074E+00
 -1.54452215E+01  7.72261074E+00  7.72261074E+00 -1.54452215E+01  7.72261074E+00
  7.72261074E+00 -1.54452215E+01  7.72261074E+00  7.72261074E+00 -1.54452215E+01
  7.72261074E+00  7.72261074E+00 -1.54452215E+01  7.72261074E+00  7.72261074E+00
 -1.54452215E+01  7.72261074E+00  7.72261074E+00 -1.54452215E+01  7.72261074E+00
  7.72261074E+00 -1.54452215E+01  7.72261074E+00  7.72261074E+00 -1.54452215E+01
  7.72261074E+00  7.72261074E+00 -1.54452215E+01  7.72261074E+00  7.72261074E+00
 -1.54452215E+01  7.72261074E+00  7.72261074E+00 -1.54452215E+01  7.72261074E+00
  7.72261074E+00 -1.54452215E+01  7.72261074E+00  7.72261074E+00 -1.54452215E+01
  7.72261074E+00  7.72261074E+00 -1.54452215E+01  7.72261074E+00  7.72261074E+00
 -1.54452215E+01  7.72261074E+00  7.72261074E+00 -1.54452215E+01  7.72261074E+00
  7.72261074E+00 -1.54452215E+01  7.72261074E+00  7.72261074E+00 -1.54452215E+01
  7.72261074E+00  7.72261074E+00 -1.54452215E+01  7.72261074E+00  7.72261074E+00
 -1.54452215E+01  7.72261074E+00  7.72261074E+00 -1.54452215E+01  7.72261074E+00
  7.72261074E+00 -1.54452215E+01  7.72261074E+00  7.72261074E+00 -1.54452215E+01
  7.72261074E+00  7.72261074E+00 -1.54452215E+01  7.72261074E+00  7.72261074E+00
 -1.54452215E+01  7.72261074E+00  7.72261074E+00 -1.54452215E+01  7.72261074E+00
  7.72261074E+00 -1.54452215E+01  7.72261074E+00  7.72261074E+00 -1.54452215E+01
  7.72261074E+00  7.72261074E+00 -1.54452215E+01  7.72261074E+00  7.72261074E+00
 -1.54452215E+01  7.72261074E+00  7.72261074E+00 -1.54452215E+01  7.72261074E+00
  7.72261074E+00 -1.54452215E+01  7.72261074E+00  7.72261074E+00 -1.54452215E+01
  7.72261074E+00  7.72261074E+00 -1.54452215E+01  7.72261074E+00  7.72261074E+00
 -1.54452215E+01  7.72261074E+00  7.72261074E+00 -1.54452215E+01  7.72261074E+00
  7.72261074E+00 -1.54452215E+01  7.72261074E+00  7.72261074E+00 -1.54452215E+01
  7.72261074E+00  7.72261074E+00 -1.54452215E+01  7.72261074E+00  7.72261074E+00
 -1.54452215E+01  7.72261074E+00  7.72261074E+00 -1.54452215E+01  7.72261074E+00
  7.72261074E+00 -1.54452215E+01  7.72261074E+00  7.72261074E+00 -1.54452215E+01
  7.72261074E+00  7.72261074E+00 -1.54452215E+01  7.72261074E+00  7.72261074E+00
 -1.54452215E+01  7.72261074E+00  7.72261074E+00 -1.54452215E+01  7.72261074E+00
  7.72261074E+00 -1.54452215E+01  7.72261074E+00  7.72261074E+00 -1.54452215E+01
  7.72261074E+00  7.72261074E+00 -1.54452215E+01  7.72261074E+00  7.72261074E+00
 -1.54452215E+01  7.72261074E+00  7.72261074E+00 -1.54452215E+01  7.72261074E+00
  7.72261074E+00 -1.54452215E+01  7.72261074E+00  7.72261074E+00 -1.54452215E+01
  7.72261074E+00  7.72261074E+00 -1.54452215E+01  7.72261074E+00  7.72261074E+00
 -1.54452215E+01  7.72261074E+00  7.72261074E+00 -1.54452215E+01  7.72261074E+00
  7.72261074E+00 -1.54452215E+01  7.72261074E+00  7.72261074E+00 -1.54452215E+01
  7.72261074E+00  7.72261074E+00 -1.54452215E+01  7.72261074E+00  7.72261074E+00
 -1.54452215E+01  7.72261074E+00  7.72261074E+00 -1.54452215E+01  7.72261074E+00
  7.72261074E+00 -1.54452215E+01  7.72261074E+00  7.72261074E+00 -1.54452215E+01
  7.72261074E+00  7.72261074E+00 -1.54452215E+01  7.72261074E+00  7.72261074E+00
 -1.54452215E+01  7.72261074E+00  7.72261074E+00 -1.54452215E+01  7.72261074E+00
  7.72261074E+00 -1.54452215E+01  7.72261074E+00  7.72261074E+00 -1.54452215E+01
  7.72261074E+00  7.72261074E+00 -1.54452215E+01  7.72261074E+00  7.72261074E+00
 -1.54452215E+01  7.72261074E+00  7.72261074E+00 -1.54452215E+01  7.72261074E+00
  7.72261074E+00 -1.54452215E+01  7.72261074E+00  7.72261074E+00 -1.54452215E+01
  7.72261074E+00  7.72261074E+00 -1.54452215E+01  7.72261074E+00  7.72261074E+00
 -1.54452215E+01  7.72261074E+00  7.72261074E+00 -1.54452215E+01  7.72261074E+00
  7.72261074E+00 -1.54452215E+01  7.72261074E+00  7.72261074E+00 -1.54452215E+01
  7.72261074E+00  7.72261074E+00 -1.54452215E+01  7.72261074E+00  7.72261074E+00
 -1.54452215E+01  7.72261074E+00  7.72261074E+00 -1.54452215E+01  7.72261074E+00
  7.72261074E+00 -1.54452215E+01  7.72261074E+00  7.72261074E+00 -1.54452215E+01
  7.72261074E+00  7.72261074E+00 -1.54452215E+01  7.72261074E+00  7.72261074E+00
 -1.54452215E+01  7.72261074E+00  7.72261074E+00 -1.54452215E+01  7.72261074E+00
  7.72261074E+00 -1.54452215E+01  7.72261074E+00  7.72261074E+00 -1.54452215E+01
  7.72261074E+00  7.72261074E+00 -1.54452215E+01  7.72261074E+00  7.72261074E+00
 -1.54452215E+01  7.72261074E+00  7.72261074E+00 -1.54452215E+01  7.72261074E+00
  7.72261074E+00 -1.54452215E+01  7.72261074E+00  7.72261074E+00 -1.54452215E+01
  7.72261074E+00  7.72261074E+00 -1.54452215E+01  7.72261074E+00  7.72261074E+00
 -1.54452215E+01  7.72261074E+00  7.72261074E+00 -1.54452215E+01  7.72261074E+00
  7.72261074E+00 -1.54452215E+01  7.72261074E+00  7.72261074E+00 -1.54452215E+01
  7.72261074E+00  7.72261074E+00 -1.54452215E+01  7.72261074E+00  7.72261074E+00
 -1.54452215E+01  7.72261074E+00  7.72261074E+00 -1.54452215E+01  7.72261074E+00
  7.72261074E+00 -1.54452215E+01  7.72261074E+00  7.72261074E+00 -1.54452215E+01
  7.72261074E+00  7.72261074E+00 -1.54452215E+01  7.72261074E+00  7.72261074E+00
 -1.54452215E+01  7.72261074E+00  7.72261074E+00 -1.54452215E+01  7.72261074E+00
  7.72261074E+00 -1.54452215E+01  7.72261074E+00  7.72261074E+00 -1.54452215E+01
  7.72261074E+00  7.72261074E+00 -1.54452215E+01  7.72261074E+00  7.72261074E+00
 -1.54452215E+01  7.72261074E+00  7.72261074E+00 -1.54452215E+01  7.72261074E+00
  7.72261074E+00 -1.54452215E+01  7.72261074E+00  7.72261074E+00 -1.54452215E+01
  7.72261074E+00  7.72261074E+00 -1.54452215E+01  7.72261074E+00  7.72261074E+00
 -1.54452215E+01  7.72261074E+00  7.72261074E+00 -1.54452215E+01  7.72261074E+00
  7.72261074E+00 -1.54452215E+01  7.72261074E+00  7.72261074E+00 -1.54452215E+01
  7.72261074E+00  7.72261074E+00 -1.54452215E+01  7.72261074E+00  7.72261074E+00
 -1.54452215E+01  7.72261074E+00  7.72261074E+00 -1.54452215E+01  7.72261074E+00
  7.72261074E+00 -1.54452215E+01  7.72261074E+00  7.72261074E+00 -1.54452215E+01
  7.72261074E+00  7.72261074E+00 -1.54452215E+01  7.72261074E+00  7.72261074E+00
 -1.54452215E+01  7.72261074E+00  7.72261074E+00 -1.54452215E+01  7.72261074E+00
  7.72261074E+00 -1.54452215E+01  7.72261074E+00  7.72261074E+00 -1.54452215E+01
  7.72261074E+00  7.72261074E+00 -1.54452215E+01  7.72261074E+00  7.72261074E+00
 -1.54452215E+01  7.72261074E+00  7.72261074E+00 -1.54452215E+01  7.72261074E+00
  7.72261074E+00 -1.54452215E+01  7.72261074E+00  7.72261074E+00 -1.54452215E+01
  7.72261074E+00  7.72261074E+00 -1.54452215E+01  7.72261074E+00  7.72261074E+00
 -1.54452215E+01  7.72261074E+00  7.72261074E+00 -1.54452215E+01  7.72261074E+00
  7.72261074E+00 -1.54452215E+01  7.72261074E+00  7.72261074E+00 -1.54452215E+01
  7.72261074E+00  7.72261074E+00 -1.54452215E+01  7.72261074E+00  7.72261074E+00
 -1.54452215E+01  7.72261074E+00  7.72261074E+00 -1.54452215E+01  7.72261074E+00
  7.72261074E+00 -1.54452215E+01  7.72261074E+00  7.72261074E+00 -1.54452215E+01
  7.72261074E+00  7.72261074E+00 -1.54452215E+01  7.72261074E+00  7.72261074E+00
 -1.54452215E+01  7.72261074E+00  7.72261074E+00 -1.54452215E+01  7.72261074E+00
  7.72261074E+00 -1.54452215E+01  7.72261074E+00  7.72261074E+00 -1.54452215E+01
  7.72261074E+00  7.72261074E+00 -1.54452215E+01  7.72261074E+00  7.72261074E+00
 -1.54452215E+01  7.72261074E+00  7.72261074E+00 -1.54452215E+01  7.72261074E+00
  7.72261074E+00 -1.54452215E+01  7.72261074E+00  7.72261074E+00 -1.54452215E+01
  7.72261074E+00  7.72261074E+00 -1.54452215E+01  7.72261074E+00  7.72261074E+00
 -1.54452215E+01  7.72261074E+00  7.72261074E+00 -1.54452215E+01  7.72261074E+00
  7.72261074E+00 -1.54452215E+01  7.72261074E+00  7.72261074E+00 -1.54452215E+01
  7.72261074E+00  7.72261074E+00 -1.54452215E+01  7.72261074E+00  7.72261074E+00
 -1.54452215E+01  7.72261074E+00  7.72261074E+00 -1.54452215E+01  7.72261074E+00
  7.72261074E+00 -1.54452215E+01  7.72261074E+00  7.72261074E+00 -1.54452215E+01
  7.72261074E+00  7.72261074E+00 -1.54452215E+01  7.72261074E+00  7.72261074E+00
 -1.54452215E+01  7.72261074E+00  7.72261074E+00 -1.54452215E+01  7.72261074E+00
  7.72261074E+00 -1.54452215E+01  7.72261074E+00  7.72261074E+00 -1.54452215E+01
  7.72261074E+00  7.72261074E+00 -1.54452215E+01  7.72261074E+00  7.72261074E+00
 -1.54452215E+01  7.72261074E+00  7.72261074E+00 -1.54452215E+01  7.72261074E+00
  7.72261074E+00 -1.54452215E+01  7.72261074E+00  7.72261074E+00 -1.54452215E+01
  7.72261074E+00  7.72261074E+00 -1.54452215E+01  7.72261074E+00  7.72261074E+00
 -1.54452215E+01  7.72261074E+00  7.72261074E+00 -1.54452215E+01  7.72261074E+00
  7.72261074E+00 -1.54452215E+01  7.72261074E+00  7.72261074E+00 -1.54452215E+01
  7.72261074E+00  7.72261074E+00 -1.54452215E+01  7.72261074E+00  7.72261074E+00
 -1.54452215E+01  7.72261074E+00  7.72261074E+00 -1.54452215E+01  7.72261074E+00
  7.72261074E+00 -1.54452215E+01  7.72261074E+00  7.72261074E+00 -1.54452215E+01
  7.72261074E+00  7.72261074E+00 -1.54452215E+01  7.72261074E+00  7.72261074E+00
 -1.54452215E+01  7.72261074E+00  7.72261074E+00 -1.54452215E+01  7.72261074E+00
  7.72261074E+00 -1.54452215E+01  7.72261074E+00  7.72261074E+00 -1.54452215E+01
  7.72261074E+00  7.72261074E+00 -1.54452215E+01  7.72261074E+00  7.72261074E+00
 -1.54452215E+01  7.72261074E+00  7.72261074E+00 -1.54452215E+01  7.72261074E+00
  7.72261074E+00 -1.54452215E+01  7.72261074E+00  7.72261074E+00 -1.54452215E+01
  7.72261074E+00  7.72261074E+00 -1.54452215E+01  7.72261074E+00  7.72261074E+00
 -1.54452215E+01  7.72261074E+00  7.72261074E+00 -1.54452215E+01  7.72261074E+00
  7.72261074E+00 -1.54452215E+01  7.72261074E+00  7.72261074E+00 -1.54452215E+01
  7.72261074E+00  7.72261074E+00 -1.54452215E+01  7.72261074E+00  7.72261074E+00
 -1.54452215E+01  7.72261074E+00  7.72261074E+00 -1.54452215E+01  7.72261074E+00
  7.72261074E+00 -1.54452215E+01  7.72261074E+00  7.72261074E+00 -1.54452215E+01
  7.72261074E+00  7.72261074E+00 -1.54452215E+01  7.72261074E+00  7.72261074E+00
 -1.54452215E+01  7.72261074E+00  7.72261074E+00 -1.54452215E+01  7.72261074E+00
  7.72261074E+00 -1.54452215E+01  7.72261074E+00  7.72261074E+00 -1.54452215E+01
  7.72261074E+00  7.72261074E+00 -1.54452215E+01  7.72261074E+00  7.72261074E+00
 -1.54452215E+01  7.72261074E+00  7.72261074E+00 -1.54452215E+01  7.72261074E+00
  7.72261074E+00 -1.54452215E+01  7.72261074E+00  7.72261074E+00 -1.54452215E+01
  7.72261074E+00  7.72261074E+00 -1.54452215E+01  7.72261074E+00  7.72261074E+00
 -1.54452215E+01  7.72261074E+00  7.72261074E+00 -1.54452215E+01  7.72261074E+00
  7.72261074E+00 -1.54452215E+01  7.72261074E+00  7.72261074E+00 -1.54452215E+01
  7.72261074E+00  7.72261074E+00 -1.54452215E+01  7.72261074E+00  7.72261074E+00
 -1.54452215E+01  7.72261074E+00  7.72261074E+00 -1.54452215E+01  7.72261074E+00
  7.72261074E+00 -1.54452215E+01  7.72261074E+00  7.72261074E+00 -1.54452215E+01
  7.72261074E+00  7.72261074E+00 -1.54452215E+01  7.72261074E+00  7.72261074E+00
 -1.54452215E+01  7.72261074E+00  7.72261074E+00 -1.54452215E+01  7.72261074E+00
  7.72261074E+00 -1.54452215E+01  7.72261074E+00  7.72261074E+00 -1.54452215E+01
  7.72261074E+00  7.72261074E+00 -1.54452215E+01  7.72261074E+00  7.72261074E+00
 -1.54452215E+01  7.72261074E+00  7.72261074E+00 -1.54452215E+01  7.72261074E+00
  7.72261074E+00 -1.54452215E+01  7.72261074E+00  7.72261074E+00 -1.54452215E+01
  7.72261074E+00  7.72261074E+00 -1.54452215E+01  7.72261074E+00  7.72261074E+00
 -1.54452215E+01  7.72261074E+00  7.72261074E+00 -1.54452215E+01  7.72261074E+00
  7.72261074E+00 -1.54452215E+01  7.72261074E+00  7.72261074E+00 -1.54452215E+01
  7.72261074E+00  7.72261074E+00 -1.54452215E+01  7.72261074E+00  7.72261074E+00
 -1.54452215E+01  7.72261074E+00  7.72261074E+00 -1.54452215E+01  7.72261074E+00
  7.72261074E+00 -1.54452215E+01  7.72261074E+00  7.72261074E+00 -1.54452215E+01
  7.72261074E+00  7.72261074E+00 -1.54452215E+01  7.72261074E+00  7.72261074E+00
 -1.54452215E+01  7.72261074E+00  7.72261074E+00 -1.54452215E+01  7.72261074E+00
  7.72261074E+00 -1.54452215E+01  7.72261074E+00  7.72261074E+00 -1.54452215E+01
  7.72261074E+00  7.72261074E+00 -1.54452215E+01  7.72261074E+00  7.72261074E+00
 -1.54452215E+01  7.72261074E+00  7.72261074E+00 -1.54452215E+01  7.72261074E+00
  7.72261074E+00 -1.54452215E+01  7.72261074E+00  7.72261074E+00 -1.54452215E+01
  7.72261074E+00  7.72261074E+00 -1.54452215E+01  7.72261074E+00  7.72261074E+00
 -1.54452215E+01  7.72261074E+00  7.72261074E+00 -1.54452215E+01  7.72261074E+00
  7.72261074E+00 -1.54452215E+01  7.72261074E+00  7.72261074E+00 -1.54452215E+01
  7.72261074E+00  7.72261074E+00 -1.54452215E+01  7.72261074E+00  7.72261074E+00
 -1.54452215E+01  7.72261074E+00  7.72261074E+00 -1.54452215E+01  7.72261074E+00
  7.72261074E+00 -1.54452215E+01  7.72261074E+00  7.72261074E+00 -1.54452215E+01
  7.72261074E+00  7.72261074E+00 -1.54452215E+01  7.72261074E+00  7.72261074E+00
 -1.54452215E+01  7.72261074E+00  7.72261074E+00 -1.54452215E+01  7.72261074E+00
  7.72261074E+00 -1.54452215E+01  7.72261074E+00  7.72261074E+00 -1.54452215E+01
  7.72261074E+00  7.72261074E+00 -1.54452215E+01  7.72261074E+00  7.72261074E+00
 -1.54452215E+01  7.72261074E+00  7.72261074E+00 -1.54452215E+01  7.72261074E+00
  7.72261074E+00 -1.54452215E+01  7.72261074E+00  7.72261074E+00 -1.54452215E+01
  7.72261074E+00  7.72261074E+00 -1.54452215E+01  7.72261074E+00  7.72261074E+00
 -1.54452215E+01  7.72261074E+00  7.72261074E+00 -1.54452215E+01  7.72261074E+00
  7.72261074E+00 -1.54452215E+01  7.72261074E+00  7.72261074E+00 -1.54452215E+01
  7.72261074E+00  7.72261074E+00 -1.54452215E+01  7.72261074E+00  7.72261074E+00
 -1.54452215E+01  7.72261074E+00  7.72261074E+00 -1.54452215E+01  7.72261074E+00
  7.72261074E+00 -1.54452215E+01  7.72261074E+00  7.72261074E+00 -1.54452215E+01
  7.72261074E+00  7.72261074E+00 -1.54452215E+01  7.72261074E+00  7.72261074E+00
 -1.54452215E+01  7.72261074E+00  7.72261074E+00 -1.54452215E+01  7.72261074E+00
  7.72261074E+00 -1.54452215E+01  7.72261074E+00  7.72261074E+00 -1.54452215E+01
  7.72261074E+00  7.72261074E+00 -1.54452215E+01  7.72261074E+00  7.72261074E+00
 -1.54452215E+01  7.72261074E+00  7.72261074E+00 -1.54452215E+01  7.72261074E+00
  7.72261074E+00 -1.54452215E+01  7.72261074E+00  7.72261074E+00 -1.54452215E+01
  7.72261074E+00  7.72261074E+00 -1.54452215E+01  7.72261074E+00  7.72261074E+00
 -1.54452215E+01  7.72261074E+00  7.72261074E+00 -1.54452215E+01  7.72261074E+00
  7.72261074E+00 -1.54452215E+01  7.72261074E+00  7.72261074E+00 -1.54452215E+01
  7.72261074E+00  7.72261074E+00 -1.54452215E+01  7.72261074E+00  7.72261074E+00
 -1.54452215E+01  7.72261074E+00  7.72261074E+00 -1.54452215E+01  7.72261074E+00
  7.72261074E+00 -1.54452215E+01  7.72261074E+00  7.72261074E+00 -1.54452215E+01
  7.72261074E+00  7.72261074E+00 -1.54452215E+01  7.72261074E+00  7.72261074E+00
 -1.54452215E+01  7.72261074E+00  7.72261074E+00 -1.54452215E+01  7.72261074E+00
  7.72261074E+00 -1.54452215E+01  7.72261074E+00  7.72261074E+00 -1.54452215E+01
  7.72261074E+00  7.72261074E+00 -1.54452215E+01  7.72261074E+00  7.72261074E+00
 -1.54452215E+01  7.72261074E+00  7.72261074E+00 -1.54452215E+01  7.72261074E+00
  7.72261074E+00 -1.54452215E+01  7.72261074E+00  7.72261074E+00 -1.54452215E+01
  7.72261074E+00  7.72261074E+00 -1.54452215E+01  7.72261074E+00  7.72261074E+00
 -1.54452215E+01  7.72261074E+00  7.72261074E+00 -1.54452215E+01  7.72261074E+00
  7.72261074E+00 -1.54452215E+01  7.72261074E+00  7.72261074E+00 -1.54452215E+01
  7.72261074E+00  7.72261074E+00 -1.54452215E+01  7.72261074E+00  7.72261074E+00
 -1.54452215E+01  7.72261074E+00  7.72261074E+00 -1.54452215E+01  7.72261074E+00
  7.72261074E+00 -1.54452215E+01  7.72261074E+00  7.72261074E+00 -1.54452215E+01
  7.72261074E+00  7.72261074E+00 -1.54452215E+01  7.72261074E+00  7.72261074E+00
 -1.54452215E+01  7.72261074E+00  7.72261074E+00 -1.54452215E+01  7.72261074E+00
  7.72261074E+00 -1.54452215E+01  7.72261074E+00  7.72261074E+00 -1.54452215E+01
  7.72261074E+00  7.72261074E+00 -1.54452215E+01  7.72261074E+00  7.72261074E+00
 -1.54452215E+01  7.72261074E+00  7.72261074E+00 -1.54452215E+01  7.72261074E+00
  7.72261074E+00 -1.54452215E+01  7.72261074E+00  7.72261074E+00 -1.54452215E+01
  7.72261074E+00  7.72261074E+00 -1.54452215E+01  7.72261074E+00  7.72261074E+00
 -1.54452215E+01  7.72261074E+00  7.72261074E+00 -1.54452215E+01  7.72261074E+00
  7.72261074E+00 -1.54452215E+01  7.72261074E+00  7.72261074E+00 -1.54452215E+01
  7.72261074E+00  7.72261074E+00 -1.54452215E+01  7.72261074E+00  7.72261074E+00
 -1.54452215E+01  7.72261074E+00  7.72261074E+00 -1.54452215E+01  7.72261074E+00
  7.72261074E+00 -1.54452215E+01  7.72261074E+00  7.72261074E+00 -1.54452215E+01
  7.72261074E+00  7.72261074E+00 -1.54452215E+01  7.72261074E+00  7.72261074E+00
 -1.54452215E+01  7.72261074E+00  7.72261074E+00 -1.54452215E+01  7.72261074E+00
  7.72261074E+00 -1.54452215E+01  7.72261074E+00  7.72261074E+00 -1.54452215E+01
  7.72261074E+00  7.72261074E+00 -1.54452215E+01  7.72261074E+00  7.72261074E+00
 -1.54452215E+01  7.72261074E+00  7.72261074E+00 -1.54452215E+01  7.72261074E+00
  7.72261074E+00 -1.54452215E+01  7.72261074E+00  7.72261074E+00 -1.54452215E+01
  7.72261074E+00  7.72261074E+00 -1.54452215E+01  7.72261074E+00  7.72261074E+00
 -1.54452215E+01  7.72261074E+00  7.72261074E+00 -1.54452215E+01  7.72261074E+00
  7.72261074E+00 -1.54452215E+01  7.72261074E+00  7.72261074E+00 -1.54452215E+01
  7.72261074E+00  7.72261074E+00 -1.54452215E+01  7.72261074E+00  7.72261074E+00
 -1.54452215E+01  7.72261074E+00  7.72261074E+00 -1.54452215E+01  7.72261074E+00
  7.72261074E+00 -1.54452215E+01  7.72261074E+00  7.72261074E+00 -1.54452215E+01
  7.72261074E+00  7.72261074E+00 -1.54452215E+01  7.72261074E+00  7.72261074E+00
 -1.54452215E+01  7.72261074E+00  7.72261074E+00 -1.54452215E+01  7.72261074E+00
  7.72261074E+00 -1.54452215E+01  7.72261074E+00  7.72261074E+00 -1.54452215E+01
  7.72261074E+00  7.72261074E+00 -1.54452215E+01  7.72261074E+00  7.72261074E+00
 -1.54452215E+01  7.72261074E+00  7.72261074E+00 -1.54452215E+01  7.72261074E+00
  7.72261074E+00 -1.54452215E+01  7.72261074E+00  7.72261074E+00 -1.54452215E+01
  7.72261074E+00  7.72261074E+00 -1.54452215E+01  7.72261074E+00  7.72261074E+00
 -1.54452215E+01  7.72261074E+00  7.72261074E+00 -1.54452215E+01  7.72261074E+00
  7.72261074E+00 -1.54452215E+01  7.72261074E+00  7.72261074E+00 -1.54452215E+01
  7.72261074E+00  7.72261074E+00 -1.54452215E+01  7.72261074E+00  7.72261074E+00
 -1.54452215E+01  7.72261074E+00  7.72261074E+00 -1.54452215E+01  7.72261074E+00
  7.72261074E+00 -1.54452215E+01  7.72261074E+00  7.72261074E+00 -1.54452215E+01
  7.72261074E+00  7.72261074E+00 -1.54452215E+01  7.72261074E+00  7.72261074E+00
 -1.54452215E+01  7.72261074E+00  7.72261074E+00 -1.54452215E+01  7.72261074E+00
  7.72261074E+00 -1.54452215E+01  7.72261074E+00  7.72261074E+00 -1.54452215E+01
  7.72261074E+00  7.72261074E+00 -1.54452215E+01  7.72261074E+00  7.72261074E+00
 -1.54452215E+01  7.72261074E+00  7.72261074E+00 -1.54452215E+01  7.72261074E+00
  7.72261074E+00 -1.54452215E+01  7.72261074E+00  7.72261074E+00 -1.54452215E+01
  7.72261074E+00  7.72261074E+00 -1.54452215E+01  7.72261074E+00  7.72261074E+00
 -1.54452215E+01  7.72261074E+00  7.72261074E+00 -1.54452215E+01  7.72261074E+00
  7.72261074E+00 -1.54452215E+01  7.72261074E+00  7.72261074E+00 -1.54452215E+01
  7.72261074E+00  7.72261074E+00 -1.54452215E+01  7.72261074E+00  7.72261074E+00
 -1.54452215E+01  7.72261074E+00  7.72261074E+00 -1.54452215E+01  7.72261074E+00
  7.72261074E+00 -1.54452215E+01  7.72261074E+00  7.72261074E+00 -1.54452215E+01
  7.72261074E+00  7.72261074E+00 -1.54452215E+01  7.72261074E+00  7.72261074E+00
 -1.54452215E+01  7.72261074E+00  7.72261074E+00 -1.54452215E+01  7.72261074E+00
  7.72261074E+00 -1.54452215E+01  7.72261074E+00  7.72261074E+00 -1.54452215E+01
  7.72261074E+00  7.72261074E+00 -1.54452215E+01  7.72261074E+00  7.72261074E+00
 -1.54452215E+01  7.72261074E+00  7.72261074E+00 -1.54452215E+01  7.72261074E+00
  7.72261074E+00 -1.54452215E+01  7.72261074E+00  7.72261074E+00 -1.54452215E+01
  7.72261074E+00  7.72261074E+00 -1.54452215E+01  7.72261074E+00  7.72261074E+00
 -1.54452215E+01  7.72261074E+00  7.72261074E+00 -1.54452215E+01  7.72261074E+00
  7.72261074E+00 -1.54452215E+01  7.72261074E+00  7.72261074E+00 -1.54452215E+01
  7.72261074E+00  7.72261074E+00 -1.54452215E+01  7.72261074E+00  7.72261074E+00
 -1.54452215E+01  7.72261074E+00  7.72261074E+00 -1.54452215E+01  7.72261074E+00
  7.72261074E+00 -1.54452215E+01  7.72261074E+00  7.72261074E+00 -1.54452215E+01
  7.72261074E+00  7.72261074E+00 -1.54452215E+01  7.72261074E+00  7.72261074E+00
 -1.54452215E+01  7.72261074E+00  7.72261074E+00 -1.54452215E+01  7.72261074E+00
  7.72261074E+00 -1.54452215E+01  7.72261074E+00  7.72261074E+00 -1.54452215E+01
  7.72261074E+00  7.72261074E+00 -1.54452215E+01  7.72261074E+00  7.72261074E+00
 -1.54452215E+01  7.72261074E+00  7.72261074E+00 -1.54452215E+01  7.72261074E+00
  7.72261074E+00 -1.54452215E+01  7.72261074E+00  7.72261074E+00 -1.54452215E+01
  7.72261074E+00  7.72261074E+00 -1.54452215E+01  7.72261074E+00  7.72261074E+00
 -1.54452215E+01  7.72261074E+00  7.72261074E+00 -1.54452215E+01  7.72261074E+00
  7.72261074E+00 -1.54452215E+01  7.72261074E+00  7.72261074E+00 -1.54452215E+01
  7.72261074E+00  7.72261074E+00 -1.54452215E+01  7.72261074E+00  7.72261074E+00
 -1.54452215E+01  7.72261074E+00  7.72261074E+00 -1.54452215E+01  7.72261074E+00
  7.72261074E+00 -1.54452215E+01  7.72261074E+00  7.72261074E+00 -1.54452215E+01
  7.72261074E+00  7.72261074E+00 -1.54452215E+01  7.72261074E+00  7.72261074E+00
 -1.54452215E+01  7.72261074E+00  7.72261074E+00 -1.54452215E+01  7.72261074E+00
  7.72261074E+00 -1.54452215E+01  7.72261074E+00  7.72261074E+00 -1.54452215E+01
  7.72261074E+00  7.72261074E+00 -1.54452215E+01  7.72261074E+00  7.72261074E+00
 -1.54452215E+01  7.72261074E+00  7.72261074E+00 -1.54452215E+01  7.72261074E+00
  7.72261074E+00 -1.54452215E+01  7.72261074E+00  7.72261074E+00 -1.54452215E+01
  7.72261074E+00  7.72261074E+00 -1.54452215E+01  7.72261074E+00  7.72261074E+00
 -1.54452215E+01  7.72261074E+00  7.72261074E+00 -1.54452215E+01  7.72261074E+00
  7.72261074E+00 -1.54452215E+01  7.72261074E+00  7.72261074E+00 -1.54452215E+01
  7.72261074E+00  7.72261074E+00 -1.54452215E+01  7.72261074E+00  7.72261074E+00
 -1.54452215E+01  7.72261074E+00  7.72261074E+00 -1.54452215E+01  7.72261074E+00
  7.72261074E+00 -1.54452215E+01  7.72261074E+00  7.72261074E+00 -1.54452215E+01
  7.72261074E+00  7.72261074E+00 -1.54452215E+01  7.72261074E+00  7.72261074E+00
 -1.54452215E+01  7.72261074E+00  7.72261074E+00 -1.54452215E+01  7.72261074E+00
  7.72261074E+00 -1.54452215E+01  7.72261074E+00  7.72261074E+00 -1.54452215E+01
  7.72261074E+00  7.72261074E+00 -1.54452215E+01  7.72261074E+00  7.72261074E+00
 -1.54452215E+01  7.72261074E+00  7.72261074E+00 -1.54452215E+01  7.72261074E+00
  7.72261074E+00 -1.54452215E+01  7.72261074E+00  7.72261074E+00 -1.54452215E+01
  7.72261074E+00  7.72261074E+00 -1.54452215E+01  7.72261074E+00  7.72261074E+00
 -1.54452215E+01  7.72261074E+00  7.72261074E+00 -1.54452215E+01  7.72261074E+00
  7.72261074E+00 -1.54452215E+01  7.72261074E+00  7.72261074E+00 -1.54452215E+01
  7.72261074E+00  7.72261074E+00 -1.54452215E+01  7.72261074E+00  7.72261074E+00
 -1.54452215E+01  7.72261074E+00  7.72261074E+00 -1.54452215E+01  7.72261074E+00
  7.72261074E+00 -1.54452215E+01  7.72261074E+00  7.72261074E+00 -1.54452215E+01
  7.72261074E+00  7.72261074E+00 -1.54452215E+01  7.72261074E+00  7.72261074E+00
 -1.54452215E+01  7.72261074E+00  7.72261074E+00 -1.54452215E+01  7.72261074E+00
  7.72261074E+00 -1.54452215E+01  7.72261074E+00  7.72261074E+00 -1.54452215E+01
  7.72261074E+00  7.72261074E+00 -1.54452215E+01  7.72261074E+00  7.72261074E+00
 -1.54452215E+01  7.72261074E+00  7.72261074E+00 -1.54452215E+01  7.72261074E+00
  7.72261074E+00 -1.54452215E+01  7.72261074E+00  7.72261074E+00 -1.54452215E+01
  7.72261074E+00  7.72261074E+00 -1.54452215E+01  7.72261074E+00  7.72261074E+00
 -1.54452215E+01  7.72261074E+00  7.72261074E+00 -1.54452215E+01  7.72261074E+00
  7.72261074E+00 -1.54452215E+01  7.72261074E+00  7.72261074E+00 -1.54452215E+01
  7.72261074E+00  7.72261074E+00 -1.54452215E+01  7.72261074E+00  7.72261074E+00
 -1.54452215E+01  7.72261074E+00  7.72261074E+00 -1.54452215E+01  7.72261074E+00
  7.72261074E+00 -1.54452215E+01  7.72261074E+00  7.72261074E+00 -1.54452215E+01
  7.72261074E+00  7.72261074E+00 -1.54452215E+01  7.72261074E+00  7.72261074E+00
 -1.54452215E+01  7.72261074E+00  7.72261074E+00 -1.54452215E+01  7.72261074E+00
  7.72261074E+00 -1.54452215E+01  7.72261074E+00  7.72261074E+00 -1.54452215E+01
  7.72261074E+00  7.72261074E+00 -1.54452215E+01  7.72261074E+00  7.72261074E+00
 -1.54452215E+01  7.72261074E+00  7.72261074E+00 -1.54452215E+01  7.72261074E+00
  7.72261074E+00 -1.54452215E+01  7.72261074E+00  7.72261074E+00 -1.54452215E+01
  7.72261074E+00  7.72261074E+00 -1.54452215E+01  7.72261074E+00  7.72261074E+00
 -1.54452215E+01  7.72261074E+00  7.72261074E+00 -1.54452215E+01  7.72261074E+00
  7.72261074E+00 -1.54452215E+01  7.72261074E+00  7.72261074E+00 -1.54452215E+01
  7.72261074E+00  7.72261074E+00 -1.54452215E+01  7.72261074E+00  7.72261074E+00
 -1.54452215E+01  7.72261074E+00  7.72261074E+00 -1.54452215E+01  7.72261074E+00
  7.72261074E+00 -1.54452215E+01  7.72261074E+00  7.72261074E+00 -1.54452215E+01
  7.72261074E+00  7.72261074E+00 -1.54452215E+01  7.72261074E+00  7.72261074E+00
 -1.54452215E+01  7.72261074E+00  7.72261074E+00 -1.54452215E+01  7.72261074E+00
  7.72261074E+00 -1.54452215E+01  7.72261074E+00  7.72261074E+00 -1.54452215E+01
  7.72261074E+00  7.72261074E+00 -1.54452215E+01  7.72261074E+00  7.72261074E+00
 -1.54452215E+01  7.72261074E+00  7.72261074E+00 -1.54452215E+01  7.72261074E+00
  7.72261074E+00 -1.54452215E+01  7.72261074E+00  7.72261074E+00 -1.54452215E+01
  7.72261074E+00  7.72261074E+00 -1.54452215E+01  7.72261074E+00  7.72261074E+00
 -1.54452215E+01  7.72261074E+00  7.72261074E+00 -1.54452215E+01  7.72261074E+00
  7.72261074E+00 -1.54452215E+01  7.72261074E+00  7.72261074E+00 -1.54452215E+01
  7.72261074E+00  7.72261074E+00 -1.54452215E+01  7.72261074E+00  7.72261074E+00
 -1.54452215E+01  7.72261074E+00  7.72261074E+00 -1.54452215E+01  7.72261074E+00
  7.72261074E+00 -1.54452215E+01  7.72261074E+00  7.72261074E+00 -1.54452215E+01
  7.72261074E+00  7.72261074E+00 -1.54452215E+01  7.72261074E+00  7.72261074E+00
 -1.54452215E+01  7.72261074E+00  7.72261074E+00 -1.54452215E+01  7.72261074E+00
  7.72261074E+00 -1.54452215E+01  7.72261074E+00  7.72261074E+00 -1.54452215E+01
  7.72261074E+00  7.72261074E+00 -1.54452215E+01  7.72261074E+00  7.72261074E+00
 -1.54452215E+01  7.72261074E+00  7.72261074E+00 -1.54452215E+01  7.72261074E+00
  7.72261074E+00 -1.54452215E+01  7.72261074E+00  7.72261074E+00 -1.54452215E+01
  7.72261074E+00  7.72261074E+00 -1.54452215E+01  7.72261074E+00  7.72261074E+00
 -1.54452215E+01  7.72261074E+00  7.72261074E+00 -1.54452215E+01  7.72261074E+00
  7.72261074E+00 -1.54452215E+01  7.72261074E+00  7.72261074E+00 -1.54452215E+01
  7.72261074E+00  7.72261074E+00 -1.54452215E+01  7.72261074E+00  7.72261074E+00
 -1.54452215E+01  7.72261074E+00  7.72261074E+00 -1.54452215E+01  7.72261074E+00
  7.72261074E+00 -1.54452215E+01  7.72261074E+00  7.72261074E+00 -1.54452215E+01
  7.72261074E+00  7.72261074E+00 -1.54452215E+01  7.72261074E+00  7.72261074E+00
 -1.54452215E+01  7.72261074E+00  7.72261074E+00 -1.54452215E+01  7.72261074E+00
  7.72261074E+00 -1.54452215E+01  7.72261074E+00  7.72261074E+00 -1.54452215E+01
  7.72261074E+00  7.72261074E+00 -1.54452215E+01  7.72261074E+00  7.72261074E+00
 -1.54452215E+01  7.72261074E+00  7.72261074E+00 -1.54452215E+01  7.72261074E+00
  7.72261074E+00 -1.54452215E+01  7.72261074E+00  7.72261074E+00 -1.54452215E+01
  7.72261074E+00  7.72261074E+00 -1.54452215E+01  7.72261074E+00  7.72261074E+00
 -1.54452215E+01  7.72261074E+00  7.72261074E+00 -1.54452215E+01  7.72261074E+00
  7.72261074E+00 -1.54452215E+01  7.72261074E+00  7.72261074E+00 -1.54452215E+01
  7.72261074E+00  7.72261074E+00 -1.54452215E+01  7.72261074E+00  7.72261074E+00
 -1.54452215E+01  7.72261074E+00  7.72261074E+00 -1.54452215E+01  7.72261074E+00
  7.72261074E+00 -1.54452215E+01  7.72261074E+00  7.72261074E+00 -1.54452215E+01
  7.72261074E+00  7.72261074E+00 -1.54452215E+01  7.72261074E+00  7.72261074E+00
 -1.54452215E+01  7.72261074E+00  7.72261074E+00 -1.54452215E+01  7.72261074E+00
  7.72261074E+00 -1.54452215E+01  7.72261074E+00  7.72261074E+00 -1.54452215E+01
  7.72261074E+00  7.72261074E+00 -1.54452215E+01  7.72261074E+00  7.72261074E+00
 -1.54452215E+01  7.72261074E+00  7.72261074E+00 -1.54452215E+01  7.72261074E+00
  7.72261074E+00 -1.54452215E+01  7.72261074E+00  7.72261074E+00 -1.54452215E+01
  7.72261074E+00  7.72261074E+00 -1.54452215E+01  7.72261074E+00  7.72261074E+00
 -1.54452215E+01  7.72261074E+00  7.72261074E+00 -1.54452215E+01  7.72261074E+00
  7.72261074E+00 -1.54452215E+01  7.72261074E+00  7.72261074E+00 -1.54452215E+01
  7.72261074E+00  7.72261074E+00 -1.54452215E+01  7.72261074E+00  7.72261074E+00
 -1.54452215E+01  7.72261074E+00  7.72261074E+00 -1.54452215E+01  7.72261074E+00
  7.72261074E+00 -1.54452215E+01  7.72261074E+00  7.72261074E+00 -1.54452215E+01
  7.72261074E+00  7.72261074E+00 -1.54452215E+01  7.72261074E+00  7.72261074E+00
 -1.54452215E+01  7.72261074E+00  7.72261074E+00 -1.54452215E+01  7.72261074E+00
  7.72261074E+00 -1.54452215E+01  7.72261074E+00  7.72261074E+00 -1.54452215E+01
  7.72261074E+00  7.72261074E+00 -1.54452215E+01  7.72261074E+00  7.72261074E+00
 -1.54452215E+01  7.72261074E+00  7.72261074E+00 -1.54452215E+01  7.72261074E+00
  7.72261074E+00 -1.54452215E+01  7.72261074E+00  7.72261074E+00 -1.54452215E+01
  7.72261074E+00  7.72261074E+00 -1.54452215E+01  7.72261074E+00  7.72261074E+00
 -1.54452215E+01  7.72261074E+00  7.72261074E+00 -1.54452215E+01  7.72261074E+00
  7.72261074E+00 -1.54452215E+01  7.72261074E+00  7.72261074E+00 -1.54452215E+01
  7.72261074E+00  7.72261074E+00 -1.54452215E+01  7.72261074E+00  7.72261074E+00
 -1.54452215E+01  7.72261074E+00  7.72261074E+00 -1.54452215E+01  7.72261074E+00
  7.72261074E+00 -1.54452215E+01  7.72261074E+00  7.72261074E+00 -1.54452215E+01
  7.72261074E+00  7.72261074E+00 -1.54452215E+01  7.72261074E+00  7.72261074E+00
 -1.54452215E+01  7.72261074E+00  7.72261074E+00 -1.54452215E+01  7.72261074E+00
  7.72261074E+00 -1.54452215E+01  7.72261074E+00  7.72261074E+00 -1.54452215E+01
  7.72261074E+00  7.72261074E+00 -1.54452215E+01  7.72261074E+00  7.72261074E+00
 -1.54452215E+01  7.72261074E+00  7.72261074E+00 -1.54452215E+01  7.72261074E+00
  7.72261074E+00 -1.54452215E+01  7.72261074E+00  7.72261074E+00 -1.54452215E+01
  7.72261074E+00  7.72261074E+00 -1.54452215E+01  7.72261074E+00  7.72261074E+00
 -1.54452215E+01  7.72261074E+00  7.72261074E+00 -1.54452215E+01  7.72261074E+00
  7.72261074E+00 -1.54452215E+01  7.72261074E+00  7.72261074E+00 -1.54452215E+01
  7.72261074E+00  7.72261074E+00 -1.54452215E+01  7.72261074E+00  7.72261074E+00
 -1.54452215E+01  7.72261074E+00  7.72261074E+00 -1.54452215E+01  7.72261074E+00
  7.72261074E+00 -1.54452215E+01  7.72261074E+00  7.72261074E+00 -1.54452215E+01
  7.72261074E+00  7.72261074E+00 -1.54452215E+01  7.72261074E+00  7.72261074E+00
 -1.54452215E+01  7.72261074E+00  7.72261074E+00 -1.54452215E+01  7.72261074E+00
  7.72261074E+00 -1.54452215E+01  7.72261074E+00  7.72261074E+00 -1.54452215E+01
  7.72261074E+00  7.72261074E+00 -1.54452215E+01  7.72261074E+00  7.72261074E+00
 -1.54452215E+01  7.72261074E+00  7.72261074E+00 -1.54452215E+01  7.72261074E+00
  7.72261074E+00 -1.54452215E+01  7.72261074E+00  7.72261074E+00 -1.54452215E+01
  7.72261074E+00  7.72261074E+00 -1.54452215E+01  7.72261074E+00  7.72261074E+00
 -1.54452215E+01  7.72261074E+00  7.72261074E+00 -1.54452215E+01  7.72261074E+00
  7.72261074E+00 -1.54452215E+01  7.72261074E+00  7.72261074E+00 -1.54452215E+01
  7.72261074E+00  7.72261074E+00 -1.54452215E+01  7.72261074E+00  7.72261074E+00
 -1.54452215E+01  7.72261074E+00  7.72261074E+00 -1.54452215E+01  7.72261074E+00
  7.72261074E+00 -1.54452215E+01  7.72261074E+00  7.72261074E+00 -1.54452215E+01
  7.72261074E+00  7.72261074E+00 -1.54452215E+01  7.72261074E+00  7.72261074E+00
 -1.54452215E+01  7.72261074E+00  7.72261074E+00 -1.54452215E+01  7.72261074E+00
  7.72261074E+00 -1.54452215E+01  7.72261074E+00  7.72261074E+00 -1.54452215E+01
  7.72261074E+00  7.72261074E+00 -1.54452215E+01  7.72261074E+00  7.72261074E+00
 -1.54452215E+01  7.72261074E+00  7.72261074E+00 -1.54452215E+01  7.72261074E+00
  7.72261074E+00 -1.54452215E+01  7.72261074E+00  7.72261074E+00 -1.54452215E+01
  7.72261074E+00  7.72261074E+00 -1.54452215E+01  7.72261074E+00  7.72261074E+00
 -1.54452215E+01  7.72261074E+00  7.72261074E+00 -1.54452215E+01  7.72261074E+00
  7.72261074E+00 -1.54452215E+01  7.72261074E+00  7.72261074E+00 -1.54452215E+01
  7.72261074E+00  7.72261074E+00 -1.54452215E+01  7.72261074E+00  7.72261074E+00
 -1.54452215E+01  7.72261074E+00  7.72261074E+00 -1.54452215E+01  7.72261074E+00
  7.72261074E+00 -1.54452215E+01  7.72261074E+00  7.72261074E+00 -1.54452215E+01
  7.72261074E+00  7.72261074E+00 -1.54452215E+01  7.72261074E+00  7.72261074E+00
 -1.54452215E+01  7.72261074E+00  7.72261074E+00 -1.54452215E+01  7.72261074E+00
  7.72261074E+00 -1.54452215E+01  7.72261074E+00  7.72261074E+00 -1.54452215E+01
  7.72261074E+00  7.72261074E+00 -1.54452215E+01  7.72261074E+00  7.72261074E+00
 -1.54452215E+01  7.72261074E+00  7.72261074E+00 -1.54452215E+01  7.72261074E+00
  7.72261074E+00 -1.54452215E+01  7.72261074E+00  7.72261074E+00 -1.54452215E+01
  7.72261074E+00  7.72261074E+00 -1.54452215E+01  7.72261074E+00  7.72261074E+00
 -1.54452215E+01  7.72261074E+00  7.72261074E+00 -1.54452215E+01  7.72261074E+00
  7.72261074E+00 -1.54452215E+01  7.72261074E+00  7.72261074E+00 -1.54452215E+01
  7.72261074E+00  7.72261074E+00 -1.54452215E+01  7.72261074E+00  7.72261074E+00
 -1.54452215E+01  7.72261074E+00  7.72261074E+00 -1.54452215E+01  7.72261074E+00
  7.72261074E+00 -1.54452215E+01  7.72261074E+00  7.72261074E+00 -1.54452215E+01
  7.72261074E+00  7.72261074E+00 -1.54452215E+01  7.72261074E+00  7.72261074E+00
 -1.54452215E+01  7.72261074E+00  7.72261074E+00 -1.54452215E+01  7.72261074E+00
  7.72261074E+00 -1.54452215E+01  7.72261074E+00  7.72261074E+00 -1.54452215E+01
  7.72261074E+00  7.72261074E+00 -1.54452215E+01  7.72261074E+00  7.72261074E+00
 -1.54452215E+01  7.72261074E+00  7.72261074E+00 -1.54452215E+01  7.72261074E+00
  7.72261074E+00 -1.54452215E+01  7.72261074E+00  7.72261074E+00 -1.54452215E+01
  7.72261074E+00  7.72261074E+00 -1.54452215E+01  7.72261074E+00  7.72261074E+00
 -1.54452215E+01  7.72261074E+00  7.72261074E+00 -1.54452215E+01  7.72261074E+00
  7.72261074E+00 -1.54452215E+01  7.72261074E+00  7.72261074E+00 -1.54452215E+01
  7.72261074E+00  7.72261074E+00 -1.54452215E+01  7.72261074E+00  7.72261074E+00
 -1.54452215E+01  7.72261074E+00  7.72261074E+00 -1.54452215E+01  7.72261074E+00
  7.72261074E+00 -1.54452215E+01  7.72261074E+00  7.72261074E+00 -1.54452215E+01
  7.72261074E+00  7.72261074E+00 -1.54452215E+01  7.72261074E+00  7.72261074E+00
 -1.54452215E+01  7.72261074E+00  7.72261074E+00 -1.54452215E+01  7.72261074E+00
  7.72261074E+00 -1.54452215E+01  7.72261074E+00  7.72261074E+00 -1.54452215E+01
  7.72261074E+00  7.72261074E+00 -1.54452215E+01  7.72261074E+00  7.72261074E+00
 -1.54452215E+01  7.72261074E+00  7.72261074E+00 -1.54452215E+01  7.72261074E+00
  7.72261074E+00 -1.54452215E+01  7.72261074E+00  7.72261074E+00 -1.54452215E+01
  7.72261074E+00  7.72261074E+00 -1.54452215E+01  7.72261074E+00  7.72261074E+00
 -1.54452215E+01  7.72261074E+00  7.72261074E+00 -1.54452215E+01  7.72261074E+00
  7.72261074E+00 -1.54452215E+01  7.72261074E+00  7.72261074E+00 -1.54452215E+01
  7.72261074E+00  7.72261074E+00 -1.54452215E+01  7.72261074E+00  7.72261074E+00
 -1.54452215E+01  7.72261074E+00  7.72261074E+00 -1.54452215E+01  7.72261074E+00
  7.72261074E+00 -1.54452215E+01  7.72261074E+00  7.72261074E+00 -1.54452215E+01
  7.72261074E+00  7.72261074E+00 -1.54452215E+01  7.72261074E+00  7.72261074E+00
 -1.54452215E+01  7.72261074E+00  7.72261074E+00 -1.54452215E+01  7.72261074E+00
  7.72261074E+00 -1.54452215E+01  7.72261074E+00  7.72261074E+00 -1.54452215E+01
  7.72261074E+00  7.72261074E+00 -1.54452215E+01  7.72261074E+00  7.72261074E+00
 -1.54452215E+01  7.72261074E+00  7.72261074E+00 -1.54452215E+01  7.72261074E+00
  7.72261074E+00 -1.54452215E+01  7.72261074E+00  7.72261074E+00 -1.54452215E+01
  7.72261074E+00  7.72261074E+00 -1.54452215E+01  7.72261074E+00  7.72261074E+00
 -1.54452215E+01  7.72261074E+00  7.72261074E+00 -1.54452215E+01  7.72261074E+00
  7.72261074E+00 -1.54452215E+01  7.72261074E+00  7.72261074E+00 -1.54452215E+01
  7.72261074E+00  7.72261074E+00 -1.54452215E+01  7.72261074E+00  7.72261074E+00
 -1.54452215E+01  7.72261074E+00  7.72261074E+00 -1.54452215E+01  7.72261074E+00
  7.72261074E+00 -1.54452215E+01  7.72261074E+00  7.72261074E+00 -1.54452215E+01
  7.72261074E+00  7.72261074E+00 -1.54452215E+01  7.72261074E+00  7.72261074E+00
 -1.54452215E+01  7.72261074E+00  7.72261074E+00 -1.54452215E+01  7.72261074E+00
  7.72261074E+00 -1.54452215E+01  7.72261074E+00  7.72261074E+00 -1.54452215E+01
  7.72261074E+00  7.72261074E+00 -1.54452215E+01  7.72261074E+00  7.72261074E+00
 -1.54452215E+01  7.72261074E+00  7.72261074E+00 -1.54452215E+01  7.72261074E+00
  7.72261074E+00 -1.54452215E+01  7.72261074E+00  7.72261074E+00 -1.54452215E+01
  7.72261074E+00  7.72261074E+00 -1.54452215E+01  7.72261074E+00  7.72261074E+00
 -1.54452215E+01  7.72261074E+00  7.72261074E+00 -1.54452215E+01  7.72261074E+00
  7.72261074E+00 -1.54452215E+01  7.72261074E+00  7.72261074E+00 -1.54452215E+01
  7.72261074E+00  7.72261074E+00 -1.54452215E+01  7.72261074E+00  7.72261074E+00
 -1.54452215E+01  7.72261074E+00  7.72261074E+00 -1.54452215E+01  7.72261074E+00
  7.72261074E+00 -1.54452215E+01  7.72261074E+00  7.72261074E+00 -1.54452215E+01
  7.72261074E+00  7.72261074E+00 -1.54452215E+01  7.72261074E+00  7.72261074E+00
 -1.54452215E+01  7.72261074E+00  7.72261074E+00 -1.54452215E+01  7.72261074E+00
  7.72261074E+00 -1.54452215E+01  7.72261074E+00  7.72261074E+00 -1.54452215E+01
  7.72261074E+00  7.72261074E+00 -1.54452215E+01  7.72261074E+00  7.72261074E+00
 -1.54452215E+01  7.72261074E+00  7.72261074E+00 -1.54452215E+01  7.72261074E+00
  7.72261074E+00 -1.54452215E+01  7.72261074E+00  7.72261074E+00 -1.54452215E+01
  7.72261074E+00  7.72261074E+00 -1.54452215E+01  7.72261074E+00  7.72261074E+00
 -1.54452215E+01  7.72261074E+00  7.72261074E+00 -1.54452215E+01  7.72261074E+00
  7.72261074E+00 -1.54452215E+01  7.72261074E+00  7.72261074E+00 -1.54452215E+01
  7.72261074E+00  7.72261074E+00 -1.54452215E+01  7.72261074E+00  7.72261074E+00
 -1.54452215E+01  7.72261074E+00  7.72261074E+00 -1.54452215E+01  7.72261074E+00
  7.72261074E+00 -1.54452215E+01  7.72261074E+00  7.72261074E+00 -1.54452215E+01
  7.72261074E+00  7.72261074E+00 -1.54452215E+01  7.72261074E+00  7.72261074E+00
 -1.54452215E+01  7.72261074E+00  7.72261074E+00 -1.54452215E+01  7.72261074E+00
  7.72261074E+00 -1.54452215E+01  7.72261074E+00  7.72261074E+00 -1.54452215E+01
  7.72261074E+00  7.72261074E+00 -1.54452215E+01  7.72261074E+00  7.72261074E+00
 -1.54452215E+01  7.72261074E+00  7.72261074E+00 -1.54452215E+01  7.72261074E+00
  7.72261074E+00 -1.54452215E+01  7.72261074E+00  7.72261074E+00 -1.54452215E+01
  7.72261074E+00  7.72261074E+00 -1.54452215E+01  7.72261074E+00  7.72261074E+00
 -1.54452215E+01  7.72261074E+00  7.72261074E+00 -1.54452215E+01  7.72261074E+00
  7.72261074E+00 -1.54452215E+01  7.72261074E+00  7.72261074E+00 -1.54452215E+01
  7.72261074E+00  7.72261074E+00 -1.54452215E+01  7.72261074E+00  7.72261074E+00
 -1.54452215E+01  7.72261074E+00  7.72261074E+00 -1.54452215E+01  7.72261074E+00
  7.72261074E+00 -1.54452215E+01  7.72261074E+00  7.72261074E+00 -1.54452215E+01
  7.72261074E+00  7.72261074E+00 -1.54452215E+01  7.72261074E+00  7.72261074E+00
 -1.54452215E+01  7.72261074E+00  7.72261074E+00 -1.54452215E+01  7.72261074E+00
  7.72261074E+00 -1.54452215E+01  7.72261074E+00  7.72261074E+00 -1.54452215E+01
  7.72261074E+00  7.72261074E+00 -1.54452215E+01  7.72261074E+00  7.72261074E+00
 -1.54452215E+01  7.72261074E+00  7.72261074E+00 -1.54452215E+01  7.72261074E+00
  7.72261074E+00 -1.54452215E+01  7.72261074E+00  7.72261074E+00 -1.54452215E+01
  7.72261074E+00  7.72261074E+00 -1.54452215E+01  7.72261074E+00  7.72261074E+00
 -1.54452215E+01  7.72261074E+00  7.72261074E+00 -1.54452215E+01  7.72261074E+00
  7.72261074E+00 -1.54452215E+01  7.72261074E+00  7.72261074E+00 -1.54452215E+01
  7.72261074E+00  7.72261074E+00 -1.54452215E+01  7.72261074E+00  7.72261074E+00
 -1.54452215E+01  7.72261074E+00  7.72261074E+00 -1.54452215E+01  7.72261074E+00
  7.72261074E+00 -1.54452215E+01  7.72261074E+00  7.72261074E+00 -1.54452215E+01
  7.72261074E+00  7.72261074E+00 -1.54452215E+01  7.72261074E+00  7.72261074E+00
 -1.54452215E+01  7.72261074E+00  7.72261074E+00 -1.54452215E+01  7.72261074E+00
  7.72261074E+00 -1.54452215E+01  7.72261074E+00  7.72261074E+00 -1.54452215E+01
  7.72261074E+00  7.72261074E+00 -1.54452215E+01  7.72261074E+00  7.72261074E+00
 -1.54452215E+01  7.72261074E+00  7.72261074E+00 -1.54452215E+01  7.72261074E+00
  7.72261074E+00 -1.54452215E+01  7.72261074E+00  7.72261074E+00 -1.54452215E+01
  7.72261074E+00  7.72261074E+00 -1.54452215E+01  7.72261074E+00  7.72261074E+00
 -1.54452215E+01  7.72261074E+00  7.72261074E+00 -1.54452215E+01  7.72261074E+00
  7.72261074E+00 -1.54452215E+01  7.72261074E+00  7.72261074E+00 -1.54452215E+01
  7.72261074E+00  7.72261074E+00 -1.54452215E+01  7.72261074E+00  7.72261074E+00
 -1.54452215E+01  7.72261074E+00  7.72261074E+00 -1.54452215E+01  7.72261074E+00
  7.72261074E+00 -1.54452215E+01  7.72261074E+00  7.72261074E+00 -1.54452215E+01
  7.72261074E+00  7.72261074E+00 -1.54452215E+01  7.72261074E+00  7.72261074E+00
 -1.54452215E+01  7.72261074E+00  7.72261074E+00 -1.54452215E+01  7.72261074E+00
  7.72261074E+00 -1.54452215E+01  7.72261074E+00  7.72261074E+00 -1.54452215E+01
  7.72261074E+00  7.72261074E+00 -1.54452215E+01  7.72261074E+00  7.72261074E+00
 -1.54452215E+01  7.72261074E+00  7.72261074E+00 -1.54452215E+01  7.72261074E+00
  7.72261074E+00 -1.54452215E+01  7.72261074E+00  7.72261074E+00 -1.54452215E+01
  7.72261074E+00  7.72261074E+00 -1.54452215E+01  7.72261074E+00  7.72261074E+00
 -1.54452215E+01  7.72261074E+00  7.72261074E+00 -1.54452215E+01  7.72261074E+00
  7.72261074E+00 -1.54452215E+01  7.72261074E+00  7.72261074E+00 -1.54452215E+01
  7.72261074E+00  7.72261074E+00 -1.54452215E+01  7.72261074E+00  7.72261074E+00
 -1.54452215E+01  7.72261074E+00  7.72261074E+00 -1.54452215E+01  7.72261074E+00
  7.72261074E+00 -1.54452215E+01  7.72261074E+00  7.72261074E+00 -1.54452215E+01
  7.72261074E+00  7.72261074E+00 -1.54452215E+01  7.72261074E+00  7.72261074E+00
 -1.54452215E+01  7.72261074E+00  7.72261074E+00 -1.54452215E+01  7.72261074E+00
  7.72261074E+00 -1.54452215E+01  7.72261074E+00  7.72261074E+00 -1.54452215E+01
  7.72261074E+00  7.72261074E+00 -1.54452215E+01  7.72261074E+00  7.72261074E+00
 -1.54452215E+01  7.72261074E+00  7.72261074E+00 -1.54452215E+01  7.72261074E+00
  7.72261074E+00 -1.54452215E+01  7.72261074E+00  7.72261074E+00 -1.54452215E+01
  7.72261074E+00  7.72261074E+00 -1.54452215E+01  7.72261074E+00  7.72261074E+00
 -1.54452215E+01  7.72261074E+00  7.72261074E+00 -1.54452215E+01  7.72261074E+00
  7.72261074E+00 -1.54452215E+01  7.72261074E+00  7.72261074E+00 -1.54452215E+01
  7.72261074E+00  7.72261074E+00 -1.54452215E+01  7.72261074E+00  7.72261074E+00
 -1.54452215E+01  7.72261074E+00  7.72261074E+00 -1.54452215E+01  7.72261074E+00
  7.72261074E+00 -1.54452215E+01  7.72261074E+00  7.72261074E+00 -1.54452215E+01
  7.72261074E+00  7.72261074E+00 -1.54452215E+01  7.72261074E+00  7.72261074E+00
 -1.54452215E+01  7.72261074E+00  7.72261074E+00 -1.54452215E+01  7.72261074E+00
  7.72261074E+00 -1.54452215E+01  7.72261074E+00  7.72261074E+00 -1.54452215E+01
  7.72261074E+00  7.72261074E+00 -1.54452215E+01  7.72261074E+00  7.72261074E+00
 -1.54452215E+01  7.72261074E+00  7.72261074E+00 -1.54452215E+01  7.72261074E+00
  7.72261074E+00 -1.54452215E+01  7.72261074E+00  7.72261074E+00 -1.54452215E+01
  7.72261074E+00  7.72261074E+00 -1.54452215E+01  7.72261074E+00  7.72261074E+00
 -1.54452215E+01  7.72261074E+00  7.72261074E+00 -1.54452215E+01  7.72261074E+00
  7.72261074E+00 -1.54452215E+01  7.72261074E+00  7.72261074E+00 -1.54452215E+01
  7.72261074E+00  7.72261074E+00 -1.54452215E+01  7.72261074E+00  7.72261074E+00
 -1.54452215E+01  7.72261074E+00  7.72261074E+00 -1.54452215E+01  7.72261074E+00
  7.72261074E+00 -1.54452215E+01  7.72261074E+00  7.72261074E+00 -1.54452215E+01
  7.72261074E+00  7.72261074E+00 -1.54452215E+01  7.72261074E+00  7.72261074E+00
 -1.54452215E+01  7.72261074E+00  7.72261074E+00 -1.54452215E+01  7.72261074E+00
  7.72261074E+00 -1.54452215E+01  7.72261074E+00  7.72261074E+00 -1.54452215E+01
  7.72261074E+00  7.72261074E+00 -1.54452215E+01  7.72261074E+00  7.72261074E+00
 -1.54452215E+01  7.72261074E+00  7.72261074E+00 -1.54452215E+01  7.72261074E+00
  7.72261074E+00 -1.54452215E+01  7.72261074E+00  7.72261074E+00 -1.54452215E+01
  7.72261074E+00  7.72261074E+00 -1.54452215E+01  7.72261074E+00  7.72261074E+00
 -1.54452215E+01  7.72261074E+00  7.72261074E+00 -1.54452215E+01  7.72261074E+00
  7.72261074E+00 -1.54452215E+01  7.72261074E+00  7.72261074E+00 -1.54452215E+01
  7.72261074E+00  7.72261074E+00 -1.54452215E+01  7.72261074E+00  7.72261074E+00
 -1.54452215E+01  7.72261074E+00  7.72261074E+00 -1.54452215E+01  7.72261074E+00
  7.72261074E+00 -1.54452215E+01  7.72261074E+00  7.72261074E+00 -1.54452215E+01
  7.72261074E+00  7.72261074E+00 -1.54452215E+01  7.72261074E+00  7.72261074E+00
 -1.54452215E+01  7.72261074E+00  7.72261074E+00 -1.54452215E+01  7.72261074E+00
  7.72261074E+00 -1.54452215E+01  7.72261074E+00  7.72261074E+00 -1.54452215E+01
  7.72261074E+00  7.72261074E+00 -1.54452215E+01  7.72261074E+00  7.72261074E+00
 -1.54452215E+01  7.72261074E+00  7.72261074E+00 -1.54452215E+01  7.72261074E+00
  7.72261074E+00 -1.54452215E+01  7.72261074E+00  7.72261074E+00 -1.54452215E+01
  7.72261074E+00  7.72261074E+00 -1.54452215E+01  7.72261074E+00  7.72261074E+00
 -1.54452215E+01  7.72261074E+00  7.72261074E+00 -1.54452215E+01  7.72261074E+00
  7.72261074E+00 -1.54452215E+01  7.72261074E+00  7.72261074E+00 -1.54452215E+01
  7.72261074E+00  7.72261074E+00 -1.54452215E+01  7.72261074E+00  7.72261074E+00
 -1.54452215E+01  7.72261074E+00  7.72261074E+00 -1.54452215E+01  7.72261074E+00
  7.72261074E+00 -1.54452215E+01  7.72261074E+00  7.72261074E+00 -1.54452215E+01
  7.72261074E+00  7.72261074E+00 -1.54452215E+01  7.72261074E+00  7.72261074E+00
 -1.54452215E+01  7.72261074E+00  7.72261074E+00 -1.54452215E+01  7.72261074E+00
  7.72261074E+00 -1.54452215E+01  7.72261074E+00  7.72261074E+00 -1.54452215E+01
  7.72261074E+00  7.72261074E+00 -1.54452215E+01  7.72261074E+00  7.72261074E+00
 -1.54452215E+01  7.72261074E+00  7.72261074E+00 -1.54452215E+01  7.72261074E+00
  7.72261074E+00 -1.54452215E+01  7.72261074E+00  7.72261074E+00 -1.54452215E+01
  7.72261074E+00  7.72261074E+00 -1.54452215E+01  7.72261074E+00  7.72261074E+00
 -1.54452215E+01  7.72261074E+00  7.72261074E+00 -1.54452215E+01  7.72261074E+00
  7.72261074E+00 -1.54452215E+01  7.72261074E+00  7.72261074E+00 -1.54452215E+01
  7.72261074E+00  7.72261074E+00 -1.54452215E+01  7.72261074E+00  7.72261074E+00
 -1.54452215E+01  7.72261074E+00  7.72261074E+00 -1.54452215E+01  7.72261074E+00
  7.72261074E+00 -1.54452215E+01  7.72261074E+00  7.72261074E+00 -1.54452215E+01
  7.72261074E+00  7.72261074E+00 -1.54452215E+01  7.72261074E+00  7.72261074E+00
 -1.54452215E+01  7.72261074E+00  7.72261074E+00 -1.54452215E+01  7.72261074E+00
  7.72261074E+00 -1.54452215E+01  7.72261074E+00  7.72261074E+00 -1.54452215E+01
  7.72261074E+00  7.72261074E+00 -1.54452215E+01  7.72261074E+00  7.72261074E+00
 -1.54452215E+01  7.72261074E+00  7.72261074E+00 -1.54452215E+01  7.72261074E+00
  7.72261074E+00 -1.54452215E+01  7.72261074E+00  7.72261074E+00 -1.54452215E+01
  7.72261074E+00  7.72261074E+00 -1.54452215E+01  7.72261074E+00  7.72261074E+00
 -1.54452215E+01  7.72261074E+00  7.72261074E+00 -1.54452215E+01  7.72261074E+00
  7.72261074E+00 -1.54452215E+01  7.72261074E+00  7.72261074E+00 -1.54452215E+01
  7.72261074E+00  7.72261074E+00 -1.54452215E+01  7.72261074E+00  7.72261074E+00
 -1.54452215E+01  7.72261074E+00  7.72261074E+00 -1.54452215E+01  7.72261074E+00
  7.72261074E+00 -1.54452215E+01  7.72261074E+00  7.72261074E+00 -1.54452215E+01
  7.72261074E+00  7.72261074E+00 -1.54452215E+01  7.72261074E+00  7.72261074E+00
 -1.54452215E+01  7.72261074E+00  7.72261074E+00 -1.54452215E+01  7.72261074E+00
  7.72261074E+00 -1.54452215E+01  7.72261074E+00  7.72261074E+00 -1.54452215E+01
  7.72261074E+00  7.72261074E+00 -1.54452215E+01  7.72261074E+00  7.72261074E+00
 -1.54452215E+01  7.72261074E+00  7.72261074E+00 -1.54452215E+01  7.72261074E+00
  7.72261074E+00 -1.54452215E+01  7.72261074E+00  7.72261074E+00 -1.54452215E+01
  7.72261074E+00  7.72261074E+00 -1.54452215E+01  7.72261074E+00  7.72261074E+00
 -1.54452215E+01  7.72261074E+00  7.72261074E+00 -1.54452215E+01  7.72261074E+00
  7.72261074E+00 -1.54452215E+01  7.72261074E+00  7.72261074E+00 -1.54452215E+01
  7.72261074E+00  7.72261074E+00 -1.54452215E+01  7.72261074E+00  7.72261074E+00
 -1.54452215E+01  7.72261074E+00  7.72261074E+00 -1.54452215E+01  7.72261074E+00
  7.72261074E+00 -1.54452215E+01  7.72261074E+00  7.72261074E+00 -1.54452215E+01
  7.72261074E+00  7.72261074E+00 -1.54452215E+01  7.72261074E+00  7.72261074E+00
 -1.54452215E+01  7.72261074E+00  7.72261074E+00 -1.54452215E+01  7.72261074E+00
  7.72261074E+00 -1.54452215E+01  7.72261074E+00  7.72261074E+00 -1.54452215E+01
  7.72261074E+00  7.72261074E+00 -1.54452215E+01  7.72261074E+00  7.72261074E+00
 -1.54452215E+01  7.72261074E+00  7.72261074E+00 -1.54452215E+01  7.72261074E+00
  7.72261074E+00 -1.54452215E+01  7.72261074E+00  7.72261074E+00 -1.54452215E+01
  7.72261074E+00  7.72261074E+00 -1.54452215E+01  7.72261074E+00  7.72261074E+00
 -1.54452215E+01  7.72261074E+00  7.72261074E+00 -1.54452215E+01  7.72261074E+00
  7.72261074E+00 -1.54452215E+01  7.72261074E+00  7.72261074E+00 -1.54452215E+01
  7.72261074E+00  7.72261074E+00 -1.54452215E+01  7.72261074E+00  7.72261074E+00
 -1.54452215E+01  7.72261074E+00  7.72261074E+00 -1.54452215E+01  7.72261074E+00
  7.72261074E+00 -1.54452215E+01  7.72261074E+00  7.72261074E+00 -1.54452215E+01
  7.72261074E+00  7.72261074E+00 -1.54452215E+01  7.72261074E+00  7.72261074E+00
 -1.54452215E+01  7.72261074E+00  7.72261074E+00 -1.54452215E+01  7.72261074E+00
  7.72261074E+00 -1.54452215E+01  7.72261074E+00  7.72261074E+00 -1.54452215E+01
  7.72261074E+00  7.72261074E+00 -1.54452215E+01  7.72261074E+00  7.72261074E+00
 -1.54452215E+01  7.72261074E+00  7.72261074E+00 -1.54452215E+01  7.72261074E+00
  7.72261074E+00 -1.54452215E+01  7.72261074E+00  7.72261074E+00 -1.54452215E+01
  7.72261074E+00  7.72261074E+00 -1.54452215E+01  7.72261074E+00  7.72261074E+00
 -1.54452215E+01  7.72261074E+00  7.72261074E+00 -1.54452215E+01  7.72261074E+00
  7.72261074E+00 -1.54452215E+01  7.72261074E+00  7.72261074E+00 -1.54452215E+01
  7.72261074E+00  7.72261074E+00 -1.54452215E+01  7.72261074E+00  7.72261074E+00
 -1.54452215E+01  7.72261074E+00  7.72261074E+00 -1.54452215E+01  7.72261074E+00
  7.72261074E+00 -1.54452215E+01  7.72261074E+00  7.72261074E+00 -1.54452215E+01
  7.72261074E+00  7.72261074E+00 -1.54452215E+01  7.72261074E+00  7.72261074E+00
 -1.54452215E+01  7.72261074E+00  7.72261074E+00 -1.54452215E+01  7.72261074E+00
  7.72261074E+00 -1.54452215E+01  7.72261074E+00  7.72261074E+00 -1.54452215E+01
  7.72261074E+00  7.72261074E+00 -1.54452215E+01  7.72261074E+00  7.72261074E+00
 -1.54452215E+01  7.72261074E+00  7.72261074E+00 -1.54452215E+01  7.72261074E+00
  7.72261074E+00 -1.54452215E+01  7.72261074E+00  7.72261074E+00 -1.54452215E+01
  7.72261074E+00  7.72261074E+00 -1.54452215E+01  7.72261074E+00  7.72261074E+00
 -1.54452215E+01  7.72261074E+00  7.72261074E+00 -1.54452215E+01  7.72261074E+00
  7.72261074E+00 -1.54452215E+01  7.72261074E+00  7.72261074E+00 -1.54452215E+01
  7.72261074E+00  7.72261074E+00 -1.54452215E+01  7.72261074E+00  7.72261074E+00
 -1.54452215E+01  7.72261074E+00  7.72261074E+00 -1.54452215E+01  7.72261074E+00
  7.72261074E+00 -1.54452215E+01  7.72261074E+00  7.72261074E+00 -1.54452215E+01
  7.72261074E+00  7.72261074E+00 -1.54452215E+01  7.72261074E+00  7.72261074E+00
 -1.54452215E+01  7.72261074E+00  7.72261074E+00 -1.54452215E+01  7.72261074E+00
  7.72261074E+00 -1.54452215E+01  7.72261074E+00  7.72261074E+00 -1.54452215E+01
  7.72261074E+00  7.72261074E+00 -1.54452215E+01  7.72261074E+00  7.72261074E+00
 -1.54452215E+01  7.72261074E+00  7.72261074E+00 -1.54452215E+01  7.72261074E+00
  7.72261074E+00 -1.54452215E+01  7.72261074E+00  7.72261074E+00 -1.54452215E+01
  7.72261074E+00  7.72261074E+00 -1.54452215E+01  7.72261074E+00  7.72261074E+00
 -1.54452215E+01  7.72261074E+00  7.72261074E+00 -1.54452215E+01  7.72261074E+00
  7.72261074E+00 -1.54452215E+01  7.72261074E+00  7.72261074E+00 -1.54452215E+01
  7.72261074E+00  7.72261074E+00 -1.54452215E+01  7.72261074E+00  7.72261074E+00
 -1.54452215E+01  7.72261074E+00  7.72261074E+00 -1.54452215E+01  7.72261074E+00
  7.72261074E+00 -1.54452215E+01  7.72261074E+00  7.72261074E+00 -1.54452215E+01
  7.72261074E+00  7.72261074E+00 -1.54452215E+01  7.72261074E+00  7.72261074E+00
 -1.54452215E+01  7.72261074E+00  7.72261074E+00 -1.54452215E+01  7.72261074E+00
  7.72261074E+00 -1.54452215E+01  7.72261074E+00  7.72261074E+00 -1.54452215E+01
  7.72261074E+00  7.72261074E+00 -1.54452215E+01  7.72261074E+00  7.72261074E+00
 -1.54452215E+01  7.72261074E+00  7.72261074E+00 -1.54452215E+01  7.72261074E+00
  7.72261074E+00 -1.54452215E+01  7.72261074E+00  7.72261074E+00 -1.54452215E+01
  7.72261074E+00  7.72261074E+00 -1.54452215E+01  7.72261074E+00  7.72261074E+00
 -1.54452215E+01  7.72261074E+00  7.72261074E+00 -1.54452215E+01  7.72261074E+00
  7.72261074E+00 -1.54452215E+01  7.72261074E+00  7.72261074E+00 -1.54452215E+01
  7.72261074E+00  7.72261074E+00 -1.54452215E+01  7.72261074E+00  7.72261074E+00
 -1.54452215E+01  7.72261074E+00  7.72261074E+00 -1.54452215E+01  7.72261074E+00
  7.72261074E+00 -1.54452215E+01  7.72261074E+00  7.72261074E+00 -1.54452215E+01
  7.72261074E+00  7.72261074E+00 -1.54452215E+01  7.72261074E+00  7.72261074E+00
 -1.54452215E+01  7.72261074E+00  7.72261074E+00 -1.54452215E+01  7.72261074E+00
  7.72261074E+00 -1.54452215E+01  7.72261074E+00  7.72261074E+00 -1.54452215E+01
  7.72261074E+00  7.72261074E+00 -1.54452215E+01  7.72261074E+00  7.72261074E+00
 -1.54452215E+01  7.72261074E+00  7.72261074E+00 -1.54452215E+01  7.72261074E+00
  7.72261074E+00 -1.54452215E+01  7.72261074E+00  7.72261074E+00 -1.54452215E+01
  7.72261074E+00  7.72261074E+00 -1.54452215E+01  7.72261074E+00  7.72261074E+00
 -1.54452215E+01  7.72261074E+00  7.72261074E+00 -1.54452215E+01  7.72261074E+00
  7.72261074E+00 -1.54452215E+01  7.72261074E+00  7.72261074E+00 -1.54452215E+01
  7.72261074E+00  7.72261074E+00 -1.54452215E+01  7.72261074E+00  7.72261074E+00
 -1.54452215E+01  7.72261074E+00  7.72261074E+00 -1.54452215E+01  7.72261074E+00
  7.72261074E+00 -1.54452215E+01  7.72261074E+00  7.72261074E+00 -1.54452215E+01
  7.72261074E+00  7.72261074E+00 -1.54452215E+01  7.72261074E+00  7.72261074E+00
 -1.54452215E+01  7.72261074E+00  7.72261074E+00 -1.54452215E+01  7.72261074E+00
  7.72261074E+00 -1.54452215E+01  7.72261074E+00  7.72261074E+00 -1.54452215E+01
  7.72261074E+00  7.72261074E+00 -1.54452215E+01  7.72261074E+00  7.72261074E+00
 -1.54452215E+01  7.72261074E+00  7.72261074E+00 -1.54452215E+01  7.72261074E+00
  7.72261074E+00 -1.54452215E+01  7.72261074E+00  7.72261074E+00 -1.54452215E+01
  7.72261074E+00  7.72261074E+00 -1.54452215E+01  7.72261074E+00  7.72261074E+00
 -1.54452215E+01  7.72261074E+00  7.72261074E+00 -1.54452215E+01  7.72261074E+00
  7.72261074E+00 -1.54452215E+01  7.72261074E+00  7.72261074E+00 -1.54452215E+01
  7.72261074E+00  7.72261074E+00 -1.54452215E+01  7.72261074E+00  7.72261074E+00
 -1.54452215E+01  7.72261074E+00  7.72261074E+00 -1.54452215E+01  7.72261074E+00
  7.72261074E+00 -1.54452215E+01  7.72261074E+00  7.72261074E+00 -1.54452215E+01
  7.72261074E+00  7.72261074E+00 -1.54452215E+01  7.72261074E+00  7.72261074E+00
 -1.54452215E+01  7.72261074E+00  7.72261074E+00 -1.54452215E+01  7.72261074E+00
  7.72261074E+00 -1.54452215E+01  7.72261074E+00  7.72261074E+00 -1.54452215E+01
  7.72261074E+00  7.72261074E+00 -1.54452215E+01  7.72261074E+00  7.72261074E+00
 -1.54452215E+01  7.72261074E+00  7.72261074E+00 -1.54452215E+01  7.72261074E+00
  7.72261074E+00 -1.54452215E+01  7.72261074E+00  7.72261074E+00 -1.54452215E+01
  7.72261074E+00  7.72261074E+00 -1.54452215E+01  7.72261074E+00  7.72261074E+00
 -1.54452215E+01  7.72261074E+00  7.72261074E+00 -1.54452215E+01  7.72261074E+00
  7.72261074E+00 -1.54452215E+01  7.72261074E+00  7.72261074E+00 -1.54452215E+01
  7.72261074E+00  7.72261074E+00 -1.54452215E+01  7.72261074E+00  7.72261074E+00
 -1.54452215E+01  7.72261074E+00  7.72261074E+00 -1.54452215E+01  7.72261074E+00
  7.72261074E+00 -1.54452215E+01  7.72261074E+00  7.72261074E+00 -1.54452215E+01
  7.72261074E+00  7.72261074E+00 -1.54452215E+01  7.72261074E+00  7.72261074E+00
 -1.54452215E+01  7.72261074E+00  7.72261074E+00 -1.54452215E+01  7.72261074E+00
  7.72261074E+00 -1.54452215E+01  7.72261074E+00  7.72261074E+00 -1.54452215E+01
  7.72261074E+00  7.72261074E+00 -1.54452215E+01  7.72261074E+00  7.72261074E+00
 -1.54452215E+01  7.72261074E+00  7.72261074E+00 -1.54452215E+01  7.72261074E+00
  7.72261074E+00 -1.54452215E+01  7.72261074E+00  7.72261074E+00 -1.54452215E+01
  7.72261074E+00  7.72261074E+00 -1.54452215E+01  7.72261074E+00  7.72261074E+00
 -1.54452215E+01  7.72261074E+00  7.72261074E+00 -1.54452215E+01  7.72261074E+00
  7.72261074E+00 -1.54452215E+01  7.72261074E+00  7.72261074E+00 -1.54452215E+01
  7.72261074E+00  7.72261074E+00 -1.54452215E+01  7.72261074E+00  7.72261074E+00
 -1.54452215E+01  7.72261074E+00  7.72261074E+00 -1.54452215E+01  7.72261074E+00
  7.72261074E+00 -1.54452215E+01  7.72261074E+00  7.72261074E+00 -1.54452215E+01
  7.72261074E+00  7.72261074E+00 -1.54452215E+01  7.72261074E+00  7.72261074E+00
 -1.54452215E+01  7.72261074E+00  7.72261074E+00 -1.54452215E+01  7.72261074E+00
  7.72261074E+00 -1.54452215E+01  7.72261074E+00  7.72261074E+00 -1.54452215E+01
  7.72261074E+00  7.72261074E+00 -1.54452215E+01  7.72261074E+00  7.72261074E+00
 -1.54452215E+01  7.72261074E+00  7.72261074E+00 -1.54452215E+01  7.72261074E+00
  7.72261074E+00 -1.54452215E+01  7.72261074E+00  7.72261074E+00 -1.54452215E+01
  7.72261074E+00  7.72261074E+00 -1.54452215E+01  7.72261074E+00  7.72261074E+00
 -1.54452215E+01  7.72261074E+00  7.72261074E+00 -1.54452215E+01  7.72261074E+00
  7.72261074E+00 -1.54452215E+01  7.72261074E+00  7.72261074E+00 -1.54452215E+01
  7.72261074E+00  7.72261074E+00 -1.54452215E+01  7.72261074E+00  7.72261074E+00
 -1.54452215E+01  7.72261074E+00  7.72261074E+00 -1.54452215E+01  7.72261074E+00
  7.72261074E+00 -1.54452215E+01  7.72261074E+00  7.72261074E+00 -1.54452215E+01
  7.72261074E+00  7.72261074E+00 -1.54452215E+01  7.72261074E+00  7.72261074E+00
 -1.54452215E+01  7.72261074E+00  7.72261074E+00 -1.54452215E+01  7.72261074E+00
  7.72261074E+00 -1.54452215E+01  7.72261074E+00  7.72261074E+00 -1.54452215E+01
  7.72261074E+00  7.72261074E+00 -1.54452215E+01  7.72261074E+00  7.72261074E+00
 -1.54452215E+01  7.72261074E+00  7.72261074E+00 -1.54452215E+01  7.72261074E+00
  7.72261074E+00 -1.54452215E+01  7.72261074E+00  7.72261074E+00 -1.54452215E+01
  7.72261074E+00  7.72261074E+00 -1.54452215E+01  7.72261074E+00  7.72261074E+00
 -1.54452215E+01  7.72261074E+00  7.72261074E+00 -1.54452215E+01  7.72261074E+00
  7.72261074E+00 -1.54452215E+01  7.72261074E+00  7.72261074E+00 -1.54452215E+01
  7.72261074E+00  7.72261074E+00 -1.54452215E+01  7.72261074E+00  7.72261074E+00
 -1.54452215E+01  7.72261074E+00  7.72261074E+00 -1.54452215E+01  7.72261074E+00
  7.72261074E+00 -1.54452215E+01  7.72261074E+00  7.72261074E+00 -1.54452215E+01
  7.72261074E+00  7.72261074E+00 -1.54452215E+01  7.72261074E+00  7.72261074E+00
 -1.54452215E+01  7.72261074E+00  7.72261074E+00 -1.54452215E+01  7.72261074E+00
  7.72261074E+00 -1.54452215E+01  7.72261074E+00  7.72261074E+00 -1.54452215E+01
  7.72261074E+00  7.72261074E+00 -1.54452215E+01  7.72261074E+00  7.72261074E+00
 -1.54452215E+01  7.72261074E+00  7.72261074E+00 -1.54452215E+01  7.72261074E+00
  7.72261074E+00 -1.54452215E+01  7.72261074E+00  7.72261074E+00 -1.54452215E+01
  7.72261074E+00  7.72261074E+00 -1.54452215E+01  7.72261074E+00  7.72261074E+00
 -1.54452215E+01  7.72261074E+00  7.72261074E+00 -1.54452215E+01  7.72261074E+00
  7.72261074E+00 -1.54452215E+01  7.72261074E+00  7.72261074E+00 -1.54452215E+01
  7.72261074E+00  7.72261074E+00 -1.54452215E+01  7.72261074E+00  7.72261074E+00
 -1.54452215E+01  7.72261074E+00  7.72261074E+00 -1.54452215E+01  7.72261074E+00
  7.72261074E+00 -1.54452215E+01  7.72261074E+00  7.72261074E+00 -1.54452215E+01
  7.72261074E+00  7.72261074E+00 -1.54452215E+01  7.72261074E+00  7.72261074E+00
 -1.54452215E+01  7.72261074E+00  7.72261074E+00 -1.54452215E+01  7.72261074E+00
  7.72261074E+00 -1.54452215E+01  7.72261074E+00  7.72261074E+00 -1.54452215E+01
  7.72261074E+00  7.72261074E+00 -1.54452215E+01  7.72261074E+00  7.72261074E+00
 -1.54452215E+01  7.72261074E+00  7.72261074E+00 -1.54452215E+01  7.72261074E+00
  7.72261074E+00 -1.54452215E+01  7.72261074E+00  7.72261074E+00 -1.54452215E+01
  7.72261074E+00  7.72261074E+00 -1.54452215E+01  7.72261074E+00  7.72261074E+00
 -1.54452215E+01  7.72261074E+00  7.72261074E+00 -1.54452215E+01  7.72261074E+00
  7.72261074E+00 -1.54452215E+01  7.72261074E+00  7.72261074E+00 -1.54452215E+01
  7.72261074E+00  7.72261074E+00 -1.54452215E+01  7.72261074E+00  7.72261074E+00
 -1.54452215E+01  7.72261074E+00  7.72261074E+00 -1.54452215E+01  7.72261074E+00
  7.72261074E+00 -1.54452215E+01  7.72261074E+00  7.72261074E+00 -1.54452215E+01
  7.72261074E+00  7.72261074E+00 -1.54452215E+01  7.72261074E+00  7.72261074E+00
 -1.54452215E+01  7.72261074E+00  7.72261074E+00 -1.54452215E+01  7.72261074E+00
  7.72261074E+00 -1.54452215E+01  7.72261074E+00  7.72261074E+00 -1.54452215E+01
  7.72261074E+00  7.72261074E+00 -1.54452215E+01  7.72261074E+00  7.72261074E+00
 -1.54452215E+01  7.72261074E+00  7.72261074E+00 -1.54452215E+01  7.72261074E+00
  7.72261074E+00 -1.54452215E+01  7.72261074E+00  7.72261074E+00 -1.54452215E+01
  7.72261074E+00  7.72261074E+00 -1.54452215E+01  7.72261074E+00  7.72261074E+00
 -1.54452215E+01  7.72261074E+00  7.72261074E+00 -1.54452215E+01  7.72261074E+00
  7.72261074E+00 -1.54452215E+01  7.72261074E+00  7.72261074E+00 -1.54452215E+01
  7.72261074E+00  7.72261074E+00 -1.54452215E+01  7.72261074E+00  7.72261074E+00
 -1.54452215E+01  7.72261074E+00  7.72261074E+00 -1.54452215E+01  7.72261074E+00
  7.72261074E+00 -1.54452215E+01  7.72261074E+00  7.72261074E+00 -1.54452215E+01
  7.72261074E+00  7.72261074E+00 -1.54452215E+01  7.72261074E+00  7.72261074E+00
 -1.54452215E+01  7.72261074E+00  7.72261074E+00 -1.54452215E+01  7.72261074E+00
  7.72261074E+00 -1.54452215E+01  7.72261074E+00  7.72261074E+00 -1.54452215E+01
  7.72261074E+00  7.72261074E+00 -1.54452215E+01  7.72261074E+00  7.72261074E+00
 -1.54452215E+01  7.72261074E+00  7.72261074E+00 -1.54452215E+01  7.72261074E+00
  7.72261074E+00 -1.54452215E+01  7.72261074E+00  7.72261074E+00 -1.54452215E+01
  7.72261074E+00  7.72261074E+00 -1.54452215E+01  7.72261074E+00  7.72261074E+00
 -1.54452215E+01  7.72261074E+00  7.72261074E+00 -1.54452215E+01  7.72261074E+00
  7.72261074E+00 -1.54452215E+01  7.72261074E+00  7.72261074E+00 -1.54452215E+01
  7.72261074E+00  7.72261074E+00 -1.54452215E+01  7.72261074E+00  7.72261074E+00
 -1.54452215E+01  7.72261074E+00  7.72261074E+00 -1.54452215E+01  7.72261074E+00
  7.72261074E+00 -1.54452215E+01  7.72261074E+00  7.72261074E+00 -1.54452215E+01
  7.72261074E+00  7.72261074E+00 -1.54452215E+01  7.72261074E+00  7.72261074E+00
 -1.54452215E+01  7.72261074E+00  7.72261074E+00 -1.54452215E+01  7.72261074E+00
  7.72261074E+00 -1.54452215E+01  7.72261074E+00  7.72261074E+00 -1.54452215E+01
  7.72261074E+00  7.72261074E+00 -1.54452215E+01  7.72261074E+00  7.72261074E+00
 -1.54452215E+01  7.72261074E+00  7.72261074E+00 -1.54452215E+01  7.72261074E+00
  7.72261074E+00 -1.54452215E+01  7.72261074E+00  7.72261074E+00 -1.54452215E+01
  7.72261074E+00  7.72261074E+00 -1.54452215E+01  7.72261074E+00  7.72261074E+00
 -1.54452215E+01  7.72261074E+00  7.72261074E+00 -1.54452215E+01  7.72261074E+00
  7.72261074E+00 -1.54452215E+01  7.72261074E+00  7.72261074E+00 -1.54452215E+01
  7.72261074E+00  7.72261074E+00 -1.54452215E+01  7.72261074E+00  7.72261074E+00
 -1.54452215E+01  7.72261074E+00  7.72261074E+00 -1.54452215E+01  7.72261074E+00
  7.72261074E+00 -1.54452215E+01  7.72261074E+00  7.72261074E+00 -1.54452215E+01
  7.72261074E+00  7.72261074E+00 -1.54452215E+01  7.72261074E+00  7.72261074E+00
 -1.54452215E+01  7.72261074E+00  7.72261074E+00 -1.54452215E+01  7.72261074E+00
  7.72261074E+00 -1.54452215E+01  7.72261074E+00  7.72261074E+00 -1.54452215E+01
  7.72261074E+00  7.72261074E+00 -1.54452215E+01  7.72261074E+00  7.72261074E+00
 -1.54452215E+01  7.72261074E+00  7.72261074E+00 -1.54452215E+01  7.72261074E+00
  7.72261074E+00 -1.54452215E+01  7.72261074E+00  7.72261074E+00 -1.54452215E+01
  7.72261074E+00  7.72261074E+00 -1.54452215E+01  7.72261074E+00  7.72261074E+00
 -1.54452215E+01  7.72261074E+00  7.72261074E+00 -1.54452215E+01  7.72261074E+00
  7.72261074E+00 -1.54452215E+01  7.72261074E+00  7.72261074E+00 -1.54452215E+01
  7.72261074E+00  7.72261074E+00 -1.54452215E+01  7.72261074E+00  7.72261074E+00
 -1.54452215E+01  7.72261074E+00  7.72261074E+00 -1.54452215E+01  7.72261074E+00
  7.72261074E+00 -1.54452215E+01  7.72261074E+00  7.72261074E+00 -1.54452215E+01
  7.72261074E+00  7.72261074E+00 -1.54452215E+01  7.72261074E+00  7.72261074E+00
 -1.54452215E+01  7.72261074E+00  7.72261074E+00 -1.54452215E+01  7.72261074E+00
  7.72261074E+00 -1.54452215E+01  7.72261074E+00  7.72261074E+00 -1.54452215E+01
  7.72261074E+00  7.72261074E+00 -1.54452215E+01  7.72261074E+00  7.72261074E+00
 -1.54452215E+01  7.72261074E+00  7.72261074E+00 -1.54452215E+01  7.72261074E+00
  7.72261074E+00 -1.54452215E+01  7.72261074E+00  7.72261074E+00 -1.54452215E+01
  7.72261074E+00  7.72261074E+00 -1.54452215E+01  7.72261074E+00  7.72261074E+00
 -1.54452215E+01  7.72261074E+00  7.72261074E+00 -1.54452215E+01  7.72261074E+00
  7.72261074E+00 -1.54452215E+01  7.72261074E+00  7.72261074E+00 -1.54452215E+01
  7.72261074E+00  7.72261074E+00 -1.54452215E+01  7.72261074E+00  7.72261074E+00
 -1.54452215E+01  7.72261074E+00  7.72261074E+00 -1.54452215E+01  7.72261074E+00
  7.72261074E+00 -1.54452215E+01  7.72261074E+00  7.72261074E+00 -1.54452215E+01
  7.72261074E+00  7.72261074E+00 -1.54452215E+01  7.72261074E+00  7.72261074E+00
 -1.54452215E+01  7.72261074E+00  7.72261074E+00 -1.54452215E+01  7.72261074E+00
  7.72261074E+00 -1.54452215E+01  7.72261074E+00  7.72261074E+00 -1.54452215E+01
  7.72261074E+00  7.72261074E+00 -1.54452215E+01  7.72261074E+00  7.72261074E+00
 -1.54452215E+01  7.72261074E+00  7.72261074E+00 -1.54452215E+01  7.72261074E+00
  7.72261074E+00 -1.54452215E+01  7.72261074E+00  7.72261074E+00 -1.54452215E+01
  7.72261074E+00  7.72261074E+00 -1.54452215E+01  7.72261074E+00  7.72261074E+00
 -1.54452215E+01  7.72261074E+00  7.72261074E+00 -1.54452215E+01  7.72261074E+00
  7.72261074E+00 -1.54452215E+01  7.72261074E+00  7.72261074E+00 -1.54452215E+01
  7.72261074E+00  7.72261074E+00 -1.54452215E+01  7.72261074E+00  7.72261074E+00
 -1.54452215E+01  7.72261074E+00  7.72261074E+00 -1.54452215E+01  7.72261074E+00
  7.72261074E+00 -1.54452215E+01  7.72261074E+00  7.72261074E+00 -1.54452215E+01
  7.72261074E+00  7.72261074E+00 -1.54452215E+01  7.72261074E+00  7.72261074E+00
 -1.54452215E+01  7.72261074E+00  7.72261074E+00 -1.54452215E+01  7.72261074E+00
  7.72261074E+00 -1.54452215E+01  7.72261074E+00  7.72261074E+00 -1.54452215E+01
  7.72261074E+00  7.72261074E+00 -1.54452215E+01  7.72261074E+00  7.72261074E+00
 -1.54452215E+01  7.72261074E+00  7.72261074E+00 -1.54452215E+01  7.72261074E+00
  7.72261074E+00 -1.54452215E+01  7.72261074E+00  7.72261074E+00 -1.54452215E+01
  7.72261074E+00  7.72261074E+00 -1.54452215E+01  7.72261074E+00  7.72261074E+00
 -1.54452215E+01  7.72261074E+00  7.72261074E+00 -1.54452215E+01  7.72261074E+00
  7.72261074E+00 -1.54452215E+01  7.72261074E+00  7.72261074E+00 -1.54452215E+01
  7.72261074E+00  7.72261074E+00 -1.54452215E+01  7.72261074E+00  7.72261074E+00
 -1.54452215E+01  7.72261074E+00  7.72261074E+00 -1.54452215E+01  7.72261074E+00
  7.72261074E+00 -1.54452215E+01  7.72261074E+00  7.72261074E+00 -1.54452215E+01
  7.72261074E+00  7.72261074E+00 -1.54452215E+01  7.72261074E+00  7.72261074E+00
 -1.54452215E+01  7.72261074E+00  7.72261074E+00 -1.54452215E+01  7.72261074E+00
  7.72261074E+00 -1.54452215E+01  7.72261074E+00  7.72261074E+00 -1.54452215E+01
  7.72261074E+00  7.72261074E+00 -1.54452215E+01  7.72261074E+00  7.72261074E+00
 -1.54452215E+01  7.72261074E+00  7.72261074E+00 -1.54452215E+01  7.72261074E+00
  7.72261074E+00 -1.54452215E+01  7.72261074E+00  7.72261074E+00 -1.54452215E+01
  7.72261074E+00  7.72261074E+00 -1.54452215E+01  7.72261074E+00  7.72261074E+00
 -1.54452215E+01  7.72261074E+00  7.72261074E+00 -1.54452215E+01  7.72261074E+00
  7.72261074E+00 -1.54452215E+01  7.72261074E+00  7.72261074E+00 -1.54452215E+01
  7.72261074E+00  7.72261074E+00 -1.54452215E+01  7.72261074E+00  7.72261074E+00
 -1.54452215E+01  7.72261074E+00  7.72261074E+00 -1.54452215E+01  7.72261074E+00
  7.72261074E+00 -1.54452215E+01  7.72261074E+00  7.72261074E+00 -1.54452215E+01
  7.72261074E+00  7.72261074E+00 -1.54452215E+01  7.72261074E+00  7.72261074E+00
 -1.54452215E+01  7.72261074E+00  7.72261074E+00 -1.54452215E+01  7.72261074E+00
  7.72261074E+00 -1.54452215E+01  7.72261074E+00  7.72261074E+00 -1.54452215E+01
  7.72261074E+00  7.72261074E+00 -1.54452215E+01  7.72261074E+00  7.72261074E+00
 -1.54452215E+01  7.72261074E+00  7.72261074E+00 -1.54452215E+01  7.72261074E+00
  7.72261074E+00 -1.54452215E+01  7.72261074E+00  7.72261074E+00 -1.54452215E+01
  7.72261074E+00  7.72261074E+00 -1.54452215E+01  7.72261074E+00  7.72261074E+00
 -1.54452215E+01  7.72261074E+00  7.72261074E+00 -1.54452215E+01  7.72261074E+00
  7.72261074E+00 -1.54452215E+01  7.72261074E+00  7.72261074E+00 -1.54452215E+01
  7.72261074E+00  7.72261074E+00 -1.54452215E+01  7.72261074E+00  7.72261074E+00
 -1.54452215E+01  7.72261074E+00  7.72261074E+00 -1.54452215E+01  7.72261074E+00
  7.72261074E+00 -1.54452215E+01  7.72261074E+00  7.72261074E+00 -1.54452215E+01
  7.72261074E+00  7.72261074E+00 -1.54452215E+01  7.72261074E+00  7.72261074E+00
 -1.54452215E+01  7.72261074E+00  7.72261074E+00 -1.54452215E+01  7.72261074E+00
  7.72261074E+00 -1.54452215E+01  7.72261074E+00  7.72261074E+00 -1.54452215E+01
  7.72261074E+00  7.72261074E+00 -1.54452215E+01  7.72261074E+00  7.72261074E+00
 -1.54452215E+01  7.72261074E+00  7.72261074E+00 -1.54452215E+01  7.72261074E+00
  7.72261074E+00 -1.54452215E+01  7.72261074E+00  7.72261074E+00 -1.54452215E+01
  7.72261074E+00  7.72261074E+00 -1.54452215E+01  7.72261074E+00  7.72261074E+00
 -1.54452215E+01  7.72261074E+00  7.72261074E+00 -1.54452215E+01  7.72261074E+00
  7.72261074E+00 -1.54452215E+01  7.72261074E+00  7.72261074E+00 -1.54452215E+01
  7.72261074E+00  7.72261074E+00 -1.54452215E+01  7.72261074E+00  7.72261074E+00
 -1.54452215E+01  7.72261074E+00  7.72261074E+00 -1.54452215E+01  7.72261074E+00
  7.72261074E+00 -1.54452215E+01  7.72261074E+00  7.72261074E+00 -1.54452215E+01
  7.72261074E+00  7.72261074E+00 -1.54452215E+01  7.72261074E+00  7.72261074E+00
 -1.54452215E+01  7.72261074E+00  7.72261074E+00 -1.54452215E+01  7.72261074E+00
  7.72261074E+00 -1.54452215E+01  7.72261074E+00  7.72261074E+00 -1.54452215E+01
  7.72261074E+00  7.72261074E+00 -1.54452215E+01  7.72261074E+00  7.72261074E+00
 -1.54452215E+01  7.72261074E+00  7.72261074E+00 -1.54452215E+01  7.72261074E+00
  7.72261074E+00 -1.54452215E+01  7.72261074E+00  7.72261074E+00 -1.54452215E+01
  7.72261074E+00  7.72261074E+00 -1.54452215E+01  7.72261074E+00  7.72261074E+00
 -1.54452215E+01  7.72261074E+00  7.72261074E+00 -1.54452215E+01  7.72261074E+00
  7.72261074E+00 -1.54452215E+01  7.72261074E+00  7.72261074E+00 -1.54452215E+01
  7.72261074E+00  7.72261074E+00 -1.54452215E+01  7.72261074E+00  7.72261074E+00
 -1.54452215E+01  7.72261074E+00  7.72261074E+00 -1.54452215E+01  7.72261074E+00
  7.72261074E+00 -1.54452215E+01  7.72261074E+00  7.72261074E+00 -1.54452215E+01
  7.72261074E+00  7.72261074E+00 -1.54452215E+01  7.72261074E+00  7.72261074E+00
 -1.54452215E+01  7.72261074E+00  7.72261074E+00 -1.54452215E+01  7.72261074E+00
  7.72261074E+00 -1.54452215E+01  7.72261074E+00  7.72261074E+00 -1.54452215E+01
  7.72261074E+00  7.72261074E+00 -1.54452215E+01  7.72261074E+00  7.72261074E+00
 -1.54452215E+01  7.72261074E+00  7.72261074E+00 -1.54452215E+01  7.72261074E+00
  7.72261074E+00 -1.54452215E+01  7.72261074E+00  7.72261074E+00 -1.54452215E+01
  7.72261074E+00  7.72261074E+00 -1.54452215E+01  7.72261074E+00  7.72261074E+00
 -1.54452215E+01  7.72261074E+00  7.72261074E+00 -1.54452215E+01  7.72261074E+00
  7.72261074E+00 -1.54452215E+01  7.72261074E+00  7.72261074E+00 -1.54452215E+01
  7.72261074E+00  7.72261074E+00 -1.54452215E+01  7.72261074E+00  7.72261074E+00
 -1.54452215E+01  7.72261074E+00  7.72261074E+00 -1.54452215E+01  7.72261074E+00
  7.72261074E+00 -1.54452215E+01  7.72261074E+00  7.72261074E+00 -1.54452215E+01
  7.72261074E+00  7.72261074E+00 -1.54452215E+01  7.72261074E+00  7.72261074E+00
 -1.54452215E+01  7.72261074E+00  7.72261074E+00 -1.54452215E+01  7.72261074E+00
  7.72261074E+00 -1.54452215E+01  7.72261074E+00  7.72261074E+00 -1.54452215E+01
  7.72261074E+00  7.72261074E+00 -1.54452215E+01  7.72261074E+00  7.72261074E+00
 -1.54452215E+01  7.72261074E+00  7.72261074E+00 -1.54452215E+01  7.72261074E+00
  7.72261074E+00 -1.54452215E+01  7.72261074E+00  7.72261074E+00 -1.54452215E+01
  7.72261074E+00  7.72261074E+00 -1.54452215E+01  7.72261074E+00  7.72261074E+00
 -1.54452215E+01  7.72261074E+00  7.72261074E+00 -1.54452215E+01  7.72261074E+00
  7.72261074E+00 -1.54452215E+01  7.72261074E+00  7.72261074E+00 -1.54452215E+01
  7.72261074E+00  7.72261074E+00 -1.54452215E+01  7.72261074E+00  7.72261074E+00
 -1.54452215E+01  7.72261074E+00  7.72261074E+00 -1.54452215E+01  7.72261074E+00
  7.72261074E+00 -1.54452215E+01  7.72261074E+00  7.72261074E+00 -1.54452215E+01
  7.72261074E+00  7.72261074E+00 -1.54452215E+01  7.72261074E+00  7.72261074E+00
 -1.54452215E+01  7.72261074E+00  7.72261074E+00 -1.54452215E+01  7.72261074E+00
  7.72261074E+00 -1.54452215E+01  7.72261074E+00  7.72261074E+00 -1.54452215E+01
  7.72261074E+00  7.72261074E+00 -1.54452215E+01  7.72261074E+00  7.72261074E+00
 -1.54452215E+01  7.72261074E+00  7.72261074E+00 -1.54452215E+01  7.72261074E+00
  7.72261074E+00 -1.54452215E+01  7.72261074E+00  7.72261074E+00 -1.54452215E+01
  7.72261074E+00  7.72261074E+00 -1.54452215E+01  7.72261074E+00  7.72261074E+00
 -1.54452215E+01  7.72261074E+00  7.72261074E+00 -1.54452215E+01  7.72261074E+00
  7.72261074E+00 -1.54452215E+01  7.72261074E+00  7.72261074E+00 -1.54452215E+01
  7.72261074E+00  7.72261074E+00 -1.54452215E+01  7.72261074E+00  7.72261074E+00
 -1.54452215E+01  7.72261074E+00  7.72261074E+00 -1.54452215E+01  7.72261074E+00
  7.72261074E+00 -1.54452215E+01  7.72261074E+00  7.72261074E+00 -1.54452215E+01
  7.72261074E+00  7.72261074E+00 -1.54452215E+01  7.72261074E+00  7.72261074E+00
 -1.54452215E+01  7.72261074E+00  7.72261074E+00 -1.54452215E+01  7.72261074E+00
  7.72261074E+00 -1.54452215E+01  7.72261074E+00  7.72261074E+00 -1.54452215E+01
  7.72261074E+00  7.72261074E+00 -1.54452215E+01  7.72261074E+00  7.72261074E+00
 -1.54452215E+01  7.72261074E+00  7.72261074E+00 -1.54452215E+01  7.72261074E+00
  7.72261074E+00 -1.54452215E+01  7.72261074E+00  7.72261074E+00 -1.54452215E+01
  7.72261074E+00  7.72261074E+00 -1.54452215E+01  7.72261074E+00  7.72261074E+00
 -1.54452215E+01  7.72261074E+00  7.72261074E+00 -1.54452215E+01  7.72261074E+00
  7.72261074E+00 -1.54452215E+01  7.72261074E+00  7.72261074E+00 -1.54452215E+01
  7.72261074E+00  7.72261074E+00 -1.54452215E+01  7.72261074E+00  7.72261074E+00
 -1.54452215E+01  7.72261074E+00  7.72261074E+00 -1.54452215E+01  7.72261074E+00
  7.72261074E+00 -1.54452215E+01  7.72261074E+00  7.72261074E+00 -1.54452215E+01
  7.72261074E+00  7.72261074E+00 -1.54452215E+01  7.72261074E+00  7.72261074E+00
 -1.54452215E+01  7.72261074E+00  7.72261074E+00 -1.54452215E+01  7.72261074E+00
  7.72261074E+00 -1.54452215E+01  7.72261074E+00  7.72261074E+00 -1.54452215E+01
  7.72261074E+00  7.72261074E+00 -1.54452215E+01  7.72261074E+00  7.72261074E+00
 -1.54452215E+01  7.72261074E+00  7.72261074E+00 -1.54452215E+01  7.72261074E+00
  7.72261074E+00 -1.54452215E+01  7.72261074E+00  7.72261074E+00 -1.54452215E+01
  7.72261074E+00  7.72261074E+00 -1.54452215E+01  7.72261074E+00  7.72261074E+00
 -1.54452215E+01  7.72261074E+00  7.72261074E+00 -1.54452215E+01  7.72261074E+00
  7.72261074E+00 -1.54452215E+01  7.72261074E+00  7.72261074E+00 -1.54452215E+01
  7.72261074E+00  7.72261074E+00 -1.54452215E+01  7.72261074E+00  7.72261074E+00
 -1.54452215E+01  7.72261074E+00  7.72261074E+00 -1.54452215E+01  7.72261074E+00
  7.72261074E+00 -1.54452215E+01  7.72261074E+00  7.72261074E+00 -1.54452215E+01
  7.72261074E+00  7.72261074E+00 -1.54452215E+01  7.72261074E+00  7.72261074E+00
 -1.54452215E+01  7.72261074E+00  7.72261074E+00 -1.54452215E+01  7.72261074E+00
  7.72261074E+00 -1.54452215E+01  7.72261074E+00  7.72261074E+00 -1.54452215E+01
  7.72261074E+00  7.72261074E+00 -1.54452215E+01  7.72261074E+00  7.72261074E+00
 -1.54452215E+01  7.72261074E+00  7.72261074E+00 -1.54452215E+01  7.72261074E+00
  7.72261074E+00 -1.54452215E+01  7.72261074E+00  7.72261074E+00 -1.54452215E+01
  7.72261074E+00  7.72261074E+00 -1.54452215E+01  7.72261074E+00  7.72261074E+00
 -1.54452215E+01  7.72261074E+00  7.72261074E+00 -1.54452215E+01  7.72261074E+00
  7.72261074E+00 -1.54452215E+01  7.72261074E+00  7.72261074E+00 -1.54452215E+01
  7.72261074E+00  7.72261074E+00 -1.54452215E+01  7.72261074E+00  7.72261074E+00
 -1.54452215E+01  7.72261074E+00  7.72261074E+00 -1.54452215E+01  7.72261074E+00
  7.72261074E+00 -1.54452215E+01  7.72261074E+00  7.72261074E+00 -1.54452215E+01
  7.72261074E+00  7.72261074E+00 -1.54452215E+01  7.72261074E+00  7.72261074E+00
 -1.54452215E+01  7.72261074E+00  7.72261074E+00 -1.54452215E+01  7.72261074E+00
  7.72261074E+00 -1.54452215E+01  7.72261074E+00  7.72261074E+00 -1.54452215E+01
  7.72261074E+00  7.72261074E+00 -1.54452215E+01  7.72261074E+00  7.72261074E+00
 -1.54452215E+01  7.72261074E+00  7.72261074E+00 -1.54452215E+01  7.72261074E+00
  7.72261074E+00 -1.54452215E+01  7.72261074E+00  7.72261074E+00 -1.54452215E+01
  7.72261074E+00  7.72261074E+00 -1.54452215E+01  7.72261074E+00  7.72261074E+00
 -1.54452215E+01  7.72261074E+00  7.72261074E+00 -1.54452215E+01  7.72261074E+00
  7.72261074E+00 -1.54452215E+01  7.72261074E+00  7.72261074E+00 -1.54452215E+01
  7.72261074E+00  7.72261074E+00 -1.54452215E+01  7.72261074E+00  7.72261074E+00
 -1.54452215E+01  7.72261074E+00  7.72261074E+00 -1.54452215E+01  7.72261074E+00
  7.72261074E+00 -1.54452215E+01  7.72261074E+00  7.72261074E+00 -1.54452215E+01
  7.72261074E+00  7.72261074E+00 -1.54452215E+01  7.72261074E+00  7.72261074E+00
 -1.54452215E+01  7.72261074E+00  7.72261074E+00 -1.54452215E+01  7.72261074E+00
  7.72261074E+00 -1.54452215E+01  7.72261074E+00  7.72261074E+00 -1.54452215E+01
  7.72261074E+00  7.72261074E+00 -1.54452215E+01  7.72261074E+00  7.72261074E+00
 -1.54452215E+01  7.72261074E+00  7.72261074E+00 -1.54452215E+01  7.72261074E+00
  7.72261074E+00 -1.54452215E+01  7.72261074E+00  7.72261074E+00 -1.54452215E+01
  7.72261074E+00  7.72261074E+00 -1.54452215E+01  7.72261074E+00  7.72261074E+00
 -1.54452215E+01  7.72261074E+00  7.72261074E+00 -1.54452215E+01  7.72261074E+00
  7.72261074E+00 -1.54452215E+01  7.72261074E+00  7.72261074E+00 -1.54452215E+01
  7.72261074E+00  7.72261074E+00 -1.54452215E+01  7.72261074E+00  7.72261074E+00
 -1.54452215E+01  7.72261074E+00  7.72261074E+00 -1.54452215E+01  7.72261074E+00
  7.72261074E+00 -1.54452215E+01  7.72261074E+00  7.72261074E+00 -1.54452215E+01
  7.72261074E+00  7.72261074E+00 -1.54452215E+01  7.72261074E+00  7.72261074E+00
 -1.54452215E+01  7.72261074E+00  7.72261074E+00 -1.54452215E+01  7.72261074E+00
  7.72261074E+00 -1.54452215E+01  7.72261074E+00  7.72261074E+00 -1.54452215E+01
  7.72261074E+00  7.72261074E+00 -1.54452215E+01  7.72261074E+00  7.72261074E+00
 -1.54452215E+01  7.72261074E+00  7.72261074E+00 -1.54452215E+01  7.72261074E+00
  7.72261074E+00 -1.54452215E+01  7.72261074E+00  7.72261074E+00 -1.54452215E+01
  7.72261074E+00  7.72261074E+00 -1.54452215E+01  7.72261074E+00  7.72261074E+00
 -1.54452215E+01  7.72261074E+00  7.72261074E+00 -1.54452215E+01  7.72261074E+00
  7.72261074E+00 -1.54452215E+01  7.72261074E+00  7.72261074E+00 -1.54452215E+01
  7.72261074E+00  7.72261074E+00 -1.54452215E+01  7.72261074E+00  7.72261074E+00
 -1.54452215E+01  7.72261074E+00  7.72261074E+00 -1.54452215E+01  7.72261074E+00
  7.72261074E+00 -1.54452215E+01  7.72261074E+00  7.72261074E+00 -1.54452215E+01
  7.72261074E+00  7.72261074E+00 -1.54452215E+01  7.72261074E+00  7.72261074E+00
 -1.54452215E+01  7.72261074E+00  7.72261074E+00 -1.54452215E+01  7.72261074E+00
  7.72261074E+00 -1.54452215E+01  7.72261074E+00  7.72261074E+00 -1.54452215E+01
  7.72261074E+00  7.72261074E+00 -1.54452215E+01  7.72261074E+00  7.72261074E+00
 -1.54452215E+01  7.72261074E+00  7.72261074E+00 -1.54452215E+01  7.72261074E+00
  7.72261074E+00 -1.54452215E+01  7.72261074E+00  7.72261074E+00 -1.54452215E+01
  7.72261074E+00  7.72261074E+00 -1.54452215E+01  7.72261074E+00  7.72261074E+00
 -1.54452215E+01  7.72261074E+00  7.72261074E+00 -1.54452215E+01  7.72261074E+00
  7.72261074E+00 -1.54452215E+01  7.72261074E+00  7.72261074E+00 -1.54452215E+01
  7.72261074E+00  7.72261074E+00 -1.54452215E+01  7.72261074E+00  7.72261074E+00
 -1.54452215E+01  7.72261074E+00  7.72261074E+00 -1.54452215E+01  7.72261074E+00
  7.72261074E+00 -1.54452215E+01  7.72261074E+00  7.72261074E+00 -1.54452215E+01
  7.72261074E+00  7.72261074E+00 -1.54452215E+01  7.72261074E+00  7.72261074E+00
 -1.54452215E+01  7.72261074E+00  7.72261074E+00 -1.54452215E+01  7.72261074E+00
  7.72261074E+00 -1.54452215E+01  7.72261074E+00  7.72261074E+00 -1.54452215E+01
  7.72261074E+00  7.72261074E+00 -1.54452215E+01  7.72261074E+00  7.72261074E+00
 -1.54452215E+01  7.72261074E+00  7.72261074E+00 -1.54452215E+01  7.72261074E+00
  7.72261074E+00 -1.54452215E+01  7.72261074E+00  7.72261074E+00 -1.54452215E+01
  7.72261074E+00  7.72261074E+00 -1.54452215E+01  7.72261074E+00  7.72261074E+00
 -1.54452215E+01  7.72261074E+00  7.72261074E+00 -1.54452215E+01  7.72261074E+00
  7.72261074E+00 -1.54452215E+01  7.72261074E+00  7.72261074E+00 -1.54452215E+01
  7.72261074E+00  7.72261074E+00 -1.54452215E+01  7.72261074E+00  7.72261074E+00
 -1.54452215E+01  7.72261074E+00  7.72261074E+00 -1.54452215E+01  7.72261074E+00
  7.72261074E+00 -1.54452215E+01  7.72261074E+00  7.72261074E+00 -1.54452215E+01
  7.72261074E+00  7.72261074E+00 -1.54452215E+01  7.72261074E+00  7.72261074E+00
 -1.54452215E+01  7.72261074E+00  7.72261074E+00 -1.54452215E+01  7.72261074E+00
  7.72261074E+00 -1.54452215E+01  7.72261074E+00  7.72261074E+00 -1.54452215E+01
  7.72261074E+00  7.72261074E+00 -1.54452215E+01  7.72261074E+00  7.72261074E+00
 -1.54452215E+01  7.72261074E+00  7.72261074E+00 -1.54452215E+01  7.72261074E+00
  7.72261074E+00 -1.54452215E+01  7.72261074E+00  7.72261074E+00 -1.54452215E+01
  7.72261074E+00  7.72261074E+00 -1.54452215E+01  7.72261074E+00  7.72261074E+00
 -1.54452215E+01  7.72261074E+00  7.72261074E+00 -1.54452215E+01  7.72261074E+00
  7.72261074E+00 -1.54452215E+01  7.72261074E+00  7.72261074E+00 -1.54452215E+01
  7.72261074E+00  7.72261074E+00 -1.54452215E+01  7.72261074E+00  7.72261074E+00
 -1.54452215E+01  7.72261074E+00  7.72261074E+00 -1.54452215E+01  7.72261074E+00
  7.72261074E+00 -1.54452215E+01  7.72261074E+00  7.72261074E+00 -1.54452215E+01
  7.72261074E+00  7.72261074E+00 -1.54452215E+01  7.72261074E+00  7.72261074E+00
 -1.54452215E+01  7.72261074E+00  7.72261074E+00 -1.54452215E+01  7.72261074E+00
  7.72261074E+00 -1.54452215E+01  7.72261074E+00  7.72261074E+00 -1.54452215E+01
  7.72261074E+00  7.72261074E+00 -1.54452215E+01  7.72261074E+00  7.72261074E+00
 -1.54452215E+01  7.72261074E+00  7.72261074E+00 -1.54452215E+01  7.72261074E+00
  7.72261074E+00 -1.54452215E+01  7.72261074E+00  7.72261074E+00 -1.54452215E+01
  7.72261074E+00  7.72261074E+00 -1.54452215E+01  7.72261074E+00  7.72261074E+00
 -1.54452215E+01  7.72261074E+00  7.72261074E+00 -1.54452215E+01  7.72261074E+00
  7.72261074E+00 -1.54452215E+01  7.72261074E+00  7.72261074E+00 -1.54452215E+01
  7.72261074E+00  7.72261074E+00 -1.54452215E+01  7.72261074E+00  7.72261074E+00
 -1.54452215E+01  7.72261074E+00  7.72261074E+00 -1.54452215E+01  7.72261074E+00
  7.72261074E+00 -1.54452215E+01  7.72261074E+00  7.72261074E+00 -1.54452215E+01
  7.72261074E+00  7.72261074E+00 -1.54452215E+01  7.72261074E+00  7.72261074E+00
 -1.54452215E+01  7.72261074E+00  7.72261074E+00 -1.54452215E+01  7.72261074E+00
  7.72261074E+00 -1.54452215E+01  7.72261074E+00  7.72261074E+00 -1.54452215E+01
  7.72261074E+00  7.72261074E+00 -1.54452215E+01  7.72261074E+00  7.72261074E+00
 -1.54452215E+01  7.72261074E+00  7.72261074E+00 -1.54452215E+01  7.72261074E+00
  7.72261074E+00 -1.54452215E+01  7.72261074E+00  7.72261074E+00 -1.54452215E+01
  7.72261074E+00  7.72261074E+00 -1.54452215E+01  7.72261074E+00  7.72261074E+00
 -1.54452215E+01  7.72261074E+00  7.72261074E+00 -1.54452215E+01  7.72261074E+00
  7.72261074E+00 -1.54452215E+01  7.72261074E+00  7.72261074E+00 -1.54452215E+01
  7.72261074E+00  7.72261074E+00 -1.54452215E+01  7.72261074E+00  7.72261074E+00
 -1.54452215E+01  7.72261074E+00  7.72261074E+00 -1.54452215E+01  7.72261074E+00
  7.72261074E+00 -1.54452215E+01  7.72261074E+00  7.72261074E+00 -1.54452215E+01
  7.72261074E+00  7.72261074E+00 -1.54452215E+01  7.72261074E+00  7.72261074E+00
 -1.54452215E+01  7.72261074E+00  7.72261074E+00 -1.54452215E+01  7.72261074E+00
  7.72261074E+00 -1.54452215E+01  7.72261074E+00  7.72261074E+00 -1.54452215E+01
  7.72261074E+00  7.72261074E+00 -1.54452215E+01  7.72261074E+00  7.72261074E+00
 -1.54452215E+01  7.72261074E+00  7.72261074E+00 -1.54452215E+01  7.72261074E+00
  7.72261074E+00 -1.54452215E+01  7.72261074E+00  7.72261074E+00 -1.54452215E+01
  7.72261074E+00  7.72261074E+00 -1.54452215E+01  7.72261074E+00  7.72261074E+00
 -1.54452215E+01  7.72261074E+00  7.72261074E+00 -1.54452215E+01  7.72261074E+00
  7.72261074E+00 -1.54452215E+01  7.72261074E+00  7.72261074E+00 -1.54452215E+01
  7.72261074E+00  7.72261074E+00 -1.54452215E+01  7.72261074E+00  7.72261074E+00
 -1.54452215E+01  7.72261074E+00  7.72261074E+00 -1.54452215E+01  7.72261074E+00
  7.72261074E+00 -1.54452215E+01  7.72261074E+00  7.72261074E+00 -1.54452215E+01
  7.72261074E+00  7.72261074E+00 -1.54452215E+01  7.72261074E+00  7.72261074E+00
 -1.54452215E+01  7.72261074E+00  7.72261074E+00 -1.54452215E+01  7.72261074E+00
  7.72261074E+00 -1.54452215E+01  7.72261074E+00  7.72261074E+00 -1.54452215E+01
  7.72261074E+00  7.72261074E+00 -1.54452215E+01  7.72261074E+00  7.72261074E+00
 -1.54452215E+01  7.72261074E+00  7.72261074E+00 -1.54452215E+01  7.72261074E+00
  7.72261074E+00 -1.54452215E+01  7.72261074E+00  7.72261074E+00 -1.54452215E+01
  7.72261074E+00  7.72261074E+00 -1.54452215E+01  7.72261074E+00  7.72261074E+00
 -1.54452215E+01  7.72261074E+00  7.72261074E+00 -1.54452215E+01  7.72261074E+00
  7.72261074E+00 -1.54452215E+01  7.72261074E+00  7.72261074E+00 -1.54452215E+01
  7.72261074E+00  7.72261074E+00 -1.54452215E+01  7.72261074E+00  7.72261074E+00
 -1.54452215E+01  7.72261074E+00  7.72261074E+00 -1.54452215E+01  7.72261074E+00
  7.72261074E+00 -1.54452215E+01  7.72261074E+00  7.72261074E+00 -1.54452215E+01
  7.72261074E+00  7.72261074E+00 -1.54452215E+01  7.72261074E+00  7.72261074E+00
 -1.54452215E+01  7.72261074E+00  7.72261074E+00 -1.54452215E+01  7.72261074E+00
  7.72261074E+00 -1.54452215E+01  7.72261074E+00  7.72261074E+00 -1.54452215E+01
  7.72261074E+00  7.72261074E+00 -1.54452215E+01  7.72261074E+00  7.72261074E+00
 -1.54452215E+01  7.72261074E+00  7.72261074E+00 -1.54452215E+01  7.72261074E+00
  7.72261074E+00 -1.54452215E+01  7.72261074E+00  7.72261074E+00 -1.54452215E+01
  7.72261074E+00  7.72261074E+00 -1.54452215E+01  7.72261074E+00  7.72261074E+00
 -1.54452215E+01  7.72261074E+00  7.72261074E+00 -1.54452215E+01  7.72261074E+00
  7.72261074E+00 -1.54452215E+01  7.72261074E+00  7.72261074E+00 -1.54452215E+01
  7.72261074E+00  7.72261074E+00 -1.54452215E+01  7.72261074E+00  7.72261074E+00
 -1.54452215E+01  7.72261074E+00  7.72261074E+00 -1.54452215E+01  7.72261074E+00
  7.72261074E+00 -1.54452215E+01  7.72261074E+00  7.72261074E+00 -1.54452215E+01
  7.72261074E+00  7.72261074E+00 -1.54452215E+01  7.72261074E+00  7.72261074E+00
 -1.54452215E+01  7.72261074E+00  7.72261074E+00 -1.54452215E+01  7.72261074E+00
  7.72261074E+00 -1.54452215E+01  7.72261074E+00  7.72261074E+00 -1.54452215E+01
  7.72261074E+00  7.72261074E+00 -1.54452215E+01  7.72261074E+00  7.72261074E+00
 -1.54452215E+01  7.72261074E+00  7.72261074E+00 -1.54452215E+01  7.72261074E+00
  7.72261074E+00 -1.54452215E+01  7.72261074E+00  7.72261074E+00 -1.54452215E+01
  7.72261074E+00  7.72261074E+00 -1.54452215E+01  7.72261074E+00  7.72261074E+00
 -1.54452215E+01  7.72261074E+00  7.72261074E+00 -1.54452215E+01  7.72261074E+00
  7.72261074E+00 -1.54452215E+01  7.72261074E+00  7.72261074E+00 -1.54452215E+01
  7.72261074E+00  7.72261074E+00 -1.54452215E+01  7.72261074E+00  7.72261074E+00
 -1.54452215E+01  7.72261074E+00  7.72261074E+00 -1.54452215E+01  7.72261074E+00
  7.72261074E+00 -1.54452215E+01  7.72261074E+00  7.72261074E+00 -1.54452215E+01
  7.72261074E+00  7.72261074E+00 -1.54452215E+01  7.72261074E+00  7.72261074E+00
 -1.54452215E+01  7.72261074E+00  7.72261074E+00 -1.54452215E+01  7.72261074E+00
  7.72261074E+00 -1.54452215E+01  7.72261074E+00  7.72261074E+00 -1.54452215E+01
  7.72261074E+00  7.72261074E+00 -1.54452215E+01  7.72261074E+00  7.72261074E+00
 -1.54452215E+01  7.72261074E+00  7.72261074E+00 -1.54452215E+01  7.72261074E+00
  7.72261074E+00 -1.54452215E+01  7.72261074E+00  7.72261074E+00 -1.54452215E+01
  7.72261074E+00  7.72261074E+00 -1.54452215E+01  7.72261074E+00  7.72261074E+00
 -1.54452215E+01  7.72261074E+00  7.72261074E+00 -1.54452215E+01  7.72261074E+00
  7.72261074E+00 -1.54452215E+01  7.72261074E+00  7.72261074E+00 -1.54452215E+01
  7.72261074E+00  7.72261074E+00 -1.54452215E+01  7.72261074E+00  7.72261074E+00
 -1.54452215E+01  7.72261074E+00  7.72261074E+00 -1.54452215E+01  7.72261074E+00
  7.72261074E+00 -1.54452215E+01  7.72261074E+00  7.72261074E+00 -1.54452215E+01
  7.72261074E+00  7.72261074E+00 -1.54452215E+01  7.72261074E+00  7.72261074E+00
 -1.54452215E+01  7.72261074E+00  7.72261074E+00 -1.54452215E+01  7.72261074E+00
  7.72261074E+00 -1.54452215E+01  7.72261074E+00  7.72261074E+00 -1.54452215E+01
  7.72261074E+00  7.72261074E+00 -1.54452215E+01  7.72261074E+00  7.72261074E+00
 -1.54452215E+01  7.72261074E+00  7.72261074E+00 -1.54452215E+01  7.72261074E+00
  7.72261074E+00 -1.54452215E+01  7.72261074E+00  7.72261074E+00 -1.54452215E+01
  7.72261074E+00  7.72261074E+00 -1.54452215E+01  7.72261074E+00  7.72261074E+00
 -1.54452215E+01  7.72261074E+00  7.72261074E+00 -1.54452215E+01  7.72261074E+00
  7.72261074E+00 -1.54452215E+01  7.72261074E+00  7.72261074E+00 -1.54452215E+01
  7.72261074E+00  7.72261074E+00 -1.54452215E+01  7.72261074E+00  7.72261074E+00
 -1.54452215E+01  7.72261074E+00  7.72261074E+00 -1.54452215E+01  7.72261074E+00
  7.72261074E+00 -1.54452215E+01  7.72261074E+00  7.72261074E+00 -1.54452215E+01
  7.72261074E+00  7.72261074E+00 -1.54452215E+01  7.72261074E+00  7.72261074E+00
 -1.54452215E+01  7.72261074E+00  7.72261074E+00 -1.54452215E+01  7.72261074E+00
  7.72261074E+00 -1.54452215E+01  7.72261074E+00  7.72261074E+00 -1.54452215E+01
  7.72261074E+00  7.72261074E+00 -1.54452215E+01  7.72261074E+00  7.72261074E+00
 -1.54452215E+01  7.72261074E+00  7.72261074E+00 -1.54452215E+01  7.72261074E+00
  7.72261074E+00 -1.54452215E+01  7.72261074E+00  7.72261074E+00 -1.54452215E+01
  7.72261074E+00  7.72261074E+00 -1.54452215E+01  7.72261074E+00  7.72261074E+00
 -1.54452215E+01  7.72261074E+00  7.72261074E+00 -1.54452215E+01  7.72261074E+00
  7.72261074E+00 -1.54452215E+01  7.72261074E+00  7.72261074E+00 -1.54452215E+01
  7.72261074E+00  7.72261074E+00 -1.54452215E+01  7.72261074E+00  7.72261074E+00
 -1.54452215E+01  7.72261074E+00  7.72261074E+00 -1.54452215E+01  7.72261074E+00
  7.72261074E+00 -1.54452215E+01  7.72261074E+00  7.72261074E+00 -1.54452215E+01
  7.72261074E+00  7.72261074E+00 -1.54452215E+01  7.72261074E+00  7.72261074E+00
 -1.54452215E+01  7.72261074E+00  7.72261074E+00 -1.54452215E+01  7.72261074E+00
  7.72261074E+00 -1.54452215E+01  7.72261074E+00  7.72261074E+00 -1.54452215E+01
  7.72261074E+00  7.72261074E+00 -1.54452215E+01  7.72261074E+00  7.72261074E+00
 -1.54452215E+01  7.72261074E+00  7.72261074E+00 -1.54452215E+01  7.72261074E+00
  7.72261074E+00 -1.54452215E+01  7.72261074E+00  7.72261074E+00 -1.54452215E+01
  7.72261074E+00  7.72261074E+00 -1.54452215E+01  7.72261074E+00  7.72261074E+00
 -1.54452215E+01  7.72261074E+00  7.72261074E+00 -1.54452215E+01  7.72261074E+00
  7.72261074E+00 -1.54452215E+01  7.72261074E+00  7.72261074E+00 -1.54452215E+01
  7.72261074E+00  7.72261074E+00 -1.54452215E+01  7.72261074E+00  7.72261074E+00
 -1.54452215E+01  7.72261074E+00  7.72261074E+00 -1.54452215E+01  7.72261074E+00
  7.72261074E+00 -1.54452215E+01  7.72261074E+00  7.72261074E+00 -1.54452215E+01
  7.72261074E+00  7.72261074E+00 -1.54452215E+01  7.72261074E+00  7.72261074E+00
 -1.54452215E+01  7.72261074E+00  7.72261074E+00 -1.54452215E+01  7.72261074E+00
  7.72261074E+00 -1.54452215E+01  7.72261074E+00  7.72261074E+00 -1.54452215E+01
  7.72261074E+00  7.72261074E+00 -1.54452215E+01  7.72261074E+00  7.72261074E+00
 -1.54452215E+01  7.72261074E+00  7.72261074E+00 -1.54452215E+01  7.72261074E+00
  7.72261074E+00 -1.54452215E+01  7.72261074E+00  7.72261074E+00 -1.54452215E+01
  7.72261074E+00  7.72261074E+00 -1.54452215E+01  7.72261074E+00  7.72261074E+00
 -1.54452215E+01  7.72261074E+00  7.72261074E+00 -1.54452215E+01  7.72261074E+00
  7.72261074E+00 -1.54452215E+01  7.72261074E+00  7.72261074E+00 -1.54452215E+01
  7.72261074E+00  7.72261074E+00 -1.54452215E+01  7.72261074E+00  7.72261074E+00
 -1.54452215E+01  7.72261074E+00  7.72261074E+00 -1.54452215E+01  7.72261074E+00
  7.72261074E+00 -1.54452215E+01  7.72261074E+00  7.72261074E+00 -1.54452215E+01
  7.72261074E+00  7.72261074E+00 -1.54452215E+01  7.72261074E+00  7.72261074E+00
 -1.54452215E+01  7.72261074E+00  7.72261074E+00 -1.54452215E+01  7.72261074E+00
  7.72261074E+00 -1.54452215E+01  7.72261074E+00  7.72261074E+00 -1.54452215E+01
  7.72261074E+00  7.72261074E+00 -1.54452215E+01  7.72261074E+00  7.72261074E+00
 -1.54452215E+01  7.72261074E+00  7.72261074E+00 -1.54452215E+01  7.72261074E+00
  7.72261074E+00 -1.54452215E+01  7.72261074E+00  7.72261074E+00 -1.54452215E+01
  7.72261074E+00  7.72261074E+00 -1.54452215E+01  7.72261074E+00  7.72261074E+00
 -1.54452215E+01  7.72261074E+00  7.72261074E+00 -1.54452215E+01  7.72261074E+00
  7.72261074E+00 -1.54452215E+01  7.72261074E+00  7.72261074E+00 -1.54452215E+01
  7.72261074E+00  7.72261074E+00 -1.54452215E+01  7.72261074E+00  7.72261074E+00
 -1.54452215E+01  7.72261074E+00  7.72261074E+00 -1.54452215E+01  7.72261074E+00
  7.72261074E+00 -1.54452215E+01  7.72261074E+00  7.72261074E+00 -1.54452215E+01
  7.72261074E+00  7.72261074E+00 -1.54452215E+01  7.72261074E+00  7.72261074E+00
 -1.54452215E+01  7.72261074E+00  7.72261074E+00 -1.54452215E+01  7.72261074E+00
  7.72261074E+00 -1.54452215E+01  7.72261074E+00  7.72261074E+00 -1.54452215E+01
  7.72261074E+00  7.72261074E+00 -1.54452215E+01  7.72261074E+00  7.72261074E+00
 -1.54452215E+01  7.72261074E+00  7.72261074E+00 -1.54452215E+01  7.72261074E+00
  7.72261074E+00 -1.54452215E+01  7.72261074E+00  7.72261074E+00 -1.54452215E+01
  7.72261074E+00  7.72261074E+00 -1.54452215E+01  7.72261074E+00  7.72261074E+00
 -1.54452215E+01  7.72261074E+00  7.72261074E+00 -1.54452215E+01  7.72261074E+00
  7.72261074E+00 -1.54452215E+01  7.72261074E+00  7.72261074E+00 -1.54452215E+01
  7.72261074E+00  7.72261074E+00 -1.54452215E+01  7.72261074E+00  7.72261074E+00
 -1.54452215E+01  7.72261074E+00  7.72261074E+00 -1.54452215E+01  7.72261074E+00
  7.72261074E+00 -1.54452215E+01  7.72261074E+00  7.72261074E+00 -1.54452215E+01
  7.72261074E+00  7.72261074E+00 -1.54452215E+01  7.72261074E+00  7.72261074E+00
 -1.54452215E+01  7.72261074E+00  7.72261074E+00 -1.54452215E+01  7.72261074E+00
  7.72261074E+00 -1.54452215E+01  7.72261074E+00  7.72261074E+00 -1.54452215E+01
  7.72261074E+00  7.72261074E+00 -1.54452215E+01  7.72261074E+00  7.72261074E+00
 -1.54452215E+01  7.72261074E+00  7.72261074E+00 -1.54452215E+01  7.72261074E+00
  7.72261074E+00 -1.54452215E+01  7.72261074E+00  7.72261074E+00 -1.54452215E+01
  7.72261074E+00  7.72261074E+00 -1.54452215E+01  7.72261074E+00  7.72261074E+00
 -1.54452215E+01  7.72261074E+00  7.72261074E+00 -1.54452215E+01  7.72261074E+00
  7.72261074E+00 -1.54452215E+01  7.72261074E+00  7.72261074E+00 -1.54452215E+01
  7.72261074E+00  7.72261074E+00 -1.54452215E+01  7.72261074E+00  7.72261074E+00
 -1.54452215E+01  7.72261074E+00  7.72261074E+00 -1.54452215E+01  7.72261074E+00
  7.72261074E+00 -1.54452215E+01  7.72261074E+00  7.72261074E+00 -1.54452215E+01
  7.72261074E+00  7.72261074E+00 -1.54452215E+01  7.72261074E+00  7.72261074E+00
 -1.54452215E+01  7.72261074E+00  7.72261074E+00 -1.54452215E+01  7.72261074E+00
  7.72261074E+00 -1.54452215E+01  7.72261074E+00  7.72261074E+00 -1.54452215E+01
  7.72261074E+00  7.72261074E+00 -1.54452215E+01  7.72261074E+00  7.72261074E+00
 -1.54452215E+01  7.72261074E+00  7.72261074E+00 -1.54452215E+01  7.72261074E+00
  7.72261074E+00 -1.54452215E+01  7.72261074E+00  7.72261074E+00 -1.54452215E+01
  7.72261074E+00  7.72261074E+00 -1.54452215E+01  7.72261074E+00  7.72261074E+00
 -1.54452215E+01  7.72261074E+00  7.72261074E+00 -1.54452215E+01  7.72261074E+00
  7.72261074E+00 -1.54452215E+01  7.72261074E+00  7.72261074E+00 -1.54452215E+01
  7.72261074E+00  7.72261074E+00 -1.54452215E+01  7.72261074E+00  7.72261074E+00
 -1.54452215E+01  7.72261074E+00  7.72261074E+00 -1.54452215E+01  7.72261074E+00
  7.72261074E+00 -1.54452215E+01  7.72261074E+00  7.72261074E+00 -1.54452215E+01
  7.72261074E+00  7.72261074E+00 -1.54452215E+01  7.72261074E+00  7.72261074E+00
 -1.54452215E+01  7.72261074E+00  7.72261074E+00 -1.54452215E+01  7.72261074E+00
  7.72261074E+00 -1.54452215E+01  7.72261074E+00  7.72261074E+00 -1.54452215E+01
  7.72261074E+00  7.72261074E+00 -1.54452215E+01  7.72261074E+00  7.72261074E+00
 -1.54452215E+01  7.72261074E+00  7.72261074E+00 -1.54452215E+01  7.72261074E+00
  7.72261074E+00 -1.54452215E+01  7.72261074E+00  7.72261074E+00 -1.54452215E+01
  7.72261074E+00  7.72261074E+00 -1.54452215E+01  7.72261074E+00  7.72261074E+00
 -1.54452215E+01  7.72261074E+00  7.72261074E+00 -1.54452215E+01  7.72261074E+00
  7.72261074E+00 -1.54452215E+01  7.72261074E+00  7.72261074E+00 -1.54452215E+01
  7.72261074E+00  7.72261074E+00 -1.54452215E+01  7.72261074E+00  7.72261074E+00
 -1.54452215E+01  7.72261074E+00  7.72261074E+00 -1.54452215E+01  7.72261074E+00
  7.72261074E+00 -1.54452215E+01  7.72261074E+00  7.72261074E+00 -1.54452215E+01
  7.72261074E+00  7.72261074E+00 -1.54452215E+01  7.72261074E+00  7.72261074E+00
 -1.54452215E+01  7.72261074E+00  7.72261074E+00 -1.54452215E+01  7.72261074E+00
  7.72261074E+00 -1.54452215E+01  7.72261074E+00  7.72261074E+00 -1.54452215E+01
  7.72261074E+00  7.72261074E+00 -1.54452215E+01  7.72261074E+00  7.72261074E+00
 -1.54452215E+01  7.72261074E+00  7.72261074E+00 -1.54452215E+01  7.72261074E+00
  7.72261074E+00 -1.54452215E+01  7.72261074E+00  7.72261074E+00 -1.54452215E+01
  7.72261074E+00  7.72261074E+00 -1.54452215E+01  7.72261074E+00  7.72261074E+00
 -1.54452215E+01  7.72261074E+00  7.72261074E+00 -1.54452215E+01  7.72261074E+00
  7.72261074E+00 -1.54452215E+01  7.72261074E+00  7.72261074E+00 -1.54452215E+01
  7.72261074E+00  7.72261074E+00 -1.54452215E+01  7.72261074E+00  7.72261074E+00
 -1.54452215E+01  7.72261074E+00  7.72261074E+00 -1.54452215E+01  7.72261074E+00
  7.72261074E+00 -1.54452215E+01  7.72261074E+00  7.72261074E+00 -1.54452215E+01
  7.72261074E+00  7.72261074E+00 -1.54452215E+01  7.72261074E+00  7.72261074E+00
 -1.54452215E+01  7.72261074E+00  7.72261074E+00 -1.54452215E+01  7.72261074E+00
  7.72261074E+00 -1.54452215E+01  7.72261074E+00  7.72261074E+00 -1.54452215E+01
  7.72261074E+00  7.72261074E+00 -1.54452215E+01  7.72261074E+00  7.72261074E+00
 -1.54452215E+01  7.72261074E+00  7.72261074E+00 -1.54452215E+01  7.72261074E+00
  7.72261074E+00 -1.54452215E+01  7.72261074E+00  7.72261074E+00 -1.54452215E+01
  7.72261074E+00  7.72261074E+00 -1.54452215E+01  7.72261074E+00  7.72261074E+00
 -1.54452215E+01  7.72261074E+00  7.72261074E+00 -1.54452215E+01  7.72261074E+00
  7.72261074E+00 -1.54452215E+01  7.72261074E+00  7.72261074E+00 -1.54452215E+01
  7.72261074E+00  7.72261074E+00 -1.54452215E+01  7.72261074E+00  7.72261074E+00
 -1.54452215E+01  7.72261074E+00  7.72261074E+00 -1.54452215E+01  7.72261074E+00
  7.72261074E+00 -1.54452215E+01  7.72261074E+00  7.72261074E+00 -1.54452215E+01
  7.72261074E+00  7.72261074E+00 -1.54452215E+01  7.72261074E+00  7.72261074E+00
 -1.54452215E+01  7.72261074E+00  7.72261074E+00 -1.54452215E+01  7.72261074E+00
  7.72261074E+00 -1.54452215E+01  7.72261074E+00  7.72261074E+00 -1.54452215E+01
  7.72261074E+00  7.72261074E+00 -1.54452215E+01  7.72261074E+00  7.72261074E+00
 -1.54452215E+01  7.72261074E+00  7.72261074E+00 -1.54452215E+01  7.72261074E+00
  7.72261074E+00 -1.54452215E+01  7.72261074E+00  7.72261074E+00 -1.54452215E+01
  7.72261074E+00  7.72261074E+00 -1.54452215E+01  7.72261074E+00  7.72261074E+00
 -1.54452215E+01  7.72261074E+00  7.72261074E+00 -1.54452215E+01  7.72261074E+00
  7.72261074E+00 -1.54452215E+01  7.72261074E+00  7.72261074E+00 -1.54452215E+01
  7.72261074E+00  7.72261074E+00 -1.54452215E+01  7.72261074E+00  7.72261074E+00
 -1.54452215E+01  7.72261074E+00  7.72261074E+00 -1.54452215E+01  7.72261074E+00
  7.72261074E+00 -1.54452215E+01  7.72261074E+00  7.72261074E+00 -1.54452215E+01
  7.72261074E+00  7.72261074E+00 -1.54452215E+01  7.72261074E+00  7.72261074E+00
 -1.54452215E+01  7.72261074E+00  7.72261074E+00 -1.54452215E+01  7.72261074E+00
  7.72261074E+00 -1.54452215E+01  7.72261074E+00  7.72261074E+00 -1.54452215E+01
  7.72261074E+00  7.72261074E+00 -1.54452215E+01  7.72261074E+00  7.72261074E+00
 -1.54452215E+01  7.72261074E+00  7.72261074E+00 -1.54452215E+01  7.72261074E+00
  7.72261074E+00 -1.54452215E+01  7.72261074E+00  7.72261074E+00 -1.54452215E+01
  7.72261074E+00  7.72261074E+00 -1.54452215E+01  7.72261074E+00  7.72261074E+00
 -1.54452215E+01  7.72261074E+00  7.72261074E+00 -1.54452215E+01  7.72261074E+00
  7.72261074E+00 -1.54452215E+01  7.72261074E+00  7.72261074E+00 -1.54452215E+01
  7.72261074E+00  7.72261074E+00 -1.54452215E+01  7.72261074E+00  7.72261074E+00
 -1.54452215E+01  7.72261074E+00  7.72261074E+00 -1.54452215E+01  7.72261074E+00
  7.72261074E+00 -1.54452215E+01  7.72261074E+00  7.72261074E+00 -1.54452215E+01
  7.72261074E+00  7.72261074E+00 -1.54452215E+01  7.72261074E+00  7.72261074E+00
 -1.54452215E+01  7.72261074E+00  7.72261074E+00 -1.54452215E+01  7.72261074E+00
  7.72261074E+00 -1.54452215E+01  7.72261074E+00  7.72261074E+00 -1.54452215E+01
  7.72261074E+00  7.72261074E+00 -1.54452215E+01  7.72261074E+00  7.72261074E+00
 -1.54452215E+01  7.72261074E+00  7.72261074E+00 -1.54452215E+01  7.72261074E+00
  7.72261074E+00 -1.54452215E+01  7.72261074E+00  7.72261074E+00 -1.54452215E+01
  7.72261074E+00  7.72261074E+00 -1.54452215E+01  7.72261074E+00  7.72261074E+00
 -1.54452215E+01  7.72261074E+00  7.72261074E+00 -1.54452215E+01  7.72261074E+00
  7.72261074E+00 -1.54452215E+01  7.72261074E+00  7.72261074E+00 -1.54452215E+01
  7.72261074E+00  7.72261074E+00 -1.54452215E+01  7.72261074E+00  7.72261074E+00
 -1.54452215E+01  7.72261074E+00  7.72261074E+00 -1.54452215E+01  7.72261074E+00
  7.72261074E+00 -1.54452215E+01  7.72261074E+00  7.72261074E+00 -1.54452215E+01
  7.72261074E+00  7.72261074E+00 -1.54452215E+01  7.72261074E+00  7.72261074E+00
 -1.54452215E+01  7.72261074E+00  7.72261074E+00 -1.54452215E+01  7.72261074E+00
  7.72261074E+00 -1.54452215E+01  7.72261074E+00  7.72261074E+00 -1.54452215E+01
  7.72261074E+00  7.72261074E+00 -1.54452215E+01  7.72261074E+00  7.72261074E+00
 -1.54452215E+01  7.72261074E+00  7.72261074E+00 -1.54452215E+01  7.72261074E+00
  7.72261074E+00 -1.54452215E+01  7.72261074E+00  7.72261074E+00 -1.54452215E+01
  7.72261074E+00  7.72261074E+00 -1.54452215E+01  7.72261074E+00  7.72261074E+00
 -1.54452215E+01  7.72261074E+00  7.72261074E+00 -1.54452215E+01  7.72261074E+00
  7.72261074E+00 -1.54452215E+01  7.72261074E+00  7.72261074E+00 -1.54452215E+01
  7.72261074E+00  7.72261074E+00 -1.54452215E+01  7.72261074E+00  7.72261074E+00
 -1.54452215E+01  7.72261074E+00  7.72261074E+00 -1.54452215E+01  7.72261074E+00
  7.72261074E+00 -1.54452215E+01  7.72261074E+00  7.72261074E+00 -1.54452215E+01
  7.72261074E+00  7.72261074E+00 -1.54452215E+01  7.72261074E+00  7.72261074E+00
 -1.54452215E+01  7.72261074E+00  7.72261074E+00 -1.54452215E+01  7.72261074E+00
  7.72261074E+00 -1.54452215E+01  7.72261074E+00  7.72261074E+00 -1.54452215E+01
  7.72261074E+00  7.72261074E+00 -1.54452215E+01  7.72261074E+00  7.72261074E+00
 -1.54452215E+01  7.72261074E+00  7.72261074E+00 -1.54452215E+01  7.72261074E+00
  7.72261074E+00 -1.54452215E+01  7.72261074E+00  7.72261074E+00 -1.54452215E+01
  7.72261074E+00  7.72261074E+00 -1.54452215E+01  7.72261074E+00  7.72261074E+00
 -1.54452215E+01  7.72261074E+00  7.72261074E+00 -1.54452215E+01  7.72261074E+00
  7.72261074E+00 -1.54452215E+01  7.72261074E+00  7.72261074E+00 -1.54452215E+01
  7.72261074E+00  7.72261074E+00 -1.54452215E+01  7.72261074E+00  7.72261074E+00
 -1.54452215E+01  7.72261074E+00  7.72261074E+00 -1.54452215E+01  7.72261074E+00
  7.72261074E+00 -1.54452215E+01  7.72261074E+00  7.72261074E+00 -1.54452215E+01
  7.72261074E+00  7.72261074E+00 -1.54452215E+01  7.72261074E+00  7.72261074E+00
 -1.54452215E+01  7.72261074E+00  7.72261074E+00 -1.54452215E+01  7.72261074E+00
  7.72261074E+00 -1.54452215E+01  7.72261074E+00  7.72261074E+00 -1.54452215E+01
  7.72261074E+00  7.72261074E+00 -1.54452215E+01  7.72261074E+00  7.72261074E+00
 -1.54452215E+01  7.72261074E+00  7.72261074E+00 -1.54452215E+01  7.72261074E+00
  7.72261074E+00 -1.54452215E+01  7.72261074E+00  7.72261074E+00 -1.54452215E+01
  7.72261074E+00  7.72261074E+00 -1.54452215E+01  7.72261074E+00  7.72261074E+00
 -1.54452215E+01  7.72261074E+00  7.72261074E+00 -1.54452215E+01  7.72261074E+00
  7.72261074E+00 -1.54452215E+01  7.72261074E+00  7.72261074E+00 -1.54452215E+01
  7.72261074E+00  7.72261074E+00 -1.54452215E+01  7.72261074E+00  7.72261074E+00
 -1.54452215E+01  7.72261074E+00  7.72261074E+00 -1.54452215E+01  7.72261074E+00
  7.72261074E+00 -1.54452215E+01  7.72261074E+00  7.72261074E+00 -1.54452215E+01
  7.72261074E+00  7.72261074E+00 -1.54452215E+01  7.72261074E+00  7.72261074E+00
 -1.54452215E+01  7.72261074E+00  7.72261074E+00 -1.54452215E+01  7.72261074E+00
  7.72261074E+00 -1.54452215E+01  7.72261074E+00  7.72261074E+00 -1.54452215E+01
  7.72261074E+00  7.72261074E+00 -1.54452215E+01  7.72261074E+00  7.72261074E+00
 -1.54452215E+01  7.72261074E+00  7.72261074E+00 -1.54452215E+01  7.72261074E+00
  7.72261074E+00 -1.54452215E+01  7.72261074E+00  7.72261074E+00 -1.54452215E+01
  7.72261074E+00  7.72261074E+00 -1.54452215E+01  7.72261074E+00  7.72261074E+00
 -1.54452215E+01  7.72261074E+00  7.72261074E+00 -1.54452215E+01  7.72261074E+00
  7.72261074E+00 -1.54452215E+01  7.72261074E+00  7.72261074E+00 -1.54452215E+01
  7.72261074E+00  7.72261074E+00 -1.54452215E+01  7.72261074E+00  7.72261074E+00
 -1.54452215E+01  7.72261074E+00  7.72261074E+00 -1.54452215E+01  7.72261074E+00
  7.72261074E+00 -1.54452215E+01  7.72261074E+00  7.72261074E+00 -1.54452215E+01
  7.72261074E+00  7.72261074E+00 -1.54452215E+01  7.72261074E+00  7.72261074E+00
 -1.54452215E+01  7.72261074E+00  7.72261074E+00 -1.54452215E+01  7.72261074E+00
  7.72261074E+00 -1.54452215E+01  7.72261074E+00  7.72261074E+00 -1.54452215E+01
  7.72261074E+00  7.72261074E+00 -1.54452215E+01  7.72261074E+00  7.72261074E+00
 -1.54452215E+01  7.72261074E+00  7.72261074E+00 -1.54452215E+01  7.72261074E+00
  7.72261074E+00 -1.54452215E+01  7.72261074E+00  7.72261074E+00 -1.54452215E+01
  7.72261074E+00  7.72261074E+00 -1.54452215E+01  7.72261074E+00  7.72261074E+00
 -1.54452215E+01  7.72261074E+00  7.72261074E+00 -1.54452215E+01  7.72261074E+00
  7.72261074E+00 -1.54452215E+01  7.72261074E+00  7.72261074E+00 -1.54452215E+01
  7.72261074E+00  7.72261074E+00 -1.54452215E+01  7.72261074E+00  7.72261074E+00
 -1.54452215E+01  7.72261074E+00  7.72261074E+00 -1.54452215E+01  7.72261074E+00
  7.72261074E+00 -1.54452215E+01  7.72261074E+00  7.72261074E+00 -1.54452215E+01
  7.72261074E+00  7.72261074E+00 -1.54452215E+01  7.72261074E+00  7.72261074E+00
 -1.54452215E+01  7.72261074E+00  7.72261074E+00 -1.54452215E+01  7.72261074E+00
  7.72261074E+00 -1.54452215E+01  7.72261074E+00  7.72261074E+00 -1.54452215E+01
  7.72261074E+00  7.72261074E+00 -1.54452215E+01  7.72261074E+00  7.72261074E+00
 -1.54452215E+01  7.72261074E+00  7.72261074E+00 -1.54452215E+01  7.72261074E+00
  7.72261074E+00 -1.54452215E+01  7.72261074E+00  7.72261074E+00 -1.54452215E+01
  7.72261074E+00  7.72261074E+00 -1.54452215E+01  7.72261074E+00  7.72261074E+00
 -1.54452215E+01  7.72261074E+00  7.72261074E+00 -1.54452215E+01  7.72261074E+00
  7.72261074E+00 -1.54452215E+01  7.72261074E+00  7.72261074E+00 -1.54452215E+01
  7.72261074E+00  7.72261074E+00 -1.54452215E+01  7.72261074E+00  7.72261074E+00
 -1.54452215E+01  7.72261074E+00  7.72261074E+00 -1.54452215E+01  7.72261074E+00
  7.72261074E+00 -1.54452215E+01  7.72261074E+00  7.72261074E+00 -1.54452215E+01
  7.72261074E+00  7.72261074E+00 -1.54452215E+01  7.72261074E+00  7.72261074E+00
 -1.54452215E+01  7.72261074E+00  7.72261074E+00 -1.54452215E+01  7.72261074E+00
  7.72261074E+00 -1.54452215E+01  7.72261074E+00  7.72261074E+00 -1.54452215E+01
  7.72261074E+00  7.72261074E+00 -1.54452215E+01  7.72261074E+00  7.72261074E+00
 -1.54452215E+01  7.72261074E+00  7.72261074E+00 -1.54452215E+01  7.72261074E+00
  7.72261074E+00 -1.54452215E+01  7.72261074E+00  7.72261074E+00 -1.54452215E+01
  7.72261074E+00  7.72261074E+00 -1.54452215E+01  7.72261074E+00  7.72261074E+00
 -1.54452215E+01  7.72261074E+00  7.72261074E+00 -1.54452215E+01  7.72261074E+00
  7.72261074E+00 -1.54452215E+01  7.72261074E+00  7.72261074E+00 -1.54452215E+01
  7.72261074E+00  7.72261074E+00 -1.54452215E+01  7.72261074E+00  7.72261074E+00
 -1.54452215E+01  7.72261074E+00  7.72261074E+00 -1.54452215E+01  7.72261074E+00
  7.72261074E+00 -1.54452215E+01  7.72261074E+00  7.72261074E+00 -1.54452215E+01
  7.72261074E+00  7.72261074E+00 -1.54452215E+01  7.72261074E+00  7.72261074E+00
 -1.54452215E+01  7.72261074E+00  7.72261074E+00 -1.54452215E+01  7.72261074E+00
  7.72261074E+00 -1.54452215E+01  7.72261074E+00  7.72261074E+00 -1.54452215E+01
  7.72261074E+00  7.72261074E+00 -1.54452215E+01  7.72261074E+00  7.72261074E+00
 -1.54452215E+01  7.72261074E+00  7.72261074E+00 -1.54452215E+01  7.72261074E+00
  7.72261074E+00 -1.54452215E+01  7.72261074E+00  7.72261074E+00 -1.54452215E+01
  7.72261074E+00  7.72261074E+00 -1.54452215E+01  7.72261074E+00  7.72261074E+00
 -1.54452215E+01  7.72261074E+00  7.72261074E+00 -1.54452215E+01  7.72261074E+00
  7.72261074E+00 -1.54452215E+01  7.72261074E+00  7.72261074E+00 -1.54452215E+01
  7.72261074E+00  7.72261074E+00 -1.54452215E+01  7.72261074E+00  7.72261074E+00
 -1.54452215E+01  7.72261074E+00  7.72261074E+00 -1.54452215E+01  7.72261074E+00
  7.72261074E+00 -1.54452215E+01  7.72261074E+00  7.72261074E+00 -1.54452215E+01
  7.72261074E+00  7.72261074E+00 -1.54452215E+01  7.72261074E+00  7.72261074E+00
 -1.54452215E+01  7.72261074E+00  7.72261074E+00 -1.54452215E+01  7.72261074E+00
  7.72261074E+00 -1.54452215E+01  7.72261074E+00  7.72261074E+00 -1.54452215E+01
  7.72261074E+00  7.72261074E+00 -1.54452215E+01  7.72261074E+00  7.72261074E+00
 -1.54452215E+01  7.72261074E+00  7.72261074E+00 -1.54452215E+01  7.72261074E+00
  7.72261074E+00 -1.54452215E+01  7.72261074E+00  7.72261074E+00 -1.54452215E+01
  7.72261074E+00  7.72261074E+00 -1.54452215E+01  7.72261074E+00  7.72261074E+00
 -1.54452215E+01  7.72261074E+00  7.72261074E+00 -1.54452215E+01  7.72261074E+00
  7.72261074E+00 -1.54452215E+01  7.72261074E+00  7.72261074E+00 -1.54452215E+01
  7.72261074E+00  7.72261074E+00 -1.54452215E+01  7.72261074E+00  7.72261074E+00
 -1.54452215E+01  7.72261074E+00  7.72261074E+00 -1.54452215E+01  7.72261074E+00
  7.72261074E+00 -1.54452215E+01  7.72261074E+00  7.72261074E+00 -1.54452215E+01
  7.72261074E+00  7.72261074E+00 -1.54452215E+01  7.72261074E+00  7.72261074E+00
 -1.54452215E+01  7.72261074E+00  7.72261074E+00 -1.54452215E+01  7.72261074E+00
  7.72261074E+00 -1.54452215E+01  7.72261074E+00  7.72261074E+00 -1.54452215E+01
  7.72261074E+00  7.72261074E+00 -1.54452215E+01  7.72261074E+00  7.72261074E+00
 -1.54452215E+01  7.72261074E+00  7.72261074E+00 -1.54452215E+01  7.72261074E+00
  7.72261074E+00 -1.54452215E+01  7.72261074E+00  7.72261074E+00 -1.54452215E+01
  7.72261074E+00  7.72261074E+00 -1.54452215E+01  7.72261074E+00  7.72261074E+00
 -1.54452215E+01  7.72261074E+00  7.72261074E+00 -1.54452215E+01  7.72261074E+00
  7.72261074E+00 -1.54452215E+01  7.72261074E+00  7.72261074E+00 -1.54452215E+01
  7.72261074E+00  7.72261074E+00 -1.54452215E+01  7.72261074E+00  7.72261074E+00
 -1.54452215E+01  7.72261074E+00  7.72261074E+00 -1.54452215E+01  7.72261074E+00
  7.72261074E+00 -1.54452215E+01  7.72261074E+00  7.72261074E+00 -1.54452215E+01
  7.72261074E+00  7.72261074E+00 -1.54452215E+01  7.72261074E+00  7.72261074E+00
 -1.54452215E+01  7.72261074E+00  7.72261074E+00 -1.54452215E+01  7.72261074E+00
  7.72261074E+00 -1.54452215E+01  7.72261074E+00  7.72261074E+00 -1.54452215E+01
  7.72261074E+00  7.72261074E+00 -1.54452215E+01  7.72261074E+00  7.72261074E+00
 -1.54452215E+01  7.72261074E+00  7.72261074E+00 -1.54452215E+01  7.72261074E+00
  7.72261074E+00 -1.54452215E+01  7.72261074E+00  7.72261074E+00 -1.54452215E+01
  7.72261074E+00  7.72261074E+00 -1.54452215E+01  7.72261074E+00  7.72261074E+00
 -1.54452215E+01  7.72261074E+00  7.72261074E+00 -1.54452215E+01  7.72261074E+00
  7.72261074E+00 -1.54452215E+01  7.72261074E+00  7.72261074E+00 -1.54452215E+01
  7.72261074E+00  7.72261074E+00 -1.54452215E+01  7.72261074E+00  7.72261074E+00
 -1.54452215E+01  7.72261074E+00  7.72261074E+00 -1.54452215E+01  7.72261074E+00
  7.72261074E+00 -1.54452215E+01  7.72261074E+00  7.72261074E+00 -1.54452215E+01
  7.72261074E+00  7.72261074E+00 -1.54452215E+01  7.72261074E+00  7.72261074E+00
 -1.54452215E+01  7.72261074E+00  7.72261074E+00 -1.54452215E+01  7.72261074E+00
  7.72261074E+00 -1.54452215E+01  7.72261074E+00  7.72261074E+00 -1.54452215E+01
  7.72261074E+00  7.72261074E+00 -1.54452215E+01  7.72261074E+00  7.72261074E+00
 -1.54452215E+01  7.72261074E+00  7.72261074E+00 -1.54452215E+01  7.72261074E+00
  7.72261074E+00 -1.54452215E+01  7.72261074E+00  7.72261074E+00 -1.54452215E+01
  7.72261074E+00  7.72261074E+00 -1.54452215E+01  7.72261074E+00  7.72261074E+00
 -1.54452215E+01  7.72261074E+00  7.72261074E+00 -1.54452215E+01  7.72261074E+00
  7.72261074E+00 -1.54452215E+01  7.72261074E+00  7.72261074E+00 -1.54452215E+01
  7.72261074E+00  7.72261074E+00 -1.54452215E+01  7.72261074E+00  7.72261074E+00
 -1.54452215E+01  7.72261074E+00  7.72261074E+00 -1.54452215E+01  7.72261074E+00
  7.72261074E+00 -1.54452215E+01  7.72261074E+00  7.72261074E+00 -1.54452215E+01
  7.72261074E+00  7.72261074E+00 -1.54452215E+01  7.72261074E+00  7.72261074E+00
 -1.54452215E+01  7.72261074E+00  7.72261074E+00 -1.54452215E+01  7.72261074E+00
  7.72261074E+00 -1.54452215E+01  7.72261074E+00  7.72261074E+00 -1.54452215E+01
  7.72261074E+00  7.72261074E+00 -1.54452215E+01  7.72261074E+00  7.72261074E+00
 -1.54452215E+01  7.72261074E+00  7.72261074E+00 -1.54452215E+01  7.72261074E+00
  7.72261074E+00 -1.54452215E+01  7.72261074E+00  7.72261074E+00 -1.54452215E+01
  7.72261074E+00  7.72261074E+00 -1.54452215E+01  7.72261074E+00  7.72261074E+00
 -1.54452215E+01  7.72261074E+00  7.72261074E+00 -1.54452215E+01  7.72261074E+00
  7.72261074E+00 -1.54452215E+01  7.72261074E+00  7.72261074E+00 -1.54452215E+01
  7.72261074E+00  7.72261074E+00 -1.54452215E+01  7.72261074E+00  7.72261074E+00
 -1.54452215E+01  7.72261074E+00  7.72261074E+00 -1.54452215E+01  7.72261074E+00
  7.72261074E+00 -1.54452215E+01  7.72261074E+00  7.72261074E+00 -1.54452215E+01
  7.72261074E+00  7.72261074E+00 -1.54452215E+01  7.72261074E+00  7.72261074E+00
 -1.54452215E+01  7.72261074E+00  7.72261074E+00 -1.54452215E+01  7.72261074E+00
  7.72261074E+00 -1.54452215E+01  7.72261074E+00  7.72261074E+00 -1.54452215E+01
  7.72261074E+00  7.72261074E+00 -1.54452215E+01  7.72261074E+00  7.72261074E+00
 -1.54452215E+01  7.72261074E+00  7.72261074E+00 -1.54452215E+01  7.72261074E+00
  7.72261074E+00 -1.54452215E+01  7.72261074E+00  7.72261074E+00 -1.54452215E+01
  7.72261074E+00  7.72261074E+00 -1.54452215E+01  7.72261074E+00  7.72261074E+00
 -1.54452215E+01  7.72261074E+00  7.72261074E+00 -1.54452215E+01  7.72261074E+00
  7.72261074E+00 -1.54452215E+01  7.72261074E+00  7.72261074E+00 -1.54452215E+01
  7.72261074E+00  7.72261074E+00 -1.54452215E+01  7.72261074E+00  7.72261074E+00
 -1.54452215E+01  7.72261074E+00  7.72261074E+00 -1.54452215E+01  7.72261074E+00
  7.72261074E+00 -1.54452215E+01  7.72261074E+00  7.72261074E+00 -1.54452215E+01
  7.72261074E+00  7.72261074E+00 -1.54452215E+01  7.72261074E+00  7.72261074E+00
 -1.54452215E+01  7.72261074E+00  7.72261074E+00 -1.54452215E+01  7.72261074E+00
  7.72261074E+00 -1.54452215E+01  7.72261074E+00  7.72261074E+00 -1.54452215E+01
  7.72261074E+00  7.72261074E+00 -1.54452215E+01  7.72261074E+00  7.72261074E+00
 -1.54452215E+01  7.72261074E+00  7.72261074E+00 -1.54452215E+01  7.72261074E+00
  7.72261074E+00 -1.54452215E+01  7.72261074E+00  7.72261074E+00 -1.54452215E+01
  7.72261074E+00  7.72261074E+00 -1.54452215E+01  7.72261074E+00  7.72261074E+00
 -1.54452215E+01  7.72261074E+00  7.72261074E+00 -1.54452215E+01  7.72261074E+00
  7.72261074E+00 -1.54452215E+01  7.72261074E+00  7.72261074E+00 -1.54452215E+01
  7.72261074E+00  7.72261074E+00 -1.54452215E+01  7.72261074E+00  7.72261074E+00
 -1.54452215E+01  7.72261074E+00  7.72261074E+00 -1.54452215E+01  7.72261074E+00
  7.72261074E+00 -1.54452215E+01  7.72261074E+00  7.72261074E+00 -1.54452215E+01
  7.72261074E+00  7.72261074E+00 -1.54452215E+01  7.72261074E+00  7.72261074E+00
 -1.54452215E+01  7.72261074E+00  7.72261074E+00 -1.54452215E+01  7.72261074E+00
  7.72261074E+00 -1.54452215E+01  7.72261074E+00  7.72261074E+00 -1.54452215E+01
  7.72261074E+00  7.72261074E+00 -1.54452215E+01  7.72261074E+00  7.72261074E+00
 -1.54452215E+01  7.72261074E+00  7.72261074E+00 -1.54452215E+01  7.72261074E+00
  7.72261074E+00 -1.54452215E+01  7.72261074E+00  7.72261074E+00 -1.54452215E+01
  7.72261074E+00  7.72261074E+00 -1.54452215E+01  7.72261074E+00  7.72261074E+00
 -1.54452215E+01  7.72261074E+00  7.72261074E+00 -1.54452215E+01  7.72261074E+00
  7.72261074E+00 -1.54452215E+01  7.72261074E+00  7.72261074E+00 -1.54452215E+01
  7.72261074E+00  7.72261074E+00 -1.54452215E+01  7.72261074E+00  7.72261074E+00
 -1.54452215E+01  7.72261074E+00  7.72261074E+00 -1.54452215E+01  7.72261074E+00
  7.72261074E+00 -1.54452215E+01  7.72261074E+00  7.72261074E+00 -1.54452215E+01
  7.72261074E+00  7.72261074E+00 -1.54452215E+01  7.72261074E+00  7.72261074E+00
 -1.54452215E+01  7.72261074E+00  7.72261074E+00 -1.54452215E+01  7.72261074E+00
  7.72261074E+00 -1.54452215E+01  7.72261074E+00  7.72261074E+00 -1.54452215E+01
  7.72261074E+00  7.72261074E+00 -1.54452215E+01  7.72261074E+00  7.72261074E+00
 -1.54452215E+01  7.72261074E+00  7.72261074E+00 -1.54452215E+01  7.72261074E+00
  7.72261074E+00 -1.54452215E+01  7.72261074E+00  7.72261074E+00 -1.54452215E+01
  7.72261074E+00  7.72261074E+00 -1.54452215E+01  7.72261074E+00  7.72261074E+00
 -1.54452215E+01  7.72261074E+00  7.72261074E+00 -1.54452215E+01  7.72261074E+00
  7.72261074E+00 -1.54452215E+01  7.72261074E+00  7.72261074E+00 -1.54452215E+01
  7.72261074E+00  7.72261074E+00 -1.54452215E+01  7.72261074E+00  7.72261074E+00
 -1.54452215E+01  7.72261074E+00  7.72261074E+00 -1.54452215E+01  7.72261074E+00
  7.72261074E+00 -1.54452215E+01  7.72261074E+00  7.72261074E+00 -1.54452215E+01
  7.72261074E+00  7.72261074E+00 -1.54452215E+01  7.72261074E+00  7.72261074E+00
 -1.54452215E+01  7.72261074E+00  7.72261074E+00 -1.54452215E+01  7.72261074E+00
  7.72261074E+00 -1.54452215E+01  7.72261074E+00  7.72261074E+00 -1.54452215E+01
  7.72261074E+00  7.72261074E+00 -1.54452215E+01  7.72261074E+00  7.72261074E+00
 -1.54452215E+01  7.72261074E+00  7.72261074E+00 -1.54452215E+01  7.72261074E+00
  7.72261074E+00 -1.54452215E+01  7.72261074E+00  7.72261074E+00 -1.54452215E+01
  7.72261074E+00  7.72261074E+00 -1.54452215E+01  7.72261074E+00  7.72261074E+00
 -1.54452215E+01  7.72261074E+00  7.72261074E+00 -1.54452215E+01  7.72261074E+00
  7.72261074E+00 -1.54452215E+01  7.72261074E+00  7.72261074E+00 -1.54452215E+01
  7.72261074E+00  7.72261074E+00 -1.54452215E+01  7.72261074E+00  7.72261074E+00
 -1.54452215E+01  7.72261074E+00  7.72261074E+00 -1.54452215E+01  7.72261074E+00
  7.72261074E+00 -1.54452215E+01  7.72261074E+00  7.72261074E+00 -1.54452215E+01
  7.72261074E+00  7.72261074E+00 -1.54452215E+01  7.72261074E+00  7.72261074E+00
 -1.54452215E+01  7.72261074E+00  7.72261074E+00 -1.54452215E+01  7.72261074E+00
  7.72261074E+00 -1.54452215E+01  7.72261074E+00  7.72261074E+00 -1.54452215E+01
  7.72261074E+00  7.72261074E+00 -1.54452215E+01  7.72261074E+00  7.72261074E+00
 -1.54452215E+01  7.72261074E+00  7.72261074E+00 -1.54452215E+01  7.72261074E+00
  7.72261074E+00 -1.54452215E+01  7.72261074E+00  7.72261074E+00 -1.54452215E+01
  7.72261074E+00  7.72261074E+00 -1.54452215E+01  7.72261074E+00  7.72261074E+00
 -1.54452215E+01  7.72261074E+00  7.72261074E+00 -1.54452215E+01  7.72261074E+00
  7.72261074E+00 -1.54452215E+01  7.72261074E+00  7.72261074E+00 -1.54452215E+01
  7.72261074E+00  7.72261074E+00 -1.54452215E+01  7.72261074E+00  7.72261074E+00
 -1.54452215E+01  7.72261074E+00  7.72261074E+00 -1.54452215E+01  7.72261074E+00
  7.72261074E+00 -1.54452215E+01  7.72261074E+00  7.72261074E+00 -1.54452215E+01
  7.72261074E+00  7.72261074E+00 -1.54452215E+01  7.72261074E+00  7.72261074E+00
 -1.54452215E+01  7.72261074E+00  7.72261074E+00 -1.54452215E+01  7.72261074E+00
  7.72261074E+00 -1.54452215E+01  7.72261074E+00  7.72261074E+00 -1.54452215E+01
  7.72261074E+00  7.72261074E+00 -1.54452215E+01  7.72261074E+00  7.72261074E+00
 -1.54452215E+01  7.72261074E+00  7.72261074E+00 -1.54452215E+01  7.72261074E+00
  7.72261074E+00 -1.54452215E+01  7.72261074E+00  7.72261074E+00 -1.54452215E+01
  7.72261074E+00  7.72261074E+00 -1.54452215E+01  7.72261074E+00  7.72261074E+00
 -1.54452215E+01  7.72261074E+00  7.72261074E+00 -1.54452215E+01  7.72261074E+00
  7.72261074E+00 -1.54452215E+01  7.72261074E+00  7.72261074E+00 -1.54452215E+01
  7.72261074E+00  7.72261074E+00 -1.54452215E+01  7.72261074E+00  7.72261074E+00
 -1.54452215E+01  7.72261074E+00  7.72261074E+00 -1.54452215E+01  7.72261074E+00
  7.72261074E+00 -1.54452215E+01  7.72261074E+00  7.72261074E+00 -1.54452215E+01
  7.72261074E+00  7.72261074E+00 -1.54452215E+01  7.72261074E+00  7.72261074E+00
 -1.54452215E+01  7.72261074E+00  7.72261074E+00 -1.54452215E+01  7.72261074E+00
  7.72261074E+00 -1.54452215E+01  7.72261074E+00  7.72261074E+00 -1.54452215E+01
  7.72261074E+00  7.72261074E+00 -1.54452215E+01  7.72261074E+00  7.72261074E+00
 -1.54452215E+01  7.72261074E+00  7.72261074E+00 -1.54452215E+01  7.72261074E+00
  7.72261074E+00 -1.54452215E+01  7.72261074E+00  7.72261074E+00 -1.54452215E+01
  7.72261074E+00  7.72261074E+00 -1.54452215E+01  7.72261074E+00  7.72261074E+00
 -1.54452215E+01  7.72261074E+00  7.72261074E+00 -1.54452215E+01  7.72261074E+00
  7.72261074E+00 -1.54452215E+01  7.72261074E+00  7.72261074E+00 -1.54452215E+01
  7.72261074E+00  7.72261074E+00 -1.54452215E+01  7.72261074E+00  7.72261074E+00
 -1.54452215E+01  7.72261074E+00  7.72261074E+00 -1.54452215E+01  7.72261074E+00
  7.72261074E+00 -1.54452215E+01  7.72261074E+00  7.72261074E+00 -1.54452215E+01
  7.72261074E+00  7.72261074E+00 -1.54452215E+01  7.72261074E+00  7.72261074E+00
 -1.54452215E+01  7.72261074E+00  7.72261074E+00 -1.54452215E+01  7.72261074E+00
  7.72261074E+00 -1.54452215E+01  7.72261074E+00  7.72261074E+00 -1.54452215E+01
  7.72261074E+00  7.72261074E+00 -1.54452215E+01  7.72261074E+00  7.72261074E+00
 -1.54452215E+01  7.72261074E+00  7.72261074E+00 -1.54452215E+01  7.72261074E+00
  7.72261074E+00 -1.54452215E+01  7.72261074E+00  7.72261074E+00 -1.54452215E+01
  7.72261074E+00  7.72261074E+00 -1.54452215E+01  7.72261074E+00  7.72261074E+00
 -1.54452215E+01  7.72261074E+00  7.72261074E+00 -1.54452215E+01  7.72261074E+00
  7.72261074E+00 -1.54452215E+01  7.72261074E+00  7.72261074E+00 -1.54452215E+01
  7.72261074E+00  7.72261074E+00 -1.54452215E+01  7.72261074E+00  7.72261074E+00
 -1.54452215E+01  7.72261074E+00  7.72261074E+00 -1.54452215E+01  7.72261074E+00
  7.72261074E+00 -1.54452215E+01  7.72261074E+00  7.72261074E+00 -1.54452215E+01
  7.72261074E+00  7.72261074E+00 -1.54452215E+01  7.72261074E+00  7.72261074E+00
 -1.54452215E+01  7.72261074E+00  7.72261074E+00 -1.54452215E+01  7.72261074E+00
  7.72261074E+00 -1.54452215E+01  7.72261074E+00  7.72261074E+00 -1.54452215E+01
  7.72261074E+00  7.72261074E+00 -1.54452215E+01  7.72261074E+00  7.72261074E+00
 -1.54452215E+01  7.72261074E+00  7.72261074E+00 -1.54452215E+01  7.72261074E+00
  7.72261074E+00 -1.54452215E+01  7.72261074E+00  7.72261074E+00 -1.54452215E+01
  7.72261074E+00  7.72261074E+00 -1.54452215E+01  7.72261074E+00  7.72261074E+00
 -1.54452215E+01  7.72261074E+00  7.72261074E+00 -1.54452215E+01  7.72261074E+00
  7.72261074E+00 -1.54452215E+01  7.72261074E+00  7.72261074E+00 -1.54452215E+01
  7.72261074E+00  7.72261074E+00 -1.54452215E+01  7.72261074E+00  7.72261074E+00
 -1.54452215E+01  7.72261074E+00  7.72261074E+00 -1.54452215E+01  7.72261074E+00
  7.72261074E+00 -1.54452215E+01  7.72261074E+00  7.72261074E+00 -1.54452215E+01
  7.72261074E+00  7.72261074E+00 -1.54452215E+01  7.72261074E+00  7.72261074E+00
 -1.54452215E+01  7.72261074E+00  7.72261074E+00 -1.54452215E+01  7.72261074E+00
  7.72261074E+00 -1.54452215E+01  7.72261074E+00  7.72261074E+00 -1.54452215E+01
  7.72261074E+00  7.72261074E+00 -1.54452215E+01  7.72261074E+00  7.72261074E+00
 -1.54452215E+01  7.72261074E+00  7.72261074E+00 -1.54452215E+01  7.72261074E+00
  7.72261074E+00 -1.54452215E+01  7.72261074E+00  7.72261074E+00 -1.54452215E+01
  7.72261074E+00  7.72261074E+00 -1.54452215E+01  7.72261074E+00  7.72261074E+00
 -1.54452215E+01  7.72261074E+00  7.72261074E+00 -1.54452215E+01  7.72261074E+00
  7.72261074E+00 -1.54452215E+01  7.72261074E+00  7.72261074E+00 -1.54452215E+01
  7.72261074E+00  7.72261074E+00 -1.54452215E+01  7.72261074E+00  7.72261074E+00
 -1.54452215E+01  7.72261074E+00  7.72261074E+00 -1.54452215E+01  7.72261074E+00
  7.72261074E+00 -1.54452215E+01  7.72261074E+00  7.72261074E+00 -1.54452215E+01
  7.72261074E+00  7.72261074E+00 -1.54452215E+01  7.72261074E+00  7.72261074E+00
 -1.54452215E+01  7.72261074E+00  7.72261074E+00 -1.54452215E+01  7.72261074E+00
  7.72261074E+00 -1.54452215E+01  7.72261074E+00  7.72261074E+00 -1.54452215E+01
  7.72261074E+00  7.72261074E+00 -1.54452215E+01  7.72261074E+00  7.72261074E+00
 -1.54452215E+01  7.72261074E+00  7.72261074E+00 -1.54452215E+01  7.72261074E+00
  7.72261074E+00 -1.54452215E+01  7.72261074E+00  7.72261074E+00 -1.54452215E+01
  7.72261074E+00  7.72261074E+00 -1.54452215E+01  7.72261074E+00  7.72261074E+00
 -1.54452215E+01  7.72261074E+00  7.72261074E+00 -1.54452215E+01  7.72261074E+00
  7.72261074E+00 -1.54452215E+01  7.72261074E+00  7.72261074E+00 -1.54452215E+01
  7.72261074E+00  7.72261074E+00 -1.54452215E+01  7.72261074E+00  7.72261074E+00
 -1.54452215E+01  7.72261074E+00  7.72261074E+00 -1.54452215E+01  7.72261074E+00
  7.72261074E+00 -1.54452215E+01  7.72261074E+00  7.72261074E+00 -1.54452215E+01
  7.72261074E+00  7.72261074E+00 -1.54452215E+01  7.72261074E+00  7.72261074E+00
 -1.54452215E+01  7.72261074E+00  7.72261074E+00 -1.54452215E+01  7.72261074E+00
  7.72261074E+00 -1.54452215E+01  7.72261074E+00  7.72261074E+00 -1.54452215E+01
  7.72261074E+00  7.72261074E+00 -1.54452215E+01  7.72261074E+00  7.72261074E+00
 -1.54452215E+01  7.72261074E+00  7.72261074E+00 -1.54452215E+01  7.72261074E+00
  7.72261074E+00 -1.54452215E+01  7.72261074E+00  7.72261074E+00 -1.54452215E+01
  7.72261074E+00  7.72261074E+00 -1.54452215E+01  7.72261074E+00  7.72261074E+00
 -1.54452215E+01  7.72261074E+00  7.72261074E+00 -1.54452215E+01  7.72261074E+00
  7.72261074E+00 -1.54452215E+01  7.72261074E+00  7.72261074E+00 -1.54452215E+01
  7.72261074E+00  7.72261074E+00 -1.54452215E+01  7.72261074E+00  7.72261074E+00
 -1.54452215E+01  7.72261074E+00  7.72261074E+00 -1.54452215E+01  7.72261074E+00
  7.72261074E+00 -1.54452215E+01  7.72261074E+00  7.72261074E+00 -1.54452215E+01
  7.72261074E+00  7.72261074E+00 -1.54452215E+01  7.72261074E+00  7.72261074E+00
 -1.54452215E+01  7.72261074E+00  7.72261074E+00 -1.54452215E+01  7.72261074E+00
  7.72261074E+00 -1.54452215E+01  7.72261074E+00  7.72261074E+00 -1.54452215E+01
  7.72261074E+00  7.72261074E+00 -1.54452215E+01  7.72261074E+00  7.72261074E+00
 -1.54452215E+01  7.72261074E+00  7.72261074E+00 -1.54452215E+01  7.72261074E+00
  7.72261074E+00 -1.54452215E+01  7.72261074E+00  7.72261074E+00 -1.54452215E+01
  7.72261074E+00  7.72261074E+00 -1.54452215E+01  7.72261074E+00  7.72261074E+00
 -1.54452215E+01  7.72261074E+00  7.72261074E+00 -1.54452215E+01  7.72261074E+00
  7.72261074E+00 -1.54452215E+01  7.72261074E+00  7.72261074E+00 -1.54452215E+01
  7.72261074E+00  7.72261074E+00 -1.54452215E+01  7.72261074E+00  7.72261074E+00
 -1.54452215E+01  7.72261074E+00  7.72261074E+00 -1.54452215E+01  7.72261074E+00
  7.72261074E+00 -1.54452215E+01  7.72261074E+00  7.72261074E+00 -1.54452215E+01
  7.72261074E+00  7.72261074E+00 -1.54452215E+01  7.72261074E+00  7.72261074E+00
 -1.54452215E+01  7.72261074E+00  7.72261074E+00 -1.54452215E+01  7.72261074E+00
  7.72261074E+00 -1.54452215E+01  7.72261074E+00  7.72261074E+00 -1.54452215E+01
  7.72261074E+00  7.72261074E+00 -1.54452215E+01  7.72261074E+00  7.72261074E+00
 -1.54452215E+01  7.72261074E+00  7.72261074E+00 -1.54452215E+01  7.72261074E+00
  7.72261074E+00 -1.54452215E+01  7.72261074E+00  7.72261074E+00 -1.54452215E+01
  7.72261074E+00  7.72261074E+00 -1.54452215E+01  7.72261074E+00  7.72261074E+00
 -1.54452215E+01  7.72261074E+00  7.72261074E+00 -1.54452215E+01  7.72261074E+00
  7.72261074E+00 -1.54452215E+01  7.72261074E+00  7.72261074E+00 -1.54452215E+01
  7.72261074E+00  7.72261074E+00 -1.54452215E+01  7.72261074E+00  7.72261074E+00
 -1.54452215E+01  7.72261074E+00  7.72261074E+00 -1.54452215E+01  7.72261074E+00
  7.72261074E+00 -1.54452215E+01  7.72261074E+00  7.72261074E+00 -1.54452215E+01
  7.72261074E+00  7.72261074E+00 -1.54452215E+01  7.72261074E+00  7.72261074E+00
 -1.54452215E+01  7.72261074E+00  7.72261074E+00 -1.54452215E+01  7.72261074E+00
  7.72261074E+00 -1.54452215E+01  7.72261074E+00  7.72261074E+00 -1.54452215E+01
  7.72261074E+00  7.72261074E+00 -1.54452215E+01  7.72261074E+00  7.72261074E+00
 -1.54452215E+01  7.72261074E+00  7.72261074E+00 -1.54452215E+01  7.72261074E+00
  7.72261074E+00 -1.54452215E+01  7.72261074E+00  7.72261074E+00 -1.54452215E+01
  7.72261074E+00  7.72261074E+00 -1.54452215E+01  7.72261074E+00  7.72261074E+00
 -1.54452215E+01  7.72261074E+00  7.72261074E+00 -1.54452215E+01  7.72261074E+00
  7.72261074E+00 -1.54452215E+01  7.72261074E+00  7.72261074E+00 -1.54452215E+01
  7.72261074E+00  7.72261074E+00 -1.54452215E+01  7.72261074E+00  7.72261074E+00
 -1.54452215E+01  7.72261074E+00  7.72261074E+00 -1.54452215E+01  7.72261074E+00
  7.72261074E+00 -1.54452215E+01  7.72261074E+00  7.72261074E+00 -1.54452215E+01
  7.72261074E+00  7.72261074E+00 -1.54452215E+01  7.72261074E+00  7.72261074E+00
 -1.54452215E+01  7.72261074E+00  7.72261074E+00 -1.54452215E+01  7.72261074E+00
  7.72261074E+00 -1.54452215E+01  7.72261074E+00  7.72261074E+00 -1.54452215E+01
  7.72261074E+00  7.72261074E+00 -1.54452215E+01  7.72261074E+00  7.72261074E+00
 -1.54452215E+01  7.72261074E+00  7.72261074E+00 -1.54452215E+01  7.72261074E+00
  7.72261074E+00 -1.54452215E+01  7.72261074E+00  7.72261074E+00 -1.54452215E+01
  7.72261074E+00  7.72261074E+00 -1.54452215E+01  7.72261074E+00  7.72261074E+00
 -1.54452215E+01  7.72261074E+00  7.72261074E+00 -1.54452215E+01  7.72261074E+00
  7.72261074E+00 -1.54452215E+01  7.72261074E+00  7.72261074E+00 -1.54452215E+01
  7.72261074E+00  7.72261074E+00 -1.54452215E+01  7.72261074E+00  7.72261074E+00
 -1.54452215E+01  7.72261074E+00  7.72261074E+00 -1.54452215E+01  7.72261074E+00
  7.72261074E+00 -1.54452215E+01  7.72261074E+00  7.72261074E+00 -1.54452215E+01
  7.72261074E+00  7.72261074E+00 -1.54452215E+01  7.72261074E+00  7.72261074E+00
 -1.54452215E+01  7.72261074E+00  7.72261074E+00 -1.54452215E+01  7.72261074E+00
  7.72261074E+00 -1.54452215E+01  7.72261074E+00  7.72261074E+00 -1.54452215E+01
  7.72261074E+00  7.72261074E+00 -1.54452215E+01  7.72261074E+00  7.72261074E+00
 -1.54452215E+01  7.72261074E+00  7.72261074E+00 -1.54452215E+01  7.72261074E+00
  7.72261074E+00 -1.54452215E+01  7.72261074E+00  7.72261074E+00 -1.54452215E+01
  7.72261074E+00  7.72261074E+00 -1.54452215E+01  7.72261074E+00  7.72261074E+00
 -1.54452215E+01  7.72261074E+00  7.72261074E+00 -1.54452215E+01  7.72261074E+00
  7.72261074E+00 -1.54452215E+01  7.72261074E+00  7.72261074E+00 -1.54452215E+01
  7.72261074E+00  7.72261074E+00 -1.54452215E+01  7.72261074E+00  7.72261074E+00
 -1.54452215E+01  7.72261074E+00  7.72261074E+00 -1.54452215E+01  7.72261074E+00
  7.72261074E+00 -1.54452215E+01  7.72261074E+00  7.72261074E+00 -1.54452215E+01
  7.72261074E+00  7.72261074E+00 -1.54452215E+01  7.72261074E+00  7.72261074E+00
 -1.54452215E+01  7.72261074E+00  7.72261074E+00 -1.54452215E+01  7.72261074E+00
  7.72261074E+00 -1.54452215E+01  7.72261074E+00  7.72261074E+00 -1.54452215E+01
  7.72261074E+00  7.72261074E+00 -1.54452215E+01  7.72261074E+00  7.72261074E+00
 -1.54452215E+01  7.72261074E+00  7.72261074E+00 -1.54452215E+01  7.72261074E+00
  7.72261074E+00 -1.54452215E+01  7.72261074E+00  7.72261074E+00 -1.54452215E+01
  7.72261074E+00  7.72261074E+00 -1.54452215E+01  7.72261074E+00  7.72261074E+00
 -1.54452215E+01  7.72261074E+00  7.72261074E+00 -1.54452215E+01  7.72261074E+00
  7.72261074E+00 -1.54452215E+01  7.72261074E+00  7.72261074E+00 -1.54452215E+01
  7.72261074E+00  7.72261074E+00 -1.54452215E+01  7.72261074E+00  7.72261074E+00
 -1.54452215E+01  7.72261074E+00  7.72261074E+00 -1.54452215E+01  7.72261074E+00
  7.72261074E+00 -1.54452215E+01  7.72261074E+00  7.72261074E+00 -1.54452215E+01
  7.72261074E+00  7.72261074E+00 -1.54452215E+01  7.72261074E+00  7.72261074E+00
 -1.54452215E+01  7.72261074E+00  7.72261074E+00 -1.54452215E+01  7.72261074E+00
  7.72261074E+00 -1.54452215E+01  7.72261074E+00  7.72261074E+00 -1.54452215E+01
  7.72261074E+00  7.72261074E+00 -1.54452215E+01  7.72261074E+00  7.72261074E+00
 -1.54452215E+01  7.72261074E+00  7.72261074E+00 -1.54452215E+01  7.72261074E+00
  7.72261074E+00 -1.54452215E+01  7.72261074E+00  7.72261074E+00 -1.54452215E+01
  7.72261074E+00  7.72261074E+00 -1.54452215E+01  7.72261074E+00  7.72261074E+00
 -1.54452215E+01  7.72261074E+00  7.72261074E+00 -1.54452215E+01  7.72261074E+00
  7.72261074E+00 -1.54452215E+01  7.72261074E+00  7.72261074E+00 -1.54452215E+01
  7.72261074E+00  7.72261074E+00 -1.54452215E+01  7.72261074E+00  7.72261074E+00
 -1.54452215E+01  7.72261074E+00  7.72261074E+00 -1.54452215E+01  7.72261074E+00
  7.72261074E+00 -1.54452215E+01  7.72261074E+00  7.72261074E+00 -1.54452215E+01
  7.72261074E+00  7.72261074E+00 -1.54452215E+01  7.72261074E+00  7.72261074E+00
 -1.54452215E+01  7.72261074E+00  7.72261074E+00 -1.54452215E+01  7.72261074E+00
  7.72261074E+00 -1.54452215E+01  7.72261074E+00  7.72261074E+00 -1.54452215E+01
  7.72261074E+00  7.72261074E+00 -1.54452215E+01  7.72261074E+00  7.72261074E+00
 -1.54452215E+01  7.72261074E+00  7.72261074E+00 -1.54452215E+01  7.72261074E+00
  7.72261074E+00 -1.54452215E+01  7.72261074E+00  7.72261074E+00 -1.54452215E+01
  7.72261074E+00  7.72261074E+00 -1.54452215E+01  7.72261074E+00  7.72261074E+00
 -1.54452215E+01  7.72261074E+00  7.72261074E+00 -1.54452215E+01  7.72261074E+00
  7.72261074E+00 -1.54452215E+01  7.72261074E+00  7.72261074E+00 -1.54452215E+01
  7.72261074E+00  7.72261074E+00 -1.54452215E+01  7.72261074E+00  7.72261074E+00
 -1.54452215E+01  7.72261074E+00  7.72261074E+00 -1.54452215E+01  7.72261074E+00
  7.72261074E+00 -1.54452215E+01  7.72261074E+00  7.72261074E+00 -1.54452215E+01
  7.72261074E+00  7.72261074E+00 -1.54452215E+01  7.72261074E+00  7.72261074E+00
 -1.54452215E+01  7.72261074E+00  7.72261074E+00 -1.54452215E+01  7.72261074E+00
  7.72261074E+00 -1.54452215E+01  7.72261074E+00  7.72261074E+00 -1.54452215E+01
  7.72261074E+00  7.72261074E+00 -1.54452215E+01  7.72261074E+00  7.72261074E+00
 -1.54452215E+01  7.72261074E+00  7.72261074E+00 -1.54452215E+01  7.72261074E+00
  7.72261074E+00 -1.54452215E+01  7.72261074E+00  7.72261074E+00 -1.54452215E+01
  7.72261074E+00  7.72261074E+00 -1.54452215E+01  7.72261074E+00  7.72261074E+00
 -1.54452215E+01  7.72261074E+00  7.72261074E+00 -1.54452215E+01  7.72261074E+00
  7.72261074E+00 -1.54452215E+01  7.72261074E+00  7.72261074E+00 -1.54452215E+01
  7.72261074E+00  7.72261074E+00 -1.54452215E+01  7.72261074E+00  7.72261074E+00
 -1.54452215E+01  7.72261074E+00  7.72261074E+00 -1.54452215E+01  7.72261074E+00
  7.72261074E+00 -1.54452215E+01  7.72261074E+00  7.72261074E+00 -1.54452215E+01
  7.72261074E+00  7.72261074E+00 -1.54452215E+01  7.72261074E+00  7.72261074E+00
 -1.54452215E+01  7.72261074E+00  7.72261074E+00 -1.54452215E+01  7.72261074E+00
  7.72261074E+00 -1.54452215E+01  7.72261074E+00  7.72261074E+00 -1.54452215E+01
  7.72261074E+00  7.72261074E+00 -1.54452215E+01  7.72261074E+00  7.72261074E+00
 -1.54452215E+01  7.72261074E+00  7.72261074E+00 -1.54452215E+01  7.72261074E+00
  7.72261074E+00 -1.54452215E+01  7.72261074E+00  7.72261074E+00 -1.54452215E+01
  7.72261074E+00  7.72261074E+00 -1.54452215E+01  7.72261074E+00  7.72261074E+00
 -1.54452215E+01  7.72261074E+00  7.72261074E+00 -1.54452215E+01  7.72261074E+00
  7.72261074E+00 -1.54452215E+01  7.72261074E+00  7.72261074E+00 -1.54452215E+01
  7.72261074E+00  7.72261074E+00 -1.54452215E+01  7.72261074E+00  7.72261074E+00
 -1.54452215E+01  7.72261074E+00  7.72261074E+00 -1.54452215E+01  7.72261074E+00
  7.72261074E+00 -1.54452215E+01  7.72261074E+00  7.72261074E+00 -1.54452215E+01
  7.72261074E+00  7.72261074E+00 -1.54452215E+01  7.72261074E+00  7.72261074E+00
 -1.54452215E+01  7.72261074E+00  7.72261074E+00 -1.54452215E+01  7.72261074E+00
  7.72261074E+00 -1.54452215E+01  7.72261074E+00  7.72261074E+00 -1.54452215E+01
  7.72261074E+00  7.72261074E+00 -1.54452215E+01  7.72261074E+00  7.72261074E+00
 -1.54452215E+01  7.72261074E+00  7.72261074E+00 -1.54452215E+01  7.72261074E+00
  7.72261074E+00 -1.54452215E+01  7.72261074E+00  7.72261074E+00 -1.54452215E+01
  7.72261074E+00  7.72261074E+00 -1.54452215E+01  7.72261074E+00  7.72261074E+00
 -1.54452215E+01  7.72261074E+00  7.72261074E+00 -1.54452215E+01  7.72261074E+00
  7.72261074E+00 -1.54452215E+01  7.72261074E+00  7.72261074E+00 -1.54452215E+01
  7.72261074E+00  7.72261074E+00 -1.54452215E+01  7.72261074E+00  7.72261074E+00
 -1.54452215E+01  7.72261074E+00  7.72261074E+00 -1.54452215E+01  7.72261074E+00
  7.72261074E+00 -1.54452215E+01  7.72261074E+00  7.72261074E+00 -1.54452215E+01
  7.72261074E+00  7.72261074E+00 -1.54452215E+01  7.72261074E+00  7.72261074E+00
 -1.54452215E+01  7.72261074E+00  7.72261074E+00 -1.54452215E+01  7.72261074E+00
  7.72261074E+00 -1.54452215E+01  7.72261074E+00  7.72261074E+00 -1.54452215E+01
  7.72261074E+00  7.72261074E+00 -1.54452215E+01  7.72261074E+00  7.72261074E+00
 -1.54452215E+01  7.72261074E+00  7.72261074E+00 -1.54452215E+01  7.72261074E+00
  7.72261074E+00 -1.54452215E+01  7.72261074E+00  7.72261074E+00 -1.54452215E+01
  7.72261074E+00  7.72261074E+00 -1.54452215E+01  7.72261074E+00  7.72261074E+00
 -1.54452215E+01  7.72261074E+00  7.72261074E+00 -1.54452215E+01  7.72261074E+00
  7.72261074E+00 -1.54452215E+01  7.72261074E+00  7.72261074E+00 -1.54452215E+01
  7.72261074E+00  7.72261074E+00 -1.54452215E+01  7.72261074E+00  7.72261074E+00
 -1.54452215E+01  7.72261074E+00  7.72261074E+00 -1.54452215E+01  7.72261074E+00
  7.72261074E+00 -1.54452215E+01  7.72261074E+00  7.72261074E+00 -1.54452215E+01
  7.72261074E+00  7.72261074E+00 -1.54452215E+01  7.72261074E+00  7.72261074E+00
 -1.54452215E+01  7.72261074E+00  7.72261074E+00 -1.54452215E+01  7.72261074E+00
  7.72261074E+00 -1.54452215E+01  7.72261074E+00  7.72261074E+00 -1.54452215E+01
  7.72261074E+00  7.72261074E+00 -1.54452215E+01  7.72261074E+00  7.72261074E+00
 -1.54452215E+01  7.72261074E+00  7.72261074E+00 -1.54452215E+01  7.72261074E+00
  7.72261074E+00 -1.54452215E+01  7.72261074E+00  7.72261074E+00 -1.54452215E+01
  7.72261074E+00  7.72261074E+00 -1.54452215E+01  7.72261074E+00  7.72261074E+00
 -1.54452215E+01  7.72261074E+00  7.72261074E+00 -1.54452215E+01  7.72261074E+00
  7.72261074E+00 -1.54452215E+01  7.72261074E+00  7.72261074E+00 -1.54452215E+01
  7.72261074E+00  7.72261074E+00 -1.54452215E+01  7.72261074E+00  7.72261074E+00
 -1.54452215E+01  7.72261074E+00  7.72261074E+00 -1.54452215E+01  7.72261074E+00
  7.72261074E+00 -1.54452215E+01  7.72261074E+00  7.72261074E+00 -1.54452215E+01
  7.72261074E+00  7.72261074E+00 -1.54452215E+01  7.72261074E+00  7.72261074E+00
 -1.54452215E+01  7.72261074E+00  7.72261074E+00 -1.54452215E+01  7.72261074E+00
  7.72261074E+00 -1.54452215E+01  7.72261074E+00  7.72261074E+00 -1.54452215E+01
  7.72261074E+00  7.72261074E+00 -1.54452215E+01  7.72261074E+00  7.72261074E+00
 -1.54452215E+01  7.72261074E+00  7.72261074E+00 -1.54452215E+01  7.72261074E+00
  7.72261074E+00 -1.54452215E+01  7.72261074E+00  7.72261074E+00 -1.54452215E+01
  7.72261074E+00  7.72261074E+00 -1.54452215E+01  7.72261074E+00  7.72261074E+00
 -1.54452215E+01  7.72261074E+00  7.72261074E+00 -1.54452215E+01  7.72261074E+00
  7.72261074E+00 -1.54452215E+01  7.72261074E+00  7.72261074E+00 -1.54452215E+01
  7.72261074E+00  7.72261074E+00 -1.54452215E+01  7.72261074E+00  7.72261074E+00
 -1.54452215E+01  7.72261074E+00  7.72261074E+00 -1.54452215E+01  7.72261074E+00
  7.72261074E+00 -1.54452215E+01  7.72261074E+00  7.72261074E+00 -1.54452215E+01
  7.72261074E+00  7.72261074E+00 -1.54452215E+01  7.72261074E+00  7.72261074E+00
 -1.54452215E+01  7.72261074E+00  7.72261074E+00 -1.54452215E+01  7.72261074E+00
  7.72261074E+00 -1.54452215E+01  7.72261074E+00  7.72261074E+00 -1.54452215E+01
  7.72261074E+00  7.72261074E+00 -1.54452215E+01  7.72261074E+00  7.72261074E+00
 -1.54452215E+01  7.72261074E+00  7.72261074E+00 -1.54452215E+01  7.72261074E+00
  7.72261074E+00 -1.54452215E+01  7.72261074E+00  7.72261074E+00 -1.54452215E+01
  7.72261074E+00  7.72261074E+00 -1.54452215E+01  7.72261074E+00  7.72261074E+00
 -1.54452215E+01  7.72261074E+00  7.72261074E+00 -1.54452215E+01  7.72261074E+00
  7.72261074E+00 -1.54452215E+01  7.72261074E+00  7.72261074E+00 -1.54452215E+01
  7.72261074E+00  7.72261074E+00 -1.54452215E+01  7.72261074E+00  7.72261074E+00
 -1.54452215E+01  7.72261074E+00  7.72261074E+00 -1.54452215E+01  7.72261074E+00
  7.72261074E+00 -1.54452215E+01  7.72261074E+00  7.72261074E+00 -1.54452215E+01
  7.72261074E+00  7.72261074E+00 -1.54452215E+01  7.72261074E+00  7.72261074E+00
 -1.54452215E+01  7.72261074E+00  7.72261074E+00 -1.54452215E+01  7.72261074E+00
  7.72261074E+00 -1.54452215E+01  7.72261074E+00  7.72261074E+00 -1.54452215E+01
  7.72261074E+00  7.72261074E+00 -1.54452215E+01  7.72261074E+00  7.72261074E+00
 -1.54452215E+01  7.72261074E+00  7.72261074E+00 -1.54452215E+01  7.72261074E+00
  7.72261074E+00 -1.54452215E+01  7.72261074E+00  7.72261074E+00 -1.54452215E+01
  7.72261074E+00  7.72261074E+00 -1.54452215E+01  7.72261074E+00  7.72261074E+00
 -1.54452215E+01  7.72261074E+00  7.72261074E+00 -1.54452215E+01  7.72261074E+00
  7.72261074E+00 -1.54452215E+01  7.72261074E+00  7.72261074E+00 -1.54452215E+01
  7.72261074E+00  7.72261074E+00 -1.54452215E+01  7.72261074E+00  7.72261074E+00
 -1.54452215E+01  7.72261074E+00  7.72261074E+00 -1.54452215E+01  7.72261074E+00
  7.72261074E+00 -1.54452215E+01  7.72261074E+00  7.72261074E+00 -1.54452215E+01
  7.72261074E+00  7.72261074E+00 -1.54452215E+01  7.72261074E+00  7.72261074E+00
 -1.54452215E+01  7.72261074E+00  7.72261074E+00 -1.54452215E+01  7.72261074E+00
  7.72261074E+00 -1.54452215E+01  7.72261074E+00  7.72261074E+00 -1.54452215E+01
  7.72261074E+00  7.72261074E+00 -1.54452215E+01  7.72261074E+00  7.72261074E+00
 -1.54452215E+01  7.72261074E+00  7.72261074E+00 -1.54452215E+01  7.72261074E+00
  7.72261074E+00 -1.54452215E+01  7.72261074E+00  7.72261074E+00 -1.54452215E+01
  7.72261074E+00  7.72261074E+00 -1.54452215E+01  7.72261074E+00  7.72261074E+00
 -1.54452215E+01  7.72261074E+00  7.72261074E+00 -1.54452215E+01  7.72261074E+00
  7.72261074E+00 -1.54452215E+01  7.72261074E+00  7.72261074E+00 -1.54452215E+01
  7.72261074E+00  7.72261074E+00 -1.54452215E+01  7.72261074E+00  7.72261074E+00
 -1.54452215E+01  7.72261074E+00  7.72261074E+00 -1.54452215E+01  7.72261074E+00
  7.72261074E+00 -1.54452215E+01  7.72261074E+00  7.72261074E+00 -1.54452215E+01
  7.72261074E+00  7.72261074E+00 -1.54452215E+01  7.72261074E+00  7.72261074E+00
 -1.54452215E+01  7.72261074E+00  7.72261074E+00 -1.54452215E+01  7.72261074E+00
  7.72261074E+00 -1.54452215E+01  7.72261074E+00  7.72261074E+00 -1.54452215E+01
  7.72261074E+00  7.72261074E+00 -1.54452215E+01  7.72261074E+00  7.72261074E+00
 -1.54452215E+01  7.72261074E+00  7.72261074E+00 -1.54452215E+01  7.72261074E+00
  7.72261074E+00 -1.54452215E+01  7.72261074E+00  7.72261074E+00 -1.54452215E+01
  7.72261074E+00  7.72261074E+00 -1.54452215E+01  7.72261074E+00  7.72261074E+00
 -1.54452215E+01  7.72261074E+00  7.72261074E+00 -1.54452215E+01  7.72261074E+00
  7.72261074E+00 -1.54452215E+01  7.72261074E+00  7.72261074E+00 -1.54452215E+01
  7.72261074E+00  7.72261074E+00 -1.54452215E+01  7.72261074E+00  7.72261074E+00
 -1.54452215E+01  7.72261074E+00  7.72261074E+00 -1.54452215E+01  7.72261074E+00
  7.72261074E+00 -1.54452215E+01  7.72261074E+00  7.72261074E+00 -1.54452215E+01
  7.72261074E+00  7.72261074E+00 -1.54452215E+01  7.72261074E+00  7.72261074E+00
 -1.54452215E+01  7.72261074E+00  7.72261074E+00 -1.54452215E+01  7.72261074E+00
  7.72261074E+00 -1.54452215E+01  7.72261074E+00  7.72261074E+00 -1.54452215E+01
  7.72261074E+00  7.72261074E+00 -1.54452215E+01  7.72261074E+00  7.72261074E+00
 -1.54452215E+01  7.72261074E+00  7.72261074E+00 -1.54452215E+01  7.72261074E+00
  7.72261074E+00 -1.54452215E+01  7.72261074E+00  7.72261074E+00 -1.54452215E+01
  7.72261074E+00  7.72261074E+00 -1.54452215E+01  7.72261074E+00  7.72261074E+00
 -1.54452215E+01  7.72261074E+00  7.72261074E+00 -1.54452215E+01  7.72261074E+00
  7.72261074E+00 -1.54452215E+01  7.72261074E+00  7.72261074E+00 -1.54452215E+01
  7.72261074E+00  7.72261074E+00 -1.54452215E+01  7.72261074E+00  7.72261074E+00
 -1.54452215E+01  7.72261074E+00  7.72261074E+00 -1.54452215E+01  7.72261074E+00
  7.72261074E+00 -1.54452215E+01  7.72261074E+00  7.72261074E+00 -1.54452215E+01
  7.72261074E+00  7.72261074E+00 -1.54452215E+01  7.72261074E+00  7.72261074E+00
 -1.54452215E+01  7.72261074E+00  7.72261074E+00 -1.54452215E+01  7.72261074E+00
  7.72261074E+00 -1.54452215E+01  7.72261074E+00  7.72261074E+00 -1.54452215E+01
  7.72261074E+00  7.72261074E+00 -1.54452215E+01  7.72261074E+00  7.72261074E+00
 -1.54452215E+01  7.72261074E+00  7.72261074E+00 -1.54452215E+01  7.72261074E+00
  7.72261074E+00 -1.54452215E+01  7.72261074E+00  7.72261074E+00 -1.54452215E+01
  7.72261074E+00  7.72261074E+00 -1.54452215E+01  7.72261074E+00  7.72261074E+00
 -1.54452215E+01  7.72261074E+00  7.72261074E+00 -1.54452215E+01  7.72261074E+00
  7.72261074E+00 -1.54452215E+01  7.72261074E+00  7.72261074E+00 -1.54452215E+01
  7.72261074E+00  7.72261074E+00 -1.54452215E+01  7.72261074E+00  7.72261074E+00
 -1.54452215E+01  7.72261074E+00  7.72261074E+00 -1.54452215E+01  7.72261074E+00
  7.72261074E+00 -1.54452215E+01  7.72261074E+00  7.72261074E+00 -1.54452215E+01
  7.72261074E+00  7.72261074E+00 -1.54452215E+01  7.72261074E+00  7.72261074E+00
 -1.54452215E+01  7.72261074E+00  7.72261074E+00 -1.54452215E+01  7.72261074E+00
  7.72261074E+00 -1.54452215E+01  7.72261074E+00  7.72261074E+00 -1.54452215E+01
  7.72261074E+00  7.72261074E+00 -1.54452215E+01  7.72261074E+00  7.72261074E+00
 -1.54452215E+01  7.72261074E+00  7.72261074E+00 -1.54452215E+01  7.72261074E+00
  7.72261074E+00 -1.54452215E+01  7.72261074E+00  7.72261074E+00 -1.54452215E+01
  7.72261074E+00  7.72261074E+00 -1.54452215E+01  7.72261074E+00  7.72261074E+00
 -1.54452215E+01  7.72261074E+00  7.72261074E+00 -1.54452215E+01  7.72261074E+00
  7.72261074E+00 -1.54452215E+01  7.72261074E+00  7.72261074E+00 -1.54452215E+01
  7.72261074E+00  7.72261074E+00 -1.54452215E+01  7.72261074E+00  7.72261074E+00
 -1.54452215E+01  7.72261074E+00  7.72261074E+00 -1.54452215E+01  7.72261074E+00
  7.72261074E+00 -1.54452215E+01  7.72261074E+00  7.72261074E+00 -1.54452215E+01
  7.72261074E+00  7.72261074E+00 -1.54452215E+01  7.72261074E+00  7.72261074E+00
 -1.54452215E+01  7.72261074E+00  7.72261074E+00 -1.54452215E+01  7.72261074E+00
  7.72261074E+00 -1.54452215E+01  7.72261074E+00  7.72261074E+00 -1.54452215E+01
  7.72261074E+00  7.72261074E+00 -1.54452215E+01  7.72261074E+00  7.72261074E+00
 -1.54452215E+01  7.72261074E+00  7.72261074E+00 -1.54452215E+01  7.72261074E+00
  7.72261074E+00 -1.54452215E+01  7.72261074E+00  7.72261074E+00 -1.54452215E+01
  7.72261074E+00  7.72261074E+00 -1.54452215E+01  7.72261074E+00  7.72261074E+00
 -1.54452215E+01  7.72261074E+00  7.72261074E+00 -1.54452215E+01  7.72261074E+00
  7.72261074E+00 -1.54452215E+01  7.72261074E+00  7.72261074E+00 -1.54452215E+01
  7.72261074E+00  7.72261074E+00 -1.54452215E+01  7.72261074E+00  7.72261074E+00
 -1.54452215E+01  7.72261074E+00  7.72261074E+00 -1.54452215E+01  7.72261074E+00
  7.72261074E+00 -1.54452215E+01  7.72261074E+00  7.72261074E+00 -1.54452215E+01
  7.72261074E+00  7.72261074E+00 -1.54452215E+01  7.72261074E+00  7.72261074E+00
 -1.54452215E+01  7.72261074E+00  7.72261074E+00 -1.54452215E+01  7.72261074E+00
  7.72261074E+00 -1.54452215E+01  7.72261074E+00  7.72261074E+00 -1.54452215E+01
  7.72261074E+00  7.72261074E+00 -1.54452215E+01  7.72261074E+00  7.72261074E+00
 -1.54452215E+01  7.72261074E+00  7.72261074E+00 -1.54452215E+01  7.72261074E+00
  7.72261074E+00 -1.54452215E+01  7.72261074E+00  7.72261074E+00 -1.54452215E+01
  7.72261074E+00  7.72261074E+00 -1.54452215E+01  7.72261074E+00  7.72261074E+00
 -1.54452215E+01  7.72261074E+00  7.72261074E+00 -1.54452215E+01  7.72261074E+00
  7.72261074E+00 -1.54452215E+01  7.72261074E+00  7.72261074E+00 -1.54452215E+01
  7.72261074E+00  7.72261074E+00 -1.54452215E+01  7.72261074E+00  7.72261074E+00
 -1.54452215E+01  7.72261074E+00  7.72261074E+00 -1.54452215E+01  7.72261074E+00
  7.72261074E+00 -1.54452215E+01  7.72261074E+00  7.72261074E+00 -1.54452215E+01
  7.72261074E+00  7.72261074E+00 -1.54452215E+01  7.72261074E+00  7.72261074E+00
 -1.54452215E+01  7.72261074E+00  7.72261074E+00 -1.54452215E+01  7.72261074E+00
  7.72261074E+00 -1.54452215E+01  7.72261074E+00  7.72261074E+00 -1.54452215E+01
  7.72261074E+00  7.72261074E+00 -1.54452215E+01  7.72261074E+00  7.72261074E+00
 -1.54452215E+01  7.72261074E+00  7.72261074E+00 -1.54452215E+01  7.72261074E+00
  7.72261074E+00 -1.54452215E+01  7.72261074E+00  7.72261074E+00 -1.54452215E+01
  7.72261074E+00  7.72261074E+00 -1.54452215E+01  7.72261074E+00  7.72261074E+00
 -1.54452215E+01  7.72261074E+00  7.72261074E+00 -1.54452215E+01  7.72261074E+00
  7.72261074E+00 -1.54452215E+01  7.72261074E+00  7.72261074E+00 -1.54452215E+01
  7.72261074E+00  7.72261074E+00 -1.54452215E+01  7.72261074E+00  7.72261074E+00
 -1.54452215E+01  7.72261074E+00  7.72261074E+00 -1.54452215E+01  7.72261074E+00
  7.72261074E+00 -1.54452215E+01  7.72261074E+00  7.72261074E+00 -1.54452215E+01
  7.72261074E+00  7.72261074E+00 -1.54452215E+01  7.72261074E+00  7.72261074E+00
 -1.54452215E+01  7.72261074E+00  7.72261074E+00 -1.54452215E+01  7.72261074E+00
  7.72261074E+00 -1.54452215E+01  7.72261074E+00  7.72261074E+00 -1.54452215E+01
  7.72261074E+00  7.72261074E+00 -1.54452215E+01  7.72261074E+00  7.72261074E+00
 -1.54452215E+01  7.72261074E+00  7.72261074E+00 -1.54452215E+01  7.72261074E+00
  7.72261074E+00 -1.54452215E+01  7.72261074E+00  7.72261074E+00 -1.54452215E+01
  7.72261074E+00  7.72261074E+00 -1.54452215E+01  7.72261074E+00  7.72261074E+00
 -1.54452215E+01  7.72261074E+00  7.72261074E+00 -1.54452215E+01  7.72261074E+00
  7.72261074E+00 -1.54452215E+01  7.72261074E+00  7.72261074E+00 -1.54452215E+01
  7.72261074E+00  7.72261074E+00 -1.54452215E+01  7.72261074E+00  7.72261074E+00
 -1.54452215E+01  7.72261074E+00  7.72261074E+00 -1.54452215E+01  7.72261074E+00
  7.72261074E+00 -1.54452215E+01  7.72261074E+00  7.72261074E+00 -1.54452215E+01
  7.72261074E+00  7.72261074E+00 -1.54452215E+01  7.72261074E+00  7.72261074E+00
 -1.54452215E+01  7.72261074E+00  7.72261074E+00 -1.54452215E+01  7.72261074E+00
  7.72261074E+00 -1.54452215E+01  7.72261074E+00  7.72261074E+00 -1.54452215E+01
  7.72261074E+00  7.72261074E+00 -1.54452215E+01  7.72261074E+00  7.72261074E+00
 -1.54452215E+01  7.72261074E+00  7.72261074E+00 -1.54452215E+01  7.72261074E+00
  7.72261074E+00 -1.54452215E+01  7.72261074E+00  7.72261074E+00 -1.54452215E+01
  7.72261074E+00  7.72261074E+00 -1.54452215E+01  7.72261074E+00  7.72261074E+00
 -1.54452215E+01  7.72261074E+00  7.72261074E+00 -1.54452215E+01  7.72261074E+00
  7.72261074E+00 -1.54452215E+01  7.72261074E+00  7.72261074E+00 -1.54452215E+01
  7.72261074E+00  7.72261074E+00 -1.54452215E+01  7.72261074E+00  7.72261074E+00
 -1.54452215E+01  7.72261074E+00  7.72261074E+00 -1.54452215E+01  7.72261074E+00
  7.72261074E+00 -1.54452215E+01  7.72261074E+00  7.72261074E+00 -1.54452215E+01
  7.72261074E+00  7.72261074E+00 -1.54452215E+01  7.72261074E+00  7.72261074E+00
 -1.54452215E+01  7.72261074E+00  7.72261074E+00 -1.54452215E+01  7.72261074E+00
  7.72261074E+00 -1.54452215E+01  7.72261074E+00  7.72261074E+00 -1.54452215E+01
  7.72261074E+00  7.72261074E+00 -1.54452215E+01  7.72261074E+00  7.72261074E+00
 -1.54452215E+01  7.72261074E+00  7.72261074E+00 -1.54452215E+01  7.72261074E+00
  7.72261074E+00 -1.54452215E+01  7.72261074E+00  7.72261074E+00 -1.54452215E+01
  7.72261074E+00  7.72261074E+00 -1.54452215E+01  7.72261074E+00  7.72261074E+00
 -1.54452215E+01  7.72261074E+00  7.72261074E+00 -1.54452215E+01  7.72261074E+00
  7.72261074E+00 -1.54452215E+01  7.72261074E+00  7.72261074E+00 -1.54452215E+01
  7.72261074E+00  7.72261074E+00 -1.54452215E+01  7.72261074E+00  7.72261074E+00
 -1.54452215E+01  7.72261074E+00  7.72261074E+00 -1.54452215E+01  7.72261074E+00
  7.72261074E+00 -1.54452215E+01  7.72261074E+00  7.72261074E+00 -1.54452215E+01
  7.72261074E+00  7.72261074E+00 -1.54452215E+01  7.72261074E+00  7.72261074E+00
 -1.54452215E+01  7.72261074E+00  7.72261074E+00 -1.54452215E+01  7.72261074E+00
  7.72261074E+00 -1.54452215E+01  7.72261074E+00  7.72261074E+00 -1.54452215E+01
  7.72261074E+00  7.72261074E+00 -1.54452215E+01  7.72261074E+00  7.72261074E+00
 -1.54452215E+01  7.72261074E+00  7.72261074E+00 -1.54452215E+01  7.72261074E+00
  7.72261074E+00 -1.54452215E+01  7.72261074E+00  7.72261074E+00 -1.54452215E+01
  7.72261074E+00  7.72261074E+00 -1.54452215E+01  7.72261074E+00  7.72261074E+00
 -1.54452215E+01  7.72261074E+00  7.72261074E+00 -1.54452215E+01  7.72261074E+00
  7.72261074E+00 -1.54452215E+01  7.72261074E+00  7.72261074E+00 -1.54452215E+01
  7.72261074E+00  7.72261074E+00 -1.54452215E+01  7.72261074E+00  7.72261074E+00
 -1.54452215E+01  7.72261074E+00  7.72261074E+00 -1.54452215E+01  7.72261074E+00
  7.72261074E+00 -1.54452215E+01  7.72261074E+00  7.72261074E+00 -1.54452215E+01
  7.72261074E+00  7.72261074E+00 -1.54452215E+01  7.72261074E+00  7.72261074E+00
 -1.54452215E+01  7.72261074E+00  7.72261074E+00 -1.54452215E+01  7.72261074E+00
  7.72261074E+00 -1.54452215E+01  7.72261074E+00  7.72261074E+00 -1.54452215E+01
  7.72261074E+00  7.72261074E+00 -1.54452215E+01  7.72261074E+00  7.72261074E+00
 -1.54452215E+01  7.72261074E+00  7.72261074E+00 -1.54452215E+01  7.72261074E+00
  7.72261074E+00 -1.54452215E+01  7.72261074E+00  7.72261074E+00 -1.54452215E+01
  7.72261074E+00  7.72261074E+00 -1.54452215E+01  7.72261074E+00  7.72261074E+00
 -1.54452215E+01  7.72261074E+00  7.72261074E+00 -1.54452215E+01  7.72261074E+00
  7.72261074E+00 -1.54452215E+01  7.72261074E+00  7.72261074E+00 -1.54452215E+01
  7.72261074E+00  7.72261074E+00 -1.54452215E+01  7.72261074E+00  7.72261074E+00
 -1.54452215E+01  7.72261074E+00  7.72261074E+00 -1.54452215E+01  7.72261074E+00
  7.72261074E+00 -1.54452215E+01  7.72261074E+00  7.72261074E+00 -1.54452215E+01
  7.72261074E+00  7.72261074E+00 -1.54452215E+01  7.72261074E+00  7.72261074E+00
 -1.54452215E+01  7.72261074E+00  7.72261074E+00 -1.54452215E+01  7.72261074E+00
  7.72261074E+00 -1.54452215E+01  7.72261074E+00  7.72261074E+00 -1.54452215E+01
  7.72261074E+00  7.72261074E+00 -1.54452215E+01  7.72261074E+00  7.72261074E+00
 -1.54452215E+01  7.72261074E+00  7.72261074E+00 -1.54452215E+01  7.72261074E+00
  7.72261074E+00 -1.54452215E+01  7.72261074E+00  7.72261074E+00 -1.54452215E+01
  7.72261074E+00  7.72261074E+00 -1.54452215E+01  7.72261074E+00  7.72261074E+00
 -1.54452215E+01  7.72261074E+00  7.72261074E+00 -1.54452215E+01  7.72261074E+00
  7.72261074E+00 -1.54452215E+01  7.72261074E+00  7.72261074E+00 -1.54452215E+01
  7.72261074E+00  7.72261074E+00 -1.54452215E+01  7.72261074E+00  7.72261074E+00
 -1.54452215E+01  7.72261074E+00  7.72261074E+00 -1.54452215E+01  7.72261074E+00
  7.72261074E+00 -1.54452215E+01  7.72261074E+00  7.72261074E+00 -1.54452215E+01
  7.72261074E+00  7.72261074E+00 -1.54452215E+01  7.72261074E+00  7.72261074E+00
 -1.54452215E+01  7.72261074E+00  7.72261074E+00 -1.54452215E+01  7.72261074E+00
  7.72261074E+00 -1.54452215E+01  7.72261074E+00  7.72261074E+00 -1.54452215E+01
  7.72261074E+00  7.72261074E+00 -1.54452215E+01  7.72261074E+00  7.72261074E+00
 -1.54452215E+01  7.72261074E+00  7.72261074E+00 -1.54452215E+01  7.72261074E+00
  7.72261074E+00 -1.54452215E+01  7.72261074E+00  7.72261074E+00 -1.54452215E+01
  7.72261074E+00  7.72261074E+00 -1.54452215E+01  7.72261074E+00  7.72261074E+00
 -1.54452215E+01  7.72261074E+00  7.72261074E+00 -1.54452215E+01  7.72261074E+00
  7.72261074E+00 -1.54452215E+01  7.72261074E+00  7.72261074E+00 -1.54452215E+01
  7.72261074E+00  7.72261074E+00 -1.54452215E+01  7.72261074E+00  7.72261074E+00
 -1.54452215E+01  7.72261074E+00  7.72261074E+00 -1.54452215E+01  7.72261074E+00
  7.72261074E+00 -1.54452215E+01  7.72261074E+00  7.72261074E+00 -1.54452215E+01
  7.72261074E+00  7.72261074E+00 -1.54452215E+01  7.72261074E+00  7.72261074E+00
 -1.54452215E+01  7.72261074E+00  7.72261074E+00 -1.54452215E+01  7.72261074E+00
  7.72261074E+00 -1.54452215E+01  7.72261074E+00  7.72261074E+00 -1.54452215E+01
  7.72261074E+00  7.72261074E+00 -1.54452215E+01  7.72261074E+00  7.72261074E+00
 -1.54452215E+01  7.72261074E+00  7.72261074E+00 -1.54452215E+01  7.72261074E+00
  7.72261074E+00 -1.54452215E+01  7.72261074E+00  7.72261074E+00 -1.54452215E+01
  7.72261074E+00  7.72261074E+00 -1.54452215E+01  7.72261074E+00  7.72261074E+00
 -1.54452215E+01  7.72261074E+00  7.72261074E+00 -1.54452215E+01  7.72261074E+00
  7.72261074E+00 -1.54452215E+01  7.72261074E+00  7.72261074E+00 -1.54452215E+01
  7.72261074E+00  7.72261074E+00 -1.54452215E+01  7.72261074E+00  7.72261074E+00
 -1.54452215E+01  7.72261074E+00  7.72261074E+00 -1.54452215E+01  7.72261074E+00
  7.72261074E+00 -1.54452215E+01  7.72261074E+00  7.72261074E+00 -1.54452215E+01
  7.72261074E+00  7.72261074E+00 -1.54452215E+01  7.72261074E+00  7.72261074E+00
 -1.54452215E+01  7.72261074E+00  7.72261074E+00 -1.54452215E+01  7.72261074E+00
  7.72261074E+00 -1.54452215E+01  7.72261074E+00  7.72261074E+00 -1.54452215E+01
  7.72261074E+00  7.72261074E+00 -1.54452215E+01  7.72261074E+00  7.72261074E+00
 -1.54452215E+01  7.72261074E+00  7.72261074E+00 -1.54452215E+01  7.72261074E+00
  7.72261074E+00 -1.54452215E+01  7.72261074E+00  7.72261074E+00 -1.54452215E+01
  7.72261074E+00  7.72261074E+00 -1.54452215E+01  7.72261074E+00  7.72261074E+00
 -1.54452215E+01  7.72261074E+00  7.72261074E+00 -1.54452215E+01  7.72261074E+00
  7.72261074E+00 -1.54452215E+01  7.72261074E+00  7.72261074E+00 -1.54452215E+01
  7.72261074E+00  7.72261074E+00 -1.54452215E+01  7.72261074E+00  7.72261074E+00
 -1.54452215E+01  7.72261074E+00  7.72261074E+00 -1.54452215E+01  7.72261074E+00
  7.72261074E+00 -1.54452215E+01  7.72261074E+00  7.72261074E+00 -1.54452215E+01
  7.72261074E+00  7.72261074E+00 -1.54452215E+01  7.72261074E+00  7.72261074E+00
 -1.54452215E+01  7.72261074E+00  7.72261074E+00 -1.54452215E+01  7.72261074E+00
  7.72261074E+00 -1.54452215E+01  7.72261074E+00  7.72261074E+00 -1.54452215E+01
  7.72261074E+00  7.72261074E+00 -1.54452215E+01  7.72261074E+00  7.72261074E+00
 -1.54452215E+01  7.72261074E+00  7.72261074E+00 -1.54452215E+01  7.72261074E+00
  7.72261074E+00 -1.54452215E+01  7.72261074E+00  7.72261074E+00 -1.54452215E+01
  7.72261074E+00  7.72261074E+00 -1.54452215E+01  7.72261074E+00  7.72261074E+00
 -1.54452215E+01  7.72261074E+00  7.72261074E+00 -1.54452215E+01  7.72261074E+00
  7.72261074E+00 -1.54452215E+01  7.72261074E+00  7.72261074E+00 -1.54452215E+01
  7.72261074E+00  7.72261074E+00 -1.54452215E+01  7.72261074E+00  7.72261074E+00
 -1.54452215E+01  7.72261074E+00  7.72261074E+00 -1.54452215E+01  7.72261074E+00
  7.72261074E+00 -1.54452215E+01  7.72261074E+00  7.72261074E+00 -1.54452215E+01
  7.72261074E+00  7.72261074E+00 -1.54452215E+01  7.72261074E+00  7.72261074E+00
 -1.54452215E+01  7.72261074E+00  7.72261074E+00 -1.54452215E+01  7.72261074E+00
  7.72261074E+00 -1.54452215E+01  7.72261074E+00  7.72261074E+00 -1.54452215E+01
  7.72261074E+00  7.72261074E+00 -1.54452215E+01  7.72261074E+00  7.72261074E+00
 -1.54452215E+01  7.72261074E+00  7.72261074E+00 -1.54452215E+01  7.72261074E+00
  7.72261074E+00 -1.54452215E+01  7.72261074E+00  7.72261074E+00 -1.54452215E+01
  7.72261074E+00  7.72261074E+00 -1.54452215E+01  7.72261074E+00  7.72261074E+00
 -1.54452215E+01  7.72261074E+00  7.72261074E+00 -1.54452215E+01  7.72261074E+00
  7.72261074E+00 -1.54452215E+01  7.72261074E+00  7.72261074E+00 -1.54452215E+01
  7.72261074E+00  7.72261074E+00 -1.54452215E+01  7.72261074E+00  7.72261074E+00
 -1.54452215E+01  7.72261074E+00  7.72261074E+00 -1.54452215E+01  7.72261074E+00
  7.72261074E+00 -1.54452215E+01  7.72261074E+00  7.72261074E+00 -1.54452215E+01
  7.72261074E+00  7.72261074E+00 -1.54452215E+01  7.72261074E+00  7.72261074E+00
 -1.54452215E+01  7.72261074E+00  7.72261074E+00 -1.54452215E+01  7.72261074E+00
  7.72261074E+00 -1.54452215E+01  7.72261074E+00  7.72261074E+00 -1.54452215E+01
  7.72261074E+00  7.72261074E+00 -1.54452215E+01  7.72261074E+00  7.72261074E+00
 -1.54452215E+01  7.72261074E+00  7.72261074E+00 -1.54452215E+01  7.72261074E+00
  7.72261074E+00 -1.54452215E+01  7.72261074E+00  7.72261074E+00 -1.54452215E+01
  7.72261074E+00  7.72261074E+00 -1.54452215E+01  7.72261074E+00  7.72261074E+00
 -1.54452215E+01  7.72261074E+00  7.72261074E+00 -1.54452215E+01  7.72261074E+00
  7.72261074E+00 -1.54452215E+01  7.72261074E+00  7.72261074E+00 -1.54452215E+01
  7.72261074E+00  7.72261074E+00 -1.54452215E+01  7.72261074E+00  7.72261074E+00
 -1.54452215E+01  7.72261074E+00  7.72261074E+00 -1.54452215E+01  7.72261074E+00
  7.72261074E+00 -1.54452215E+01  7.72261074E+00  7.72261074E+00 -1.54452215E+01
  7.72261074E+00  7.72261074E+00 -1.54452215E+01  7.72261074E+00  7.72261074E+00
 -1.54452215E+01  7.72261074E+00  7.72261074E+00 -1.54452215E+01  7.72261074E+00
  7.72261074E+00 -1.54452215E+01  7.72261074E+00  7.72261074E+00 -1.54452215E+01
  7.72261074E+00  7.72261074E+00 -1.54452215E+01  7.72261074E+00  7.72261074E+00
 -1.54452215E+01  7.72261074E+00  7.72261074E+00 -1.54452215E+01  7.72261074E+00
  7.72261074E+00 -1.54452215E+01  7.72261074E+00  7.72261074E+00 -1.54452215E+01
  7.72261074E+00  7.72261074E+00 -1.54452215E+01  7.72261074E+00  7.72261074E+00
 -1.54452215E+01  7.72261074E+00  7.72261074E+00 -1.54452215E+01  7.72261074E+00
  7.72261074E+00 -1.54452215E+01  7.72261074E+00  7.72261074E+00 -1.54452215E+01
  7.72261074E+00  7.72261074E+00 -1.54452215E+01  7.72261074E+00  7.72261074E+00
 -1.54452215E+01  7.72261074E+00  7.72261074E+00 -1.54452215E+01  7.72261074E+00
  7.72261074E+00 -1.54452215E+01  7.72261074E+00  7.72261074E+00 -1.54452215E+01
  7.72261074E+00  7.72261074E+00 -1.54452215E+01  7.72261074E+00  7.72261074E+00
 -1.54452215E+01  7.72261074E+00  7.72261074E+00 -1.54452215E+01  7.72261074E+00
  7.72261074E+00 -1.54452215E+01  7.72261074E+00  7.72261074E+00 -1.54452215E+01
  7.72261074E+00  7.72261074E+00 -1.54452215E+01  7.72261074E+00  7.72261074E+00
 -1.54452215E+01  7.72261074E+00  7.72261074E+00 -1.54452215E+01  7.72261074E+00
  7.72261074E+00 -1.54452215E+01  7.72261074E+00  7.72261074E+00 -1.54452215E+01
  7.72261074E+00  7.72261074E+00 -1.54452215E+01  7.72261074E+00  7.72261074E+00
 -1.54452215E+01  7.72261074E+00  7.72261074E+00 -1.54452215E+01  7.72261074E+00
  7.72261074E+00 -1.54452215E+01  7.72261074E+00  7.72261074E+00 -1.54452215E+01
  7.72261074E+00  7.72261074E+00 -1.54452215E+01  7.72261074E+00  7.72261074E+00
 -1.54452215E+01  7.72261074E+00  7.72261074E+00 -1.54452215E+01  7.72261074E+00
  7.72261074E+00 -1.54452215E+01  7.72261074E+00  7.72261074E+00 -1.54452215E+01
  7.72261074E+00  7.72261074E+00 -1.54452215E+01  7.72261074E+00  7.72261074E+00
 -1.54452215E+01  7.72261074E+00  7.72261074E+00 -1.54452215E+01  7.72261074E+00
  7.72261074E+00 -1.54452215E+01  7.72261074E+00  7.72261074E+00 -1.54452215E+01
  7.72261074E+00  7.72261074E+00 -1.54452215E+01  7.72261074E+00  7.72261074E+00
 -1.54452215E+01  7.72261074E+00  7.72261074E+00 -1.54452215E+01  7.72261074E+00
  7.72261074E+00 -1.54452215E+01  7.72261074E+00  7.72261074E+00 -1.54452215E+01
  7.72261074E+00  7.72261074E+00 -1.54452215E+01  7.72261074E+00  7.72261074E+00
 -1.54452215E+01  7.72261074E+00  7.72261074E+00 -1.54452215E+01  7.72261074E+00
  7.72261074E+00 -1.54452215E+01  7.72261074E+00  7.72261074E+00 -1.54452215E+01
  7.72261074E+00  7.72261074E+00 -1.54452215E+01  7.72261074E+00  7.72261074E+00
 -1.54452215E+01  7.72261074E+00  7.72261074E+00 -1.54452215E+01  7.72261074E+00
  7.72261074E+00 -1.54452215E+01  7.72261074E+00  7.72261074E+00 -1.54452215E+01
  7.72261074E+00  7.72261074E+00 -1.54452215E+01  7.72261074E+00  7.72261074E+00
 -1.54452215E+01  7.72261074E+00  7.72261074E+00 -1.54452215E+01  7.72261074E+00
  7.72261074E+00 -1.54452215E+01  7.72261074E+00  7.72261074E+00 -1.54452215E+01
  7.72261074E+00  7.72261074E+00 -1.54452215E+01  7.72261074E+00  7.72261074E+00
 -1.54452215E+01  7.72261074E+00  7.72261074E+00 -1.54452215E+01  7.72261074E+00
  7.72261074E+00 -1.54452215E+01  7.72261074E+00  7.72261074E+00 -1.54452215E+01
  7.72261074E+00  7.72261074E+00 -1.54452215E+01  7.72261074E+00  7.72261074E+00
 -1.54452215E+01  7.72261074E+00  7.72261074E+00 -1.54452215E+01  7.72261074E+00
  7.72261074E+00 -1.54452215E+01  7.72261074E+00  7.72261074E+00 -1.54452215E+01
  7.72261074E+00  7.72261074E+00 -1.54452215E+01  7.72261074E+00  7.72261074E+00
 -1.54452215E+01  7.72261074E+00  7.72261074E+00 -1.54452215E+01  7.72261074E+00
  7.72261074E+00 -1.54452215E+01  7.72261074E+00  7.72261074E+00 -1.54452215E+01
  7.72261074E+00  7.72261074E+00 -1.54452215E+01  7.72261074E+00  7.72261074E+00
 -1.54452215E+01  7.72261074E+00  7.72261074E+00 -1.54452215E+01  7.72261074E+00
  7.72261074E+00 -1.54452215E+01  7.72261074E+00  7.72261074E+00 -1.54452215E+01
  7.72261074E+00  7.72261074E+00 -1.54452215E+01  7.72261074E+00  7.72261074E+00
 -1.54452215E+01  7.72261074E+00  7.72261074E+00 -1.54452215E+01  7.72261074E+00
  7.72261074E+00 -1.54452215E+01  7.72261074E+00  7.72261074E+00 -1.54452215E+01
  7.72261074E+00  7.72261074E+00 -1.54452215E+01  7.72261074E+00  7.72261074E+00
 -1.54452215E+01  7.72261074E+00  7.72261074E+00 -1.54452215E+01  7.72261074E+00
  7.72261074E+00 -1.54452215E+01  7.72261074E+00  7.72261074E+00 -1.54452215E+01
  7.72261074E+00  7.72261074E+00 -1.54452215E+01  7.72261074E+00  7.72261074E+00
 -1.54452215E+01  7.72261074E+00  7.72261074E+00 -1.54452215E+01  7.72261074E+00
  7.72261074E+00 -1.54452215E+01  7.72261074E+00  7.72261074E+00 -1.54452215E+01
  7.72261074E+00  7.72261074E+00 -1.54452215E+01  7.72261074E+00  7.72261074E+00
 -1.54452215E+01  7.72261074E+00  7.72261074E+00 -1.54452215E+01  7.72261074E+00
  7.72261074E+00 -1.54452215E+01  7.72261074E+00  7.72261074E+00 -1.54452215E+01
  7.72261074E+00  7.72261074E+00 -1.54452215E+01  7.72261074E+00  7.72261074E+00
 -1.54452215E+01  7.72261074E+00  7.72261074E+00 -1.54452215E+01  7.72261074E+00
  7.72261074E+00 -1.54452215E+01  7.72261074E+00  7.72261074E+00 -1.54452215E+01
  7.72261074E+00  7.72261074E+00 -1.54452215E+01  7.72261074E+00  7.72261074E+00
 -1.54452215E+01  7.72261074E+00  7.72261074E+00 -1.54452215E+01  7.72261074E+00
  7.72261074E+00 -1.54452215E+01  7.72261074E+00  7.72261074E+00 -1.54452215E+01
  7.72261074E+00  7.72261074E+00 -1.54452215E+01  7.72261074E+00  7.72261074E+00
 -1.54452215E+01  7.72261074E+00  7.72261074E+00 -1.54452215E+01  7.72261074E+00
  7.72261074E+00 -1.54452215E+01  7.72261074E+00  7.72261074E+00 -1.54452215E+01
  7.72261074E+00  7.72261074E+00 -1.54452215E+01  7.72261074E+00  7.72261074E+00
 -1.54452215E+01  7.72261074E+00  7.72261074E+00 -1.54452215E+01  7.72261074E+00
  7.72261074E+00 -1.54452215E+01  7.72261074E+00  7.72261074E+00 -1.54452215E+01
  7.72261074E+00  7.72261074E+00 -1.54452215E+01  7.72261074E+00  7.72261074E+00
 -1.54452215E+01  7.72261074E+00  7.72261074E+00 -1.54452215E+01  7.72261074E+00
  7.72261074E+00 -1.54452215E+01  7.72261074E+00  7.72261074E+00 -1.54452215E+01
  7.72261074E+00  7.72261074E+00 -1.54452215E+01  7.72261074E+00  7.72261074E+00
 -1.54452215E+01  7.72261074E+00  7.72261074E+00 -1.54452215E+01  7.72261074E+00
  7.72261074E+00 -1.54452215E+01  7.72261074E+00  7.72261074E+00 -1.54452215E+01
  7.72261074E+00  7.72261074E+00 -1.54452215E+01  7.72261074E+00  7.72261074E+00
 -1.54452215E+01  7.72261074E+00  7.72261074E+00 -1.54452215E+01  7.72261074E+00
  7.72261074E+00 -1.54452215E+01  7.72261074E+00  7.72261074E+00 -1.54452215E+01
  7.72261074E+00  7.72261074E+00 -1.54452215E+01  7.72261074E+00  7.72261074E+00
 -1.54452215E+01  7.72261074E+00  7.72261074E+00 -1.54452215E+01  7.72261074E+00
  7.72261074E+00 -1.54452215E+01  7.72261074E+00  7.72261074E+00 -1.54452215E+01
  7.72261074E+00  7.72261074E+00 -1.54452215E+01  7.72261074E+00  7.72261074E+00
 -1.54452215E+01  7.72261074E+00  7.72261074E+00 -1.54452215E+01  7.72261074E+00
  7.72261074E+00 -1.54452215E+01  7.72261074E+00  7.72261074E+00 -1.54452215E+01
  7.72261074E+00  7.72261074E+00 -1.54452215E+01  7.72261074E+00  7.72261074E+00
 -1.54452215E+01  7.72261074E+00  7.72261074E+00 -1.54452215E+01  7.72261074E+00
  7.72261074E+00 -1.54452215E+01  7.72261074E+00  7.72261074E+00 -1.54452215E+01
  7.72261074E+00  7.72261074E+00 -1.54452215E+01  7.72261074E+00  7.72261074E+00
 -1.54452215E+01  7.72261074E+00  7.72261074E+00 -1.54452215E+01  7.72261074E+00
  7.72261074E+00 -1.54452215E+01  7.72261074E+00  7.72261074E+00 -1.54452215E+01
  7.72261074E+00  7.72261074E+00 -1.54452215E+01  7.72261074E+00  7.72261074E+00
 -1.54452215E+01  7.72261074E+00  7.72261074E+00 -1.54452215E+01  7.72261074E+00
  7.72261074E+00 -1.54452215E+01  7.72261074E+00  7.72261074E+00 -1.54452215E+01
  7.72261074E+00  7.72261074E+00 -1.54452215E+01  7.72261074E+00  7.72261074E+00
 -1.54452215E+01  7.72261074E+00  7.72261074E+00 -1.54452215E+01  7.72261074E+00
  7.72261074E+00 -1.54452215E+01  7.72261074E+00  7.72261074E+00 -1.54452215E+01
  7.72261074E+00  7.72261074E+00 -1.54452215E+01  7.72261074E+00  7.72261074E+00
 -1.54452215E+01  7.72261074E+00  7.72261074E+00 -1.54452215E+01  7.72261074E+00
  7.72261074E+00 -1.54452215E+01  7.72261074E+00  7.72261074E+00 -1.54452215E+01
  7.72261074E+00  7.72261074E+00 -1.54452215E+01  7.72261074E+00  7.72261074E+00
 -1.54452215E+01  7.72261074E+00  7.72261074E+00 -1.54452215E+01  7.72261074E+00
  7.72261074E+00 -1.54452215E+01  7.72261074E+00  7.72261074E+00 -1.54452215E+01
  7.72261074E+00  7.72261074E+00 -1.54452215E+01  7.72261074E+00  7.72261074E+00
 -1.54452215E+01  7.72261074E+00  7.72261074E+00 -1.54452215E+01  7.72261074E+00
  7.72261074E+00 -1.54452215E+01  7.72261074E+00  7.72261074E+00 -1.54452215E+01
  7.72261074E+00  7.72261074E+00 -1.54452215E+01  7.72261074E+00  7.72261074E+00
 -1.54452215E+01  7.72261074E+00  7.72261074E+00 -1.54452215E+01  7.72261074E+00
  7.72261074E+00 -1.54452215E+01  7.72261074E+00  7.72261074E+00 -1.54452215E+01
  7.72261074E+00  7.72261074E+00 -1.54452215E+01  7.72261074E+00  7.72261074E+00
 -1.54452215E+01  7.72261074E+00  7.72261074E+00 -1.54452215E+01  7.72261074E+00
  7.72261074E+00 -1.54452215E+01  7.72261074E+00  7.72261074E+00 -1.54452215E+01
  7.72261074E+00  7.72261074E+00 -1.54452215E+01  7.72261074E+00  7.72261074E+00
 -1.54452215E+01  7.72261074E+00  7.72261074E+00 -1.54452215E+01  7.72261074E+00
  7.72261074E+00 -1.54452215E+01  7.72261074E+00  7.72261074E+00 -1.54452215E+01
  7.72261074E+00  7.72261074E+00 -1.54452215E+01  7.72261074E+00  7.72261074E+00
 -1.54452215E+01  7.72261074E+00  7.72261074E+00 -1.54452215E+01  7.72261074E+00
  7.72261074E+00 -1.54452215E+01  7.72261074E+00  7.72261074E+00 -1.54452215E+01
  7.72261074E+00  7.72261074E+00 -1.54452215E+01  7.72261074E+00  7.72261074E+00
 -1.54452215E+01  7.72261074E+00  7.72261074E+00 -1.54452215E+01  7.72261074E+00
  7.72261074E+00 -1.54452215E+01  7.72261074E+00  7.72261074E+00 -1.54452215E+01
  7.72261074E+00  7.72261074E+00 -1.54452215E+01  7.72261074E+00  7.72261074E+00
 -1.54452215E+01  7.72261074E+00  7.72261074E+00 -1.54452215E+01  7.72261074E+00
  7.72261074E+00 -1.54452215E+01  7.72261074E+00  7.72261074E+00 -1.54452215E+01
  7.72261074E+00  7.72261074E+00 -1.54452215E+01  7.72261074E+00  7.72261074E+00
 -1.54452215E+01  7.72261074E+00  7.72261074E+00 -1.54452215E+01  7.72261074E+00
  7.72261074E+00 -1.54452215E+01  7.72261074E+00  7.72261074E+00 -1.54452215E+01
  7.72261074E+00  7.72261074E+00 -1.54452215E+01  7.72261074E+00  7.72261074E+00
 -1.54452215E+01  7.72261074E+00  7.72261074E+00 -1.54452215E+01  7.72261074E+00
  7.72261074E+00 -1.54452215E+01  7.72261074E+00  7.72261074E+00 -1.54452215E+01
  7.72261074E+00  7.72261074E+00 -1.54452215E+01  7.72261074E+00  7.72261074E+00
 -1.54452215E+01  7.72261074E+00  7.72261074E+00 -1.54452215E+01  7.72261074E+00
  7.72261074E+00 -1.54452215E+01  7.72261074E+00  7.72261074E+00 -1.54452215E+01
  7.72261074E+00  7.72261074E+00 -1.54452215E+01  7.72261074E+00  7.72261074E+00
 -1.54452215E+01  7.72261074E+00  7.72261074E+00 -1.54452215E+01  7.72261074E+00
  7.72261074E+00 -1.54452215E+01  7.72261074E+00  7.72261074E+00 -1.54452215E+01
  7.72261074E+00  7.72261074E+00 -1.54452215E+01  7.72261074E+00  7.72261074E+00
 -1.54452215E+01  7.72261074E+00  7.72261074E+00 -1.54452215E+01  7.72261074E+00
  7.72261074E+00 -1.54452215E+01  7.72261074E+00  7.72261074E+00 -1.54452215E+01
  7.72261074E+00  7.72261074E+00 -1.54452215E+01  7.72261074E+00  7.72261074E+00
 -1.54452215E+01  7.72261074E+00  7.72261074E+00 -1.54452215E+01  7.72261074E+00
  7.72261074E+00 -1.54452215E+01  7.72261074E+00  7.72261074E+00 -1.54452215E+01
  7.72261074E+00  7.72261074E+00 -1.54452215E+01  7.72261074E+00  7.72261074E+00
 -1.54452215E+01  7.72261074E+00  7.72261074E+00 -1.54452215E+01  7.72261074E+00
  7.72261074E+00 -1.54452215E+01  7.72261074E+00  7.72261074E+00 -1.54452215E+01
  7.72261074E+00  7.72261074E+00 -1.54452215E+01  7.72261074E+00  7.72261074E+00
 -1.54452215E+01  7.72261074E+00  7.72261074E+00 -1.54452215E+01  7.72261074E+00
  7.72261074E+00 -1.54452215E+01  7.72261074E+00  7.72261074E+00 -1.54452215E+01
  7.72261074E+00  7.72261074E+00 -1.54452215E+01  7.72261074E+00  7.72261074E+00
 -1.54452215E+01  7.72261074E+00  7.72261074E+00 -1.54452215E+01  7.72261074E+00
  7.72261074E+00 -1.54452215E+01  7.72261074E+00  7.72261074E+00 -1.54452215E+01
  7.72261074E+00  7.72261074E+00 -1.54452215E+01  7.72261074E+00  7.72261074E+00
 -1.54452215E+01  7.72261074E+00  7.72261074E+00 -1.54452215E+01  7.72261074E+00
  7.72261074E+00 -1.54452215E+01  7.72261074E+00  7.72261074E+00 -1.54452215E+01
  7.72261074E+00  7.72261074E+00 -1.54452215E+01  7.72261074E+00  7.72261074E+00
 -1.54452215E+01  7.72261074E+00  7.72261074E+00 -1.54452215E+01  7.72261074E+00
  7.72261074E+00 -1.54452215E+01  7.72261074E+00  7.72261074E+00 -1.54452215E+01
  7.72261074E+00  7.72261074E+00 -1.54452215E+01  7.72261074E+00  7.72261074E+00
 -1.54452215E+01  7.72261074E+00  7.72261074E+00 -1.54452215E+01  7.72261074E+00
  7.72261074E+00 -1.54452215E+01  7.72261074E+00  7.72261074E+00 -1.54452215E+01
  7.72261074E+00  7.72261074E+00 -1.54452215E+01  7.72261074E+00  7.72261074E+00
 -1.54452215E+01  7.72261074E+00  7.72261074E+00 -1.54452215E+01  7.72261074E+00
  7.72261074E+00 -1.54452215E+01  7.72261074E+00  7.72261074E+00 -1.54452215E+01
  7.72261074E+00  7.72261074E+00 -1.54452215E+01  7.72261074E+00  7.72261074E+00
 -1.54452215E+01  7.72261074E+00  7.72261074E+00 -1.54452215E+01  7.72261074E+00
  7.72261074E+00 -1.54452215E+01  7.72261074E+00  7.72261074E+00 -1.54452215E+01
  7.72261074E+00  7.72261074E+00 -1.54452215E+01  7.72261074E+00  7.72261074E+00
 -1.54452215E+01  7.72261074E+00  7.72261074E+00 -1.54452215E+01  7.72261074E+00
  7.72261074E+00 -1.54452215E+01  7.72261074E+00  7.72261074E+00 -1.54452215E+01
  7.72261074E+00  7.72261074E+00 -1.54452215E+01  7.72261074E+00  7.72261074E+00
 -1.54452215E+01  7.72261074E+00  7.72261074E+00 -1.54452215E+01  7.72261074E+00
  7.72261074E+00 -1.54452215E+01  7.72261074E+00  7.72261074E+00 -1.54452215E+01
  7.72261074E+00  7.72261074E+00 -1.54452215E+01  7.72261074E+00  7.72261074E+00
 -1.54452215E+01  7.72261074E+00  7.72261074E+00 -1.54452215E+01  7.72261074E+00
  7.72261074E+00 -1.54452215E+01  7.72261074E+00  7.72261074E+00 -1.54452215E+01
  7.72261074E+00  7.72261074E+00 -1.54452215E+01  7.72261074E+00  7.72261074E+00
 -1.54452215E+01  7.72261074E+00  7.72261074E+00 -1.54452215E+01  7.72261074E+00
  7.72261074E+00 -1.54452215E+01  7.72261074E+00  7.72261074E+00 -1.54452215E+01
  7.72261074E+00  7.72261074E+00 -1.54452215E+01  7.72261074E+00  7.72261074E+00
 -1.54452215E+01  7.72261074E+00  7.72261074E+00 -1.54452215E+01  7.72261074E+00
  7.72261074E+00 -1.54452215E+01  7.72261074E+00  7.72261074E+00 -1.54452215E+01
  7.72261074E+00  7.72261074E+00 -1.54452215E+01  7.72261074E+00  7.72261074E+00
 -1.54452215E+01  7.72261074E+00  7.72261074E+00 -1.54452215E+01  7.72261074E+00
  7.72261074E+00 -1.54452215E+01  7.72261074E+00  7.72261074E+00 -1.54452215E+01
  7.72261074E+00  7.72261074E+00 -1.54452215E+01  7.72261074E+00  7.72261074E+00
 -1.54452215E+01  7.72261074E+00  7.72261074E+00 -1.54452215E+01  7.72261074E+00
  7.72261074E+00 -1.54452215E+01  7.72261074E+00  7.72261074E+00 -1.54452215E+01
  7.72261074E+00  7.72261074E+00 -1.54452215E+01  7.72261074E+00  7.72261074E+00
 -1.54452215E+01  7.72261074E+00  7.72261074E+00 -1.54452215E+01  7.72261074E+00
  7.72261074E+00 -1.54452215E+01  7.72261074E+00  7.72261074E+00 -1.54452215E+01
  7.72261074E+00  7.72261074E+00 -1.54452215E+01  7.72261074E+00  7.72261074E+00
 -1.54452215E+01  7.72261074E+00  7.72261074E+00 -1.54452215E+01  7.72261074E+00
  7.72261074E+00 -1.54452215E+01  7.72261074E+00  7.72261074E+00 -1.54452215E+01
  7.72261074E+00  7.72261074E+00 -1.54452215E+01  7.72261074E+00  7.72261074E+00
 -1.54452215E+01  7.72261074E+00  7.72261074E+00 -1.54452215E+01  7.72261074E+00
  7.72261074E+00 -1.54452215E+01  7.72261074E+00  7.72261074E+00 -1.54452215E+01
  7.72261074E+00  7.72261074E+00 -1.54452215E+01  7.72261074E+00  7.72261074E+00
 -1.54452215E+01  7.72261074E+00  7.72261074E+00 -1.54452215E+01  7.72261074E+00
  7.72261074E+00 -1.54452215E+01  7.72261074E+00  7.72261074E+00 -1.54452215E+01
  7.72261074E+00  7.72261074E+00 -1.54452215E+01  7.72261074E+00  7.72261074E+00
 -1.54452215E+01  7.72261074E+00  7.72261074E+00 -1.54452215E+01  7.72261074E+00
  7.72261074E+00 -1.54452215E+01  7.72261074E+00  7.72261074E+00 -1.54452215E+01
  7.72261074E+00  7.72261074E+00 -1.54452215E+01  7.72261074E+00  7.72261074E+00
 -1.54452215E+01  7.72261074E+00  7.72261074E+00 -1.54452215E+01  7.72261074E+00
  7.72261074E+00 -1.54452215E+01  7.72261074E+00  7.72261074E+00 -1.54452215E+01
  7.72261074E+00  7.72261074E+00 -1.54452215E+01  7.72261074E+00  7.72261074E+00
 -1.54452215E+01  7.72261074E+00  7.72261074E+00 -1.54452215E+01  7.72261074E+00
  7.72261074E+00 -1.54452215E+01  7.72261074E+00  7.72261074E+00 -1.54452215E+01
  7.72261074E+00  7.72261074E+00 -1.54452215E+01  7.72261074E+00  7.72261074E+00
 -1.54452215E+01  7.72261074E+00  7.72261074E+00 -1.54452215E+01  7.72261074E+00
  7.72261074E+00 -1.54452215E+01  7.72261074E+00  7.72261074E+00 -1.54452215E+01
  7.72261074E+00  7.72261074E+00 -1.54452215E+01  7.72261074E+00  7.72261074E+00
 -1.54452215E+01  7.72261074E+00  7.72261074E+00 -1.54452215E+01  7.72261074E+00
  7.72261074E+00 -1.54452215E+01  7.72261074E+00  7.72261074E+00 -1.54452215E+01
  7.72261074E+00  7.72261074E+00 -1.54452215E+01  7.72261074E+00  7.72261074E+00
 -1.54452215E+01  7.72261074E+00  7.72261074E+00 -1.54452215E+01  7.72261074E+00
  7.72261074E+00 -1.54452215E+01  7.72261074E+00  7.72261074E+00 -1.54452215E+01
  7.72261074E+00  7.72261074E+00 -1.54452215E+01  7.72261074E+00  7.72261074E+00
 -1.54452215E+01  7.72261074E+00  7.72261074E+00 -1.54452215E+01  7.72261074E+00
  7.72261074E+00 -1.54452215E+01  7.72261074E+00  7.72261074E+00 -1.54452215E+01
  7.72261074E+00  7.72261074E+00 -1.54452215E+01  7.72261074E+00  7.72261074E+00
 -1.54452215E+01  7.72261074E+00  7.72261074E+00 -1.54452215E+01  7.72261074E+00
  7.72261074E+00 -1.54452215E+01  7.72261074E+00  7.72261074E+00 -1.54452215E+01
  7.72261074E+00  7.72261074E+00 -1.54452215E+01  7.72261074E+00  7.72261074E+00
 -1.54452215E+01  7.72261074E+00  7.72261074E+00 -1.54452215E+01  7.72261074E+00
  7.72261074E+00 -1.54452215E+01  7.72261074E+00  7.72261074E+00 -1.54452215E+01
  7.72261074E+00  7.72261074E+00 -1.54452215E+01  7.72261074E+00  7.72261074E+00
 -1.54452215E+01  7.72261074E+00  7.72261074E+00 -1.54452215E+01  7.72261074E+00
  7.72261074E+00 -1.54452215E+01  7.72261074E+00  7.72261074E+00 -1.54452215E+01
  7.72261074E+00  7.72261074E+00 -1.54452215E+01  7.72261074E+00  7.72261074E+00
 -1.54452215E+01  7.72261074E+00  7.72261074E+00 -1.54452215E+01  7.72261074E+00
  7.72261074E+00 -1.54452215E+01  7.72261074E+00  7.72261074E+00 -1.54452215E+01
  7.72261074E+00  7.72261074E+00 -1.54452215E+01  7.72261074E+00  7.72261074E+00
 -1.54452215E+01  7.72261074E+00  7.72261074E+00 -1.54452215E+01  7.72261074E+00
  7.72261074E+00 -1.54452215E+01  7.72261074E+00  7.72261074E+00 -1.54452215E+01
  7.72261074E+00  7.72261074E+00 -1.54452215E+01  7.72261074E+00  7.72261074E+00
 -1.54452215E+01  7.72261074E+00  7.72261074E+00 -1.54452215E+01  7.72261074E+00
  7.72261074E+00 -1.54452215E+01  7.72261074E+00  7.72261074E+00 -1.54452215E+01
  7.72261074E+00  7.72261074E+00 -1.54452215E+01  7.72261074E+00  7.72261074E+00
 -1.54452215E+01  7.72261074E+00  7.72261074E+00 -1.54452215E+01  7.72261074E+00
  7.72261074E+00 -1.54452215E+01  7.72261074E+00  7.72261074E+00 -1.54452215E+01
  7.72261074E+00  7.72261074E+00 -1.54452215E+01  7.72261074E+00  7.72261074E+00
 -1.54452215E+01  7.72261074E+00  7.72261074E+00 -1.54452215E+01  7.72261074E+00
  7.72261074E+00 -1.54452215E+01  7.72261074E+00  7.72261074E+00 -1.54452215E+01
  7.72261074E+00  7.72261074E+00 -1.54452215E+01  7.72261074E+00  7.72261074E+00
 -1.54452215E+01  7.72261074E+00  7.72261074E+00 -1.54452215E+01  7.72261074E+00
  7.72261074E+00 -1.54452215E+01  7.72261074E+00  7.72261074E+00 -1.54452215E+01
  7.72261074E+00  7.72261074E+00 -1.54452215E+01  7.72261074E+00  7.72261074E+00
 -1.54452215E+01  7.72261074E+00  7.72261074E+00 -1.54452215E+01  7.72261074E+00
  7.72261074E+00 -1.54452215E+01  7.72261074E+00  7.72261074E+00 -1.54452215E+01
  7.72261074E+00  7.72261074E+00 -1.54452215E+01  7.72261074E+00  7.72261074E+00
 -1.54452215E+01  7.72261074E+00  7.72261074E+00 -1.54452215E+01  7.72261074E+00
  7.72261074E+00 -1.54452215E+01  7.72261074E+00  7.72261074E+00 -1.54452215E+01
  7.72261074E+00  7.72261074E+00 -1.54452215E+01  7.72261074E+00  7.72261074E+00
 -1.54452215E+01  7.72261074E+00  7.72261074E+00 -1.54452215E+01  7.72261074E+00
  7.72261074E+00 -1.54452215E+01  7.72261074E+00  7.72261074E+00 -1.54452215E+01
  7.72261074E+00  7.72261074E+00 -1.54452215E+01  7.72261074E+00  7.72261074E+00
 -1.54452215E+01  7.72261074E+00  7.72261074E+00 -1.54452215E+01  7.72261074E+00
  7.72261074E+00 -1.54452215E+01  7.72261074E+00  7.72261074E+00 -1.54452215E+01
  7.72261074E+00  7.72261074E+00 -1.54452215E+01  7.72261074E+00  7.72261074E+00
 -1.54452215E+01  7.72261074E+00  7.72261074E+00 -1.54452215E+01  7.72261074E+00
  7.72261074E+00 -1.54452215E+01  7.72261074E+00  7.72261074E+00 -1.54452215E+01
  7.72261074E+00  7.72261074E+00 -1.54452215E+01  7.72261074E+00  7.72261074E+00
 -1.54452215E+01  7.72261074E+00  7.72261074E+00 -1.54452215E+01  7.72261074E+00
  7.72261074E+00 -1.54452215E+01  7.72261074E+00  7.72261074E+00 -1.54452215E+01
  7.72261074E+00  7.72261074E+00 -1.54452215E+01  7.72261074E+00  7.72261074E+00
 -1.54452215E+01  7.72261074E+00  7.72261074E+00 -1.54452215E+01  7.72261074E+00
  7.72261074E+00 -1.54452215E+01  7.72261074E+00  7.72261074E+00 -1.54452215E+01
  7.72261074E+00  7.72261074E+00 -1.54452215E+01  7.72261074E+00  7.72261074E+00
 -1.54452215E+01  7.72261074E+00  7.72261074E+00 -1.54452215E+01  7.72261074E+00
  7.72261074E+00 -1.54452215E+01  7.72261074E+00  7.72261074E+00 -1.54452215E+01
  7.72261074E+00  7.72261074E+00 -1.54452215E+01  7.72261074E+00  7.72261074E+00
 -1.54452215E+01  7.72261074E+00  7.72261074E+00 -1.54452215E+01  7.72261074E+00
  7.72261074E+00 -1.54452215E+01  7.72261074E+00  7.72261074E+00 -1.54452215E+01
  7.72261074E+00  7.72261074E+00 -1.54452215E+01  7.72261074E+00  7.72261074E+00
 -1.54452215E+01  7.72261074E+00  7.72261074E+00 -1.54452215E+01  7.72261074E+00
  7.72261074E+00 -1.54452215E+01  7.72261074E+00  7.72261074E+00 -1.54452215E+01
  7.72261074E+00  7.72261074E+00 -1.54452215E+01  7.72261074E+00  7.72261074E+00
 -1.54452215E+01  7.72261074E+00  7.72261074E+00 -1.54452215E+01  7.72261074E+00
  7.72261074E+00 -1.54452215E+01  7.72261074E+00  7.72261074E+00 -1.54452215E+01
  7.72261074E+00  7.72261074E+00 -1.54452215E+01  7.72261074E+00  7.72261074E+00
 -1.54452215E+01  7.72261074E+00  7.72261074E+00 -1.54452215E+01  7.72261074E+00
  7.72261074E+00 -1.54452215E+01  7.72261074E+00  7.72261074E+00 -1.54452215E+01
  7.72261074E+00  7.72261074E+00 -1.54452215E+01  7.72261074E+00  7.72261074E+00
 -1.54452215E+01  7.72261074E+00  7.72261074E+00 -1.54452215E+01  7.72261074E+00
  7.72261074E+00 -1.54452215E+01  7.72261074E+00  7.72261074E+00 -1.54452215E+01
  7.72261074E+00  7.72261074E+00 -1.54452215E+01  7.72261074E+00  7.72261074E+00
 -1.54452215E+01  7.72261074E+00  7.72261074E+00 -1.54452215E+01  7.72261074E+00
  7.72261074E+00 -1.54452215E+01  7.72261074E+00  7.72261074E+00 -1.54452215E+01
  7.72261074E+00  7.72261074E+00 -1.54452215E+01  7.72261074E+00  7.72261074E+00
 -1.54452215E+01  7.72261074E+00  7.72261074E+00 -1.54452215E+01  7.72261074E+00
  7.72261074E+00 -1.54452215E+01  7.72261074E+00  7.72261074E+00 -1.54452215E+01
  7.72261074E+00  7.72261074E+00 -1.54452215E+01  7.72261074E+00  7.72261074E+00
 -1.54452215E+01  7.72261074E+00  7.72261074E+00 -1.54452215E+01  7.72261074E+00
  7.72261074E+00 -1.54452215E+01  7.72261074E+00  7.72261074E+00 -1.54452215E+01
  7.72261074E+00  7.72261074E+00 -1.54452215E+01  7.72261074E+00  7.72261074E+00
 -1.54452215E+01  7.72261074E+00  7.72261074E+00 -1.54452215E+01  7.72261074E+00
  7.72261074E+00 -1.54452215E+01  7.72261074E+00  7.72261074E+00 -1.54452215E+01
  7.72261074E+00  7.72261074E+00 -1.54452215E+01  7.72261074E+00  7.72261074E+00
 -1.54452215E+01  7.72261074E+00  7.72261074E+00 -1.54452215E+01  7.72261074E+00
  7.72261074E+00 -1.54452215E+01  7.72261074E+00  7.72261074E+00 -1.54452215E+01
  7.72261074E+00  7.72261074E+00 -1.54452215E+01  7.72261074E+00  7.72261074E+00
 -1.54452215E+01  7.72261074E+00  7.72261074E+00 -1.54452215E+01  7.72261074E+00
  7.72261074E+00 -1.54452215E+01  7.72261074E+00  7.72261074E+00 -1.54452215E+01
  7.72261074E+00  7.72261074E+00 -1.54452215E+01  7.72261074E+00  7.72261074E+00
 -1.54452215E+01  7.72261074E+00  7.72261074E+00 -1.54452215E+01  7.72261074E+00
  7.72261074E+00 -1.54452215E+01  7.72261074E+00  7.72261074E+00 -1.54452215E+01
  7.72261074E+00  7.72261074E+00 -1.54452215E+01  7.72261074E+00  7.72261074E+00
 -1.54452215E+01  7.72261074E+00  7.72261074E+00 -1.54452215E+01  7.72261074E+00
  7.72261074E+00 -1.54452215E+01  7.72261074E+00  7.72261074E+00 -1.54452215E+01
  7.72261074E+00  7.72261074E+00 -1.54452215E+01  7.72261074E+00  7.72261074E+00
 -1.54452215E+01  7.72261074E+00  7.72261074E+00 -1.54452215E+01  7.72261074E+00
  7.72261074E+00 -1.54452215E+01  7.72261074E+00  7.72261074E+00 -1.54452215E+01
  7.72261074E+00  7.72261074E+00 -1.54452215E+01  7.72261074E+00  7.72261074E+00
 -1.54452215E+01  7.72261074E+00  7.72261074E+00 -1.54452215E+01  7.72261074E+00
  7.72261074E+00 -1.54452215E+01  7.72261074E+00  7.72261074E+00 -1.54452215E+01
  7.72261074E+00  7.72261074E+00 -1.54452215E+01  7.72261074E+00  7.72261074E+00
 -1.54452215E+01  7.72261074E+00  7.72261074E+00 -1.54452215E+01  7.72261074E+00
  7.72261074E+00 -1.54452215E+01  7.72261074E+00  7.72261074E+00 -1.54452215E+01
  7.72261074E+00  7.72261074E+00 -1.54452215E+01  7.72261074E+00  7.72261074E+00
 -1.54452215E+01  7.72261074E+00  7.72261074E+00 -1.54452215E+01  7.72261074E+00
  7.72261074E+00 -1.54452215E+01  7.72261074E+00  7.72261074E+00 -1.54452215E+01
  7.72261074E+00  7.72261074E+00 -1.54452215E+01  7.72261074E+00  7.72261074E+00
 -1.54452215E+01  7.72261074E+00  7.72261074E+00 -1.54452215E+01  7.72261074E+00
  7.72261074E+00 -1.54452215E+01  7.72261074E+00  7.72261074E+00 -1.54452215E+01
  7.72261074E+00  7.72261074E+00 -1.54452215E+01  7.72261074E+00  7.72261074E+00
 -1.54452215E+01  7.72261074E+00  7.72261074E+00 -1.54452215E+01  7.72261074E+00
  7.72261074E+00 -1.54452215E+01  7.72261074E+00  7.72261074E+00 -1.54452215E+01
  7.72261074E+00  7.72261074E+00 -1.54452215E+01  7.72261074E+00  7.72261074E+00
 -1.54452215E+01  7.72261074E+00  7.72261074E+00 -1.54452215E+01  7.72261074E+00
  7.72261074E+00 -1.54452215E+01  7.72261074E+00  7.72261074E+00 -1.54452215E+01
  7.72261074E+00  7.72261074E+00 -1.54452215E+01  7.72261074E+00  7.72261074E+00
 -1.54452215E+01  7.72261074E+00  7.72261074E+00 -1.54452215E+01  7.72261074E+00
  7.72261074E+00 -1.54452215E+01  7.72261074E+00  7.72261074E+00 -1.54452215E+01
  7.72261074E+00  7.72261074E+00 -1.54452215E+01  7.72261074E+00  7.72261074E+00
 -1.54452215E+01  7.72261074E+00  7.72261074E+00 -1.54452215E+01  7.72261074E+00
  7.72261074E+00 -1.54452215E+01  7.72261074E+00  7.72261074E+00 -1.54452215E+01
  7.72261074E+00  7.72261074E+00 -1.54452215E+01  7.72261074E+00  7.72261074E+00
 -1.54452215E+01  7.72261074E+00  7.72261074E+00 -1.54452215E+01  7.72261074E+00
  7.72261074E+00 -1.54452215E+01  7.72261074E+00  7.72261074E+00 -1.54452215E+01
  7.72261074E+00  7.72261074E+00 -1.54452215E+01  7.72261074E+00  7.72261074E+00
 -1.54452215E+01  7.72261074E+00  7.72261074E+00 -1.54452215E+01  7.72261074E+00
  7.72261074E+00 -1.54452215E+01  7.72261074E+00  7.72261074E+00 -1.54452215E+01
  7.72261074E+00  7.72261074E+00 -1.54452215E+01  7.72261074E+00  7.72261074E+00
 -1.54452215E+01  7.72261074E+00  7.72261074E+00 -1.54452215E+01  7.72261074E+00
  7.72261074E+00 -1.54452215E+01  7.72261074E+00  7.72261074E+00 -1.54452215E+01
  7.72261074E+00  7.72261074E+00 -1.54452215E+01  7.72261074E+00  7.72261074E+00
 -1.54452215E+01  7.72261074E+00  7.72261074E+00 -1.54452215E+01  7.72261074E+00
  7.72261074E+00 -1.54452215E+01  7.72261074E+00  7.72261074E+00 -1.54452215E+01
  7.72261074E+00  7.72261074E+00 -1.54452215E+01  7.72261074E+00  7.72261074E+00
 -1.54452215E+01  7.72261074E+00  7.72261074E+00 -1.54452215E+01  7.72261074E+00
  7.72261074E+00 -1.54452215E+01  7.72261074E+00  7.72261074E+00 -1.54452215E+01
  7.72261074E+00  7.72261074E+00 -1.54452215E+01  7.72261074E+00  7.72261074E+00
 -1.54452215E+01  7.72261074E+00  7.72261074E+00 -1.54452215E+01  7.72261074E+00
  7.72261074E+00 -1.54452215E+01  7.72261074E+00  7.72261074E+00 -1.54452215E+01
  7.72261074E+00  7.72261074E+00 -1.54452215E+01  7.72261074E+00  7.72261074E+00
 -1.54452215E+01  7.72261074E+00  7.72261074E+00 -1.54452215E+01  7.72261074E+00
  7.72261074E+00 -1.54452215E+01  7.72261074E+00  7.72261074E+00 -1.54452215E+01
  7.72261074E+00  7.72261074E+00 -1.54452215E+01  7.72261074E+00  7.72261074E+00
 -1.54452215E+01  7.72261074E+00  7.72261074E+00 -1.54452215E+01  7.72261074E+00
  7.72261074E+00 -1.54452215E+01  7.72261074E+00  7.72261074E+00 -1.54452215E+01
  7.72261074E+00  7.72261074E+00 -1.54452215E+01  7.72261074E+00  7.72261074E+00
 -1.54452215E+01  7.72261074E+00  7.72261074E+00 -1.54452215E+01  7.72261074E+00
  7.72261074E+00 -1.54452215E+01  7.72261074E+00  7.72261074E+00 -1.54452215E+01
  7.72261074E+00  7.72261074E+00 -1.54452215E+01  7.72261074E+00  7.72261074E+00
 -1.54452215E+01  7.72261074E+00  7.72261074E+00 -1.54452215E+01  7.72261074E+00
  7.72261074E+00 -1.54452215E+01  7.72261074E+00  7.72261074E+00 -1.54452215E+01
  7.72261074E+00  7.72261074E+00 -1.54452215E+01  7.72261074E+00  7.72261074E+00
 -1.54452215E+01  7.72261074E+00  7.72261074E+00 -1.54452215E+01  7.72261074E+00
  7.72261074E+00 -1.54452215E+01  7.72261074E+00  7.72261074E+00 -1.54452215E+01
  7.72261074E+00  7.72261074E+00 -1.54452215E+01  7.72261074E+00  7.72261074E+00
 -1.54452215E+01  7.72261074E+00  7.72261074E+00 -1.54452215E+01  7.72261074E+00
  7.72261074E+00 -1.54452215E+01  7.72261074E+00  7.72261074E+00 -1.54452215E+01
  7.72261074E+00  7.72261074E+00 -1.54452215E+01  7.72261074E+00  7.72261074E+00
 -1.54452215E+01  7.72261074E+00  7.72261074E+00 -1.54452215E+01  7.72261074E+00
  7.72261074E+00 -1.54452215E+01  7.72261074E+00  7.72261074E+00 -1.54452215E+01
  7.72261074E+00  7.72261074E+00 -1.54452215E+01  7.72261074E+00  7.72261074E+00
 -1.54452215E+01  7.72261074E+00  7.72261074E+00 -1.54452215E+01  7.72261074E+00
  7.72261074E+00 -1.54452215E+01  7.72261074E+00  7.72261074E+00 -1.54452215E+01
  7.72261074E+00  7.72261074E+00 -1.54452215E+01  7.72261074E+00  7.72261074E+00
 -1.54452215E+01  7.72261074E+00  7.72261074E+00 -1.54452215E+01  7.72261074E+00
  7.72261074E+00 -1.54452215E+01  7.72261074E+00  7.72261074E+00 -1.54452215E+01
  7.72261074E+00  7.72261074E+00 -1.54452215E+01  7.72261074E+00  7.72261074E+00
 -1.54452215E+01  7.72261074E+00  7.72261074E+00 -1.54452215E+01  7.72261074E+00
  7.72261074E+00 -1.54452215E+01  7.72261074E+00  7.72261074E+00 -1.54452215E+01
  7.72261074E+00  7.72261074E+00 -1.54452215E+01  7.72261074E+00  7.72261074E+00
 -1.54452215E+01  7.72261074E+00  7.72261074E+00 -1.54452215E+01  7.72261074E+00
  7.72261074E+00 -1.54452215E+01  7.72261074E+00  7.72261074E+00 -1.54452215E+01
  7.72261074E+00  7.72261074E+00 -1.54452215E+01  7.72261074E+00  7.72261074E+00
 -1.54452215E+01  7.72261074E+00  7.72261074E+00 -1.54452215E+01  7.72261074E+00
  7.72261074E+00 -1.54452215E+01  7.72261074E+00  7.72261074E+00 -1.54452215E+01
  7.72261074E+00  7.72261074E+00 -1.54452215E+01  7.72261074E+00  7.72261074E+00
 -1.54452215E+01  7.72261074E+00  7.72261074E+00 -1.54452215E+01  7.72261074E+00
  7.72261074E+00 -1.54452215E+01  7.72261074E+00  7.72261074E+00 -1.54452215E+01
  7.72261074E+00  7.72261074E+00 -1.54452215E+01  7.72261074E+00  7.72261074E+00
 -1.54452215E+01  7.72261074E+00  7.72261074E+00 -1.54452215E+01  7.72261074E+00
  7.72261074E+00 -1.54452215E+01  7.72261074E+00  7.72261074E+00 -1.54452215E+01
  7.72261074E+00  7.72261074E+00 -1.54452215E+01  7.72261074E+00  7.72261074E+00
 -1.54452215E+01  7.72261074E+00  7.72261074E+00 -1.54452215E+01  7.72261074E+00
  7.72261074E+00 -1.54452215E+01  7.72261074E+00  7.72261074E+00 -1.54452215E+01
  7.72261074E+00  7.72261074E+00 -1.54452215E+01  7.72261074E+00  7.72261074E+00
 -1.54452215E+01  7.72261074E+00  7.72261074E+00 -1.54452215E+01  7.72261074E+00
  7.72261074E+00 -1.54452215E+01  7.72261074E+00  7.72261074E+00 -1.54452215E+01
  7.72261074E+00  7.72261074E+00 -1.54452215E+01  7.72261074E+00  7.72261074E+00
 -1.54452215E+01  7.72261074E+00  7.72261074E+00 -1.54452215E+01  7.72261074E+00
  7.72261074E+00 -1.54452215E+01  7.72261074E+00  7.72261074E+00 -1.54452215E+01
  7.72261074E+00  7.72261074E+00 -1.54452215E+01  7.72261074E+00  7.72261074E+00
 -1.54452215E+01  7.72261074E+00  7.72261074E+00 -1.54452215E+01  7.72261074E+00
  7.72261074E+00 -1.54452215E+01  7.72261074E+00  7.72261074E+00 -1.54452215E+01
  7.72261074E+00  7.72261074E+00 -1.54452215E+01  7.72261074E+00  7.72261074E+00
 -1.54452215E+01  7.72261074E+00  7.72261074E+00 -1.54452215E+01  7.72261074E+00
  7.72261074E+00 -1.54452215E+01  7.72261074E+00  7.72261074E+00 -1.54452215E+01
  7.72261074E+00  7.72261074E+00 -1.54452215E+01  7.72261074E+00  7.72261074E+00
 -1.54452215E+01  7.72261074E+00  7.72261074E+00 -1.54452215E+01  7.72261074E+00
  7.72261074E+00 -1.54452215E+01  7.72261074E+00  7.72261074E+00 -1.54452215E+01
  7.72261074E+00  7.72261074E+00 -1.54452215E+01  7.72261074E+00  7.72261074E+00
 -1.54452215E+01  7.72261074E+00  7.72261074E+00 -1.54452215E+01  7.72261074E+00
  7.72261074E+00 -1.54452215E+01  7.72261074E+00  7.72261074E+00 -1.54452215E+01
  7.72261074E+00  7.72261074E+00 -1.54452215E+01  7.72261074E+00  7.72261074E+00
 -1.54452215E+01  7.72261074E+00  7.72261074E+00 -1.54452215E+01  7.72261074E+00
  7.72261074E+00 -1.54452215E+01  7.72261074E+00  7.72261074E+00 -1.54452215E+01
  7.72261074E+00  7.72261074E+00 -1.54452215E+01  7.72261074E+00  7.72261074E+00
 -1.54452215E+01  7.72261074E+00  7.72261074E+00 -1.54452215E+01  7.72261074E+00
  7.72261074E+00 -1.54452215E+01  7.72261074E+00  7.72261074E+00 -1.54452215E+01
  7.72261074E+00  7.72261074E+00 -1.54452215E+01  7.72261074E+00  7.72261074E+00
 -1.54452215E+01  7.72261074E+00  7.72261074E+00 -1.54452215E+01  7.72261074E+00
  7.72261074E+00 -1.54452215E+01  7.72261074E+00  7.72261074E+00 -1.54452215E+01
  7.72261074E+00  7.72261074E+00 -1.54452215E+01  7.72261074E+00  7.72261074E+00
 -1.54452215E+01  7.72261074E+00  7.72261074E+00 -1.54452215E+01  7.72261074E+00
  7.72261074E+00 -1.54452215E+01  7.72261074E+00  7.72261074E+00 -1.54452215E+01
  7.72261074E+00  7.72261074E+00 -1.54452215E+01  7.72261074E+00  7.72261074E+00
 -1.54452215E+01  7.72261074E+00  7.72261074E+00 -1.54452215E+01  7.72261074E+00
  7.72261074E+00 -1.54452215E+01  7.72261074E+00  7.72261074E+00 -1.54452215E+01
  7.72261074E+00  7.72261074E+00 -1.54452215E+01  7.72261074E+00  7.72261074E+00
 -1.54452215E+01  7.72261074E+00  7.72261074E+00 -1.54452215E+01  7.72261074E+00
  7.72261074E+00 -1.54452215E+01  7.72261074E+00  7.72261074E+00 -1.54452215E+01
  7.72261074E+00  7.72261074E+00 -1.54452215E+01  7.72261074E+00  7.72261074E+00
 -1.54452215E+01  7.72261074E+00  7.72261074E+00 -1.54452215E+01  7.72261074E+00
  7.72261074E+00 -1.54452215E+01  7.72261074E+00  7.72261074E+00 -1.54452215E+01
  7.72261074E+00  7.72261074E+00 -1.54452215E+01  7.72261074E+00  7.72261074E+00
 -1.54452215E+01  7.72261074E+00  7.72261074E+00 -1.54452215E+01  7.72261074E+00
  7.72261074E+00 -1.54452215E+01  7.72261074E+00  7.72261074E+00 -1.54452215E+01
  7.72261074E+00  7.72261074E+00 -1.54452215E+01  7.72261074E+00  7.72261074E+00
 -1.54452215E+01  7.72261074E+00  7.72261074E+00 -1.54452215E+01  7.72261074E+00
  7.72261074E+00 -1.54452215E+01  7.72261074E+00  7.72261074E+00 -1.54452215E+01
  7.72261074E+00  7.72261074E+00 -1.54452215E+01  7.72261074E+00  7.72261074E+00
 -1.54452215E+01  7.72261074E+00  7.72261074E+00 -1.54452215E+01  7.72261074E+00
  7.72261074E+00 -1.54452215E+01  7.72261074E+00  7.72261074E+00 -1.54452215E+01
  7.72261074E+00  7.72261074E+00 -1.54452215E+01  7.72261074E+00  7.72261074E+00
 -1.54452215E+01  7.72261074E+00  7.72261074E+00 -1.54452215E+01  7.72261074E+00
  7.72261074E+00 -1.54452215E+01  7.72261074E+00  7.72261074E+00 -1.54452215E+01
  7.72261074E+00  7.72261074E+00 -1.54452215E+01  7.72261074E+00  7.72261074E+00
 -1.54452215E+01  7.72261074E+00  7.72261074E+00 -1.54452215E+01  7.72261074E+00
  7.72261074E+00 -1.54452215E+01  7.72261074E+00  7.72261074E+00 -1.54452215E+01
  7.72261074E+00  7.72261074E+00 -1.54452215E+01  7.72261074E+00  7.72261074E+00
 -1.54452215E+01  7.72261074E+00  7.72261074E+00 -1.54452215E+01  7.72261074E+00
  7.72261074E+00 -1.54452215E+01  7.72261074E+00  7.72261074E+00 -1.54452215E+01
  7.72261074E+00  7.72261074E+00 -1.54452215E+01  7.72261074E+00  7.72261074E+00
 -1.54452215E+01  7.72261074E+00  7.72261074E+00 -1.54452215E+01  7.72261074E+00
  7.72261074E+00 -1.54452215E+01  7.72261074E+00  7.72261074E+00 -1.54452215E+01
  7.72261074E+00  7.72261074E+00 -1.54452215E+01  7.72261074E+00  7.72261074E+00
 -1.54452215E+01  7.72261074E+00  7.72261074E+00 -1.54452215E+01  7.72261074E+00
  7.72261074E+00 -1.54452215E+01  7.72261074E+00  7.72261074E+00 -1.54452215E+01
  7.72261074E+00  7.72261074E+00 -1.54452215E+01  7.72261074E+00  7.72261074E+00
 -1.54452215E+01  7.72261074E+00  7.72261074E+00 -1.54452215E+01  7.72261074E+00
  7.72261074E+00 -1.54452215E+01  7.72261074E+00  7.72261074E+00 -1.54452215E+01
  7.72261074E+00  7.72261074E+00 -1.54452215E+01  7.72261074E+00  7.72261074E+00
 -1.54452215E+01  7.72261074E+00  7.72261074E+00 -1.54452215E+01  7.72261074E+00
  7.72261074E+00 -1.54452215E+01  7.72261074E+00  7.72261074E+00 -1.54452215E+01
  7.72261074E+00  7.72261074E+00 -1.54452215E+01  7.72261074E+00  7.72261074E+00
 -1.54452215E+01  7.72261074E+00  7.72261074E+00 -1.54452215E+01  7.72261074E+00
  7.72261074E+00 -1.54452215E+01  7.72261074E+00  7.72261074E+00 -1.54452215E+01
  7.72261074E+00  7.72261074E+00 -1.54452215E+01  7.72261074E+00  7.72261074E+00
 -1.54452215E+01  7.72261074E+00  7.72261074E+00 -1.54452215E+01  7.72261074E+00
  7.72261074E+00 -1.54452215E+01  7.72261074E+00  7.72261074E+00 -1.54452215E+01
  7.72261074E+00  7.72261074E+00 -1.54452215E+01  7.72261074E+00  7.72261074E+00
 -1.54452215E+01  7.72261074E+00  7.72261074E+00 -1.54452215E+01  7.72261074E+00
  7.72261074E+00 -1.54452215E+01  7.72261074E+00  7.72261074E+00 -1.54452215E+01
  7.72261074E+00  7.72261074E+00 -1.54452215E+01  7.72261074E+00  7.72261074E+00
 -1.54452215E+01  7.72261074E+00  7.72261074E+00 -1.54452215E+01  7.72261074E+00
  7.72261074E+00 -1.54452215E+01  7.72261074E+00  7.72261074E+00 -1.54452215E+01
  7.72261074E+00  7.72261074E+00 -1.54452215E+01  7.72261074E+00  7.72261074E+00
 -1.54452215E+01  7.72261074E+00  7.72261074E+00 -1.54452215E+01  7.72261074E+00
  7.72261074E+00 -1.54452215E+01  7.72261074E+00  7.72261074E+00 -1.54452215E+01
  7.72261074E+00  7.72261074E+00 -1.54452215E+01  7.72261074E+00  7.72261074E+00
 -1.54452215E+01  7.72261074E+00  7.72261074E+00 -1.54452215E+01  7.72261074E+00
  7.72261074E+00 -1.54452215E+01  7.72261074E+00  7.72261074E+00 -1.54452215E+01
  7.72261074E+00  7.72261074E+00 -1.54452215E+01  7.72261074E+00  7.72261074E+00
 -1.54452215E+01  7.72261074E+00  7.72261074E+00 -1.54452215E+01  7.72261074E+00
  7.72261074E+00 -1.54452215E+01  7.72261074E+00  7.72261074E+00 -1.54452215E+01
  7.72261074E+00  7.72261074E+00 -1.54452215E+01  7.72261074E+00  7.72261074E+00
 -1.54452215E+01  7.72261074E+00  7.72261074E+00 -1.54452215E+01  7.72261074E+00
  7.72261074E+00 -1.54452215E+01  7.72261074E+00  7.72261074E+00 -1.54452215E+01
  7.72261074E+00  7.72261074E+00 -1.54452215E+01  7.72261074E+00  7.72261074E+00
 -1.54452215E+01  7.72261074E+00  7.72261074E+00 -1.54452215E+01  7.72261074E+00
  7.72261074E+00 -1.54452215E+01  7.72261074E+00  7.72261074E+00 -1.54452215E+01
  7.72261074E+00  7.72261074E+00 -1.54452215E+01  7.72261074E+00  7.72261074E+00
 -1.54452215E+01  7.72261074E+00  7.72261074E+00 -1.54452215E+01  7.72261074E+00
  7.72261074E+00 -1.54452215E+01  7.72261074E+00  7.72261074E+00 -1.54452215E+01
  7.72261074E+00  7.72261074E+00 -1.54452215E+01  7.72261074E+00  7.72261074E+00
 -1.54452215E+01  7.72261074E+00  7.72261074E+00 -1.54452215E+01  7.72261074E+00
  7.72261074E+00 -1.54452215E+01  7.72261074E+00  7.72261074E+00 -1.54452215E+01
  7.72261074E+00  7.72261074E+00 -1.54452215E+01  7.72261074E+00  7.72261074E+00
 -1.54452215E+01  7.72261074E+00  7.72261074E+00 -1.54452215E+01  7.72261074E+00
  7.72261074E+00 -1.54452215E+01  7.72261074E+00  7.72261074E+00 -1.54452215E+01
  7.72261074E+00  7.72261074E+00 -1.54452215E+01  7.72261074E+00  7.72261074E+00
 -1.54452215E+01  7.72261074E+00  7.72261074E+00 -1.54452215E+01  7.72261074E+00
  7.72261074E+00 -1.54452215E+01  7.72261074E+00  7.72261074E+00 -1.54452215E+01
  7.72261074E+00  7.72261074E+00 -1.54452215E+01  7.72261074E+00  7.72261074E+00
 -1.54452215E+01  7.72261074E+00  7.72261074E+00 -1.54452215E+01  7.72261074E+00
  7.72261074E+00 -1.54452215E+01  7.72261074E+00  7.72261074E+00 -1.54452215E+01
  7.72261074E+00  7.72261074E+00 -1.54452215E+01  7.72261074E+00  7.72261074E+00
 -1.54452215E+01  7.72261074E+00  7.72261074E+00 -1.54452215E+01  7.72261074E+00
  7.72261074E+00 -1.54452215E+01  7.72261074E+00  7.72261074E+00 -1.54452215E+01
  7.72261074E+00  7.72261074E+00 -1.54452215E+01  7.72261074E+00  7.72261074E+00
 -1.54452215E+01  7.72261074E+00  7.72261074E+00 -1.54452215E+01  7.72261074E+00
  7.72261074E+00 -1.54452215E+01  7.72261074E+00  7.72261074E+00 -1.54452215E+01
  7.72261074E+00  7.72261074E+00 -1.54452215E+01  7.72261074E+00  7.72261074E+00
 -1.54452215E+01  7.72261074E+00  7.72261074E+00 -1.54452215E+01  7.72261074E+00
  7.72261074E+00 -1.54452215E+01  7.72261074E+00  7.72261074E+00 -1.54452215E+01
  7.72261074E+00  7.72261074E+00 -1.54452215E+01  7.72261074E+00  7.72261074E+00
 -1.54452215E+01  7.72261074E+00  7.72261074E+00 -1.54452215E+01  7.72261074E+00
  7.72261074E+00 -1.54452215E+01  7.72261074E+00  7.72261074E+00 -1.54452215E+01
  7.72261074E+00  7.72261074E+00 -1.54452215E+01  7.72261074E+00  7.72261074E+00
 -1.54452215E+01  7.72261074E+00  7.72261074E+00 -1.54452215E+01  7.72261074E+00
  7.72261074E+00 -1.54452215E+01  7.72261074E+00  7.72261074E+00 -1.54452215E+01
  7.72261074E+00  7.72261074E+00 -1.54452215E+01  7.72261074E+00  7.72261074E+00
 -1.54452215E+01  7.72261074E+00  7.72261074E+00 -1.54452215E+01  7.72261074E+00
  7.72261074E+00 -1.54452215E+01  7.72261074E+00  7.72261074E+00 -1.54452215E+01
  7.72261074E+00  7.72261074E+00 -1.54452215E+01  7.72261074E+00  7.72261074E+00
 -1.54452215E+01  7.72261074E+00  7.72261074E+00 -1.54452215E+01  7.72261074E+00
  7.72261074E+00 -1.54452215E+01  7.72261074E+00  7.72261074E+00 -1.54452215E+01
  7.72261074E+00  7.72261074E+00 -1.54452215E+01  7.72261074E+00  7.72261074E+00
 -1.54452215E+01  7.72261074E+00  7.72261074E+00 -1.54452215E+01  7.72261074E+00
  7.72261074E+00 -1.54452215E+01  7.72261074E+00  7.72261074E+00 -1.54452215E+01
  7.72261074E+00  7.72261074E+00 -1.54452215E+01  7.72261074E+00  7.72261074E+00
 -1.54452215E+01  7.72261074E+00  7.72261074E+00 -1.54452215E+01  7.72261074E+00
  7.72261074E+00 -1.54452215E+01  7.72261074E+00  7.72261074E+00 -1.54452215E+01
  7.72261074E+00  7.72261074E+00 -1.54452215E+01  7.72261074E+00  7.72261074E+00
 -1.54452215E+01  7.72261074E+00  7.72261074E+00 -1.54452215E+01  7.72261074E+00
  7.72261074E+00 -1.54452215E+01  7.72261074E+00  7.72261074E+00 -1.54452215E+01
  7.72261074E+00  7.72261074E+00 -1.54452215E+01  7.72261074E+00  7.72261074E+00
 -1.54452215E+01  7.72261074E+00  7.72261074E+00 -1.54452215E+01  7.72261074E+00
  7.72261074E+00 -1.54452215E+01  7.72261074E+00  7.72261074E+00 -1.54452215E+01
  7.72261074E+00  7.72261074E+00 -1.54452215E+01  7.72261074E+00  7.72261074E+00
 -1.54452215E+01  7.72261074E+00  7.72261074E+00 -1.54452215E+01  7.72261074E+00
  7.72261074E+00 -1.54452215E+01  7.72261074E+00  7.72261074E+00 -1.54452215E+01
  7.72261074E+00  7.72261074E+00 -1.54452215E+01  7.72261074E+00  7.72261074E+00
 -1.54452215E+01  7.72261074E+00  7.72261074E+00 -1.54452215E+01  7.72261074E+00
  7.72261074E+00 -1.54452215E+01  7.72261074E+00  7.72261074E+00 -1.54452215E+01
  7.72261074E+00  7.72261074E+00 -1.54452215E+01  7.72261074E+00  7.72261074E+00
 -1.54452215E+01  7.72261074E+00  7.72261074E+00 -1.54452215E+01  7.72261074E+00
  7.72261074E+00 -1.54452215E+01  7.72261074E+00  7.72261074E+00 -1.54452215E+01
  7.72261074E+00  7.72261074E+00 -1.54452215E+01  7.72261074E+00  7.72261074E+00
 -1.54452215E+01  7.72261074E+00  7.72261074E+00 -1.54452215E+01  7.72261074E+00
  7.72261074E+00 -1.54452215E+01  7.72261074E+00  7.72261074E+00 -1.54452215E+01
  7.72261074E+00  7.72261074E+00 -1.54452215E+01  7.72261074E+00  7.72261074E+00
 -1.54452215E+01  7.72261074E+00  7.72261074E+00 -1.54452215E+01  7.72261074E+00
  7.72261074E+00 -1.54452215E+01  7.72261074E+00  7.72261074E+00 -1.54452215E+01
  7.72261074E+00  7.72261074E+00 -1.54452215E+01  7.72261074E+00  7.72261074E+00
 -1.54452215E+01  7.72261074E+00  7.72261074E+00 -1.54452215E+01  7.72261074E+00
  7.72261074E+00 -1.54452215E+01  7.72261074E+00  7.72261074E+00 -1.54452215E+01
  7.72261074E+00  7.72261074E+00 -1.54452215E+01  7.72261074E+00  7.72261074E+00
 -1.54452215E+01  7.72261074E+00  7.72261074E+00 -1.54452215E+01  7.72261074E+00
  7.72261074E+00 -1.54452215E+01  7.72261074E+00  7.72261074E+00 -1.54452215E+01
  7.72261074E+00  7.72261074E+00 -1.54452215E+01  7.72261074E+00  7.72261074E+00
 -1.54452215E+01  7.72261074E+00  7.72261074E+00 -1.54452215E+01  7.72261074E+00
  7.72261074E+00 -1.54452215E+01  7.72261074E+00  7.72261074E+00 -1.54452215E+01
  7.72261074E+00  7.72261074E+00 -1.54452215E+01  7.72261074E+00  7.72261074E+00
 -1.54452215E+01  7.72261074E+00  7.72261074E+00 -1.54452215E+01  7.72261074E+00
  7.72261074E+00 -1.54452215E+01  7.72261074E+00  7.72261074E+00 -1.54452215E+01
  7.72261074E+00  7.72261074E+00 -1.54452215E+01  7.72261074E+00  7.72261074E+00
 -1.54452215E+01  7.72261074E+00  7.72261074E+00 -1.54452215E+01  7.72261074E+00
  7.72261074E+00 -1.54452215E+01  7.72261074E+00  7.72261074E+00 -1.54452215E+01
  7.72261074E+00  7.72261074E+00 -1.54452215E+01  7.72261074E+00  7.72261074E+00
 -1.54452215E+01  7.72261074E+00  7.72261074E+00 -1.54452215E+01  7.72261074E+00
  7.72261074E+00 -1.54452215E+01  7.72261074E+00  7.72261074E+00 -1.54452215E+01
  7.72261074E+00  7.72261074E+00 -1.54452215E+01  7.72261074E+00  7.72261074E+00
 -1.54452215E+01  7.72261074E+00  7.72261074E+00 -1.54452215E+01  7.72261074E+00
  7.72261074E+00 -1.54452215E+01  7.72261074E+00  7.72261074E+00 -1.54452215E+01
  7.72261074E+00  7.72261074E+00 -1.54452215E+01  7.72261074E+00  7.72261074E+00
 -1.54452215E+01  7.72261074E+00  7.72261074E+00 -1.54452215E+01  7.72261074E+00
  7.72261074E+00 -1.54452215E+01  7.72261074E+00  7.72261074E+00 -1.54452215E+01
  7.72261074E+00  7.72261074E+00 -1.54452215E+01  7.72261074E+00  7.72261074E+00
 -1.54452215E+01  7.72261074E+00  7.72261074E+00 -1.54452215E+01  7.72261074E+00
  7.72261074E+00 -1.54452215E+01  7.72261074E+00  7.72261074E+00 -1.54452215E+01
  7.72261074E+00  7.72261074E+00 -1.54452215E+01  7.72261074E+00  7.72261074E+00
 -1.54452215E+01  7.72261074E+00  7.72261074E+00 -1.54452215E+01  7.72261074E+00
  7.72261074E+00 -1.54452215E+01  7.72261074E+00  7.72261074E+00 -1.54452215E+01
  7.72261074E+00  7.72261074E+00 -1.54452215E+01  7.72261074E+00  7.72261074E+00
 -1.54452215E+01  7.72261074E+00  7.72261074E+00 -1.54452215E+01  7.72261074E+00
  7.72261074E+00 -1.54452215E+01  7.72261074E+00  7.72261074E+00 -1.54452215E+01
  7.72261074E+00  7.72261074E+00 -1.54452215E+01  7.72261074E+00  7.72261074E+00
 -1.54452215E+01  7.72261074E+00  7.72261074E+00 -1.54452215E+01  7.72261074E+00
  7.72261074E+00 -1.54452215E+01  7.72261074E+00  7.72261074E+00 -1.54452215E+01
  7.72261074E+00  7.72261074E+00 -1.54452215E+01  7.72261074E+00  7.72261074E+00
 -1.54452215E+01  7.72261074E+00  7.72261074E+00 -1.54452215E+01  7.72261074E+00
  7.72261074E+00 -1.54452215E+01  7.72261074E+00  7.72261074E+00 -1.54452215E+01
  7.72261074E+00  7.72261074E+00 -1.54452215E+01  7.72261074E+00  7.72261074E+00
 -1.54452215E+01  7.72261074E+00  7.72261074E+00 -1.54452215E+01  7.72261074E+00
  7.72261074E+00 -1.54452215E+01  7.72261074E+00  7.72261074E+00 -1.54452215E+01
  7.72261074E+00  7.72261074E+00 -1.54452215E+01  7.72261074E+00  7.72261074E+00
 -1.54452215E+01  7.72261074E+00  7.72261074E+00 -1.54452215E+01  7.72261074E+00
  7.72261074E+00 -1.54452215E+01  7.72261074E+00  7.72261074E+00 -1.54452215E+01
  7.72261074E+00  7.72261074E+00 -1.54452215E+01  7.72261074E+00  7.72261074E+00
 -1.54452215E+01  7.72261074E+00  7.72261074E+00 -1.54452215E+01  7.72261074E+00
  7.72261074E+00 -1.54452215E+01  7.72261074E+00  7.72261074E+00 -1.54452215E+01
  7.72261074E+00  7.72261074E+00 -1.54452215E+01  7.72261074E+00  7.72261074E+00
 -1.54452215E+01  7.72261074E+00  7.72261074E+00 -1.54452215E+01  7.72261074E+00
  7.72261074E+00 -1.54452215E+01  7.72261074E+00  7.72261074E+00 -1.54452215E+01
  7.72261074E+00  7.72261074E+00 -1.54452215E+01  7.72261074E+00  7.72261074E+00
 -1.54452215E+01  7.72261074E+00  7.72261074E+00 -1.54452215E+01  7.72261074E+00
  7.72261074E+00 -1.54452215E+01  7.72261074E+00  7.72261074E+00 -1.54452215E+01
  7.72261074E+00  7.72261074E+00 -1.54452215E+01  7.72261074E+00  7.72261074E+00
 -1.54452215E+01  7.72261074E+00  7.72261074E+00 -1.54452215E+01  7.72261074E+00
  7.72261074E+00 -1.54452215E+01  7.72261074E+00  7.72261074E+00 -1.54452215E+01
  7.72261074E+00  7.72261074E+00 -1.54452215E+01  7.72261074E+00  7.72261074E+00
 -1.54452215E+01  7.72261074E+00  7.72261074E+00 -1.54452215E+01  7.72261074E+00
  7.72261074E+00 -1.54452215E+01  7.72261074E+00  7.72261074E+00 -1.54452215E+01
  7.72261074E+00  7.72261074E+00 -1.54452215E+01  7.72261074E+00  7.72261074E+00
 -1.54452215E+01  7.72261074E+00  7.72261074E+00 -1.54452215E+01  7.72261074E+00
  7.72261074E+00 -1.54452215E+01  7.72261074E+00  7.72261074E+00 -1.54452215E+01
  7.72261074E+00  7.72261074E+00 -1.54452215E+01  7.72261074E+00  7.72261074E+00
 -1.54452215E+01  7.72261074E+00  7.72261074E+00 -1.54452215E+01  7.72261074E+00
  7.72261074E+00 -1.54452215E+01  7.72261074E+00  7.72261074E+00 -1.54452215E+01
  7.72261074E+00  7.72261074E+00 -1.54452215E+01  7.72261074E+00  7.72261074E+00
 -1.54452215E+01  7.72261074E+00  7.72261074E+00 -1.54452215E+01  7.72261074E+00
  7.72261074E+00 -1.54452215E+01  7.72261074E+00  7.72261074E+00 -1.54452215E+01
  7.72261074E+00  7.72261074E+00 -1.54452215E+01  7.72261074E+00  7.72261074E+00
 -1.54452215E+01  7.72261074E+00  7.72261074E+00 -1.54452215E+01  7.72261074E+00
  7.72261074E+00 -1.54452215E+01  7.72261074E+00  7.72261074E+00 -1.54452215E+01
  7.72261074E+00  7.72261074E+00 -1.54452215E+01  7.72261074E+00  7.72261074E+00
 -1.54452215E+01  7.72261074E+00  7.72261074E+00 -1.54452215E+01  7.72261074E+00
  7.72261074E+00 -1.54452215E+01  7.72261074E+00  7.72261074E+00 -1.54452215E+01
  7.72261074E+00  7.72261074E+00 -1.54452215E+01  7.72261074E+00  7.72261074E+00
 -1.54452215E+01  7.72261074E+00  7.72261074E+00 -1.54452215E+01  7.72261074E+00
  7.72261074E+00 -1.54452215E+01  7.72261074E+00  7.72261074E+00 -1.54452215E+01
  7.72261074E+00  7.72261074E+00 -1.54452215E+01  7.72261074E+00  7.72261074E+00
 -1.54452215E+01  7.72261074E+00  7.72261074E+00 -1.54452215E+01  7.72261074E+00
  7.72261074E+00 -1.54452215E+01  7.72261074E+00  7.72261074E+00 -1.54452215E+01
  7.72261074E+00  7.72261074E+00 -1.54452215E+01  7.72261074E+00  7.72261074E+00
 -1.54452215E+01  7.72261074E+00  7.72261074E+00 -1.54452215E+01  7.72261074E+00
  7.72261074E+00 -1.54452215E+01  7.72261074E+00  7.72261074E+00 -1.54452215E+01
  7.72261074E+00  7.72261074E+00 -1.54452215E+01  7.72261074E+00  7.72261074E+00
 -1.54452215E+01  7.72261074E+00  7.72261074E+00 -1.54452215E+01  7.72261074E+00
  7.72261074E+00 -1.54452215E+01  7.72261074E+00  7.72261074E+00 -1.54452215E+01
  7.72261074E+00  7.72261074E+00 -1.54452215E+01  7.72261074E+00  7.72261074E+00
 -1.54452215E+01  7.72261074E+00  7.72261074E+00 -1.54452215E+01  7.72261074E+00
  7.72261074E+00 -1.54452215E+01  7.72261074E+00  7.72261074E+00 -1.54452215E+01
  7.72261074E+00  7.72261074E+00 -1.54452215E+01  7.72261074E+00  7.72261074E+00
 -1.54452215E+01  7.72261074E+00  7.72261074E+00 -1.54452215E+01  7.72261074E+00
  7.72261074E+00 -1.54452215E+01  7.72261074E+00  7.72261074E+00 -1.54452215E+01
  7.72261074E+00  7.72261074E+00 -1.54452215E+01  7.72261074E+00  7.72261074E+00
 -1.54452215E+01  7.72261074E+00  7.72261074E+00 -1.54452215E+01  7.72261074E+00
  7.72261074E+00 -1.54452215E+01  7.72261074E+00  7.72261074E+00 -1.54452215E+01
  7.72261074E+00  7.72261074E+00 -1.54452215E+01  7.72261074E+00  7.72261074E+00
 -1.54452215E+01  7.72261074E+00  7.72261074E+00 -1.54452215E+01  7.72261074E+00
  7.72261074E+00 -1.54452215E+01  7.72261074E+00  7.72261074E+00 -1.54452215E+01
  7.72261074E+00  7.72261074E+00 -1.54452215E+01  7.72261074E+00  7.72261074E+00
 -1.54452215E+01  7.72261074E+00  7.72261074E+00 -1.54452215E+01  7.72261074E+00
  7.72261074E+00 -1.54452215E+01  7.72261074E+00  7.72261074E+00 -1.54452215E+01
  7.72261074E+00  7.72261074E+00 -1.54452215E+01  7.72261074E+00  7.72261074E+00
 -1.54452215E+01  7.72261074E+00  7.72261074E+00 -1.54452215E+01  7.72261074E+00
  7.72261074E+00 -1.54452215E+01  7.72261074E+00  7.72261074E+00 -1.54452215E+01
  7.72261074E+00  7.72261074E+00 -1.54452215E+01  7.72261074E+00  7.72261074E+00
 -1.54452215E+01  7.72261074E+00  7.72261074E+00 -1.54452215E+01  7.72261074E+00
  7.72261074E+00 -1.54452215E+01  7.72261074E+00  7.72261074E+00 -1.54452215E+01
  7.72261074E+00  7.72261074E+00 -1.54452215E+01  7.72261074E+00  7.72261074E+00
 -1.54452215E+01  7.72261074E+00  7.72261074E+00 -1.54452215E+01  7.72261074E+00
  7.72261074E+00 -1.54452215E+01  7.72261074E+00  7.72261074E+00 -1.54452215E+01
  7.72261074E+00  7.72261074E+00 -1.54452215E+01  7.72261074E+00  7.72261074E+00
 -1.54452215E+01  7.72261074E+00  7.72261074E+00 -1.54452215E+01  7.72261074E+00
  7.72261074E+00 -1.54452215E+01  7.72261074E+00  7.72261074E+00 -1.54452215E+01
  7.72261074E+00  7.72261074E+00 -1.54452215E+01  7.72261074E+00  7.72261074E+00
 -1.54452215E+01  7.72261074E+00  7.72261074E+00 -1.54452215E+01  7.72261074E+00
  7.72261074E+00 -1.54452215E+01  7.72261074E+00  7.72261074E+00 -1.54452215E+01
  7.72261074E+00  7.72261074E+00 -1.54452215E+01  7.72261074E+00  7.72261074E+00
 -1.54452215E+01  7.72261074E+00  7.72261074E+00 -1.54452215E+01  7.72261074E+00
  7.72261074E+00 -1.54452215E+01  7.72261074E+00  7.72261074E+00 -1.54452215E+01
  7.72261074E+00  7.72261074E+00 -1.54452215E+01  7.72261074E+00  7.72261074E+00
 -1.54452215E+01  7.72261074E+00  7.72261074E+00 -1.54452215E+01  7.72261074E+00
  7.72261074E+00 -1.54452215E+01  7.72261074E+00  7.72261074E+00 -1.54452215E+01
  7.72261074E+00  7.72261074E+00 -1.54452215E+01  7.72261074E+00  7.72261074E+00
 -1.54452215E+01  7.72261074E+00  7.72261074E+00 -1.54452215E+01  7.72261074E+00
  7.72261074E+00 -1.54452215E+01  7.72261074E+00  7.72261074E+00 -1.54452215E+01
  7.72261074E+00  7.72261074E+00 -1.54452215E+01  7.72261074E+00  7.72261074E+00
 -1.54452215E+01  7.72261074E+00  7.72261074E+00 -1.54452215E+01  7.72261074E+00
  7.72261074E+00 -1.54452215E+01  7.72261074E+00  7.72261074E+00 -1.54452215E+01
  7.72261074E+00  7.72261074E+00 -1.54452215E+01  7.72261074E+00  7.72261074E+00
 -1.54452215E+01  7.72261074E+00  7.72261074E+00 -1.54452215E+01  7.72261074E+00
  7.72261074E+00 -1.54452215E+01  7.72261074E+00  7.72261074E+00 -1.54452215E+01
  7.72261074E+00  7.72261074E+00 -1.54452215E+01  7.72261074E+00  7.72261074E+00
 -1.54452215E+01  7.72261074E+00  7.72261074E+00 -1.54452215E+01  7.72261074E+00
  7.72261074E+00 -1.54452215E+01  7.72261074E+00  7.72261074E+00 -1.54452215E+01
  7.72261074E+00  7.72261074E+00 -1.54452215E+01  7.72261074E+00  7.72261074E+00
 -1.54452215E+01  7.72261074E+00  7.72261074E+00 -1.54452215E+01  7.72261074E+00
  7.72261074E+00 -1.54452215E+01  7.72261074E+00  7.72261074E+00 -1.54452215E+01
  7.72261074E+00  7.72261074E+00 -1.54452215E+01  7.72261074E+00  7.72261074E+00
 -1.54452215E+01  7.72261074E+00  7.72261074E+00 -1.54452215E+01  7.72261074E+00
  7.72261074E+00 -1.54452215E+01  7.72261074E+00  7.72261074E+00 -1.54452215E+01
  7.72261074E+00  7.72261074E+00 -1.54452215E+01  7.72261074E+00  7.72261074E+00
 -1.54452215E+01  7.72261074E+00  7.72261074E+00 -1.54452215E+01  7.72261074E+00
  7.72261074E+00 -1.54452215E+01  7.72261074E+00  7.72261074E+00 -1.54452215E+01
  7.72261074E+00  7.72261074E+00 -1.54452215E+01  7.72261074E+00  7.72261074E+00
 -1.54452215E+01  7.72261074E+00  7.72261074E+00 -1.54452215E+01  7.72261074E+00
  7.72261074E+00 -1.54452215E+01  7.72261074E+00  7.72261074E+00 -1.54452215E+01
  7.72261074E+00  7.72261074E+00 -1.54452215E+01  7.72261074E+00  7.72261074E+00
 -1.54452215E+01  7.72261074E+00  7.72261074E+00 -1.54452215E+01  7.72261074E+00
  7.72261074E+00 -1.54452215E+01  7.72261074E+00  7.72261074E+00 -1.54452215E+01
  7.72261074E+00  7.72261074E+00 -1.54452215E+01  7.72261074E+00  7.72261074E+00
 -1.54452215E+01  7.72261074E+00  7.72261074E+00 -1.54452215E+01  7.72261074E+00
  7.72261074E+00 -1.54452215E+01  7.72261074E+00  7.72261074E+00 -1.54452215E+01
  7.72261074E+00  7.72261074E+00 -1.54452215E+01  7.72261074E+00  7.72261074E+00
 -1.54452215E+01  7.72261074E+00  7.72261074E+00 -1.54452215E+01  7.72261074E+00
  7.72261074E+00 -1.54452215E+01  7.72261074E+00  7.72261074E+00 -1.54452215E+01
  7.72261074E+00  7.72261074E+00 -1.54452215E+01  7.72261074E+00  7.72261074E+00
 -1.54452215E+01  7.72261074E+00  7.72261074E+00 -1.54452215E+01  7.72261074E+00
  7.72261074E+00 -1.54452215E+01  7.72261074E+00  7.72261074E+00 -1.54452215E+01
  7.72261074E+00  7.72261074E+00 -1.54452215E+01  7.72261074E+00  7.72261074E+00
 -1.54452215E+01  7.72261074E+00  7.72261074E+00 -1.54452215E+01  7.72261074E+00
  7.72261074E+00 -1.54452215E+01  7.72261074E+00  7.72261074E+00 -1.54452215E+01
  7.72261074E+00  7.72261074E+00 -1.54452215E+01  7.72261074E+00  7.72261074E+00
 -1.54452215E+01  7.72261074E+00  7.72261074E+00 -1.54452215E+01  7.72261074E+00
  7.72261074E+00 -1.54452215E+01  7.72261074E+00  7.72261074E+00 -1.54452215E+01
  7.72261074E+00  7.72261074E+00 -1.54452215E+01  7.72261074E+00  7.72261074E+00
 -1.54452215E+01  7.72261074E+00  7.72261074E+00 -1.54452215E+01  7.72261074E+00
  7.72261074E+00 -1.54452215E+01  7.72261074E+00  7.72261074E+00 -1.54452215E+01
  7.72261074E+00  7.72261074E+00 -1.54452215E+01  7.72261074E+00  7.72261074E+00
 -1.54452215E+01  7.72261074E+00  7.72261074E+00 -1.54452215E+01  7.72261074E+00
  7.72261074E+00 -1.54452215E+01  7.72261074E+00  7.72261074E+00 -1.54452215E+01
  7.72261074E+00  7.72261074E+00 -1.54452215E+01  7.72261074E+00  7.72261074E+00
 -1.54452215E+01  7.72261074E+00  7.72261074E+00 -1.54452215E+01  7.72261074E+00
  7.72261074E+00 -1.54452215E+01  7.72261074E+00  7.72261074E+00 -1.54452215E+01
  7.72261074E+00  7.72261074E+00 -1.54452215E+01  7.72261074E+00  7.72261074E+00
 -1.54452215E+01  7.72261074E+00  7.72261074E+00 -1.54452215E+01  7.72261074E+00
  7.72261074E+00 -1.54452215E+01  7.72261074E+00  7.72261074E+00 -1.54452215E+01
  7.72261074E+00  7.72261074E+00 -1.54452215E+01  7.72261074E+00  7.72261074E+00
 -1.54452215E+01  7.72261074E+00  7.72261074E+00 -1.54452215E+01  7.72261074E+00
  7.72261074E+00 -1.54452215E+01  7.72261074E+00  7.72261074E+00 -1.54452215E+01
  7.72261074E+00  7.72261074E+00 -1.54452215E+01  7.72261074E+00  7.72261074E+00
 -1.54452215E+01  7.72261074E+00  7.72261074E+00 -1.54452215E+01  7.72261074E+00
  7.72261074E+00 -1.54452215E+01  7.72261074E+00  7.72261074E+00 -1.54452215E+01
  7.72261074E+00  7.72261074E+00 -1.54452215E+01  7.72261074E+00  7.72261074E+00
 -1.54452215E+01  7.72261074E+00  7.72261074E+00 -1.54452215E+01  7.72261074E+00
  7.72261074E+00 -1.54452215E+01  7.72261074E+00  7.72261074E+00 -1.54452215E+01
  7.72261074E+00  7.72261074E+00 -1.54452215E+01  7.72261074E+00  7.72261074E+00
 -1.54452215E+01  7.72261074E+00  7.72261074E+00 -1.54452215E+01  7.72261074E+00
  7.72261074E+00 -1.54452215E+01  7.72261074E+00  7.72261074E+00 -1.54452215E+01
  7.72261074E+00  7.72261074E+00 -1.54452215E+01  7.72261074E+00  7.72261074E+00
 -1.54452215E+01  7.72261074E+00  7.72261074E+00 -1.54452215E+01  7.72261074E+00
  7.72261074E+00 -1.54452215E+01  7.72261074E+00  7.72261074E+00 -1.54452215E+01
  7.72261074E+00  7.72261074E+00 -1.54452215E+01  7.72261074E+00  7.72261074E+00
 -1.54452215E+01  7.72261074E+00  7.72261074E+00 -1.54452215E+01  7.72261074E+00
  7.72261074E+00 -1.54452215E+01  7.72261074E+00  7.72261074E+00 -1.54452215E+01
  7.72261074E+00  7.72261074E+00 -1.54452215E+01  7.72261074E+00  7.72261074E+00
 -1.54452215E+01  7.72261074E+00  7.72261074E+00 -1.54452215E+01  7.72261074E+00
  7.72261074E+00 -1.54452215E+01  7.72261074E+00  7.72261074E+00 -1.54452215E+01
  7.72261074E+00  7.72261074E+00 -1.54452215E+01  7.72261074E+00  7.72261074E+00
 -1.54452215E+01  7.72261074E+00  7.72261074E+00 -1.54452215E+01  7.72261074E+00
  7.72261074E+00 -1.54452215E+01  7.72261074E+00  7.72261074E+00 -1.54452215E+01
  7.72261074E+00  7.72261074E+00 -1.54452215E+01  7.72261074E+00  7.72261074E+00
 -1.54452215E+01  7.72261074E+00  7.72261074E+00 -1.54452215E+01  7.72261074E+00
  7.72261074E+00 -1.54452215E+01  7.72261074E+00  7.72261074E+00 -1.54452215E+01
  7.72261074E+00  7.72261074E+00 -1.54452215E+01  7.72261074E+00  7.72261074E+00
 -1.54452215E+01  7.72261074E+00  7.72261074E+00 -1.54452215E+01  7.72261074E+00
  7.72261074E+00 -1.54452215E+01  7.72261074E+00  7.72261074E+00 -1.54452215E+01
  7.72261074E+00  7.72261074E+00 -1.54452215E+01  7.72261074E+00  7.72261074E+00
 -1.54452215E+01  7.72261074E+00  7.72261074E+00 -1.54452215E+01  7.72261074E+00
  7.72261074E+00 -1.54452215E+01  7.72261074E+00  7.72261074E+00 -1.54452215E+01
  7.72261074E+00  7.72261074E+00 -1.54452215E+01  7.72261074E+00  7.72261074E+00
 -1.54452215E+01  7.72261074E+00  7.72261074E+00 -1.54452215E+01  7.72261074E+00
  7.72261074E+00 -1.54452215E+01  7.72261074E+00  7.72261074E+00 -1.54452215E+01
  7.72261074E+00  7.72261074E+00 -1.54452215E+01  7.72261074E+00  7.72261074E+00
 -1.54452215E+01  7.72261074E+00  7.72261074E+00 -1.54452215E+01  7.72261074E+00
  7.72261074E+00 -1.54452215E+01  7.72261074E+00  7.72261074E+00 -1.54452215E+01
  7.72261074E+00  7.72261074E+00 -1.54452215E+01  7.72261074E+00  7.72261074E+00
 -1.54452215E+01  7.72261074E+00  7.72261074E+00 -1.54452215E+01  7.72261074E+00
  7.72261074E+00 -1.54452215E+01  7.72261074E+00  7.72261074E+00 -1.54452215E+01
  7.72261074E+00  7.72261074E+00 -1.54452215E+01  7.72261074E+00  7.72261074E+00
 -1.54452215E+01  7.72261074E+00  7.72261074E+00 -1.54452215E+01  7.72261074E+00
  7.72261074E+00 -1.54452215E+01  7.72261074E+00  7.72261074E+00 -1.54452215E+01
  7.72261074E+00  7.72261074E+00 -1.54452215E+01  7.72261074E+00  7.72261074E+00
 -1.54452215E+01  7.72261074E+00  7.72261074E+00 -1.54452215E+01  7.72261074E+00
  7.72261074E+00 -1.54452215E+01  7.72261074E+00  7.72261074E+00 -1.54452215E+01
  7.72261074E+00  7.72261074E+00 -1.54452215E+01  7.72261074E+00  7.72261074E+00
 -1.54452215E+01  7.72261074E+00  7.72261074E+00 -1.54452215E+01  7.72261074E+00
  7.72261074E+00 -1.54452215E+01  7.72261074E+00  7.72261074E+00 -1.54452215E+01
  7.72261074E+00  7.72261074E+00 -1.54452215E+01  7.72261074E+00  7.72261074E+00
 -1.54452215E+01  7.72261074E+00  7.72261074E+00 -1.54452215E+01  7.72261074E+00
  7.72261074E+00 -1.54452215E+01  7.72261074E+00  7.72261074E+00 -1.54452215E+01
  7.72261074E+00  7.72261074E+00 -1.54452215E+01  7.72261074E+00  7.72261074E+00
 -1.54452215E+01  7.72261074E+00  7.72261074E+00 -1.54452215E+01  7.72261074E+00
  7.72261074E+00 -1.54452215E+01  7.72261074E+00  7.72261074E+00 -1.54452215E+01
  7.72261074E+00  7.72261074E+00 -1.54452215E+01  7.72261074E+00  7.72261074E+00
 -1.54452215E+01  7.72261074E+00  7.72261074E+00 -1.54452215E+01  7.72261074E+00
  7.72261074E+00 -1.54452215E+01  7.72261074E+00  7.72261074E+00 -1.54452215E+01
  7.72261074E+00  7.72261074E+00 -1.54452215E+01  7.72261074E+00  7.72261074E+00
 -1.54452215E+01  7.72261074E+00  7.72261074E+00 -1.54452215E+01  7.72261074E+00
  7.72261074E+00 -1.54452215E+01  7.72261074E+00  7.72261074E+00 -1.54452215E+01
  7.72261074E+00  7.72261074E+00 -1.54452215E+01  7.72261074E+00  7.72261074E+00
 -1.54452215E+01  7.72261074E+00  7.72261074E+00 -1.54452215E+01  7.72261074E+00
  7.72261074E+00 -1.54452215E+01  7.72261074E+00  7.72261074E+00 -1.54452215E+01
  7.72261074E+00  7.72261074E+00 -1.54452215E+01  7.72261074E+00  7.72261074E+00
 -1.54452215E+01  7.72261074E+00  7.72261074E+00 -1.54452215E+01  7.72261074E+00
  7.72261074E+00 -1.54452215E+01  7.72261074E+00  7.72261074E+00 -1.54452215E+01
  7.72261074E+00  7.72261074E+00 -1.54452215E+01  7.72261074E+00  7.72261074E+00
 -1.54452215E+01  7.72261074E+00  7.72261074E+00 -1.54452215E+01  7.72261074E+00
  7.72261074E+00 -1.54452215E+01  7.72261074E+00  7.72261074E+00 -1.54452215E+01
  7.72261074E+00  7.72261074E+00 -1.54452215E+01  7.72261074E+00  7.72261074E+00
 -1.54452215E+01  7.72261074E+00  7.72261074E+00 -1.54452215E+01  7.72261074E+00
  7.72261074E+00 -1.54452215E+01  7.72261074E+00  7.72261074E+00 -1.54452215E+01
  7.72261074E+00  7.72261074E+00 -1.54452215E+01  7.72261074E+00  7.72261074E+00
 -1.54452215E+01  7.72261074E+00  7.72261074E+00 -1.54452215E+01  7.72261074E+00
  7.72261074E+00 -1.54452215E+01  7.72261074E+00  7.72261074E+00 -1.54452215E+01
  7.72261074E+00  7.72261074E+00 -1.54452215E+01  7.72261074E+00  7.72261074E+00
 -1.54452215E+01  7.72261074E+00  7.72261074E+00 -1.54452215E+01  7.72261074E+00
  7.72261074E+00 -1.54452215E+01  7.72261074E+00  7.72261074E+00 -1.54452215E+01
  7.72261074E+00  7.72261074E+00 -1.54452215E+01  7.72261074E+00  7.72261074E+00
 -1.54452215E+01  7.72261074E+00  7.72261074E+00 -1.54452215E+01  7.72261074E+00
  7.72261074E+00 -1.54452215E+01  7.72261074E+00  7.72261074E+00 -1.54452215E+01
  7.72261074E+00  7.72261074E+00 -1.54452215E+01  7.72261074E+00  7.72261074E+00
 -1.54452215E+01  7.72261074E+00  7.72261074E+00 -1.54452215E+01  7.72261074E+00
  7.72261074E+00 -1.54452215E+01  7.72261074E+00  7.72261074E+00 -1.54452215E+01
  7.72261074E+00  7.72261074E+00 -1.54452215E+01  7.72261074E+00  7.72261074E+00
 -1.54452215E+01  7.72261074E+00  7.72261074E+00 -1.54452215E+01  7.72261074E+00
  7.72261074E+00 -1.54452215E+01  7.72261074E+00  7.72261074E+00 -1.54452215E+01
  7.72261074E+00  7.72261074E+00 -1.54452215E+01  7.72261074E+00  7.72261074E+00
 -1.54452215E+01  7.72261074E+00  7.72261074E+00 -1.54452215E+01  7.72261074E+00
  7.72261074E+00 -1.54452215E+01  7.72261074E+00  7.72261074E+00 -1.54452215E+01
  7.72261074E+00  7.72261074E+00 -1.54452215E+01  7.72261074E+00  7.72261074E+00
 -1.54452215E+01  7.72261074E+00  7.72261074E+00 -1.54452215E+01  7.72261074E+00
  7.72261074E+00 -1.54452215E+01  7.72261074E+00  7.72261074E+00 -1.54452215E+01
  7.72261074E+00  7.72261074E+00 -1.54452215E+01  7.72261074E+00  7.72261074E+00
 -1.54452215E+01  7.72261074E+00  7.72261074E+00 -1.54452215E+01  7.72261074E+00
  7.72261074E+00 -1.54452215E+01  7.72261074E+00  7.72261074E+00 -1.54452215E+01
  7.72261074E+00  7.72261074E+00 -1.54452215E+01  7.72261074E+00  7.72261074E+00
 -1.54452215E+01  7.72261074E+00  7.72261074E+00 -1.54452215E+01  7.72261074E+00
  7.72261074E+00 -1.54452215E+01  7.72261074E+00  7.72261074E+00 -1.54452215E+01
  7.72261074E+00  7.72261074E+00 -1.54452215E+01  7.72261074E+00  7.72261074E+00
 -1.54452215E+01  7.72261074E+00  7.72261074E+00 -1.54452215E+01  7.72261074E+00
  7.72261074E+00 -1.54452215E+01  7.72261074E+00  7.72261074E+00 -1.54452215E+01
  7.72261074E+00  7.72261074E+00 -1.54452215E+01  7.72261074E+00  7.72261074E+00
 -1.54452215E+01  7.72261074E+00  7.72261074E+00 -1.54452215E+01  7.72261074E+00
  7.72261074E+00 -1.54452215E+01  7.72261074E+00  7.72261074E+00 -1.54452215E+01
  7.72261074E+00  7.72261074E+00 -1.54452215E+01  7.72261074E+00  7.72261074E+00
 -1.54452215E+01  7.72261074E+00  7.72261074E+00 -1.54452215E+01  7.72261074E+00
  7.72261074E+00 -1.54452215E+01  7.72261074E+00  7.72261074E+00 -1.54452215E+01
  7.72261074E+00  7.72261074E+00 -1.54452215E+01  7.72261074E+00  7.72261074E+00
 -1.54452215E+01  7.72261074E+00  7.72261074E+00 -1.54452215E+01  7.72261074E+00
  7.72261074E+00 -1.54452215E+01  7.72261074E+00  7.72261074E+00 -1.54452215E+01
  7.72261074E+00  7.72261074E+00 -1.54452215E+01  7.72261074E+00  7.72261074E+00
 -1.54452215E+01  7.72261074E+00  7.72261074E+00 -1.54452215E+01  7.72261074E+00
  7.72261074E+00 -1.54452215E+01  7.72261074E+00  7.72261074E+00 -1.54452215E+01
  7.72261074E+00  7.72261074E+00 -1.54452215E+01  7.72261074E+00  7.72261074E+00
 -1.54452215E+01  7.72261074E+00  7.72261074E+00 -1.54452215E+01  7.72261074E+00
  7.72261074E+00 -1.54452215E+01  7.72261074E+00  7.72261074E+00 -1.54452215E+01
  7.72261074E+00  7.72261074E+00 -1.54452215E+01  7.72261074E+00  7.72261074E+00
 -1.54452215E+01  7.72261074E+00  7.72261074E+00 -1.54452215E+01  7.72261074E+00
  7.72261074E+00 -1.54452215E+01  7.72261074E+00  7.72261074E+00 -1.54452215E+01
  7.72261074E+00  7.72261074E+00 -1.54452215E+01  7.72261074E+00  7.72261074E+00
 -1.54452215E+01  7.72261074E+00  7.72261074E+00 -1.54452215E+01  7.72261074E+00
  7.72261074E+00 -1.54452215E+01  7.72261074E+00  7.72261074E+00 -1.54452215E+01
  7.72261074E+00  7.72261074E+00 -1.54452215E+01  7.72261074E+00  7.72261074E+00
 -1.54452215E+01  7.72261074E+00  7.72261074E+00 -1.54452215E+01  7.72261074E+00
  7.72261074E+00 -1.54452215E+01  7.72261074E+00  7.72261074E+00 -1.54452215E+01
  7.72261074E+00  7.72261074E+00 -1.54452215E+01  7.72261074E+00  7.72261074E+00
 -1.54452215E+01  7.72261074E+00  7.72261074E+00 -1.54452215E+01  7.72261074E+00
  7.72261074E+00 -1.54452215E+01  7.72261074E+00  7.72261074E+00 -1.54452215E+01
  7.72261074E+00  7.72261074E+00 -1.54452215E+01  7.72261074E+00  7.72261074E+00
 -1.54452215E+01  7.72261074E+00  7.72261074E+00 -1.54452215E+01  7.72261074E+00
  7.72261074E+00 -1.54452215E+01  7.72261074E+00  7.72261074E+00 -1.54452215E+01
  7.72261074E+00  7.72261074E+00 -1.54452215E+01  7.72261074E+00  7.72261074E+00
 -1.54452215E+01  7.72261074E+00  7.72261074E+00 -1.54452215E+01  7.72261074E+00
  7.72261074E+00 -1.54452215E+01  7.72261074E+00  7.72261074E+00 -1.54452215E+01
  7.72261074E+00  7.72261074E+00 -1.54452215E+01  7.72261074E+00  7.72261074E+00
 -1.54452215E+01  7.72261074E+00  7.72261074E+00 -1.54452215E+01  7.72261074E+00
  7.72261074E+00 -1.54452215E+01  7.72261074E+00  7.72261074E+00 -1.54452215E+01
  7.72261074E+00  7.72261074E+00 -1.54452215E+01  7.72261074E+00  7.72261074E+00
 -1.54452215E+01  7.72261074E+00  7.72261074E+00 -1.54452215E+01  7.72261074E+00
  7.72261074E+00 -1.54452215E+01  7.72261074E+00  7.72261074E+00 -1.54452215E+01
  7.72261074E+00  7.72261074E+00 -1.54452215E+01  7.72261074E+00  7.72261074E+00
 -1.54452215E+01  7.72261074E+00  7.72261074E+00 -1.54452215E+01  7.72261074E+00
  7.72261074E+00 -1.54452215E+01  7.72261074E+00  7.72261074E+00 -1.54452215E+01
  7.72261074E+00  7.72261074E+00 -1.54452215E+01  7.72261074E+00  7.72261074E+00
 -1.54452215E+01  7.72261074E+00  7.72261074E+00 -1.54452215E+01  7.72261074E+00
  7.72261074E+00 -1.54452215E+01  7.72261074E+00  7.72261074E+00 -1.54452215E+01
  7.72261074E+00  7.72261074E+00 -1.54452215E+01  7.72261074E+00  7.72261074E+00
 -1.54452215E+01  7.72261074E+00  7.72261074E+00 -1.54452215E+01  7.72261074E+00
  7.72261074E+00 -1.54452215E+01  7.72261074E+00  7.72261074E+00 -1.54452215E+01
  7.72261074E+00  7.72261074E+00 -1.54452215E+01  7.72261074E+00  7.72261074E+00
 -1.54452215E+01  7.72261074E+00  7.72261074E+00 -1.54452215E+01  7.72261074E+00
  7.72261074E+00 -1.54452215E+01  7.72261074E+00  7.72261074E+00 -1.54452215E+01
  7.72261074E+00  7.72261074E+00 -1.54452215E+01  7.72261074E+00  7.72261074E+00
 -1.54452215E+01  7.72261074E+00  7.72261074E+00 -1.54452215E+01  7.72261074E+00
  7.72261074E+00 -1.54452215E+01  7.72261074E+00  7.72261074E+00 -1.54452215E+01
  7.72261074E+00  7.72261074E+00 -1.54452215E+01  7.72261074E+00  7.72261074E+00
 -1.54452215E+01  7.72261074E+00  7.72261074E+00 -1.54452215E+01  7.72261074E+00
  7.72261074E+00 -1.54452215E+01  7.72261074E+00  7.72261074E+00 -1.54452215E+01
  7.72261074E+00  7.72261074E+00 -1.54452215E+01  7.72261074E+00  7.72261074E+00
 -1.54452215E+01  7.72261074E+00  7.72261074E+00 -1.54452215E+01  7.72261074E+00
  7.72261074E+00 -1.54452215E+01  7.72261074E+00  7.72261074E+00 -1.54452215E+01
  7.72261074E+00  7.72261074E+00 -1.54452215E+01  7.72261074E+00  7.72261074E+00
 -1.54452215E+01  7.72261074E+00  7.72261074E+00 -1.54452215E+01  7.72261074E+00
  7.72261074E+00 -1.54452215E+01  7.72261074E+00  7.72261074E+00 -1.54452215E+01
  7.72261074E+00  7.72261074E+00 -1.54452215E+01  7.72261074E+00  7.72261074E+00
 -1.54452215E+01  7.72261074E+00  7.72261074E+00 -1.54452215E+01  7.72261074E+00
  7.72261074E+00 -1.54452215E+01  7.72261074E+00  7.72261074E+00 -1.54452215E+01
  7.72261074E+00  7.72261074E+00 -1.54452215E+01  7.72261074E+00  7.72261074E+00
 -1.54452215E+01  7.72261074E+00  7.72261074E+00 -1.54452215E+01  7.72261074E+00
  7.72261074E+00 -1.54452215E+01  7.72261074E+00  7.72261074E+00 -1.54452215E+01
  7.72261074E+00  7.72261074E+00 -1.54452215E+01  7.72261074E+00  7.72261074E+00
 -1.54452215E+01  7.72261074E+00  7.72261074E+00 -1.54452215E+01  7.72261074E+00
  7.72261074E+00 -1.54452215E+01  7.72261074E+00  7.72261074E+00 -1.54452215E+01
  7.72261074E+00  7.72261074E+00 -1.54452215E+01  7.72261074E+00  7.72261074E+00
 -1.54452215E+01  7.72261074E+00  7.72261074E+00 -1.54452215E+01  7.72261074E+00
  7.72261074E+00 -1.54452215E+01  7.72261074E+00  7.72261074E+00 -1.54452215E+01
  7.72261074E+00  7.72261074E+00 -1.54452215E+01  7.72261074E+00  7.72261074E+00
 -1.54452215E+01  7.72261074E+00  7.72261074E+00 -1.54452215E+01  7.72261074E+00
  7.72261074E+00 -1.54452215E+01  7.72261074E+00  7.72261074E+00 -1.54452215E+01
  7.72261074E+00  7.72261074E+00 -1.54452215E+01  7.72261074E+00  7.72261074E+00
 -1.54452215E+01  7.72261074E+00  7.72261074E+00 -1.54452215E+01  7.72261074E+00
  7.72261074E+00 -1.54452215E+01  7.72261074E+00  7.72261074E+00 -1.54452215E+01
  7.72261074E+00  7.72261074E+00 -1.54452215E+01  7.72261074E+00  7.72261074E+00
 -1.54452215E+01  7.72261074E+00  7.72261074E+00 -1.54452215E+01  7.72261074E+00
  7.72261074E+00 -1.54452215E+01  7.72261074E+00  7.72261074E+00 -1.54452215E+01
  7.72261074E+00  7.72261074E+00 -1.54452215E+01  7.72261074E+00  7.72261074E+00
 -1.54452215E+01  7.72261074E+00  7.72261074E+00 -1.54452215E+01  7.72261074E+00
  7.72261074E+00 -1.54452215E+01  7.72261074E+00  7.72261074E+00 -1.54452215E+01
  7.72261074E+00  7.72261074E+00 -1.54452215E+01  7.72261074E+00  7.72261074E+00
 -1.54452215E+01  7.72261074E+00  7.72261074E+00 -1.54452215E+01  7.72261074E+00
  7.72261074E+00 -1.54452215E+01  7.72261074E+00  7.72261074E+00 -1.54452215E+01
  7.72261074E+00  7.72261074E+00 -1.54452215E+01  7.72261074E+00  7.72261074E+00
 -1.54452215E+01  7.72261074E+00  7.72261074E+00 -1.54452215E+01  7.72261074E+00
  7.72261074E+00 -1.54452215E+01  7.72261074E+00  7.72261074E+00 -1.54452215E+01
  7.72261074E+00  7.72261074E+00 -1.54452215E+01  7.72261074E+00  7.72261074E+00
 -1.54452215E+01  7.72261074E+00  7.72261074E+00 -1.54452215E+01  7.72261074E+00
  7.72261074E+00 -1.54452215E+01  7.72261074E+00  7.72261074E+00 -1.54452215E+01
  7.72261074E+00  7.72261074E+00 -1.54452215E+01  7.72261074E+00  7.72261074E+00
 -1.54452215E+01  7.72261074E+00  7.72261074E+00 -1.54452215E+01  7.72261074E+00
  7.72261074E+00 -1.54452215E+01  7.72261074E+00  7.72261074E+00 -1.54452215E+01
  7.72261074E+00  7.72261074E+00 -1.54452215E+01  7.72261074E+00  7.72261074E+00
 -1.54452215E+01  7.72261074E+00  7.72261074E+00 -1.54452215E+01  7.72261074E+00
  7.72261074E+00 -1.54452215E+01  7.72261074E+00  7.72261074E+00 -1.54452215E+01
  7.72261074E+00  7.72261074E+00 -1.54452215E+01  7.72261074E+00  7.72261074E+00
 -1.54452215E+01  7.72261074E+00  7.72261074E+00 -1.54452215E+01  7.72261074E+00
  7.72261074E+00 -1.54452215E+01  7.72261074E+00  7.72261074E+00 -1.54452215E+01
  7.72261074E+00  7.72261074E+00 -1.54452215E+01  7.72261074E+00  7.72261074E+00
 -1.54452215E+01  7.72261074E+00  7.72261074E+00 -1.54452215E+01  7.72261074E+00
  7.72261074E+00 -1.54452215E+01  7.72261074E+00  7.72261074E+00 -1.54452215E+01
  7.72261074E+00  7.72261074E+00 -1.54452215E+01  7.72261074E+00  7.72261074E+00
 -1.54452215E+01  7.72261074E+00  7.72261074E+00 -1.54452215E+01  7.72261074E+00
  7.72261074E+00 -1.54452215E+01  7.72261074E+00  7.72261074E+00 -1.54452215E+01
  7.72261074E+00  7.72261074E+00 -1.54452215E+01  7.72261074E+00  7.72261074E+00
 -1.54452215E+01  7.72261074E+00  7.72261074E+00 -1.54452215E+01  7.72261074E+00
  7.72261074E+00 -1.54452215E+01  7.72261074E+00  7.72261074E+00 -1.54452215E+01
  7.72261074E+00  7.72261074E+00 -1.54452215E+01  7.72261074E+00  7.72261074E+00
 -1.54452215E+01  7.72261074E+00  7.72261074E+00 -1.54452215E+01  7.72261074E+00
  7.72261074E+00 -1.54452215E+01  7.72261074E+00  7.72261074E+00 -1.54452215E+01
  7.72261074E+00  7.72261074E+00 -1.54452215E+01  7.72261074E+00  7.72261074E+00
 -1.54452215E+01  7.72261074E+00  7.72261074E+00 -1.54452215E+01  7.72261074E+00
  7.72261074E+00 -1.54452215E+01  7.72261074E+00  7.72261074E+00 -1.54452215E+01
  7.72261074E+00  7.72261074E+00 -1.54452215E+01  7.72261074E+00  7.72261074E+00
 -1.54452215E+01  7.72261074E+00  7.72261074E+00 -1.54452215E+01  7.72261074E+00
  7.72261074E+00 -1.54452215E+01  7.72261074E+00  7.72261074E+00 -1.54452215E+01
  7.72261074E+00  7.72261074E+00 -1.54452215E+01  7.72261074E+00  7.72261074E+00
 -1.54452215E+01  7.72261074E+00  7.72261074E+00 -1.54452215E+01  7.72261074E+00
  7.72261074E+00 -1.54452215E+01  7.72261074E+00  7.72261074E+00 -1.54452215E+01
  7.72261074E+00  7.72261074E+00 -1.54452215E+01  7.72261074E+00  7.72261074E+00
 -1.54452215E+01  7.72261074E+00  7.72261074E+00 -1.54452215E+01  7.72261074E+00
  7.72261074E+00 -1.54452215E+01  7.72261074E+00  7.72261074E+00 -1.54452215E+01
  7.72261074E+00  7.72261074E+00 -1.54452215E+01  7.72261074E+00  7.72261074E+00
 -1.54452215E+01  7.72261074E+00  7.72261074E+00 -1.54452215E+01  7.72261074E+00
  7.72261074E+00 -1.54452215E+01  7.72261074E+00  7.72261074E+00 -1.54452215E+01
  7.72261074E+00  7.72261074E+00 -1.54452215E+01  7.72261074E+00  7.72261074E+00
 -1.54452215E+01  7.72261074E+00  7.72261074E+00 -1.54452215E+01  7.72261074E+00
  7.72261074E+00 -1.54452215E+01  7.72261074E+00  7.72261074E+00 -1.54452215E+01
  7.72261074E+00  7.72261074E+00 -1.54452215E+01  7.72261074E+00  7.72261074E+00
 -1.54452215E+01  7.72261074E+00  7.72261074E+00 -1.54452215E+01  7.72261074E+00
  7.72261074E+00 -1.54452215E+01  7.72261074E+00  7.72261074E+00 -1.54452215E+01
  7.72261074E+00  7.72261074E+00 -1.54452215E+01  7.72261074E+00  7.72261074E+00
 -1.54452215E+01  7.72261074E+00  7.72261074E+00 -1.54452215E+01  7.72261074E+00
  7.72261074E+00 -1.54452215E+01  7.72261074E+00  7.72261074E+00 -1.54452215E+01
  7.72261074E+00  7.72261074E+00 -1.54452215E+01  7.72261074E+00  7.72261074E+00
 -1.54452215E+01  7.72261074E+00  7.72261074E+00 -1.54452215E+01  7.72261074E+00
  7.72261074E+00 -1.54452215E+01  7.72261074E+00  7.72261074E+00 -1.54452215E+01
  7.72261074E+00  7.72261074E+00 -1.54452215E+01  7.72261074E+00  7.72261074E+00
 -1.54452215E+01  7.72261074E+00  7.72261074E+00 -1.54452215E+01  7.72261074E+00
  7.72261074E+00 -1.54452215E+01  7.72261074E+00  7.72261074E+00 -1.54452215E+01
  7.72261074E+00  7.72261074E+00 -1.54452215E+01  7.72261074E+00  7.72261074E+00
 -1.54452215E+01  7.72261074E+00  7.72261074E+00 -1.54452215E+01  7.72261074E+00
  7.72261074E+00 -1.54452215E+01  7.72261074E+00  7.72261074E+00 -1.54452215E+01
  7.72261074E+00  7.72261074E+00 -1.54452215E+01  7.72261074E+00  7.72261074E+00
 -1.54452215E+01  7.72261074E+00  7.72261074E+00 -1.54452215E+01  7.72261074E+00
  7.72261074E+00 -1.54452215E+01  7.72261074E+00  7.72261074E+00 -1.54452215E+01
  7.72261074E+00  7.72261074E+00 -1.54452215E+01  7.72261074E+00  7.72261074E+00
 -1.54452215E+01  7.72261074E+00  7.72261074E+00 -1.54452215E+01  7.72261074E+00
  7.72261074E+00 -1.54452215E+01  7.72261074E+00  7.72261074E+00 -1.54452215E+01
  7.72261074E+00  7.72261074E+00 -1.54452215E+01  7.72261074E+00  7.72261074E+00
 -1.54452215E+01  7.72261074E+00  7.72261074E+00 -1.54452215E+01  7.72261074E+00
  7.72261074E+00 -1.54452215E+01  7.72261074E+00  7.72261074E+00 -1.54452215E+01
  7.72261074E+00  7.72261074E+00 -1.54452215E+01  7.72261074E+00  7.72261074E+00
 -1.54452215E+01  7.72261074E+00  7.72261074E+00 -1.54452215E+01  7.72261074E+00
  7.72261074E+00 -1.54452215E+01  7.72261074E+00  7.72261074E+00 -1.54452215E+01
  7.72261074E+00  7.72261074E+00 -1.54452215E+01  7.72261074E+00  7.72261074E+00
 -1.54452215E+01  7.72261074E+00  7.72261074E+00 -1.54452215E+01  7.72261074E+00
  7.72261074E+00 -1.54452215E+01  7.72261074E+00  7.72261074E+00 -1.54452215E+01
  7.72261074E+00  7.72261074E+00 -1.54452215E+01  7.72261074E+00  7.72261074E+00
 -1.54452215E+01  7.72261074E+00  7.72261074E+00 -1.54452215E+01  7.72261074E+00
  7.72261074E+00 -1.54452215E+01  7.72261074E+00  7.72261074E+00 -1.54452215E+01
  7.72261074E+00  7.72261074E+00 -1.54452215E+01  7.72261074E+00  7.72261074E+00
 -1.54452215E+01  7.72261074E+00  7.72261074E+00 -1.54452215E+01  7.72261074E+00
  7.72261074E+00 -1.54452215E+01  7.72261074E+00  7.72261074E+00 -1.54452215E+01
  7.72261074E+00  7.72261074E+00 -1.54452215E+01  7.72261074E+00  7.72261074E+00
 -1.54452215E+01  7.72261074E+00  7.72261074E+00 -1.54452215E+01  7.72261074E+00
  7.72261074E+00 -1.54452215E+01  7.72261074E+00  7.72261074E+00 -1.54452215E+01
  7.72261074E+00  7.72261074E+00 -1.54452215E+01  7.72261074E+00  7.72261074E+00
 -1.54452215E+01  7.72261074E+00  7.72261074E+00 -1.54452215E+01  7.72261074E+00
  7.72261074E+00 -1.54452215E+01  7.72261074E+00  7.72261074E+00 -1.54452215E+01
  7.72261074E+00  7.72261074E+00 -1.54452215E+01  7.72261074E+00  7.72261074E+00
 -1.54452215E+01  7.72261074E+00  7.72261074E+00 -1.54452215E+01  7.72261074E+00
  7.72261074E+00 -1.54452215E+01  7.72261074E+00  7.72261074E+00 -1.54452215E+01
  7.72261074E+00  7.72261074E+00 -1.54452215E+01  7.72261074E+00  7.72261074E+00
 -1.54452215E+01  7.72261074E+00  7.72261074E+00 -1.54452215E+01  7.72261074E+00
  7.72261074E+00 -1.54452215E+01  7.72261074E+00  7.72261074E+00 -1.54452215E+01
  7.72261074E+00  7.72261074E+00 -1.54452215E+01  7.72261074E+00  7.72261074E+00
 -1.54452215E+01  7.72261074E+00  7.72261074E+00 -1.54452215E+01  7.72261074E+00
  7.72261074E+00 -1.54452215E+01  7.72261074E+00  7.72261074E+00 -1.54452215E+01
  7.72261074E+00  7.72261074E+00 -1.54452215E+01  7.72261074E+00  7.72261074E+00
 -1.54452215E+01  7.72261074E+00  7.72261074E+00 -1.54452215E+01  7.72261074E+00
  7.72261074E+00 -1.54452215E+01  7.72261074E+00  7.72261074E+00 -1.54452215E+01
  7.72261074E+00  7.72261074E+00 -1.54452215E+01  7.72261074E+00  7.72261074E+00
 -1.54452215E+01  7.72261074E+00  7.72261074E+00 -1.54452215E+01  7.72261074E+00
  7.72261074E+00 -1.54452215E+01  7.72261074E+00  7.72261074E+00 -1.54452215E+01
  7.72261074E+00  7.72261074E+00 -1.54452215E+01  7.72261074E+00  7.72261074E+00
 -1.54452215E+01  7.72261074E+00  7.72261074E+00 -1.54452215E+01  7.72261074E+00
  7.72261074E+00 -1.54452215E+01  7.72261074E+00  7.72261074E+00 -1.54452215E+01
  7.72261074E+00  7.72261074E+00 -1.54452215E+01  7.72261074E+00  7.72261074E+00
 -1.54452215E+01  7.72261074E+00  7.72261074E+00 -1.54452215E+01  7.72261074E+00
  7.72261074E+00 -1.54452215E+01  7.72261074E+00  7.72261074E+00 -1.54452215E+01
  7.72261074E+00  7.72261074E+00 -1.54452215E+01  7.72261074E+00  7.72261074E+00
 -1.54452215E+01  7.72261074E+00  7.72261074E+00 -1.54452215E+01  7.72261074E+00
  7.72261074E+00 -1.54452215E+01  7.72261074E+00  7.72261074E+00 -1.54452215E+01
  7.72261074E+00  7.72261074E+00 -1.54452215E+01  7.72261074E+00  7.72261074E+00
 -1.54452215E+01  7.72261074E+00  7.72261074E+00 -1.54452215E+01  7.72261074E+00
  7.72261074E+00 -1.54452215E+01  7.72261074E+00  7.72261074E+00 -1.54452215E+01
  7.72261074E+00  7.72261074E+00 -1.54452215E+01  7.72261074E+00  7.72261074E+00
 -1.54452215E+01  7.72261074E+00  7.72261074E+00 -1.54452215E+01  7.72261074E+00
  7.72261074E+00 -1.54452215E+01  7.72261074E+00  7.72261074E+00 -1.54452215E+01
  7.72261074E+00  7.72261074E+00 -1.54452215E+01  7.72261074E+00  7.72261074E+00
 -1.54452215E+01  7.72261074E+00  7.72261074E+00 -1.54452215E+01  7.72261074E+00
  7.72261074E+00 -1.54452215E+01  7.72261074E+00  7.72261074E+00 -1.54452215E+01
  7.72261074E+00  7.72261074E+00 -1.54452215E+01  7.72261074E+00  7.72261074E+00
 -1.54452215E+01  7.72261074E+00  7.72261074E+00 -1.54452215E+01  7.72261074E+00
  7.72261074E+00 -1.54452215E+01  7.72261074E+00  7.72261074E+00 -1.54452215E+01
  7.72261074E+00  7.72261074E+00 -1.54452215E+01  7.72261074E+00  7.72261074E+00
 -1.54452215E+01  7.72261074E+00  7.72261074E+00 -1.54452215E+01  7.72261074E+00
  7.72261074E+00 -1.54452215E+01  7.72261074E+00  7.72261074E+00 -1.54452215E+01
  7.72261074E+00  7.72261074E+00 -1.54452215E+01  7.72261074E+00  7.72261074E+00
 -1.54452215E+01  7.72261074E+00  7.72261074E+00 -1.54452215E+01  7.72261074E+00
  7.72261074E+00 -1.54452215E+01  7.72261074E+00  7.72261074E+00 -1.54452215E+01
  7.72261074E+00  7.72261074E+00 -1.54452215E+01  7.72261074E+00  7.72261074E+00
 -1.54452215E+01  7.72261074E+00  7.72261074E+00 -1.54452215E+01  7.72261074E+00
  7.72261074E+00 -1.54452215E+01  7.72261074E+00  7.72261074E+00 -1.54452215E+01
  7.72261074E+00  7.72261074E+00 -1.54452215E+01  7.72261074E+00  7.72261074E+00
 -1.54452215E+01  7.72261074E+00  7.72261074E+00 -1.54452215E+01  7.72261074E+00
  7.72261074E+00 -1.54452215E+01  7.72261074E+00  7.72261074E+00 -1.54452215E+01
  7.72261074E+00  7.72261074E+00 -1.54452215E+01  7.72261074E+00  7.72261074E+00
 -1.54452215E+01  7.72261074E+00  7.72261074E+00 -1.54452215E+01  7.72261074E+00
  7.72261074E+00 -1.54452215E+01  7.72261074E+00  7.72261074E+00 -1.54452215E+01
  7.72261074E+00  7.72261074E+00 -1.54452215E+01  7.72261074E+00  7.72261074E+00
 -1.54452215E+01  7.72261074E+00  7.72261074E+00 -1.54452215E+01  7.72261074E+00
  7.72261074E+00 -1.54452215E+01  7.72261074E+00  7.72261074E+00 -1.54452215E+01
  7.72261074E+00  7.72261074E+00 -1.54452215E+01  7.72261074E+00  7.72261074E+00
 -1.54452215E+01  7.72261074E+00  7.72261074E+00 -1.54452215E+01  7.72261074E+00
  7.72261074E+00 -1.54452215E+01  7.72261074E+00  7.72261074E+00 -1.54452215E+01
  7.72261074E+00  7.72261074E+00 -1.54452215E+01  7.72261074E+00  7.72261074E+00
 -1.54452215E+01  7.72261074E+00  7.72261074E+00 -1.54452215E+01  7.72261074E+00
  7.72261074E+00 -1.54452215E+01  7.72261074E+00  7.72261074E+00 -1.54452215E+01
  7.72261074E+00  7.72261074E+00 -1.54452215E+01  7.72261074E+00  7.72261074E+00
 -1.54452215E+01  7.72261074E+00  7.72261074E+00 -1.54452215E+01  7.72261074E+00
  7.72261074E+00 -1.54452215E+01  7.72261074E+00  7.72261074E+00 -1.54452215E+01
  7.72261074E+00  7.72261074E+00 -1.54452215E+01  7.72261074E+00  7.72261074E+00
 -1.54452215E+01  7.72261074E+00  7.72261074E+00 -1.54452215E+01  7.72261074E+00
  7.72261074E+00 -1.54452215E+01  7.72261074E+00  7.72261074E+00 -1.54452215E+01
  7.72261074E+00  7.72261074E+00 -1.54452215E+01  7.72261074E+00  7.72261074E+00
 -1.54452215E+01  7.72261074E+00  7.72261074E+00 -1.54452215E+01  7.72261074E+00
  7.72261074E+00 -1.54452215E+01  7.72261074E+00  7.72261074E+00 -1.54452215E+01
  7.72261074E+00  7.72261074E+00 -1.54452215E+01  7.72261074E+00  7.72261074E+00
 -1.54452215E+01  7.72261074E+00  7.72261074E+00 -1.54452215E+01  7.72261074E+00
  7.72261074E+00 -1.54452215E+01  7.72261074E+00  7.72261074E+00 -1.54452215E+01
  7.72261074E+00  7.72261074E+00 -1.54452215E+01  7.72261074E+00  7.72261074E+00
 -1.54452215E+01  7.72261074E+00  7.72261074E+00 -1.54452215E+01  7.72261074E+00
  7.72261074E+00 -1.54452215E+01  7.72261074E+00  7.72261074E+00 -1.54452215E+01
  7.72261074E+00  7.72261074E+00 -1.54452215E+01  7.72261074E+00  7.72261074E+00
 -1.54452215E+01  7.72261074E+00  7.72261074E+00 -1.54452215E+01  7.72261074E+00
  7.72261074E+00 -1.54452215E+01  7.72261074E+00  7.72261074E+00 -1.54452215E+01
  7.72261074E+00  7.72261074E+00 -1.54452215E+01  7.72261074E+00  7.72261074E+00
 -1.54452215E+01  7.72261074E+00  7.72261074E+00 -1.54452215E+01  7.72261074E+00
  7.72261074E+00 -1.54452215E+01  7.72261074E+00  7.72261074E+00 -1.54452215E+01
  7.72261074E+00  7.72261074E+00 -1.54452215E+01  7.72261074E+00  7.72261074E+00
 -1.54452215E+01  7.72261074E+00  7.72261074E+00 -1.54452215E+01  7.72261074E+00
  7.72261074E+00 -1.54452215E+01  7.72261074E+00  7.72261074E+00 -1.54452215E+01
  7.72261074E+00  7.72261074E+00 -1.54452215E+01  7.72261074E+00  7.72261074E+00
 -1.54452215E+01  7.72261074E+00  7.72261074E+00 -1.54452215E+01  7.72261074E+00
  7.72261074E+00 -1.54452215E+01  7.72261074E+00  7.72261074E+00 -1.54452215E+01
  7.72261074E+00  7.72261074E+00 -1.54452215E+01  7.72261074E+00  7.72261074E+00
 -1.54452215E+01  7.72261074E+00  7.72261074E+00 -1.54452215E+01  7.72261074E+00
  7.72261074E+00 -1.54452215E+01  7.72261074E+00  7.72261074E+00 -1.54452215E+01
  7.72261074E+00  7.72261074E+00 -1.54452215E+01  7.72261074E+00  7.72261074E+00
 -1.54452215E+01  7.72261074E+00  7.72261074E+00 -1.54452215E+01  7.72261074E+00
  7.72261074E+00 -1.54452215E+01  7.72261074E+00  7.72261074E+00 -1.54452215E+01
  7.72261074E+00  7.72261074E+00 -1.54452215E+01  7.72261074E+00  7.72261074E+00
 -1.54452215E+01  7.72261074E+00  7.72261074E+00 -1.54452215E+01  7.72261074E+00
  7.72261074E+00 -1.54452215E+01  7.72261074E+00  7.72261074E+00 -1.54452215E+01
  7.72261074E+00  7.72261074E+00 -1.54452215E+01  7.72261074E+00  7.72261074E+00
 -1.54452215E+01  7.72261074E+00  7.72261074E+00 -1.54452215E+01  7.72261074E+00
  7.72261074E+00 -1.54452215E+01  7.72261074E+00  7.72261074E+00 -1.54452215E+01
  7.72261074E+00  7.72261074E+00 -1.54452215E+01  7.72261074E+00  7.72261074E+00
 -1.54452215E+01  7.72261074E+00  7.72261074E+00 -1.54452215E+01  7.72261074E+00
  7.72261074E+00 -1.54452215E+01  7.72261074E+00  7.72261074E+00 -1.54452215E+01
  7.72261074E+00  7.72261074E+00 -1.54452215E+01  7.72261074E+00  7.72261074E+00
 -1.54452215E+01  7.72261074E+00  7.72261074E+00 -1.54452215E+01  7.72261074E+00
  7.72261074E+00 -1.54452215E+01  7.72261074E+00  7.72261074E+00 -1.54452215E+01
  7.72261074E+00  7.72261074E+00 -1.54452215E+01  7.72261074E+00  7.72261074E+00
 -1.54452215E+01  7.72261074E+00  7.72261074E+00 -1.54452215E+01  7.72261074E+00
  7.72261074E+00 -1.54452215E+01  7.72261074E+00  7.72261074E+00 -1.54452215E+01
  7.72261074E+00  7.72261074E+00 -1.54452215E+01  7.72261074E+00  7.72261074E+00
 -1.54452215E+01  7.72261074E+00  7.72261074E+00 -1.54452215E+01  7.72261074E+00
  7.72261074E+00 -1.54452215E+01  7.72261074E+00  7.72261074E+00 -1.54452215E+01
  7.72261074E+00  7.72261074E+00 -1.54452215E+01  7.72261074E+00  7.72261074E+00
 -1.54452215E+01  7.72261074E+00  7.72261074E+00 -1.54452215E+01  7.72261074E+00
  7.72261074E+00 -1.54452215E+01  7.72261074E+00  7.72261074E+00 -1.54452215E+01
  7.72261074E+00  7.72261074E+00 -1.54452215E+01  7.72261074E+00  7.72261074E+00
 -1.54452215E+01  7.72261074E+00  7.72261074E+00 -1.54452215E+01  7.72261074E+00
  7.72261074E+00 -1.54452215E+01  7.72261074E+00  7.72261074E+00 -1.54452215E+01
  7.72261074E+00  7.72261074E+00 -1.54452215E+01  7.72261074E+00  7.72261074E+00
 -1.54452215E+01  7.72261074E+00  7.72261074E+00 -1.54452215E+01  7.72261074E+00
  7.72261074E+00 -1.54452215E+01  7.72261074E+00  7.72261074E+00 -1.54452215E+01
  7.72261074E+00  7.72261074E+00 -1.54452215E+01  7.72261074E+00  7.72261074E+00
 -1.54452215E+01  7.72261074E+00  7.72261074E+00 -1.54452215E+01  7.72261074E+00
  7.72261074E+00 -1.54452215E+01  7.72261074E+00  7.72261074E+00 -1.54452215E+01
  7.72261074E+00  7.72261074E+00 -1.54452215E+01  7.72261074E+00  7.72261074E+00
 -1.54452215E+01  7.72261074E+00  7.72261074E+00 -1.54452215E+01  7.72261074E+00
  7.72261074E+00 -1.54452215E+01  7.72261074E+00  7.72261074E+00 -1.54452215E+01
  7.72261074E+00  7.72261074E+00 -1.54452215E+01  7.72261074E+00  7.72261074E+00
 -1.54452215E+01  7.72261074E+00  7.72261074E+00 -1.54452215E+01  7.72261074E+00
  7.72261074E+00 -1.54452215E+01  7.72261074E+00  7.72261074E+00 -1.54452215E+01
  7.72261074E+00  7.72261074E+00 -1.54452215E+01  7.72261074E+00  7.72261074E+00
 -1.54452215E+01  7.72261074E+00  7.72261074E+00 -1.54452215E+01  7.72261074E+00
  7.72261074E+00 -1.54452215E+01  7.72261074E+00  7.72261074E+00 -1.54452215E+01
  7.72261074E+00  7.72261074E+00 -1.54452215E+01  7.72261074E+00  7.72261074E+00
 -1.54452215E+01  7.72261074E+00  7.72261074E+00 -1.54452215E+01  7.72261074E+00
  7.72261074E+00 -1.54452215E+01  7.72261074E+00  7.72261074E+00 -1.54452215E+01
  7.72261074E+00  7.72261074E+00 -1.54452215E+01  7.72261074E+00  7.72261074E+00
 -1.54452215E+01  7.72261074E+00  7.72261074E+00 -1.54452215E+01  7.72261074E+00
  7.72261074E+00 -1.54452215E+01  7.72261074E+00  7.72261074E+00 -1.54452215E+01
  7.72261074E+00  7.72261074E+00 -1.54452215E+01  7.72261074E+00  7.72261074E+00
 -1.54452215E+01  7.72261074E+00  7.72261074E+00 -1.54452215E+01  7.72261074E+00
  7.72261074E+00 -1.54452215E+01  7.72261074E+00  7.72261074E+00 -1.54452215E+01
  7.72261074E+00  7.72261074E+00 -1.54452215E+01  7.72261074E+00  7.72261074E+00
 -1.54452215E+01  7.72261074E+00  7.72261074E+00 -1.54452215E+01  7.72261074E+00
  7.72261074E+00 -1.54452215E+01  7.72261074E+00  7.72261074E+00 -1.54452215E+01
  7.72261074E+00  7.72261074E+00 -1.54452215E+01  7.72261074E+00  7.72261074E+00
 -1.54452215E+01  7.72261074E+00  7.72261074E+00 -1.54452215E+01  7.72261074E+00
  7.72261074E+00 -1.54452215E+01  7.72261074E+00  7.72261074E+00 -1.54452215E+01
  7.72261074E+00  7.72261074E+00 -1.54452215E+01  7.72261074E+00  7.72261074E+00
 -1.54452215E+01  7.72261074E+00  7.72261074E+00 -1.54452215E+01  7.72261074E+00
  7.72261074E+00 -1.54452215E+01  7.72261074E+00  7.72261074E+00 -1.54452215E+01
  7.72261074E+00  7.72261074E+00 -1.54452215E+01  7.72261074E+00  7.72261074E+00
 -1.54452215E+01  7.72261074E+00  7.72261074E+00 -1.54452215E+01  7.72261074E+00
  7.72261074E+00 -1.54452215E+01  7.72261074E+00  7.72261074E+00 -1.54452215E+01
  7.72261074E+00  7.72261074E+00 -1.54452215E+01  7.72261074E+00  7.72261074E+00
 -1.54452215E+01  7.72261074E+00  7.72261074E+00 -1.54452215E+01  7.72261074E+00
  7.72261074E+00 -1.54452215E+01  7.72261074E+00  7.72261074E+00 -1.54452215E+01
  7.72261074E+00  7.72261074E+00 -1.54452215E+01  7.72261074E+00  7.72261074E+00
 -1.54452215E+01  7.72261074E+00  7.72261074E+00 -1.54452215E+01  7.72261074E+00
  7.72261074E+00 -1.54452215E+01  7.72261074E+00  7.72261074E+00 -1.54452215E+01
  7.72261074E+00  7.72261074E+00 -1.54452215E+01  7.72261074E+00  7.72261074E+00
 -1.54452215E+01  7.72261074E+00  7.72261074E+00 -1.54452215E+01  7.72261074E+00
  7.72261074E+00 -1.54452215E+01  7.72261074E+00  7.72261074E+00 -1.54452215E+01
  7.72261074E+00  7.72261074E+00 -1.54452215E+01  7.72261074E+00  7.72261074E+00
 -1.54452215E+01  7.72261074E+00  7.72261074E+00 -1.54452215E+01  7.72261074E+00
  7.72261074E+00 -1.54452215E+01  7.72261074E+00  7.72261074E+00 -1.54452215E+01
  7.72261074E+00  7.72261074E+00 -1.54452215E+01  7.72261074E+00  7.72261074E+00
 -1.54452215E+01  7.72261074E+00  7.72261074E+00 -1.54452215E+01  7.72261074E+00
  7.72261074E+00 -1.54452215E+01  7.72261074E+00  7.72261074E+00 -1.54452215E+01
  7.72261074E+00  7.72261074E+00 -1.54452215E+01  7.72261074E+00  7.72261074E+00
 -1.54452215E+01  7.72261074E+00  7.72261074E+00 -1.54452215E+01  7.72261074E+00
  7.72261074E+00 -1.54452215E+01  7.72261074E+00  7.72261074E+00 -1.54452215E+01
  7.72261074E+00  7.72261074E+00 -1.54452215E+01  7.72261074E+00  7.72261074E+00
 -1.54452215E+01  7.72261074E+00  7.72261074E+00 -1.54452215E+01  7.72261074E+00
  7.72261074E+00 -1.54452215E+01  7.72261074E+00  7.72261074E+00 -1.54452215E+01
  7.72261074E+00  7.72261074E+00 -1.54452215E+01  7.72261074E+00  7.72261074E+00
 -1.54452215E+01  7.72261074E+00  7.72261074E+00 -1.54452215E+01  7.72261074E+00
  7.72261074E+00 -1.54452215E+01  7.72261074E+00  7.72261074E+00 -1.54452215E+01
  7.72261074E+00  7.72261074E+00 -1.54452215E+01  7.72261074E+00  7.72261074E+00
 -1.54452215E+01  7.72261074E+00  7.72261074E+00 -1.54452215E+01  7.72261074E+00
  7.72261074E+00 -1.54452215E+01  7.72261074E+00  7.72261074E+00 -1.54452215E+01
  7.72261074E+00  7.72261074E+00 -1.54452215E+01  7.72261074E+00  7.72261074E+00
 -1.54452215E+01  7.72261074E+00  7.72261074E+00 -1.54452215E+01  7.72261074E+00
  7.72261074E+00 -1.54452215E+01  7.72261074E+00  7.72261074E+00 -1.54452215E+01
  7.72261074E+00  7.72261074E+00 -1.54452215E+01  7.72261074E+00  7.72261074E+00
 -1.54452215E+01  7.72261074E+00  7.72261074E+00 -1.54452215E+01  7.72261074E+00
  7.72261074E+00 -1.54452215E+01  7.72261074E+00  7.72261074E+00 -1.54452215E+01
  7.72261074E+00  7.72261074E+00 -1.54452215E+01  7.72261074E+00  7.72261074E+00
 -1.54452215E+01  7.72261074E+00  7.72261074E+00 -1.54452215E+01  7.72261074E+00
  7.72261074E+00 -1.54452215E+01  7.72261074E+00  7.72261074E+00 -1.54452215E+01
  7.72261074E+00  7.72261074E+00 -1.54452215E+01  7.72261074E+00  7.72261074E+00
 -1.54452215E+01  7.72261074E+00  7.72261074E+00 -1.54452215E+01  7.72261074E+00
  7.72261074E+00 -1.54452215E+01  7.72261074E+00  7.72261074E+00 -1.54452215E+01
  7.72261074E+00  7.72261074E+00 -1.54452215E+01  7.72261074E+00  7.72261074E+00
 -1.54452215E+01  7.72261074E+00  7.72261074E+00 -1.54452215E+01  7.72261074E+00
  7.72261074E+00 -1.54452215E+01  7.72261074E+00  7.72261074E+00 -1.54452215E+01
  7.72261074E+00  7.72261074E+00 -1.54452215E+01  7.72261074E+00  7.72261074E+00
 -1.54452215E+01  7.72261074E+00  7.72261074E+00 -1.54452215E+01  7.72261074E+00
  7.72261074E+00 -1.54452215E+01  7.72261074E+00  7.72261074E+00 -1.54452215E+01
  7.72261074E+00  7.72261074E+00 -1.54452215E+01  7.72261074E+00  7.72261074E+00
 -1.54452215E+01  7.72261074E+00  7.72261074E+00 -1.54452215E+01  7.72261074E+00
  7.72261074E+00 -1.54452215E+01  7.72261074E+00  7.72261074E+00 -1.54452215E+01
  7.72261074E+00  7.72261074E+00 -1.54452215E+01  7.72261074E+00  7.72261074E+00
 -1.54452215E+01  7.72261074E+00  7.72261074E+00 -1.54452215E+01  7.72261074E+00
  7.72261074E+00 -1.54452215E+01  7.72261074E+00  7.72261074E+00 -1.54452215E+01
  7.72261074E+00  7.72261074E+00 -1.54452215E+01  7.72261074E+00  7.72261074E+00
 -1.54452215E+01  7.72261074E+00  7.72261074E+00 -1.54452215E+01  7.72261074E+00
  7.72261074E+00 -1.54452215E+01  7.72261074E+00  7.72261074E+00 -1.54452215E+01
  7.72261074E+00  7.72261074E+00 -1.54452215E+01  7.72261074E+00  7.72261074E+00
 -1.54452215E+01  7.72261074E+00  7.72261074E+00 -1.54452215E+01  7.72261074E+00
  7.72261074E+00 -1.54452215E+01  7.72261074E+00  7.72261074E+00 -1.54452215E+01
  7.72261074E+00  7.72261074E+00 -1.54452215E+01  7.72261074E+00  7.72261074E+00
 -1.54452215E+01  7.72261074E+00  7.72261074E+00 -1.54452215E+01  7.72261074E+00
  7.72261074E+00 -1.54452215E+01  7.72261074E+00  7.72261074E+00 -1.54452215E+01
  7.72261074E+00  7.72261074E+00 -1.54452215E+01  7.72261074E+00  7.72261074E+00
 -1.54452215E+01  7.72261074E+00  7.72261074E+00 -1.54452215E+01  7.72261074E+00
  7.72261074E+00 -1.54452215E+01  7.72261074E+00  7.72261074E+00 -1.54452215E+01
  7.72261074E+00  7.72261074E+00 -1.54452215E+01  7.72261074E+00  7.72261074E+00
 -1.54452215E+01  7.72261074E+00  7.72261074E+00 -1.54452215E+01  7.72261074E+00
  7.72261074E+00 -1.54452215E+01  7.72261074E+00  7.72261074E+00 -1.54452215E+01
  7.72261074E+00  7.72261074E+00 -1.54452215E+01  7.72261074E+00  7.72261074E+00
 -1.54452215E+01  7.72261074E+00  7.72261074E+00 -1.54452215E+01  7.72261074E+00
  7.72261074E+00 -1.54452215E+01  7.72261074E+00  7.72261074E+00 -1.54452215E+01
  7.72261074E+00  7.72261074E+00 -1.54452215E+01  7.72261074E+00  7.72261074E+00
 -1.54452215E+01  7.72261074E+00  7.72261074E+00 -1.54452215E+01  7.72261074E+00
  7.72261074E+00 -1.54452215E+01  7.72261074E+00  7.72261074E+00 -1.54452215E+01
  7.72261074E+00  7.72261074E+00 -1.54452215E+01  7.72261074E+00  7.72261074E+00
 -1.54452215E+01  7.72261074E+00  7.72261074E+00 -1.54452215E+01  7.72261074E+00
  7.72261074E+00 -1.54452215E+01  7.72261074E+00  7.72261074E+00 -1.54452215E+01
  7.72261074E+00  7.72261074E+00 -1.54452215E+01  7.72261074E+00  7.72261074E+00
 -1.54452215E+01  7.72261074E+00  7.72261074E+00 -1.54452215E+01  7.72261074E+00
  7.72261074E+00 -1.54452215E+01  7.72261074E+00  7.72261074E+00 -1.54452215E+01
  7.72261074E+00  7.72261074E+00 -1.54452215E+01  7.72261074E+00  7.72261074E+00
 -1.54452215E+01  7.72261074E+00  7.72261074E+00 -1.54452215E+01  7.72261074E+00
  7.72261074E+00 -1.54452215E+01  7.72261074E+00  7.72261074E+00 -1.54452215E+01
  7.72261074E+00  7.72261074E+00 -1.54452215E+01  7.72261074E+00  7.72261074E+00
 -1.54452215E+01  7.72261074E+00  7.72261074E+00 -1.54452215E+01  7.72261074E+00
  7.72261074E+00 -1.54452215E+01  7.72261074E+00  7.72261074E+00 -1.54452215E+01
  7.72261074E+00  7.72261074E+00 -1.54452215E+01  7.72261074E+00  7.72261074E+00
 -1.54452215E+01  7.72261074E+00  7.72261074E+00 -1.54452215E+01  7.72261074E+00
  7.72261074E+00 -1.54452215E+01  7.72261074E+00  7.72261074E+00 -1.54452215E+01
  7.72261074E+00  7.72261074E+00 -1.54452215E+01  7.72261074E+00  7.72261074E+00
 -1.54452215E+01  7.72261074E+00  7.72261074E+00 -1.54452215E+01  7.72261074E+00
  7.72261074E+00 -1.54452215E+01  7.72261074E+00  7.72261074E+00 -1.54452215E+01
  7.72261074E+00  7.72261074E+00 -1.54452215E+01  7.72261074E+00  7.72261074E+00
 -1.54452215E+01  7.72261074E+00  7.72261074E+00 -1.54452215E+01  7.72261074E+00
  7.72261074E+00 -1.54452215E+01  7.72261074E+00  7.72261074E+00 -1.54452215E+01
  7.72261074E+00  7.72261074E+00 -1.54452215E+01  7.72261074E+00  7.72261074E+00
 -1.54452215E+01  7.72261074E+00  7.72261074E+00 -1.54452215E+01  7.72261074E+00
  7.72261074E+00 -1.54452215E+01  7.72261074E+00  7.72261074E+00 -1.54452215E+01
  7.72261074E+00  7.72261074E+00 -1.54452215E+01  7.72261074E+00  7.72261074E+00
 -1.54452215E+01  7.72261074E+00  7.72261074E+00 -1.54452215E+01  7.72261074E+00
  7.72261074E+00 -1.54452215E+01  7.72261074E+00  7.72261074E+00 -1.54452215E+01
  7.72261074E+00  7.72261074E+00 -1.54452215E+01  7.72261074E+00  7.72261074E+00
 -1.54452215E+01  7.72261074E+00  7.72261074E+00 -1.54452215E+01  7.72261074E+00
  7.72261074E+00 -1.54452215E+01  7.72261074E+00  7.72261074E+00 -1.54452215E+01
  7.72261074E+00  7.72261074E+00 -1.54452215E+01  7.72261074E+00  7.72261074E+00
 -1.54452215E+01  7.72261074E+00  7.72261074E+00 -1.54452215E+01  7.72261074E+00
  7.72261074E+00 -1.54452215E+01  7.72261074E+00  7.72261074E+00 -1.54452215E+01
  7.72261074E+00  7.72261074E+00 -1.54452215E+01  7.72261074E+00  7.72261074E+00
 -1.54452215E+01  7.72261074E+00  7.72261074E+00 -1.54452215E+01  7.72261074E+00
  7.72261074E+00 -1.54452215E+01  7.72261074E+00  7.72261074E+00 -1.54452215E+01
  7.72261074E+00  7.72261074E+00 -1.54452215E+01  7.72261074E+00  7.72261074E+00
 -1.54452215E+01  7.72261074E+00  7.72261074E+00 -1.54452215E+01  7.72261074E+00
  7.72261074E+00 -1.54452215E+01  7.72261074E+00  7.72261074E+00 -1.54452215E+01
  7.72261074E+00  7.72261074E+00 -1.54452215E+01  7.72261074E+00  7.72261074E+00
 -1.54452215E+01  7.72261074E+00  7.72261074E+00 -1.54452215E+01  7.72261074E+00
  7.72261074E+00 -1.54452215E+01  7.72261074E+00  7.72261074E+00 -1.54452215E+01
  7.72261074E+00  7.72261074E+00 -1.54452215E+01  7.72261074E+00  7.72261074E+00
 -1.54452215E+01  7.72261074E+00  7.72261074E+00 -1.54452215E+01  7.72261074E+00
  7.72261074E+00 -1.54452215E+01  7.72261074E+00  7.72261074E+00 -1.54452215E+01
  7.72261074E+00  7.72261074E+00 -1.54452215E+01  7.72261074E+00  7.72261074E+00
 -1.54452215E+01  7.72261074E+00  7.72261074E+00 -1.54452215E+01  7.72261074E+00
  7.72261074E+00 -1.54452215E+01  7.72261074E+00  7.72261074E+00 -1.54452215E+01
  7.72261074E+00  7.72261074E+00 -1.54452215E+01  7.72261074E+00  7.72261074E+00
 -1.54452215E+01  7.72261074E+00  7.72261074E+00 -1.54452215E+01  7.72261074E+00
  7.72261074E+00 -1.54452215E+01  7.72261074E+00  7.72261074E+00 -1.54452215E+01
  7.72261074E+00  7.72261074E+00 -1.54452215E+01  7.72261074E+00  7.72261074E+00
 -1.54452215E+01  7.72261074E+00  7.72261074E+00 -1.54452215E+01  7.72261074E+00
  7.72261074E+00 -1.54452215E+01  7.72261074E+00  7.72261074E+00 -1.54452215E+01
  7.72261074E+00  7.72261074E+00 -1.54452215E+01  7.72261074E+00  7.72261074E+00
 -1.54452215E+01  7.72261074E+00  7.72261074E+00 -1.54452215E+01  7.72261074E+00
  7.72261074E+00 -1.54452215E+01  7.72261074E+00  7.72261074E+00 -1.54452215E+01
  7.72261074E+00  7.72261074E+00 -1.54452215E+01  7.72261074E+00  7.72261074E+00
 -1.54452215E+01  7.72261074E+00  7.72261074E+00 -1.54452215E+01  7.72261074E+00
  7.72261074E+00 -1.54452215E+01  7.72261074E+00  7.72261074E+00 -1.54452215E+01
  7.72261074E+00  7.72261074E+00 -1.54452215E+01  7.72261074E+00  7.72261074E+00
 -1.54452215E+01  7.72261074E+00  7.72261074E+00 -1.54452215E+01  7.72261074E+00
  7.72261074E+00 -1.54452215E+01  7.72261074E+00  7.72261074E+00 -1.54452215E+01
  7.72261074E+00  7.72261074E+00 -1.54452215E+01  7.72261074E+00  7.72261074E+00
 -1.54452215E+01  7.72261074E+00  7.72261074E+00 -1.54452215E+01  7.72261074E+00
  7.72261074E+00 -1.54452215E+01  7.72261074E+00  7.72261074E+00 -1.54452215E+01
  7.72261074E+00  7.72261074E+00 -1.54452215E+01  7.72261074E+00  7.72261074E+00
 -1.54452215E+01  7.72261074E+00  7.72261074E+00 -1.54452215E+01  7.72261074E+00
  7.72261074E+00 -1.54452215E+01  7.72261074E+00  7.72261074E+00 -1.54452215E+01
  7.72261074E+00  7.72261074E+00 -1.54452215E+01  7.72261074E+00  7.72261074E+00
 -1.54452215E+01  7.72261074E+00  7.72261074E+00 -1.54452215E+01  7.72261074E+00
  7.72261074E+00 -1.54452215E+01  7.72261074E+00  7.72261074E+00 -1.54452215E+01
  7.72261074E+00  7.72261074E+00 -1.54452215E+01  7.72261074E+00  7.72261074E+00
 -1.54452215E+01  7.72261074E+00  7.72261074E+00 -1.54452215E+01  7.72261074E+00
  7.72261074E+00 -1.54452215E+01  7.72261074E+00  7.72261074E+00 -1.54452215E+01
  7.72261074E+00  7.72261074E+00 -1.54452215E+01  7.72261074E+00  7.72261074E+00
 -1.54452215E+01  7.72261074E+00  7.72261074E+00 -1.54452215E+01  7.72261074E+00
  7.72261074E+00 -1.54452215E+01  7.72261074E+00  7.72261074E+00 -1.54452215E+01
  7.72261074E+00  7.72261074E+00 -1.54452215E+01  7.72261074E+00  7.72261074E+00
 -1.54452215E+01  7.72261074E+00  7.72261074E+00 -1.54452215E+01  7.72261074E+00
  7.72261074E+00 -1.54452215E+01  7.72261074E+00  7.72261074E+00 -1.54452215E+01
  7.72261074E+00  7.72261074E+00 -1.54452215E+01  7.72261074E+00  7.72261074E+00
 -1.54452215E+01  7.72261074E+00  7.72261074E+00 -1.54452215E+01  7.72261074E+00
  7.72261074E+00 -1.54452215E+01  7.72261074E+00  7.72261074E+00 -1.54452215E+01
  7.72261074E+00  7.72261074E+00 -1.54452215E+01  7.72261074E+00  7.72261074E+00
 -1.54452215E+01  7.72261074E+00  7.72261074E+00 -1.54452215E+01  7.72261074E+00
  7.72261074E+00 -1.54452215E+01  7.72261074E+00  7.72261074E+00 -1.54452215E+01
  7.72261074E+00  7.72261074E+00 -1.54452215E+01  7.72261074E+00  7.72261074E+00
 -1.54452215E+01  7.72261074E+00  7.72261074E+00 -1.54452215E+01  7.72261074E+00
  7.72261074E+00 -1.54452215E+01  7.72261074E+00  7.72261074E+00 -1.54452215E+01
  7.72261074E+00  7.72261074E+00 -1.54452215E+01  7.72261074E+00  7.72261074E+00
 -1.54452215E+01  7.72261074E+00  7.72261074E+00 -1.54452215E+01  7.72261074E+00
  7.72261074E+00 -1.54452215E+01  7.72261074E+00  7.72261074E+00 -1.54452215E+01
  7.72261074E+00  7.72261074E+00 -1.54452215E+01  7.72261074E+00  7.72261074E+00
 -1.54452215E+01  7.72261074E+00  7.72261074E+00 -1.54452215E+01  7.72261074E+00
  7.72261074E+00 -1.54452215E+01  7.72261074E+00  7.72261074E+00 -1.54452215E+01
  7.72261074E+00  7.72261074E+00 -1.54452215E+01  7.72261074E+00  7.72261074E+00
 -1.54452215E+01  7.72261074E+00  7.72261074E+00 -1.54452215E+01  7.72261074E+00
  7.72261074E+00 -1.54452215E+01  7.72261074E+00  7.72261074E+00 -1.54452215E+01
  7.72261074E+00  7.72261074E+00 -1.54452215E+01  7.72261074E+00  7.72261074E+00
 -1.54452215E+01  7.72261074E+00  7.72261074E+00 -1.54452215E+01  7.72261074E+00
  7.72261074E+00 -1.54452215E+01  7.72261074E+00  7.72261074E+00 -1.54452215E+01
  7.72261074E+00  7.72261074E+00 -1.54452215E+01  7.72261074E+00  7.72261074E+00
 -1.54452215E+01  7.72261074E+00  7.72261074E+00 -1.54452215E+01  7.72261074E+00
  7.72261074E+00 -1.54452215E+01  7.72261074E+00  7.72261074E+00 -1.54452215E+01
  7.72261074E+00  7.72261074E+00 -1.54452215E+01  7.72261074E+00  7.72261074E+00
 -1.54452215E+01  7.72261074E+00  7.72261074E+00 -1.54452215E+01  7.72261074E+00
  7.72261074E+00 -1.54452215E+01  7.72261074E+00  7.72261074E+00 -1.54452215E+01
  7.72261074E+00  7.72261074E+00 -1.54452215E+01  7.72261074E+00  7.72261074E+00
 -1.54452215E+01  7.72261074E+00  7.72261074E+00 -1.54452215E+01  7.72261074E+00
  7.72261074E+00 -1.54452215E+01  7.72261074E+00  7.72261074E+00 -1.54452215E+01
  7.72261074E+00  7.72261074E+00 -1.54452215E+01  7.72261074E+00  7.72261074E+00
 -1.54452215E+01  7.72261074E+00  7.72261074E+00 -1.54452215E+01  7.72261074E+00
  7.72261074E+00 -1.54452215E+01  7.72261074E+00  7.72261074E+00 -1.54452215E+01
  7.72261074E+00  7.72261074E+00 -1.54452215E+01  7.72261074E+00  7.72261074E+00
 -1.54452215E+01  7.72261074E+00  7.72261074E+00 -1.54452215E+01  7.72261074E+00
  7.72261074E+00 -1.54452215E+01  7.72261074E+00  7.72261074E+00 -1.54452215E+01
  7.72261074E+00  7.72261074E+00 -1.54452215E+01  7.72261074E+00  7.72261074E+00
 -1.54452215E+01  7.72261074E+00  7.72261074E+00 -1.54452215E+01  7.72261074E+00
  7.72261074E+00 -1.54452215E+01  7.72261074E+00  7.72261074E+00 -1.54452215E+01
  7.72261074E+00  7.72261074E+00 -1.54452215E+01  7.72261074E+00  7.72261074E+00
 -1.54452215E+01  7.72261074E+00  7.72261074E+00 -1.54452215E+01  7.72261074E+00
  7.72261074E+00 -1.54452215E+01  7.72261074E+00  7.72261074E+00 -1.54452215E+01
  7.72261074E+00  7.72261074E+00 -1.54452215E+01  7.72261074E+00  7.72261074E+00
 -1.54452215E+01  7.72261074E+00  7.72261074E+00 -1.54452215E+01  7.72261074E+00
  7.72261074E+00 -1.54452215E+01  7.72261074E+00  7.72261074E+00 -1.54452215E+01
  7.72261074E+00  7.72261074E+00 -1.54452215E+01  7.72261074E+00  7.72261074E+00
 -1.54452215E+01  7.72261074E+00  7.72261074E+00 -1.54452215E+01  7.72261074E+00
  7.72261074E+00 -1.54452215E+01  7.72261074E+00  7.72261074E+00 -1.54452215E+01
  7.72261074E+00  7.72261074E+00 -1.54452215E+01  7.72261074E+00  7.72261074E+00
 -1.54452215E+01  7.72261074E+00  7.72261074E+00 -1.54452215E+01  7.72261074E+00
  7.72261074E+00 -1.54452215E+01  7.72261074E+00  7.72261074E+00 -1.54452215E+01
  7.72261074E+00  7.72261074E+00 -1.54452215E+01  7.72261074E+00  7.72261074E+00
 -1.54452215E+01  7.72261074E+00  7.72261074E+00 -1.54452215E+01  7.72261074E+00
  7.72261074E+00 -1.54452215E+01  7.72261074E+00  7.72261074E+00 -1.54452215E+01
  7.72261074E+00  7.72261074E+00 -1.54452215E+01  7.72261074E+00  7.72261074E+00
 -1.54452215E+01  7.72261074E+00  7.72261074E+00 -1.54452215E+01  7.72261074E+00
  7.72261074E+00 -1.54452215E+01  7.72261074E+00  7.72261074E+00 -1.54452215E+01
  7.72261074E+00  7.72261074E+00 -1.54452215E+01  7.72261074E+00  7.72261074E+00
 -1.54452215E+01  7.72261074E+00  7.72261074E+00 -1.54452215E+01  7.72261074E+00
  7.72261074E+00 -1.54452215E+01  7.72261074E+00  7.72261074E+00 -1.54452215E+01
  7.72261074E+00  7.72261074E+00 -1.54452215E+01  7.72261074E+00  7.72261074E+00
 -1.54452215E+01  7.72261074E+00  7.72261074E+00 -1.54452215E+01  7.72261074E+00
  7.72261074E+00 -1.54452215E+01  7.72261074E+00  7.72261074E+00 -1.54452215E+01
  7.72261074E+00  7.72261074E+00 -1.54452215E+01  7.72261074E+00  7.72261074E+00
 -1.54452215E+01  7.72261074E+00  7.72261074E+00 -1.54452215E+01  7.72261074E+00
  7.72261074E+00 -1.54452215E+01  7.72261074E+00  7.72261074E+00 -1.54452215E+01
  7.72261074E+00  7.72261074E+00 -1.54452215E+01  7.72261074E+00  7.72261074E+00
 -1.54452215E+01  7.72261074E+00  7.72261074E+00 -1.54452215E+01  7.72261074E+00
  7.72261074E+00 -1.54452215E+01  7.72261074E+00  7.72261074E+00 -1.54452215E+01
  7.72261074E+00  7.72261074E+00 -1.54452215E+01  7.72261074E+00  7.72261074E+00
 -1.54452215E+01  7.72261074E+00  7.72261074E+00 -1.54452215E+01  7.72261074E+00
  7.72261074E+00 -1.54452215E+01  7.72261074E+00  7.72261074E+00 -1.54452215E+01
  7.72261074E+00  7.72261074E+00 -1.54452215E+01  7.72261074E+00  7.72261074E+00
 -1.54452215E+01  7.72261074E+00  7.72261074E+00 -1.54452215E+01  7.72261074E+00
  7.72261074E+00 -1.54452215E+01  7.72261074E+00  7.72261074E+00 -1.54452215E+01
  7.72261074E+00  7.72261074E+00 -1.54452215E+01  7.72261074E+00  7.72261074E+00
 -1.54452215E+01  7.72261074E+00  7.72261074E+00 -1.54452215E+01  7.72261074E+00
  7.72261074E+00 -1.54452215E+01  7.72261074E+00  7.72261074E+00 -1.54452215E+01
  7.72261074E+00  7.72261074E+00 -1.54452215E+01  7.72261074E+00  7.72261074E+00
 -1.54452215E+01  7.72261074E+00  7.72261074E+00 -1.54452215E+01  7.72261074E+00
  7.72261074E+00 -1.54452215E+01  7.72261074E+00  7.72261074E+00 -1.54452215E+01
  7.72261074E+00  7.72261074E+00 -1.54452215E+01  7.72261074E+00  7.72261074E+00
 -1.54452215E+01  7.72261074E+00  7.72261074E+00 -1.54452215E+01  7.72261074E+00
  7.72261074E+00 -1.54452215E+01  7.72261074E+00  7.72261074E+00 -1.54452215E+01
  7.72261074E+00  7.72261074E+00 -1.54452215E+01  7.72261074E+00  7.72261074E+00
 -1.54452215E+01  7.72261074E+00  7.72261074E+00 -1.54452215E+01  7.72261074E+00
  7.72261074E+00 -1.54452215E+01  7.72261074E+00  7.72261074E+00 -1.54452215E+01
  7.72261074E+00  7.72261074E+00 -1.54452215E+01  7.72261074E+00  7.72261074E+00
 -1.54452215E+01  7.72261074E+00  7.72261074E+00 -1.54452215E+01  7.72261074E+00
  7.72261074E+00 -1.54452215E+01  7.72261074E+00  7.72261074E+00 -1.54452215E+01
  7.72261074E+00  7.72261074E+00 -1.54452215E+01  7.72261074E+00  7.72261074E+00
 -1.54452215E+01  7.72261074E+00  7.72261074E+00 -1.54452215E+01  7.72261074E+00
  7.72261074E+00 -1.54452215E+01  7.72261074E+00  7.72261074E+00 -1.54452215E+01
  7.72261074E+00  7.72261074E+00 -1.54452215E+01  7.72261074E+00  7.72261074E+00
 -1.54452215E+01  7.72261074E+00  7.72261074E+00 -1.54452215E+01  7.72261074E+00
  7.72261074E+00 -1.54452215E+01  7.72261074E+00  7.72261074E+00 -1.54452215E+01
  7.72261074E+00  7.72261074E+00 -1.54452215E+01  7.72261074E+00  7.72261074E+00
 -1.54452215E+01  7.72261074E+00  7.72261074E+00 -1.54452215E+01  7.72261074E+00
  7.72261074E+00 -1.54452215E+01  7.72261074E+00  7.72261074E+00 -1.54452215E+01
  7.72261074E+00  7.72261074E+00 -1.54452215E+01  7.72261074E+00  7.72261074E+00
 -1.54452215E+01  7.72261074E+00  7.72261074E+00 -1.54452215E+01  7.72261074E+00
  7.72261074E+00 -1.54452215E+01  7.72261074E+00  7.72261074E+00 -1.54452215E+01
  7.72261074E+00  7.72261074E+00 -1.54452215E+01  7.72261074E+00  7.72261074E+00
 -1.54452215E+01  7.72261074E+00  7.72261074E+00 -1.54452215E+01  7.72261074E+00
  7.72261074E+00 -1.54452215E+01  7.72261074E+00  7.72261074E+00 -1.54452215E+01
  7.72261074E+00  7.72261074E+00 -1.54452215E+01  7.72261074E+00  7.72261074E+00
 -1.54452215E+01  7.72261074E+00  7.72261074E+00 -1.54452215E+01  7.72261074E+00
  7.72261074E+00 -1.54452215E+01  7.72261074E+00  7.72261074E+00 -1.54452215E+01
  7.72261074E+00  7.72261074E+00 -1.54452215E+01  7.72261074E+00  7.72261074E+00
 -1.54452215E+01  7.72261074E+00  7.72261074E+00 -1.54452215E+01  7.72261074E+00
  7.72261074E+00 -1.54452215E+01  7.72261074E+00  7.72261074E+00 -1.54452215E+01
  7.72261074E+00  7.72261074E+00 -1.54452215E+01  7.72261074E+00  7.72261074E+00
 -1.54452215E+01  7.72261074E+00  7.72261074E+00 -1.54452215E+01  7.72261074E+00
  7.72261074E+00 -1.54452215E+01  7.72261074E+00  7.72261074E+00 -1.54452215E+01
  7.72261074E+00  7.72261074E+00 -1.54452215E+01  7.72261074E+00  7.72261074E+00
 -1.54452215E+01  7.72261074E+00  7.72261074E+00 -1.54452215E+01  7.72261074E+00
  7.72261074E+00 -1.54452215E+01  7.72261074E+00  7.72261074E+00 -1.54452215E+01
  7.72261074E+00  7.72261074E+00 -1.54452215E+01  7.72261074E+00  7.72261074E+00
 -1.54452215E+01  7.72261074E+00  7.72261074E+00 -1.54452215E+01  7.72261074E+00
  7.72261074E+00 -1.54452215E+01  7.72261074E+00  7.72261074E+00 -1.54452215E+01
  7.72261074E+00  7.72261074E+00 -1.54452215E+01  7.72261074E+00  7.72261074E+00
 -1.54452215E+01  7.72261074E+00  7.72261074E+00 -1.54452215E+01  7.72261074E+00
  7.72261074E+00 -1.54452215E+01  7.72261074E+00  7.72261074E+00 -1.54452215E+01
  7.72261074E+00  7.72261074E+00 -1.54452215E+01  7.72261074E+00  7.72261074E+00
 -1.54452215E+01  7.72261074E+00  7.72261074E+00 -1.54452215E+01  7.72261074E+00
  7.72261074E+00 -1.54452215E+01  7.72261074E+00  7.72261074E+00 -1.54452215E+01
  7.72261074E+00  7.72261074E+00 -1.54452215E+01  7.72261074E+00  7.72261074E+00
 -1.54452215E+01  7.72261074E+00  7.72261074E+00 -1.54452215E+01  7.72261074E+00
  7.72261074E+00 -1.54452215E+01  7.72261074E+00  7.72261074E+00 -1.54452215E+01
  7.72261074E+00  7.72261074E+00 -1.54452215E+01  7.72261074E+00  7.72261074E+00
 -1.54452215E+01  7.72261074E+00  7.72261074E+00 -1.54452215E+01  7.72261074E+00
  7.72261074E+00 -1.54452215E+01  7.72261074E+00  7.72261074E+00 -1.54452215E+01
  7.72261074E+00  7.72261074E+00 -1.54452215E+01  7.72261074E+00  7.72261074E+00
 -1.54452215E+01  7.72261074E+00  7.72261074E+00 -1.54452215E+01  7.72261074E+00
  7.72261074E+00 -1.54452215E+01  7.72261074E+00  7.72261074E+00 -1.54452215E+01
  7.72261074E+00  7.72261074E+00 -1.54452215E+01  7.72261074E+00  7.72261074E+00
 -1.54452215E+01  7.72261074E+00  7.72261074E+00 -1.54452215E+01  7.72261074E+00
  7.72261074E+00 -1.54452215E+01  7.72261074E+00  7.72261074E+00 -1.54452215E+01
  7.72261074E+00  7.72261074E+00 -1.54452215E+01  7.72261074E+00  7.72261074E+00
 -1.54452215E+01  7.72261074E+00  7.72261074E+00 -1.54452215E+01  7.72261074E+00
  7.72261074E+00 -1.54452215E+01  7.72261074E+00  7.72261074E+00 -1.54452215E+01
  7.72261074E+00  7.72261074E+00 -1.54452215E+01  7.72261074E+00  7.72261074E+00
 -1.54452215E+01  7.72261074E+00  7.72261074E+00 -1.54452215E+01  7.72261074E+00
  7.72261074E+00 -1.54452215E+01  7.72261074E+00  7.72261074E+00 -1.54452215E+01
  7.72261074E+00  7.72261074E+00 -1.54452215E+01  7.72261074E+00  7.72261074E+00
 -1.54452215E+01  7.72261074E+00  7.72261074E+00 -1.54452215E+01  7.72261074E+00
  7.72261074E+00 -1.54452215E+01  7.72261074E+00  7.72261074E+00 -1.54452215E+01
  7.72261074E+00  7.72261074E+00 -1.54452215E+01  7.72261074E+00  7.72261074E+00
 -1.54452215E+01  7.72261074E+00  7.72261074E+00 -1.54452215E+01  7.72261074E+00
  7.72261074E+00 -1.54452215E+01  7.72261074E+00  7.72261074E+00 -1.54452215E+01
  7.72261074E+00  7.72261074E+00 -1.54452215E+01  7.72261074E+00  7.72261074E+00
 -1.54452215E+01  7.72261074E+00  7.72261074E+00 -1.54452215E+01  7.72261074E+00
  7.72261074E+00 -1.54452215E+01  7.72261074E+00  7.72261074E+00 -1.54452215E+01
  7.72261074E+00  7.72261074E+00 -1.54452215E+01  7.72261074E+00  7.72261074E+00
 -1.54452215E+01  7.72261074E+00  7.72261074E+00 -1.54452215E+01  7.72261074E+00
  7.72261074E+00 -1.54452215E+01  7.72261074E+00  7.72261074E+00 -1.54452215E+01
  7.72261074E+00  7.72261074E+00 -1.54452215E+01  7.72261074E+00  7.72261074E+00
 -1.54452215E+01  7.72261074E+00  7.72261074E+00 -1.54452215E+01  7.72261074E+00
  7.72261074E+00 -1.54452215E+01  7.72261074E+00  7.72261074E+00 -1.54452215E+01
  7.72261074E+00  7.72261074E+00 -1.54452215E+01  7.72261074E+00  7.72261074E+00
 -1.54452215E+01  7.72261074E+00  7.72261074E+00 -1.54452215E+01  7.72261074E+00
  7.72261074E+00 -1.54452215E+01  7.72261074E+00  7.72261074E+00 -1.54452215E+01
  7.72261074E+00  7.72261074E+00 -1.54452215E+01  7.72261074E+00  7.72261074E+00
 -1.54452215E+01  7.72261074E+00  7.72261074E+00 -1.54452215E+01  7.72261074E+00
  7.72261074E+00 -1.54452215E+01  7.72261074E+00  7.72261074E+00 -1.54452215E+01
  7.72261074E+00  7.72261074E+00 -1.54452215E+01  7.72261074E+00  7.72261074E+00
 -1.54452215E+01  7.72261074E+00  7.72261074E+00 -1.54452215E+01  7.72261074E+00
  7.72261074E+00 -1.54452215E+01  7.72261074E+00  7.72261074E+00 -1.54452215E+01
  7.72261074E+00  7.72261074E+00 -1.54452215E+01  7.72261074E+00  7.72261074E+00
 -1.54452215E+01  7.72261074E+00  7.72261074E+00 -1.54452215E+01  7.72261074E+00
  7.72261074E+00 -1.54452215E+01  7.72261074E+00  7.72261074E+00 -1.54452215E+01
  7.72261074E+00  7.72261074E+00 -1.54452215E+01  7.72261074E+00  7.72261074E+00
 -1.54452215E+01  7.72261074E+00  7.72261074E+00 -1.54452215E+01  7.72261074E+00
  7.72261074E+00 -1.54452215E+01  7.72261074E+00  7.72261074E+00 -1.54452215E+01
  7.72261074E+00  7.72261074E+00 -1.54452215E+01  7.72261074E+00  7.72261074E+00
 -1.54452215E+01  7.72261074E+00  7.72261074E+00 -1.54452215E+01  7.72261074E+00
  7.72261074E+00 -1.54452215E+01  7.72261074E+00  7.72261074E+00 -1.54452215E+01
  7.72261074E+00  7.72261074E+00 -1.54452215E+01  7.72261074E+00  7.72261074E+00
 -1.54452215E+01  7.72261074E+00  7.72261074E+00 -1.54452215E+01  7.72261074E+00
  7.72261074E+00 -1.54452215E+01  7.72261074E+00  7.72261074E+00 -1.54452215E+01
  7.72261074E+00  7.72261074E+00 -1.54452215E+01  7.72261074E+00  7.72261074E+00
 -1.54452215E+01  7.72261074E+00  7.72261074E+00 -1.54452215E+01  7.72261074E+00
  7.72261074E+00 -1.54452215E+01  7.72261074E+00  7.72261074E+00 -1.54452215E+01
  7.72261074E+00  7.72261074E+00 -1.54452215E+01  7.72261074E+00  7.72261074E+00
 -1.54452215E+01  7.72261074E+00  7.72261074E+00 -1.54452215E+01  7.72261074E+00
  7.72261074E+00 -1.54452215E+01  7.72261074E+00  7.72261074E+00 -1.54452215E+01
  7.72261074E+00  7.72261074E+00 -1.54452215E+01  7.72261074E+00  7.72261074E+00
 -1.54452215E+01  7.72261074E+00  7.72261074E+00 -1.54452215E+01  7.72261074E+00
  7.72261074E+00 -1.54452215E+01  7.72261074E+00  7.72261074E+00 -1.54452215E+01
  7.72261074E+00  7.72261074E+00 -1.54452215E+01  7.72261074E+00  7.72261074E+00
 -1.54452215E+01  7.72261074E+00  7.72261074E+00 -1.54452215E+01  7.72261074E+00
  7.72261074E+00 -1.54452215E+01  7.72261074E+00  7.72261074E+00 -1.54452215E+01
  7.72261074E+00  7.72261074E+00 -1.54452215E+01  7.72261074E+00  7.72261074E+00
 -1.54452215E+01  7.72261074E+00  7.72261074E+00 -1.54452215E+01  7.72261074E+00
  7.72261074E+00 -1.54452215E+01  7.72261074E+00  7.72261074E+00 -1.54452215E+01
  7.72261074E+00  7.72261074E+00 -1.54452215E+01  7.72261074E+00  7.72261074E+00
 -1.54452215E+01  7.72261074E+00  7.72261074E+00 -1.54452215E+01  7.72261074E+00
  7.72261074E+00 -1.54452215E+01  7.72261074E+00  7.72261074E+00 -1.54452215E+01
  7.72261074E+00  7.72261074E+00 -1.54452215E+01  7.72261074E+00  7.72261074E+00
 -1.54452215E+01  7.72261074E+00  7.72261074E+00 -1.54452215E+01  7.72261074E+00
  7.72261074E+00 -1.54452215E+01  7.72261074E+00  7.72261074E+00 -1.54452215E+01
  7.72261074E+00  7.72261074E+00 -1.54452215E+01  7.72261074E+00  7.72261074E+00
 -1.54452215E+01  7.72261074E+00  7.72261074E+00 -1.54452215E+01  7.72261074E+00
  7.72261074E+00 -1.54452215E+01  7.72261074E+00  7.72261074E+00 -1.54452215E+01
  7.72261074E+00  7.72261074E+00 -1.54452215E+01  7.72261074E+00  7.72261074E+00
 -1.54452215E+01  7.72261074E+00  7.72261074E+00 -1.54452215E+01  7.72261074E+00
  7.72261074E+00 -1.54452215E+01  7.72261074E+00  7.72261074E+00 -1.54452215E+01
  7.72261074E+00  7.72261074E+00 -1.54452215E+01  7.72261074E+00  7.72261074E+00
 -1.54452215E+01  7.72261074E+00  7.72261074E+00 -1.54452215E+01  7.72261074E+00
  7.72261074E+00 -1.54452215E+01  7.72261074E+00  7.72261074E+00 -1.54452215E+01
  7.72261074E+00  7.72261074E+00 -1.54452215E+01  7.72261074E+00  7.72261074E+00
 -1.54452215E+01  7.72261074E+00  7.72261074E+00 -1.54452215E+01  7.72261074E+00
  7.72261074E+00 -1.54452215E+01  7.72261074E+00  7.72261074E+00 -1.54452215E+01
  7.72261074E+00  7.72261074E+00 -1.54452215E+01  7.72261074E+00  7.72261074E+00
 -1.54452215E+01  7.72261074E+00  7.72261074E+00 -1.54452215E+01  7.72261074E+00
  7.72261074E+00 -1.54452215E+01  7.72261074E+00  7.72261074E+00 -1.54452215E+01
  7.72261074E+00  7.72261074E+00 -1.54452215E+01  7.72261074E+00  7.72261074E+00
 -1.54452215E+01  7.72261074E+00  7.72261074E+00 -1.54452215E+01  7.72261074E+00
  7.72261074E+00 -1.54452215E+01  7.72261074E+00  7.72261074E+00 -1.54452215E+01
  7.72261074E+00  7.72261074E+00 -1.54452215E+01  7.72261074E+00  7.72261074E+00
 -1.54452215E+01  7.72261074E+00  7.72261074E+00 -1.54452215E+01  7.72261074E+00
  7.72261074E+00 -1.54452215E+01  7.72261074E+00  7.72261074E+00 -1.54452215E+01
  7.72261074E+00  7.72261074E+00 -1.54452215E+01  7.72261074E+00  7.72261074E+00
 -1.54452215E+01  7.72261074E+00  7.72261074E+00 -1.54452215E+01  7.72261074E+00
  7.72261074E+00 -1.54452215E+01  7.72261074E+00  7.72261074E+00 -1.54452215E+01
  7.72261074E+00  7.72261074E+00 -1.54452215E+01  7.72261074E+00  7.72261074E+00
 -1.54452215E+01  7.72261074E+00  7.72261074E+00 -1.54452215E+01  7.72261074E+00
  7.72261074E+00 -1.54452215E+01  7.72261074E+00  7.72261074E+00 -1.54452215E+01
  7.72261074E+00  7.72261074E+00 -1.54452215E+01  7.72261074E+00  7.72261074E+00
 -1.54452215E+01  7.72261074E+00  7.72261074E+00 -1.54452215E+01  7.72261074E+00
  7.72261074E+00 -1.54452215E+01  7.72261074E+00  7.72261074E+00 -1.54452215E+01
  7.72261074E+00  7.72261074E+00 -1.54452215E+01  7.72261074E+00  7.72261074E+00
 -1.54452215E+01  7.72261074E+00  7.72261074E+00 -1.54452215E+01  7.72261074E+00
  7.72261074E+00 -1.54452215E+01  7.72261074E+00  7.72261074E+00 -1.54452215E+01
  7.72261074E+00  7.72261074E+00 -1.54452215E+01  7.72261074E+00  7.72261074E+00
 -1.54452215E+01  7.72261074E+00  7.72261074E+00 -1.54452215E+01  7.72261074E+00
  7.72261074E+00 -1.54452215E+01  7.72261074E+00  7.72261074E+00 -1.54452215E+01
  7.72261074E+00  7.72261074E+00 -1.54452215E+01  7.72261074E+00  7.72261074E+00
 -1.54452215E+01  7.72261074E+00  7.72261074E+00 -1.54452215E+01  7.72261074E+00
  7.72261074E+00 -1.54452215E+01  7.72261074E+00  7.72261074E+00 -1.54452215E+01
  7.72261074E+00  7.72261074E+00 -1.54452215E+01  7.72261074E+00  7.72261074E+00
 -1.54452215E+01  7.72261074E+00  7.72261074E+00 -1.54452215E+01  7.72261074E+00
  7.72261074E+00 -1.54452215E+01  7.72261074E+00  7.72261074E+00 -1.54452215E+01
  7.72261074E+00  7.72261074E+00 -1.54452215E+01  7.72261074E+00  7.72261074E+00
 -1.54452215E+01  7.72261074E+00  7.72261074E+00 -1.54452215E+01  7.72261074E+00
  7.72261074E+00 -1.54452215E+01  7.72261074E+00  7.72261074E+00 -1.54452215E+01
  7.72261074E+00  7.72261074E+00 -1.54452215E+01  7.72261074E+00  7.72261074E+00
 -1.54452215E+01  7.72261074E+00  7.72261074E+00 -1.54452215E+01  7.72261074E+00
  7.72261074E+00 -1.54452215E+01  7.72261074E+00  7.72261074E+00 -1.54452215E+01
  7.72261074E+00  7.72261074E+00 -1.54452215E+01  7.72261074E+00  7.72261074E+00
 -1.54452215E+01  7.72261074E+00  7.72261074E+00 -1.54452215E+01  7.72261074E+00
  7.72261074E+00 -1.54452215E+01  7.72261074E+00  7.72261074E+00 -1.54452215E+01
  7.72261074E+00  7.72261074E+00 -1.54452215E+01  7.72261074E+00  7.72261074E+00
 -1.54452215E+01  7.72261074E+00  7.72261074E+00 -1.54452215E+01  7.72261074E+00
  7.72261074E+00 -1.54452215E+01  7.72261074E+00  7.72261074E+00 -1.54452215E+01
  7.72261074E+00  7.72261074E+00 -1.54452215E+01  7.72261074E+00  7.72261074E+00
 -1.54452215E+01  7.72261074E+00  7.72261074E+00 -1.54452215E+01  7.72261074E+00
  7.72261074E+00 -1.54452215E+01  7.72261074E+00  7.72261074E+00 -1.54452215E+01
  7.72261074E+00  7.72261074E+00 -1.54452215E+01  7.72261074E+00  7.72261074E+00
 -1.54452215E+01  7.72261074E+00  7.72261074E+00 -1.54452215E+01  7.72261074E+00
  7.72261074E+00 -1.54452215E+01  7.72261074E+00  7.72261074E+00 -1.54452215E+01
  7.72261074E+00  7.72261074E+00 -1.54452215E+01  7.72261074E+00  7.72261074E+00
 -1.54452215E+01  7.72261074E+00  7.72261074E+00 -1.54452215E+01  7.72261074E+00
  7.72261074E+00 -1.54452215E+01  7.72261074E+00  7.72261074E+00 -1.54452215E+01
  7.72261074E+00  7.72261074E+00 -1.54452215E+01  7.72261074E+00  7.72261074E+00
 -1.54452215E+01  7.72261074E+00  7.72261074E+00 -1.54452215E+01  7.72261074E+00
  7.72261074E+00 -1.54452215E+01  7.72261074E+00  7.72261074E+00 -1.54452215E+01
  7.72261074E+00  7.72261074E+00 -1.54452215E+01  7.72261074E+00  7.72261074E+00
 -1.54452215E+01  7.72261074E+00  7.72261074E+00 -1.54452215E+01  7.72261074E+00
  7.72261074E+00 -1.54452215E+01  7.72261074E+00  7.72261074E+00 -1.54452215E+01
  7.72261074E+00  7.72261074E+00 -1.54452215E+01  7.72261074E+00  7.72261074E+00
 -1.54452215E+01  7.72261074E+00  7.72261074E+00 -1.54452215E+01  7.72261074E+00
  7.72261074E+00 -1.54452215E+01  7.72261074E+00  7.72261074E+00 -1.54452215E+01
  7.72261074E+00  7.72261074E+00 -1.54452215E+01  7.72261074E+00  7.72261074E+00
 -1.54452215E+01  7.72261074E+00  7.72261074E+00 -1.54452215E+01  7.72261074E+00
  7.72261074E+00 -1.54452215E+01  7.72261074E+00  7.72261074E+00 -1.54452215E+01
  7.72261074E+00  7.72261074E+00 -1.54452215E+01  7.72261074E+00  7.72261074E+00
 -1.54452215E+01  7.72261074E+00  7.72261074E+00 -1.54452215E+01  7.72261074E+00
  7.72261074E+00 -1.54452215E+01  7.72261074E+00  7.72261074E+00 -1.54452215E+01
  7.72261074E+00  7.72261074E+00 -1.54452215E+01  7.72261074E+00  7.72261074E+00
 -1.54452215E+01  7.72261074E+00  7.72261074E+00 -1.54452215E+01  7.72261074E+00
  7.72261074E+00 -1.54452215E+01  7.72261074E+00  7.72261074E+00 -1.54452215E+01
  7.72261074E+00  7.72261074E+00 -1.54452215E+01  7.72261074E+00  7.72261074E+00
 -1.54452215E+01  7.72261074E+00  7.72261074E+00 -1.54452215E+01  7.72261074E+00
  7.72261074E+00 -1.54452215E+01  7.72261074E+00  7.72261074E+00 -1.54452215E+01
  7.72261074E+00  7.72261074E+00 -1.54452215E+01  7.72261074E+00  7.72261074E+00
 -1.54452215E+01  7.72261074E+00  7.72261074E+00 -1.54452215E+01  7.72261074E+00
  7.72261074E+00 -1.54452215E+01  7.72261074E+00  7.72261074E+00 -1.54452215E+01
  7.72261074E+00  7.72261074E+00 -1.54452215E+01  7.72261074E+00  7.72261074E+00
 -1.54452215E+01  7.72261074E+00  7.72261074E+00 -1.54452215E+01  7.72261074E+00
  7.72261074E+00 -1.54452215E+01  7.72261074E+00  7.72261074E+00 -1.54452215E+01
  7.72261074E+00  7.72261074E+00 -1.54452215E+01  7.72261074E+00  7.72261074E+00
 -1.54452215E+01  7.72261074E+00  7.72261074E+00 -1.54452215E+01  7.72261074E+00
  7.72261074E+00 -1.54452215E+01  7.72261074E+00  7.72261074E+00 -1.54452215E+01
  7.72261074E+00  7.72261074E+00 -1.54452215E+01  7.72261074E+00  7.72261074E+00
 -1.54452215E+01  7.72261074E+00  7.72261074E+00 -1.54452215E+01  7.72261074E+00
  7.72261074E+00 -1.54452215E+01  7.72261074E+00  7.72261074E+00 -1.54452215E+01
  7.72261074E+00  7.72261074E+00 -1.54452215E+01  7.72261074E+00  7.72261074E+00
 -1.54452215E+01  7.72261074E+00  7.72261074E+00 -1.54452215E+01  7.72261074E+00
  7.72261074E+00 -1.54452215E+01  7.72261074E+00  7.72261074E+00 -1.54452215E+01
  7.72261074E+00  7.72261074E+00 -1.54452215E+01  7.72261074E+00  7.72261074E+00
 -1.54452215E+01  7.72261074E+00  7.72261074E+00 -1.54452215E+01  7.72261074E+00
  7.72261074E+00 -1.54452215E+01  7.72261074E+00  7.72261074E+00 -1.54452215E+01
  7.72261074E+00  7.72261074E+00 -1.54452215E+01  7.72261074E+00  7.72261074E+00
 -1.54452215E+01  7.72261074E+00  7.72261074E+00 -1.54452215E+01  7.72261074E+00
  7.72261074E+00 -1.54452215E+01  7.72261074E+00  7.72261074E+00 -1.54452215E+01
  7.72261074E+00  7.72261074E+00 -1.54452215E+01  7.72261074E+00  7.72261074E+00
 -1.54452215E+01  7.72261074E+00  7.72261074E+00 -1.54452215E+01  7.72261074E+00
  7.72261074E+00 -1.54452215E+01  7.72261074E+00  7.72261074E+00 -1.54452215E+01
  7.72261074E+00  7.72261074E+00 -1.54452215E+01  7.72261074E+00  7.72261074E+00
 -1.54452215E+01  7.72261074E+00  7.72261074E+00 -1.54452215E+01  7.72261074E+00
  7.72261074E+00 -1.54452215E+01  7.72261074E+00  7.72261074E+00 -1.54452215E+01
  7.72261074E+00  7.72261074E+00 -1.54452215E+01  7.72261074E+00  7.72261074E+00
 -1.54452215E+01  7.72261074E+00  7.72261074E+00 -1.54452215E+01  7.72261074E+00
  7.72261074E+00 -1.54452215E+01  7.72261074E+00  7.72261074E+00 -1.54452215E+01
  7.72261074E+00  7.72261074E+00 -1.54452215E+01  7.72261074E+00  7.72261074E+00
 -1.54452215E+01  7.72261074E+00  7.72261074E+00 -1.54452215E+01  7.72261074E+00
  7.72261074E+00 -1.54452215E+01  7.72261074E+00  7.72261074E+00 -1.54452215E+01
  7.72261074E+00  7.72261074E+00 -1.54452215E+01  7.72261074E+00  7.72261074E+00
 -1.54452215E+01  7.72261074E+00  7.72261074E+00 -1.54452215E+01  7.72261074E+00
  7.72261074E+00 -1.54452215E+01  7.72261074E+00  7.72261074E+00 -1.54452215E+01
  7.72261074E+00  7.72261074E+00 -1.54452215E+01  7.72261074E+00  7.72261074E+00
 -1.54452215E+01  7.72261074E+00  7.72261074E+00 -1.54452215E+01  7.72261074E+00
  7.72261074E+00 -1.54452215E+01  7.72261074E+00  7.72261074E+00 -1.54452215E+01
  7.72261074E+00  7.72261074E+00 -1.54452215E+01  7.72261074E+00  7.72261074E+00
 -1.54452215E+01  7.72261074E+00  7.72261074E+00 -1.54452215E+01  7.72261074E+00
  7.72261074E+00 -1.54452215E+01  7.72261074E+00  7.72261074E+00 -1.54452215E+01
  7.72261074E+00  7.72261074E+00 -1.54452215E+01  7.72261074E+00  7.72261074E+00
 -1.54452215E+01  7.72261074E+00  7.72261074E+00 -1.54452215E+01  7.72261074E+00
  7.72261074E+00 -1.54452215E+01  7.72261074E+00  7.72261074E+00 -1.54452215E+01
  7.72261074E+00  7.72261074E+00 -1.54452215E+01  7.72261074E+00  7.72261074E+00
 -1.54452215E+01  7.72261074E+00  7.72261074E+00 -1.54452215E+01  7.72261074E+00
  7.72261074E+00 -1.54452215E+01  7.72261074E+00  7.72261074E+00 -1.54452215E+01
  7.72261074E+00  7.72261074E+00 -1.54452215E+01  7.72261074E+00  7.72261074E+00
 -1.54452215E+01  7.72261074E+00  7.72261074E+00 -1.54452215E+01  7.72261074E+00
  7.72261074E+00 -1.54452215E+01  7.72261074E+00  7.72261074E+00 -1.54452215E+01
  7.72261074E+00  7.72261074E+00 -1.54452215E+01  7.72261074E+00  7.72261074E+00
 -1.54452215E+01  7.72261074E+00  7.72261074E+00 -1.54452215E+01  7.72261074E+00
  7.72261074E+00 -1.54452215E+01  7.72261074E+00  7.72261074E+00 -1.54452215E+01
  7.72261074E+00  7.72261074E+00 -1.54452215E+01  7.72261074E+00  7.72261074E+00
 -1.54452215E+01  7.72261074E+00  7.72261074E+00 -1.54452215E+01  7.72261074E+00
  7.72261074E+00 -1.54452215E+01  7.72261074E+00  7.72261074E+00 -1.54452215E+01
  7.72261074E+00  7.72261074E+00 -1.54452215E+01  7.72261074E+00  7.72261074E+00
 -1.54452215E+01  7.72261074E+00  7.72261074E+00 -1.54452215E+01  7.72261074E+00
  7.72261074E+00 -1.54452215E+01  7.72261074E+00  7.72261074E+00 -1.54452215E+01
  7.72261074E+00  7.72261074E+00 -1.54452215E+01  7.72261074E+00  7.72261074E+00
 -1.54452215E+01  7.72261074E+00  7.72261074E+00 -1.54452215E+01  7.72261074E+00
  7.72261074E+00 -1.54452215E+01  7.72261074E+00  7.72261074E+00 -1.54452215E+01
  7.72261074E+00  7.72261074E+00 -1.54452215E+01  7.72261074E+00  7.72261074E+00
 -1.54452215E+01  7.72261074E+00  7.72261074E+00 -1.54452215E+01  7.72261074E+00
  7.72261074E+00 -1.54452215E+01  7.72261074E+00  7.72261074E+00 -1.54452215E+01
  7.72261074E+00  7.72261074E+00 -1.54452215E+01  7.72261074E+00  7.72261074E+00
 -1.54452215E+01  7.72261074E+00  7.72261074E+00 -1.54452215E+01  7.72261074E+00
  7.72261074E+00 -1.54452215E+01  7.72261074E+00  7.72261074E+00 -1.54452215E+01
  7.72261074E+00  7.72261074E+00 -1.54452215E+01  7.72261074E+00  7.72261074E+00
 -1.54452215E+01  7.72261074E+00  7.72261074E+00 -1.54452215E+01  7.72261074E+00
  7.72261074E+00 -1.54452215E+01  7.72261074E+00  7.72261074E+00 -1.54452215E+01
  7.72261074E+00  7.72261074E+00 -1.54452215E+01  7.72261074E+00  7.72261074E+00
 -1.54452215E+01  7.72261074E+00  7.72261074E+00 -1.54452215E+01  7.72261074E+00
  7.72261074E+00 -1.54452215E+01  7.72261074E+00  7.72261074E+00 -1.54452215E+01
  7.72261074E+00  7.72261074E+00 -1.54452215E+01  7.72261074E+00  7.72261074E+00
 -1.54452215E+01  7.72261074E+00  7.72261074E+00 -1.54452215E+01  7.72261074E+00
  7.72261074E+00 -1.54452215E+01  7.72261074E+00  7.72261074E+00 -1.54452215E+01
  7.72261074E+00  7.72261074E+00 -1.54452215E+01  7.72261074E+00  7.72261074E+00
 -1.54452215E+01  7.72261074E+00  7.72261074E+00 -1.54452215E+01  7.72261074E+00
  7.72261074E+00 -1.54452215E+01  7.72261074E+00  7.72261074E+00 -1.54452215E+01
  7.72261074E+00  7.72261074E+00 -1.54452215E+01  7.72261074E+00  7.72261074E+00
 -1.54452215E+01  7.72261074E+00  7.72261074E+00 -1.54452215E+01  7.72261074E+00
  7.72261074E+00 -1.54452215E+01  7.72261074E+00  7.72261074E+00 -1.54452215E+01
  7.72261074E+00  7.72261074E+00 -1.54452215E+01  7.72261074E+00  7.72261074E+00
 -1.54452215E+01  7.72261074E+00  7.72261074E+00 -1.54452215E+01  7.72261074E+00
  7.72261074E+00 -1.54452215E+01  7.72261074E+00  7.72261074E+00 -1.54452215E+01
  7.72261074E+00  7.72261074E+00 -1.54452215E+01  7.72261074E+00  7.72261074E+00
 -1.54452215E+01  7.72261074E+00  7.72261074E+00 -1.54452215E+01  7.72261074E+00
  7.72261074E+00 -1.54452215E+01  7.72261074E+00  7.72261074E+00 -1.54452215E+01
  7.72261074E+00  7.72261074E+00 -1.54452215E+01  7.72261074E+00  7.72261074E+00
 -1.54452215E+01  7.72261074E+00  7.72261074E+00 -1.54452215E+01  7.72261074E+00
  7.72261074E+00 -1.54452215E+01  7.72261074E+00  7.72261074E+00 -1.54452215E+01
  7.72261074E+00  7.72261074E+00 -1.54452215E+01  7.72261074E+00  7.72261074E+00
 -1.54452215E+01  7.72261074E+00  7.72261074E+00 -1.54452215E+01  7.72261074E+00
  7.72261074E+00 -1.54452215E+01  7.72261074E+00  7.72261074E+00 -1.54452215E+01
  7.72261074E+00  7.72261074E+00 -1.54452215E+01  7.72261074E+00  7.72261074E+00
 -1.54452215E+01  7.72261074E+00  7.72261074E+00 -1.54452215E+01  7.72261074E+00
  7.72261074E+00 -1.54452215E+01  7.72261074E+00  7.72261074E+00 -1.54452215E+01
  7.72261074E+00  7.72261074E+00 -1.54452215E+01  7.72261074E+00  7.72261074E+00
 -1.54452215E+01  7.72261074E+00  7.72261074E+00 -1.54452215E+01  7.72261074E+00
  7.72261074E+00 -1.54452215E+01  7.72261074E+00  7.72261074E+00 -1.54452215E+01
  7.72261074E+00  7.72261074E+00 -1.54452215E+01  7.72261074E+00  7.72261074E+00
 -1.54452215E+01  7.72261074E+00  7.72261074E+00 -1.54452215E+01  7.72261074E+00
  7.72261074E+00 -1.54452215E+01  7.72261074E+00  7.72261074E+00 -1.54452215E+01
  7.72261074E+00  7.72261074E+00 -1.54452215E+01  7.72261074E+00  7.72261074E+00
 -1.54452215E+01  7.72261074E+00  7.72261074E+00 -1.54452215E+01  7.72261074E+00
  7.72261074E+00 -1.54452215E+01  7.72261074E+00  7.72261074E+00 -1.54452215E+01
  7.72261074E+00  7.72261074E+00 -1.54452215E+01  7.72261074E+00  7.72261074E+00
 -1.54452215E+01  7.72261074E+00  7.72261074E+00 -1.54452215E+01  7.72261074E+00
  7.72261074E+00 -1.54452215E+01  7.72261074E+00  7.72261074E+00 -1.54452215E+01
  7.72261074E+00  7.72261074E+00 -1.54452215E+01  7.72261074E+00  7.72261074E+00
 -1.54452215E+01  7.72261074E+00  7.72261074E+00 -1.54452215E+01  7.72261074E+00
  7.72261074E+00 -1.54452215E+01  7.72261074E+00  7.72261074E+00 -1.54452215E+01
  7.72261074E+00  7.72261074E+00 -1.54452215E+01  7.72261074E+00  7.72261074E+00
 -1.54452215E+01  7.72261074E+00  7.72261074E+00 -1.54452215E+01  7.72261074E+00
  7.72261074E+00 -1.54452215E+01  7.72261074E+00  7.72261074E+00 -1.54452215E+01
  7.72261074E+00  7.72261074E+00 -1.54452215E+01  7.72261074E+00  7.72261074E+00
 -1.54452215E+01  7.72261074E+00  7.72261074E+00 -1.54452215E+01  7.72261074E+00
  7.72261074E+00 -1.54452215E+01  7.72261074E+00  7.72261074E+00 -1.54452215E+01
  7.72261074E+00  7.72261074E+00 -1.54452215E+01  7.72261074E+00  7.72261074E+00
 -1.54452215E+01  7.72261074E+00  7.72261074E+00 -1.54452215E+01  7.72261074E+00
  7.72261074E+00 -1.54452215E+01  7.72261074E+00  7.72261074E+00 -1.54452215E+01
  7.72261074E+00  7.72261074E+00 -1.54452215E+01  7.72261074E+00  7.72261074E+00
 -1.54452215E+01  7.72261074E+00  7.72261074E+00 -1.54452215E+01  7.72261074E+00
  7.72261074E+00 -1.54452215E+01  7.72261074E+00  7.72261074E+00 -1.54452215E+01
  7.72261074E+00  7.72261074E+00 -1.54452215E+01  7.72261074E+00  7.72261074E+00
 -1.54452215E+01  7.72261074E+00  7.72261074E+00 -1.54452215E+01  7.72261074E+00
  7.72261074E+00 -1.54452215E+01  7.72261074E+00  7.72261074E+00 -1.54452215E+01
  7.72261074E+00  7.72261074E+00 -1.54452215E+01  7.72261074E+00  7.72261074E+00
 -1.54452215E+01  7.72261074E+00  7.72261074E+00 -1.54452215E+01  7.72261074E+00
  7.72261074E+00 -1.54452215E+01  7.72261074E+00  7.72261074E+00 -1.54452215E+01
  7.72261074E+00  7.72261074E+00 -1.54452215E+01  7.72261074E+00  7.72261074E+00
 -1.54452215E+01  7.72261074E+00  7.72261074E+00 -1.54452215E+01  7.72261074E+00
  7.72261074E+00 -1.54452215E+01  7.72261074E+00  7.72261074E+00 -1.54452215E+01
  7.72261074E+00  7.72261074E+00 -1.54452215E+01  7.72261074E+00  7.72261074E+00
 -1.54452215E+01  7.72261074E+00  7.72261074E+00 -1.54452215E+01  7.72261074E+00
  7.72261074E+00 -1.54452215E+01  7.72261074E+00  7.72261074E+00 -1.54452215E+01
  7.72261074E+00  7.72261074E+00 -1.54452215E+01  7.72261074E+00  7.72261074E+00
 -1.54452215E+01  7.72261074E+00  7.72261074E+00 -1.54452215E+01  7.72261074E+00
  7.72261074E+00 -1.54452215E+01  7.72261074E+00  7.72261074E+00 -1.54452215E+01
  7.72261074E+00  7.72261074E+00 -1.54452215E+01  7.72261074E+00  7.72261074E+00
 -1.54452215E+01  7.72261074E+00  7.72261074E+00 -1.54452215E+01  7.72261074E+00
  7.72261074E+00 -1.54452215E+01  7.72261074E+00  7.72261074E+00 -1.54452215E+01
  7.72261074E+00  7.72261074E+00 -1.54452215E+01  7.72261074E+00  7.72261074E+00
 -1.54452215E+01  7.72261074E+00  7.72261074E+00 -1.54452215E+01  7.72261074E+00
  7.72261074E+00 -1.54452215E+01  7.72261074E+00  7.72261074E+00 -1.54452215E+01
  7.72261074E+00  7.72261074E+00 -1.54452215E+01  7.72261074E+00  7.72261074E+00
 -1.54452215E+01  7.72261074E+00  7.72261074E+00 -1.54452215E+01  7.72261074E+00
  7.72261074E+00 -1.54452215E+01  7.72261074E+00  7.72261074E+00 -1.54452215E+01
  7.72261074E+00  7.72261074E+00 -1.54452215E+01  7.72261074E+00  7.72261074E+00
 -1.54452215E+01  7.72261074E+00  7.72261074E+00 -1.54452215E+01  7.72261074E+00
  7.72261074E+00 -1.54452215E+01  7.72261074E+00  7.72261074E+00 -1.54452215E+01
  7.72261074E+00  7.72261074E+00 -1.54452215E+01  7.72261074E+00  7.72261074E+00
 -1.54452215E+01  7.72261074E+00  7.72261074E+00 -1.54452215E+01  7.72261074E+00
  7.72261074E+00 -1.54452215E+01  7.72261074E+00  7.72261074E+00 -1.54452215E+01
  7.72261074E+00  7.72261074E+00 -1.54452215E+01  7.72261074E+00  7.72261074E+00
 -1.54452215E+01  7.72261074E+00  7.72261074E+00 -1.54452215E+01  7.72261074E+00
  7.72261074E+00 -1.54452215E+01  7.72261074E+00  7.72261074E+00 -1.54452215E+01
  7.72261074E+00  7.72261074E+00 -1.54452215E+01  7.72261074E+00  7.72261074E+00
 -1.54452215E+01  7.72261074E+00  7.72261074E+00 -1.54452215E+01  7.72261074E+00
  7.72261074E+00 -1.54452215E+01  7.72261074E+00  7.72261074E+00 -1.54452215E+01
  7.72261074E+00  7.72261074E+00 -1.54452215E+01  7.72261074E+00  7.72261074E+00
 -1.54452215E+01  7.72261074E+00  7.72261074E+00 -1.54452215E+01  7.72261074E+00
  7.72261074E+00 -1.54452215E+01  7.72261074E+00  7.72261074E+00 -1.54452215E+01
  7.72261074E+00  7.72261074E+00 -1.54452215E+01  7.72261074E+00  7.72261074E+00
 -1.54452215E+01  7.72261074E+00  7.72261074E+00 -1.54452215E+01  7.72261074E+00
  7.72261074E+00 -1.54452215E+01  7.72261074E+00  7.72261074E+00 -1.54452215E+01
  7.72261074E+00  7.72261074E+00 -1.54452215E+01  7.72261074E+00  7.72261074E+00
 -1.54452215E+01  7.72261074E+00  7.72261074E+00 -1.54452215E+01  7.72261074E+00
  7.72261074E+00 -1.54452215E+01  7.72261074E+00  7.72261074E+00 -1.54452215E+01
  7.72261074E+00  7.72261074E+00 -1.54452215E+01  7.72261074E+00  7.72261074E+00
 -1.54452215E+01  7.72261074E+00  7.72261074E+00 -1.54452215E+01  7.72261074E+00
  7.72261074E+00 -1.54452215E+01  7.72261074E+00  7.72261074E+00 -1.54452215E+01
  7.72261074E+00  7.72261074E+00 -1.54452215E+01  7.72261074E+00  7.72261074E+00
 -1.54452215E+01  7.72261074E+00  7.72261074E+00 -1.54452215E+01  7.72261074E+00
  7.72261074E+00 -1.54452215E+01  7.72261074E+00  7.72261074E+00 -1.54452215E+01
  7.72261074E+00  7.72261074E+00 -1.54452215E+01  7.72261074E+00  7.72261074E+00
 -1.54452215E+01  7.72261074E+00  7.72261074E+00 -1.54452215E+01  7.72261074E+00
  7.72261074E+00 -1.54452215E+01  7.72261074E+00  7.72261074E+00 -1.54452215E+01
  7.72261074E+00  7.72261074E+00 -1.54452215E+01  7.72261074E+00  7.72261074E+00
 -1.54452215E+01  7.72261074E+00  7.72261074E+00 -1.54452215E+01  7.72261074E+00
  7.72261074E+00 -1.54452215E+01  7.72261074E+00  7.72261074E+00 -1.54452215E+01
  7.72261074E+00  7.72261074E+00 -1.54452215E+01  7.72261074E+00  7.72261074E+00
 -1.54452215E+01  7.72261074E+00  7.72261074E+00 -1.54452215E+01  7.72261074E+00
  7.72261074E+00 -1.54452215E+01  7.72261074E+00  7.72261074E+00 -1.54452215E+01
  7.72261074E+00  7.72261074E+00 -1.54452215E+01  7.72261074E+00  7.72261074E+00
 -1.54452215E+01  7.72261074E+00  7.72261074E+00 -1.54452215E+01  7.72261074E+00
  7.72261074E+00 -1.54452215E+01  7.72261074E+00  7.72261074E+00 -1.54452215E+01
  7.72261074E+00  7.72261074E+00 -1.54452215E+01  7.72261074E+00  7.72261074E+00
 -1.54452215E+01  7.72261074E+00  7.72261074E+00 -1.54452215E+01  7.72261074E+00
  7.72261074E+00 -1.54452215E+01  7.72261074E+00  7.72261074E+00 -1.54452215E+01
  7.72261074E+00  7.72261074E+00 -1.54452215E+01  7.72261074E+00  7.72261074E+00
 -1.54452215E+01  7.72261074E+00  7.72261074E+00 -1.54452215E+01  7.72261074E+00
  7.72261074E+00 -1.54452215E+01  7.72261074E+00  7.72261074E+00 -1.54452215E+01
  7.72261074E+00  7.72261074E+00 -1.54452215E+01  7.72261074E+00  7.72261074E+00
 -1.54452215E+01  7.72261074E+00  7.72261074E+00 -1.54452215E+01  7.72261074E+00
  7.72261074E+00 -1.54452215E+01  7.72261074E+00  7.72261074E+00 -1.54452215E+01
  7.72261074E+00  7.72261074E+00 -1.54452215E+01  7.72261074E+00  7.72261074E+00
 -1.54452215E+01  7.72261074E+00  7.72261074E+00 -1.54452215E+01  7.72261074E+00
  7.72261074E+00 -1.54452215E+01  7.72261074E+00  7.72261074E+00 -1.54452215E+01
  7.72261074E+00  7.72261074E+00 -1.54452215E+01  7.72261074E+00  7.72261074E+00
 -1.54452215E+01  7.72261074E+00  7.72261074E+00 -1.54452215E+01  7.72261074E+00
  7.72261074E+00 -1.54452215E+01  7.72261074E+00  7.72261074E+00 -1.54452215E+01
  7.72261074E+00  7.72261074E+00 -1.54452215E+01  7.72261074E+00  7.72261074E+00
 -1.54452215E+01  7.72261074E+00  7.72261074E+00 -1.54452215E+01  7.72261074E+00
  7.72261074E+00 -1.54452215E+01  7.72261074E+00  7.72261074E+00 -1.54452215E+01
  7.72261074E+00  7.72261074E+00 -1.54452215E+01  7.72261074E+00  7.72261074E+00
 -1.54452215E+01  7.72261074E+00  7.72261074E+00 -1.54452215E+01  7.72261074E+00
  7.72261074E+00 -1.54452215E+01  7.72261074E+00  7.72261074E+00 -1.54452215E+01
  7.72261074E+00  7.72261074E+00 -1.54452215E+01  7.72261074E+00  7.72261074E+00
 -1.54452215E+01  7.72261074E+00  7.72261074E+00 -1.54452215E+01  7.72261074E+00
  7.72261074E+00 -1.54452215E+01  7.72261074E+00  7.72261074E+00 -1.54452215E+01
  7.72261074E+00  7.72261074E+00 -1.54452215E+01  7.72261074E+00  7.72261074E+00
 -1.54452215E+01  7.72261074E+00  7.72261074E+00 -1.54452215E+01  7.72261074E+00
  7.72261074E+00 -1.54452215E+01  7.72261074E+00  7.72261074E+00 -1.54452215E+01
  7.72261074E+00  7.72261074E+00 -1.54452215E+01  7.72261074E+00  7.72261074E+00
 -1.54452215E+01  7.72261074E+00  7.72261074E+00 -1.54452215E+01  7.72261074E+00
  7.72261074E+00 -1.54452215E+01  7.72261074E+00  7.72261074E+00 -1.54452215E+01
  7.72261074E+00  7.72261074E+00 -1.54452215E+01  7.72261074E+00  7.72261074E+00
 -1.54452215E+01  7.72261074E+00  7.72261074E+00 -1.54452215E+01  7.72261074E+00
  7.72261074E+00 -1.54452215E+01  7.72261074E+00  7.72261074E+00 -1.54452215E+01
  7.72261074E+00  7.72261074E+00 -1.54452215E+01  7.72261074E+00  7.72261074E+00
 -1.54452215E+01  7.72261074E+00  7.72261074E+00 -1.54452215E+01  7.72261074E+00
  7.72261074E+00 -1.54452215E+01  7.72261074E+00  7.72261074E+00 -1.54452215E+01
  7.72261074E+00  7.72261074E+00 -1.54452215E+01  7.72261074E+00  7.72261074E+00
 -1.54452215E+01  7.72261074E+00  7.72261074E+00 -1.54452215E+01  7.72261074E+00
  7.72261074E+00 -1.54452215E+01  7.72261074E+00  7.72261074E+00 -1.54452215E+01
  7.72261074E+00  7.72261074E+00 -1.54452215E+01  7.72261074E+00  7.72261074E+00
 -1.54452215E+01  7.72261074E+00  7.72261074E+00 -1.54452215E+01  7.72261074E+00
  7.72261074E+00 -1.54452215E+01  7.72261074E+00  7.72261074E+00 -1.54452215E+01
  7.72261074E+00  7.72261074E+00 -1.54452215E+01  7.72261074E+00  7.72261074E+00
 -1.54452215E+01  7.72261074E+00  7.72261074E+00 -1.54452215E+01  7.72261074E+00
  7.72261074E+00 -1.54452215E+01  7.72261074E+00  7.72261074E+00 -1.54452215E+01
  7.72261074E+00  7.72261074E+00 -1.54452215E+01  7.72261074E+00  7.72261074E+00
 -1.54452215E+01  7.72261074E+00  7.72261074E+00 -1.54452215E+01  7.72261074E+00
  7.72261074E+00 -1.54452215E+01  7.72261074E+00  7.72261074E+00 -1.54452215E+01
  7.72261074E+00  7.72261074E+00 -1.54452215E+01  7.72261074E+00  7.72261074E+00
 -1.54452215E+01  7.72261074E+00  7.72261074E+00 -1.54452215E+01  7.72261074E+00
  7.72261074E+00 -1.54452215E+01  7.72261074E+00  7.72261074E+00 -1.54452215E+01
  7.72261074E+00  7.72261074E+00 -1.54452215E+01  7.72261074E+00  7.72261074E+00
 -1.54452215E+01  7.72261074E+00  7.72261074E+00 -1.54452215E+01  7.72261074E+00
  7.72261074E+00 -1.54452215E+01  7.72261074E+00  7.72261074E+00 -1.54452215E+01
  7.72261074E+00  7.72261074E+00 -1.54452215E+01  7.72261074E+00  7.72261074E+00
 -1.54452215E+01  7.72261074E+00  7.72261074E+00 -1.54452215E+01  7.72261074E+00
  7.72261074E+00 -1.54452215E+01  7.72261074E+00  7.72261074E+00 -1.54452215E+01
  7.72261074E+00  7.72261074E+00 -1.54452215E+01  7.72261074E+00  7.72261074E+00
 -1.54452215E+01  7.72261074E+00  7.72261074E+00 -1.54452215E+01  7.72261074E+00
  7.72261074E+00 -1.54452215E+01  7.72261074E+00  7.72261074E+00 -1.54452215E+01
  7.72261074E+00  7.72261074E+00 -1.54452215E+01  7.72261074E+00  7.72261074E+00
 -1.54452215E+01  7.72261074E+00  7.72261074E+00 -1.54452215E+01  7.72261074E+00
  7.72261074E+00 -1.54452215E+01  7.72261074E+00  7.72261074E+00 -1.54452215E+01
  7.72261074E+00  7.72261074E+00 -1.54452215E+01  7.72261074E+00  7.72261074E+00
 -1.54452215E+01  7.72261074E+00  7.72261074E+00 -1.54452215E+01  7.72261074E+00
  7.72261074E+00 -1.54452215E+01  7.72261074E+00  7.72261074E+00 -1.54452215E+01
  7.72261074E+00  7.72261074E+00 -1.54452215E+01  7.72261074E+00  7.72261074E+00
 -1.54452215E+01  7.72261074E+00  7.72261074E+00 -1.54452215E+01  7.72261074E+00
  7.72261074E+00 -1.54452215E+01  7.72261074E+00  7.72261074E+00 -1.54452215E+01
  7.72261074E+00  7.72261074E+00 -1.54452215E+01  7.72261074E+00  7.72261074E+00
 -1.54452215E+01  7.72261074E+00  7.72261074E+00 -1.54452215E+01  7.72261074E+00
  7.72261074E+00 -1.54452215E+01  7.72261074E+00  7.72261074E+00 -1.54452215E+01
  7.72261074E+00  7.72261074E+00 -1.54452215E+01  7.72261074E+00  7.72261074E+00
 -1.54452215E+01  7.72261074E+00  7.72261074E+00 -1.54452215E+01  7.72261074E+00
  7.72261074E+00 -1.54452215E+01  7.72261074E+00  7.72261074E+00 -1.54452215E+01
  7.72261074E+00  7.72261074E+00 -1.54452215E+01  7.72261074E+00  7.72261074E+00
 -1.54452215E+01  7.72261074E+00  7.72261074E+00 -1.54452215E+01  7.72261074E+00
  7.72261074E+00 -1.54452215E+01  7.72261074E+00  7.72261074E+00 -1.54452215E+01
  7.72261074E+00  7.72261074E+00 -1.54452215E+01  7.72261074E+00  7.72261074E+00
 -1.54452215E+01  7.72261074E+00  7.72261074E+00 -1.54452215E+01  7.72261074E+00
  7.72261074E+00 -1.54452215E+01  7.72261074E+00  7.72261074E+00 -1.54452215E+01
  7.72261074E+00  7.72261074E+00 -1.54452215E+01  7.72261074E+00  7.72261074E+00
 -1.54452215E+01  7.72261074E+00  7.72261074E+00 -1.54452215E+01  7.72261074E+00
  7.72261074E+00 -1.54452215E+01  7.72261074E+00  7.72261074E+00 -1.54452215E+01
  7.72261074E+00  7.72261074E+00 -1.54452215E+01  7.72261074E+00  7.72261074E+00
 -1.54452215E+01  7.72261074E+00  7.72261074E+00 -1.54452215E+01  7.72261074E+00
  7.72261074E+00 -1.54452215E+01  7.72261074E+00  7.72261074E+00 -1.54452215E+01
  7.72261074E+00  7.72261074E+00 -1.54452215E+01  7.72261074E+00  7.72261074E+00
 -1.54452215E+01  7.72261074E+00  7.72261074E+00 -1.54452215E+01  7.72261074E+00
  7.72261074E+00 -1.54452215E+01  7.72261074E+00  7.72261074E+00 -1.54452215E+01
  7.72261074E+00  7.72261074E+00 -1.54452215E+01  7.72261074E+00  7.72261074E+00
 -1.54452215E+01  7.72261074E+00  7.72261074E+00 -1.54452215E+01  7.72261074E+00
  7.72261074E+00 -1.54452215E+01  7.72261074E+00  7.72261074E+00 -1.54452215E+01
  7.72261074E+00  7.72261074E+00 -1.54452215E+01  7.72261074E+00  7.72261074E+00
 -1.54452215E+01  7.72261074E+00  7.72261074E+00 -1.54452215E+01  7.72261074E+00
  7.72261074E+00 -1.54452215E+01  7.72261074E+00  7.72261074E+00 -1.54452215E+01
  7.72261074E+00  7.72261074E+00 -1.54452215E+01  7.72261074E+00  7.72261074E+00
 -1.54452215E+01  7.72261074E+00  7.72261074E+00 -1.54452215E+01  7.72261074E+00
  7.72261074E+00 -1.54452215E+01  7.72261074E+00  7.72261074E+00 -1.54452215E+01
  7.72261074E+00  7.72261074E+00 -1.54452215E+01  7.72261074E+00  7.72261074E+00
 -1.54452215E+01  7.72261074E+00  7.72261074E+00 -1.54452215E+01  7.72261074E+00
  7.72261074E+00 -1.54452215E+01  7.72261074E+00  7.72261074E+00 -1.54452215E+01
  7.72261074E+00  7.72261074E+00 -1.54452215E+01  7.72261074E+00  7.72261074E+00
 -1.54452215E+01  7.72261074E+00  7.72261074E+00 -1.54452215E+01  7.72261074E+00
  7.72261074E+00 -1.54452215E+01  7.72261074E+00  7.72261074E+00 -1.54452215E+01
  7.72261074E+00  7.72261074E+00 -1.54452215E+01  7.72261074E+00  7.72261074E+00
 -1.54452215E+01  7.72261074E+00  7.72261074E+00 -1.54452215E+01  7.72261074E+00
  7.72261074E+00 -1.54452215E+01  7.72261074E+00  7.72261074E+00 -1.54452215E+01
  7.72261074E+00  7.72261074E+00 -1.54452215E+01  7.72261074E+00  7.72261074E+00
 -1.54452215E+01  7.72261074E+00  7.72261074E+00 -1.54452215E+01  7.72261074E+00
  7.72261074E+00 -1.54452215E+01  7.72261074E+00  7.72261074E+00 -1.54452215E+01
  7.72261074E+00  7.72261074E+00 -1.54452215E+01  7.72261074E+00  7.72261074E+00
 -1.54452215E+01  7.72261074E+00  7.72261074E+00 -1.54452215E+01  7.72261074E+00
  7.72261074E+00 -1.54452215E+01  7.72261074E+00  7.72261074E+00 -1.54452215E+01
  7.72261074E+00  7.72261074E+00 -1.54452215E+01  7.72261074E+00  7.72261074E+00
 -1.54452215E+01  7.72261074E+00  7.72261074E+00 -1.54452215E+01  7.72261074E+00
  7.72261074E+00 -1.54452215E+01  7.72261074E+00  7.72261074E+00 -1.54452215E+01
  7.72261074E+00  7.72261074E+00 -1.54452215E+01  7.72261074E+00  7.72261074E+00
 -1.54452215E+01  7.72261074E+00  7.72261074E+00 -1.54452215E+01  7.72261074E+00
  7.72261074E+00 -1.54452215E+01  7.72261074E+00  7.72261074E+00 -1.54452215E+01
  7.72261074E+00  7.72261074E+00 -1.54452215E+01  7.72261074E+00  7.72261074E+00
 -1.54452215E+01  7.72261074E+00  7.72261074E+00 -1.54452215E+01  7.72261074E+00
  7.72261074E+00 -1.54452215E+01  7.72261074E+00  7.72261074E+00 -1.54452215E+01
  7.72261074E+00  7.72261074E+00 -1.54452215E+01  7.72261074E+00  7.72261074E+00
 -1.54452215E+01  7.72261074E+00  7.72261074E+00 -1.54452215E+01  7.72261074E+00
  7.72261074E+00 -1.54452215E+01  7.72261074E+00  7.72261074E+00 -1.54452215E+01
  7.72261074E+00  7.72261074E+00 -1.54452215E+01  7.72261074E+00  7.72261074E+00
 -1.54452215E+01  7.72261074E+00  7.72261074E+00 -1.54452215E+01  7.72261074E+00
  7.72261074E+00 -1.54452215E+01  7.72261074E+00  7.72261074E+00 -1.54452215E+01
  7.72261074E+00  7.72261074E+00 -1.54452215E+01  7.72261074E+00  7.72261074E+00
 -1.54452215E+01  7.72261074E+00  7.72261074E+00 -1.54452215E+01  7.72261074E+00
  7.72261074E+00 -1.54452215E+01  7.72261074E+00  7.72261074E+00 -1.54452215E+01
  7.72261074E+00  7.72261074E+00 -1.54452215E+01  7.72261074E+00  7.72261074E+00
 -1.54452215E+01  7.72261074E+00  7.72261074E+00 -1.54452215E+01  7.72261074E+00
  7.72261074E+00 -1.54452215E+01  7.72261074E+00  7.72261074E+00 -1.54452215E+01
  7.72261074E+00  7.72261074E+00 -1.54452215E+01  7.72261074E+00  7.72261074E+00
 -1.54452215E+01  7.72261074E+00  7.72261074E+00 -1.54452215E+01  7.72261074E+00
  7.72261074E+00 -1.54452215E+01  7.72261074E+00  7.72261074E+00 -1.54452215E+01
  7.72261074E+00  7.72261074E+00 -1.54452215E+01  7.72261074E+00  7.72261074E+00
 -1.54452215E+01  7.72261074E+00  7.72261074E+00 -1.54452215E+01  7.72261074E+00
  7.72261074E+00 -1.54452215E+01  7.72261074E+00  7.72261074E+00 -1.54452215E+01
  7.72261074E+00  7.72261074E+00 -1.54452215E+01  7.72261074E+00  7.72261074E+00
 -1.54452215E+01  7.72261074E+00  7.72261074E+00 -1.54452215E+01  7.72261074E+00
  7.72261074E+00 -1.54452215E+01  7.72261074E+00  7.72261074E+00 -1.54452215E+01
  7.72261074E+00  7.72261074E+00 -1.54452215E+01  7.72261074E+00  7.72261074E+00
 -1.54452215E+01  7.72261074E+00  7.72261074E+00 -1.54452215E+01  7.72261074E+00
  7.72261074E+00 -1.54452215E+01  7.72261074E+00  7.72261074E+00 -1.54452215E+01
  7.72261074E+00  7.72261074E+00 -1.54452215E+01  7.72261074E+00  7.72261074E+00
 -1.54452215E+01  7.72261074E+00  7.72261074E+00 -1.54452215E+01  7.72261074E+00
  7.72261074E+00 -1.54452215E+01  7.72261074E+00  7.72261074E+00 -1.54452215E+01
  7.72261074E+00  7.72261074E+00 -1.54452215E+01  7.72261074E+00  7.72261074E+00
 -1.54452215E+01  7.72261074E+00  7.72261074E+00 -1.54452215E+01  7.72261074E+00
  7.72261074E+00 -1.54452215E+01  7.72261074E+00  7.72261074E+00 -1.54452215E+01
  7.72261074E+00  7.72261074E+00 -1.54452215E+01  7.72261074E+00  7.72261074E+00
 -1.54452215E+01  7.72261074E+00  7.72261074E+00 -1.54452215E+01  7.72261074E+00
  7.72261074E+00 -1.54452215E+01  7.72261074E+00  7.72261074E+00 -1.54452215E+01
  7.72261074E+00  7.72261074E+00 -1.54452215E+01  7.72261074E+00  7.72261074E+00
 -1.54452215E+01  7.72261074E+00  7.72261074E+00 -1.54452215E+01  7.72261074E+00
  7.72261074E+00 -1.54452215E+01  7.72261074E+00  7.72261074E+00 -1.54452215E+01
  7.72261074E+00  7.72261074E+00 -1.54452215E+01  7.72261074E+00  7.72261074E+00
 -1.54452215E+01  7.72261074E+00  7.72261074E+00 -1.54452215E+01  7.72261074E+00
  7.72261074E+00 -1.54452215E+01  7.72261074E+00  7.72261074E+00 -1.54452215E+01
  7.72261074E+00  7.72261074E+00 -1.54452215E+01  7.72261074E+00  7.72261074E+00
 -1.54452215E+01  7.72261074E+00  7.72261074E+00 -1.54452215E+01  7.72261074E+00
  7.72261074E+00 -1.54452215E+01  7.72261074E+00  7.72261074E+00 -1.54452215E+01
  7.72261074E+00  7.72261074E+00 -1.54452215E+01  7.72261074E+00  7.72261074E+00
 -1.54452215E+01  7.72261074E+00  7.72261074E+00 -1.54452215E+01  7.72261074E+00
  7.72261074E+00 -1.54452215E+01  7.72261074E+00  7.72261074E+00 -1.54452215E+01
  7.72261074E+00  7.72261074E+00 -1.54452215E+01  7.72261074E+00  7.72261074E+00
 -1.54452215E+01  7.72261074E+00  7.72261074E+00 -1.54452215E+01  7.72261074E+00
  7.72261074E+00 -1.54452215E+01  7.72261074E+00  7.72261074E+00 -1.54452215E+01
  7.72261074E+00  7.72261074E+00 -1.54452215E+01  7.72261074E+00  7.72261074E+00
 -1.54452215E+01  7.72261074E+00  7.72261074E+00 -1.54452215E+01  7.72261074E+00
  7.72261074E+00 -1.54452215E+01  7.72261074E+00  7.72261074E+00 -1.54452215E+01
  7.72261074E+00  7.72261074E+00 -1.54452215E+01  7.72261074E+00  7.72261074E+00
 -1.54452215E+01  7.72261074E+00  7.72261074E+00 -1.54452215E+01  7.72261074E+00
  7.72261074E+00 -1.54452215E+01  7.72261074E+00  7.72261074E+00 -1.54452215E+01
  7.72261074E+00  7.72261074E+00 -1.54452215E+01  7.72261074E+00  7.72261074E+00
 -1.54452215E+01  7.72261074E+00  7.72261074E+00 -1.54452215E+01  7.72261074E+00
  7.72261074E+00 -1.54452215E+01  7.72261074E+00  7.72261074E+00 -1.54452215E+01
  7.72261074E+00  7.72261074E+00 -1.54452215E+01  7.72261074E+00  7.72261074E+00
 -1.54452215E+01  7.72261074E+00  7.72261074E+00 -1.54452215E+01  7.72261074E+00
  7.72261074E+00 -1.54452215E+01  7.72261074E+00  7.72261074E+00 -1.54452215E+01
  7.72261074E+00  7.72261074E+00 -1.54452215E+01  7.72261074E+00  7.72261074E+00
 -1.54452215E+01  7.72261074E+00  7.72261074E+00 -1.54452215E+01  7.72261074E+00
  7.72261074E+00 -1.54452215E+01  7.72261074E+00  7.72261074E+00 -1.54452215E+01
  7.72261074E+00  7.72261074E+00 -1.54452215E+01  7.72261074E+00  7.72261074E+00
 -1.54452215E+01  7.72261074E+00  7.72261074E+00 -1.54452215E+01  7.72261074E+00
  7.72261074E+00 -1.54452215E+01  7.72261074E+00  7.72261074E+00 -1.54452215E+01
  7.72261074E+00  7.72261074E+00 -1.54452215E+01  7.72261074E+00  7.72261074E+00
 -1.54452215E+01  7.72261074E+00  7.72261074E+00 -1.54452215E+01  7.72261074E+00
  7.72261074E+00 -1.54452215E+01  7.72261074E+00  7.72261074E+00 -1.54452215E+01
  7.72261074E+00  7.72261074E+00 -1.54452215E+01  7.72261074E+00  7.72261074E+00
 -1.54452215E+01  7.72261074E+00  7.72261074E+00 -1.54452215E+01  7.72261074E+00
  7.72261074E+00 -1.54452215E+01  7.72261074E+00  7.72261074E+00 -1.54452215E+01
  7.72261074E+00  7.72261074E+00 -1.54452215E+01  7.72261074E+00  7.72261074E+00
 -1.54452215E+01  7.72261074E+00  7.72261074E+00 -1.54452215E+01  7.72261074E+00
  7.72261074E+00 -1.54452215E+01  7.72261074E+00  7.72261074E+00 -1.54452215E+01
  7.72261074E+00  7.72261074E+00 -1.54452215E+01  7.72261074E+00  7.72261074E+00
 -1.54452215E+01  7.72261074E+00  7.72261074E+00 -1.54452215E+01  7.72261074E+00
  7.72261074E+00 -1.54452215E+01  7.72261074E+00  7.72261074E+00 -1.54452215E+01
  7.72261074E+00  7.72261074E+00 -1.54452215E+01  7.72261074E+00  7.72261074E+00
 -1.54452215E+01  7.72261074E+00  7.72261074E+00 -1.54452215E+01  7.72261074E+00
  7.72261074E+00 -1.54452215E+01  7.72261074E+00  7.72261074E+00 -1.54452215E+01
  7.72261074E+00  7.72261074E+00 -1.54452215E+01  7.72261074E+00  7.72261074E+00
 -1.54452215E+01  7.72261074E+00  7.72261074E+00 -1.54452215E+01  7.72261074E+00
  7.72261074E+00 -1.54452215E+01  7.72261074E+00  7.72261074E+00 -1.54452215E+01
  7.72261074E+00  7.72261074E+00 -1.54452215E+01  7.72261074E+00  7.72261074E+00
 -1.54452215E+01  7.72261074E+00  7.72261074E+00 -1.54452215E+01  7.72261074E+00
  7.72261074E+00 -1.54452215E+01  7.72261074E+00  7.72261074E+00 -1.54452215E+01
  7.72261074E+00  7.72261074E+00 -1.54452215E+01  7.72261074E+00  7.72261074E+00
 -1.54452215E+01  7.72261074E+00  7.72261074E+00 -1.54452215E+01  7.72261074E+00
  7.72261074E+00 -1.54452215E+01  7.72261074E+00  7.72261074E+00 -1.54452215E+01
  7.72261074E+00  7.72261074E+00 -1.54452215E+01  7.72261074E+00  7.72261074E+00
 -1.54452215E+01  7.72261074E+00  7.72261074E+00 -1.54452215E+01  7.72261074E+00
  7.72261074E+00 -1.54452215E+01  7.72261074E+00  7.72261074E+00 -1.54452215E+01
  7.72261074E+00  7.72261074E+00 -1.54452215E+01  7.72261074E+00  7.72261074E+00
 -1.54452215E+01  7.72261074E+00  7.72261074E+00 -1.54452215E+01  7.72261074E+00
  7.72261074E+00 -1.54452215E+01  7.72261074E+00  7.72261074E+00 -1.54452215E+01
  7.72261074E+00  7.72261074E+00 -1.54452215E+01  7.72261074E+00  7.72261074E+00
 -1.54452215E+01  7.72261074E+00  7.72261074E+00 -1.54452215E+01  7.72261074E+00
  7.72261074E+00 -1.54452215E+01  7.72261074E+00  7.72261074E+00 -1.54452215E+01
  7.72261074E+00  7.72261074E+00 -1.54452215E+01  7.72261074E+00  7.72261074E+00
 -1.54452215E+01  7.72261074E+00  7.72261074E+00 -1.54452215E+01  7.72261074E+00
  7.72261074E+00 -1.54452215E+01  7.72261074E+00  7.72261074E+00 -1.54452215E+01
  7.72261074E+00  7.72261074E+00 -1.54452215E+01  7.72261074E+00  7.72261074E+00
 -1.54452215E+01  7.72261074E+00  7.72261074E+00 -1.54452215E+01  7.72261074E+00
  7.72261074E+00 -1.54452215E+01  7.72261074E+00  7.72261074E+00 -1.54452215E+01
  7.72261074E+00  7.72261074E+00 -1.54452215E+01  7.72261074E+00  7.72261074E+00
 -1.54452215E+01  7.72261074E+00  7.72261074E+00 -1.54452215E+01  7.72261074E+00
  7.72261074E+00 -1.54452215E+01  7.72261074E+00  7.72261074E+00 -1.54452215E+01
  7.72261074E+00  7.72261074E+00 -1.54452215E+01  7.72261074E+00  7.72261074E+00
 -1.54452215E+01  7.72261074E+00  7.72261074E+00 -1.54452215E+01  7.72261074E+00
  7.72261074E+00 -1.54452215E+01  7.72261074E+00  7.72261074E+00 -1.54452215E+01
  7.72261074E+00  7.72261074E+00 -1.54452215E+01  7.72261074E+00  7.72261074E+00
 -1.54452215E+01  7.72261074E+00  7.72261074E+00 -1.54452215E+01  7.72261074E+00
  7.72261074E+00 -1.54452215E+01  7.72261074E+00  7.72261074E+00 -1.54452215E+01
  7.72261074E+00  7.72261074E+00 -1.54452215E+01  7.72261074E+00  7.72261074E+00
 -1.54452215E+01  7.72261074E+00  7.72261074E+00 -1.54452215E+01  7.72261074E+00
  7.72261074E+00 -1.54452215E+01  7.72261074E+00  7.72261074E+00 -1.54452215E+01
  7.72261074E+00  7.72261074E+00 -1.54452215E+01  7.72261074E+00  7.72261074E+00
 -1.54452215E+01  7.72261074E+00  7.72261074E+00 -1.54452215E+01  7.72261074E+00
  7.72261074E+00 -1.54452215E+01  7.72261074E+00  7.72261074E+00 -1.54452215E+01
  7.72261074E+00  7.72261074E+00 -1.54452215E+01  7.72261074E+00  7.72261074E+00
 -1.54452215E+01  7.72261074E+00  7.72261074E+00 -1.54452215E+01  7.72261074E+00
  7.72261074E+00 -1.54452215E+01  7.72261074E+00  7.72261074E+00 -1.54452215E+01
  7.72261074E+00  7.72261074E+00 -1.54452215E+01  7.72261074E+00  7.72261074E+00
 -1.54452215E+01  7.72261074E+00  7.72261074E+00 -1.54452215E+01  7.72261074E+00
  7.72261074E+00 -1.54452215E+01  7.72261074E+00  7.72261074E+00 -1.54452215E+01
  7.72261074E+00  7.72261074E+00 -1.54452215E+01  7.72261074E+00  7.72261074E+00
 -1.54452215E+01  7.72261074E+00  7.72261074E+00 -1.54452215E+01  7.72261074E+00
  7.72261074E+00 -1.54452215E+01  7.72261074E+00  7.72261074E+00 -1.54452215E+01
  7.72261074E+00  7.72261074E+00 -1.54452215E+01  7.72261074E+00  7.72261074E+00
 -1.54452215E+01  7.72261074E+00  7.72261074E+00 -1.54452215E+01  7.72261074E+00
  7.72261074E+00 -1.54452215E+01  7.72261074E+00  7.72261074E+00 -1.54452215E+01
  7.72261074E+00  7.72261074E+00 -1.54452215E+01  7.72261074E+00  7.72261074E+00
 -1.54452215E+01  7.72261074E+00  7.72261074E+00 -1.54452215E+01  7.72261074E+00
  7.72261074E+00 -1.54452215E+01  7.72261074E+00  7.72261074E+00 -1.54452215E+01
  7.72261074E+00  7.72261074E+00 -1.54452215E+01  7.72261074E+00  7.72261074E+00
 -1.54452215E+01  7.72261074E+00  7.72261074E+00 -1.54452215E+01  7.72261074E+00
  7.72261074E+00 -1.54452215E+01  7.72261074E+00  7.72261074E+00 -1.54452215E+01
  7.72261074E+00  7.72261074E+00 -1.54452215E+01  7.72261074E+00  7.72261074E+00
 -1.54452215E+01  7.72261074E+00  7.72261074E+00 -1.54452215E+01  7.72261074E+00
  7.72261074E+00 -1.54452215E+01  7.72261074E+00  7.72261074E+00 -1.54452215E+01
  7.72261074E+00  7.72261074E+00 -1.54452215E+01  7.72261074E+00  7.72261074E+00
 -1.54452215E+01  7.72261074E+00  7.72261074E+00 -1.54452215E+01  7.72261074E+00
  7.72261074E+00 -1.54452215E+01  7.72261074E+00  7.72261074E+00 -1.54452215E+01
  7.72261074E+00  7.72261074E+00 -1.54452215E+01  7.72261074E+00  7.72261074E+00
 -1.54452215E+01  7.72261074E+00  7.72261074E+00 -1.54452215E+01  7.72261074E+00
  7.72261074E+00 -1.54452215E+01  7.72261074E+00  7.72261074E+00 -1.54452215E+01
  7.72261074E+00  7.72261074E+00 -1.54452215E+01  7.72261074E+00  7.72261074E+00
 -1.54452215E+01  7.72261074E+00  7.72261074E+00 -1.54452215E+01  7.72261074E+00
  7.72261074E+00 -1.54452215E+01  7.72261074E+00  7.72261074E+00 -1.54452215E+01
  7.72261074E+00  7.72261074E+00 -1.54452215E+01  7.72261074E+00  7.72261074E+00
 -1.54452215E+01  7.72261074E+00  7.72261074E+00 -1.54452215E+01  7.72261074E+00
  7.72261074E+00 -1.54452215E+01  7.72261074E+00  7.72261074E+00 -1.54452215E+01
  7.72261074E+00  7.72261074E+00 -1.54452215E+01  7.72261074E+00  7.72261074E+00
 -1.54452215E+01  7.72261074E+00  7.72261074E+00 -1.54452215E+01  7.72261074E+00
  7.72261074E+00 -1.54452215E+01  7.72261074E+00  7.72261074E+00 -1.54452215E+01
  7.72261074E+00  7.72261074E+00 -1.54452215E+01  7.72261074E+00  7.72261074E+00
 -1.54452215E+01  7.72261074E+00  7.72261074E+00 -1.54452215E+01  7.72261074E+00
  7.72261074E+00 -1.54452215E+01  7.72261074E+00  7.72261074E+00 -1.54452215E+01
  7.72261074E+00  7.72261074E+00 -1.54452215E+01  7.72261074E+00  7.72261074E+00
 -1.54452215E+01  7.72261074E+00  7.72261074E+00 -1.54452215E+01  7.72261074E+00
  7.72261074E+00 -1.54452215E+01  7.72261074E+00  7.72261074E+00 -1.54452215E+01
  7.72261074E+00  7.72261074E+00 -1.54452215E+01  7.72261074E+00  7.72261074E+00
 -1.54452215E+01  7.72261074E+00  7.72261074E+00 -1.54452215E+01  7.72261074E+00
  7.72261074E+00 -1.54452215E+01  7.72261074E+00  7.72261074E+00 -1.54452215E+01
  7.72261074E+00  7.72261074E+00 -1.54452215E+01  7.72261074E+00  7.72261074E+00
 -1.54452215E+01  7.72261074E+00  7.72261074E+00 -1.54452215E+01  7.72261074E+00
  7.72261074E+00 -1.54452215E+01  7.72261074E+00  7.72261074E+00 -1.54452215E+01
  7.72261074E+00  7.72261074E+00 -1.54452215E+01  7.72261074E+00  7.72261074E+00
 -1.54452215E+01  7.72261074E+00  7.72261074E+00 -1.54452215E+01  7.72261074E+00
  7.72261074E+00 -1.54452215E+01  7.72261074E+00  7.72261074E+00 -1.54452215E+01
  7.72261074E+00  7.72261074E+00 -1.54452215E+01  7.72261074E+00  7.72261074E+00
 -1.54452215E+01  7.72261074E+00  7.72261074E+00 -1.54452215E+01  7.72261074E+00
  7.72261074E+00 -1.54452215E+01  7.72261074E+00  7.72261074E+00 -1.54452215E+01
  7.72261074E+00  7.72261074E+00 -1.54452215E+01  7.72261074E+00  7.72261074E+00
 -1.54452215E+01  7.72261074E+00  7.72261074E+00 -1.54452215E+01  7.72261074E+00
  7.72261074E+00 -1.54452215E+01  7.72261074E+00  7.72261074E+00 -1.54452215E+01
  7.72261074E+00  7.72261074E+00 -1.54452215E+01  7.72261074E+00  7.72261074E+00
 -1.54452215E+01  7.72261074E+00  7.72261074E+00 -1.54452215E+01  7.72261074E+00
  7.72261074E+00 -1.54452215E+01  7.72261074E+00  7.72261074E+00 -1.54452215E+01
  7.72261074E+00  7.72261074E+00 -1.54452215E+01  7.72261074E+00  7.72261074E+00
 -1.54452215E+01  7.72261074E+00  7.72261074E+00 -1.54452215E+01  7.72261074E+00
  7.72261074E+00 -1.54452215E+01  7.72261074E+00  7.72261074E+00 -1.54452215E+01
  7.72261074E+00  7.72261074E+00 -1.54452215E+01  7.72261074E+00  7.72261074E+00
 -1.54452215E+01  7.72261074E+00  7.72261074E+00 -1.54452215E+01  7.72261074E+00
  7.72261074E+00 -1.54452215E+01  7.72261074E+00  7.72261074E+00 -1.54452215E+01
  7.72261074E+00  7.72261074E+00 -1.54452215E+01  7.72261074E+00  7.72261074E+00
 -1.54452215E+01  7.72261074E+00  7.72261074E+00 -1.54452215E+01  7.72261074E+00
  7.72261074E+00 -1.54452215E+01  7.72261074E+00  7.72261074E+00 -1.54452215E+01
  7.72261074E+00  7.72261074E+00 -1.54452215E+01  7.72261074E+00  7.72261074E+00
 -1.54452215E+01  7.72261074E+00  7.72261074E+00 -1.54452215E+01  7.72261074E+00
  7.72261074E+00 -1.54452215E+01  7.72261074E+00  7.72261074E+00 -1.54452215E+01
  7.72261074E+00  7.72261074E+00 -1.54452215E+01  7.72261074E+00  7.72261074E+00
 -1.54452215E+01  7.72261074E+00  7.72261074E+00 -1.54452215E+01  7.72261074E+00
  7.72261074E+00 -1.54452215E+01  7.72261074E+00  7.72261074E+00 -1.54452215E+01
  7.72261074E+00  7.72261074E+00 -1.54452215E+01  7.72261074E+00  7.72261074E+00
 -1.54452215E+01  7.72261074E+00  7.72261074E+00 -1.54452215E+01  7.72261074E+00
  7.72261074E+00 -1.54452215E+01  7.72261074E+00  7.72261074E+00 -1.54452215E+01
  7.72261074E+00  7.72261074E+00 -1.54452215E+01  7.72261074E+00  7.72261074E+00
 -1.54452215E+01  7.72261074E+00  7.72261074E+00 -1.54452215E+01  7.72261074E+00
  7.72261074E+00 -1.54452215E+01  7.72261074E+00  7.72261074E+00 -1.54452215E+01
  7.72261074E+00  7.72261074E+00 -1.54452215E+01  7.72261074E+00  7.72261074E+00
 -1.54452215E+01  7.72261074E+00  7.72261074E+00 -1.54452215E+01  7.72261074E+00
  7.72261074E+00 -1.54452215E+01  7.72261074E+00  7.72261074E+00 -1.54452215E+01
  7.72261074E+00  7.72261074E+00 -1.54452215E+01  7.72261074E+00  7.72261074E+00
 -1.54452215E+01  7.72261074E+00  7.72261074E+00 -1.54452215E+01  7.72261074E+00
  7.72261074E+00 -1.54452215E+01  7.72261074E+00  7.72261074E+00 -1.54452215E+01
  7.72261074E+00  7.72261074E+00 -1.54452215E+01  7.72261074E+00  7.72261074E+00
 -1.54452215E+01  7.72261074E+00  7.72261074E+00 -1.54452215E+01  7.72261074E+00
  7.72261074E+00 -1.54452215E+01  7.72261074E+00  7.72261074E+00 -1.54452215E+01
  7.72261074E+00  7.72261074E+00 -1.54452215E+01  7.72261074E+00  7.72261074E+00
 -1.54452215E+01  7.72261074E+00  7.72261074E+00 -1.54452215E+01  7.72261074E+00
  7.72261074E+00 -1.54452215E+01  7.72261074E+00  7.72261074E+00 -1.54452215E+01
  7.72261074E+00  7.72261074E+00 -1.54452215E+01  7.72261074E+00  7.72261074E+00
 -1.54452215E+01  7.72261074E+00  7.72261074E+00 -1.54452215E+01  7.72261074E+00
  7.72261074E+00 -1.54452215E+01  7.72261074E+00  7.72261074E+00 -1.54452215E+01
  7.72261074E+00  7.72261074E+00 -1.54452215E+01  7.72261074E+00  7.72261074E+00
 -1.54452215E+01  7.72261074E+00  7.72261074E+00 -1.54452215E+01  7.72261074E+00
  7.72261074E+00 -1.54452215E+01  7.72261074E+00  7.72261074E+00 -1.54452215E+01
  7.72261074E+00  7.72261074E+00 -1.54452215E+01  7.72261074E+00  7.72261074E+00
 -1.54452215E+01  7.72261074E+00  7.72261074E+00 -1.54452215E+01  7.72261074E+00
  7.72261074E+00 -1.54452215E+01  7.72261074E+00  7.72261074E+00 -1.54452215E+01
  7.72261074E+00  7.72261074E+00 -1.54452215E+01  7.72261074E+00  7.72261074E+00
 -1.54452215E+01  7.72261074E+00  7.72261074E+00 -1.54452215E+01  7.72261074E+00
  7.72261074E+00 -1.54452215E+01  7.72261074E+00  7.72261074E+00 -1.54452215E+01
  7.72261074E+00  7.72261074E+00 -1.54452215E+01  7.72261074E+00  7.72261074E+00
 -1.54452215E+01  7.72261074E+00  7.72261074E+00 -1.54452215E+01  7.72261074E+00
  7.72261074E+00 -1.54452215E+01  7.72261074E+00  7.72261074E+00 -1.54452215E+01
  7.72261074E+00  7.72261074E+00 -1.54452215E+01  7.72261074E+00  7.72261074E+00
 -1.54452215E+01  7.72261074E+00  7.72261074E+00 -1.54452215E+01  7.72261074E+00
  7.72261074E+00 -1.54452215E+01  7.72261074E+00  7.72261074E+00 -1.54452215E+01
  7.72261074E+00  7.72261074E+00 -1.54452215E+01  7.72261074E+00  7.72261074E+00
 -1.54452215E+01  7.72261074E+00  7.72261074E+00 -1.54452215E+01  7.72261074E+00
  7.72261074E+00 -1.54452215E+01  7.72261074E+00  7.72261074E+00 -1.54452215E+01
  7.72261074E+00  7.72261074E+00 -1.54452215E+01  7.72261074E+00  7.72261074E+00
 -1.54452215E+01  7.72261074E+00  7.72261074E+00 -1.54452215E+01  7.72261074E+00
  7.72261074E+00 -1.54452215E+01  7.72261074E+00  7.72261074E+00 -1.54452215E+01
  7.72261074E+00  7.72261074E+00 -1.54452215E+01  7.72261074E+00  7.72261074E+00
 -1.54452215E+01  7.72261074E+00  7.72261074E+00 -1.54452215E+01  7.72261074E+00
  7.72261074E+00 -1.54452215E+01  7.72261074E+00  7.72261074E+00 -1.54452215E+01
  7.72261074E+00  7.72261074E+00 -1.54452215E+01  7.72261074E+00  7.72261074E+00
 -1.54452215E+01  7.72261074E+00  7.72261074E+00 -1.54452215E+01  7.72261074E+00
  7.72261074E+00 -1.54452215E+01  7.72261074E+00  7.72261074E+00 -1.54452215E+01
  7.72261074E+00  7.72261074E+00 -1.54452215E+01  7.72261074E+00  7.72261074E+00
 -1.54452215E+01  7.72261074E+00  7.72261074E+00 -1.54452215E+01  7.72261074E+00
  7.72261074E+00 -1.54452215E+01  7.72261074E+00  7.72261074E+00 -1.54452215E+01
  7.72261074E+00  7.72261074E+00 -1.54452215E+01  7.72261074E+00  7.72261074E+00
 -1.54452215E+01  7.72261074E+00  7.72261074E+00 -1.54452215E+01  7.72261074E+00
  7.72261074E+00 -1.54452215E+01  7.72261074E+00  7.72261074E+00 -1.54452215E+01
  7.72261074E+00  7.72261074E+00 -1.54452215E+01  7.72261074E+00  7.72261074E+00
 -1.54452215E+01  7.72261074E+00  7.72261074E+00 -1.54452215E+01  7.72261074E+00
  7.72261074E+00 -1.54452215E+01  7.72261074E+00  7.72261074E+00 -1.54452215E+01
  7.72261074E+00  7.72261074E+00 -1.54452215E+01  7.72261074E+00  7.72261074E+00
 -1.54452215E+01  7.72261074E+00  7.72261074E+00 -1.54452215E+01  7.72261074E+00
  7.72261074E+00 -1.54452215E+01  7.72261074E+00  7.72261074E+00 -1.54452215E+01
  7.72261074E+00  7.72261074E+00 -1.54452215E+01  7.72261074E+00  7.72261074E+00
 -1.54452215E+01  7.72261074E+00  7.72261074E+00 -1.54452215E+01  7.72261074E+00
  7.72261074E+00 -1.54452215E+01  7.72261074E+00  7.72261074E+00 -1.54452215E+01
  7.72261074E+00  7.72261074E+00 -1.54452215E+01  7.72261074E+00  7.72261074E+00
 -1.54452215E+01  7.72261074E+00  7.72261074E+00 -1.54452215E+01  7.72261074E+00
  7.72261074E+00 -1.54452215E+01  7.72261074E+00  7.72261074E+00 -1.54452215E+01
  7.72261074E+00  7.72261074E+00 -1.54452215E+01  7.72261074E+00  7.72261074E+00
 -1.54452215E+01  7.72261074E+00  7.72261074E+00 -1.54452215E+01  7.72261074E+00
  7.72261074E+00 -1.54452215E+01  7.72261074E+00  7.72261074E+00 -1.54452215E+01
  7.72261074E+00  7.72261074E+00 -1.54452215E+01  7.72261074E+00  7.72261074E+00
 -1.54452215E+01  7.72261074E+00  7.72261074E+00 -1.54452215E+01  7.72261074E+00
  7.72261074E+00 -1.54452215E+01  7.72261074E+00  7.72261074E+00 -1.54452215E+01
  7.72261074E+00  7.72261074E+00 -1.54452215E+01  7.72261074E+00  7.72261074E+00
 -1.54452215E+01  7.72261074E+00  7.72261074E+00 -1.54452215E+01  7.72261074E+00
  7.72261074E+00 -1.54452215E+01  7.72261074E+00  7.72261074E+00 -1.54452215E+01
  7.72261074E+00  7.72261074E+00 -1.54452215E+01  7.72261074E+00  7.72261074E+00
 -1.54452215E+01  7.72261074E+00  7.72261074E+00 -1.54452215E+01  7.72261074E+00
  7.72261074E+00 -1.54452215E+01  7.72261074E+00  7.72261074E+00 -1.54452215E+01
  7.72261074E+00  7.72261074E+00 -1.54452215E+01  7.72261074E+00  7.72261074E+00
 -1.54452215E+01  7.72261074E+00  7.72261074E+00 -1.54452215E+01  7.72261074E+00
  7.72261074E+00 -1.54452215E+01  7.72261074E+00  7.72261074E+00 -1.54452215E+01
  7.72261074E+00  7.72261074E+00 -1.54452215E+01  7.72261074E+00  7.72261074E+00
 -1.54452215E+01  7.72261074E+00  7.72261074E+00 -1.54452215E+01  7.72261074E+00
  7.72261074E+00 -1.54452215E+01  7.72261074E+00  7.72261074E+00 -1.54452215E+01
  7.72261074E+00  7.72261074E+00 -1.54452215E+01  7.72261074E+00  7.72261074E+00
 -1.54452215E+01  7.72261074E+00  7.72261074E+00 -1.54452215E+01  7.72261074E+00
  7.72261074E+00 -1.54452215E+01  7.72261074E+00  7.72261074E+00 -1.54452215E+01
  7.72261074E+00  7.72261074E+00 -1.54452215E+01  7.72261074E+00  7.72261074E+00
 -1.54452215E+01  7.72261074E+00  7.72261074E+00 -1.54452215E+01  7.72261074E+00
  7.72261074E+00 -1.54452215E+01  7.72261074E+00  7.72261074E+00 -1.54452215E+01
  7.72261074E+00  7.72261074E+00 -1.54452215E+01  7.72261074E+00  7.72261074E+00
 -1.54452215E+01  7.72261074E+00  7.72261074E+00 -1.54452215E+01  7.72261074E+00
  7.72261074E+00 -1.54452215E+01  7.72261074E+00  7.72261074E+00 -1.54452215E+01
  7.72261074E+00  7.72261074E+00 -1.54452215E+01  7.72261074E+00  7.72261074E+00
 -1.54452215E+01  7.72261074E+00  7.72261074E+00 -1.54452215E+01  7.72261074E+00
  7.72261074E+00 -1.54452215E+01  7.72261074E+00  7.72261074E+00 -1.54452215E+01
  7.72261074E+00  7.72261074E+00 -1.54452215E+01  7.72261074E+00  7.72261074E+00
 -1.54452215E+01  7.72261074E+00  7.72261074E+00 -1.54452215E+01  7.72261074E+00
  7.72261074E+00 -1.54452215E+01  7.72261074E+00  7.72261074E+00 -1.54452215E+01
  7.72261074E+00  7.72261074E+00 -1.54452215E+01  7.72261074E+00  7.72261074E+00
 -1.54452215E+01  7.72261074E+00  7.72261074E+00 -1.54452215E+01  7.72261074E+00
  7.72261074E+00 -1.54452215E+01  7.72261074E+00  7.72261074E+00 -1.54452215E+01
  7.72261074E+00  7.72261074E+00 -1.54452215E+01  7.72261074E+00  7.72261074E+00
 -1.54452215E+01  7.72261074E+00  7.72261074E+00 -1.54452215E+01  7.72261074E+00
  7.72261074E+00 -1.54452215E+01  7.72261074E+00  7.72261074E+00 -1.54452215E+01
  7.72261074E+00  7.72261074E+00 -1.54452215E+01  7.72261074E+00  7.72261074E+00
 -1.54452215E+01  7.72261074E+00  7.72261074E+00 -1.54452215E+01  7.72261074E+00
  7.72261074E+00 -1.54452215E+01  7.72261074E+00  7.72261074E+00 -1.54452215E+01
  7.72261074E+00  7.72261074E+00 -1.54452215E+01  7.72261074E+00  7.72261074E+00
 -1.54452215E+01  7.72261074E+00  7.72261074E+00 -1.54452215E+01  7.72261074E+00
  7.72261074E+00 -1.54452215E+01  7.72261074E+00  7.72261074E+00 -1.54452215E+01
  7.72261074E+00  7.72261074E+00 -1.54452215E+01  7.72261074E+00  7.72261074E+00
 -1.54452215E+01  7.72261074E+00  7.72261074E+00 -1.54452215E+01  7.72261074E+00
  7.72261074E+00 -1.54452215E+01  7.72261074E+00  7.72261074E+00 -1.54452215E+01
  7.72261074E+00  7.72261074E+00 -1.54452215E+01  7.72261074E+00  7.72261074E+00
 -1.54452215E+01  7.72261074E+00  7.72261074E+00 -1.54452215E+01  7.72261074E+00
  7.72261074E+00 -1.54452215E+01  7.72261074E+00  7.72261074E+00 -1.54452215E+01
  7.72261074E+00  7.72261074E+00 -1.54452215E+01  7.72261074E+00  7.72261074E+00
 -1.54452215E+01  7.72261074E+00  7.72261074E+00 -1.54452215E+01  7.72261074E+00
  7.72261074E+00 -1.54452215E+01  7.72261074E+00  7.72261074E+00 -1.54452215E+01
  7.72261074E+00  7.72261074E+00 -1.54452215E+01  7.72261074E+00  7.72261074E+00
 -1.54452215E+01  7.72261074E+00  7.72261074E+00 -1.54452215E+01  7.72261074E+00
  7.72261074E+00 -1.54452215E+01  7.72261074E+00  7.72261074E+00 -1.54452215E+01
  7.72261074E+00  7.72261074E+00 -1.54452215E+01  7.72261074E+00  7.72261074E+00
 -1.54452215E+01  7.72261074E+00  7.72261074E+00 -1.54452215E+01  7.72261074E+00
  7.72261074E+00 -1.54452215E+01  7.72261074E+00  7.72261074E+00 -1.54452215E+01
  7.72261074E+00  7.72261074E+00 -1.54452215E+01  7.72261074E+00  7.72261074E+00
 -1.54452215E+01  7.72261074E+00  7.72261074E+00 -1.54452215E+01  7.72261074E+00
  7.72261074E+00 -1.54452215E+01  7.72261074E+00  7.72261074E+00 -1.54452215E+01
  7.72261074E+00  7.72261074E+00 -1.54452215E+01  7.72261074E+00  7.72261074E+00
 -1.54452215E+01  7.72261074E+00  7.72261074E+00 -1.54452215E+01  7.72261074E+00
  7.72261074E+00 -1.54452215E+01  7.72261074E+00  7.72261074E+00 -1.54452215E+01
  7.72261074E+00  7.72261074E+00 -1.54452215E+01  7.72261074E+00  7.72261074E+00
 -1.54452215E+01  7.72261074E+00  7.72261074E+00 -1.54452215E+01  7.72261074E+00
  7.72261074E+00 -1.54452215E+01  7.72261074E+00  7.72261074E+00 -1.54452215E+01
  7.72261074E+00  7.72261074E+00 -1.54452215E+01  7.72261074E+00  7.72261074E+00
 -1.54452215E+01  7.72261074E+00  7.72261074E+00 -1.54452215E+01  7.72261074E+00
  7.72261074E+00 -1.54452215E+01  7.72261074E+00  7.72261074E+00 -1.54452215E+01
  7.72261074E+00  7.72261074E+00 -1.54452215E+01  7.72261074E+00  7.72261074E+00
 -1.54452215E+01  7.72261074E+00  7.72261074E+00 -1.54452215E+01  7.72261074E+00
  7.72261074E+00 -1.54452215E+01  7.72261074E+00  7.72261074E+00 -1.54452215E+01
  7.72261074E+00  7.72261074E+00 -1.54452215E+01  7.72261074E+00  7.72261074E+00
 -1.54452215E+01  7.72261074E+00  7.72261074E+00 -1.54452215E+01  7.72261074E+00
  7.72261074E+00 -1.54452215E+01  7.72261074E+00  7.72261074E+00 -1.54452215E+01
  7.72261074E+00  7.72261074E+00 -1.54452215E+01  7.72261074E+00  7.72261074E+00
 -1.54452215E+01  7.72261074E+00  7.72261074E+00 -1.54452215E+01  7.72261074E+00
  7.72261074E+00 -1.54452215E+01  7.72261074E+00  7.72261074E+00 -1.54452215E+01
  7.72261074E+00  7.72261074E+00 -1.54452215E+01  7.72261074E+00  7.72261074E+00
 -1.54452215E+01  7.72261074E+00  7.72261074E+00 -1.54452215E+01  7.72261074E+00
  7.72261074E+00 -1.54452215E+01  7.72261074E+00  7.72261074E+00 -1.54452215E+01
  7.72261074E+00  7.72261074E+00 -1.54452215E+01  7.72261074E+00  7.72261074E+00
 -1.54452215E+01  7.72261074E+00  7.72261074E+00 -1.54452215E+01  7.72261074E+00
  7.72261074E+00 -1.54452215E+01  7.72261074E+00  7.72261074E+00 -1.54452215E+01
  7.72261074E+00  7.72261074E+00 -1.54452215E+01  7.72261074E+00  7.72261074E+00
 -1.54452215E+01  7.72261074E+00  7.72261074E+00 -1.54452215E+01  7.72261074E+00
  7.72261074E+00 -1.54452215E+01  7.72261074E+00  7.72261074E+00 -1.54452215E+01
  7.72261074E+00  7.72261074E+00 -1.54452215E+01  7.72261074E+00  7.72261074E+00
 -1.54452215E+01  7.72261074E+00  7.72261074E+00 -1.54452215E+01  7.72261074E+00
  7.72261074E+00 -1.54452215E+01  7.72261074E+00  7.72261074E+00 -1.54452215E+01
  7.72261074E+00  7.72261074E+00 -1.54452215E+01  7.72261074E+00  7.72261074E+00
 -1.54452215E+01  7.72261074E+00  7.72261074E+00 -1.54452215E+01  7.72261074E+00
  7.72261074E+00 -1.54452215E+01  7.72261074E+00  7.72261074E+00 -1.54452215E+01
  7.72261074E+00  7.72261074E+00 -1.54452215E+01  7.72261074E+00  7.72261074E+00
 -1.54452215E+01  7.72261074E+00  7.72261074E+00 -1.54452215E+01  7.72261074E+00
  7.72261074E+00 -1.54452215E+01  7.72261074E+00  7.72261074E+00 -1.54452215E+01
  7.72261074E+00  7.72261074E+00 -1.54452215E+01  7.72261074E+00  7.72261074E+00
 -1.54452215E+01  7.72261074E+00  7.72261074E+00 -1.54452215E+01  7.72261074E+00
  7.72261074E+00 -1.54452215E+01  7.72261074E+00  7.72261074E+00 -1.54452215E+01
  7.72261074E+00  7.72261074E+00 -1.54452215E+01  7.72261074E+00  7.72261074E+00
 -1.54452215E+01  7.72261074E+00  7.72261074E+00 -1.54452215E+01  7.72261074E+00
  7.72261074E+00 -1.54452215E+01  7.72261074E+00  7.72261074E+00 -1.54452215E+01
  7.72261074E+00  7.72261074E+00 -1.54452215E+01  7.72261074E+00  7.72261074E+00
 -1.54452215E+01  7.72261074E+00  7.72261074E+00 -1.54452215E+01  7.72261074E+00
  7.72261074E+00 -1.54452215E+01  7.72261074E+00  7.72261074E+00 -1.54452215E+01
  7.72261074E+00  7.72261074E+00 -1.54452215E+01  7.72261074E+00  7.72261074E+00
 -1.54452215E+01  7.72261074E+00  7.72261074E+00 -1.54452215E+01  7.72261074E+00
  7.72261074E+00 -1.54452215E+01  7.72261074E+00  7.72261074E+00 -1.54452215E+01
  7.72261074E+00  7.72261074E+00 -1.54452215E+01  7.72261074E+00  7.72261074E+00
 -1.54452215E+01  7.72261074E+00  7.72261074E+00 -1.54452215E+01  7.72261074E+00
  7.72261074E+00 -1.54452215E+01  7.72261074E+00  7.72261074E+00 -1.54452215E+01
  7.72261074E+00  7.72261074E+00 -1.54452215E+01  7.72261074E+00  7.72261074E+00
 -1.54452215E+01  7.72261074E+00  7.72261074E+00 -1.54452215E+01  7.72261074E+00
  7.72261074E+00 -1.54452215E+01  7.72261074E+00  7.72261074E+00 -1.54452215E+01
  7.72261074E+00  7.72261074E+00 -1.54452215E+01  7.72261074E+00  7.72261074E+00
 -1.54452215E+01  7.72261074E+00  7.72261074E+00 -1.54452215E+01  7.72261074E+00
  7.72261074E+00 -1.54452215E+01  7.72261074E+00  7.72261074E+00 -1.54452215E+01
  7.72261074E+00  7.72261074E+00 -1.54452215E+01  7.72261074E+00  7.72261074E+00
 -1.54452215E+01  7.72261074E+00  7.72261074E+00 -1.54452215E+01  7.72261074E+00
  7.72261074E+00 -1.54452215E+01  7.72261074E+00  7.72261074E+00 -1.54452215E+01
  7.72261074E+00  7.72261074E+00 -1.54452215E+01  7.72261074E+00  7.72261074E+00
 -1.54452215E+01  7.72261074E+00  7.72261074E+00 -1.54452215E+01  7.72261074E+00
  7.72261074E+00 -1.54452215E+01  7.72261074E+00  7.72261074E+00 -1.54452215E+01
  7.72261074E+00  7.72261074E+00 -1.54452215E+01  7.72261074E+00  7.72261074E+00
 -1.54452215E+01  7.72261074E+00  7.72261074E+00 -1.54452215E+01  7.72261074E+00
  7.72261074E+00 -1.54452215E+01  7.72261074E+00  7.72261074E+00 -1.54452215E+01
  7.72261074E+00  7.72261074E+00 -1.54452215E+01  7.72261074E+00  7.72261074E+00
 -1.54452215E+01  7.72261074E+00  7.72261074E+00 -1.54452215E+01  7.72261074E+00
  7.72261074E+00 -1.54452215E+01  7.72261074E+00  7.72261074E+00 -1.54452215E+01
  7.72261074E+00  7.72261074E+00 -1.54452215E+01  7.72261074E+00  7.72261074E+00
 -1.54452215E+01  7.72261074E+00  7.72261074E+00 -1.54452215E+01  7.72261074E+00
  7.72261074E+00 -1.54452215E+01  7.72261074E+00  7.72261074E+00 -1.54452215E+01
  7.72261074E+00  7.72261074E+00 -1.54452215E+01  7.72261074E+00  7.72261074E+00
 -1.54452215E+01  7.72261074E+00  7.72261074E+00 -1.54452215E+01  7.72261074E+00
  7.72261074E+00 -1.54452215E+01  7.72261074E+00  7.72261074E+00 -1.54452215E+01
  7.72261074E+00  7.72261074E+00 -1.54452215E+01  7.72261074E+00  7.72261074E+00
 -1.54452215E+01  7.72261074E+00  7.72261074E+00 -1.54452215E+01  7.72261074E+00
  7.72261074E+00 -1.54452215E+01  7.72261074E+00  7.72261074E+00 -1.54452215E+01
  7.72261074E+00  7.72261074E+00 -1.54452215E+01  7.72261074E+00  7.72261074E+00
 -1.54452215E+01  7.72261074E+00  7.72261074E+00 -1.54452215E+01  7.72261074E+00
  7.72261074E+00 -1.54452215E+01  7.72261074E+00  7.72261074E+00 -1.54452215E+01
  7.72261074E+00  7.72261074E+00 -1.54452215E+01  7.72261074E+00  7.72261074E+00
 -1.54452215E+01  7.72261074E+00  7.72261074E+00 -1.54452215E+01  7.72261074E+00
  7.72261074E+00 -1.54452215E+01  7.72261074E+00  7.72261074E+00 -1.54452215E+01
  7.72261074E+00  7.72261074E+00 -1.54452215E+01  7.72261074E+00  7.72261074E+00
 -1.54452215E+01  7.72261074E+00  7.72261074E+00 -1.54452215E+01  7.72261074E+00
  7.72261074E+00 -1.54452215E+01  7.72261074E+00  7.72261074E+00 -1.54452215E+01
  7.72261074E+00  7.72261074E+00 -1.54452215E+01  7.72261074E+00  7.72261074E+00
 -1.54452215E+01  7.72261074E+00  7.72261074E+00 -1.54452215E+01  7.72261074E+00
  7.72261074E+00 -1.54452215E+01  7.72261074E+00  7.72261074E+00 -1.54452215E+01
  7.72261074E+00  7.72261074E+00 -1.54452215E+01  7.72261074E+00  7.72261074E+00
 -1.54452215E+01  7.72261074E+00  7.72261074E+00 -1.54452215E+01  7.72261074E+00
  7.72261074E+00 -1.54452215E+01  7.72261074E+00  7.72261074E+00 -1.54452215E+01
  7.72261074E+00  7.72261074E+00 -1.54452215E+01  7.72261074E+00  7.72261074E+00
 -1.54452215E+01  7.72261074E+00  7.72261074E+00 -1.54452215E+01  7.72261074E+00
  7.72261074E+00 -1.54452215E+01  7.72261074E+00  7.72261074E+00 -1.54452215E+01
  7.72261074E+00  7.72261074E+00 -1.54452215E+01  7.72261074E+00  7.72261074E+00
 -1.54452215E+01  7.72261074E+00  7.72261074E+00 -1.54452215E+01  7.72261074E+00
  7.72261074E+00 -1.54452215E+01  7.72261074E+00  7.72261074E+00 -1.54452215E+01
  7.72261074E+00  7.72261074E+00 -1.54452215E+01  7.72261074E+00  7.72261074E+00
 -1.54452215E+01  7.72261074E+00  7.72261074E+00 -1.54452215E+01  7.72261074E+00
  7.72261074E+00 -1.54452215E+01  7.72261074E+00  7.72261074E+00 -1.54452215E+01
  7.72261074E+00  7.72261074E+00 -1.54452215E+01  7.72261074E+00  7.72261074E+00
 -1.54452215E+01  7.72261074E+00  7.72261074E+00 -1.54452215E+01  7.72261074E+00
  7.72261074E+00 -1.54452215E+01  7.72261074E+00  7.72261074E+00 -1.54452215E+01
  7.72261074E+00  7.72261074E+00 -1.54452215E+01  7.72261074E+00  7.72261074E+00
 -1.54452215E+01  7.72261074E+00  7.72261074E+00 -1.54452215E+01  7.72261074E+00
  7.72261074E+00 -1.54452215E+01  7.72261074E+00  7.72261074E+00 -1.54452215E+01
  7.72261074E+00  7.72261074E+00 -1.54452215E+01  7.72261074E+00  7.72261074E+00
 -1.54452215E+01  7.72261074E+00  7.72261074E+00 -1.54452215E+01  7.72261074E+00
  7.72261074E+00 -1.54452215E+01  7.72261074E+00  7.72261074E+00 -1.54452215E+01
  7.72261074E+00  7.72261074E+00 -1.54452215E+01  7.72261074E+00  7.72261074E+00
 -1.54452215E+01  7.72261074E+00  7.72261074E+00 -1.54452215E+01  7.72261074E+00
  7.72261074E+00 -1.54452215E+01  7.72261074E+00  7.72261074E+00 -1.54452215E+01
  7.72261074E+00  7.72261074E+00 -1.54452215E+01  7.72261074E+00  7.72261074E+00
 -1.54452215E+01  7.72261074E+00  7.72261074E+00 -1.54452215E+01  7.72261074E+00
  7.72261074E+00 -1.54452215E+01  7.72261074E+00  7.72261074E+00 -1.54452215E+01
  7.72261074E+00  7.72261074E+00 -1.54452215E+01  7.72261074E+00  7.72261074E+00
 -1.54452215E+01  7.72261074E+00  7.72261074E+00 -1.54452215E+01  7.72261074E+00
  7.72261074E+00 -1.54452215E+01  7.72261074E+00  7.72261074E+00 -1.54452215E+01
  7.72261074E+00  7.72261074E+00 -1.54452215E+01  7.72261074E+00  7.72261074E+00
 -1.54452215E+01  7.72261074E+00  7.72261074E+00 -1.54452215E+01  7.72261074E+00
  7.72261074E+00 -1.54452215E+01  7.72261074E+00  7.72261074E+00 -1.54452215E+01
  7.72261074E+00  7.72261074E+00 -1.54452215E+01  7.72261074E+00  7.72261074E+00
 -1.54452215E+01  7.72261074E+00  7.72261074E+00 -1.54452215E+01  7.72261074E+00
  7.72261074E+00 -1.54452215E+01  7.72261074E+00  7.72261074E+00 -1.54452215E+01
  7.72261074E+00  7.72261074E+00 -1.54452215E+01  7.72261074E+00  7.72261074E+00
 -1.54452215E+01  7.72261074E+00  7.72261074E+00 -1.54452215E+01  7.72261074E+00
  7.72261074E+00 -1.54452215E+01  7.72261074E+00  7.72261074E+00 -1.54452215E+01
  7.72261074E+00  7.72261074E+00 -1.54452215E+01  7.72261074E+00  7.72261074E+00
 -1.54452215E+01  7.72261074E+00  7.72261074E+00 -1.54452215E+01  7.72261074E+00
  7.72261074E+00 -1.54452215E+01  7.72261074E+00  7.72261074E+00 -1.54452215E+01
  7.72261074E+00  7.72261074E+00 -1.54452215E+01  7.72261074E+00  7.72261074E+00
 -1.54452215E+01  7.72261074E+00  7.72261074E+00 -1.54452215E+01  7.72261074E+00
  7.72261074E+00 -1.54452215E+01  7.72261074E+00  7.72261074E+00 -1.54452215E+01
  7.72261074E+00  7.72261074E+00 -1.54452215E+01  7.72261074E+00  7.72261074E+00
 -1.54452215E+01  7.72261074E+00  7.72261074E+00 -1.54452215E+01  7.72261074E+00
  7.72261074E+00 -1.54452215E+01  7.72261074E+00  7.72261074E+00 -1.54452215E+01
  7.72261074E+00  7.72261074E+00 -1.54452215E+01  7.72261074E+00  7.72261074E+00
 -1.54452215E+01  7.72261074E+00  7.72261074E+00 -1.54452215E+01  7.72261074E+00
  7.72261074E+00 -1.54452215E+01  7.72261074E+00  7.72261074E+00 -1.54452215E+01
  7.72261074E+00  7.72261074E+00 -1.54452215E+01  7.72261074E+00  7.72261074E+00
 -1.54452215E+01  7.72261074E+00  7.72261074E+00 -1.54452215E+01  7.72261074E+00
  7.72261074E+00 -1.54452215E+01  7.72261074E+00  7.72261074E+00 -1.54452215E+01
  7.72261074E+00  7.72261074E+00 -1.54452215E+01  7.72261074E+00  7.72261074E+00
 -1.54452215E+01  7.72261074E+00  7.72261074E+00 -1.54452215E+01  7.72261074E+00
  7.72261074E+00 -1.54452215E+01  7.72261074E+00  7.72261074E+00 -1.54452215E+01
  7.72261074E+00  7.72261074E+00 -1.54452215E+01  7.72261074E+00  7.72261074E+00
 -1.54452215E+01  7.72261074E+00  7.72261074E+00 -1.54452215E+01  7.72261074E+00
  7.72261074E+00 -1.54452215E+01  7.72261074E+00  7.72261074E+00 -1.54452215E+01
  7.72261074E+00  7.72261074E+00 -1.54452215E+01  7.72261074E+00  7.72261074E+00
 -1.54452215E+01  7.72261074E+00  7.72261074E+00 -1.54452215E+01  7.72261074E+00
  7.72261074E+00 -1.54452215E+01  7.72261074E+00  7.72261074E+00 -1.54452215E+01
  7.72261074E+00  7.72261074E+00 -1.54452215E+01  7.72261074E+00  7.72261074E+00
 -1.54452215E+01  7.72261074E+00  7.72261074E+00 -1.54452215E+01  7.72261074E+00
  7.72261074E+00 -1.54452215E+01  7.72261074E+00  7.72261074E+00 -1.54452215E+01
  7.72261074E+00  7.72261074E+00 -1.54452215E+01  7.72261074E+00  7.72261074E+00
 -1.54452215E+01  7.72261074E+00  7.72261074E+00 -1.54452215E+01  7.72261074E+00
  7.72261074E+00 -1.54452215E+01  7.72261074E+00  7.72261074E+00 -1.54452215E+01
  7.72261074E+00  7.72261074E+00 -1.54452215E+01  7.72261074E+00  7.72261074E+00
 -1.54452215E+01  7.72261074E+00  7.72261074E+00 -1.54452215E+01  7.72261074E+00
  7.72261074E+00 -1.54452215E+01  7.72261074E+00  7.72261074E+00 -1.54452215E+01
  7.72261074E+00  7.72261074E+00 -1.54452215E+01  7.72261074E+00  7.72261074E+00
 -1.54452215E+01  7.72261074E+00  7.72261074E+00 -1.54452215E+01  7.72261074E+00
  7.72261074E+00 -1.54452215E+01  7.72261074E+00  7.72261074E+00 -1.54452215E+01
  7.72261074E+00  7.72261074E+00 -1.54452215E+01  7.72261074E+00  7.72261074E+00
 -1.54452215E+01  7.72261074E+00  7.72261074E+00 -1.54452215E+01  7.72261074E+00
  7.72261074E+00 -1.54452215E+01  7.72261074E+00  7.72261074E+00 -1.54452215E+01
  7.72261074E+00  7.72261074E+00 -1.54452215E+01  7.72261074E+00  7.72261074E+00
 -1.54452215E+01  7.72261074E+00  7.72261074E+00 -1.54452215E+01  7.72261074E+00
  7.72261074E+00 -1.54452215E+01  7.72261074E+00  7.72261074E+00 -1.54452215E+01
  7.72261074E+00  7.72261074E+00 -1.54452215E+01  7.72261074E+00  7.72261074E+00
 -1.54452215E+01  7.72261074E+00  7.72261074E+00 -1.54452215E+01  7.72261074E+00
  7.72261074E+00 -1.54452215E+01  7.72261074E+00  7.72261074E+00 -1.54452215E+01
  7.72261074E+00  7.72261074E+00 -1.54452215E+01  7.72261074E+00  7.72261074E+00
 -1.54452215E+01  7.72261074E+00  7.72261074E+00 -1.54452215E+01  7.72261074E+00
  7.72261074E+00 -1.54452215E+01  7.72261074E+00  7.72261074E+00 -1.54452215E+01
  7.72261074E+00  7.72261074E+00 -1.54452215E+01  7.72261074E+00  7.72261074E+00
 -1.54452215E+01  7.72261074E+00  7.72261074E+00 -1.54452215E+01  7.72261074E+00
  7.72261074E+00 -1.54452215E+01  7.72261074E+00  7.72261074E+00 -1.54452215E+01
  7.72261074E+00  7.72261074E+00 -1.54452215E+01  7.72261074E+00  7.72261074E+00
 -1.54452215E+01  7.72261074E+00  7.72261074E+00 -1.54452215E+01  7.72261074E+00
  7.72261074E+00 -1.54452215E+01  7.72261074E+00  7.72261074E+00 -1.54452215E+01
  7.72261074E+00  7.72261074E+00 -1.54452215E+01  7.72261074E+00  7.72261074E+00
 -1.54452215E+01  7.72261074E+00  7.72261074E+00 -1.54452215E+01  7.72261074E+00
  7.72261074E+00 -1.54452215E+01  7.72261074E+00  7.72261074E+00 -1.54452215E+01
  7.72261074E+00  7.72261074E+00 -1.54452215E+01  7.72261074E+00  7.72261074E+00
 -1.54452215E+01  7.72261074E+00  7.72261074E+00 -1.54452215E+01  7.72261074E+00
  7.72261074E+00 -1.54452215E+01  7.72261074E+00  7.72261074E+00 -1.54452215E+01
  7.72261074E+00  7.72261074E+00 -1.54452215E+01  7.72261074E+00  7.72261074E+00
 -1.54452215E+01  7.72261074E+00  7.72261074E+00 -1.54452215E+01  7.72261074E+00
  7.72261074E+00 -1.54452215E+01  7.72261074E+00  7.72261074E+00 -1.54452215E+01
  7.72261074E+00  7.72261074E+00 -1.54452215E+01  7.72261074E+00  7.72261074E+00
 -1.54452215E+01  7.72261074E+00  7.72261074E+00 -1.54452215E+01  7.72261074E+00
  7.72261074E+00 -1.54452215E+01  7.72261074E+00  7.72261074E+00 -1.54452215E+01
  7.72261074E+00  7.72261074E+00 -1.54452215E+01  7.72261074E+00  7.72261074E+00
 -1.54452215E+01  7.72261074E+00  7.72261074E+00 -1.54452215E+01  7.72261074E+00
  7.72261074E+00 -1.54452215E+01  7.72261074E+00  7.72261074E+00 -1.54452215E+01
  7.72261074E+00  7.72261074E+00 -1.54452215E+01  7.72261074E+00  7.72261074E+00
 -1.54452215E+01  7.72261074E+00  7.72261074E+00 -1.54452215E+01  7.72261074E+00
  7.72261074E+00 -1.54452215E+01  7.72261074E+00  7.72261074E+00 -1.54452215E+01
  7.72261074E+00  7.72261074E+00 -1.54452215E+01  7.72261074E+00  7.72261074E+00
 -1.54452215E+01  7.72261074E+00  7.72261074E+00 -1.54452215E+01  7.72261074E+00
  7.72261074E+00 -1.54452215E+01  7.72261074E+00  7.72261074E+00 -1.54452215E+01
  7.72261074E+00  7.72261074E+00 -1.54452215E+01  7.72261074E+00  7.72261074E+00
 -1.54452215E+01  7.72261074E+00  7.72261074E+00 -1.54452215E+01  7.72261074E+00
  7.72261074E+00 -1.54452215E+01  7.72261074E+00  7.72261074E+00 -1.54452215E+01
  7.72261074E+00  7.72261074E+00 -1.54452215E+01  7.72261074E+00  7.72261074E+00
 -1.54452215E+01  7.72261074E+00  7.72261074E+00 -1.54452215E+01  7.72261074E+00
  7.72261074E+00 -1.54452215E+01  7.72261074E+00  7.72261074E+00 -1.54452215E+01
  7.72261074E+00  7.72261074E+00 -1.54452215E+01  7.72261074E+00  7.72261074E+00
 -1.54452215E+01  7.72261074E+00  7.72261074E+00 -1.54452215E+01  7.72261074E+00
  7.72261074E+00 -1.54452215E+01  7.72261074E+00  7.72261074E+00 -1.54452215E+01
  7.72261074E+00  7.72261074E+00 -1.54452215E+01  7.72261074E+00  7.72261074E+00
 -1.54452215E+01  7.72261074E+00  7.72261074E+00 -1.54452215E+01  7.72261074E+00
  7.72261074E+00 -1.54452215E+01  7.72261074E+00  7.72261074E+00 -1.54452215E+01
  7.72261074E+00  7.72261074E+00 -1.54452215E+01  7.72261074E+00  7.72261074E+00
 -1.54452215E+01  7.72261074E+00  7.72261074E+00 -1.54452215E+01  7.72261074E+00
  7.72261074E+00 -1.54452215E+01  7.72261074E+00  7.72261074E+00 -1.54452215E+01
  7.72261074E+00  7.72261074E+00 -1.54452215E+01  7.72261074E+00  7.72261074E+00
 -1.54452215E+01  7.72261074E+00  7.72261074E+00 -1.54452215E+01  7.72261074E+00
  7.72261074E+00 -1.54452215E+01  7.72261074E+00  7.72261074E+00 -1.54452215E+01
  7.72261074E+00  7.72261074E+00 -1.54452215E+01  7.72261074E+00  7.72261074E+00
 -1.54452215E+01  7.72261074E+00  7.72261074E+00 -1.54452215E+01  7.72261074E+00
  7.72261074E+00 -1.54452215E+01  7.72261074E+00  7.72261074E+00 -1.54452215E+01
  7.72261074E+00  7.72261074E+00 -1.54452215E+01  7.72261074E+00  7.72261074E+00
 -1.54452215E+01  7.72261074E+00  7.72261074E+00 -1.54452215E+01  7.72261074E+00
  7.72261074E+00 -1.54452215E+01  7.72261074E+00  7.72261074E+00 -1.54452215E+01
  7.72261074E+00  7.72261074E+00 -1.54452215E+01  7.72261074E+00  7.72261074E+00
 -1.54452215E+01  7.72261074E+00  7.72261074E+00 -1.54452215E+01  7.72261074E+00
  7.72261074E+00 -1.54452215E+01  7.72261074E+00  7.72261074E+00 -1.54452215E+01
  7.72261074E+00  7.72261074E+00 -1.54452215E+01  7.72261074E+00  7.72261074E+00
 -1.54452215E+01  7.72261074E+00  7.72261074E+00 -1.54452215E+01  7.72261074E+00
  7.72261074E+00 -1.54452215E+01  7.72261074E+00  7.72261074E+00 -1.54452215E+01
  7.72261074E+00  7.72261074E+00 -1.54452215E+01  7.72261074E+00  7.72261074E+00
 -1.54452215E+01  7.72261074E+00  7.72261074E+00 -1.54452215E+01  7.72261074E+00
  7.72261074E+00 -1.54452215E+01  7.72261074E+00  7.72261074E+00 -1.54452215E+01
  7.72261074E+00  7.72261074E+00 -1.54452215E+01  7.72261074E+00  7.72261074E+00
 -1.54452215E+01  7.72261074E+00  7.72261074E+00 -1.54452215E+01  7.72261074E+00
  7.72261074E+00 -1.54452215E+01  7.72261074E+00  7.72261074E+00 -1.54452215E+01
  7.72261074E+00  7.72261074E+00 -1.54452215E+01  7.72261074E+00  7.72261074E+00
 -1.54452215E+01  7.72261074E+00  7.72261074E+00 -1.54452215E+01  7.72261074E+00
  7.72261074E+00 -1.54452215E+01  7.72261074E+00  7.72261074E+00 -1.54452215E+01
  7.72261074E+00  7.72261074E+00 -1.54452215E+01  7.72261074E+00  7.72261074E+00
 -1.54452215E+01  7.72261074E+00  7.72261074E+00 -1.54452215E+01  7.72261074E+00
  7.72261074E+00 -1.54452215E+01  7.72261074E+00  7.72261074E+00 -1.54452215E+01
  7.72261074E+00  7.72261074E+00 -1.54452215E+01  7.72261074E+00  7.72261074E+00
 -1.54452215E+01  7.72261074E+00  7.72261074E+00 -1.54452215E+01  7.72261074E+00
  7.72261074E+00 -1.54452215E+01  7.72261074E+00  7.72261074E+00 -1.54452215E+01
  7.72261074E+00  7.72261074E+00 -1.54452215E+01  7.72261074E+00  7.72261074E+00
 -1.54452215E+01  7.72261074E+00  7.72261074E+00 -1.54452215E+01  7.72261074E+00
  7.72261074E+00 -1.54452215E+01  7.72261074E+00  7.72261074E+00 -1.54452215E+01
  7.72261074E+00  7.72261074E+00 -1.54452215E+01  7.72261074E+00  7.72261074E+00
 -1.54452215E+01  7.72261074E+00  7.72261074E+00 -1.54452215E+01  7.72261074E+00
  7.72261074E+00 -1.54452215E+01  7.72261074E+00  7.72261074E+00 -1.54452215E+01
  7.72261074E+00  7.72261074E+00 -1.54452215E+01  7.72261074E+00  7.72261074E+00
 -1.54452215E+01  7.72261074E+00  7.72261074E+00 -1.54452215E+01  7.72261074E+00
  7.72261074E+00 -1.54452215E+01  7.72261074E+00  7.72261074E+00 -1.54452215E+01
  7.72261074E+00  7.72261074E+00 -1.54452215E+01  7.72261074E+00  7.72261074E+00
 -1.54452215E+01  7.72261074E+00  7.72261074E+00 -1.54452215E+01  7.72261074E+00
  7.72261074E+00 -1.54452215E+01  7.72261074E+00  7.72261074E+00 -1.54452215E+01
  7.72261074E+00  7.72261074E+00 -1.54452215E+01  7.72261074E+00  7.72261074E+00
 -1.54452215E+01  7.72261074E+00  7.72261074E+00 -1.54452215E+01  7.72261074E+00
  7.72261074E+00 -1.54452215E+01  7.72261074E+00  7.72261074E+00 -1.54452215E+01
  7.72261074E+00  7.72261074E+00 -1.54452215E+01  7.72261074E+00  7.72261074E+00
 -1.54452215E+01  7.72261074E+00  7.72261074E+00 -1.54452215E+01  7.72261074E+00
  7.72261074E+00 -1.54452215E+01  7.72261074E+00  7.72261074E+00 -1.54452215E+01
  7.72261074E+00  7.72261074E+00 -1.54452215E+01  7.72261074E+00  7.72261074E+00
 -1.54452215E+01  7.72261074E+00  7.72261074E+00 -1.54452215E+01  7.72261074E+00
  7.72261074E+00 -1.54452215E+01  7.72261074E+00  7.72261074E+00 -1.54452215E+01
  7.72261074E+00  7.72261074E+00 -1.54452215E+01  7.72261074E+00  7.72261074E+00
 -1.54452215E+01  7.72261074E+00  7.72261074E+00 -1.54452215E+01  7.72261074E+00
  7.72261074E+00 -1.54452215E+01  7.72261074E+00  7.72261074E+00 -1.54452215E+01
  7.72261074E+00  7.72261074E+00 -1.54452215E+01  7.72261074E+00  7.72261074E+00
 -1.54452215E+01  7.72261074E+00  7.72261074E+00 -1.54452215E+01  7.72261074E+00
  7.72261074E+00 -1.54452215E+01  7.72261074E+00  7.72261074E+00 -1.54452215E+01
  7.72261074E+00  7.72261074E+00 -1.54452215E+01  7.72261074E+00  7.72261074E+00
 -1.54452215E+01  7.72261074E+00  7.72261074E+00 -1.54452215E+01  7.72261074E+00
  7.72261074E+00 -1.54452215E+01  7.72261074E+00  7.72261074E+00 -1.54452215E+01
  7.72261074E+00  7.72261074E+00 -1.54452215E+01  7.72261074E+00  7.72261074E+00
 -1.54452215E+01  7.72261074E+00  7.72261074E+00 -1.54452215E+01  7.72261074E+00
  7.72261074E+00 -1.54452215E+01  7.72261074E+00  7.72261074E+00 -1.54452215E+01
  7.72261074E+00  7.72261074E+00 -1.54452215E+01  7.72261074E+00  7.72261074E+00
 -1.54452215E+01  7.72261074E+00  7.72261074E+00 -1.54452215E+01  7.72261074E+00
  7.72261074E+00 -1.54452215E+01  7.72261074E+00  7.72261074E+00 -1.54452215E+01
  7.72261074E+00  7.72261074E+00 -1.54452215E+01  7.72261074E+00  7.72261074E+00
 -1.54452215E+01  7.72261074E+00  7.72261074E+00 -1.54452215E+01  7.72261074E+00
  7.72261074E+00 -1.54452215E+01  7.72261074E+00  7.72261074E+00 -1.54452215E+01
  7.72261074E+00  7.72261074E+00 -1.54452215E+01  7.72261074E+00  7.72261074E+00
 -1.54452215E+01  7.72261074E+00  7.72261074E+00 -1.54452215E+01  7.72261074E+00
  7.72261074E+00 -1.54452215E+01  7.72261074E+00  7.72261074E+00 -1.54452215E+01
  7.72261074E+00  7.72261074E+00 -1.54452215E+01  7.72261074E+00  7.72261074E+00
 -1.54452215E+01  7.72261074E+00  7.72261074E+00 -1.54452215E+01  7.72261074E+00
  7.72261074E+00 -1.54452215E+01  7.72261074E+00  7.72261074E+00 -1.54452215E+01
  7.72261074E+00  7.72261074E+00 -1.54452215E+01  7.72261074E+00  7.72261074E+00
 -1.54452215E+01  7.72261074E+00  7.72261074E+00 -1.54452215E+01  7.72261074E+00
  7.72261074E+00 -1.54452215E+01  7.72261074E+00  7.72261074E+00 -1.54452215E+01
  7.72261074E+00  7.72261074E+00 -1.54452215E+01  7.72261074E+00  7.72261074E+00
 -1.54452215E+01  7.72261074E+00  7.72261074E+00 -1.54452215E+01  7.72261074E+00
  7.72261074E+00 -1.54452215E+01  7.72261074E+00  7.72261074E+00 -1.54452215E+01
  7.72261074E+00  7.72261074E+00 -1.54452215E+01  7.72261074E+00  7.72261074E+00
 -1.54452215E+01  7.72261074E+00  7.72261074E+00 -1.54452215E+01  7.72261074E+00
  7.72261074E+00 -1.54452215E+01  7.72261074E+00  7.72261074E+00 -1.54452215E+01
  7.72261074E+00  7.72261074E+00 -1.54452215E+01  7.72261074E+00  7.72261074E+00
 -1.54452215E+01  7.72261074E+00  7.72261074E+00 -1.54452215E+01  7.72261074E+00
  7.72261074E+00 -1.54452215E+01  7.72261074E+00  7.72261074E+00 -1.54452215E+01
  7.72261074E+00  7.72261074E+00 -1.54452215E+01  7.72261074E+00  7.72261074E+00
 -1.54452215E+01  7.72261074E+00  7.72261074E+00 -1.54452215E+01  7.72261074E+00
  7.72261074E+00 -1.54452215E+01  7.72261074E+00  7.72261074E+00 -1.54452215E+01
  7.72261074E+00  7.72261074E+00 -1.54452215E+01  7.72261074E+00  7.72261074E+00
 -1.54452215E+01  7.72261074E+00  7.72261074E+00 -1.54452215E+01  7.72261074E+00
  7.72261074E+00 -1.54452215E+01  7.72261074E+00  7.72261074E+00 -1.54452215E+01
  7.72261074E+00  7.72261074E+00 -1.54452215E+01  7.72261074E+00  7.72261074E+00
 -1.54452215E+01  7.72261074E+00  7.72261074E+00 -1.54452215E+01  7.72261074E+00
  7.72261074E+00 -1.54452215E+01  7.72261074E+00  7.72261074E+00 -1.54452215E+01
  7.72261074E+00  7.72261074E+00 -1.54452215E+01  7.72261074E+00  7.72261074E+00
 -1.54452215E+01  7.72261074E+00  7.72261074E+00 -1.54452215E+01  7.72261074E+00
  7.72261074E+00 -1.54452215E+01  7.72261074E+00  7.72261074E+00 -1.54452215E+01
  7.72261074E+00  7.72261074E+00 -1.54452215E+01  7.72261074E+00  7.72261074E+00
 -1.54452215E+01  7.72261074E+00  7.72261074E+00 -1.54452215E+01  7.72261074E+00
  7.72261074E+00 -1.54452215E+01  7.72261074E+00  7.72261074E+00 -1.54452215E+01
  7.72261074E+00  7.72261074E+00 -1.54452215E+01  7.72261074E+00  7.72261074E+00
 -1.54452215E+01  7.72261074E+00  7.72261074E+00 -1.54452215E+01  7.72261074E+00
  7.72261074E+00 -1.54452215E+01  7.72261074E+00  7.72261074E+00 -1.54452215E+01
  7.72261074E+00  7.72261074E+00 -1.54452215E+01  7.72261074E+00  7.72261074E+00
 -1.54452215E+01  7.72261074E+00  7.72261074E+00 -1.54452215E+01  7.72261074E+00
  7.72261074E+00 -1.54452215E+01  7.72261074E+00  7.72261074E+00 -1.54452215E+01
  7.72261074E+00  7.72261074E+00 -1.54452215E+01  7.72261074E+00  7.72261074E+00
 -1.54452215E+01  7.72261074E+00  7.72261074E+00 -1.54452215E+01  7.72261074E+00
  7.72261074E+00 -1.54452215E+01  7.72261074E+00  7.72261074E+00 -1.54452215E+01
  7.72261074E+00  7.72261074E+00 -1.54452215E+01  7.72261074E+00  7.72261074E+00
 -1.54452215E+01  7.72261074E+00  7.72261074E+00 -1.54452215E+01  7.72261074E+00
  7.72261074E+00 -1.54452215E+01  7.72261074E+00  7.72261074E+00 -1.54452215E+01
  7.72261074E+00  7.72261074E+00 -1.54452215E+01  7.72261074E+00  7.72261074E+00
 -1.54452215E+01  7.72261074E+00  7.72261074E+00 -1.54452215E+01  7.72261074E+00
  7.72261074E+00 -1.54452215E+01  7.72261074E+00  7.72261074E+00 -1.54452215E+01
  7.72261074E+00  7.72261074E+00 -1.54452215E+01  7.72261074E+00  7.72261074E+00
 -1.54452215E+01  7.72261074E+00  7.72261074E+00 -1.54452215E+01  7.72261074E+00
  7.72261074E+00 -1.54452215E+01  7.72261074E+00  7.72261074E+00 -1.54452215E+01
  7.72261074E+00  7.72261074E+00 -1.54452215E+01  7.72261074E+00  7.72261074E+00
 -1.54452215E+01  7.72261074E+00  7.72261074E+00 -1.54452215E+01  7.72261074E+00
  7.72261074E+00 -1.54452215E+01  7.72261074E+00  7.72261074E+00 -1.54452215E+01
  7.72261074E+00  7.72261074E+00 -1.54452215E+01  7.72261074E+00  7.72261074E+00
 -1.54452215E+01  7.72261074E+00  7.72261074E+00 -1.54452215E+01  7.72261074E+00
  7.72261074E+00 -1.54452215E+01  7.72261074E+00  7.72261074E+00 -1.54452215E+01
  7.72261074E+00  7.72261074E+00 -1.54452215E+01  7.72261074E+00  7.72261074E+00
 -1.54452215E+01  7.72261074E+00  7.72261074E+00 -1.54452215E+01  7.72261074E+00
  7.72261074E+00 -1.54452215E+01  7.72261074E+00  7.72261074E+00 -1.54452215E+01
  7.72261074E+00  7.72261074E+00 -1.54452215E+01  7.72261074E+00  7.72261074E+00
 -1.54452215E+01  7.72261074E+00  7.72261074E+00 -1.54452215E+01  7.72261074E+00
  7.72261074E+00 -1.54452215E+01  7.72261074E+00  7.72261074E+00 -1.54452215E+01
  7.72261074E+00  7.72261074E+00 -1.54452215E+01  7.72261074E+00  7.72261074E+00
 -1.54452215E+01  7.72261074E+00  7.72261074E+00 -1.54452215E+01  7.72261074E+00
  7.72261074E+00 -1.54452215E+01  7.72261074E+00  7.72261074E+00 -1.54452215E+01
  7.72261074E+00  7.72261074E+00 -1.54452215E+01  7.72261074E+00  7.72261074E+00
 -1.54452215E+01  7.72261074E+00  7.72261074E+00 -1.54452215E+01  7.72261074E+00
  7.72261074E+00 -1.54452215E+01  7.72261074E+00  7.72261074E+00 -1.54452215E+01
  7.72261074E+00  7.72261074E+00 -1.54452215E+01  7.72261074E+00  7.72261074E+00
 -1.54452215E+01  7.72261074E+00  7.72261074E+00 -1.54452215E+01  7.72261074E+00
  7.72261074E+00 -1.54452215E+01  7.72261074E+00  7.72261074E+00 -1.54452215E+01
  7.72261074E+00  7.72261074E+00 -1.54452215E+01  7.72261074E+00  7.72261074E+00
 -1.54452215E+01  7.72261074E+00  7.72261074E+00 -1.54452215E+01  7.72261074E+00
  7.72261074E+00 -1.54452215E+01  7.72261074E+00  7.72261074E+00 -1.54452215E+01
  7.72261074E+00  7.72261074E+00 -1.54452215E+01  7.72261074E+00  7.72261074E+00
 -1.54452215E+01  7.72261074E+00  7.72261074E+00 -1.54452215E+01  7.72261074E+00
  7.72261074E+00 -1.54452215E+01  7.72261074E+00  7.72261074E+00 -1.54452215E+01
  7.72261074E+00  7.72261074E+00 -1.54452215E+01  7.72261074E+00  7.72261074E+00
 -1.54452215E+01  7.72261074E+00  7.72261074E+00 -1.54452215E+01  7.72261074E+00
  7.72261074E+00 -1.54452215E+01  7.72261074E+00  7.72261074E+00 -1.54452215E+01
  7.72261074E+00  7.72261074E+00 -1.54452215E+01  7.72261074E+00  7.72261074E+00
 -1.54452215E+01  7.72261074E+00  7.72261074E+00 -1.54452215E+01  7.72261074E+00
  7.72261074E+00 -1.54452215E+01  7.72261074E+00  7.72261074E+00 -1.54452215E+01
  7.72261074E+00  7.72261074E+00 -1.54452215E+01  7.72261074E+00  7.72261074E+00
 -1.54452215E+01  7.72261074E+00  7.72261074E+00 -1.54452215E+01  7.72261074E+00
  7.72261074E+00 -1.54452215E+01  7.72261074E+00  7.72261074E+00 -1.54452215E+01
  7.72261074E+00  7.72261074E+00 -1.54452215E+01  7.72261074E+00  7.72261074E+00
 -1.54452215E+01  7.72261074E+00  7.72261074E+00 -1.54452215E+01  7.72261074E+00
  7.72261074E+00 -1.54452215E+01  7.72261074E+00  7.72261074E+00 -1.54452215E+01
  7.72261074E+00  7.72261074E+00 -1.54452215E+01  7.72261074E+00  7.72261074E+00
 -1.54452215E+01  7.72261074E+00  7.72261074E+00 -1.54452215E+01  7.72261074E+00
  7.72261074E+00 -1.54452215E+01  7.72261074E+00  7.72261074E+00 -1.54452215E+01
  7.72261074E+00  7.72261074E+00 -1.54452215E+01  7.72261074E+00  7.72261074E+00
 -1.54452215E+01  7.72261074E+00  7.72261074E+00 -1.54452215E+01  7.72261074E+00
  7.72261074E+00 -1.54452215E+01  7.72261074E+00  7.72261074E+00 -1.54452215E+01
  7.72261074E+00  7.72261074E+00 -1.54452215E+01  7.72261074E+00  7.72261074E+00
 -1.54452215E+01  7.72261074E+00  7.72261074E+00 -1.54452215E+01  7.72261074E+00
  7.72261074E+00 -1.54452215E+01  7.72261074E+00  7.72261074E+00 -1.54452215E+01
  7.72261074E+00  7.72261074E+00 -1.54452215E+01  7.72261074E+00  7.72261074E+00
 -1.54452215E+01  7.72261074E+00  7.72261074E+00 -1.54452215E+01  7.72261074E+00
  7.72261074E+00 -1.54452215E+01  7.72261074E+00  7.72261074E+00 -1.54452215E+01
  7.72261074E+00  7.72261074E+00 -1.54452215E+01  7.72261074E+00  7.72261074E+00
 -1.54452215E+01  7.72261074E+00  7.72261074E+00 -1.54452215E+01  7.72261074E+00
  7.72261074E+00 -1.54452215E+01  7.72261074E+00  7.72261074E+00 -1.54452215E+01
  7.72261074E+00  7.72261074E+00 -1.54452215E+01  7.72261074E+00  7.72261074E+00
 -1.54452215E+01  7.72261074E+00  7.72261074E+00 -1.54452215E+01  7.72261074E+00
  7.72261074E+00 -1.54452215E+01  7.72261074E+00  7.72261074E+00 -1.54452215E+01
  7.72261074E+00  7.72261074E+00 -1.54452215E+01  7.72261074E+00  7.72261074E+00
 -1.54452215E+01  7.72261074E+00  7.72261074E+00 -1.54452215E+01  7.72261074E+00
  7.72261074E+00 -1.54452215E+01  7.72261074E+00  7.72261074E+00 -1.54452215E+01
  7.72261074E+00  7.72261074E+00 -1.54452215E+01  7.72261074E+00  7.72261074E+00
 -1.54452215E+01  7.72261074E+00  7.72261074E+00 -1.54452215E+01  7.72261074E+00
  7.72261074E+00 -1.54452215E+01  7.72261074E+00  7.72261074E+00 -1.54452215E+01
  7.72261074E+00  7.72261074E+00 -1.54452215E+01  7.72261074E+00  7.72261074E+00
 -1.54452215E+01  7.72261074E+00  7.72261074E+00 -1.54452215E+01  7.72261074E+00
  7.72261074E+00 -1.54452215E+01  7.72261074E+00  7.72261074E+00 -1.54452215E+01
  7.72261074E+00  7.72261074E+00 -1.54452215E+01  7.72261074E+00  7.72261074E+00
 -1.54452215E+01  7.72261074E+00  7.72261074E+00 -1.54452215E+01  7.72261074E+00
  7.72261074E+00 -1.54452215E+01  7.72261074E+00  7.72261074E+00 -1.54452215E+01
  7.72261074E+00  7.72261074E+00 -1.54452215E+01  7.72261074E+00  7.72261074E+00
 -1.54452215E+01  7.72261074E+00  7.72261074E+00 -1.54452215E+01  7.72261074E+00
  7.72261074E+00 -1.54452215E+01  7.72261074E+00  7.72261074E+00 -1.54452215E+01
  7.72261074E+00  7.72261074E+00 -1.54452215E+01  7.72261074E+00  7.72261074E+00
 -1.54452215E+01  7.72261074E+00  7.72261074E+00 -1.54452215E+01  7.72261074E+00
  7.72261074E+00 -1.54452215E+01  7.72261074E+00  7.72261074E+00 -1.54452215E+01
  7.72261074E+00  7.72261074E+00 -1.54452215E+01  7.72261074E+00  7.72261074E+00
 -1.54452215E+01  7.72261074E+00  7.72261074E+00 -1.54452215E+01  7.72261074E+00
  7.72261074E+00 -1.54452215E+01  7.72261074E+00  7.72261074E+00 -1.54452215E+01
  7.72261074E+00  7.72261074E+00 -1.54452215E+01  7.72261074E+00  7.72261074E+00
 -1.54452215E+01  7.72261074E+00  7.72261074E+00 -1.54452215E+01  7.72261074E+00
  7.72261074E+00 -1.54452215E+01  7.72261074E+00  7.72261074E+00 -1.54452215E+01
  7.72261074E+00  7.72261074E+00 -1.54452215E+01  7.72261074E+00  7.72261074E+00
 -1.54452215E+01  7.72261074E+00  7.72261074E+00 -1.54452215E+01  7.72261074E+00
  7.72261074E+00 -1.54452215E+01  7.72261074E+00  7.72261074E+00 -1.54452215E+01
  7.72261074E+00  7.72261074E+00 -1.54452215E+01  7.72261074E+00  7.72261074E+00
 -1.54452215E+01  7.72261074E+00  7.72261074E+00 -1.54452215E+01  7.72261074E+00
  7.72261074E+00 -1.54452215E+01  7.72261074E+00  7.72261074E+00 -1.54452215E+01
  7.72261074E+00  7.72261074E+00 -1.54452215E+01  7.72261074E+00  7.72261074E+00
 -1.54452215E+01  7.72261074E+00  7.72261074E+00 -1.54452215E+01  7.72261074E+00
  7.72261074E+00 -1.54452215E+01  7.72261074E+00  7.72261074E+00 -1.54452215E+01
  7.72261074E+00  7.72261074E+00 -1.54452215E+01  7.72261074E+00  7.72261074E+00
 -1.54452215E+01  7.72261074E+00  7.72261074E+00 -1.54452215E+01  7.72261074E+00
  7.72261074E+00 -1.54452215E+01  7.72261074E+00  7.72261074E+00 -1.54452215E+01
  7.72261074E+00  7.72261074E+00 -1.54452215E+01  7.72261074E+00  7.72261074E+00
 -1.54452215E+01  7.72261074E+00  7.72261074E+00 -1.54452215E+01  7.72261074E+00
  7.72261074E+00 -1.54452215E+01  7.72261074E+00  7.72261074E+00 -1.54452215E+01
  7.72261074E+00  7.72261074E+00 -1.54452215E+01  7.72261074E+00  7.72261074E+00
 -1.54452215E+01  7.72261074E+00  7.72261074E+00 -1.54452215E+01  7.72261074E+00
  7.72261074E+00 -1.54452215E+01  7.72261074E+00  7.72261074E+00 -1.54452215E+01
  7.72261074E+00  7.72261074E+00 -1.54452215E+01  7.72261074E+00  7.72261074E+00
 -1.54452215E+01  7.72261074E+00  7.72261074E+00 -1.54452215E+01  7.72261074E+00
  7.72261074E+00 -1.54452215E+01  7.72261074E+00  7.72261074E+00 -1.54452215E+01
  7.72261074E+00  7.72261074E+00 -1.54452215E+01  7.72261074E+00  7.72261074E+00
 -1.54452215E+01  7.72261074E+00  7.72261074E+00 -1.54452215E+01  7.72261074E+00
  7.72261074E+00 -1.54452215E+01  7.72261074E+00  7.72261074E+00 -1.54452215E+01
  7.72261074E+00  7.72261074E+00 -1.54452215E+01  7.72261074E+00  7.72261074E+00
 -1.54452215E+01  7.72261074E+00  7.72261074E+00 -1.54452215E+01  7.72261074E+00
  7.72261074E+00 -1.54452215E+01  7.72261074E+00  7.72261074E+00 -1.54452215E+01
  7.72261074E+00  7.72261074E+00 -1.54452215E+01  7.72261074E+00  7.72261074E+00
 -1.54452215E+01  7.72261074E+00  7.72261074E+00 -1.54452215E+01  7.72261074E+00
  7.72261074E+00 -1.54452215E+01  7.72261074E+00  7.72261074E+00 -1.54452215E+01
  7.72261074E+00  7.72261074E+00 -1.54452215E+01  7.72261074E+00  7.72261074E+00
 -1.54452215E+01  7.72261074E+00  7.72261074E+00 -1.54452215E+01  7.72261074E+00
  7.72261074E+00 -1.54452215E+01  7.72261074E+00  7.72261074E+00 -1.54452215E+01
  7.72261074E+00  7.72261074E+00 -1.54452215E+01  7.72261074E+00  7.72261074E+00
 -1.54452215E+01  7.72261074E+00  7.72261074E+00 -1.54452215E+01  7.72261074E+00
  7.72261074E+00 -1.54452215E+01  7.72261074E+00  7.72261074E+00 -1.54452215E+01
  7.72261074E+00  7.72261074E+00 -1.54452215E+01  7.72261074E+00  7.72261074E+00
 -1.54452215E+01  7.72261074E+00  7.72261074E+00 -1.54452215E+01  7.72261074E+00
  7.72261074E+00 -1.54452215E+01  7.72261074E+00  7.72261074E+00 -1.54452215E+01
  7.72261074E+00  7.72261074E+00 -1.54452215E+01  7.72261074E+00  7.72261074E+00
 -1.54452215E+01  7.72261074E+00  7.72261074E+00 -1.54452215E+01  7.72261074E+00
  7.72261074E+00 -1.54452215E+01  7.72261074E+00  7.72261074E+00 -1.54452215E+01
  7.72261074E+00  7.72261074E+00 -1.54452215E+01  7.72261074E+00  7.72261074E+00
 -1.54452215E+01  7.72261074E+00  7.72261074E+00 -1.54452215E+01  7.72261074E+00
  7.72261074E+00 -1.54452215E+01  7.72261074E+00  7.72261074E+00 -1.54452215E+01
  7.72261074E+00  7.72261074E+00 -1.54452215E+01  7.72261074E+00  7.72261074E+00
 -1.54452215E+01  7.72261074E+00  7.72261074E+00 -1.54452215E+01  7.72261074E+00
  7.72261074E+00 -1.54452215E+01  7.72261074E+00  7.72261074E+00 -1.54452215E+01
  7.72261074E+00  7.72261074E+00 -1.54452215E+01  7.72261074E+00  7.72261074E+00
 -1.54452215E+01  7.72261074E+00  7.72261074E+00 -1.54452215E+01  7.72261074E+00
  7.72261074E+00 -1.54452215E+01  7.72261074E+00  7.72261074E+00 -1.54452215E+01
  7.72261074E+00  7.72261074E+00 -1.54452215E+01  7.72261074E+00  7.72261074E+00
 -1.54452215E+01  7.72261074E+00  7.72261074E+00 -1.54452215E+01  7.72261074E+00
  7.72261074E+00 -1.54452215E+01  7.72261074E+00  7.72261074E+00 -1.54452215E+01
  7.72261074E+00  7.72261074E+00 -1.54452215E+01  7.72261074E+00  7.72261074E+00
 -1.54452215E+01  7.72261074E+00  7.72261074E+00 -1.54452215E+01  7.72261074E+00
  7.72261074E+00 -1.54452215E+01  7.72261074E+00  7.72261074E+00 -1.54452215E+01
  7.72261074E+00  7.72261074E+00 -1.54452215E+01  7.72261074E+00  7.72261074E+00
 -1.54452215E+01  7.72261074E+00  7.72261074E+00 -1.54452215E+01  7.72261074E+00
  7.72261074E+00 -1.54452215E+01  7.72261074E+00  7.72261074E+00 -1.54452215E+01
  7.72261074E+00  7.72261074E+00 -1.54452215E+01  7.72261074E+00  7.72261074E+00
 -1.54452215E+01  7.72261074E+00  7.72261074E+00 -1.54452215E+01  7.72261074E+00
  7.72261074E+00 -1.54452215E+01  7.72261074E+00  7.72261074E+00 -1.54452215E+01
  7.72261074E+00  7.72261074E+00 -1.54452215E+01  7.72261074E+00  7.72261074E+00
 -1.54452215E+01  7.72261074E+00  7.72261074E+00 -1.54452215E+01  7.72261074E+00
  7.72261074E+00 -1.54452215E+01  7.72261074E+00  7.72261074E+00 -1.54452215E+01
  7.72261074E+00  7.72261074E+00 -1.54452215E+01  7.72261074E+00  7.72261074E+00
 -1.54452215E+01  7.72261074E+00  7.72261074E+00 -1.54452215E+01  7.72261074E+00
  7.72261074E+00 -1.54452215E+01  7.72261074E+00  7.72261074E+00 -1.54452215E+01
  7.72261074E+00  7.72261074E+00 -1.54452215E+01  7.72261074E+00  7.72261074E+00
 -1.54452215E+01  7.72261074E+00  7.72261074E+00 -1.54452215E+01  7.72261074E+00
  7.72261074E+00 -1.54452215E+01  7.72261074E+00  7.72261074E+00 -1.54452215E+01
  7.72261074E+00  7.72261074E+00 -1.54452215E+01  7.72261074E+00  7.72261074E+00
 -1.54452215E+01  7.72261074E+00  7.72261074E+00 -1.54452215E+01  7.72261074E+00
  7.72261074E+00 -1.54452215E+01  7.72261074E+00  7.72261074E+00 -1.54452215E+01
  7.72261074E+00  7.72261074E+00 -1.54452215E+01  7.72261074E+00  7.72261074E+00
 -1.54452215E+01  7.72261074E+00  7.72261074E+00 -1.54452215E+01  7.72261074E+00
  7.72261074E+00 -1.54452215E+01  7.72261074E+00  7.72261074E+00 -1.54452215E+01
  7.72261074E+00  7.72261074E+00 -1.54452215E+01  7.72261074E+00  7.72261074E+00
 -1.54452215E+01  7.72261074E+00  7.72261074E+00 -1.54452215E+01  7.72261074E+00
  7.72261074E+00 -1.54452215E+01  7.72261074E+00  7.72261074E+00 -1.54452215E+01
  7.72261074E+00  7.72261074E+00 -1.54452215E+01  7.72261074E+00  7.72261074E+00
 -1.54452215E+01  7.72261074E+00  7.72261074E+00 -1.54452215E+01  7.72261074E+00
  7.72261074E+00 -1.54452215E+01  7.72261074E+00  7.72261074E+00 -1.54452215E+01
  7.72261074E+00  7.72261074E+00 -1.54452215E+01  7.72261074E+00  7.72261074E+00
 -1.54452215E+01  7.72261074E+00  7.72261074E+00 -1.54452215E+01  7.72261074E+00
  7.72261074E+00 -1.54452215E+01  7.72261074E+00  7.72261074E+00 -1.54452215E+01
  7.72261074E+00  7.72261074E+00 -1.54452215E+01  7.72261074E+00  7.72261074E+00
 -1.54452215E+01  7.72261074E+00  7.72261074E+00 -1.54452215E+01  7.72261074E+00
  7.72261074E+00 -1.54452215E+01  7.72261074E+00  7.72261074E+00 -1.54452215E+01
  7.72261074E+00  7.72261074E+00 -1.54452215E+01  7.72261074E+00  7.72261074E+00
 -1.54452215E+01  7.72261074E+00  7.72261074E+00 -1.54452215E+01  7.72261074E+00
  7.72261074E+00 -1.54452215E+01  7.72261074E+00  7.72261074E+00 -1.54452215E+01
  7.72261074E+00  7.72261074E+00 -1.54452215E+01  7.72261074E+00  7.72261074E+00
 -1.54452215E+01  7.72261074E+00  7.72261074E+00 -1.54452215E+01  7.72261074E+00
  7.72261074E+00 -1.54452215E+01  7.72261074E+00  7.72261074E+00 -1.54452215E+01
  7.72261074E+00  7.72261074E+00 -1.54452215E+01  7.72261074E+00  7.72261074E+00
 -1.54452215E+01  7.72261074E+00  7.72261074E+00 -1.54452215E+01  7.72261074E+00
  7.72261074E+00 -1.54452215E+01  7.72261074E+00  7.72261074E+00 -1.54452215E+01
  7.72261074E+00  7.72261074E+00 -1.54452215E+01  7.72261074E+00  7.72261074E+00
 -1.54452215E+01  7.72261074E+00  7.72261074E+00 -1.54452215E+01  7.72261074E+00
  7.72261074E+00 -1.54452215E+01  7.72261074E+00  7.72261074E+00 -1.54452215E+01
  7.72261074E+00  7.72261074E+00 -1.54452215E+01  7.72261074E+00  7.72261074E+00
 -1.54452215E+01  7.72261074E+00  7.72261074E+00 -1.54452215E+01  7.72261074E+00
  7.72261074E+00 -1.54452215E+01  7.72261074E+00  7.72261074E+00 -1.54452215E+01
  7.72261074E+00  7.72261074E+00 -1.54452215E+01  7.72261074E+00  7.72261074E+00
 -1.54452215E+01  7.72261074E+00  7.72261074E+00 -1.54452215E+01  7.72261074E+00
  7.72261074E+00 -1.54452215E+01  7.72261074E+00  7.72261074E+00 -1.54452215E+01
  7.72261074E+00  7.72261074E+00 -1.54452215E+01  7.72261074E+00  7.72261074E+00
 -1.54452215E+01  7.72261074E+00  7.72261074E+00 -1.54452215E+01  7.72261074E+00
  7.72261074E+00 -1.54452215E+01  7.72261074E+00  7.72261074E+00 -1.54452215E+01
  7.72261074E+00  7.72261074E+00 -1.54452215E+01  7.72261074E+00  7.72261074E+00
 -1.54452215E+01  7.72261074E+00  7.72261074E+00 -1.54452215E+01  7.72261074E+00
  7.72261074E+00 -1.54452215E+01  7.72261074E+00  7.72261074E+00 -1.54452215E+01
  7.72261074E+00  7.72261074E+00 -1.54452215E+01  7.72261074E+00  7.72261074E+00
 -1.54452215E+01  7.72261074E+00  7.72261074E+00 -1.54452215E+01  7.72261074E+00
  7.72261074E+00 -1.54452215E+01  7.72261074E+00  7.72261074E+00 -1.54452215E+01
  7.72261074E+00  7.72261074E+00 -1.54452215E+01  7.72261074E+00  7.72261074E+00
 -1.54452215E+01  7.72261074E+00  7.72261074E+00 -1.54452215E+01  7.72261074E+00
  7.72261074E+00 -1.54452215E+01  7.72261074E+00  7.72261074E+00 -1.54452215E+01
  7.72261074E+00  7.72261074E+00 -1.54452215E+01  7.72261074E+00  7.72261074E+00
 -1.54452215E+01  7.72261074E+00  7.72261074E+00 -1.54452215E+01  7.72261074E+00
  7.72261074E+00 -1.54452215E+01  7.72261074E+00  7.72261074E+00 -1.54452215E+01
  7.72261074E+00  7.72261074E+00 -1.54452215E+01  7.72261074E+00  7.72261074E+00
 -1.54452215E+01  7.72261074E+00  7.72261074E+00 -1.54452215E+01  7.72261074E+00
  7.72261074E+00 -1.54452215E+01  7.72261074E+00  7.72261074E+00 -1.54452215E+01
  7.72261074E+00  7.72261074E+00 -1.54452215E+01  7.72261074E+00  7.72261074E+00
 -1.54452215E+01  7.72261074E+00  7.72261074E+00 -1.54452215E+01  7.72261074E+00
  7.72261074E+00 -1.54452215E+01  7.72261074E+00  7.72261074E+00 -1.54452215E+01
  7.72261074E+00  7.72261074E+00 -1.54452215E+01  7.72261074E+00  7.72261074E+00
 -1.54452215E+01  7.72261074E+00  7.72261074E+00 -1.54452215E+01  7.72261074E+00
  7.72261074E+00 -1.54452215E+01  7.72261074E+00  7.72261074E+00 -1.54452215E+01
  7.72261074E+00  7.72261074E+00 -1.54452215E+01  7.72261074E+00  7.72261074E+00
 -1.54452215E+01  7.72261074E+00  7.72261074E+00 -1.54452215E+01  7.72261074E+00
  7.72261074E+00 -1.54452215E+01  7.72261074E+00  7.72261074E+00 -1.54452215E+01
  7.72261074E+00  7.72261074E+00 -1.54452215E+01  7.72261074E+00  7.72261074E+00
 -1.54452215E+01  7.72261074E+00  7.72261074E+00 -1.54452215E+01  7.72261074E+00
  7.72261074E+00 -1.54452215E+01  7.72261074E+00  7.72261074E+00 -1.54452215E+01
  7.72261074E+00  7.72261074E+00 -1.54452215E+01  7.72261074E+00  7.72261074E+00
 -1.54452215E+01  7.72261074E+00  7.72261074E+00 -1.54452215E+01  7.72261074E+00
  7.72261074E+00 -1.54452215E+01  7.72261074E+00  7.72261074E+00 -1.54452215E+01
  7.72261074E+00  7.72261074E+00 -1.54452215E+01  7.72261074E+00  7.72261074E+00
 -1.54452215E+01  7.72261074E+00  7.72261074E+00 -1.54452215E+01  7.72261074E+00
  7.72261074E+00 -1.54452215E+01  7.72261074E+00  7.72261074E+00 -1.54452215E+01
  7.72261074E+00  7.72261074E+00 -1.54452215E+01  7.72261074E+00  7.72261074E+00
 -1.54452215E+01  7.72261074E+00  7.72261074E+00 -1.54452215E+01  7.72261074E+00
  7.72261074E+00 -1.54452215E+01  7.72261074E+00  7.72261074E+00 -1.54452215E+01
  7.72261074E+00  7.72261074E+00 -1.54452215E+01  7.72261074E+00  7.72261074E+00
 -1.54452215E+01  7.72261074E+00  7.72261074E+00 -1.54452215E+01  7.72261074E+00
  7.72261074E+00 -1.54452215E+01  7.72261074E+00  7.72261074E+00 -1.54452215E+01
  7.72261074E+00  7.72261074E+00 -1.54452215E+01  7.72261074E+00  7.72261074E+00
 -1.54452215E+01  7.72261074E+00  7.72261074E+00 -1.54452215E+01  7.72261074E+00
  7.72261074E+00 -1.54452215E+01  7.72261074E+00  7.72261074E+00 -1.54452215E+01
  7.72261074E+00  7.72261074E+00 -1.54452215E+01  7.72261074E+00  7.72261074E+00
 -1.54452215E+01  7.72261074E+00  7.72261074E+00 -1.54452215E+01  7.72261074E+00
  7.72261074E+00 -1.54452215E+01  7.72261074E+00  7.72261074E+00 -1.54452215E+01
  7.72261074E+00  7.72261074E+00 -1.54452215E+01  7.72261074E+00  7.72261074E+00
 -1.54452215E+01  7.72261074E+00  7.72261074E+00 -1.54452215E+01  7.72261074E+00
  7.72261074E+00 -1.54452215E+01  7.72261074E+00  7.72261074E+00 -1.54452215E+01
  7.72261074E+00  7.72261074E+00 -1.54452215E+01  7.72261074E+00  7.72261074E+00
 -1.54452215E+01  7.72261074E+00  7.72261074E+00 -1.54452215E+01  7.72261074E+00
  7.72261074E+00 -1.54452215E+01  7.72261074E+00  7.72261074E+00 -1.54452215E+01
  7.72261074E+00  7.72261074E+00 -1.54452215E+01  7.72261074E+00  7.72261074E+00
 -1.54452215E+01  7.72261074E+00  7.72261074E+00 -1.54452215E+01  7.72261074E+00
  7.72261074E+00 -1.54452215E+01  7.72261074E+00  7.72261074E+00 -1.54452215E+01
  7.72261074E+00  7.72261074E+00 -1.54452215E+01  7.72261074E+00  7.72261074E+00
 -1.54452215E+01  7.72261074E+00  7.72261074E+00 -1.54452215E+01  7.72261074E+00
  7.72261074E+00 -1.54452215E+01  7.72261074E+00  7.72261074E+00 -1.54452215E+01
  7.72261074E+00  7.72261074E+00 -1.54452215E+01  7.72261074E+00  7.72261074E+00
 -1.54452215E+01  7.72261074E+00  7.72261074E+00 -1.54452215E+01  7.72261074E+00
  7.72261074E+00 -1.54452215E+01  7.72261074E+00  7.72261074E+00 -1.54452215E+01
  7.72261074E+00  7.72261074E+00 -1.54452215E+01  7.72261074E+00  7.72261074E+00
 -1.54452215E+01  7.72261074E+00  7.72261074E+00 -1.54452215E+01  7.72261074E+00
  7.72261074E+00 -1.54452215E+01  7.72261074E+00  7.72261074E+00 -1.54452215E+01
  7.72261074E+00  7.72261074E+00 -1.54452215E+01  7.72261074E+00  7.72261074E+00
 -1.54452215E+01  7.72261074E+00  7.72261074E+00 -1.54452215E+01  7.72261074E+00
  7.72261074E+00 -1.54452215E+01  7.72261074E+00  7.72261074E+00 -1.54452215E+01
  7.72261074E+00  7.72261074E+00 -1.54452215E+01  7.72261074E+00  7.72261074E+00
 -1.54452215E+01  7.72261074E+00  7.72261074E+00 -1.54452215E+01  7.72261074E+00
  7.72261074E+00 -1.54452215E+01  7.72261074E+00  7.72261074E+00 -1.54452215E+01
  7.72261074E+00  7.72261074E+00 -1.54452215E+01  7.72261074E+00  7.72261074E+00
 -1.54452215E+01  7.72261074E+00  7.72261074E+00 -1.54452215E+01  7.72261074E+00
  7.72261074E+00 -1.54452215E+01  7.72261074E+00  7.72261074E+00 -1.54452215E+01
  7.72261074E+00  7.72261074E+00 -1.54452215E+01  7.72261074E+00  7.72261074E+00
 -1.54452215E+01  7.72261074E+00  7.72261074E+00 -1.54452215E+01  7.72261074E+00
  7.72261074E+00 -1.54452215E+01  7.72261074E+00  7.72261074E+00 -1.54452215E+01
  7.72261074E+00  7.72261074E+00 -1.54452215E+01  7.72261074E+00  7.72261074E+00
 -1.54452215E+01  7.72261074E+00  7.72261074E+00 -1.54452215E+01  7.72261074E+00
  7.72261074E+00 -1.54452215E+01  7.72261074E+00  7.72261074E+00 -1.54452215E+01
  7.72261074E+00  7.72261074E+00 -1.54452215E+01  7.72261074E+00  7.72261074E+00
 -1.54452215E+01  7.72261074E+00  7.72261074E+00 -1.54452215E+01  7.72261074E+00
  7.72261074E+00 -1.54452215E+01  7.72261074E+00  7.72261074E+00 -1.54452215E+01
  7.72261074E+00  7.72261074E+00 -1.54452215E+01  7.72261074E+00  7.72261074E+00
 -1.54452215E+01  7.72261074E+00  7.72261074E+00 -1.54452215E+01  7.72261074E+00
  7.72261074E+00 -1.54452215E+01  7.72261074E+00  7.72261074E+00 -1.54452215E+01
  7.72261074E+00  7.72261074E+00 -1.54452215E+01  7.72261074E+00  7.72261074E+00
 -1.54452215E+01  7.72261074E+00  7.72261074E+00 -1.54452215E+01  7.72261074E+00
  7.72261074E+00 -1.54452215E+01  7.72261074E+00  7.72261074E+00 -1.54452215E+01
  7.72261074E+00  7.72261074E+00 -1.54452215E+01  7.72261074E+00  7.72261074E+00
 -1.54452215E+01  7.72261074E+00  7.72261074E+00 -1.54452215E+01  7.72261074E+00
  7.72261074E+00 -1.54452215E+01  7.72261074E+00  7.72261074E+00 -1.54452215E+01
  7.72261074E+00  7.72261074E+00 -1.54452215E+01  7.72261074E+00  7.72261074E+00
 -1.54452215E+01  7.72261074E+00  7.72261074E+00 -1.54452215E+01  7.72261074E+00
  7.72261074E+00 -1.54452215E+01  7.72261074E+00  7.72261074E+00 -1.54452215E+01
  7.72261074E+00  7.72261074E+00 -1.54452215E+01  7.72261074E+00  7.72261074E+00
 -1.54452215E+01  7.72261074E+00  7.72261074E+00 -1.54452215E+01  7.72261074E+00
  7.72261074E+00 -1.54452215E+01  7.72261074E+00  7.72261074E+00 -1.54452215E+01
  7.72261074E+00  7.72261074E+00 -1.54452215E+01  7.72261074E+00  7.72261074E+00
 -1.54452215E+01  7.72261074E+00  7.72261074E+00 -1.54452215E+01  7.72261074E+00
  7.72261074E+00 -1.54452215E+01  7.72261074E+00  7.72261074E+00 -1.54452215E+01
  7.72261074E+00  7.72261074E+00 -1.54452215E+01  7.72261074E+00  7.72261074E+00
 -1.54452215E+01  7.72261074E+00  7.72261074E+00 -1.54452215E+01  7.72261074E+00
  7.72261074E+00 -1.54452215E+01  7.72261074E+00  7.72261074E+00 -1.54452215E+01
  7.72261074E+00  7.72261074E+00 -1.54452215E+01  7.72261074E+00  7.72261074E+00
 -1.54452215E+01  7.72261074E+00  7.72261074E+00 -1.54452215E+01  7.72261074E+00
  7.72261074E+00 -1.54452215E+01  7.72261074E+00  7.72261074E+00 -1.54452215E+01
  7.72261074E+00  7.72261074E+00 -1.54452215E+01  7.72261074E+00  7.72261074E+00
 -1.54452215E+01  7.72261074E+00  7.72261074E+00 -1.54452215E+01  7.72261074E+00
  7.72261074E+00 -1.54452215E+01  7.72261074E+00  7.72261074E+00 -1.54452215E+01
  7.72261074E+00  7.72261074E+00 -1.54452215E+01  7.72261074E+00  7.72261074E+00
 -1.54452215E+01  7.72261074E+00  7.72261074E+00 -1.54452215E+01  7.72261074E+00
  7.72261074E+00 -1.54452215E+01  7.72261074E+00  7.72261074E+00 -1.54452215E+01
  7.72261074E+00  7.72261074E+00 -1.54452215E+01  7.72261074E+00  7.72261074E+00
 -1.54452215E+01  7.72261074E+00  7.72261074E+00 -1.54452215E+01  7.72261074E+00
  7.72261074E+00 -1.54452215E+01  7.72261074E+00  7.72261074E+00 -1.54452215E+01
  7.72261074E+00  7.72261074E+00 -1.54452215E+01  7.72261074E+00  7.72261074E+00
 -1.54452215E+01  7.72261074E+00  7.72261074E+00 -1.54452215E+01  7.72261074E+00
  7.72261074E+00 -1.54452215E+01  7.72261074E+00  7.72261074E+00 -1.54452215E+01
  7.72261074E+00  7.72261074E+00 -1.54452215E+01  7.72261074E+00  7.72261074E+00
 -1.54452215E+01  7.72261074E+00  7.72261074E+00 -1.54452215E+01  7.72261074E+00
  7.72261074E+00 -1.54452215E+01  7.72261074E+00  7.72261074E+00 -1.54452215E+01
  7.72261074E+00  7.72261074E+00 -1.54452215E+01  7.72261074E+00  7.72261074E+00
 -1.54452215E+01  7.72261074E+00  7.72261074E+00 -1.54452215E+01  7.72261074E+00
  7.72261074E+00 -1.54452215E+01  7.72261074E+00  7.72261074E+00 -1.54452215E+01
  7.72261074E+00  7.72261074E+00 -1.54452215E+01  7.72261074E+00  7.72261074E+00
 -1.54452215E+01  7.72261074E+00  7.72261074E+00 -1.54452215E+01  7.72261074E+00
  7.72261074E+00 -1.54452215E+01  7.72261074E+00  7.72261074E+00 -1.54452215E+01
  7.72261074E+00  7.72261074E+00 -1.54452215E+01  7.72261074E+00  7.72261074E+00
 -1.54452215E+01  7.72261074E+00  7.72261074E+00 -1.54452215E+01  7.72261074E+00
  7.72261074E+00 -1.54452215E+01  7.72261074E+00  7.72261074E+00 -1.54452215E+01
  7.72261074E+00  7.72261074E+00 -1.54452215E+01  7.72261074E+00  7.72261074E+00
 -1.54452215E+01  7.72261074E+00  7.72261074E+00 -1.54452215E+01  7.72261074E+00
  7.72261074E+00 -1.54452215E+01  7.72261074E+00  7.72261074E+00 -1.54452215E+01
  7.72261074E+00  7.72261074E+00 -1.54452215E+01  7.72261074E+00  7.72261074E+00
 -1.54452215E+01  7.72261074E+00  7.72261074E+00 -1.54452215E+01  7.72261074E+00
  7.72261074E+00 -1.54452215E+01  7.72261074E+00  7.72261074E+00 -1.54452215E+01
  7.72261074E+00  7.72261074E+00 -1.54452215E+01  7.72261074E+00  7.72261074E+00
 -1.54452215E+01  7.72261074E+00  7.72261074E+00 -1.54452215E+01  7.72261074E+00
  7.72261074E+00 -1.54452215E+01  7.72261074E+00  7.72261074E+00 -1.54452215E+01
  7.72261074E+00  7.72261074E+00 -1.54452215E+01  7.72261074E+00  7.72261074E+00
 -1.54452215E+01  7.72261074E+00  7.72261074E+00 -1.54452215E+01  7.72261074E+00
  7.72261074E+00 -1.54452215E+01  7.72261074E+00  7.72261074E+00 -1.54452215E+01
  7.72261074E+00  7.72261074E+00 -1.54452215E+01  7.72261074E+00  7.72261074E+00
 -1.54452215E+01  7.72261074E+00  7.72261074E+00 -1.54452215E+01  7.72261074E+00
  7.72261074E+00 -1.54452215E+01  7.72261074E+00  7.72261074E+00 -1.54452215E+01
  7.72261074E+00  7.72261074E+00 -1.54452215E+01  7.72261074E+00  7.72261074E+00
 -1.54452215E+01  7.72261074E+00  7.72261074E+00 -1.54452215E+01  7.72261074E+00
  7.72261074E+00 -1.54452215E+01  7.72261074E+00  7.72261074E+00 -1.54452215E+01
  7.72261074E+00  7.72261074E+00 -1.54452215E+01  7.72261074E+00  7.72261074E+00
 -1.54452215E+01  7.72261074E+00  7.72261074E+00 -1.54452215E+01  7.72261074E+00
  7.72261074E+00 -1.54452215E+01  7.72261074E+00  7.72261074E+00 -1.54452215E+01
  7.72261074E+00  7.72261074E+00 -1.54452215E+01  7.72261074E+00  7.72261074E+00
 -1.54452215E+01  7.72261074E+00  7.72261074E+00 -1.54452215E+01  7.72261074E+00
  7.72261074E+00 -1.54452215E+01  7.72261074E+00  7.72261074E+00 -1.54452215E+01
  7.72261074E+00  7.72261074E+00 -1.54452215E+01  7.72261074E+00  7.72261074E+00
 -1.54452215E+01  7.72261074E+00  7.72261074E+00 -1.54452215E+01  7.72261074E+00
  7.72261074E+00 -1.54452215E+01  7.72261074E+00  7.72261074E+00 -1.54452215E+01
  7.72261074E+00  7.72261074E+00 -1.54452215E+01  7.72261074E+00  7.72261074E+00
 -1.54452215E+01  7.72261074E+00  7.72261074E+00 -1.54452215E+01  7.72261074E+00
  7.72261074E+00 -1.54452215E+01  7.72261074E+00  7.72261074E+00 -1.54452215E+01
  7.72261074E+00  7.72261074E+00 -1.54452215E+01  7.72261074E+00  7.72261074E+00
 -1.54452215E+01  7.72261074E+00  7.72261074E+00 -1.54452215E+01  7.72261074E+00
  7.72261074E+00 -1.54452215E+01  7.72261074E+00  7.72261074E+00 -1.54452215E+01
  7.72261074E+00  7.72261074E+00 -1.54452215E+01  7.72261074E+00  7.72261074E+00
 -1.54452215E+01  7.72261074E+00  7.72261074E+00 -1.54452215E+01  7.72261074E+00
  7.72261074E+00 -1.54452215E+01  7.72261074E+00  7.72261074E+00 -1.54452215E+01
  7.72261074E+00  7.72261074E+00 -1.54452215E+01  7.72261074E+00  7.72261074E+00
 -1.54452215E+01  7.72261074E+00  7.72261074E+00 -1.54452215E+01  7.72261074E+00
  7.72261074E+00 -1.54452215E+01  7.72261074E+00  7.72261074E+00 -1.54452215E+01
  7.72261074E+00  7.72261074E+00 -1.54452215E+01  7.72261074E+00  7.72261074E+00
 -1.54452215E+01  7.72261074E+00  7.72261074E+00 -1.54452215E+01  7.72261074E+00
  7.72261074E+00 -1.54452215E+01  7.72261074E+00  7.72261074E+00 -1.54452215E+01
  7.72261074E+00  7.72261074E+00 -1.54452215E+01  7.72261074E+00  7.72261074E+00
 -1.54452215E+01  7.72261074E+00  7.72261074E+00 -1.54452215E+01  7.72261074E+00
  7.72261074E+00 -1.54452215E+01  7.72261074E+00  7.72261074E+00 -1.54452215E+01
  7.72261074E+00  7.72261074E+00 -1.54452215E+01  7.72261074E+00  7.72261074E+00
 -1.54452215E+01  7.72261074E+00  7.72261074E+00 -1.54452215E+01  7.72261074E+00
  7.72261074E+00 -1.54452215E+01  7.72261074E+00  7.72261074E+00 -1.54452215E+01
  7.72261074E+00  7.72261074E+00 -1.54452215E+01  7.72261074E+00  7.72261074E+00
 -1.54452215E+01  7.72261074E+00  7.72261074E+00 -1.54452215E+01  7.72261074E+00
  7.72261074E+00 -1.54452215E+01  7.72261074E+00  7.72261074E+00 -1.54452215E+01
  7.72261074E+00  7.72261074E+00 -1.54452215E+01  7.72261074E+00  7.72261074E+00
 -1.54452215E+01  7.72261074E+00  7.72261074E+00 -1.54452215E+01  7.72261074E+00
  7.72261074E+00 -1.54452215E+01  7.72261074E+00  7.72261074E+00 -1.54452215E+01
  7.72261074E+00  7.72261074E+00 -1.54452215E+01  7.72261074E+00  7.72261074E+00
 -1.54452215E+01  7.72261074E+00  7.72261074E+00 -1.54452215E+01  7.72261074E+00
  7.72261074E+00 -1.54452215E+01  7.72261074E+00  7.72261074E+00 -1.54452215E+01
  7.72261074E+00  7.72261074E+00 -1.54452215E+01  7.72261074E+00  7.72261074E+00
 -1.54452215E+01  7.72261074E+00  7.72261074E+00 -1.54452215E+01  7.72261074E+00
  7.72261074E+00 -1.54452215E+01  7.72261074E+00  7.72261074E+00 -1.54452215E+01
  7.72261074E+00  7.72261074E+00 -1.54452215E+01  7.72261074E+00  7.72261074E+00
 -1.54452215E+01  7.72261074E+00  7.72261074E+00 -1.54452215E+01  7.72261074E+00
  7.72261074E+00 -1.54452215E+01  7.72261074E+00  7.72261074E+00 -1.54452215E+01
  7.72261074E+00  7.72261074E+00 -1.54452215E+01  7.72261074E+00  7.72261074E+00
 -1.54452215E+01  7.72261074E+00  7.72261074E+00 -1.54452215E+01  7.72261074E+00
  7.72261074E+00 -1.54452215E+01  7.72261074E+00  7.72261074E+00 -1.54452215E+01
  7.72261074E+00  7.72261074E+00 -1.54452215E+01  7.72261074E+00  7.72261074E+00
 -1.54452215E+01  7.72261074E+00  7.72261074E+00 -1.54452215E+01  7.72261074E+00
  7.72261074E+00 -1.54452215E+01  7.72261074E+00  7.72261074E+00 -1.54452215E+01
  7.72261074E+00  7.72261074E+00 -1.54452215E+01  7.72261074E+00  7.72261074E+00
 -1.54452215E+01  7.72261074E+00  7.72261074E+00 -1.54452215E+01  7.72261074E+00
  7.72261074E+00 -1.54452215E+01  7.72261074E+00  7.72261074E+00 -1.54452215E+01
  7.72261074E+00  7.72261074E+00 -1.54452215E+01  7.72261074E+00  7.72261074E+00
 -1.54452215E+01  7.72261074E+00  7.72261074E+00 -1.54452215E+01  7.72261074E+00
  7.72261074E+00 -1.54452215E+01  7.72261074E+00  7.72261074E+00 -1.54452215E+01
  7.72261074E+00  7.72261074E+00 -1.54452215E+01  7.72261074E+00  7.72261074E+00
 -1.54452215E+01  7.72261074E+00  7.72261074E+00 -1.54452215E+01  7.72261074E+00
  7.72261074E+00 -1.54452215E+01  7.72261074E+00  7.72261074E+00 -1.54452215E+01
  7.72261074E+00  7.72261074E+00 -1.54452215E+01  7.72261074E+00  7.72261074E+00
 -1.54452215E+01  7.72261074E+00  7.72261074E+00 -1.54452215E+01  7.72261074E+00
  7.72261074E+00 -1.54452215E+01  7.72261074E+00  7.72261074E+00 -1.54452215E+01
  7.72261074E+00  7.72261074E+00 -1.54452215E+01  7.72261074E+00  7.72261074E+00
 -1.54452215E+01  7.72261074E+00  7.72261074E+00 -1.54452215E+01  7.72261074E+00
  7.72261074E+00 -1.54452215E+01  7.72261074E+00  7.72261074E+00 -1.54452215E+01
  7.72261074E+00  7.72261074E+00 -1.54452215E+01  7.72261074E+00  7.72261074E+00
 -1.54452215E+01  7.72261074E+00  7.72261074E+00 -1.54452215E+01  7.72261074E+00
  7.72261074E+00 -1.54452215E+01  7.72261074E+00  7.72261074E+00 -1.54452215E+01
  7.72261074E+00  7.72261074E+00 -1.54452215E+01  7.72261074E+00  7.72261074E+00
 -1.54452215E+01  7.72261074E+00  7.72261074E+00 -1.54452215E+01  7.72261074E+00
  7.72261074E+00 -1.54452215E+01  7.72261074E+00  7.72261074E+00 -1.54452215E+01
  7.72261074E+00  7.72261074E+00 -1.54452215E+01  7.72261074E+00  7.72261074E+00
 -1.54452215E+01  7.72261074E+00  7.72261074E+00 -1.54452215E+01  7.72261074E+00
  7.72261074E+00 -1.54452215E+01  7.72261074E+00  7.72261074E+00 -1.54452215E+01
  7.72261074E+00  7.72261074E+00 -1.54452215E+01  7.72261074E+00  7.72261074E+00
 -1.54452215E+01  7.72261074E+00  7.72261074E+00 -1.54452215E+01  7.72261074E+00
  7.72261074E+00 -1.54452215E+01  7.72261074E+00  7.72261074E+00 -1.54452215E+01
  7.72261074E+00  7.72261074E+00 -1.54452215E+01  7.72261074E+00  7.72261074E+00
 -1.54452215E+01  7.72261074E+00  7.72261074E+00 -1.54452215E+01  7.72261074E+00
  7.72261074E+00 -1.54452215E+01  7.72261074E+00  7.72261074E+00 -1.54452215E+01
  7.72261074E+00  7.72261074E+00 -1.54452215E+01  7.72261074E+00  7.72261074E+00
 -1.54452215E+01  7.72261074E+00  7.72261074E+00 -1.54452215E+01  7.72261074E+00
  7.72261074E+00 -1.54452215E+01  7.72261074E+00  7.72261074E+00 -1.54452215E+01
  7.72261074E+00  7.72261074E+00 -1.54452215E+01  7.72261074E+00  7.72261074E+00
 -1.54452215E+01  7.72261074E+00  7.72261074E+00 -1.54452215E+01  7.72261074E+00
  7.72261074E+00 -1.54452215E+01  7.72261074E+00  7.72261074E+00 -1.54452215E+01
  7.72261074E+00  7.72261074E+00 -1.54452215E+01  7.72261074E+00  7.72261074E+00
 -1.54452215E+01  7.72261074E+00  7.72261074E+00 -1.54452215E+01  7.72261074E+00
  7.72261074E+00 -1.54452215E+01  7.72261074E+00  7.72261074E+00 -1.54452215E+01
  7.72261074E+00  7.72261074E+00 -1.54452215E+01  7.72261074E+00  7.72261074E+00
 -1.54452215E+01  7.72261074E+00  7.72261074E+00 -1.54452215E+01  7.72261074E+00
  7.72261074E+00 -1.54452215E+01  7.72261074E+00  7.72261074E+00 -1.54452215E+01
  7.72261074E+00  7.72261074E+00 -1.54452215E+01  7.72261074E+00  7.72261074E+00
 -1.54452215E+01  7.72261074E+00  7.72261074E+00 -1.54452215E+01  7.72261074E+00
  7.72261074E+00 -1.54452215E+01  7.72261074E+00  7.72261074E+00 -1.54452215E+01
  7.72261074E+00  7.72261074E+00 -1.54452215E+01  7.72261074E+00  7.72261074E+00
 -1.54452215E+01  7.72261074E+00  7.72261074E+00 -1.54452215E+01  7.72261074E+00
  7.72261074E+00 -1.54452215E+01  7.72261074E+00  7.72261074E+00 -1.54452215E+01
  7.72261074E+00  7.72261074E+00 -1.54452215E+01  7.72261074E+00  7.72261074E+00
 -1.54452215E+01  7.72261074E+00  7.72261074E+00 -1.54452215E+01  7.72261074E+00
  7.72261074E+00 -1.54452215E+01  7.72261074E+00  7.72261074E+00 -1.54452215E+01
  7.72261074E+00  7.72261074E+00 -1.54452215E+01  7.72261074E+00  7.72261074E+00
 -1.54452215E+01  7.72261074E+00  7.72261074E+00 -1.54452215E+01  7.72261074E+00
  7.72261074E+00 -1.54452215E+01  7.72261074E+00  7.72261074E+00 -1.54452215E+01
  7.72261074E+00  7.72261074E+00 -1.54452215E+01  7.72261074E+00  7.72261074E+00
 -1.54452215E+01  7.72261074E+00  7.72261074E+00 -1.54452215E+01  7.72261074E+00
  7.72261074E+00 -1.54452215E+01  7.72261074E+00  7.72261074E+00 -1.54452215E+01
  7.72261074E+00  7.72261074E+00 -1.54452215E+01  7.72261074E+00  7.72261074E+00
 -1.54452215E+01  7.72261074E+00  7.72261074E+00 -1.54452215E+01  7.72261074E+00
  7.72261074E+00 -1.54452215E+01  7.72261074E+00  7.72261074E+00 -1.54452215E+01
  7.72261074E+00  7.72261074E+00 -1.54452215E+01  7.72261074E+00  7.72261074E+00
 -1.54452215E+01  7.72261074E+00  7.72261074E+00 -1.54452215E+01  7.72261074E+00
  7.72261074E+00 -1.54452215E+01  7.72261074E+00  7.72261074E+00 -1.54452215E+01
  7.72261074E+00  7.72261074E+00 -1.54452215E+01  7.72261074E+00  7.72261074E+00
 -1.54452215E+01  7.72261074E+00  7.72261074E+00 -1.54452215E+01  7.72261074E+00
  7.72261074E+00 -1.54452215E+01  7.72261074E+00  7.72261074E+00 -1.54452215E+01
  7.72261074E+00  7.72261074E+00 -1.54452215E+01  7.72261074E+00  7.72261074E+00
 -1.54452215E+01  7.72261074E+00  7.72261074E+00 -1.54452215E+01  7.72261074E+00
  7.72261074E+00 -1.54452215E+01  7.72261074E+00  7.72261074E+00 -1.54452215E+01
  7.72261074E+00  7.72261074E+00 -1.54452215E+01  7.72261074E+00  7.72261074E+00
 -1.54452215E+01  7.72261074E+00  7.72261074E+00 -1.54452215E+01  7.72261074E+00
  7.72261074E+00 -1.54452215E+01  7.72261074E+00  7.72261074E+00 -1.54452215E+01
  7.72261074E+00  7.72261074E+00 -1.54452215E+01  7.72261074E+00  7.72261074E+00
 -1.54452215E+01  7.72261074E+00  7.72261074E+00 -1.54452215E+01  7.72261074E+00
  7.72261074E+00 -1.54452215E+01  7.72261074E+00  7.72261074E+00 -1.54452215E+01
  7.72261074E+00  7.72261074E+00 -1.54452215E+01  7.72261074E+00  7.72261074E+00
 -1.54452215E+01  7.72261074E+00  7.72261074E+00 -1.54452215E+01  7.72261074E+00
  7.72261074E+00 -1.54452215E+01  7.72261074E+00  7.72261074E+00 -1.54452215E+01
  7.72261074E+00  7.72261074E+00 -1.54452215E+01  7.72261074E+00  7.72261074E+00
 -1.54452215E+01  7.72261074E+00  7.72261074E+00 -1.54452215E+01  7.72261074E+00
  7.72261074E+00 -1.54452215E+01  7.72261074E+00  7.72261074E+00 -1.54452215E+01
  7.72261074E+00  7.72261074E+00 -1.54452215E+01  7.72261074E+00  7.72261074E+00
 -1.54452215E+01  7.72261074E+00  7.72261074E+00 -1.54452215E+01  7.72261074E+00
  7.72261074E+00 -1.54452215E+01  7.72261074E+00  7.72261074E+00 -1.54452215E+01
  7.72261074E+00  7.72261074E+00 -1.54452215E+01  7.72261074E+00  7.72261074E+00
 -1.54452215E+01  7.72261074E+00  7.72261074E+00 -1.54452215E+01  7.72261074E+00
  7.72261074E+00 -1.54452215E+01  7.72261074E+00  7.72261074E+00 -1.54452215E+01
  7.72261074E+00  7.72261074E+00 -1.54452215E+01  7.72261074E+00  7.72261074E+00
 -1.54452215E+01  7.72261074E+00  7.72261074E+00 -1.54452215E+01  7.72261074E+00
  7.72261074E+00 -1.54452215E+01  7.72261074E+00  7.72261074E+00 -1.54452215E+01
  7.72261074E+00  7.72261074E+00 -1.54452215E+01  7.72261074E+00  7.72261074E+00
 -1.54452215E+01  7.72261074E+00  7.72261074E+00 -1.54452215E+01  7.72261074E+00
  7.72261074E+00 -1.54452215E+01  7.72261074E+00  7.72261074E+00 -1.54452215E+01
  7.72261074E+00  7.72261074E+00 -1.54452215E+01  7.72261074E+00  7.72261074E+00
 -1.54452215E+01  7.72261074E+00  7.72261074E+00 -1.54452215E+01  7.72261074E+00
  7.72261074E+00 -1.54452215E+01  7.72261074E+00  7.72261074E+00 -1.54452215E+01
  7.72261074E+00  7.72261074E+00 -1.54452215E+01  7.72261074E+00  7.72261074E+00
 -1.54452215E+01  7.72261074E+00  7.72261074E+00 -1.54452215E+01  7.72261074E+00
  7.72261074E+00 -1.54452215E+01  7.72261074E+00  7.72261074E+00 -1.54452215E+01
  7.72261074E+00  7.72261074E+00 -1.54452215E+01  7.72261074E+00  7.72261074E+00
 -1.54452215E+01  7.72261074E+00  7.72261074E+00 -1.54452215E+01  7.72261074E+00
  7.72261074E+00 -1.54452215E+01  7.72261074E+00  7.72261074E+00 -1.54452215E+01
  7.72261074E+00  7.72261074E+00 -1.54452215E+01  7.72261074E+00  7.72261074E+00
 -1.54452215E+01  7.72261074E+00  7.72261074E+00 -1.54452215E+01  7.72261074E+00
  7.72261074E+00 -1.54452215E+01  7.72261074E+00  7.72261074E+00 -1.54452215E+01
  7.72261074E+00  7.72261074E+00 -1.54452215E+01  7.72261074E+00  7.72261074E+00
 -1.54452215E+01  7.72261074E+00  7.72261074E+00 -1.54452215E+01  7.72261074E+00
  7.72261074E+00 -1.54452215E+01  7.72261074E+00  7.72261074E+00 -1.54452215E+01
  7.72261074E+00  7.72261074E+00 -1.54452215E+01  7.72261074E+00  7.72261074E+00
 -1.54452215E+01  7.72261074E+00  7.72261074E+00 -1.54452215E+01  7.72261074E+00
  7.72261074E+00 -1.54452215E+01  7.72261074E+00  7.72261074E+00 -1.54452215E+01
  7.72261074E+00  7.72261074E+00 -1.54452215E+01  7.72261074E+00  7.72261074E+00
 -1.54452215E+01  7.72261074E+00  7.72261074E+00 -1.54452215E+01  7.72261074E+00
  7.72261074E+00 -1.54452215E+01  7.72261074E+00  7.72261074E+00 -1.54452215E+01
  7.72261074E+00  7.72261074E+00 -1.54452215E+01  7.72261074E+00  7.72261074E+00
 -1.54452215E+01  7.72261074E+00  7.72261074E+00 -1.54452215E+01  7.72261074E+00
  7.72261074E+00 -1.54452215E+01  7.72261074E+00  7.72261074E+00 -1.54452215E+01
  7.72261074E+00  7.72261074E+00 -1.54452215E+01  7.72261074E+00  7.72261074E+00
 -1.54452215E+01  7.72261074E+00  7.72261074E+00 -1.54452215E+01  7.72261074E+00
  7.72261074E+00 -1.54452215E+01  7.72261074E+00  7.72261074E+00 -1.54452215E+01
  7.72261074E+00  7.72261074E+00 -1.54452215E+01  7.72261074E+00  7.72261074E+00
 -1.54452215E+01  7.72261074E+00  7.72261074E+00 -1.54452215E+01  7.72261074E+00
  7.72261074E+00 -1.54452215E+01  7.72261074E+00  7.72261074E+00 -1.54452215E+01
  7.72261074E+00  7.72261074E+00 -1.54452215E+01  7.72261074E+00  7.72261074E+00
 -1.54452215E+01  7.72261074E+00  7.72261074E+00 -1.54452215E+01  7.72261074E+00
  7.72261074E+00 -1.54452215E+01  7.72261074E+00  7.72261074E+00 -1.54452215E+01
  7.72261074E+00  7.72261074E+00 -1.54452215E+01  7.72261074E+00  7.72261074E+00
 -1.54452215E+01  7.72261074E+00  7.72261074E+00 -1.54452215E+01  7.72261074E+00
  7.72261074E+00 -1.54452215E+01  7.72261074E+00  7.72261074E+00 -1.54452215E+01
  7.72261074E+00  7.72261074E+00 -1.54452215E+01  7.72261074E+00  7.72261074E+00
 -1.54452215E+01  7.72261074E+00  7.72261074E+00 -1.54452215E+01  7.72261074E+00
  7.72261074E+00 -1.54452215E+01  7.72261074E+00  7.72261074E+00 -1.54452215E+01
  7.72261074E+00  7.72261074E+00 -1.54452215E+01  7.72261074E+00  7.72261074E+00
 -1.54452215E+01  7.72261074E+00  7.72261074E+00 -1.54452215E+01  7.72261074E+00
  7.72261074E+00 -1.54452215E+01  7.72261074E+00  7.72261074E+00 -1.54452215E+01
  7.72261074E+00  7.72261074E+00 -1.54452215E+01  7.72261074E+00  7.72261074E+00
 -1.54452215E+01  7.72261074E+00  7.72261074E+00 -1.54452215E+01  7.72261074E+00
  7.72261074E+00 -1.54452215E+01  7.72261074E+00  7.72261074E+00 -1.54452215E+01
  7.72261074E+00  7.72261074E+00 -1.54452215E+01  7.72261074E+00  7.72261074E+00
 -1.54452215E+01  7.72261074E+00  7.72261074E+00 -1.54452215E+01  7.72261074E+00
  7.72261074E+00 -1.54452215E+01  7.72261074E+00  7.72261074E+00 -1.54452215E+01
  7.72261074E+00  7.72261074E+00 -1.54452215E+01  7.72261074E+00  7.72261074E+00
 -1.54452215E+01  7.72261074E+00  7.72261074E+00 -1.54452215E+01  7.72261074E+00
  7.72261074E+00 -1.54452215E+01  7.72261074E+00  7.72261074E+00 -1.54452215E+01
  7.72261074E+00  7.72261074E+00 -1.54452215E+01  7.72261074E+00  7.72261074E+00
 -1.54452215E+01  7.72261074E+00  7.72261074E+00 -1.54452215E+01  7.72261074E+00
  7.72261074E+00 -1.54452215E+01  7.72261074E+00  7.72261074E+00 -1.54452215E+01
  7.72261074E+00  7.72261074E+00 -1.54452215E+01  7.72261074E+00  7.72261074E+00
 -1.54452215E+01  7.72261074E+00  7.72261074E+00 -1.54452215E+01  7.72261074E+00
  7.72261074E+00 -1.54452215E+01  7.72261074E+00  7.72261074E+00 -1.54452215E+01
  7.72261074E+00  7.72261074E+00 -1.54452215E+01  7.72261074E+00  7.72261074E+00
 -1.54452215E+01  7.72261074E+00  7.72261074E+00 -1.54452215E+01  7.72261074E+00
  7.72261074E+00 -1.54452215E+01  7.72261074E+00  7.72261074E+00 -1.54452215E+01
  7.72261074E+00  7.72261074E+00 -1.54452215E+01  7.72261074E+00  7.72261074E+00
 -1.54452215E+01  7.72261074E+00  7.72261074E+00 -1.54452215E+01  7.72261074E+00
  7.72261074E+00 -1.54452215E+01  7.72261074E+00  7.72261074E+00 -1.54452215E+01
  7.72261074E+00  7.72261074E+00 -1.54452215E+01  7.72261074E+00  7.72261074E+00
 -1.54452215E+01  7.72261074E+00  7.72261074E+00 -1.54452215E+01  7.72261074E+00
  7.72261074E+00 -1.54452215E+01  7.72261074E+00  7.72261074E+00 -1.54452215E+01
  7.72261074E+00  7.72261074E+00 -1.54452215E+01  7.72261074E+00  7.72261074E+00
 -1.54452215E+01  7.72261074E+00  7.72261074E+00 -1.54452215E+01  7.72261074E+00
  7.72261074E+00 -1.54452215E+01  7.72261074E+00  7.72261074E+00 -1.54452215E+01
  7.72261074E+00  7.72261074E+00 -1.54452215E+01  7.72261074E+00  7.72261074E+00
 -1.54452215E+01  7.72261074E+00  7.72261074E+00 -1.54452215E+01  7.72261074E+00
  7.72261074E+00 -1.54452215E+01  7.72261074E+00  7.72261074E+00 -1.54452215E+01
  7.72261074E+00  7.72261074E+00 -1.54452215E+01  7.72261074E+00  7.72261074E+00
 -1.54452215E+01  7.72261074E+00  7.72261074E+00 -1.54452215E+01  7.72261074E+00
  7.72261074E+00 -1.54452215E+01  7.72261074E+00  7.72261074E+00 -1.54452215E+01
  7.72261074E+00  7.72261074E+00 -1.54452215E+01  7.72261074E+00  7.72261074E+00
 -1.54452215E+01  7.72261074E+00  7.72261074E+00 -1.54452215E+01  7.72261074E+00
  7.72261074E+00 -1.54452215E+01  7.72261074E+00  7.72261074E+00 -1.54452215E+01
  7.72261074E+00  7.72261074E+00 -1.54452215E+01  7.72261074E+00  7.72261074E+00
 -1.54452215E+01  7.72261074E+00  7.72261074E+00 -1.54452215E+01  7.72261074E+00
  7.72261074E+00 -1.54452215E+01  7.72261074E+00  7.72261074E+00 -1.54452215E+01
  7.72261074E+00  7.72261074E+00 -1.54452215E+01  7.72261074E+00  7.72261074E+00
 -1.54452215E+01  7.72261074E+00  7.72261074E+00 -1.54452215E+01  7.72261074E+00
  7.72261074E+00 -1.54452215E+01  7.72261074E+00  7.72261074E+00 -1.54452215E+01
  7.72261074E+00  7.72261074E+00 -1.54452215E+01  7.72261074E+00  7.72261074E+00
 -1.54452215E+01  7.72261074E+00  7.72261074E+00 -1.54452215E+01  7.72261074E+00
  7.72261074E+00 -1.54452215E+01  7.72261074E+00  7.72261074E+00 -1.54452215E+01
  7.72261074E+00  7.72261074E+00 -1.54452215E+01  7.72261074E+00  7.72261074E+00
 -1.54452215E+01  7.72261074E+00  7.72261074E+00 -1.54452215E+01  7.72261074E+00
  7.72261074E+00 -1.54452215E+01  7.72261074E+00  7.72261074E+00 -1.54452215E+01
  7.72261074E+00  7.72261074E+00 -1.54452215E+01  7.72261074E+00  7.72261074E+00
 -1.54452215E+01  7.72261074E+00  7.72261074E+00 -1.54452215E+01  7.72261074E+00
  7.72261074E+00 -1.54452215E+01  7.72261074E+00  7.72261074E+00 -1.54452215E+01
  7.72261074E+00  7.72261074E+00 -1.54452215E+01  7.72261074E+00  7.72261074E+00
 -1.54452215E+01  7.72261074E+00  7.72261074E+00 -1.54452215E+01  7.72261074E+00
  7.72261074E+00 -1.54452215E+01  7.72261074E+00  7.72261074E+00 -1.54452215E+01
  7.72261074E+00  7.72261074E+00 -1.54452215E+01  7.72261074E+00  7.72261074E+00
 -1.54452215E+01  7.72261074E+00  7.72261074E+00 -1.54452215E+01  7.72261074E+00
  7.72261074E+00 -1.54452215E+01  7.72261074E+00  7.72261074E+00 -1.54452215E+01
  7.72261074E+00  7.72261074E+00 -1.54452215E+01  7.72261074E+00  7.72261074E+00
 -1.54452215E+01  7.72261074E+00  7.72261074E+00 -1.54452215E+01  7.72261074E+00
  7.72261074E+00 -1.54452215E+01  7.72261074E+00  7.72261074E+00 -1.54452215E+01
  7.72261074E+00  7.72261074E+00 -1.54452215E+01  7.72261074E+00  7.72261074E+00
 -1.54452215E+01  7.72261074E+00  7.72261074E+00 -1.54452215E+01  7.72261074E+00
  7.72261074E+00 -1.54452215E+01  7.72261074E+00  7.72261074E+00 -1.54452215E+01
  7.72261074E+00  7.72261074E+00 -1.54452215E+01  7.72261074E+00  7.72261074E+00
 -1.54452215E+01  7.72261074E+00  7.72261074E+00 -1.54452215E+01  7.72261074E+00
  7.72261074E+00 -1.54452215E+01  7.72261074E+00  7.72261074E+00 -1.54452215E+01
  7.72261074E+00  7.72261074E+00 -1.54452215E+01  7.72261074E+00  7.72261074E+00
 -1.54452215E+01  7.72261074E+00  7.72261074E+00 -1.54452215E+01  7.72261074E+00
  7.72261074E+00 -1.54452215E+01  7.72261074E+00  7.72261074E+00 -1.54452215E+01
  7.72261074E+00  7.72261074E+00 -1.54452215E+01  7.72261074E+00  7.72261074E+00
 -1.54452215E+01  7.72261074E+00  7.72261074E+00 -1.54452215E+01  7.72261074E+00
  7.72261074E+00 -1.54452215E+01  7.72261074E+00  7.72261074E+00 -1.54452215E+01
  7.72261074E+00  7.72261074E+00 -1.54452215E+01  7.72261074E+00  7.72261074E+00
 -1.54452215E+01  7.72261074E+00  7.72261074E+00 -1.54452215E+01  7.72261074E+00
  7.72261074E+00 -1.54452215E+01  7.72261074E+00  7.72261074E+00 -1.54452215E+01
  7.72261074E+00  7.72261074E+00 -1.54452215E+01  7.72261074E+00  7.72261074E+00
 -1.54452215E+01  7.72261074E+00  7.72261074E+00 -1.54452215E+01  7.72261074E+00
  7.72261074E+00 -1.54452215E+01  7.72261074E+00  7.72261074E+00 -1.54452215E+01
  7.72261074E+00  7.72261074E+00 -1.54452215E+01  7.72261074E+00  7.72261074E+00
 -1.54452215E+01  7.72261074E+00  7.72261074E+00 -1.54452215E+01  7.72261074E+00
  7.72261074E+00 -1.54452215E+01  7.72261074E+00  7.72261074E+00 -1.54452215E+01
  7.72261074E+00  7.72261074E+00 -1.54452215E+01  7.72261074E+00  7.72261074E+00
 -1.54452215E+01  7.72261074E+00  7.72261074E+00 -1.54452215E+01  7.72261074E+00
  7.72261074E+00 -1.54452215E+01  7.72261074E+00  7.72261074E+00 -1.54452215E+01
  7.72261074E+00  7.72261074E+00 -1.54452215E+01  7.72261074E+00  7.72261074E+00
 -1.54452215E+01  7.72261074E+00  7.72261074E+00 -1.54452215E+01  7.72261074E+00
  7.72261074E+00 -1.54452215E+01  7.72261074E+00  7.72261074E+00 -1.54452215E+01
  7.72261074E+00  7.72261074E+00 -1.54452215E+01  7.72261074E+00  7.72261074E+00
 -1.54452215E+01  7.72261074E+00  7.72261074E+00 -1.54452215E+01  7.72261074E+00
  7.72261074E+00 -1.54452215E+01  7.72261074E+00  7.72261074E+00 -1.54452215E+01
  7.72261074E+00  7.72261074E+00 -1.54452215E+01  7.72261074E+00  7.72261074E+00
 -1.54452215E+01  7.72261074E+00  7.72261074E+00 -1.54452215E+01  7.72261074E+00
  7.72261074E+00 -1.54452215E+01  7.72261074E+00  7.72261074E+00 -1.54452215E+01
  7.72261074E+00  7.72261074E+00 -1.54452215E+01  7.72261074E+00  7.72261074E+00
 -1.54452215E+01  7.72261074E+00  7.72261074E+00 -1.54452215E+01  7.72261074E+00
  7.72261074E+00 -1.54452215E+01  7.72261074E+00  7.72261074E+00 -1.54452215E+01
  7.72261074E+00  7.72261074E+00 -1.54452215E+01  7.72261074E+00  7.72261074E+00
 -1.54452215E+01  7.72261074E+00  7.72261074E+00 -1.54452215E+01  7.72261074E+00
  7.72261074E+00 -1.54452215E+01  7.72261074E+00  7.72261074E+00 -1.54452215E+01
  7.72261074E+00  7.72261074E+00 -1.54452215E+01  7.72261074E+00  7.72261074E+00
 -1.54452215E+01  7.72261074E+00  7.72261074E+00 -1.54452215E+01  7.72261074E+00
  7.72261074E+00 -1.54452215E+01  7.72261074E+00  7.72261074E+00 -1.54452215E+01
  7.72261074E+00  7.72261074E+00 -1.54452215E+01  7.72261074E+00  7.72261074E+00
 -1.54452215E+01  7.72261074E+00  7.72261074E+00 -1.54452215E+01  7.72261074E+00
  7.72261074E+00 -1.54452215E+01  7.72261074E+00  7.72261074E+00 -1.54452215E+01
  7.72261074E+00  7.72261074E+00 -1.54452215E+01  7.72261074E+00  7.72261074E+00
 -1.54452215E+01  7.72261074E+00  7.72261074E+00 -1.54452215E+01  7.72261074E+00
  7.72261074E+00 -1.54452215E+01  7.72261074E+00  7.72261074E+00 -1.54452215E+01
  7.72261074E+00  7.72261074E+00 -1.54452215E+01  7.72261074E+00  7.72261074E+00
 -1.54452215E+01  7.72261074E+00  7.72261074E+00 -1.54452215E+01  7.72261074E+00
  7.72261074E+00 -1.54452215E+01  7.72261074E+00  7.72261074E+00 -1.54452215E+01
  7.72261074E+00  7.72261074E+00 -1.54452215E+01  7.72261074E+00  7.72261074E+00
 -1.54452215E+01  7.72261074E+00  7.72261074E+00 -1.54452215E+01  7.72261074E+00
  7.72261074E+00 -1.54452215E+01  7.72261074E+00  7.72261074E+00 -1.54452215E+01
  7.72261074E+00  7.72261074E+00 -1.54452215E+01  7.72261074E+00  7.72261074E+00
 -1.54452215E+01  7.72261074E+00  7.72261074E+00 -1.54452215E+01  7.72261074E+00
  7.72261074E+00 -1.54452215E+01  7.72261074E+00  7.72261074E+00 -1.54452215E+01
  7.72261074E+00  7.72261074E+00 -1.54452215E+01  7.72261074E+00  7.72261074E+00
 -1.54452215E+01  7.72261074E+00  7.72261074E+00 -1.54452215E+01  7.72261074E+00
  7.72261074E+00 -1.54452215E+01  7.72261074E+00  7.72261074E+00 -1.54452215E+01
  7.72261074E+00  7.72261074E+00 -1.54452215E+01  7.72261074E+00  7.72261074E+00
 -1.54452215E+01  7.72261074E+00  7.72261074E+00 -1.54452215E+01  7.72261074E+00
  7.72261074E+00 -1.54452215E+01  7.72261074E+00  7.72261074E+00 -1.54452215E+01
  7.72261074E+00  7.72261074E+00 -1.54452215E+01  7.72261074E+00  7.72261074E+00
 -1.54452215E+01  7.72261074E+00  7.72261074E+00 -1.54452215E+01  7.72261074E+00
  7.72261074E+00 -1.54452215E+01  7.72261074E+00  7.72261074E+00 -1.54452215E+01
  7.72261074E+00  7.72261074E+00 -1.54452215E+01  7.72261074E+00  7.72261074E+00
 -1.54452215E+01  7.72261074E+00  7.72261074E+00 -1.54452215E+01  7.72261074E+00
  7.72261074E+00 -1.54452215E+01  7.72261074E+00  7.72261074E+00 -1.54452215E+01
  7.72261074E+00  7.72261074E+00 -1.54452215E+01  7.72261074E+00  7.72261074E+00
 -1.54452215E+01  7.72261074E+00  7.72261074E+00 -1.54452215E+01  7.72261074E+00
  7.72261074E+00 -1.54452215E+01  7.72261074E+00  7.72261074E+00 -1.54452215E+01
  7.72261074E+00  7.72261074E+00 -1.54452215E+01  7.72261074E+00  7.72261074E+00
 -1.54452215E+01  7.72261074E+00  7.72261074E+00 -1.54452215E+01  7.72261074E+00
  7.72261074E+00 -1.54452215E+01  7.72261074E+00  7.72261074E+00 -1.54452215E+01
  7.72261074E+00  7.72261074E+00 -1.54452215E+01  7.72261074E+00  7.72261074E+00
 -1.54452215E+01  7.72261074E+00  7.72261074E+00 -1.54452215E+01  7.72261074E+00
  7.72261074E+00 -1.54452215E+01  7.72261074E+00  7.72261074E+00 -1.54452215E+01
  7.72261074E+00  7.72261074E+00 -1.54452215E+01  7.72261074E+00  7.72261074E+00
 -1.54452215E+01  7.72261074E+00  7.72261074E+00 -1.54452215E+01  7.72261074E+00
  7.72261074E+00 -1.54452215E+01  7.72261074E+00  7.72261074E+00 -1.54452215E+01
  7.72261074E+00  7.72261074E+00 -1.54452215E+01  7.72261074E+00  7.72261074E+00
 -1.54452215E+01  7.72261074E+00  7.72261074E+00 -1.54452215E+01  7.72261074E+00
  7.72261074E+00 -1.54452215E+01  7.72261074E+00  7.72261074E+00 -1.54452215E+01
  7.72261074E+00  7.72261074E+00 -1.54452215E+01  7.72261074E+00  7.72261074E+00
 -1.54452215E+01  7.72261074E+00  7.72261074E+00 -1.54452215E+01  7.72261074E+00
  7.72261074E+00 -1.54452215E+01  7.72261074E+00  7.72261074E+00 -1.54452215E+01
  7.72261074E+00  7.72261074E+00 -1.54452215E+01  7.72261074E+00  7.72261074E+00
 -1.54452215E+01  7.72261074E+00  7.72261074E+00 -1.54452215E+01  7.72261074E+00
  7.72261074E+00 -1.54452215E+01  7.72261074E+00  7.72261074E+00 -1.54452215E+01
  7.72261074E+00  7.72261074E+00 -1.54452215E+01  7.72261074E+00  7.72261074E+00
 -1.54452215E+01  7.72261074E+00  7.72261074E+00 -1.54452215E+01  7.72261074E+00
  7.72261074E+00 -1.54452215E+01  7.72261074E+00  7.72261074E+00 -1.54452215E+01
  7.72261074E+00  7.72261074E+00 -1.54452215E+01  7.72261074E+00  7.72261074E+00
 -1.54452215E+01  7.72261074E+00  7.72261074E+00 -1.54452215E+01  7.72261074E+00
  7.72261074E+00 -1.54452215E+01  7.72261074E+00  7.72261074E+00 -1.54452215E+01
  7.72261074E+00  7.72261074E+00 -1.54452215E+01  7.72261074E+00  7.72261074E+00
 -1.54452215E+01  7.72261074E+00  7.72261074E+00 -1.54452215E+01  7.72261074E+00
  7.72261074E+00 -1.54452215E+01  7.72261074E+00  7.72261074E+00 -1.54452215E+01
  7.72261074E+00  7.72261074E+00 -1.54452215E+01  7.72261074E+00  7.72261074E+00
 -1.54452215E+01  7.72261074E+00  7.72261074E+00 -1.54452215E+01  7.72261074E+00
  7.72261074E+00 -1.54452215E+01  7.72261074E+00  7.72261074E+00 -1.54452215E+01
  7.72261074E+00  7.72261074E+00 -1.54452215E+01  7.72261074E+00  7.72261074E+00
 -1.54452215E+01  7.72261074E+00  7.72261074E+00 -1.54452215E+01  7.72261074E+00
  7.72261074E+00 -1.54452215E+01  7.72261074E+00  7.72261074E+00 -1.54452215E+01
  7.72261074E+00  7.72261074E+00 -1.54452215E+01  7.72261074E+00  7.72261074E+00
 -1.54452215E+01  7.72261074E+00  7.72261074E+00 -1.54452215E+01  7.72261074E+00
  7.72261074E+00 -1.54452215E+01  7.72261074E+00  7.72261074E+00 -1.54452215E+01
  7.72261074E+00  7.72261074E+00 -1.54452215E+01  7.72261074E+00  7.72261074E+00
 -1.54452215E+01  7.72261074E+00  7.72261074E+00 -1.54452215E+01  7.72261074E+00
  7.72261074E+00 -1.54452215E+01  7.72261074E+00  7.72261074E+00 -1.54452215E+01
  7.72261074E+00  7.72261074E+00 -1.54452215E+01  7.72261074E+00  7.72261074E+00
 -1.54452215E+01  7.72261074E+00  7.72261074E+00 -1.54452215E+01  7.72261074E+00
  7.72261074E+00 -1.54452215E+01  7.72261074E+00  7.72261074E+00 -1.54452215E+01
  7.72261074E+00  7.72261074E+00 -1.54452215E+01  7.72261074E+00  7.72261074E+00
 -1.54452215E+01  7.72261074E+00  7.72261074E+00 -1.54452215E+01  7.72261074E+00
  7.72261074E+00 -1.54452215E+01  7.72261074E+00  7.72261074E+00 -1.54452215E+01
  7.72261074E+00  7.72261074E+00 -1.54452215E+01  7.72261074E+00  7.72261074E+00
 -1.54452215E+01  7.72261074E+00  7.72261074E+00 -1.54452215E+01  7.72261074E+00
  7.72261074E+00 -1.54452215E+01  7.72261074E+00  7.72261074E+00 -1.54452215E+01
  7.72261074E+00  7.72261074E+00 -1.54452215E+01  7.72261074E+00  7.72261074E+00
 -1.54452215E+01  7.72261074E+00  7.72261074E+00 -1.54452215E+01  7.72261074E+00
  7.72261074E+00 -1.54452215E+01  7.72261074E+00  7.72261074E+00 -1.54452215E+01
  7.72261074E+00  7.72261074E+00 -1.54452215E+01  7.72261074E+00  7.72261074E+00
 -1.54452215E+01  7.72261074E+00  7.72261074E+00 -1.54452215E+01  7.72261074E+00
  7.72261074E+00 -1.54452215E+01  7.72261074E+00  7.72261074E+00 -1.54452215E+01
  7.72261074E+00  7.72261074E+00 -1.54452215E+01  7.72261074E+00  7.72261074E+00
 -1.54452215E+01  7.72261074E+00  7.72261074E+00 -1.54452215E+01  7.72261074E+00
  7.72261074E+00 -1.54452215E+01  7.72261074E+00  7.72261074E+00 -1.54452215E+01
  7.72261074E+00  7.72261074E+00 -1.54452215E+01  7.72261074E+00  7.72261074E+00
 -1.54452215E+01  7.72261074E+00  7.72261074E+00 -1.54452215E+01  7.72261074E+00
  7.72261074E+00 -1.54452215E+01  7.72261074E+00  7.72261074E+00 -1.54452215E+01
  7.72261074E+00  7.72261074E+00 -1.54452215E+01  7.72261074E+00  7.72261074E+00
 -1.54452215E+01  7.72261074E+00  7.72261074E+00 -1.54452215E+01  7.72261074E+00
  7.72261074E+00 -1.54452215E+01  7.72261074E+00  7.72261074E+00 -1.54452215E+01
  7.72261074E+00  7.72261074E+00 -1.54452215E+01  7.72261074E+00  7.72261074E+00
 -1.54452215E+01  7.72261074E+00  7.72261074E+00 -1.54452215E+01  7.72261074E+00
  7.72261074E+00 -1.54452215E+01  7.72261074E+00  7.72261074E+00 -1.54452215E+01
  7.72261074E+00  7.72261074E+00 -1.54452215E+01  7.72261074E+00  7.72261074E+00
 -1.54452215E+01  7.72261074E+00  7.72261074E+00 -1.54452215E+01  7.72261074E+00
  7.72261074E+00 -1.54452215E+01  7.72261074E+00  7.72261074E+00 -1.54452215E+01
  7.72261074E+00  7.72261074E+00 -1.54452215E+01  7.72261074E+00  7.72261074E+00
 -1.54452215E+01  7.72261074E+00  7.72261074E+00 -1.54452215E+01  7.72261074E+00
  7.72261074E+00 -1.54452215E+01  7.72261074E+00  7.72261074E+00 -1.54452215E+01
  7.72261074E+00  7.72261074E+00 -1.54452215E+01  7.72261074E+00  7.72261074E+00
 -1.54452215E+01  7.72261074E+00  7.72261074E+00 -1.54452215E+01  7.72261074E+00
  7.72261074E+00 -1.54452215E+01  7.72261074E+00  7.72261074E+00 -1.54452215E+01
  7.72261074E+00  7.72261074E+00 -1.54452215E+01  7.72261074E+00  7.72261074E+00
 -1.54452215E+01  7.72261074E+00  7.72261074E+00 -1.54452215E+01  7.72261074E+00
  7.72261074E+00 -1.54452215E+01  7.72261074E+00  7.72261074E+00 -1.54452215E+01
  7.72261074E+00  7.72261074E+00 -1.54452215E+01  7.72261074E+00  7.72261074E+00
 -1.54452215E+01  7.72261074E+00  7.72261074E+00 -1.54452215E+01  7.72261074E+00
  7.72261074E+00 -1.54452215E+01  7.72261074E+00  7.72261074E+00 -1.54452215E+01
  7.72261074E+00  7.72261074E+00 -1.54452215E+01  7.72261074E+00  7.72261074E+00
 -1.54452215E+01  7.72261074E+00  7.72261074E+00 -1.54452215E+01  7.72261074E+00
  7.72261074E+00 -1.54452215E+01  7.72261074E+00  7.72261074E+00 -1.54452215E+01
  7.72261074E+00  7.72261074E+00 -1.54452215E+01  7.72261074E+00  7.72261074E+00
 -1.54452215E+01  7.72261074E+00  7.72261074E+00 -1.54452215E+01  7.72261074E+00
  7.72261074E+00 -1.54452215E+01  7.72261074E+00  7.72261074E+00 -1.54452215E+01
  7.72261074E+00  7.72261074E+00 -1.54452215E+01  7.72261074E+00  7.72261074E+00
 -1.54452215E+01  7.72261074E+00  7.72261074E+00 -1.54452215E+01  7.72261074E+00
  7.72261074E+00 -1.54452215E+01  7.72261074E+00  7.72261074E+00 -1.54452215E+01
  7.72261074E+00  7.72261074E+00 -1.54452215E+01  7.72261074E+00  7.72261074E+00
 -1.54452215E+01  7.72261074E+00  7.72261074E+00 -1.54452215E+01  7.72261074E+00
  7.72261074E+00 -1.54452215E+01  7.72261074E+00  7.72261074E+00 -1.54452215E+01
  7.72261074E+00  7.72261074E+00 -1.54452215E+01  7.72261074E+00  7.72261074E+00
 -1.54452215E+01  7.72261074E+00  7.72261074E+00 -1.54452215E+01  7.72261074E+00
  7.72261074E+00 -1.54452215E+01  7.72261074E+00  7.72261074E+00 -1.54452215E+01
  7.72261074E+00  7.72261074E+00 -1.54452215E+01  7.72261074E+00  7.72261074E+00
 -1.54452215E+01  7.72261074E+00  7.72261074E+00 -1.54452215E+01  7.72261074E+00
  7.72261074E+00 -1.54452215E+01  7.72261074E+00  7.72261074E+00 -1.54452215E+01
  7.72261074E+00  7.72261074E+00 -1.54452215E+01  7.72261074E+00  7.72261074E+00
 -1.54452215E+01  7.72261074E+00  7.72261074E+00 -1.54452215E+01  7.72261074E+00
  7.72261074E+00 -1.54452215E+01  7.72261074E+00  7.72261074E+00 -1.54452215E+01
  7.72261074E+00  7.72261074E+00 -1.54452215E+01  7.72261074E+00  7.72261074E+00
 -1.54452215E+01  7.72261074E+00  7.72261074E+00 -1.54452215E+01  7.72261074E+00
  7.72261074E+00 -1.54452215E+01  7.72261074E+00  7.72261074E+00 -1.54452215E+01
  7.72261074E+00  7.72261074E+00 -1.54452215E+01  7.72261074E+00  7.72261074E+00
 -1.54452215E+01  7.72261074E+00  7.72261074E+00 -1.54452215E+01  7.72261074E+00
  7.72261074E+00 -1.54452215E+01  7.72261074E+00  7.72261074E+00 -1.54452215E+01
  7.72261074E+00  7.72261074E+00 -1.54452215E+01  7.72261074E+00  7.72261074E+00
 -1.54452215E+01  7.72261074E+00  7.72261074E+00 -1.54452215E+01  7.72261074E+00
  7.72261074E+00 -1.54452215E+01  7.72261074E+00  7.72261074E+00 -1.54452215E+01
  7.72261074E+00  7.72261074E+00 -1.54452215E+01  7.72261074E+00  7.72261074E+00
 -1.54452215E+01  7.72261074E+00  7.72261074E+00 -1.54452215E+01  7.72261074E+00
  7.72261074E+00 -1.54452215E+01  7.72261074E+00  7.72261074E+00 -1.54452215E+01
  7.72261074E+00  7.72261074E+00 -1.54452215E+01  7.72261074E+00  7.72261074E+00
 -1.54452215E+01  7.72261074E+00  7.72261074E+00 -1.54452215E+01  7.72261074E+00
  7.72261074E+00 -1.54452215E+01  7.72261074E+00  7.72261074E+00 -1.54452215E+01
  7.72261074E+00  7.72261074E+00 -1.54452215E+01  7.72261074E+00  7.72261074E+00
 -1.54452215E+01  7.72261074E+00  7.72261074E+00 -1.54452215E+01  7.72261074E+00
  7.72261074E+00 -1.54452215E+01  7.72261074E+00  7.72261074E+00 -1.54452215E+01
  7.72261074E+00  7.72261074E+00 -1.54452215E+01  7.72261074E+00  7.72261074E+00
 -1.54452215E+01  7.72261074E+00  7.72261074E+00 -1.54452215E+01  7.72261074E+00
  7.72261074E+00 -1.54452215E+01  7.72261074E+00  7.72261074E+00 -1.54452215E+01
  7.72261074E+00  7.72261074E+00 -1.54452215E+01  7.72261074E+00  7.72261074E+00
 -1.54452215E+01  7.72261074E+00  7.72261074E+00 -1.54452215E+01  7.72261074E+00
  7.72261074E+00 -1.54452215E+01  7.72261074E+00  7.72261074E+00 -1.54452215E+01
  7.72261074E+00  7.72261074E+00 -1.54452215E+01  7.72261074E+00  7.72261074E+00
 -1.54452215E+01  7.72261074E+00  7.72261074E+00 -1.54452215E+01  7.72261074E+00
  7.72261074E+00 -1.54452215E+01  7.72261074E+00  7.72261074E+00 -1.54452215E+01
  7.72261074E+00  7.72261074E+00 -1.54452215E+01  7.72261074E+00  7.72261074E+00
 -1.54452215E+01  7.72261074E+00  7.72261074E+00 -1.54452215E+01  7.72261074E+00
  7.72261074E+00 -1.54452215E+01  7.72261074E+00  7.72261074E+00 -1.54452215E+01
  7.72261074E+00  7.72261074E+00 -1.54452215E+01  7.72261074E+00  7.72261074E+00
 -1.54452215E+01  7.72261074E+00  7.72261074E+00 -1.54452215E+01  7.72261074E+00
  7.72261074E+00 -1.54452215E+01  7.72261074E+00  7.72261074E+00 -1.54452215E+01
  7.72261074E+00  7.72261074E+00 -1.54452215E+01  7.72261074E+00  7.72261074E+00
 -1.54452215E+01  7.72261074E+00  7.72261074E+00 -1.54452215E+01  7.72261074E+00
  7.72261074E+00 -1.54452215E+01  7.72261074E+00  7.72261074E+00 -1.54452215E+01
  7.72261074E+00  7.72261074E+00 -1.54452215E+01  7.72261074E+00  7.72261074E+00
 -1.54452215E+01  7.72261074E+00  7.72261074E+00 -1.54452215E+01  7.72261074E+00
  7.72261074E+00 -1.54452215E+01  7.72261074E+00  7.72261074E+00 -1.54452215E+01
  7.72261074E+00  7.72261074E+00 -1.54452215E+01  7.72261074E+00  7.72261074E+00
 -1.54452215E+01  7.72261074E+00  7.72261074E+00 -1.54452215E+01  7.72261074E+00
  7.72261074E+00 -1.54452215E+01  7.72261074E+00  7.72261074E+00 -1.54452215E+01
  7.72261074E+00  7.72261074E+00 -1.54452215E+01  7.72261074E+00  7.72261074E+00
 -1.54452215E+01  7.72261074E+00  7.72261074E+00 -1.54452215E+01  7.72261074E+00
  7.72261074E+00 -1.54452215E+01  7.72261074E+00  7.72261074E+00 -1.54452215E+01
  7.72261074E+00  7.72261074E+00 -1.54452215E+01  7.72261074E+00  7.72261074E+00
 -1.54452215E+01  7.72261074E+00  7.72261074E+00 -1.54452215E+01  7.72261074E+00
  7.72261074E+00 -1.54452215E+01  7.72261074E+00  7.72261074E+00 -1.54452215E+01
  7.72261074E+00  7.72261074E+00 -1.54452215E+01  7.72261074E+00  7.72261074E+00
 -1.54452215E+01  7.72261074E+00  7.72261074E+00 -1.54452215E+01  7.72261074E+00
  7.72261074E+00 -1.54452215E+01  7.72261074E+00  7.72261074E+00 -1.54452215E+01
  7.72261074E+00  7.72261074E+00 -1.54452215E+01  7.72261074E+00  7.72261074E+00
 -1.54452215E+01  7.72261074E+00  7.72261074E+00 -1.54452215E+01  7.72261074E+00
  7.72261074E+00 -1.54452215E+01  7.72261074E+00  7.72261074E+00 -1.54452215E+01
  7.72261074E+00  7.72261074E+00 -1.54452215E+01  7.72261074E+00  7.72261074E+00
 -1.54452215E+01  7.72261074E+00  7.72261074E+00 -1.54452215E+01  7.72261074E+00
  7.72261074E+00 -1.54452215E+01  7.72261074E+00  7.72261074E+00 -1.54452215E+01
  7.72261074E+00  7.72261074E+00 -1.54452215E+01  7.72261074E+00  7.72261074E+00
 -1.54452215E+01  7.72261074E+00  7.72261074E+00 -1.54452215E+01  7.72261074E+00
  7.72261074E+00 -1.54452215E+01  7.72261074E+00  7.72261074E+00 -1.54452215E+01
  7.72261074E+00  7.72261074E+00 -1.54452215E+01  7.72261074E+00  7.72261074E+00
 -1.54452215E+01  7.72261074E+00  7.72261074E+00 -1.54452215E+01  7.72261074E+00
  7.72261074E+00 -1.54452215E+01  7.72261074E+00  7.72261074E+00 -1.54452215E+01
  7.72261074E+00  7.72261074E+00 -1.54452215E+01  7.72261074E+00  7.72261074E+00
 -1.54452215E+01  7.72261074E+00  7.72261074E+00 -1.54452215E+01  7.72261074E+00
  7.72261074E+00 -1.54452215E+01  7.72261074E+00  7.72261074E+00 -1.54452215E+01
  7.72261074E+00  7.72261074E+00 -1.54452215E+01  7.72261074E+00  7.72261074E+00
 -1.54452215E+01  7.72261074E+00  7.72261074E+00 -1.54452215E+01  7.72261074E+00
  7.72261074E+00 -1.54452215E+01  7.72261074E+00  7.72261074E+00 -1.54452215E+01
  7.72261074E+00  7.72261074E+00 -1.54452215E+01  7.72261074E+00  7.72261074E+00
 -1.54452215E+01  7.72261074E+00  7.72261074E+00 -1.54452215E+01  7.72261074E+00
  7.72261074E+00 -1.54452215E+01  7.72261074E+00  7.72261074E+00 -1.54452215E+01
  7.72261074E+00  7.72261074E+00 -1.54452215E+01  7.72261074E+00  7.72261074E+00
 -1.54452215E+01  7.72261074E+00  7.72261074E+00 -1.54452215E+01  7.72261074E+00
  7.72261074E+00 -1.54452215E+01  7.72261074E+00  7.72261074E+00 -1.54452215E+01
  7.72261074E+00  7.72261074E+00 -1.54452215E+01  7.72261074E+00  7.72261074E+00
 -1.54452215E+01  7.72261074E+00  7.72261074E+00 -1.54452215E+01  7.72261074E+00
  7.72261074E+00 -1.54452215E+01  7.72261074E+00  7.72261074E+00 -1.54452215E+01
  7.72261074E+00  7.72261074E+00 -1.54452215E+01  7.72261074E+00  7.72261074E+00
 -1.54452215E+01  7.72261074E+00  7.72261074E+00 -1.54452215E+01  7.72261074E+00
  7.72261074E+00 -1.54452215E+01  7.72261074E+00  7.72261074E+00 -1.54452215E+01
  7.72261074E+00  7.72261074E+00 -1.54452215E+01  7.72261074E+00  7.72261074E+00
 -1.54452215E+01  7.72261074E+00  7.72261074E+00 -1.54452215E+01  7.72261074E+00
  7.72261074E+00 -1.54452215E+01  7.72261074E+00  7.72261074E+00 -1.54452215E+01
  7.72261074E+00  7.72261074E+00 -1.54452215E+01  7.72261074E+00  7.72261074E+00
 -1.54452215E+01  7.72261074E+00  7.72261074E+00 -1.54452215E+01  7.72261074E+00
  7.72261074E+00 -1.54452215E+01  7.72261074E+00  7.72261074E+00 -1.54452215E+01
  7.72261074E+00  7.72261074E+00 -1.54452215E+01  7.72261074E+00  7.72261074E+00
 -1.54452215E+01  7.72261074E+00  7.72261074E+00 -1.54452215E+01  7.72261074E+00
  7.72261074E+00 -1.54452215E+01  7.72261074E+00  7.72261074E+00 -1.54452215E+01
  7.72261074E+00  7.72261074E+00 -1.54452215E+01  7.72261074E+00  7.72261074E+00
 -1.54452215E+01  7.72261074E+00  7.72261074E+00 -1.54452215E+01  7.72261074E+00
  7.72261074E+00 -1.54452215E+01  7.72261074E+00  7.72261074E+00 -1.54452215E+01
  7.72261074E+00  7.72261074E+00 -1.54452215E+01  7.72261074E+00  7.72261074E+00
 -1.54452215E+01  7.72261074E+00  7.72261074E+00 -1.54452215E+01  7.72261074E+00
  7.72261074E+00 -1.54452215E+01  7.72261074E+00  7.72261074E+00 -1.54452215E+01
  7.72261074E+00  7.72261074E+00 -1.54452215E+01  7.72261074E+00  7.72261074E+00
 -1.54452215E+01  7.72261074E+00  7.72261074E+00 -1.54452215E+01  7.72261074E+00
  7.72261074E+00 -1.54452215E+01  7.72261074E+00  7.72261074E+00 -1.54452215E+01
  7.72261074E+00  7.72261074E+00 -1.54452215E+01  7.72261074E+00  7.72261074E+00
 -1.54452215E+01  7.72261074E+00  7.72261074E+00 -1.54452215E+01  7.72261074E+00
  7.72261074E+00 -1.54452215E+01  7.72261074E+00  7.72261074E+00 -1.54452215E+01
  7.72261074E+00  7.72261074E+00 -1.54452215E+01  7.72261074E+00  7.72261074E+00
 -1.54452215E+01  7.72261074E+00  7.72261074E+00 -1.54452215E+01  7.72261074E+00
  7.72261074E+00 -1.54452215E+01  7.72261074E+00  7.72261074E+00 -1.54452215E+01
  7.72261074E+00  7.72261074E+00 -1.54452215E+01  7.72261074E+00  7.72261074E+00
 -1.54452215E+01  7.72261074E+00  7.72261074E+00 -1.54452215E+01  7.72261074E+00
  7.72261074E+00 -1.54452215E+01  7.72261074E+00  7.72261074E+00 -1.54452215E+01
  7.72261074E+00  7.72261074E+00 -1.54452215E+01  7.72261074E+00  7.72261074E+00
 -1.54452215E+01  7.72261074E+00  7.72261074E+00 -1.54452215E+01  7.72261074E+00
  7.72261074E+00 -1.54452215E+01  7.72261074E+00  7.72261074E+00 -1.54452215E+01
  7.72261074E+00  7.72261074E+00 -1.54452215E+01  7.72261074E+00  7.72261074E+00
 -1.54452215E+01  7.72261074E+00  7.72261074E+00 -1.54452215E+01  7.72261074E+00
  7.72261074E+00 -1.54452215E+01  7.72261074E+00  7.72261074E+00 -1.54452215E+01
  7.72261074E+00  7.72261074E+00 -1.54452215E+01  7.72261074E+00  7.72261074E+00
 -1.54452215E+01  7.72261074E+00  7.72261074E+00 -1.54452215E+01  7.72261074E+00
  7.72261074E+00 -1.54452215E+01  7.72261074E+00  7.72261074E+00 -1.54452215E+01
  7.72261074E+00  7.72261074E+00 -1.54452215E+01  7.72261074E+00  7.72261074E+00
 -1.54452215E+01  7.72261074E+00  7.72261074E+00 -1.54452215E+01  7.72261074E+00
  7.72261074E+00 -1.54452215E+01  7.72261074E+00  7.72261074E+00 -1.54452215E+01
  7.72261074E+00  7.72261074E+00 -1.54452215E+01  7.72261074E+00  7.72261074E+00
 -1.54452215E+01  7.72261074E+00  7.72261074E+00 -1.54452215E+01  7.72261074E+00
  7.72261074E+00 -1.54452215E+01  7.72261074E+00  7.72261074E+00 -1.54452215E+01
  7.72261074E+00  7.72261074E+00 -1.54452215E+01  7.72261074E+00  7.72261074E+00
 -1.54452215E+01  7.72261074E+00  7.72261074E+00 -1.54452215E+01  7.72261074E+00
  7.72261074E+00 -1.54452215E+01  7.72261074E+00  7.72261074E+00 -1.54452215E+01
  7.72261074E+00  7.72261074E+00 -1.54452215E+01  7.72261074E+00  7.72261074E+00
 -1.54452215E+01  7.72261074E+00  7.72261074E+00 -1.54452215E+01  7.72261074E+00
  7.72261074E+00 -1.54452215E+01  7.72261074E+00  7.72261074E+00 -1.54452215E+01
  7.72261074E+00  7.72261074E+00 -1.54452215E+01  7.72261074E+00  7.72261074E+00
 -1.54452215E+01  7.72261074E+00  7.72261074E+00 -1.54452215E+01  7.72261074E+00
  7.72261074E+00 -1.54452215E+01  7.72261074E+00  7.72261074E+00 -1.54452215E+01
  7.72261074E+00  7.72261074E+00 -1.54452215E+01  7.72261074E+00  7.72261074E+00
 -1.54452215E+01  7.72261074E+00  7.72261074E+00 -1.54452215E+01  7.72261074E+00
  7.72261074E+00 -1.54452215E+01  7.72261074E+00  7.72261074E+00 -1.54452215E+01
  7.72261074E+00  7.72261074E+00 -1.54452215E+01  7.72261074E+00  7.72261074E+00
 -1.54452215E+01  7.72261074E+00  7.72261074E+00 -1.54452215E+01  7.72261074E+00
  7.72261074E+00 -1.54452215E+01  7.72261074E+00  7.72261074E+00 -1.54452215E+01
  7.72261074E+00  7.72261074E+00 -1.54452215E+01  7.72261074E+00  7.72261074E+00
 -1.54452215E+01  7.72261074E+00  7.72261074E+00 -1.54452215E+01  7.72261074E+00
  7.72261074E+00 -1.54452215E+01  7.72261074E+00  7.72261074E+00 -1.54452215E+01
  7.72261074E+00  7.72261074E+00 -1.54452215E+01  7.72261074E+00  7.72261074E+00
 -1.54452215E+01  7.72261074E+00  7.72261074E+00 -1.54452215E+01  7.72261074E+00
  7.72261074E+00 -1.54452215E+01  7.72261074E+00  7.72261074E+00 -1.54452215E+01
  7.72261074E+00  7.72261074E+00 -1.54452215E+01  7.72261074E+00  7.72261074E+00
 -1.54452215E+01  7.72261074E+00  7.72261074E+00 -1.54452215E+01  7.72261074E+00
  7.72261074E+00 -1.54452215E+01  7.72261074E+00  7.72261074E+00 -1.54452215E+01
  7.72261074E+00  7.72261074E+00 -1.54452215E+01  7.72261074E+00  7.72261074E+00
 -1.54452215E+01  7.72261074E+00  7.72261074E+00 -1.54452215E+01  7.72261074E+00
  7.72261074E+00 -1.54452215E+01  7.72261074E+00  7.72261074E+00 -1.54452215E+01
  7.72261074E+00  7.72261074E+00 -1.54452215E+01  7.72261074E+00  7.72261074E+00
 -1.54452215E+01  7.72261074E+00  7.72261074E+00 -1.54452215E+01  7.72261074E+00
  7.72261074E+00 -1.54452215E+01  7.72261074E+00  7.72261074E+00 -1.54452215E+01
  7.72261074E+00  7.72261074E+00 -1.54452215E+01  7.72261074E+00  7.72261074E+00
 -1.54452215E+01  7.72261074E+00  7.72261074E+00 -1.54452215E+01  7.72261074E+00
  7.72261074E+00 -1.54452215E+01  7.72261074E+00  7.72261074E+00 -1.54452215E+01
  7.72261074E+00  7.72261074E+00 -1.54452215E+01  7.72261074E+00  7.72261074E+00
 -1.54452215E+01  7.72261074E+00  7.72261074E+00 -1.54452215E+01  7.72261074E+00
  7.72261074E+00 -1.54452215E+01  7.72261074E+00  7.72261074E+00 -1.54452215E+01
  7.72261074E+00  7.72261074E+00 -1.54452215E+01  7.72261074E+00  7.72261074E+00
 -1.54452215E+01  7.72261074E+00  7.72261074E+00 -1.54452215E+01  7.72261074E+00
  7.72261074E+00 -1.54452215E+01  7.72261074E+00  7.72261074E+00 -1.54452215E+01
  7.72261074E+00  7.72261074E+00 -1.54452215E+01  7.72261074E+00  7.72261074E+00
 -1.54452215E+01  7.72261074E+00  7.72261074E+00 -1.54452215E+01  7.72261074E+00
  7.72261074E+00 -1.54452215E+01  7.72261074E+00  7.72261074E+00 -1.54452215E+01
  7.72261074E+00  7.72261074E+00 -1.54452215E+01  7.72261074E+00  7.72261074E+00
 -1.54452215E+01  7.72261074E+00  7.72261074E+00 -1.54452215E+01  7.72261074E+00
  7.72261074E+00 -1.54452215E+01  7.72261074E+00  7.72261074E+00 -1.54452215E+01
  7.72261074E+00  7.72261074E+00 -1.54452215E+01  7.72261074E+00  7.72261074E+00
 -1.54452215E+01  7.72261074E+00  7.72261074E+00 -1.54452215E+01  7.72261074E+00
  7.72261074E+00 -1.54452215E+01  7.72261074E+00  7.72261074E+00 -1.54452215E+01
  7.72261074E+00  7.72261074E+00 -1.54452215E+01  7.72261074E+00  7.72261074E+00
 -1.54452215E+01  7.72261074E+00  7.72261074E+00 -1.54452215E+01  7.72261074E+00
  7.72261074E+00 -1.54452215E+01  7.72261074E+00  7.72261074E+00 -1.54452215E+01
  7.72261074E+00  7.72261074E+00 -1.54452215E+01  7.72261074E+00  7.72261074E+00
 -1.54452215E+01  7.72261074E+00  7.72261074E+00 -1.54452215E+01  7.72261074E+00
  7.72261074E+00 -1.54452215E+01  7.72261074E+00  7.72261074E+00 -1.54452215E+01
  7.72261074E+00  7.72261074E+00 -1.54452215E+01  7.72261074E+00  7.72261074E+00
 -1.54452215E+01  7.72261074E+00  7.72261074E+00 -1.54452215E+01  7.72261074E+00
  7.72261074E+00 -1.54452215E+01  7.72261074E+00  7.72261074E+00 -1.54452215E+01
  7.72261074E+00  7.72261074E+00 -1.54452215E+01  7.72261074E+00  7.72261074E+00
 -1.54452215E+01  7.72261074E+00  7.72261074E+00 -1.54452215E+01  7.72261074E+00
  7.72261074E+00 -1.54452215E+01  7.72261074E+00  7.72261074E+00 -1.54452215E+01
  7.72261074E+00  7.72261074E+00 -1.54452215E+01  7.72261074E+00  7.72261074E+00
 -1.54452215E+01  7.72261074E+00  7.72261074E+00 -1.54452215E+01  7.72261074E+00
  7.72261074E+00 -1.54452215E+01  7.72261074E+00  7.72261074E+00 -1.54452215E+01
  7.72261074E+00  7.72261074E+00 -1.54452215E+01  7.72261074E+00  7.72261074E+00
 -1.54452215E+01  7.72261074E+00  7.72261074E+00 -1.54452215E+01  7.72261074E+00
  7.72261074E+00 -1.54452215E+01  7.72261074E+00  7.72261074E+00 -1.54452215E+01
  7.72261074E+00  7.72261074E+00 -1.54452215E+01  7.72261074E+00  7.72261074E+00
 -1.54452215E+01  7.72261074E+00  7.72261074E+00 -1.54452215E+01  7.72261074E+00
  7.72261074E+00 -1.54452215E+01  7.72261074E+00  7.72261074E+00 -1.54452215E+01
  7.72261074E+00  7.72261074E+00 -1.54452215E+01  7.72261074E+00  7.72261074E+00
 -1.54452215E+01  7.72261074E+00  7.72261074E+00 -1.54452215E+01  7.72261074E+00
  7.72261074E+00 -1.54452215E+01  7.72261074E+00  7.72261074E+00 -1.54452215E+01
  7.72261074E+00  7.72261074E+00 -1.54452215E+01  7.72261074E+00  7.72261074E+00
 -1.54452215E+01  7.72261074E+00  7.72261074E+00 -1.54452215E+01  7.72261074E+00
  7.72261074E+00 -1.54452215E+01  7.72261074E+00  7.72261074E+00 -1.54452215E+01
  7.72261074E+00  7.72261074E+00 -1.54452215E+01  7.72261074E+00  7.72261074E+00
 -1.54452215E+01  7.72261074E+00  7.72261074E+00 -1.54452215E+01  7.72261074E+00
  7.72261074E+00 -1.54452215E+01  7.72261074E+00  7.72261074E+00 -1.54452215E+01
  7.72261074E+00  7.72261074E+00 -1.54452215E+01  7.72261074E+00  7.72261074E+00
 -1.54452215E+01  7.72261074E+00  7.72261074E+00 -1.54452215E+01  7.72261074E+00
  7.72261074E+00 -1.54452215E+01  7.72261074E+00  7.72261074E+00 -1.54452215E+01
  7.72261074E+00  7.72261074E+00 -1.54452215E+01  7.72261074E+00  7.72261074E+00
 -1.54452215E+01  7.72261074E+00  7.72261074E+00 -1.54452215E+01  7.72261074E+00
  7.72261074E+00 -1.54452215E+01  7.72261074E+00  7.72261074E+00 -1.54452215E+01
  7.72261074E+00  7.72261074E+00 -1.54452215E+01  7.72261074E+00  7.72261074E+00
 -1.54452215E+01  7.72261074E+00  7.72261074E+00 -1.54452215E+01  7.72261074E+00
  7.72261074E+00 -1.54452215E+01  7.72261074E+00  7.72261074E+00 -1.54452215E+01
  7.72261074E+00  7.72261074E+00 -1.54452215E+01  7.72261074E+00  7.72261074E+00
 -1.54452215E+01  7.72261074E+00  7.72261074E+00 -1.54452215E+01  7.72261074E+00
  7.72261074E+00 -1.54452215E+01  7.72261074E+00  7.72261074E+00 -1.54452215E+01
  7.72261074E+00  7.72261074E+00 -1.54452215E+01  7.72261074E+00  7.72261074E+00
 -1.54452215E+01  7.72261074E+00  7.72261074E+00 -1.54452215E+01  7.72261074E+00
  7.72261074E+00 -1.54452215E+01  7.72261074E+00  7.72261074E+00 -1.54452215E+01
  7.72261074E+00  7.72261074E+00 -1.54452215E+01  7.72261074E+00  7.72261074E+00
 -1.54452215E+01  7.72261074E+00  7.72261074E+00 -1.54452215E+01  7.72261074E+00
  7.72261074E+00 -1.54452215E+01  7.72261074E+00  7.72261074E+00 -1.54452215E+01
  7.72261074E+00  7.72261074E+00 -1.54452215E+01  7.72261074E+00  7.72261074E+00
 -1.54452215E+01  7.72261074E+00  7.72261074E+00 -1.54452215E+01  7.72261074E+00
  7.72261074E+00 -1.54452215E+01  7.72261074E+00  7.72261074E+00 -1.54452215E+01
  7.72261074E+00  7.72261074E+00 -1.54452215E+01  7.72261074E+00  7.72261074E+00
 -1.54452215E+01  7.72261074E+00  7.72261074E+00 -1.54452215E+01  7.72261074E+00
  7.72261074E+00 -1.54452215E+01  7.72261074E+00  7.72261074E+00 -1.54452215E+01
  7.72261074E+00  7.72261074E+00 -1.54452215E+01  7.72261074E+00  7.72261074E+00
 -1.54452215E+01  7.72261074E+00  7.72261074E+00 -1.54452215E+01  7.72261074E+00
  7.72261074E+00 -1.54452215E+01  7.72261074E+00  7.72261074E+00 -1.54452215E+01
  7.72261074E+00  7.72261074E+00 -1.54452215E+01  7.72261074E+00  7.72261074E+00
 -1.54452215E+01  7.72261074E+00  7.72261074E+00 -1.54452215E+01  7.72261074E+00
  7.72261074E+00 -1.54452215E+01  7.72261074E+00  7.72261074E+00 -1.54452215E+01
  7.72261074E+00  7.72261074E+00 -1.54452215E+01  7.72261074E+00  7.72261074E+00
 -1.54452215E+01  7.72261074E+00  7.72261074E+00 -1.54452215E+01  7.72261074E+00
  7.72261074E+00 -1.54452215E+01  7.72261074E+00  7.72261074E+00 -1.54452215E+01
  7.72261074E+00  7.72261074E+00 -1.54452215E+01  7.72261074E+00  7.72261074E+00
 -1.54452215E+01  7.72261074E+00  7.72261074E+00 -1.54452215E+01  7.72261074E+00
  7.72261074E+00 -1.54452215E+01  7.72261074E+00  7.72261074E+00 -1.54452215E+01
  7.72261074E+00  7.72261074E+00 -1.54452215E+01  7.72261074E+00  7.72261074E+00
 -1.54452215E+01  7.72261074E+00  7.72261074E+00 -1.54452215E+01  7.72261074E+00
  7.72261074E+00 -1.54452215E+01  7.72261074E+00  7.72261074E+00 -1.54452215E+01
  7.72261074E+00  7.72261074E+00 -1.54452215E+01  7.72261074E+00  7.72261074E+00
 -1.54452215E+01  7.72261074E+00  7.72261074E+00 -1.54452215E+01  7.72261074E+00
  7.72261074E+00 -1.54452215E+01  7.72261074E+00  7.72261074E+00 -1.54452215E+01
  7.72261074E+00  7.72261074E+00 -1.54452215E+01  7.72261074E+00  7.72261074E+00
 -1.54452215E+01  7.72261074E+00  7.72261074E+00 -1.54452215E+01  7.72261074E+00
  7.72261074E+00 -1.54452215E+01  7.72261074E+00  7.72261074E+00 -1.54452215E+01
  7.72261074E+00  7.72261074E+00 -1.54452215E+01  7.72261074E+00  7.72261074E+00
 -1.54452215E+01  7.72261074E+00  7.72261074E+00 -1.54452215E+01  7.72261074E+00
  7.72261074E+00 -1.54452215E+01  7.72261074E+00  7.72261074E+00 -1.54452215E+01
  7.72261074E+00  7.72261074E+00 -1.54452215E+01  7.72261074E+00  7.72261074E+00
 -1.54452215E+01  7.72261074E+00  7.72261074E+00 -1.54452215E+01  7.72261074E+00
  7.72261074E+00 -1.54452215E+01  7.72261074E+00  7.72261074E+00 -1.54452215E+01
  7.72261074E+00  7.72261074E+00 -1.54452215E+01  7.72261074E+00  7.72261074E+00
 -1.54452215E+01  7.72261074E+00  7.72261074E+00 -1.54452215E+01  7.72261074E+00
  7.72261074E+00 -1.54452215E+01  7.72261074E+00  7.72261074E+00 -1.54452215E+01
  7.72261074E+00  7.72261074E+00 -1.54452215E+01  7.72261074E+00  7.72261074E+00
 -1.54452215E+01  7.72261074E+00  7.72261074E+00 -1.54452215E+01  7.72261074E+00
  7.72261074E+00 -1.54452215E+01  7.72261074E+00  7.72261074E+00 -1.54452215E+01
  7.72261074E+00  7.72261074E+00 -1.54452215E+01  7.72261074E+00  7.72261074E+00
 -1.54452215E+01  7.72261074E+00  7.72261074E+00 -1.54452215E+01  7.72261074E+00
  7.72261074E+00 -1.54452215E+01  7.72261074E+00  7.72261074E+00 -1.54452215E+01
  7.72261074E+00  7.72261074E+00 -1.54452215E+01  7.72261074E+00  7.72261074E+00
 -1.54452215E+01  7.72261074E+00  7.72261074E+00 -1.54452215E+01  7.72261074E+00
  7.72261074E+00 -1.54452215E+01  7.72261074E+00  7.72261074E+00 -1.54452215E+01
  7.72261074E+00  7.72261074E+00 -1.54452215E+01  7.72261074E+00  7.72261074E+00
 -1.54452215E+01  7.72261074E+00  7.72261074E+00 -1.54452215E+01  7.72261074E+00
  7.72261074E+00 -1.54452215E+01  7.72261074E+00  7.72261074E+00 -1.54452215E+01
  7.72261074E+00  7.72261074E+00 -1.54452215E+01  7.72261074E+00  7.72261074E+00
 -1.54452215E+01  7.72261074E+00  7.72261074E+00 -1.54452215E+01  7.72261074E+00
  7.72261074E+00 -1.54452215E+01  7.72261074E+00  7.72261074E+00 -1.54452215E+01
  7.72261074E+00  7.72261074E+00 -1.54452215E+01  7.72261074E+00  7.72261074E+00
 -1.54452215E+01  7.72261074E+00  7.72261074E+00 -1.54452215E+01  7.72261074E+00
  7.72261074E+00 -1.54452215E+01  7.72261074E+00  7.72261074E+00 -1.54452215E+01
  7.72261074E+00  7.72261074E+00 -1.54452215E+01  7.72261074E+00  7.72261074E+00
 -1.54452215E+01  7.72261074E+00  7.72261074E+00 -1.54452215E+01  7.72261074E+00
  7.72261074E+00 -1.54452215E+01  7.72261074E+00  7.72261074E+00 -1.54452215E+01
  7.72261074E+00  7.72261074E+00 -1.54452215E+01  7.72261074E+00  7.72261074E+00
 -1.54452215E+01  7.72261074E+00  7.72261074E+00 -1.54452215E+01  7.72261074E+00
  7.72261074E+00 -1.54452215E+01  7.72261074E+00  7.72261074E+00 -1.54452215E+01
  7.72261074E+00  7.72261074E+00 -1.54452215E+01  7.72261074E+00  7.72261074E+00
 -1.54452215E+01  7.72261074E+00  7.72261074E+00 -1.54452215E+01  7.72261074E+00
  7.72261074E+00 -1.54452215E+01  7.72261074E+00  7.72261074E+00 -1.54452215E+01
  7.72261074E+00  7.72261074E+00 -1.54452215E+01  7.72261074E+00  7.72261074E+00
 -1.54452215E+01  7.72261074E+00  7.72261074E+00 -1.54452215E+01  7.72261074E+00
  7.72261074E+00 -1.54452215E+01  7.72261074E+00  7.72261074E+00 -1.54452215E+01
  7.72261074E+00  7.72261074E+00 -1.54452215E+01  7.72261074E+00  7.72261074E+00
 -1.54452215E+01  7.72261074E+00  7.72261074E+00 -1.54452215E+01  7.72261074E+00
  7.72261074E+00 -1.54452215E+01  7.72261074E+00  7.72261074E+00 -1.54452215E+01
  7.72261074E+00  7.72261074E+00 -1.54452215E+01  7.72261074E+00  7.72261074E+00
 -1.54452215E+01  7.72261074E+00  7.72261074E+00 -1.54452215E+01  7.72261074E+00
  7.72261074E+00 -1.54452215E+01  7.72261074E+00  7.72261074E+00 -1.54452215E+01
  7.72261074E+00  7.72261074E+00 -1.54452215E+01  7.72261074E+00  7.72261074E+00
 -1.54452215E+01  7.72261074E+00  7.72261074E+00 -1.54452215E+01  7.72261074E+00
  7.72261074E+00 -1.54452215E+01  7.72261074E+00  7.72261074E+00 -1.54452215E+01
  7.72261074E+00  7.72261074E+00 -1.54452215E+01  7.72261074E+00  7.72261074E+00
 -1.54452215E+01  7.72261074E+00  7.72261074E+00 -1.54452215E+01  7.72261074E+00
  7.72261074E+00 -1.54452215E+01  7.72261074E+00  7.72261074E+00 -1.54452215E+01
  7.72261074E+00  7.72261074E+00 -1.54452215E+01  7.72261074E+00  7.72261074E+00
 -1.54452215E+01  7.72261074E+00  7.72261074E+00 -1.54452215E+01  7.72261074E+00
  7.72261074E+00 -1.54452215E+01  7.72261074E+00  7.72261074E+00 -1.54452215E+01
  7.72261074E+00  7.72261074E+00 -1.54452215E+01  7.72261074E+00  7.72261074E+00
 -1.54452215E+01  7.72261074E+00  7.72261074E+00 -1.54452215E+01  7.72261074E+00
  7.72261074E+00 -1.54452215E+01  7.72261074E+00  7.72261074E+00 -1.54452215E+01
  7.72261074E+00  7.72261074E+00 -1.54452215E+01  7.72261074E+00  7.72261074E+00
 -1.54452215E+01  7.72261074E+00  7.72261074E+00 -1.54452215E+01  7.72261074E+00
  7.72261074E+00 -1.54452215E+01  7.72261074E+00  7.72261074E+00 -1.54452215E+01
  7.72261074E+00  7.72261074E+00 -1.54452215E+01  7.72261074E+00  7.72261074E+00
 -1.54452215E+01  7.72261074E+00  7.72261074E+00 -1.54452215E+01  7.72261074E+00
  7.72261074E+00 -1.54452215E+01  7.72261074E+00  7.72261074E+00 -1.54452215E+01
  7.72261074E+00  7.72261074E+00 -1.54452215E+01  7.72261074E+00  7.72261074E+00
 -1.54452215E+01  7.72261074E+00  7.72261074E+00 -1.54452215E+01  7.72261074E+00
  7.72261074E+00 -1.54452215E+01  7.72261074E+00  7.72261074E+00 -1.54452215E+01
  7.72261074E+00  7.72261074E+00 -1.54452215E+01  7.72261074E+00  7.72261074E+00
 -1.54452215E+01  7.72261074E+00  7.72261074E+00 -1.54452215E+01  7.72261074E+00
  7.72261074E+00 -1.54452215E+01  7.72261074E+00  7.72261074E+00 -1.54452215E+01
  7.72261074E+00  7.72261074E+00 -1.54452215E+01  7.72261074E+00  7.72261074E+00
 -1.54452215E+01  7.72261074E+00  7.72261074E+00 -1.54452215E+01  7.72261074E+00
  7.72261074E+00 -1.54452215E+01  7.72261074E+00  7.72261074E+00 -1.54452215E+01
  7.72261074E+00  7.72261074E+00 -1.54452215E+01  7.72261074E+00  7.72261074E+00
 -1.54452215E+01  7.72261074E+00  7.72261074E+00 -1.54452215E+01  7.72261074E+00
  7.72261074E+00 -1.54452215E+01  7.72261074E+00  7.72261074E+00 -1.54452215E+01
  7.72261074E+00  7.72261074E+00 -1.54452215E+01  7.72261074E+00  7.72261074E+00
 -1.54452215E+01  7.72261074E+00  7.72261074E+00 -1.54452215E+01  7.72261074E+00
  7.72261074E+00 -1.54452215E+01  7.72261074E+00  7.72261074E+00 -1.54452215E+01
  7.72261074E+00  7.72261074E+00 -1.54452215E+01  7.72261074E+00  7.72261074E+00
 -1.54452215E+01  7.72261074E+00  7.72261074E+00 -1.54452215E+01  7.72261074E+00
  7.72261074E+00 -1.54452215E+01  7.72261074E+00  7.72261074E+00 -1.54452215E+01
  7.72261074E+00  7.72261074E+00 -1.54452215E+01  7.72261074E+00  7.72261074E+00
 -1.54452215E+01  7.72261074E+00  7.72261074E+00 -1.54452215E+01  7.72261074E+00
  7.72261074E+00 -1.54452215E+01  7.72261074E+00  7.72261074E+00 -1.54452215E+01
  7.72261074E+00  7.72261074E+00 -1.54452215E+01  7.72261074E+00  7.72261074E+00
 -1.54452215E+01  7.72261074E+00  7.72261074E+00 -1.54452215E+01  7.72261074E+00
  7.72261074E+00 -1.54452215E+01  7.72261074E+00  7.72261074E+00 -1.54452215E+01
  7.72261074E+00  7.72261074E+00 -1.54452215E+01  7.72261074E+00  7.72261074E+00
 -1.54452215E+01  7.72261074E+00  7.72261074E+00 -1.54452215E+01  7.72261074E+00
  7.72261074E+00 -1.54452215E+01  7.72261074E+00  7.72261074E+00 -1.54452215E+01
  7.72261074E+00  7.72261074E+00 -1.54452215E+01  7.72261074E+00  7.72261074E+00
 -1.54452215E+01  7.72261074E+00  7.72261074E+00 -1.54452215E+01  7.72261074E+00
  7.72261074E+00 -1.54452215E+01  7.72261074E+00  7.72261074E+00 -1.54452215E+01
  7.72261074E+00  7.72261074E+00 -1.54452215E+01  7.72261074E+00  7.72261074E+00
 -1.54452215E+01  7.72261074E+00  7.72261074E+00 -1.54452215E+01  7.72261074E+00
  7.72261074E+00 -1.54452215E+01  7.72261074E+00  7.72261074E+00 -1.54452215E+01
  7.72261074E+00  7.72261074E+00 -1.54452215E+01  7.72261074E+00  7.72261074E+00
 -1.54452215E+01  7.72261074E+00  7.72261074E+00 -1.54452215E+01  7.72261074E+00
  7.72261074E+00 -1.54452215E+01  7.72261074E+00  7.72261074E+00 -1.54452215E+01
  7.72261074E+00  7.72261074E+00 -1.54452215E+01  7.72261074E+00  7.72261074E+00
 -1.54452215E+01  7.72261074E+00  7.72261074E+00 -1.54452215E+01  7.72261074E+00
  7.72261074E+00 -1.54452215E+01  7.72261074E+00  7.72261074E+00 -1.54452215E+01
  7.72261074E+00  7.72261074E+00 -1.54452215E+01  7.72261074E+00  7.72261074E+00
 -1.54452215E+01  7.72261074E+00  7.72261074E+00 -1.54452215E+01  7.72261074E+00
  7.72261074E+00 -1.54452215E+01  7.72261074E+00  7.72261074E+00 -1.54452215E+01
  7.72261074E+00  7.72261074E+00 -1.54452215E+01  7.72261074E+00  7.72261074E+00
 -1.54452215E+01  7.72261074E+00  7.72261074E+00 -1.54452215E+01  7.72261074E+00
  7.72261074E+00 -1.54452215E+01  7.72261074E+00  7.72261074E+00 -1.54452215E+01
  7.72261074E+00  7.72261074E+00 -1.54452215E+01  7.72261074E+00  7.72261074E+00
 -1.54452215E+01  7.72261074E+00  7.72261074E+00 -1.54452215E+01  7.72261074E+00
  7.72261074E+00 -1.54452215E+01  7.72261074E+00  7.72261074E+00 -1.54452215E+01
  7.72261074E+00  7.72261074E+00 -1.54452215E+01  7.72261074E+00  7.72261074E+00
 -1.54452215E+01  7.72261074E+00  7.72261074E+00 -1.54452215E+01  7.72261074E+00
  7.72261074E+00 -1.54452215E+01  7.72261074E+00  7.72261074E+00 -1.54452215E+01
  7.72261074E+00  7.72261074E+00 -1.54452215E+01  7.72261074E+00  7.72261074E+00
 -1.54452215E+01  7.72261074E+00  7.72261074E+00 -1.54452215E+01  7.72261074E+00
  7.72261074E+00 -1.54452215E+01  7.72261074E+00  7.72261074E+00 -1.54452215E+01
  7.72261074E+00  7.72261074E+00 -1.54452215E+01  7.72261074E+00  7.72261074E+00
 -1.54452215E+01  7.72261074E+00  7.72261074E+00 -1.54452215E+01  7.72261074E+00
  7.72261074E+00 -1.54452215E+01  7.72261074E+00  7.72261074E+00 -1.54452215E+01
  7.72261074E+00  7.72261074E+00 -1.54452215E+01  7.72261074E+00  7.72261074E+00
 -1.54452215E+01  7.72261074E+00  7.72261074E+00 -1.54452215E+01  7.72261074E+00
  7.72261074E+00 -1.54452215E+01  7.72261074E+00  7.72261074E+00 -1.54452215E+01
  7.72261074E+00  7.72261074E+00 -1.54452215E+01  7.72261074E+00  7.72261074E+00
 -1.54452215E+01  7.72261074E+00  7.72261074E+00 -1.54452215E+01  7.72261074E+00
  7.72261074E+00 -1.54452215E+01  7.72261074E+00  7.72261074E+00 -1.54452215E+01
  7.72261074E+00  7.72261074E+00 -1.54452215E+01  7.72261074E+00  7.72261074E+00
 -1.54452215E+01  7.72261074E+00  7.72261074E+00 -1.54452215E+01  7.72261074E+00
  7.72261074E+00 -1.54452215E+01  7.72261074E+00  7.72261074E+00 -1.54452215E+01
  7.72261074E+00  7.72261074E+00 -1.54452215E+01  7.72261074E+00  7.72261074E+00
 -1.54452215E+01  7.72261074E+00  7.72261074E+00 -1.54452215E+01  7.72261074E+00
  7.72261074E+00 -1.54452215E+01  7.72261074E+00  7.72261074E+00 -1.54452215E+01
  7.72261074E+00  7.72261074E+00 -1.54452215E+01  7.72261074E+00  7.72261074E+00
 -1.54452215E+01  7.72261074E+00  7.72261074E+00 -1.54452215E+01  7.72261074E+00
  7.72261074E+00 -1.54452215E+01  7.72261074E+00  7.72261074E+00 -1.54452215E+01
  7.72261074E+00  7.72261074E+00 -1.54452215E+01  7.72261074E+00  7.72261074E+00
 -1.54452215E+01  7.72261074E+00  7.72261074E+00 -1.54452215E+01  7.72261074E+00
  7.72261074E+00 -1.54452215E+01  7.72261074E+00  7.72261074E+00 -1.54452215E+01
  7.72261074E+00  7.72261074E+00 -1.54452215E+01  7.72261074E+00  7.72261074E+00
 -1.54452215E+01  7.72261074E+00  7.72261074E+00 -1.54452215E+01  7.72261074E+00
  7.72261074E+00 -1.54452215E+01  7.72261074E+00  7.72261074E+00 -1.54452215E+01
  7.72261074E+00  7.72261074E+00 -1.54452215E+01  7.72261074E+00  7.72261074E+00
 -1.54452215E+01  7.72261074E+00  7.72261074E+00 -1.54452215E+01  7.72261074E+00
  7.72261074E+00 -1.54452215E+01  7.72261074E+00  7.72261074E+00 -1.54452215E+01
  7.72261074E+00  7.72261074E+00 -1.54452215E+01  7.72261074E+00  7.72261074E+00
 -1.54452215E+01  7.72261074E+00  7.72261074E+00 -1.54452215E+01  7.72261074E+00
  7.72261074E+00 -1.54452215E+01  7.72261074E+00  7.72261074E+00 -1.54452215E+01
  7.72261074E+00  7.72261074E+00 -1.54452215E+01  7.72261074E+00  7.72261074E+00
 -1.54452215E+01  7.72261074E+00  7.72261074E+00 -1.54452215E+01  7.72261074E+00
  7.72261074E+00 -1.54452215E+01  7.72261074E+00  7.72261074E+00 -1.54452215E+01
  7.72261074E+00  7.72261074E+00 -1.54452215E+01  7.72261074E+00  7.72261074E+00
 -1.54452215E+01  7.72261074E+00  7.72261074E+00 -1.54452215E+01  7.72261074E+00
  7.72261074E+00 -1.54452215E+01  7.72261074E+00  7.72261074E+00 -1.54452215E+01
  7.72261074E+00  7.72261074E+00 -1.54452215E+01  7.72261074E+00  7.72261074E+00
 -1.54452215E+01  7.72261074E+00  7.72261074E+00 -1.54452215E+01  7.72261074E+00
  7.72261074E+00 -1.54452215E+01  7.72261074E+00  7.72261074E+00 -1.54452215E+01
  7.72261074E+00  7.72261074E+00 -1.54452215E+01  7.72261074E+00  7.72261074E+00
 -1.54452215E+01  7.72261074E+00  7.72261074E+00 -1.54452215E+01  7.72261074E+00
  7.72261074E+00 -1.54452215E+01  7.72261074E+00  7.72261074E+00 -1.54452215E+01
  7.72261074E+00  7.72261074E+00 -1.54452215E+01  7.72261074E+00  7.72261074E+00
 -1.54452215E+01  7.72261074E+00  7.72261074E+00 -1.54452215E+01  7.72261074E+00
  7.72261074E+00 -1.54452215E+01  7.72261074E+00  7.72261074E+00 -1.54452215E+01
  7.72261074E+00  7.72261074E+00 -1.54452215E+01  7.72261074E+00  7.72261074E+00
 -1.54452215E+01  7.72261074E+00  7.72261074E+00 -1.54452215E+01  7.72261074E+00
  7.72261074E+00 -1.54452215E+01  7.72261074E+00  7.72261074E+00 -1.54452215E+01
  7.72261074E+00  7.72261074E+00 -1.54452215E+01  7.72261074E+00  7.72261074E+00
 -1.54452215E+01  7.72261074E+00  7.72261074E+00 -1.54452215E+01  7.72261074E+00
  7.72261074E+00 -1.54452215E+01  7.72261074E+00  7.72261074E+00 -1.54452215E+01
  7.72261074E+00  7.72261074E+00 -1.54452215E+01  7.72261074E+00  7.72261074E+00
 -1.54452215E+01  7.72261074E+00  7.72261074E+00 -1.54452215E+01  7.72261074E+00
  7.72261074E+00 -1.54452215E+01  7.72261074E+00  7.72261074E+00 -1.54452215E+01
  7.72261074E+00  7.72261074E+00 -1.54452215E+01  7.72261074E+00  7.72261074E+00
 -1.54452215E+01  7.72261074E+00  7.72261074E+00 -1.54452215E+01  7.72261074E+00
  7.72261074E+00 -1.54452215E+01  7.72261074E+00  7.72261074E+00 -1.54452215E+01
  7.72261074E+00  7.72261074E+00 -1.54452215E+01  7.72261074E+00  7.72261074E+00
 -1.54452215E+01  7.72261074E+00  7.72261074E+00 -1.54452215E+01  7.72261074E+00
  7.72261074E+00 -1.54452215E+01  7.72261074E+00  7.72261074E+00 -1.54452215E+01
  7.72261074E+00  7.72261074E+00 -1.54452215E+01  7.72261074E+00  7.72261074E+00
 -1.54452215E+01  7.72261074E+00  7.72261074E+00 -1.54452215E+01  7.72261074E+00
  7.72261074E+00 -1.54452215E+01  7.72261074E+00  7.72261074E+00 -1.54452215E+01
  7.72261074E+00  7.72261074E+00 -1.54452215E+01  7.72261074E+00  7.72261074E+00
 -1.54452215E+01  7.72261074E+00  7.72261074E+00 -1.54452215E+01  7.72261074E+00
  7.72261074E+00 -1.54452215E+01  7.72261074E+00  7.72261074E+00 -1.54452215E+01
  7.72261074E+00  7.72261074E+00 -1.54452215E+01  7.72261074E+00  7.72261074E+00
 -1.54452215E+01  7.72261074E+00  7.72261074E+00 -1.54452215E+01  7.72261074E+00
  7.72261074E+00 -1.54452215E+01  7.72261074E+00  7.72261074E+00 -1.54452215E+01
  7.72261074E+00  7.72261074E+00 -1.54452215E+01  7.72261074E+00  7.72261074E+00
 -1.54452215E+01  7.72261074E+00  7.72261074E+00 -1.54452215E+01  7.72261074E+00
  7.72261074E+00 -1.54452215E+01  7.72261074E+00  7.72261074E+00 -1.54452215E+01
  7.72261074E+00  7.72261074E+00 -1.54452215E+01  7.72261074E+00  7.72261074E+00
 -1.54452215E+01  7.72261074E+00  7.72261074E+00 -1.54452215E+01  7.72261074E+00
  7.72261074E+00 -1.54452215E+01  7.72261074E+00  7.72261074E+00 -1.54452215E+01
  7.72261074E+00  7.72261074E+00 -1.54452215E+01  7.72261074E+00  7.72261074E+00
 -1.54452215E+01  7.72261074E+00  7.72261074E+00 -1.54452215E+01  7.72261074E+00
  7.72261074E+00 -1.54452215E+01  7.72261074E+00  7.72261074E+00 -1.54452215E+01
  7.72261074E+00  7.72261074E+00 -1.54452215E+01  7.72261074E+00  7.72261074E+00
 -1.54452215E+01  7.72261074E+00  7.72261074E+00 -1.54452215E+01  7.72261074E+00
  7.72261074E+00 -1.54452215E+01  7.72261074E+00  7.72261074E+00 -1.54452215E+01
  7.72261074E+00  7.72261074E+00 -1.54452215E+01  7.72261074E+00  7.72261074E+00
 -1.54452215E+01  7.72261074E+00  7.72261074E+00 -1.54452215E+01  7.72261074E+00
  7.72261074E+00 -1.54452215E+01  7.72261074E+00  7.72261074E+00 -1.54452215E+01
  7.72261074E+00  7.72261074E+00 -1.54452215E+01  7.72261074E+00  7.72261074E+00
 -1.54452215E+01  7.72261074E+00  7.72261074E+00 -1.54452215E+01  7.72261074E+00
  7.72261074E+00 -1.54452215E+01  7.72261074E+00  7.72261074E+00 -1.54452215E+01
  7.72261074E+00  7.72261074E+00 -1.54452215E+01  7.72261074E+00  7.72261074E+00
 -1.54452215E+01  7.72261074E+00  7.72261074E+00 -1.54452215E+01  7.72261074E+00
  7.72261074E+00 -1.54452215E+01  7.72261074E+00  7.72261074E+00 -1.54452215E+01
  7.72261074E+00  7.72261074E+00 -1.54452215E+01  7.72261074E+00  7.72261074E+00
 -1.54452215E+01  7.72261074E+00  7.72261074E+00 -1.54452215E+01  7.72261074E+00
  7.72261074E+00 -1.54452215E+01  7.72261074E+00  7.72261074E+00 -1.54452215E+01
  7.72261074E+00  7.72261074E+00 -1.54452215E+01  7.72261074E+00  7.72261074E+00
 -1.54452215E+01  7.72261074E+00  7.72261074E+00 -1.54452215E+01  7.72261074E+00
  7.72261074E+00 -1.54452215E+01  7.72261074E+00  7.72261074E+00 -1.54452215E+01
  7.72261074E+00  7.72261074E+00 -1.54452215E+01  7.72261074E+00  7.72261074E+00
 -1.54452215E+01  7.72261074E+00  7.72261074E+00 -1.54452215E+01  7.72261074E+00
  7.72261074E+00 -1.54452215E+01  7.72261074E+00  7.72261074E+00 -1.54452215E+01
  7.72261074E+00  7.72261074E+00 -1.54452215E+01  7.72261074E+00  7.72261074E+00
 -1.54452215E+01  7.72261074E+00  7.72261074E+00 -1.54452215E+01  7.72261074E+00
  7.72261074E+00 -1.54452215E+01  7.72261074E+00  7.72261074E+00 -1.54452215E+01
  7.72261074E+00  7.72261074E+00 -1.54452215E+01  7.72261074E+00  7.72261074E+00
 -1.54452215E+01  7.72261074E+00  7.72261074E+00 -1.54452215E+01  7.72261074E+00
  7.72261074E+00 -1.54452215E+01  7.72261074E+00  7.72261074E+00 -1.54452215E+01
  7.72261074E+00  7.72261074E+00 -1.54452215E+01  7.72261074E+00  7.72261074E+00
 -1.54452215E+01  7.72261074E+00  7.72261074E+00 -1.54452215E+01  7.72261074E+00
  7.72261074E+00 -1.54452215E+01  7.72261074E+00  7.72261074E+00 -1.54452215E+01
  7.72261074E+00  7.72261074E+00 -1.54452215E+01  7.72261074E+00  7.72261074E+00
 -1.54452215E+01  7.72261074E+00  7.72261074E+00 -1.54452215E+01  7.72261074E+00
  7.72261074E+00 -1.54452215E+01  7.72261074E+00  7.72261074E+00 -1.54452215E+01
  7.72261074E+00  7.72261074E+00 -1.54452215E+01  7.72261074E+00  7.72261074E+00
 -1.54452215E+01  7.72261074E+00  7.72261074E+00 -1.54452215E+01  7.72261074E+00
  7.72261074E+00 -1.54452215E+01  7.72261074E+00  7.72261074E+00 -1.54452215E+01
  7.72261074E+00  7.72261074E+00 -1.54452215E+01  7.72261074E+00  7.72261074E+00
 -1.54452215E+01  7.72261074E+00  7.72261074E+00 -1.54452215E+01  7.72261074E+00
  7.72261074E+00 -1.54452215E+01  7.72261074E+00  7.72261074E+00 -1.54452215E+01
  7.72261074E+00  7.72261074E+00 -1.54452215E+01  7.72261074E+00  7.72261074E+00
 -1.54452215E+01  7.72261074E+00  7.72261074E+00 -1.54452215E+01  7.72261074E+00
  7.72261074E+00 -1.54452215E+01  7.72261074E+00  7.72261074E+00 -1.54452215E+01
  7.72261074E+00  7.72261074E+00 -1.54452215E+01  7.72261074E+00  7.72261074E+00
 -1.54452215E+01  7.72261074E+00  7.72261074E+00 -1.54452215E+01  7.72261074E+00
  7.72261074E+00 -1.54452215E+01  7.72261074E+00  7.72261074E+00 -1.54452215E+01
  7.72261074E+00  7.72261074E+00 -1.54452215E+01  7.72261074E+00  7.72261074E+00
 -1.54452215E+01  7.72261074E+00  7.72261074E+00 -1.54452215E+01  7.72261074E+00
  7.72261074E+00 -1.54452215E+01  7.72261074E+00  7.72261074E+00 -1.54452215E+01
  7.72261074E+00  7.72261074E+00 -1.54452215E+01  7.72261074E+00  7.72261074E+00
 -1.54452215E+01  7.72261074E+00  7.72261074E+00 -1.54452215E+01  7.72261074E+00
  7.72261074E+00 -1.54452215E+01  7.72261074E+00  7.72261074E+00 -1.54452215E+01
  7.72261074E+00  7.72261074E+00 -1.54452215E+01  7.72261074E+00  7.72261074E+00
 -1.54452215E+01  7.72261074E+00  7.72261074E+00 -1.54452215E+01  7.72261074E+00
  7.72261074E+00 -1.54452215E+01  7.72261074E+00  7.72261074E+00 -1.54452215E+01
  7.72261074E+00  7.72261074E+00 -1.54452215E+01  7.72261074E+00  7.72261074E+00
 -1.54452215E+01  7.72261074E+00  7.72261074E+00 -1.54452215E+01  7.72261074E+00
  7.72261074E+00 -1.54452215E+01  7.72261074E+00  7.72261074E+00 -1.54452215E+01
  7.72261074E+00  7.72261074E+00 -1.54452215E+01  7.72261074E+00  7.72261074E+00
 -1.54452215E+01  7.72261074E+00  7.72261074E+00 -1.54452215E+01  7.72261074E+00
  7.72261074E+00 -1.54452215E+01  7.72261074E+00  7.72261074E+00 -1.54452215E+01
  7.72261074E+00  7.72261074E+00 -1.54452215E+01  7.72261074E+00  7.72261074E+00
 -1.54452215E+01  7.72261074E+00  7.72261074E+00 -1.54452215E+01  7.72261074E+00
  7.72261074E+00 -1.54452215E+01  7.72261074E+00  7.72261074E+00 -1.54452215E+01
  7.72261074E+00  7.72261074E+00 -1.54452215E+01  7.72261074E+00  7.72261074E+00
 -1.54452215E+01  7.72261074E+00  7.72261074E+00 -1.54452215E+01  7.72261074E+00
  7.72261074E+00 -1.54452215E+01  7.72261074E+00  7.72261074E+00 -1.54452215E+01
  7.72261074E+00  7.72261074E+00 -1.54452215E+01  7.72261074E+00  7.72261074E+00
 -1.54452215E+01  7.72261074E+00  7.72261074E+00 -1.54452215E+01  7.72261074E+00
  7.72261074E+00 -1.54452215E+01  7.72261074E+00  7.72261074E+00 -1.54452215E+01
  7.72261074E+00  7.72261074E+00 -1.54452215E+01  7.72261074E+00  7.72261074E+00
 -1.54452215E+01  7.72261074E+00  7.72261074E+00 -1.54452215E+01  7.72261074E+00
  7.72261074E+00 -1.54452215E+01  7.72261074E+00  7.72261074E+00 -1.54452215E+01
  7.72261074E+00  7.72261074E+00 -1.54452215E+01  7.72261074E+00  7.72261074E+00
 -1.54452215E+01  7.72261074E+00  7.72261074E+00 -1.54452215E+01  7.72261074E+00
  7.72261074E+00 -1.54452215E+01  7.72261074E+00  7.72261074E+00 -1.54452215E+01
  7.72261074E+00  7.72261074E+00 -1.54452215E+01  7.72261074E+00  7.72261074E+00
 -1.54452215E+01  7.72261074E+00  7.72261074E+00 -1.54452215E+01  7.72261074E+00
  7.72261074E+00 -1.54452215E+01  7.72261074E+00  7.72261074E+00 -1.54452215E+01
  7.72261074E+00  7.72261074E+00 -1.54452215E+01  7.72261074E+00  7.72261074E+00
 -1.54452215E+01  7.72261074E+00  7.72261074E+00 -1.54452215E+01  7.72261074E+00
  7.72261074E+00 -1.54452215E+01  7.72261074E+00  7.72261074E+00 -1.54452215E+01
  7.72261074E+00  7.72261074E+00 -1.54452215E+01  7.72261074E+00  7.72261074E+00
 -1.54452215E+01  7.72261074E+00  7.72261074E+00 -1.54452215E+01  7.72261074E+00
  7.72261074E+00 -1.54452215E+01  7.72261074E+00  7.72261074E+00 -1.54452215E+01
  7.72261074E+00  7.72261074E+00 -1.54452215E+01  7.72261074E+00  7.72261074E+00
 -1.54452215E+01  7.72261074E+00  7.72261074E+00 -1.54452215E+01  7.72261074E+00
  7.72261074E+00 -1.54452215E+01  7.72261074E+00  7.72261074E+00 -1.54452215E+01
  7.72261074E+00  7.72261074E+00 -1.54452215E+01  7.72261074E+00  7.72261074E+00
 -1.54452215E+01  7.72261074E+00  7.72261074E+00 -1.54452215E+01  7.72261074E+00
  7.72261074E+00 -1.54452215E+01  7.72261074E+00  7.72261074E+00 -1.54452215E+01
  7.72261074E+00  7.72261074E+00 -1.54452215E+01  7.72261074E+00  7.72261074E+00
 -1.54452215E+01  7.72261074E+00  7.72261074E+00 -1.54452215E+01  7.72261074E+00
  7.72261074E+00 -1.54452215E+01  7.72261074E+00  7.72261074E+00 -1.54452215E+01
  7.72261074E+00  7.72261074E+00 -1.54452215E+01  7.72261074E+00  7.72261074E+00
 -1.54452215E+01  7.72261074E+00  7.72261074E+00 -1.54452215E+01  7.72261074E+00
  7.72261074E+00 -1.54452215E+01  7.72261074E+00  7.72261074E+00 -1.54452215E+01
  7.72261074E+00  7.72261074E+00 -1.54452215E+01  7.72261074E+00  7.72261074E+00
 -1.54452215E+01  7.72261074E+00  7.72261074E+00 -1.54452215E+01  7.72261074E+00
  7.72261074E+00 -1.54452215E+01  7.72261074E+00  7.72261074E+00 -1.54452215E+01
  7.72261074E+00  7.72261074E+00 -1.54452215E+01  7.72261074E+00  7.72261074E+00
 -1.54452215E+01  7.72261074E+00  7.72261074E+00 -1.54452215E+01  7.72261074E+00
  7.72261074E+00 -1.54452215E+01  7.72261074E+00  7.72261074E+00 -1.54452215E+01
  7.72261074E+00  7.72261074E+00 -1.54452215E+01  7.72261074E+00  7.72261074E+00
 -1.54452215E+01  7.72261074E+00  7.72261074E+00 -1.54452215E+01  7.72261074E+00
  7.72261074E+00 -1.54452215E+01  7.72261074E+00  7.72261074E+00 -1.54452215E+01
  7.72261074E+00  7.72261074E+00 -1.54452215E+01  7.72261074E+00  7.72261074E+00
 -1.54452215E+01  7.72261074E+00  7.72261074E+00 -1.54452215E+01  7.72261074E+00
  7.72261074E+00 -1.54452215E+01  7.72261074E+00  7.72261074E+00 -1.54452215E+01
  7.72261074E+00  7.72261074E+00 -1.54452215E+01  7.72261074E+00  7.72261074E+00
 -1.54452215E+01  7.72261074E+00  7.72261074E+00 -1.54452215E+01  7.72261074E+00
  7.72261074E+00 -1.54452215E+01  7.72261074E+00  7.72261074E+00 -1.54452215E+01
  7.72261074E+00  7.72261074E+00 -1.54452215E+01  7.72261074E+00  7.72261074E+00
 -1.54452215E+01  7.72261074E+00  7.72261074E+00 -1.54452215E+01  7.72261074E+00
  7.72261074E+00 -1.54452215E+01  7.72261074E+00  7.72261074E+00 -1.54452215E+01
  7.72261074E+00  7.72261074E+00 -1.54452215E+01  7.72261074E+00  7.72261074E+00
 -1.54452215E+01  7.72261074E+00  7.72261074E+00 -1.54452215E+01  7.72261074E+00
  7.72261074E+00 -1.54452215E+01  7.72261074E+00  7.72261074E+00 -1.54452215E+01
  7.72261074E+00  7.72261074E+00 -1.54452215E+01  7.72261074E+00  7.72261074E+00
 -1.54452215E+01  7.72261074E+00  7.72261074E+00 -1.54452215E+01  7.72261074E+00
  7.72261074E+00 -1.54452215E+01  7.72261074E+00  7.72261074E+00 -1.54452215E+01
  7.72261074E+00  7.72261074E+00 -1.54452215E+01  7.72261074E+00  7.72261074E+00
 -1.54452215E+01  7.72261074E+00  7.72261074E+00 -1.54452215E+01  7.72261074E+00
  7.72261074E+00 -1.54452215E+01  7.72261074E+00  7.72261074E+00 -1.54452215E+01
  7.72261074E+00  7.72261074E+00 -1.54452215E+01  7.72261074E+00  7.72261074E+00
 -1.54452215E+01  7.72261074E+00  7.72261074E+00 -1.54452215E+01  7.72261074E+00
  7.72261074E+00 -1.54452215E+01  7.72261074E+00  7.72261074E+00 -1.54452215E+01
  7.72261074E+00  7.72261074E+00 -1.54452215E+01  7.72261074E+00  7.72261074E+00
 -1.54452215E+01  7.72261074E+00  7.72261074E+00 -1.54452215E+01  7.72261074E+00
  7.72261074E+00 -1.54452215E+01  7.72261074E+00  7.72261074E+00 -1.54452215E+01
  7.72261074E+00  7.72261074E+00 -1.54452215E+01  7.72261074E+00  7.72261074E+00
 -1.54452215E+01  7.72261074E+00  7.72261074E+00 -1.54452215E+01  7.72261074E+00
  7.72261074E+00 -1.54452215E+01  7.72261074E+00  7.72261074E+00 -1.54452215E+01
  7.72261074E+00  7.72261074E+00 -1.54452215E+01  7.72261074E+00  7.72261074E+00
 -1.54452215E+01  7.72261074E+00  7.72261074E+00 -1.54452215E+01  7.72261074E+00
  7.72261074E+00 -1.54452215E+01  7.72261074E+00  7.72261074E+00 -1.54452215E+01
  7.72261074E+00  7.72261074E+00 -1.54452215E+01  7.72261074E+00  7.72261074E+00
 -1.54452215E+01  7.72261074E+00  7.72261074E+00 -1.54452215E+01  7.72261074E+00
  7.72261074E+00 -1.54452215E+01  7.72261074E+00  7.72261074E+00 -1.54452215E+01
  7.72261074E+00  7.72261074E+00 -1.54452215E+01  7.72261074E+00  7.72261074E+00
 -1.54452215E+01  7.72261074E+00  7.72261074E+00 -1.54452215E+01  7.72261074E+00
  7.72261074E+00 -1.54452215E+01  7.72261074E+00  7.72261074E+00 -1.54452215E+01
  7.72261074E+00  7.72261074E+00 -1.54452215E+01  7.72261074E+00  7.72261074E+00
 -1.54452215E+01  7.72261074E+00  7.72261074E+00 -1.54452215E+01  7.72261074E+00
  7.72261074E+00 -1.54452215E+01  7.72261074E+00  7.72261074E+00 -1.54452215E+01
  7.72261074E+00  7.72261074E+00 -1.54452215E+01  7.72261074E+00  7.72261074E+00
 -1.54452215E+01  7.72261074E+00  7.72261074E+00 -1.54452215E+01  7.72261074E+00
  7.72261074E+00 -1.54452215E+01  7.72261074E+00  7.72261074E+00 -1.54452215E+01
  7.72261074E+00  7.72261074E+00 -1.54452215E+01  7.72261074E+00  7.72261074E+00
 -1.54452215E+01  7.72261074E+00  7.72261074E+00 -1.54452215E+01  7.72261074E+00
  7.72261074E+00 -1.54452215E+01  7.72261074E+00  7.72261074E+00 -1.54452215E+01
  7.72261074E+00  7.72261074E+00 -1.54452215E+01  7.72261074E+00  7.72261074E+00
 -1.54452215E+01  7.72261074E+00  7.72261074E+00 -1.54452215E+01  7.72261074E+00
  7.72261074E+00 -1.54452215E+01  7.72261074E+00  7.72261074E+00 -1.54452215E+01
  7.72261074E+00  7.72261074E+00 -1.54452215E+01  7.72261074E+00  7.72261074E+00
 -1.54452215E+01  7.72261074E+00  7.72261074E+00 -1.54452215E+01  7.72261074E+00
  7.72261074E+00 -1.54452215E+01  7.72261074E+00  7.72261074E+00 -1.54452215E+01
  7.72261074E+00  7.72261074E+00 -1.54452215E+01  7.72261074E+00  7.72261074E+00
 -1.54452215E+01  7.72261074E+00  7.72261074E+00 -1.54452215E+01  7.72261074E+00
  7.72261074E+00 -1.54452215E+01  7.72261074E+00  7.72261074E+00 -1.54452215E+01
  7.72261074E+00  7.72261074E+00 -1.54452215E+01  7.72261074E+00  7.72261074E+00
 -1.54452215E+01  7.72261074E+00  7.72261074E+00 -1.54452215E+01  7.72261074E+00
  7.72261074E+00 -1.54452215E+01  7.72261074E+00  7.72261074E+00 -1.54452215E+01
  7.72261074E+00  7.72261074E+00 -1.54452215E+01  7.72261074E+00  7.72261074E+00
 -1.54452215E+01  7.72261074E+00  7.72261074E+00 -1.54452215E+01  7.72261074E+00
  7.72261074E+00 -1.54452215E+01  7.72261074E+00  7.72261074E+00 -1.54452215E+01
  7.72261074E+00  7.72261074E+00 -1.54452215E+01  7.72261074E+00  7.72261074E+00
 -1.54452215E+01  7.72261074E+00  7.72261074E+00 -1.54452215E+01  7.72261074E+00
  7.72261074E+00 -1.54452215E+01  7.72261074E+00  7.72261074E+00 -1.54452215E+01
  7.72261074E+00  7.72261074E+00 -1.54452215E+01  7.72261074E+00  7.72261074E+00
 -1.54452215E+01  7.72261074E+00  7.72261074E+00 -1.54452215E+01  7.72261074E+00
  7.72261074E+00 -1.54452215E+01  7.72261074E+00  7.72261074E+00 -1.54452215E+01
  7.72261074E+00  7.72261074E+00 -1.54452215E+01  7.72261074E+00  7.72261074E+00
 -1.54452215E+01  7.72261074E+00  7.72261074E+00 -1.54452215E+01  7.72261074E+00
  7.72261074E+00 -1.54452215E+01  7.72261074E+00  7.72261074E+00 -1.54452215E+01
  7.72261074E+00  7.72261074E+00 -1.54452215E+01  7.72261074E+00  7.72261074E+00
 -1.54452215E+01  7.72261074E+00  7.72261074E+00 -1.54452215E+01  7.72261074E+00
  7.72261074E+00 -1.54452215E+01  7.72261074E+00  7.72261074E+00 -1.54452215E+01
  7.72261074E+00  7.72261074E+00 -1.54452215E+01  7.72261074E+00  7.72261074E+00
 -1.54452215E+01  7.72261074E+00  7.72261074E+00 -1.54452215E+01  7.72261074E+00
  7.72261074E+00 -1.54452215E+01  7.72261074E+00  7.72261074E+00 -1.54452215E+01
  7.72261074E+00  7.72261074E+00 -1.54452215E+01  7.72261074E+00  7.72261074E+00
 -1.54452215E+01  7.72261074E+00  7.72261074E+00 -1.54452215E+01  7.72261074E+00
  7.72261074E+00 -1.54452215E+01  7.72261074E+00  7.72261074E+00 -1.54452215E+01
  7.72261074E+00  7.72261074E+00 -1.54452215E+01  7.72261074E+00  7.72261074E+00
 -1.54452215E+01  7.72261074E+00  7.72261074E+00 -1.54452215E+01  7.72261074E+00
  7.72261074E+00 -1.54452215E+01  7.72261074E+00  7.72261074E+00 -1.54452215E+01
  7.72261074E+00  7.72261074E+00 -1.54452215E+01  7.72261074E+00  7.72261074E+00
 -1.54452215E+01  7.72261074E+00  7.72261074E+00 -1.54452215E+01  7.72261074E+00
  7.72261074E+00 -1.54452215E+01  7.72261074E+00  7.72261074E+00 -1.54452215E+01
  7.72261074E+00  7.72261074E+00 -1.54452215E+01  7.72261074E+00  7.72261074E+00
 -1.54452215E+01  7.72261074E+00  7.72261074E+00 -1.54452215E+01  7.72261074E+00
  7.72261074E+00 -1.54452215E+01  7.72261074E+00  7.72261074E+00 -1.54452215E+01
  7.72261074E+00  7.72261074E+00 -1.54452215E+01  7.72261074E+00  7.72261074E+00
 -1.54452215E+01  7.72261074E+00  7.72261074E+00 -1.54452215E+01  7.72261074E+00
  7.72261074E+00 -1.54452215E+01  7.72261074E+00  7.72261074E+00 -1.54452215E+01
  7.72261074E+00  7.72261074E+00 -1.54452215E+01  7.72261074E+00  7.72261074E+00
 -1.54452215E+01  7.72261074E+00  7.72261074E+00 -1.54452215E+01  7.72261074E+00
  7.72261074E+00 -1.54452215E+01  7.72261074E+00  7.72261074E+00 -1.54452215E+01
  7.72261074E+00  7.72261074E+00 -1.54452215E+01  7.72261074E+00  7.72261074E+00
 -1.54452215E+01  7.72261074E+00  7.72261074E+00 -1.54452215E+01  7.72261074E+00
  7.72261074E+00 -1.54452215E+01  7.72261074E+00  7.72261074E+00 -1.54452215E+01
  7.72261074E+00  7.72261074E+00 -1.54452215E+01  7.72261074E+00  7.72261074E+00
 -1.54452215E+01  7.72261074E+00  7.72261074E+00 -1.54452215E+01  7.72261074E+00
  7.72261074E+00 -1.54452215E+01  7.72261074E+00  7.72261074E+00 -1.54452215E+01
  7.72261074E+00  7.72261074E+00 -1.54452215E+01  7.72261074E+00  7.72261074E+00
 -1.54452215E+01  7.72261074E+00  7.72261074E+00 -1.54452215E+01  7.72261074E+00
  7.72261074E+00 -1.54452215E+01  7.72261074E+00  7.72261074E+00 -1.54452215E+01
  7.72261074E+00  7.72261074E+00 -1.54452215E+01  7.72261074E+00  7.72261074E+00
 -1.54452215E+01  7.72261074E+00  7.72261074E+00 -1.54452215E+01  7.72261074E+00
  7.72261074E+00 -1.54452215E+01  7.72261074E+00  7.72261074E+00 -1.54452215E+01
  7.72261074E+00  7.72261074E+00 -1.54452215E+01  7.72261074E+00  7.72261074E+00
 -1.54452215E+01  7.72261074E+00  7.72261074E+00 -1.54452215E+01  7.72261074E+00
  7.72261074E+00 -1.54452215E+01  7.72261074E+00  7.72261074E+00 -1.54452215E+01
  7.72261074E+00  7.72261074E+00 -1.54452215E+01  7.72261074E+00  7.72261074E+00
 -1.54452215E+01  7.72261074E+00  7.72261074E+00 -1.54452215E+01  7.72261074E+00
  7.72261074E+00 -1.54452215E+01  7.72261074E+00  7.72261074E+00 -1.54452215E+01
  7.72261074E+00  7.72261074E+00 -1.54452215E+01  7.72261074E+00  7.72261074E+00
 -1.54452215E+01  7.72261074E+00  7.72261074E+00 -1.54452215E+01  7.72261074E+00
  7.72261074E+00 -1.54452215E+01  7.72261074E+00  7.72261074E+00 -1.54452215E+01
  7.72261074E+00  7.72261074E+00 -1.54452215E+01  7.72261074E+00  7.72261074E+00
 -1.54452215E+01  7.72261074E+00  7.72261074E+00 -1.54452215E+01  7.72261074E+00
  7.72261074E+00 -1.54452215E+01  7.72261074E+00  7.72261074E+00 -1.54452215E+01
  7.72261074E+00  7.72261074E+00 -1.54452215E+01  7.72261074E+00  7.72261074E+00
 -1.54452215E+01  7.72261074E+00  7.72261074E+00 -1.54452215E+01  7.72261074E+00
  7.72261074E+00 -1.54452215E+01  7.72261074E+00  7.72261074E+00 -1.54452215E+01
  7.72261074E+00  7.72261074E+00 -1.54452215E+01  7.72261074E+00  7.72261074E+00
 -1.54452215E+01  7.72261074E+00  7.72261074E+00 -1.54452215E+01  7.72261074E+00
  7.72261074E+00 -1.54452215E+01  7.72261074E+00  7.72261074E+00 -1.54452215E+01
  7.72261074E+00  7.72261074E+00 -1.54452215E+01  7.72261074E+00  7.72261074E+00
 -1.54452215E+01  7.72261074E+00  7.72261074E+00 -1.54452215E+01  7.72261074E+00
  7.72261074E+00 -1.54452215E+01  7.72261074E+00  7.72261074E+00 -1.54452215E+01
  7.72261074E+00  7.72261074E+00 -1.54452215E+01  7.72261074E+00  7.72261074E+00
 -1.54452215E+01  7.72261074E+00  7.72261074E+00 -1.54452215E+01  7.72261074E+00
  7.72261074E+00 -1.54452215E+01  7.72261074E+00  7.72261074E+00 -1.54452215E+01
  7.72261074E+00  7.72261074E+00 -1.54452215E+01  7.72261074E+00  7.72261074E+00
 -1.54452215E+01  7.72261074E+00  7.72261074E+00 -1.54452215E+01  7.72261074E+00
  7.72261074E+00 -1.54452215E+01  7.72261074E+00  7.72261074E+00 -1.54452215E+01
  7.72261074E+00  7.72261074E+00 -1.54452215E+01  7.72261074E+00  7.72261074E+00
 -1.54452215E+01  7.72261074E+00  7.72261074E+00 -1.54452215E+01  7.72261074E+00
  7.72261074E+00 -1.54452215E+01  7.72261074E+00  7.72261074E+00 -1.54452215E+01
  7.72261074E+00  7.72261074E+00 -1.54452215E+01  7.72261074E+00  7.72261074E+00
 -1.54452215E+01  7.72261074E+00  7.72261074E+00 -1.54452215E+01  7.72261074E+00
  7.72261074E+00 -1.54452215E+01  7.72261074E+00  7.72261074E+00 -1.54452215E+01
  7.72261074E+00  7.72261074E+00 -1.54452215E+01  7.72261074E+00  7.72261074E+00
 -1.54452215E+01  7.72261074E+00  7.72261074E+00 -1.54452215E+01  7.72261074E+00
  7.72261074E+00 -1.54452215E+01  7.72261074E+00  7.72261074E+00 -1.54452215E+01
  7.72261074E+00  7.72261074E+00 -1.54452215E+01  7.72261074E+00  7.72261074E+00
 -1.54452215E+01  7.72261074E+00  7.72261074E+00 -1.54452215E+01  7.72261074E+00
  7.72261074E+00 -1.54452215E+01  7.72261074E+00  7.72261074E+00 -1.54452215E+01
  7.72261074E+00  7.72261074E+00 -1.54452215E+01  7.72261074E+00  7.72261074E+00
 -1.54452215E+01  7.72261074E+00  7.72261074E+00 -1.54452215E+01  7.72261074E+00
  7.72261074E+00 -1.54452215E+01  7.72261074E+00  7.72261074E+00 -1.54452215E+01
  7.72261074E+00  7.72261074E+00 -1.54452215E+01  7.72261074E+00  7.72261074E+00
 -1.54452215E+01  7.72261074E+00  7.72261074E+00 -1.54452215E+01  7.72261074E+00
  7.72261074E+00 -1.54452215E+01  7.72261074E+00  7.72261074E+00 -1.54452215E+01
  7.72261074E+00  7.72261074E+00 -1.54452215E+01  7.72261074E+00  7.72261074E+00
 -1.54452215E+01  7.72261074E+00  7.72261074E+00 -1.54452215E+01  7.72261074E+00
  7.72261074E+00 -1.54452215E+01  7.72261074E+00  7.72261074E+00 -1.54452215E+01
  7.72261074E+00  7.72261074E+00 -1.54452215E+01  7.72261074E+00  7.72261074E+00
 -1.54452215E+01  7.72261074E+00  7.72261074E+00 -1.54452215E+01  7.72261074E+00
  7.72261074E+00 -1.54452215E+01  7.72261074E+00  7.72261074E+00 -1.54452215E+01
  7.72261074E+00  7.72261074E+00 -1.54452215E+01  7.72261074E+00  7.72261074E+00
 -1.54452215E+01  7.72261074E+00  7.72261074E+00 -1.54452215E+01  7.72261074E+00
  7.72261074E+00 -1.54452215E+01  7.72261074E+00  7.72261074E+00 -1.54452215E+01
  7.72261074E+00  7.72261074E+00 -1.54452215E+01  7.72261074E+00  7.72261074E+00
 -1.54452215E+01  7.72261074E+00  7.72261074E+00 -1.54452215E+01  7.72261074E+00
  7.72261074E+00 -1.54452215E+01  7.72261074E+00  7.72261074E+00 -1.54452215E+01
  7.72261074E+00  7.72261074E+00 -1.54452215E+01  7.72261074E+00  7.72261074E+00
 -1.54452215E+01  7.72261074E+00  7.72261074E+00 -1.54452215E+01  7.72261074E+00
  7.72261074E+00 -1.54452215E+01  7.72261074E+00  7.72261074E+00 -1.54452215E+01
  7.72261074E+00  7.72261074E+00 -1.54452215E+01  7.72261074E+00  7.72261074E+00
 -1.54452215E+01  7.72261074E+00  7.72261074E+00 -1.54452215E+01  7.72261074E+00
  7.72261074E+00 -1.54452215E+01  7.72261074E+00  7.72261074E+00 -1.54452215E+01
  7.72261074E+00  7.72261074E+00 -1.54452215E+01  7.72261074E+00  7.72261074E+00
 -1.54452215E+01  7.72261074E+00  7.72261074E+00 -1.54452215E+01  7.72261074E+00
  7.72261074E+00 -1.54452215E+01  7.72261074E+00  7.72261074E+00 -1.54452215E+01
  7.72261074E+00  7.72261074E+00 -1.54452215E+01  7.72261074E+00  7.72261074E+00
 -1.54452215E+01  7.72261074E+00  7.72261074E+00 -1.54452215E+01  7.72261074E+00
  7.72261074E+00 -1.54452215E+01  7.72261074E+00  7.72261074E+00 -1.54452215E+01
  7.72261074E+00  7.72261074E+00 -1.54452215E+01  7.72261074E+00  7.72261074E+00
 -1.54452215E+01  7.72261074E+00  7.72261074E+00 -1.54452215E+01  7.72261074E+00
  7.72261074E+00 -1.54452215E+01  7.72261074E+00  7.72261074E+00 -1.54452215E+01
  7.72261074E+00  7.72261074E+00 -1.54452215E+01  7.72261074E+00  7.72261074E+00
 -1.54452215E+01  7.72261074E+00  7.72261074E+00 -1.54452215E+01  7.72261074E+00
  7.72261074E+00 -1.54452215E+01  7.72261074E+00  7.72261074E+00 -1.54452215E+01
  7.72261074E+00  7.72261074E+00 -1.54452215E+01  7.72261074E+00  7.72261074E+00
 -1.54452215E+01  7.72261074E+00  7.72261074E+00 -1.54452215E+01  7.72261074E+00
  7.72261074E+00 -1.54452215E+01  7.72261074E+00  7.72261074E+00 -1.54452215E+01
  7.72261074E+00  7.72261074E+00 -1.54452215E+01  7.72261074E+00  7.72261074E+00
 -1.54452215E+01  7.72261074E+00  7.72261074E+00 -1.54452215E+01  7.72261074E+00
  7.72261074E+00 -1.54452215E+01  7.72261074E+00  7.72261074E+00 -1.54452215E+01
  7.72261074E+00  7.72261074E+00 -1.54452215E+01  7.72261074E+00  7.72261074E+00
 -1.54452215E+01  7.72261074E+00  7.72261074E+00 -1.54452215E+01  7.72261074E+00
  7.72261074E+00 -1.54452215E+01  7.72261074E+00  7.72261074E+00 -1.54452215E+01
  7.72261074E+00  7.72261074E+00 -1.54452215E+01  7.72261074E+00  7.72261074E+00
 -1.54452215E+01  7.72261074E+00  7.72261074E+00 -1.54452215E+01  7.72261074E+00
  7.72261074E+00 -1.54452215E+01  7.72261074E+00  7.72261074E+00 -1.54452215E+01
  7.72261074E+00  7.72261074E+00 -1.54452215E+01  7.72261074E+00  7.72261074E+00
 -1.54452215E+01  7.72261074E+00  7.72261074E+00 -1.54452215E+01  7.72261074E+00
  7.72261074E+00 -1.54452215E+01  7.72261074E+00  7.72261074E+00 -1.54452215E+01
  7.72261074E+00  7.72261074E+00 -1.54452215E+01  7.72261074E+00  7.72261074E+00
 -1.54452215E+01  7.72261074E+00  7.72261074E+00 -1.54452215E+01  7.72261074E+00
  7.72261074E+00 -1.54452215E+01  7.72261074E+00  7.72261074E+00 -1.54452215E+01
  7.72261074E+00  7.72261074E+00 -1.54452215E+01  7.72261074E+00  7.72261074E+00
 -1.54452215E+01  7.72261074E+00  7.72261074E+00 -1.54452215E+01  7.72261074E+00
  7.72261074E+00 -1.54452215E+01  7.72261074E+00  7.72261074E+00 -1.54452215E+01
  7.72261074E+00  7.72261074E+00 -1.54452215E+01  7.72261074E+00  7.72261074E+00
 -1.54452215E+01  7.72261074E+00  7.72261074E+00 -1.54452215E+01  7.72261074E+00
  7.72261074E+00 -1.54452215E+01  7.72261074E+00  7.72261074E+00 -1.54452215E+01
  7.72261074E+00  7.72261074E+00 -1.54452215E+01  7.72261074E+00  7.72261074E+00
 -1.54452215E+01  7.72261074E+00  7.72261074E+00 -1.54452215E+01  7.72261074E+00
  7.72261074E+00 -1.54452215E+01  7.72261074E+00  7.72261074E+00 -1.54452215E+01
  7.72261074E+00  7.72261074E+00 -1.54452215E+01  7.72261074E+00  7.72261074E+00
 -1.54452215E+01  7.72261074E+00  7.72261074E+00 -1.54452215E+01  7.72261074E+00
  7.72261074E+00 -1.54452215E+01  7.72261074E+00  7.72261074E+00 -1.54452215E+01
  7.72261074E+00  7.72261074E+00 -1.54452215E+01  7.72261074E+00  7.72261074E+00
 -1.54452215E+01  7.72261074E+00  7.72261074E+00 -1.54452215E+01  7.72261074E+00
  7.72261074E+00 -1.54452215E+01  7.72261074E+00  7.72261074E+00 -1.54452215E+01
  7.72261074E+00  7.72261074E+00 -1.54452215E+01  7.72261074E+00  7.72261074E+00
 -1.54452215E+01  7.72261074E+00  7.72261074E+00 -1.54452215E+01  7.72261074E+00
  7.72261074E+00 -1.54452215E+01  7.72261074E+00  7.72261074E+00 -1.54452215E+01
  7.72261074E+00  7.72261074E+00 -1.54452215E+01  7.72261074E+00  7.72261074E+00
 -1.54452215E+01  7.72261074E+00  7.72261074E+00 -1.54452215E+01  7.72261074E+00
  7.72261074E+00 -1.54452215E+01  7.72261074E+00  7.72261074E+00 -1.54452215E+01
  7.72261074E+00  7.72261074E+00 -1.54452215E+01  7.72261074E+00  7.72261074E+00
 -1.54452215E+01  7.72261074E+00  7.72261074E+00 -1.54452215E+01  7.72261074E+00
  7.72261074E+00 -1.54452215E+01  7.72261074E+00  7.72261074E+00 -1.54452215E+01
  7.72261074E+00  7.72261074E+00 -1.54452215E+01  7.72261074E+00  7.72261074E+00
 -1.54452215E+01  7.72261074E+00  7.72261074E+00 -1.54452215E+01  7.72261074E+00
  7.72261074E+00 -1.54452215E+01  7.72261074E+00  7.72261074E+00 -1.54452215E+01
  7.72261074E+00  7.72261074E+00 -1.54452215E+01  7.72261074E+00  7.72261074E+00
 -1.54452215E+01  7.72261074E+00  7.72261074E+00 -1.54452215E+01  7.72261074E+00
  7.72261074E+00 -1.54452215E+01  7.72261074E+00  7.72261074E+00 -1.54452215E+01
  7.72261074E+00  7.72261074E+00 -1.54452215E+01  7.72261074E+00  7.72261074E+00
 -1.54452215E+01  7.72261074E+00  7.72261074E+00 -1.54452215E+01  7.72261074E+00
  7.72261074E+00 -1.54452215E+01  7.72261074E+00  7.72261074E+00 -1.54452215E+01
  7.72261074E+00  7.72261074E+00 -1.54452215E+01  7.72261074E+00  7.72261074E+00
 -1.54452215E+01  7.72261074E+00  7.72261074E+00 -1.54452215E+01  7.72261074E+00
  7.72261074E+00 -1.54452215E+01  7.72261074E+00  7.72261074E+00 -1.54452215E+01
  7.72261074E+00  7.72261074E+00 -1.54452215E+01  7.72261074E+00  7.72261074E+00
 -1.54452215E+01  7.72261074E+00  7.72261074E+00 -1.54452215E+01  7.72261074E+00
  7.72261074E+00 -1.54452215E+01  7.72261074E+00  7.72261074E+00 -1.54452215E+01
  7.72261074E+00  7.72261074E+00 -1.54452215E+01  7.72261074E+00  7.72261074E+00
 -1.54452215E+01  7.72261074E+00  7.72261074E+00 -1.54452215E+01  7.72261074E+00
  7.72261074E+00 -1.54452215E+01  7.72261074E+00  7.72261074E+00 -1.54452215E+01
  7.72261074E+00  7.72261074E+00 -1.54452215E+01  7.72261074E+00  7.72261074E+00
 -1.54452215E+01  7.72261074E+00  7.72261074E+00 -1.54452215E+01  7.72261074E+00
  7.72261074E+00 -1.54452215E+01  7.72261074E+00  7.72261074E+00 -1.54452215E+01
  7.72261074E+00  7.72261074E+00 -1.54452215E+01  7.72261074E+00  7.72261074E+00
 -1.54452215E+01  7.72261074E+00  7.72261074E+00 -1.54452215E+01  7.72261074E+00
  7.72261074E+00 -1.54452215E+01  7.72261074E+00  7.72261074E+00 -1.54452215E+01
  7.72261074E+00  7.72261074E+00 -1.54452215E+01  7.72261074E+00  7.72261074E+00
 -1.54452215E+01  7.72261074E+00  7.72261074E+00 -1.54452215E+01  7.72261074E+00
  7.72261074E+00 -1.54452215E+01  7.72261074E+00  7.72261074E+00 -1.54452215E+01
  7.72261074E+00  7.72261074E+00 -1.54452215E+01  7.72261074E+00  7.72261074E+00
 -1.54452215E+01  7.72261074E+00  7.72261074E+00 -1.54452215E+01  7.72261074E+00
  7.72261074E+00 -1.54452215E+01  7.72261074E+00  7.72261074E+00 -1.54452215E+01
  7.72261074E+00  7.72261074E+00 -1.54452215E+01  7.72261074E+00  7.72261074E+00
 -1.54452215E+01  7.72261074E+00  7.72261074E+00 -1.54452215E+01  7.72261074E+00
  7.72261074E+00 -1.54452215E+01  7.72261074E+00  7.72261074E+00 -1.54452215E+01
  7.72261074E+00  7.72261074E+00 -1.54452215E+01  7.72261074E+00  7.72261074E+00
 -1.54452215E+01  7.72261074E+00  7.72261074E+00 -1.54452215E+01  7.72261074E+00
  7.72261074E+00 -1.54452215E+01  7.72261074E+00  7.72261074E+00 -1.54452215E+01
  7.72261074E+00  7.72261074E+00 -1.54452215E+01  7.72261074E+00  7.72261074E+00
 -1.54452215E+01  7.72261074E+00  7.72261074E+00 -1.54452215E+01  7.72261074E+00
  7.72261074E+00 -1.54452215E+01  7.72261074E+00  7.72261074E+00 -1.54452215E+01
  7.72261074E+00  7.72261074E+00 -1.54452215E+01  7.72261074E+00  7.72261074E+00
 -1.54452215E+01  7.72261074E+00  7.72261074E+00 -1.54452215E+01  7.72261074E+00
  7.72261074E+00 -1.54452215E+01  7.72261074E+00  7.72261074E+00 -1.54452215E+01
  7.72261074E+00  7.72261074E+00 -1.54452215E+01  7.72261074E+00  7.72261074E+00
 -1.54452215E+01  7.72261074E+00  7.72261074E+00 -1.54452215E+01  7.72261074E+00
  7.72261074E+00 -1.54452215E+01  7.72261074E+00  7.72261074E+00 -1.54452215E+01
  7.72261074E+00  7.72261074E+00 -1.54452215E+01  7.72261074E+00  7.72261074E+00
 -1.54452215E+01  7.72261074E+00  7.72261074E+00 -1.54452215E+01  7.72261074E+00
  7.72261074E+00 -1.54452215E+01  7.72261074E+00  7.72261074E+00 -1.54452215E+01
  7.72261074E+00  7.72261074E+00 -1.54452215E+01  7.72261074E+00  7.72261074E+00
 -1.54452215E+01  7.72261074E+00  7.72261074E+00 -1.54452215E+01  7.72261074E+00
  7.72261074E+00 -1.54452215E+01  7.72261074E+00  7.72261074E+00 -1.54452215E+01
  7.72261074E+00  7.72261074E+00 -1.54452215E+01  7.72261074E+00  7.72261074E+00
 -1.54452215E+01  7.72261074E+00  7.72261074E+00 -1.54452215E+01  7.72261074E+00
  7.72261074E+00 -1.54452215E+01  7.72261074E+00  7.72261074E+00 -1.54452215E+01
  7.72261074E+00  7.72261074E+00 -1.54452215E+01  7.72261074E+00  7.72261074E+00
 -1.54452215E+01  7.72261074E+00  7.72261074E+00 -1.54452215E+01  7.72261074E+00
  7.72261074E+00 -1.54452215E+01  7.72261074E+00  7.72261074E+00 -1.54452215E+01
  7.72261074E+00  7.72261074E+00 -1.54452215E+01  7.72261074E+00  7.72261074E+00
 -1.54452215E+01  7.72261074E+00  7.72261074E+00 -1.54452215E+01  7.72261074E+00
  7.72261074E+00 -1.54452215E+01  7.72261074E+00  7.72261074E+00 -1.54452215E+01
  7.72261074E+00  7.72261074E+00 -1.54452215E+01  7.72261074E+00  7.72261074E+00
 -1.54452215E+01  7.72261074E+00  7.72261074E+00 -1.54452215E+01  7.72261074E+00
  7.72261074E+00 -1.54452215E+01  7.72261074E+00  7.72261074E+00 -1.54452215E+01
  7.72261074E+00  7.72261074E+00 -1.54452215E+01  7.72261074E+00  7.72261074E+00
 -1.54452215E+01  7.72261074E+00  7.72261074E+00 -1.54452215E+01  7.72261074E+00
  7.72261074E+00 -1.54452215E+01  7.72261074E+00  7.72261074E+00 -1.54452215E+01
  7.72261074E+00  7.72261074E+00 -1.54452215E+01  7.72261074E+00  7.72261074E+00
 -1.54452215E+01  7.72261074E+00  7.72261074E+00 -1.54452215E+01  7.72261074E+00
  7.72261074E+00 -1.54452215E+01  7.72261074E+00  7.72261074E+00 -1.54452215E+01
  7.72261074E+00  7.72261074E+00 -1.54452215E+01  7.72261074E+00  7.72261074E+00
 -1.54452215E+01  7.72261074E+00  7.72261074E+00 -1.54452215E+01  7.72261074E+00
  7.72261074E+00 -1.54452215E+01  7.72261074E+00  7.72261074E+00 -1.54452215E+01
  7.72261074E+00  7.72261074E+00 -1.54452215E+01  7.72261074E+00  7.72261074E+00
 -1.54452215E+01  7.72261074E+00  7.72261074E+00 -1.54452215E+01  7.72261074E+00
  7.72261074E+00 -1.54452215E+01  7.72261074E+00  7.72261074E+00 -1.54452215E+01
  7.72261074E+00  7.72261074E+00 -1.54452215E+01  7.72261074E+00  7.72261074E+00
 -1.54452215E+01  7.72261074E+00  7.72261074E+00 -1.54452215E+01  7.72261074E+00
  7.72261074E+00 -1.54452215E+01  7.72261074E+00  7.72261074E+00 -1.54452215E+01
  7.72261074E+00  7.72261074E+00 -1.54452215E+01  7.72261074E+00  7.72261074E+00
 -1.54452215E+01  7.72261074E+00  7.72261074E+00 -1.54452215E+01  7.72261074E+00
  7.72261074E+00 -1.54452215E+01  7.72261074E+00  7.72261074E+00 -1.54452215E+01
  7.72261074E+00  7.72261074E+00 -1.54452215E+01  7.72261074E+00  7.72261074E+00
 -1.54452215E+01  7.72261074E+00  7.72261074E+00 -1.54452215E+01  7.72261074E+00
  7.72261074E+00 -1.54452215E+01  7.72261074E+00  7.72261074E+00 -1.54452215E+01
  7.72261074E+00  7.72261074E+00 -1.54452215E+01  7.72261074E+00  7.72261074E+00
 -1.54452215E+01  7.72261074E+00  7.72261074E+00 -1.54452215E+01  7.72261074E+00
  7.72261074E+00 -1.54452215E+01  7.72261074E+00  7.72261074E+00 -1.54452215E+01
  7.72261074E+00  7.72261074E+00 -1.54452215E+01  7.72261074E+00  7.72261074E+00
 -1.54452215E+01  7.72261074E+00  7.72261074E+00 -1.54452215E+01  7.72261074E+00
  7.72261074E+00 -1.54452215E+01  7.72261074E+00  7.72261074E+00 -1.54452215E+01
  7.72261074E+00  7.72261074E+00 -1.54452215E+01  7.72261074E+00  7.72261074E+00
 -1.54452215E+01  7.72261074E+00  7.72261074E+00 -1.54452215E+01  7.72261074E+00
  7.72261074E+00 -1.54452215E+01  7.72261074E+00  7.72261074E+00 -1.54452215E+01
  7.72261074E+00  7.72261074E+00 -1.54452215E+01  7.72261074E+00  7.72261074E+00
 -1.54452215E+01  7.72261074E+00  7.72261074E+00 -1.54452215E+01  7.72261074E+00
  7.72261074E+00 -1.54452215E+01  7.72261074E+00  7.72261074E+00 -1.54452215E+01
  7.72261074E+00  7.72261074E+00 -1.54452215E+01  7.72261074E+00  7.72261074E+00
 -1.54452215E+01  7.72261074E+00  7.72261074E+00 -1.54452215E+01  7.72261074E+00
  7.72261074E+00 -1.54452215E+01  7.72261074E+00  7.72261074E+00 -1.54452215E+01
  7.72261074E+00  7.72261074E+00 -1.54452215E+01  7.72261074E+00  7.72261074E+00
 -1.54452215E+01  7.72261074E+00  7.72261074E+00 -1.54452215E+01  7.72261074E+00
  7.72261074E+00 -1.54452215E+01  7.72261074E+00  7.72261074E+00 -1.54452215E+01
  7.72261074E+00  7.72261074E+00 -1.54452215E+01  7.72261074E+00  7.72261074E+00
 -1.54452215E+01  7.72261074E+00  7.72261074E+00 -1.54452215E+01  7.72261074E+00
  7.72261074E+00 -1.54452215E+01  7.72261074E+00  7.72261074E+00 -1.54452215E+01
  7.72261074E+00  7.72261074E+00 -1.54452215E+01  7.72261074E+00  7.72261074E+00
 -1.54452215E+01  7.72261074E+00  7.72261074E+00 -1.54452215E+01  7.72261074E+00
  7.72261074E+00 -1.54452215E+01  7.72261074E+00  7.72261074E+00 -1.54452215E+01
  7.72261074E+00  7.72261074E+00 -1.54452215E+01  7.72261074E+00  7.72261074E+00
 -1.54452215E+01  7.72261074E+00  7.72261074E+00 -1.54452215E+01  7.72261074E+00
  7.72261074E+00 -1.54452215E+01  7.72261074E+00  7.72261074E+00 -1.54452215E+01
  7.72261074E+00  7.72261074E+00 -1.54452215E+01  7.72261074E+00  7.72261074E+00
 -1.54452215E+01  7.72261074E+00  7.72261074E+00 -1.54452215E+01  7.72261074E+00
  7.72261074E+00 -1.54452215E+01  7.72261074E+00  7.72261074E+00 -1.54452215E+01
  7.72261074E+00  7.72261074E+00 -1.54452215E+01  7.72261074E+00  7.72261074E+00
 -1.54452215E+01  7.72261074E+00  7.72261074E+00 -1.54452215E+01  7.72261074E+00
  7.72261074E+00 -1.54452215E+01  7.72261074E+00  7.72261074E+00 -1.54452215E+01
  7.72261074E+00  7.72261074E+00 -1.54452215E+01  7.72261074E+00  7.72261074E+00
 -1.54452215E+01  7.72261074E+00  7.72261074E+00 -1.54452215E+01  7.72261074E+00
  7.72261074E+00 -1.54452215E+01  7.72261074E+00  7.72261074E+00 -1.54452215E+01
  7.72261074E+00  7.72261074E+00 -1.54452215E+01  7.72261074E+00  7.72261074E+00
 -1.54452215E+01  7.72261074E+00  7.72261074E+00 -1.54452215E+01  7.72261074E+00
  7.72261074E+00 -1.54452215E+01  7.72261074E+00  7.72261074E+00 -1.54452215E+01
  7.72261074E+00  7.72261074E+00 -1.54452215E+01  7.72261074E+00  7.72261074E+00
 -1.54452215E+01  7.72261074E+00  7.72261074E+00 -1.54452215E+01  7.72261074E+00
  7.72261074E+00 -1.54452215E+01  7.72261074E+00  7.72261074E+00 -1.54452215E+01
  7.72261074E+00  7.72261074E+00 -1.54452215E+01  7.72261074E+00  7.72261074E+00
 -1.54452215E+01  7.72261074E+00  7.72261074E+00 -1.54452215E+01  7.72261074E+00
  7.72261074E+00 -1.54452215E+01  7.72261074E+00  7.72261074E+00 -1.54452215E+01
  7.72261074E+00  7.72261074E+00 -1.54452215E+01  7.72261074E+00  7.72261074E+00
 -1.54452215E+01  7.72261074E+00  7.72261074E+00 -1.54452215E+01  7.72261074E+00
  7.72261074E+00 -1.54452215E+01  7.72261074E+00  7.72261074E+00 -1.54452215E+01
  7.72261074E+00  7.72261074E+00 -1.54452215E+01  7.72261074E+00  7.72261074E+00
 -1.54452215E+01  7.72261074E+00  7.72261074E+00 -1.54452215E+01  7.72261074E+00
  7.72261074E+00 -1.54452215E+01  7.72261074E+00  7.72261074E+00 -1.54452215E+01
  7.72261074E+00  7.72261074E+00 -1.54452215E+01  7.72261074E+00  7.72261074E+00
 -1.54452215E+01  7.72261074E+00  7.72261074E+00 -1.54452215E+01  7.72261074E+00
  7.72261074E+00 -1.54452215E+01  7.72261074E+00  7.72261074E+00 -1.54452215E+01
  7.72261074E+00  7.72261074E+00 -1.54452215E+01  7.72261074E+00  7.72261074E+00
 -1.54452215E+01  7.72261074E+00  7.72261074E+00 -1.54452215E+01  7.72261074E+00
  7.72261074E+00 -1.54452215E+01  7.72261074E+00  7.72261074E+00 -1.54452215E+01
  7.72261074E+00  7.72261074E+00 -1.54452215E+01  7.72261074E+00  7.72261074E+00
 -1.54452215E+01  7.72261074E+00  7.72261074E+00 -1.54452215E+01  7.72261074E+00
  7.72261074E+00 -1.54452215E+01  7.72261074E+00  7.72261074E+00 -1.54452215E+01
  7.72261074E+00  7.72261074E+00 -1.54452215E+01  7.72261074E+00  7.72261074E+00
 -1.54452215E+01  7.72261074E+00  7.72261074E+00 -1.54452215E+01  7.72261074E+00
  7.72261074E+00 -1.54452215E+01  7.72261074E+00  7.72261074E+00 -1.54452215E+01
  7.72261074E+00  7.72261074E+00 -1.54452215E+01  7.72261074E+00  7.72261074E+00
 -1.54452215E+01  7.72261074E+00  7.72261074E+00 -1.54452215E+01  7.72261074E+00
  7.72261074E+00 -1.54452215E+01  7.72261074E+00  7.72261074E+00 -1.54452215E+01
  7.72261074E+00  7.72261074E+00 -1.54452215E+01  7.72261074E+00  7.72261074E+00
 -1.54452215E+01  7.72261074E+00  7.72261074E+00 -1.54452215E+01  7.72261074E+00
  7.72261074E+00 -1.54452215E+01  7.72261074E+00  7.72261074E+00 -1.54452215E+01
  7.72261074E+00  7.72261074E+00 -1.54452215E+01  7.72261074E+00  7.72261074E+00
 -1.54452215E+01  7.72261074E+00  7.72261074E+00 -1.54452215E+01  7.72261074E+00
  7.72261074E+00 -1.54452215E+01  7.72261074E+00  7.72261074E+00 -1.54452215E+01
  7.72261074E+00  7.72261074E+00 -1.54452215E+01  7.72261074E+00  7.72261074E+00
 -1.54452215E+01  7.72261074E+00  7.72261074E+00 -1.54452215E+01  7.72261074E+00
  7.72261074E+00 -1.54452215E+01  7.72261074E+00  7.72261074E+00 -1.54452215E+01
  7.72261074E+00  7.72261074E+00 -1.54452215E+01  7.72261074E+00  7.72261074E+00
 -1.54452215E+01  7.72261074E+00  7.72261074E+00 -1.54452215E+01  7.72261074E+00
  7.72261074E+00 -1.54452215E+01  7.72261074E+00  7.72261074E+00 -1.54452215E+01
  7.72261074E+00  7.72261074E+00 -1.54452215E+01  7.72261074E+00  7.72261074E+00
 -1.54452215E+01  7.72261074E+00  7.72261074E+00 -1.54452215E+01  7.72261074E+00
  7.72261074E+00 -1.54452215E+01  7.72261074E+00  7.72261074E+00 -1.54452215E+01
  7.72261074E+00  7.72261074E+00 -1.54452215E+01  7.72261074E+00  7.72261074E+00
 -1.54452215E+01  7.72261074E+00  7.72261074E+00 -1.54452215E+01  7.72261074E+00
  7.72261074E+00 -1.54452215E+01  7.72261074E+00  7.72261074E+00 -1.54452215E+01
  7.72261074E+00  7.72261074E+00 -1.54452215E+01  7.72261074E+00  7.72261074E+00
 -1.54452215E+01  7.72261074E+00  7.72261074E+00 -1.54452215E+01  7.72261074E+00
  7.72261074E+00 -1.54452215E+01  7.72261074E+00  7.72261074E+00 -1.54452215E+01
  7.72261074E+00  7.72261074E+00 -1.54452215E+01  7.72261074E+00  7.72261074E+00
 -1.54452215E+01  7.72261074E+00  7.72261074E+00 -1.54452215E+01  7.72261074E+00
  7.72261074E+00 -1.54452215E+01  7.72261074E+00  7.72261074E+00 -1.54452215E+01
  7.72261074E+00  7.72261074E+00 -1.54452215E+01  7.72261074E+00  7.72261074E+00
 -1.54452215E+01  7.72261074E+00  7.72261074E+00 -1.54452215E+01  7.72261074E+00
  7.72261074E+00 -1.54452215E+01  7.72261074E+00  7.72261074E+00 -1.54452215E+01
  7.72261074E+00  7.72261074E+00 -1.54452215E+01  7.72261074E+00  7.72261074E+00
 -1.54452215E+01  7.72261074E+00  7.72261074E+00 -1.54452215E+01  7.72261074E+00
  7.72261074E+00 -1.54452215E+01  7.72261074E+00  7.72261074E+00 -1.54452215E+01
  7.72261074E+00  7.72261074E+00 -1.54452215E+01  7.72261074E+00  7.72261074E+00
 -1.54452215E+01  7.72261074E+00  7.72261074E+00 -1.54452215E+01  7.72261074E+00
  7.72261074E+00 -1.54452215E+01  7.72261074E+00  7.72261074E+00 -1.54452215E+01
  7.72261074E+00  7.72261074E+00 -1.54452215E+01  7.72261074E+00  7.72261074E+00
 -1.54452215E+01  7.72261074E+00  7.72261074E+00 -1.54452215E+01  7.72261074E+00
  7.72261074E+00 -1.54452215E+01  7.72261074E+00  7.72261074E+00 -1.54452215E+01
  7.72261074E+00  7.72261074E+00 -1.54452215E+01  7.72261074E+00  7.72261074E+00
 -1.54452215E+01  7.72261074E+00  7.72261074E+00 -1.54452215E+01  7.72261074E+00
  7.72261074E+00 -1.54452215E+01  7.72261074E+00  7.72261074E+00 -1.54452215E+01
  7.72261074E+00  7.72261074E+00 -1.54452215E+01  7.72261074E+00  7.72261074E+00
 -1.54452215E+01  7.72261074E+00  7.72261074E+00 -1.54452215E+01  7.72261074E+00
  7.72261074E+00 -1.54452215E+01  7.72261074E+00  7.72261074E+00 -1.54452215E+01
  7.72261074E+00  7.72261074E+00 -1.54452215E+01  7.72261074E+00  7.72261074E+00
 -1.54452215E+01  7.72261074E+00  7.72261074E+00 -1.54452215E+01  7.72261074E+00
  7.72261074E+00 -1.54452215E+01  7.72261074E+00  7.72261074E+00 -1.54452215E+01
  7.72261074E+00  7.72261074E+00 -1.54452215E+01  7.72261074E+00  7.72261074E+00
 -1.54452215E+01  7.72261074E+00  7.72261074E+00 -1.54452215E+01  7.72261074E+00
  7.72261074E+00 -1.54452215E+01  7.72261074E+00  7.72261074E+00 -1.54452215E+01
  7.72261074E+00  7.72261074E+00 -1.54452215E+01  7.72261074E+00  7.72261074E+00
 -1.54452215E+01  7.72261074E+00  7.72261074E+00 -1.54452215E+01  7.72261074E+00
  7.72261074E+00 -1.54452215E+01  7.72261074E+00  7.72261074E+00 -1.54452215E+01
  7.72261074E+00  7.72261074E+00 -1.54452215E+01  7.72261074E+00  7.72261074E+00
 -1.54452215E+01  7.72261074E+00  7.72261074E+00 -1.54452215E+01  7.72261074E+00
  7.72261074E+00 -1.54452215E+01  7.72261074E+00  7.72261074E+00 -1.54452215E+01
  7.72261074E+00  7.72261074E+00 -1.54452215E+01  7.72261074E+00  7.72261074E+00
 -1.54452215E+01  7.72261074E+00  7.72261074E+00 -1.54452215E+01  7.72261074E+00
  7.72261074E+00 -1.54452215E+01  7.72261074E+00  7.72261074E+00 -1.54452215E+01
  7.72261074E+00  7.72261074E+00 -1.54452215E+01  7.72261074E+00  7.72261074E+00
 -1.54452215E+01  7.72261074E+00  7.72261074E+00 -1.54452215E+01  7.72261074E+00
  7.72261074E+00 -1.54452215E+01  7.72261074E+00  7.72261074E+00 -1.54452215E+01
  7.72261074E+00  7.72261074E+00 -1.54452215E+01  7.72261074E+00  7.72261074E+00
 -1.54452215E+01  7.72261074E+00  7.72261074E+00 -1.54452215E+01  7.72261074E+00
  7.72261074E+00 -1.54452215E+01  7.72261074E+00  7.72261074E+00 -1.54452215E+01
  7.72261074E+00  7.72261074E+00 -1.54452215E+01  7.72261074E+00  7.72261074E+00
 -1.54452215E+01  7.72261074E+00  7.72261074E+00 -1.54452215E+01  7.72261074E+00
  7.72261074E+00 -1.54452215E+01  7.72261074E+00  7.72261074E+00 -1.54452215E+01
  7.72261074E+00  7.72261074E+00 -1.54452215E+01  7.72261074E+00  7.72261074E+00
 -1.54452215E+01  7.72261074E+00  7.72261074E+00 -1.54452215E+01  7.72261074E+00
  7.72261074E+00 -1.54452215E+01  7.72261074E+00  7.72261074E+00 -1.54452215E+01
  7.72261074E+00  7.72261074E+00 -1.54452215E+01  7.72261074E+00  7.72261074E+00
 -1.54452215E+01  7.72261074E+00  7.72261074E+00 -1.54452215E+01  7.72261074E+00
  7.72261074E+00 -1.54452215E+01  7.72261074E+00  7.72261074E+00 -1.54452215E+01
  7.72261074E+00  7.72261074E+00 -1.54452215E+01  7.72261074E+00  7.72261074E+00
 -1.54452215E+01  7.72261074E+00  7.72261074E+00 -1.54452215E+01  7.72261074E+00
  7.72261074E+00 -1.54452215E+01  7.72261074E+00  7.72261074E+00 -1.54452215E+01
  7.72261074E+00  7.72261074E+00 -1.54452215E+01  7.72261074E+00  7.72261074E+00
 -1.54452215E+01  7.72261074E+00  7.72261074E+00 -1.54452215E+01  7.72261074E+00
  7.72261074E+00 -1.54452215E+01  7.72261074E+00  7.72261074E+00 -1.54452215E+01
  7.72261074E+00  7.72261074E+00 -1.54452215E+01  7.72261074E+00  7.72261074E+00
 -1.54452215E+01  7.72261074E+00  7.72261074E+00 -1.54452215E+01  7.72261074E+00
  7.72261074E+00 -1.54452215E+01  7.72261074E+00  7.72261074E+00 -1.54452215E+01
  7.72261074E+00  7.72261074E+00 -1.54452215E+01  7.72261074E+00  7.72261074E+00
 -1.54452215E+01  7.72261074E+00  7.72261074E+00 -1.54452215E+01  7.72261074E+00
  7.72261074E+00 -1.54452215E+01  7.72261074E+00  7.72261074E+00 -1.54452215E+01
  7.72261074E+00  7.72261074E+00 -1.54452215E+01  7.72261074E+00  7.72261074E+00
 -1.54452215E+01  7.72261074E+00  7.72261074E+00 -1.54452215E+01  7.72261074E+00
  7.72261074E+00 -1.54452215E+01  7.72261074E+00  7.72261074E+00 -1.54452215E+01
  7.72261074E+00  7.72261074E+00 -1.54452215E+01  7.72261074E+00  7.72261074E+00
 -1.54452215E+01  7.72261074E+00  7.72261074E+00 -1.54452215E+01  7.72261074E+00
  7.72261074E+00 -1.54452215E+01  7.72261074E+00  7.72261074E+00 -1.54452215E+01
  7.72261074E+00  7.72261074E+00 -1.54452215E+01  7.72261074E+00  7.72261074E+00
 -1.54452215E+01  7.72261074E+00  7.72261074E+00 -1.54452215E+01  7.72261074E+00
  7.72261074E+00 -1.54452215E+01  7.72261074E+00  7.72261074E+00 -1.54452215E+01
  7.72261074E+00  7.72261074E+00 -1.54452215E+01  7.72261074E+00  7.72261074E+00
 -1.54452215E+01  7.72261074E+00  7.72261074E+00 -1.54452215E+01  7.72261074E+00
  7.72261074E+00 -1.54452215E+01  7.72261074E+00  7.72261074E+00 -1.54452215E+01
  7.72261074E+00  7.72261074E+00 -1.54452215E+01  7.72261074E+00  7.72261074E+00
 -1.54452215E+01  7.72261074E+00  7.72261074E+00 -1.54452215E+01  7.72261074E+00
  7.72261074E+00 -1.54452215E+01  7.72261074E+00  7.72261074E+00 -1.54452215E+01
  7.72261074E+00  7.72261074E+00 -1.54452215E+01  7.72261074E+00  7.72261074E+00
 -1.54452215E+01  7.72261074E+00  7.72261074E+00 -1.54452215E+01  7.72261074E+00
  7.72261074E+00 -1.54452215E+01  7.72261074E+00  7.72261074E+00 -1.54452215E+01
  7.72261074E+00  7.72261074E+00 -1.54452215E+01  7.72261074E+00  7.72261074E+00
 -1.54452215E+01  7.72261074E+00  7.72261074E+00 -1.54452215E+01  7.72261074E+00
  7.72261074E+00 -1.54452215E+01  7.72261074E+00  7.72261074E+00 -1.54452215E+01
  7.72261074E+00  7.72261074E+00 -1.54452215E+01  7.72261074E+00  7.72261074E+00
 -1.54452215E+01  7.72261074E+00  7.72261074E+00 -1.54452215E+01  7.72261074E+00
  7.72261074E+00 -1.54452215E+01  7.72261074E+00  7.72261074E+00 -1.54452215E+01
  7.72261074E+00  7.72261074E+00 -1.54452215E+01  7.72261074E+00  7.72261074E+00
 -1.54452215E+01  7.72261074E+00  7.72261074E+00 -1.54452215E+01  7.72261074E+00
  7.72261074E+00 -1.54452215E+01  7.72261074E+00  7.72261074E+00 -1.54452215E+01
  7.72261074E+00  7.72261074E+00 -1.54452215E+01  7.72261074E+00  7.72261074E+00
 -1.54452215E+01  7.72261074E+00  7.72261074E+00 -1.54452215E+01  7.72261074E+00
  7.72261074E+00 -1.54452215E+01  7.72261074E+00  7.72261074E+00 -1.54452215E+01
  7.72261074E+00  7.72261074E+00 -1.54452215E+01  7.72261074E+00  7.72261074E+00
 -1.54452215E+01  7.72261074E+00  7.72261074E+00 -1.54452215E+01  7.72261074E+00
  7.72261074E+00 -1.54452215E+01  7.72261074E+00  7.72261074E+00 -1.54452215E+01
  7.72261074E+00  7.72261074E+00 -1.54452215E+01  7.72261074E+00  7.72261074E+00
 -1.54452215E+01  7.72261074E+00  7.72261074E+00 -1.54452215E+01  7.72261074E+00
  7.72261074E+00 -1.54452215E+01  7.72261074E+00  7.72261074E+00 -1.54452215E+01
  7.72261074E+00  7.72261074E+00 -1.54452215E+01  7.72261074E+00  7.72261074E+00
 -1.54452215E+01  7.72261074E+00  7.72261074E+00 -1.54452215E+01  7.72261074E+00
  7.72261074E+00 -1.54452215E+01  7.72261074E+00  7.72261074E+00 -1.54452215E+01
  7.72261074E+00  7.72261074E+00 -1.54452215E+01  7.72261074E+00  7.72261074E+00
 -1.54452215E+01  7.72261074E+00  7.72261074E+00 -1.54452215E+01  7.72261074E+00
  7.72261074E+00 -1.54452215E+01  7.72261074E+00  7.72261074E+00 -1.54452215E+01
  7.72261074E+00  7.72261074E+00 -1.54452215E+01  7.72261074E+00  7.72261074E+00
 -1.54452215E+01  7.72261074E+00  7.72261074E+00 -1.54452215E+01  7.72261074E+00
  7.72261074E+00 -1.54452215E+01  7.72261074E+00  7.72261074E+00 -1.54452215E+01
  7.72261074E+00  7.72261074E+00 -1.54452215E+01  7.72261074E+00  7.72261074E+00
 -1.54452215E+01  7.72261074E+00  7.72261074E+00 -1.54452215E+01  7.72261074E+00
  7.72261074E+00 -1.54452215E+01  7.72261074E+00  7.72261074E+00 -1.54452215E+01
  7.72261074E+00  7.72261074E+00 -1.54452215E+01  7.72261074E+00  7.72261074E+00
 -1.54452215E+01  7.72261074E+00  7.72261074E+00 -1.54452215E+01  7.72261074E+00
  7.72261074E+00 -1.54452215E+01  7.72261074E+00  7.72261074E+00 -1.54452215E+01
  7.72261074E+00  7.72261074E+00 -1.54452215E+01  7.72261074E+00  7.72261074E+00
 -1.54452215E+01  7.72261074E+00  7.72261074E+00 -1.54452215E+01  7.72261074E+00
  7.72261074E+00 -1.54452215E+01  7.72261074E+00  7.72261074E+00 -1.54452215E+01
  7.72261074E+00  7.72261074E+00 -1.54452215E+01  7.72261074E+00  7.72261074E+00
 -1.54452215E+01  7.72261074E+00  7.72261074E+00 -1.54452215E+01  7.72261074E+00
  7.72261074E+00 -1.54452215E+01  7.72261074E+00  7.72261074E+00 -1.54452215E+01
  7.72261074E+00  7.72261074E+00 -1.54452215E+01  7.72261074E+00  7.72261074E+00
 -1.54452215E+01  7.72261074E+00  7.72261074E+00 -1.54452215E+01  7.72261074E+00
  7.72261074E+00 -1.54452215E+01  7.72261074E+00  7.72261074E+00 -1.54452215E+01
  7.72261074E+00  7.72261074E+00 -1.54452215E+01  7.72261074E+00  7.72261074E+00
 -1.54452215E+01  7.72261074E+00  7.72261074E+00 -1.54452215E+01  7.72261074E+00
  7.72261074E+00 -1.54452215E+01  7.72261074E+00  7.72261074E+00 -1.54452215E+01
  7.72261074E+00  7.72261074E+00 -1.54452215E+01  7.72261074E+00  7.72261074E+00
 -1.54452215E+01  7.72261074E+00  7.72261074E+00 -1.54452215E+01  7.72261074E+00
  7.72261074E+00 -1.54452215E+01  7.72261074E+00  7.72261074E+00 -1.54452215E+01
  7.72261074E+00  7.72261074E+00 -1.54452215E+01  7.72261074E+00  7.72261074E+00
 -1.54452215E+01  7.72261074E+00  7.72261074E+00 -1.54452215E+01  7.72261074E+00
  7.72261074E+00 -1.54452215E+01  7.72261074E+00  7.72261074E+00 -1.54452215E+01
  7.72261074E+00  7.72261074E+00 -1.54452215E+01  7.72261074E+00  7.72261074E+00
 -1.54452215E+01  7.72261074E+00  7.72261074E+00 -1.54452215E+01  7.72261074E+00
  7.72261074E+00 -1.54452215E+01  7.72261074E+00  7.72261074E+00 -1.54452215E+01
  7.72261074E+00  7.72261074E+00 -1.54452215E+01  7.72261074E+00  7.72261074E+00
 -1.54452215E+01  7.72261074E+00  7.72261074E+00 -1.54452215E+01  7.72261074E+00
  7.72261074E+00 -1.54452215E+01  7.72261074E+00  7.72261074E+00 -1.54452215E+01
  7.72261074E+00  7.72261074E+00 -1.54452215E+01  7.72261074E+00  7.72261074E+00
 -1.54452215E+01  7.72261074E+00  7.72261074E+00 -1.54452215E+01  7.72261074E+00
  7.72261074E+00 -1.54452215E+01  7.72261074E+00  7.72261074E+00 -1.54452215E+01
  7.72261074E+00  7.72261074E+00 -1.54452215E+01  7.72261074E+00  7.72261074E+00
 -1.54452215E+01  7.72261074E+00  7.72261074E+00 -1.54452215E+01  7.72261074E+00
  7.72261074E+00 -1.54452215E+01  7.72261074E+00  7.72261074E+00 -1.54452215E+01
  7.72261074E+00  7.72261074E+00 -1.54452215E+01  7.72261074E+00  7.72261074E+00
 -1.54452215E+01  7.72261074E+00  7.72261074E+00 -1.54452215E+01  7.72261074E+00
  7.72261074E+00 -1.54452215E+01  7.72261074E+00  7.72261074E+00 -1.54452215E+01
  7.72261074E+00  7.72261074E+00 -1.54452215E+01  7.72261074E+00  7.72261074E+00
 -1.54452215E+01  7.72261074E+00  7.72261074E+00 -1.54452215E+01  7.72261074E+00
  7.72261074E+00 -1.54452215E+01  7.72261074E+00  7.72261074E+00 -1.54452215E+01
  7.72261074E+00  7.72261074E+00 -1.54452215E+01  7.72261074E+00  7.72261074E+00
 -1.54452215E+01  7.72261074E+00  7.72261074E+00 -1.54452215E+01  7.72261074E+00
  7.72261074E+00 -1.54452215E+01  7.72261074E+00  7.72261074E+00 -1.54452215E+01
  7.72261074E+00  7.72261074E+00 -1.54452215E+01  7.72261074E+00  7.72261074E+00
 -1.54452215E+01  7.72261074E+00  7.72261074E+00 -1.54452215E+01  7.72261074E+00
  7.72261074E+00 -1.54452215E+01  7.72261074E+00  7.72261074E+00 -1.54452215E+01
  7.72261074E+00  7.72261074E+00 -1.54452215E+01  7.72261074E+00  7.72261074E+00
 -1.54452215E+01  7.72261074E+00  7.72261074E+00 -1.54452215E+01  7.72261074E+00
  7.72261074E+00 -1.54452215E+01  7.72261074E+00  7.72261074E+00 -1.54452215E+01
  7.72261074E+00  7.72261074E+00 -1.54452215E+01  7.72261074E+00  7.72261074E+00
 -1.54452215E+01  7.72261074E+00  7.72261074E+00 -1.54452215E+01  7.72261074E+00
  7.72261074E+00 -1.54452215E+01  7.72261074E+00  7.72261074E+00 -1.54452215E+01
  7.72261074E+00  7.72261074E+00 -1.54452215E+01  7.72261074E+00  7.72261074E+00
 -1.54452215E+01  7.72261074E+00  7.72261074E+00 -1.54452215E+01  7.72261074E+00
  7.72261074E+00 -1.54452215E+01  7.72261074E+00  7.72261074E+00 -1.54452215E+01
  7.72261074E+00  7.72261074E+00 -1.54452215E+01  7.72261074E+00  7.72261074E+00
 -1.54452215E+01  7.72261074E+00  7.72261074E+00 -1.54452215E+01  7.72261074E+00
  7.72261074E+00 -1.54452215E+01  7.72261074E+00  7.72261074E+00 -1.54452215E+01
  7.72261074E+00  7.72261074E+00 -1.54452215E+01  7.72261074E+00  7.72261074E+00
 -1.54452215E+01  7.72261074E+00  7.72261074E+00 -1.54452215E+01  7.72261074E+00
  7.72261074E+00 -1.54452215E+01  7.72261074E+00  7.72261074E+00 -1.54452215E+01
  7.72261074E+00  7.72261074E+00 -1.54452215E+01  7.72261074E+00  7.72261074E+00
 -1.54452215E+01  7.72261074E+00  7.72261074E+00 -1.54452215E+01  7.72261074E+00
  7.72261074E+00 -1.54452215E+01  7.72261074E+00  7.72261074E+00 -1.54452215E+01
  7.72261074E+00  7.72261074E+00 -1.54452215E+01  7.72261074E+00  7.72261074E+00
 -1.54452215E+01  7.72261074E+00  7.72261074E+00 -1.54452215E+01  7.72261074E+00
  7.72261074E+00 -1.54452215E+01  7.72261074E+00  7.72261074E+00 -1.54452215E+01
  7.72261074E+00  7.72261074E+00 -1.54452215E+01  7.72261074E+00  7.72261074E+00
 -1.54452215E+01  7.72261074E+00  7.72261074E+00 -1.54452215E+01  7.72261074E+00
  7.72261074E+00 -1.54452215E+01  7.72261074E+00  7.72261074E+00 -1.54452215E+01
  7.72261074E+00  7.72261074E+00 -1.54452215E+01  7.72261074E+00  7.72261074E+00
 -1.54452215E+01  7.72261074E+00  7.72261074E+00 -1.54452215E+01  7.72261074E+00
  7.72261074E+00 -1.54452215E+01  7.72261074E+00  7.72261074E+00 -1.54452215E+01
  7.72261074E+00  7.72261074E+00 -1.54452215E+01  7.72261074E+00  7.72261074E+00
 -1.54452215E+01  7.72261074E+00  7.72261074E+00 -1.54452215E+01  7.72261074E+00
  7.72261074E+00 -1.54452215E+01  7.72261074E+00  7.72261074E+00 -1.54452215E+01
  7.72261074E+00  7.72261074E+00 -1.54452215E+01  7.72261074E+00  7.72261074E+00
 -1.54452215E+01  7.72261074E+00  7.72261074E+00 -1.54452215E+01  7.72261074E+00
  7.72261074E+00 -1.54452215E+01  7.72261074E+00  7.72261074E+00 -1.54452215E+01
  7.72261074E+00  7.72261074E+00 -1.54452215E+01  7.72261074E+00  7.72261074E+00
 -1.54452215E+01  7.72261074E+00  7.72261074E+00 -1.54452215E+01  7.72261074E+00
  7.72261074E+00 -1.54452215E+01  7.72261074E+00  7.72261074E+00 -1.54452215E+01
  7.72261074E+00  7.72261074E+00 -1.54452215E+01  7.72261074E+00  7.72261074E+00
 -1.54452215E+01  7.72261074E+00  7.72261074E+00 -1.54452215E+01  7.72261074E+00
  7.72261074E+00 -1.54452215E+01  7.72261074E+00  7.72261074E+00 -1.54452215E+01
  7.72261074E+00  7.72261074E+00 -1.54452215E+01  7.72261074E+00  7.72261074E+00
 -1.54452215E+01  7.72261074E+00  7.72261074E+00 -1.54452215E+01  7.72261074E+00
  7.72261074E+00 -1.54452215E+01  7.72261074E+00  7.72261074E+00 -1.54452215E+01
  7.72261074E+00  7.72261074E+00 -1.54452215E+01  7.72261074E+00  7.72261074E+00
 -1.54452215E+01  7.72261074E+00  7.72261074E+00 -1.54452215E+01  7.72261074E+00
  7.72261074E+00 -1.54452215E+01  7.72261074E+00  7.72261074E+00 -1.54452215E+01
  7.72261074E+00  7.72261074E+00 -1.54452215E+01  7.72261074E+00  7.72261074E+00
 -1.54452215E+01  7.72261074E+00  7.72261074E+00 -1.54452215E+01  7.72261074E+00
  7.72261074E+00 -1.54452215E+01  7.72261074E+00  7.72261074E+00 -1.54452215E+01
  7.72261074E+00  7.72261074E+00 -1.54452215E+01  7.72261074E+00  7.72261074E+00
 -1.54452215E+01  7.72261074E+00  7.72261074E+00 -1.54452215E+01  7.72261074E+00
  7.72261074E+00 -1.54452215E+01  7.72261074E+00  7.72261074E+00 -1.54452215E+01
  7.72261074E+00  7.72261074E+00 -1.54452215E+01  7.72261074E+00  7.72261074E+00
 -1.54452215E+01  7.72261074E+00  7.72261074E+00 -1.54452215E+01  7.72261074E+00
  7.72261074E+00 -1.54452215E+01  7.72261074E+00  7.72261074E+00 -1.54452215E+01
  7.72261074E+00  7.72261074E+00 -1.54452215E+01  7.72261074E+00  7.72261074E+00
 -1.54452215E+01  7.72261074E+00  7.72261074E+00 -1.54452215E+01  7.72261074E+00
  7.72261074E+00 -1.54452215E+01  7.72261074E+00  7.72261074E+00 -1.54452215E+01
  7.72261074E+00  7.72261074E+00 -1.54452215E+01  7.72261074E+00  7.72261074E+00
 -1.54452215E+01  7.72261074E+00  7.72261074E+00 -1.54452215E+01  7.72261074E+00
  7.72261074E+00 -1.54452215E+01  7.72261074E+00  7.72261074E+00 -1.54452215E+01
  7.72261074E+00  7.72261074E+00 -1.54452215E+01  7.72261074E+00  7.72261074E+00
 -1.54452215E+01  7.72261074E+00  7.72261074E+00 -1.54452215E+01  7.72261074E+00
  7.72261074E+00 -1.54452215E+01  7.72261074E+00  7.72261074E+00 -1.54452215E+01
  7.72261074E+00  7.72261074E+00 -1.54452215E+01  7.72261074E+00  7.72261074E+00
 -1.54452215E+01  7.72261074E+00  7.72261074E+00 -1.54452215E+01  7.72261074E+00
  7.72261074E+00 -1.54452215E+01  7.72261074E+00  7.72261074E+00 -1.54452215E+01
  7.72261074E+00  7.72261074E+00 -1.54452215E+01  7.72261074E+00  7.72261074E+00
 -1.54452215E+01  7.72261074E+00  7.72261074E+00 -1.54452215E+01  7.72261074E+00
  7.72261074E+00 -1.54452215E+01  7.72261074E+00  7.72261074E+00 -1.54452215E+01
  7.72261074E+00  7.72261074E+00 -1.54452215E+01  7.72261074E+00  7.72261074E+00
 -1.54452215E+01  7.72261074E+00  7.72261074E+00 -1.54452215E+01  7.72261074E+00
  7.72261074E+00 -1.54452215E+01  7.72261074E+00  7.72261074E+00 -1.54452215E+01
  7.72261074E+00  7.72261074E+00 -1.54452215E+01  7.72261074E+00  7.72261074E+00
 -1.54452215E+01  7.72261074E+00  7.72261074E+00 -1.54452215E+01  7.72261074E+00
  7.72261074E+00 -1.54452215E+01  7.72261074E+00  7.72261074E+00 -1.54452215E+01
  7.72261074E+00  7.72261074E+00 -1.54452215E+01  7.72261074E+00  7.72261074E+00
 -1.54452215E+01  7.72261074E+00  7.72261074E+00 -1.54452215E+01  7.72261074E+00
  7.72261074E+00 -1.54452215E+01  7.72261074E+00  7.72261074E+00 -1.54452215E+01
  7.72261074E+00  7.72261074E+00 -1.54452215E+01  7.72261074E+00  7.72261074E+00
 -1.54452215E+01  7.72261074E+00  7.72261074E+00 -1.54452215E+01  7.72261074E+00
  7.72261074E+00 -1.54452215E+01  7.72261074E+00  7.72261074E+00 -1.54452215E+01
  7.72261074E+00  7.72261074E+00 -1.54452215E+01  7.72261074E+00  7.72261074E+00
 -1.54452215E+01  7.72261074E+00  7.72261074E+00 -1.54452215E+01  7.72261074E+00
  7.72261074E+00 -1.54452215E+01  7.72261074E+00  7.72261074E+00 -1.54452215E+01
  7.72261074E+00  7.72261074E+00 -1.54452215E+01  7.72261074E+00  7.72261074E+00
 -1.54452215E+01  7.72261074E+00  7.72261074E+00 -1.54452215E+01  7.72261074E+00
  7.72261074E+00 -1.54452215E+01  7.72261074E+00  7.72261074E+00 -1.54452215E+01
  7.72261074E+00  7.72261074E+00 -1.54452215E+01  7.72261074E+00  7.72261074E+00
 -1.54452215E+01  7.72261074E+00  7.72261074E+00 -1.54452215E+01  7.72261074E+00
  7.72261074E+00 -1.54452215E+01  7.72261074E+00  7.72261074E+00 -1.54452215E+01
  7.72261074E+00  7.72261074E+00 -1.54452215E+01  7.72261074E+00  7.72261074E+00
 -1.54452215E+01  7.72261074E+00  7.72261074E+00 -1.54452215E+01  7.72261074E+00
  7.72261074E+00 -1.54452215E+01  7.72261074E+00  7.72261074E+00 -1.54452215E+01
  7.72261074E+00  7.72261074E+00 -1.54452215E+01  7.72261074E+00  7.72261074E+00
 -1.54452215E+01  7.72261074E+00  7.72261074E+00 -1.54452215E+01  7.72261074E+00
  7.72261074E+00 -1.54452215E+01  7.72261074E+00  7.72261074E+00 -1.54452215E+01
  7.72261074E+00  7.72261074E+00 -1.54452215E+01  7.72261074E+00  7.72261074E+00
 -1.54452215E+01  7.72261074E+00  7.72261074E+00 -1.54452215E+01  7.72261074E+00
  7.72261074E+00 -1.54452215E+01  7.72261074E+00  7.72261074E+00 -1.54452215E+01
  7.72261074E+00  7.72261074E+00 -1.54452215E+01  7.72261074E+00  7.72261074E+00
 -1.54452215E+01  7.72261074E+00  7.72261074E+00 -1.54452215E+01  7.72261074E+00
  7.72261074E+00 -1.54452215E+01  7.72261074E+00  7.72261074E+00 -1.54452215E+01
  7.72261074E+00  7.72261074E+00 -1.54452215E+01  7.72261074E+00  7.72261074E+00
 -1.54452215E+01  7.72261074E+00  7.72261074E+00 -1.54452215E+01  7.72261074E+00
  7.72261074E+00 -1.54452215E+01  7.72261074E+00  7.72261074E+00 -1.54452215E+01
  7.72261074E+00  7.72261074E+00 -1.54452215E+01  7.72261074E+00  7.72261074E+00
 -1.54452215E+01  7.72261074E+00  7.72261074E+00 -1.54452215E+01  7.72261074E+00
  7.72261074E+00 -1.54452215E+01  7.72261074E+00  7.72261074E+00 -1.54452215E+01
  7.72261074E+00  7.72261074E+00 -1.54452215E+01  7.72261074E+00  7.72261074E+00
 -1.54452215E+01  7.72261074E+00  7.72261074E+00 -1.54452215E+01  7.72261074E+00
  7.72261074E+00 -1.54452215E+01  7.72261074E+00  7.72261074E+00 -1.54452215E+01
  7.72261074E+00  7.72261074E+00 -1.54452215E+01  7.72261074E+00  7.72261074E+00
 -1.54452215E+01  7.72261074E+00  7.72261074E+00 -1.54452215E+01  7.72261074E+00
  7.72261074E+00 -1.54452215E+01  7.72261074E+00  7.72261074E+00 -1.54452215E+01
  7.72261074E+00  7.72261074E+00 -1.54452215E+01  7.72261074E+00  7.72261074E+00
 -1.54452215E+01  7.72261074E+00  7.72261074E+00 -1.54452215E+01  7.72261074E+00
  7.72261074E+00 -1.54452215E+01  7.72261074E+00  7.72261074E+00 -1.54452215E+01
  7.72261074E+00  7.72261074E+00 -1.54452215E+01  7.72261074E+00  7.72261074E+00
 -1.54452215E+01  7.72261074E+00  7.72261074E+00 -1.54452215E+01  7.72261074E+00
  7.72261074E+00 -1.54452215E+01  7.72261074E+00  7.72261074E+00 -1.54452215E+01
  7.72261074E+00  7.72261074E+00 -1.54452215E+01  7.72261074E+00  7.72261074E+00
 -1.54452215E+01  7.72261074E+00  7.72261074E+00 -1.54452215E+01  7.72261074E+00
  7.72261074E+00 -1.54452215E+01  7.72261074E+00  7.72261074E+00 -1.54452215E+01
  7.72261074E+00  7.72261074E+00 -1.54452215E+01  7.72261074E+00  7.72261074E+00
 -1.54452215E+01  7.72261074E+00  7.72261074E+00 -1.54452215E+01  7.72261074E+00
  7.72261074E+00 -1.54452215E+01  7.72261074E+00  7.72261074E+00 -1.54452215E+01
  7.72261074E+00  7.72261074E+00 -1.54452215E+01  7.72261074E+00  7.72261074E+00
 -1.54452215E+01  7.72261074E+00  7.72261074E+00 -1.54452215E+01  7.72261074E+00
  7.72261074E+00 -1.54452215E+01  7.72261074E+00  7.72261074E+00 -1.54452215E+01
  7.72261074E+00  7.72261074E+00 -1.54452215E+01  7.72261074E+00  7.72261074E+00
 -1.54452215E+01  7.72261074E+00  7.72261074E+00 -1.54452215E+01  7.72261074E+00
  7.72261074E+00 -1.54452215E+01  7.72261074E+00  7.72261074E+00 -1.54452215E+01
  7.72261074E+00  7.72261074E+00 -1.54452215E+01  7.72261074E+00  7.72261074E+00
 -1.54452215E+01  7.72261074E+00  7.72261074E+00 -1.54452215E+01  7.72261074E+00
  7.72261074E+00 -1.54452215E+01  7.72261074E+00  7.72261074E+00 -1.54452215E+01
  7.72261074E+00  7.72261074E+00 -1.54452215E+01  7.72261074E+00  7.72261074E+00
 -1.54452215E+01  7.72261074E+00  7.72261074E+00 -1.54452215E+01  7.72261074E+00
  7.72261074E+00 -1.54452215E+01  7.72261074E+00  7.72261074E+00 -1.54452215E+01
  7.72261074E+00  7.72261074E+00 -1.54452215E+01  7.72261074E+00  7.72261074E+00
 -1.54452215E+01  7.72261074E+00  7.72261074E+00 -1.54452215E+01  7.72261074E+00
  7.72261074E+00 -1.54452215E+01  7.72261074E+00  7.72261074E+00 -1.54452215E+01
  7.72261074E+00  7.72261074E+00 -1.54452215E+01  7.72261074E+00  7.72261074E+00
 -1.54452215E+01  7.72261074E+00  7.72261074E+00 -1.54452215E+01  7.72261074E+00
  7.72261074E+00 -1.54452215E+01  7.72261074E+00  7.72261074E+00 -1.54452215E+01
  7.72261074E+00  7.72261074E+00 -1.54452215E+01  7.72261074E+00  7.72261074E+00
 -1.54452215E+01  7.72261074E+00  7.72261074E+00 -1.54452215E+01  7.72261074E+00
  7.72261074E+00 -1.54452215E+01  7.72261074E+00  7.72261074E+00 -1.54452215E+01
  7.72261074E+00  7.72261074E+00 -1.54452215E+01  7.72261074E+00  7.72261074E+00
 -1.54452215E+01  7.72261074E+00  7.72261074E+00 -1.54452215E+01  7.72261074E+00
  7.72261074E+00 -1.54452215E+01  7.72261074E+00  7.72261074E+00 -1.54452215E+01
  7.72261074E+00  7.72261074E+00 -1.54452215E+01  7.72261074E+00  7.72261074E+00
 -1.54452215E+01  7.72261074E+00  7.72261074E+00 -1.54452215E+01  7.72261074E+00
  7.72261074E+00 -1.54452215E+01  7.72261074E+00  7.72261074E+00 -1.54452215E+01
  7.72261074E+00  7.72261074E+00 -1.54452215E+01  7.72261074E+00  7.72261074E+00
 -1.54452215E+01  7.72261074E+00  7.72261074E+00 -1.54452215E+01  7.72261074E+00
  7.72261074E+00 -1.54452215E+01  7.72261074E+00  7.72261074E+00 -1.54452215E+01
  7.72261074E+00  7.72261074E+00 -1.54452215E+01  7.72261074E+00  7.72261074E+00
 -1.54452215E+01  7.72261074E+00  7.72261074E+00 -1.54452215E+01  7.72261074E+00
  7.72261074E+00 -1.54452215E+01  7.72261074E+00  7.72261074E+00 -1.54452215E+01
  7.72261074E+00  7.72261074E+00 -1.54452215E+01  7.72261074E+00  7.72261074E+00
 -1.54452215E+01  7.72261074E+00  7.72261074E+00 -1.54452215E+01  7.72261074E+00
  7.72261074E+00 -1.54452215E+01  7.72261074E+00  7.72261074E+00 -1.54452215E+01
  7.72261074E+00  7.72261074E+00 -1.54452215E+01  7.72261074E+00  7.72261074E+00
 -1.54452215E+01  7.72261074E+00  7.72261074E+00 -1.54452215E+01  7.72261074E+00
  7.72261074E+00 -1.54452215E+01  7.72261074E+00  7.72261074E+00 -1.54452215E+01
  7.72261074E+00  7.72261074E+00 -1.54452215E+01  7.72261074E+00  7.72261074E+00
 -1.54452215E+01  7.72261074E+00  7.72261074E+00 -1.54452215E+01  7.72261074E+00
  7.72261074E+00 -1.54452215E+01  7.72261074E+00  7.72261074E+00 -1.54452215E+01
  7.72261074E+00  7.72261074E+00 -1.54452215E+01  7.72261074E+00  7.72261074E+00
 -1.54452215E+01  7.72261074E+00  7.72261074E+00 -1.54452215E+01  7.72261074E+00
  7.72261074E+00 -1.54452215E+01  7.72261074E+00  7.72261074E+00 -1.54452215E+01
  7.72261074E+00  7.72261074E+00 -1.54452215E+01  7.72261074E+00  7.72261074E+00
 -1.54452215E+01  7.72261074E+00  7.72261074E+00 -1.54452215E+01  7.72261074E+00
  7.72261074E+00 -1.54452215E+01  7.72261074E+00  7.72261074E+00 -1.54452215E+01
  7.72261074E+00  7.72261074E+00 -1.54452215E+01  7.72261074E+00  7.72261074E+00
 -1.54452215E+01  7.72261074E+00  7.72261074E+00 -1.54452215E+01  7.72261074E+00
  7.72261074E+00 -1.54452215E+01  7.72261074E+00  7.72261074E+00 -1.54452215E+01
  7.72261074E+00  7.72261074E+00 -1.54452215E+01  7.72261074E+00  7.72261074E+00
 -1.54452215E+01  7.72261074E+00  7.72261074E+00 -1.54452215E+01  7.72261074E+00
  7.72261074E+00 -1.54452215E+01  7.72261074E+00  7.72261074E+00 -1.54452215E+01
  7.72261074E+00  7.72261074E+00 -1.54452215E+01  7.72261074E+00  7.72261074E+00
 -1.54452215E+01  7.72261074E+00  7.72261074E+00 -1.54452215E+01  7.72261074E+00
  7.72261074E+00 -1.54452215E+01  7.72261074E+00  7.72261074E+00 -1.54452215E+01
  7.72261074E+00  7.72261074E+00 -1.54452215E+01  7.72261074E+00  7.72261074E+00
 -1.54452215E+01  7.72261074E+00  7.72261074E+00 -1.54452215E+01  7.72261074E+00
  7.72261074E+00 -1.54452215E+01  7.72261074E+00  7.72261074E+00 -1.54452215E+01
  7.72261074E+00  7.72261074E+00 -1.54452215E+01  7.72261074E+00  7.72261074E+00
 -1.54452215E+01  7.72261074E+00  7.72261074E+00 -1.54452215E+01  7.72261074E+00
  7.72261074E+00 -1.54452215E+01  7.72261074E+00  7.72261074E+00 -1.54452215E+01
  7.72261074E+00  7.72261074E+00 -1.54452215E+01  7.72261074E+00  7.72261074E+00
 -1.54452215E+01  7.72261074E+00  7.72261074E+00 -1.54452215E+01  7.72261074E+00
  7.72261074E+00 -1.54452215E+01  7.72261074E+00  7.72261074E+00 -1.54452215E+01
  7.72261074E+00  7.72261074E+00 -1.54452215E+01  7.72261074E+00  7.72261074E+00
 -1.54452215E+01  7.72261074E+00  7.72261074E+00 -1.54452215E+01  7.72261074E+00
  7.72261074E+00 -1.54452215E+01  7.72261074E+00  7.72261074E+00 -1.54452215E+01
  7.72261074E+00  7.72261074E+00 -1.54452215E+01  7.72261074E+00  7.72261074E+00
 -1.54452215E+01  7.72261074E+00  7.72261074E+00 -1.54452215E+01  7.72261074E+00
  7.72261074E+00 -1.54452215E+01  7.72261074E+00  7.72261074E+00 -1.54452215E+01
  7.72261074E+00  7.72261074E+00 -1.54452215E+01  7.72261074E+00  7.72261074E+00
 -1.54452215E+01  7.72261074E+00  7.72261074E+00 -1.54452215E+01  7.72261074E+00
  7.72261074E+00 -1.54452215E+01  7.72261074E+00  7.72261074E+00 -1.54452215E+01
  7.72261074E+00  7.72261074E+00 -1.54452215E+01  7.72261074E+00  7.72261074E+00
 -1.54452215E+01  7.72261074E+00  7.72261074E+00 -1.54452215E+01  7.72261074E+00
  7.72261074E+00 -1.54452215E+01  7.72261074E+00  7.72261074E+00 -1.54452215E+01
  7.72261074E+00  7.72261074E+00 -1.54452215E+01  7.72261074E+00  7.72261074E+00
 -1.54452215E+01  7.72261074E+00  7.72261074E+00 -1.54452215E+01  7.72261074E+00
  7.72261074E+00 -1.54452215E+01  7.72261074E+00  7.72261074E+00 -1.54452215E+01
  7.72261074E+00  7.72261074E+00 -1.54452215E+01  7.72261074E+00  7.72261074E+00
 -1.54452215E+01  7.72261074E+00  7.72261074E+00 -1.54452215E+01  7.72261074E+00
  7.72261074E+00 -1.54452215E+01  7.72261074E+00  7.72261074E+00 -1.54452215E+01
  7.72261074E+00  7.72261074E+00 -1.54452215E+01  7.72261074E+00  7.72261074E+00
 -1.54452215E+01  7.72261074E+00  7.72261074E+00 -1.54452215E+01  7.72261074E+00
  7.72261074E+00 -1.54452215E+01  7.72261074E+00  7.72261074E+00 -1.54452215E+01
  7.72261074E+00  7.72261074E+00 -1.54452215E+01  7.72261074E+00  7.72261074E+00
 -1.54452215E+01  7.72261074E+00  7.72261074E+00 -1.54452215E+01  7.72261074E+00
  7.72261074E+00 -1.54452215E+01  7.72261074E+00  7.72261074E+00 -1.54452215E+01
  7.72261074E+00  7.72261074E+00 -1.54452215E+01  7.72261074E+00  7.72261074E+00
 -1.54452215E+01  7.72261074E+00  7.72261074E+00 -1.54452215E+01  7.72261074E+00
  7.72261074E+00 -1.54452215E+01  7.72261074E+00  7.72261074E+00 -1.54452215E+01
  7.72261074E+00  7.72261074E+00 -1.54452215E+01  7.72261074E+00  7.72261074E+00
 -1.54452215E+01  7.72261074E+00  7.72261074E+00 -1.54452215E+01  7.72261074E+00
  7.72261074E+00 -1.54452215E+01  7.72261074E+00  7.72261074E+00 -1.54452215E+01
  7.72261074E+00  7.72261074E+00 -1.54452215E+01  7.72261074E+00  7.72261074E+00
 -1.54452215E+01  7.72261074E+00  7.72261074E+00 -1.54452215E+01  7.72261074E+00
  7.72261074E+00 -1.54452215E+01  7.72261074E+00  7.72261074E+00 -1.54452215E+01
  7.72261074E+00  7.72261074E+00 -1.54452215E+01  7.72261074E+00  7.72261074E+00
 -1.54452215E+01  7.72261074E+00  7.72261074E+00 -1.54452215E+01  7.72261074E+00
  7.72261074E+00 -1.54452215E+01  7.72261074E+00  7.72261074E+00 -1.54452215E+01
  7.72261074E+00  7.72261074E+00 -1.54452215E+01  7.72261074E+00  7.72261074E+00
 -1.54452215E+01  7.72261074E+00  7.72261074E+00 -1.54452215E+01  7.72261074E+00
  7.72261074E+00 -1.54452215E+01  7.72261074E+00  7.72261074E+00 -1.54452215E+01
  7.72261074E+00  7.72261074E+00 -1.54452215E+01  7.72261074E+00  7.72261074E+00
 -1.54452215E+01  7.72261074E+00  7.72261074E+00 -1.54452215E+01  7.72261074E+00
  7.72261074E+00 -1.54452215E+01  7.72261074E+00  7.72261074E+00 -1.54452215E+01
  7.72261074E+00  7.72261074E+00 -1.54452215E+01  7.72261074E+00  7.72261074E+00
 -1.54452215E+01  7.72261074E+00  7.72261074E+00 -1.54452215E+01  7.72261074E+00
  7.72261074E+00 -1.54452215E+01  7.72261074E+00  7.72261074E+00 -1.54452215E+01
  7.72261074E+00  7.72261074E+00 -1.54452215E+01  7.72261074E+00  7.72261074E+00
 -1.54452215E+01  7.72261074E+00  7.72261074E+00 -1.54452215E+01  7.72261074E+00
  7.72261074E+00 -1.54452215E+01  7.72261074E+00  7.72261074E+00 -1.54452215E+01
  7.72261074E+00  7.72261074E+00 -1.54452215E+01  7.72261074E+00  7.72261074E+00
 -1.54452215E+01  7.72261074E+00  7.72261074E+00 -1.54452215E+01  7.72261074E+00
  7.72261074E+00 -1.54452215E+01  7.72261074E+00  7.72261074E+00 -1.54452215E+01
  7.72261074E+00  7.72261074E+00 -1.54452215E+01  7.72261074E+00  7.72261074E+00
 -1.54452215E+01  7.72261074E+00  7.72261074E+00 -1.54452215E+01  7.72261074E+00
  7.72261074E+00 -1.54452215E+01  7.72261074E+00  7.72261074E+00 -1.54452215E+01
  7.72261074E+00  7.72261074E+00 -1.54452215E+01  7.72261074E+00  7.72261074E+00
 -1.54452215E+01  7.72261074E+00  7.72261074E+00 -1.54452215E+01  7.72261074E+00
  7.72261074E+00 -1.54452215E+01  7.72261074E+00  7.72261074E+00 -1.54452215E+01
  7.72261074E+00  7.72261074E+00 -1.54452215E+01  7.72261074E+00  7.72261074E+00
 -1.54452215E+01  7.72261074E+00  7.72261074E+00 -1.54452215E+01  7.72261074E+00
  7.72261074E+00 -1.54452215E+01  7.72261074E+00  7.72261074E+00 -1.54452215E+01
  7.72261074E+00  7.72261074E+00 -1.54452215E+01  7.72261074E+00  7.72261074E+00
 -1.54452215E+01  7.72261074E+00  7.72261074E+00 -1.54452215E+01  7.72261074E+00
  7.72261074E+00 -1.54452215E+01  7.72261074E+00  7.72261074E+00 -1.54452215E+01
  7.72261074E+00  7.72261074E+00 -1.54452215E+01  7.72261074E+00  7.72261074E+00
 -1.54452215E+01  7.72261074E+00  7.72261074E+00 -1.54452215E+01  7.72261074E+00
  7.72261074E+00 -1.54452215E+01  7.72261074E+00  7.72261074E+00 -1.54452215E+01
  7.72261074E+00  7.72261074E+00 -1.54452215E+01  7.72261074E+00  7.72261074E+00
 -1.54452215E+01  7.72261074E+00  7.72261074E+00 -1.54452215E+01  7.72261074E+00
  7.72261074E+00 -1.54452215E+01  7.72261074E+00  7.72261074E+00 -1.54452215E+01
  7.72261074E+00  7.72261074E+00 -1.54452215E+01  7.72261074E+00  7.72261074E+00
 -1.54452215E+01  7.72261074E+00  7.72261074E+00 -1.54452215E+01  7.72261074E+00
  7.72261074E+00 -1.54452215E+01  7.72261074E+00  7.72261074E+00 -1.54452215E+01
  7.72261074E+00  7.72261074E+00 -1.54452215E+01  7.72261074E+00  7.72261074E+00
 -1.54452215E+01  7.72261074E+00  7.72261074E+00 -1.54452215E+01  7.72261074E+00
  7.72261074E+00 -1.54452215E+01  7.72261074E+00  7.72261074E+00 -1.54452215E+01
  7.72261074E+00  7.72261074E+00 -1.54452215E+01  7.72261074E+00  7.72261074E+00
 -1.54452215E+01  7.72261074E+00  7.72261074E+00 -1.54452215E+01  7.72261074E+00
  7.72261074E+00 -1.54452215E+01  7.72261074E+00  7.72261074E+00 -1.54452215E+01
  7.72261074E+00  7.72261074E+00 -1.54452215E+01  7.72261074E+00  7.72261074E+00
 -1.54452215E+01  7.72261074E+00  7.72261074E+00 -1.54452215E+01  7.72261074E+00
  7.72261074E+00 -1.54452215E+01  7.72261074E+00  7.72261074E+00 -1.54452215E+01
  7.72261074E+00  7.72261074E+00 -1.54452215E+01  7.72261074E+00  7.72261074E+00
 -1.54452215E+01  7.72261074E+00  7.72261074E+00 -1.54452215E+01  7.72261074E+00
  7.72261074E+00 -1.54452215E+01  7.72261074E+00  7.72261074E+00 -1.54452215E+01
  7.72261074E+00  7.72261074E+00 -1.54452215E+01  7.72261074E+00  7.72261074E+00
 -1.54452215E+01  7.72261074E+00  7.72261074E+00 -1.54452215E+01  7.72261074E+00
  7.72261074E+00 -1.54452215E+01  7.72261074E+00  7.72261074E+00 -1.54452215E+01
  7.72261074E+00  7.72261074E+00 -1.54452215E+01  7.72261074E+00  7.72261074E+00
 -1.54452215E+01  7.72261074E+00  7.72261074E+00 -1.54452215E+01  7.72261074E+00
  7.72261074E+00 -1.54452215E+01  7.72261074E+00  7.72261074E+00 -1.54452215E+01
  7.72261074E+00  7.72261074E+00 -1.54452215E+01  7.72261074E+00  7.72261074E+00
 -1.54452215E+01  7.72261074E+00  7.72261074E+00 -1.54452215E+01  7.72261074E+00
  7.72261074E+00 -1.54452215E+01  7.72261074E+00  7.72261074E+00 -1.54452215E+01
  7.72261074E+00  7.72261074E+00 -1.54452215E+01  7.72261074E+00  7.72261074E+00
 -1.54452215E+01  7.72261074E+00  7.72261074E+00 -1.54452215E+01  7.72261074E+00
  7.72261074E+00 -1.54452215E+01  7.72261074E+00  7.72261074E+00 -1.54452215E+01
  7.72261074E+00  7.72261074E+00 -1.54452215E+01  7.72261074E+00  7.72261074E+00
 -1.54452215E+01  7.72261074E+00  7.72261074E+00 -1.54452215E+01  7.72261074E+00
  7.72261074E+00 -1.54452215E+01  7.72261074E+00  7.72261074E+00 -1.54452215E+01
  7.72261074E+00  7.72261074E+00 -1.54452215E+01  7.72261074E+00  7.72261074E+00
 -1.54452215E+01  7.72261074E+00  7.72261074E+00 -1.54452215E+01  7.72261074E+00
  7.72261074E+00 -1.54452215E+01  7.72261074E+00  7.72261074E+00 -1.54452215E+01
  7.72261074E+00  7.72261074E+00 -1.54452215E+01  7.72261074E+00  7.72261074E+00
 -1.54452215E+01  7.72261074E+00  7.72261074E+00 -1.54452215E+01  7.72261074E+00
  7.72261074E+00 -1.54452215E+01  7.72261074E+00  7.72261074E+00 -1.54452215E+01
  7.72261074E+00  7.72261074E+00 -1.54452215E+01  7.72261074E+00  7.72261074E+00
 -1.54452215E+01  7.72261074E+00  7.72261074E+00 -1.54452215E+01  7.72261074E+00
  7.72261074E+00 -1.54452215E+01  7.72261074E+00  7.72261074E+00 -1.54452215E+01
  7.72261074E+00  7.72261074E+00 -1.54452215E+01  7.72261074E+00  7.72261074E+00
 -1.54452215E+01  7.72261074E+00  7.72261074E+00 -1.54452215E+01  7.72261074E+00
  7.72261074E+00 -1.54452215E+01  7.72261074E+00  7.72261074E+00 -1.54452215E+01
  7.72261074E+00  7.72261074E+00 -1.54452215E+01  7.72261074E+00  7.72261074E+00
 -1.54452215E+01  7.72261074E+00  7.72261074E+00 -1.54452215E+01  7.72261074E+00
  7.72261074E+00 -1.54452215E+01  7.72261074E+00  7.72261074E+00 -1.54452215E+01
  7.72261074E+00  7.72261074E+00 -1.54452215E+01  7.72261074E+00  7.72261074E+00
 -1.54452215E+01  7.72261074E+00  7.72261074E+00 -1.54452215E+01  7.72261074E+00
  7.72261074E+00 -1.54452215E+01  7.72261074E+00  7.72261074E+00 -1.54452215E+01
  7.72261074E+00  7.72261074E+00 -1.54452215E+01  7.72261074E+00  7.72261074E+00
 -1.54452215E+01  7.72261074E+00  7.72261074E+00 -1.54452215E+01  7.72261074E+00
  7.72261074E+00 -1.54452215E+01  7.72261074E+00  7.72261074E+00 -1.54452215E+01
  7.72261074E+00  7.72261074E+00 -1.54452215E+01  7.72261074E+00  7.72261074E+00
 -1.54452215E+01  7.72261074E+00  7.72261074E+00 -1.54452215E+01  7.72261074E+00
  7.72261074E+00 -1.54452215E+01  7.72261074E+00  7.72261074E+00 -1.54452215E+01
  7.72261074E+00  7.72261074E+00 -1.54452215E+01  7.72261074E+00  7.72261074E+00
 -1.54452215E+01  7.72261074E+00  7.72261074E+00 -1.54452215E+01  7.72261074E+00
  7.72261074E+00 -1.54452215E+01  7.72261074E+00  7.72261074E+00 -1.54452215E+01
  7.72261074E+00  7.72261074E+00 -1.54452215E+01  7.72261074E+00  7.72261074E+00
 -1.54452215E+01  7.72261074E+00  7.72261074E+00 -1.54452215E+01  7.72261074E+00
  7.72261074E+00 -1.54452215E+01  7.72261074E+00  7.72261074E+00 -1.54452215E+01
  7.72261074E+00  7.72261074E+00 -1.54452215E+01  7.72261074E+00  7.72261074E+00
 -1.54452215E+01  7.72261074E+00  7.72261074E+00 -1.54452215E+01  7.72261074E+00
  7.72261074E+00 -1.54452215E+01  7.72261074E+00  7.72261074E+00 -1.54452215E+01
  7.72261074E+00  7.72261074E+00 -1.54452215E+01  7.72261074E+00  7.72261074E+00
 -1.54452215E+01  7.72261074E+00  7.72261074E+00 -1.54452215E+01  7.72261074E+00
  7.72261074E+00 -1.54452215E+01  7.72261074E+00  7.72261074E+00 -1.54452215E+01
  7.72261074E+00  7.72261074E+00 -1.54452215E+01  7.72261074E+00  7.72261074E+00
 -1.54452215E+01  7.72261074E+00  7.72261074E+00 -1.54452215E+01  7.72261074E+00
  7.72261074E+00 -1.54452215E+01  7.72261074E+00  7.72261074E+00 -1.54452215E+01
  7.72261074E+00  7.72261074E+00 -1.54452215E+01  7.72261074E+00  7.72261074E+00
 -1.54452215E+01  7.72261074E+00  7.72261074E+00 -1.54452215E+01  7.72261074E+00
  7.72261074E+00 -1.54452215E+01  7.72261074E+00  7.72261074E+00 -1.54452215E+01
  7.72261074E+00  7.72261074E+00 -1.54452215E+01  7.72261074E+00  7.72261074E+00
 -1.54452215E+01  7.72261074E+00  7.72261074E+00 -1.54452215E+01  7.72261074E+00
  7.72261074E+00 -1.54452215E+01  7.72261074E+00  7.72261074E+00 -1.54452215E+01
  7.72261074E+00  7.72261074E+00 -1.54452215E+01  7.72261074E+00  7.72261074E+00
 -1.54452215E+01  7.72261074E+00  7.72261074E+00 -1.54452215E+01  7.72261074E+00
  7.72261074E+00 -1.54452215E+01  7.72261074E+00  7.72261074E+00 -1.54452215E+01
  7.72261074E+00  7.72261074E+00 -1.54452215E+01  7.72261074E+00  7.72261074E+00
 -1.54452215E+01  7.72261074E+00  7.72261074E+00 -1.54452215E+01  7.72261074E+00
  7.72261074E+00 -1.54452215E+01  7.72261074E+00  7.72261074E+00 -1.54452215E+01
  7.72261074E+00  7.72261074E+00 -1.54452215E+01  7.72261074E+00  7.72261074E+00
 -1.54452215E+01  7.72261074E+00  7.72261074E+00 -1.54452215E+01  7.72261074E+00
  7.72261074E+00 -1.54452215E+01  7.72261074E+00  7.72261074E+00 -1.54452215E+01
  7.72261074E+00  7.72261074E+00 -1.54452215E+01  7.72261074E+00  7.72261074E+00
 -1.54452215E+01  7.72261074E+00  7.72261074E+00 -1.54452215E+01  7.72261074E+00
  7.72261074E+00 -1.54452215E+01  7.72261074E+00  7.72261074E+00 -1.54452215E+01
  7.72261074E+00  7.72261074E+00 -1.54452215E+01  7.72261074E+00  7.72261074E+00
 -1.54452215E+01  7.72261074E+00  7.72261074E+00 -1.54452215E+01  7.72261074E+00
  7.72261074E+00 -1.54452215E+01  7.72261074E+00  7.72261074E+00 -1.54452215E+01
  7.72261074E+00  7.72261074E+00 -1.54452215E+01  7.72261074E+00  7.72261074E+00
 -1.54452215E+01  7.72261074E+00  7.72261074E+00 -1.54452215E+01  7.72261074E+00
  7.72261074E+00 -1.54452215E+01  7.72261074E+00  7.72261074E+00 -1.54452215E+01
  7.72261074E+00  7.72261074E+00 -1.54452215E+01  7.72261074E+00  7.72261074E+00
 -1.54452215E+01  7.72261074E+00  7.72261074E+00 -1.54452215E+01  7.72261074E+00
  7.72261074E+00 -1.54452215E+01  7.72261074E+00  7.72261074E+00 -1.54452215E+01
  7.72261074E+00  7.72261074E+00 -1.54452215E+01  7.72261074E+00  7.72261074E+00
 -1.54452215E+01  7.72261074E+00  7.72261074E+00 -1.54452215E+01  7.72261074E+00
  7.72261074E+00 -1.54452215E+01  7.72261074E+00  7.72261074E+00 -1.54452215E+01
  7.72261074E+00  7.72261074E+00 -1.54452215E+01  7.72261074E+00  7.72261074E+00
 -1.54452215E+01  7.72261074E+00  7.72261074E+00 -1.54452215E+01  7.72261074E+00
  7.72261074E+00 -1.54452215E+01  7.72261074E+00  7.72261074E+00 -1.54452215E+01
  7.72261074E+00  7.72261074E+00 -1.54452215E+01  7.72261074E+00  7.72261074E+00
 -1.54452215E+01  7.72261074E+00  7.72261074E+00 -1.54452215E+01  7.72261074E+00
  7.72261074E+00 -1.54452215E+01  7.72261074E+00  7.72261074E+00 -1.54452215E+01
  7.72261074E+00  7.72261074E+00 -1.54452215E+01  7.72261074E+00  7.72261074E+00
 -1.54452215E+01  7.72261074E+00  7.72261074E+00 -1.54452215E+01  7.72261074E+00
  7.72261074E+00 -1.54452215E+01  7.72261074E+00  7.72261074E+00 -1.54452215E+01
  7.72261074E+00  7.72261074E+00 -1.54452215E+01  7.72261074E+00  7.72261074E+00
 -1.54452215E+01  7.72261074E+00  7.72261074E+00 -1.54452215E+01  7.72261074E+00
  7.72261074E+00 -1.54452215E+01  7.72261074E+00  7.72261074E+00 -1.54452215E+01
  7.72261074E+00  7.72261074E+00 -1.54452215E+01  7.72261074E+00  7.72261074E+00
 -1.54452215E+01  7.72261074E+00  7.72261074E+00 -1.54452215E+01  7.72261074E+00
  7.72261074E+00 -1.54452215E+01  7.72261074E+00  7.72261074E+00 -1.54452215E+01
  7.72261074E+00  7.72261074E+00 -1.54452215E+01  7.72261074E+00  7.72261074E+00
 -1.54452215E+01  7.72261074E+00  7.72261074E+00 -1.54452215E+01  7.72261074E+00
  7.72261074E+00 -1.54452215E+01  7.72261074E+00  7.72261074E+00 -1.54452215E+01
  7.72261074E+00  7.72261074E+00 -1.54452215E+01  7.72261074E+00  7.72261074E+00
 -1.54452215E+01  7.72261074E+00  7.72261074E+00 -1.54452215E+01  7.72261074E+00
  7.72261074E+00 -1.54452215E+01  7.72261074E+00  7.72261074E+00 -1.54452215E+01
  7.72261074E+00  7.72261074E+00 -1.54452215E+01  7.72261074E+00  7.72261074E+00
 -1.54452215E+01  7.72261074E+00  7.72261074E+00 -1.54452215E+01  7.72261074E+00
  7.72261074E+00 -1.54452215E+01  7.72261074E+00  7.72261074E+00 -1.54452215E+01
  7.72261074E+00  7.72261074E+00 -1.54452215E+01  7.72261074E+00  7.72261074E+00
 -1.54452215E+01  7.72261074E+00  7.72261074E+00 -1.54452215E+01  7.72261074E+00
  7.72261074E+00 -1.54452215E+01  7.72261074E+00  7.72261074E+00 -1.54452215E+01
  7.72261074E+00  7.72261074E+00 -1.54452215E+01  7.72261074E+00  7.72261074E+00
 -1.54452215E+01  7.72261074E+00  7.72261074E+00 -1.54452215E+01  7.72261074E+00
  7.72261074E+00 -1.54452215E+01  7.72261074E+00  7.72261074E+00 -1.54452215E+01
  7.72261074E+00  7.72261074E+00 -1.54452215E+01  7.72261074E+00  7.72261074E+00
 -1.54452215E+01  7.72261074E+00  7.72261074E+00 -1.54452215E+01  7.72261074E+00
  7.72261074E+00 -1.54452215E+01  7.72261074E+00  7.72261074E+00 -1.54452215E+01
  7.72261074E+00  7.72261074E+00 -1.54452215E+01  7.72261074E+00  7.72261074E+00
 -1.54452215E+01  7.72261074E+00  7.72261074E+00 -1.54452215E+01  7.72261074E+00
  7.72261074E+00 -1.54452215E+01  7.72261074E+00  7.72261074E+00 -1.54452215E+01
  7.72261074E+00  7.72261074E+00 -1.54452215E+01  7.72261074E+00  7.72261074E+00
 -1.54452215E+01  7.72261074E+00  7.72261074E+00 -1.54452215E+01  7.72261074E+00
  7.72261074E+00 -1.54452215E+01  7.72261074E+00  7.72261074E+00 -1.54452215E+01
  7.72261074E+00  7.72261074E+00 -1.54452215E+01  7.72261074E+00  7.72261074E+00
 -1.54452215E+01  7.72261074E+00  7.72261074E+00 -1.54452215E+01  7.72261074E+00
  7.72261074E+00 -1.54452215E+01  7.72261074E+00  7.72261074E+00 -1.54452215E+01
  7.72261074E+00  7.72261074E+00 -1.54452215E+01  7.72261074E+00  7.72261074E+00
 -1.54452215E+01  7.72261074E+00  7.72261074E+00 -1.54452215E+01  7.72261074E+00
  7.72261074E+00 -1.54452215E+01  7.72261074E+00  7.72261074E+00 -1.54452215E+01
  7.72261074E+00  7.72261074E+00 -1.54452215E+01  7.72261074E+00  7.72261074E+00
 -1.54452215E+01  7.72261074E+00  7.72261074E+00 -1.54452215E+01  7.72261074E+00
  7.72261074E+00 -1.54452215E+01  7.72261074E+00  7.72261074E+00 -1.54452215E+01
  7.72261074E+00  7.72261074E+00 -1.54452215E+01  7.72261074E+00  7.72261074E+00
 -1.54452215E+01  7.72261074E+00  7.72261074E+00 -1.54452215E+01  7.72261074E+00
  7.72261074E+00 -1.54452215E+01  7.72261074E+00  7.72261074E+00 -1.54452215E+01
  7.72261074E+00  7.72261074E+00 -1.54452215E+01  7.72261074E+00  7.72261074E+00
 -1.54452215E+01  7.72261074E+00  7.72261074E+00 -1.54452215E+01  7.72261074E+00
  7.72261074E+00 -1.54452215E+01  7.72261074E+00  7.72261074E+00 -1.54452215E+01
  7.72261074E+00  7.72261074E+00 -1.54452215E+01  7.72261074E+00  7.72261074E+00
 -1.54452215E+01  7.72261074E+00  7.72261074E+00 -1.54452215E+01  7.72261074E+00
  7.72261074E+00 -1.54452215E+01  7.72261074E+00  7.72261074E+00 -1.54452215E+01
  7.72261074E+00  7.72261074E+00 -1.54452215E+01  7.72261074E+00  7.72261074E+00
 -1.54452215E+01  7.72261074E+00  7.72261074E+00 -1.54452215E+01  7.72261074E+00
  7.72261074E+00 -1.54452215E+01  7.72261074E+00  7.72261074E+00 -1.54452215E+01
  7.72261074E+00  7.72261074E+00 -1.54452215E+01  7.72261074E+00  7.72261074E+00
 -1.54452215E+01  7.72261074E+00  7.72261074E+00 -1.54452215E+01  7.72261074E+00
  7.72261074E+00 -1.54452215E+01  7.72261074E+00  7.72261074E+00 -1.54452215E+01
  7.72261074E+00  7.72261074E+00 -1.54452215E+01  7.72261074E+00  7.72261074E+00
 -1.54452215E+01  7.72261074E+00  7.72261074E+00 -1.54452215E+01  7.72261074E+00
  7.72261074E+00 -1.54452215E+01  7.72261074E+00  7.72261074E+00 -1.54452215E+01
  7.72261074E+00  7.72261074E+00 -1.54452215E+01  7.72261074E+00  7.72261074E+00
 -1.54452215E+01  7.72261074E+00  7.72261074E+00 -1.54452215E+01  7.72261074E+00
  7.72261074E+00 -1.54452215E+01  7.72261074E+00  7.72261074E+00 -1.54452215E+01
  7.72261074E+00  7.72261074E+00 -1.54452215E+01  7.72261074E+00  7.72261074E+00
 -1.54452215E+01  7.72261074E+00  7.72261074E+00 -1.54452215E+01  7.72261074E+00
  7.72261074E+00 -1.54452215E+01  7.72261074E+00  7.72261074E+00 -1.54452215E+01
  7.72261074E+00  7.72261074E+00 -1.54452215E+01  7.72261074E+00  7.72261074E+00
 -1.54452215E+01  7.72261074E+00  7.72261074E+00 -1.54452215E+01  7.72261074E+00
  7.72261074E+00 -1.54452215E+01  7.72261074E+00  7.72261074E+00 -1.54452215E+01
  7.72261074E+00  7.72261074E+00 -1.54452215E+01  7.72261074E+00  7.72261074E+00
 -1.54452215E+01  7.72261074E+00  7.72261074E+00 -1.54452215E+01  7.72261074E+00
  7.72261074E+00 -1.54452215E+01  7.72261074E+00  7.72261074E+00 -1.54452215E+01
  7.72261074E+00  7.72261074E+00 -1.54452215E+01  7.72261074E+00  7.72261074E+00
 -1.54452215E+01  7.72261074E+00  7.72261074E+00 -1.54452215E+01  7.72261074E+00
  7.72261074E+00 -1.54452215E+01  7.72261074E+00  7.72261074E+00 -1.54452215E+01
  7.72261074E+00  7.72261074E+00 -1.54452215E+01  7.72261074E+00  7.72261074E+00
 -1.54452215E+01  7.72261074E+00  7.72261074E+00 -1.54452215E+01  7.72261074E+00
  7.72261074E+00 -1.54452215E+01  7.72261074E+00  7.72261074E+00 -1.54452215E+01
  7.72261074E+00  7.72261074E+00 -1.54452215E+01  7.72261074E+00  7.72261074E+00
 -1.54452215E+01  7.72261074E+00  7.72261074E+00 -1.54452215E+01  7.72261074E+00
  7.72261074E+00 -1.54452215E+01  7.72261074E+00  7.72261074E+00 -1.54452215E+01
  7.72261074E+00  7.72261074E+00 -1.54452215E+01  7.72261074E+00  7.72261074E+00
 -1.54452215E+01  7.72261074E+00  7.72261074E+00 -1.54452215E+01  7.72261074E+00
  7.72261074E+00 -1.54452215E+01  7.72261074E+00  7.72261074E+00 -1.54452215E+01
  7.72261074E+00  7.72261074E+00 -1.54452215E+01  7.72261074E+00  7.72261074E+00
 -1.54452215E+01  7.72261074E+00  7.72261074E+00 -1.54452215E+01  7.72261074E+00
  7.72261074E+00 -1.54452215E+01  7.72261074E+00  7.72261074E+00 -1.54452215E+01
  7.72261074E+00  7.72261074E+00 -1.54452215E+01  7.72261074E+00  7.72261074E+00
 -1.54452215E+01  7.72261074E+00  7.72261074E+00 -1.54452215E+01  7.72261074E+00
  7.72261074E+00 -1.54452215E+01  7.72261074E+00  7.72261074E+00 -1.54452215E+01
  7.72261074E+00  7.72261074E+00 -1.54452215E+01  7.72261074E+00  7.72261074E+00
 -1.54452215E+01  7.72261074E+00  7.72261074E+00 -1.54452215E+01  7.72261074E+00
  7.72261074E+00 -1.54452215E+01  7.72261074E+00  7.72261074E+00 -1.54452215E+01
  7.72261074E+00  7.72261074E+00 -1.54452215E+01  7.72261074E+00  7.72261074E+00
 -1.54452215E+01  7.72261074E+00  7.72261074E+00 -1.54452215E+01  7.72261074E+00
  7.72261074E+00 -1.54452215E+01  7.72261074E+00  7.72261074E+00 -1.54452215E+01
  7.72261074E+00  7.72261074E+00 -1.54452215E+01  7.72261074E+00  7.72261074E+00
 -1.54452215E+01  7.72261074E+00  7.72261074E+00 -1.54452215E+01  7.72261074E+00
  7.72261074E+00 -1.54452215E+01  7.72261074E+00  7.72261074E+00 -1.54452215E+01
  7.72261074E+00  7.72261074E+00 -1.54452215E+01  7.72261074E+00  7.72261074E+00
 -1.54452215E+01  7.72261074E+00  7.72261074E+00 -1.54452215E+01  7.72261074E+00
  7.72261074E+00 -1.54452215E+01  7.72261074E+00  7.72261074E+00 -1.54452215E+01
  7.72261074E+00  7.72261074E+00 -1.54452215E+01  7.72261074E+00  7.72261074E+00
 -1.54452215E+01  7.72261074E+00  7.72261074E+00 -1.54452215E+01  7.72261074E+00
  7.72261074E+00 -1.54452215E+01  7.72261074E+00  7.72261074E+00 -1.54452215E+01
  7.72261074E+00  7.72261074E+00 -1.54452215E+01  7.72261074E+00  7.72261074E+00
 -1.54452215E+01  7.72261074E+00  7.72261074E+00 -1.54452215E+01  7.72261074E+00
  7.72261074E+00 -1.54452215E+01  7.72261074E+00  7.72261074E+00 -1.54452215E+01
  7.72261074E+00  7.72261074E+00 -1.54452215E+01  7.72261074E+00  7.72261074E+00
 -1.54452215E+01  7.72261074E+00  7.72261074E+00 -1.54452215E+01  7.72261074E+00
  7.72261074E+00 -1.54452215E+01  7.72261074E+00  7.72261074E+00 -1.54452215E+01
  7.72261074E+00  7.72261074E+00 -1.54452215E+01  7.72261074E+00  7.72261074E+00
 -1.54452215E+01  7.72261074E+00  7.72261074E+00 -1.54452215E+01  7.72261074E+00
  7.72261074E+00 -1.54452215E+01  7.72261074E+00  7.72261074E+00 -1.54452215E+01
  7.72261074E+00  7.72261074E+00 -1.54452215E+01  7.72261074E+00  7.72261074E+00
 -1.54452215E+01  7.72261074E+00  7.72261074E+00 -1.54452215E+01  7.72261074E+00
  7.72261074E+00 -1.54452215E+01  7.72261074E+00  7.72261074E+00 -1.54452215E+01
  7.72261074E+00  7.72261074E+00 -1.54452215E+01  7.72261074E+00  7.72261074E+00
 -1.54452215E+01  7.72261074E+00  7.72261074E+00 -1.54452215E+01  7.72261074E+00
  7.72261074E+00 -1.54452215E+01  7.72261074E+00  7.72261074E+00 -1.54452215E+01
  7.72261074E+00  7.72261074E+00 -1.54452215E+01  7.72261074E+00  7.72261074E+00
 -1.54452215E+01  7.72261074E+00  7.72261074E+00 -1.54452215E+01  7.72261074E+00
  7.72261074E+00 -1.54452215E+01  7.72261074E+00  7.72261074E+00 -1.54452215E+01
  7.72261074E+00  7.72261074E+00 -1.54452215E+01  7.72261074E+00  7.72261074E+00
 -1.54452215E+01  7.72261074E+00  7.72261074E+00 -1.54452215E+01  7.72261074E+00
  7.72261074E+00 -1.54452215E+01  7.72261074E+00  7.72261074E+00 -1.54452215E+01
  7.72261074E+00  7.72261074E+00 -1.54452215E+01  7.72261074E+00  7.72261074E+00
 -1.54452215E+01  7.72261074E+00  7.72261074E+00 -1.54452215E+01  7.72261074E+00
  7.72261074E+00 -1.54452215E+01  7.72261074E+00  7.72261074E+00 -1.54452215E+01
  7.72261074E+00  7.72261074E+00 -1.54452215E+01  7.72261074E+00  7.72261074E+00
 -1.54452215E+01  7.72261074E+00  7.72261074E+00 -1.54452215E+01  7.72261074E+00
  7.72261074E+00 -1.54452215E+01  7.72261074E+00  7.72261074E+00 -1.54452215E+01
  7.72261074E+00  7.72261074E+00 -1.54452215E+01  7.72261074E+00  7.72261074E+00
 -1.54452215E+01  7.72261074E+00  7.72261074E+00 -1.54452215E+01  7.72261074E+00
  7.72261074E+00 -1.54452215E+01  7.72261074E+00  7.72261074E+00 -1.54452215E+01
  7.72261074E+00  7.72261074E+00 -1.54452215E+01  7.72261074E+00  7.72261074E+00
 -1.54452215E+01  7.72261074E+00  7.72261074E+00 -1.54452215E+01  7.72261074E+00
  7.72261074E+00 -1.54452215E+01  7.72261074E+00  7.72261074E+00 -1.54452215E+01
  7.72261074E+00  7.72261074E+00 -1.54452215E+01  7.72261074E+00  7.72261074E+00
 -1.54452215E+01  7.72261074E+00  7.72261074E+00 -1.54452215E+01  7.72261074E+00
  7.72261074E+00 -1.54452215E+01  7.72261074E+00  7.72261074E+00 -1.54452215E+01
  7.72261074E+00  7.72261074E+00 -1.54452215E+01  7.72261074E+00  7.72261074E+00
 -1.54452215E+01  7.72261074E+00  7.72261074E+00 -1.54452215E+01  7.72261074E+00
  7.72261074E+00 -1.54452215E+01  7.72261074E+00  7.72261074E+00 -1.54452215E+01
  7.72261074E+00  7.72261074E+00 -1.54452215E+01  7.72261074E+00  7.72261074E+00
 -1.54452215E+01  7.72261074E+00  7.72261074E+00 -1.54452215E+01  7.72261074E+00
  7.72261074E+00 -1.54452215E+01  7.72261074E+00  7.72261074E+00 -1.54452215E+01
  7.72261074E+00  7.72261074E+00 -1.54452215E+01  7.72261074E+00  7.72261074E+00
 -1.54452215E+01  7.72261074E+00  7.72261074E+00 -1.54452215E+01  7.72261074E+00
  7.72261074E+00 -1.54452215E+01  7.72261074E+00  7.72261074E+00 -1.54452215E+01
  7.72261074E+00  7.72261074E+00 -1.54452215E+01  7.72261074E+00  7.72261074E+00
 -1.54452215E+01  7.72261074E+00  7.72261074E+00 -1.54452215E+01  7.72261074E+00
  7.72261074E+00 -1.54452215E+01  7.72261074E+00  7.72261074E+00 -1.54452215E+01
  7.72261074E+00  7.72261074E+00 -1.54452215E+01  7.72261074E+00  7.72261074E+00
 -1.54452215E+01  7.72261074E+00  7.72261074E+00 -1.54452215E+01  7.72261074E+00
  7.72261074E+00 -1.54452215E+01  7.72261074E+00  7.72261074E+00 -1.54452215E+01
  7.72261074E+00  7.72261074E+00 -1.54452215E+01  7.72261074E+00  7.72261074E+00
 -1.54452215E+01  7.72261074E+00  7.72261074E+00 -1.54452215E+01  7.72261074E+00
  7.72261074E+00 -1.54452215E+01  7.72261074E+00  7.72261074E+00 -1.54452215E+01
  7.72261074E+00  7.72261074E+00 -1.54452215E+01  7.72261074E+00  7.72261074E+00
 -1.54452215E+01  7.72261074E+00  7.72261074E+00 -1.54452215E+01  7.72261074E+00
  7.72261074E+00 -1.54452215E+01  7.72261074E+00  7.72261074E+00 -1.54452215E+01
  7.72261074E+00  7.72261074E+00 -1.54452215E+01  7.72261074E+00  7.72261074E+00
 -1.54452215E+01  7.72261074E+00  7.72261074E+00 -1.54452215E+01  7.72261074E+00
  7.72261074E+00 -1.54452215E+01  7.72261074E+00  7.72261074E+00 -1.54452215E+01
  7.72261074E+00  7.72261074E+00 -1.54452215E+01  7.72261074E+00  7.72261074E+00
 -1.54452215E+01  7.72261074E+00  7.72261074E+00 -1.54452215E+01  7.72261074E+00
  7.72261074E+00 -1.54452215E+01  7.72261074E+00  7.72261074E+00 -1.54452215E+01
  7.72261074E+00  7.72261074E+00 -1.54452215E+01  7.72261074E+00  7.72261074E+00
 -1.54452215E+01  7.72261074E+00  7.72261074E+00 -1.54452215E+01  7.72261074E+00
  7.72261074E+00 -1.54452215E+01  7.72261074E+00  7.72261074E+00 -1.54452215E+01
  7.72261074E+00  7.72261074E+00 -1.54452215E+01  7.72261074E+00  7.72261074E+00
 -1.54452215E+01  7.72261074E+00  7.72261074E+00 -1.54452215E+01  7.72261074E+00
  7.72261074E+00 -1.54452215E+01  7.72261074E+00  7.72261074E+00 -1.54452215E+01
  7.72261074E+00  7.72261074E+00 -1.54452215E+01  7.72261074E+00  7.72261074E+00
 -1.54452215E+01  7.72261074E+00  7.72261074E+00 -1.54452215E+01  7.72261074E+00
  7.72261074E+00 -1.54452215E+01  7.72261074E+00  7.72261074E+00 -1.54452215E+01
  7.72261074E+00  7.72261074E+00 -1.54452215E+01  7.72261074E+00  7.72261074E+00
 -1.54452215E+01  7.72261074E+00  7.72261074E+00 -1.54452215E+01  7.72261074E+00
  7.72261074E+00 -1.54452215E+01  7.72261074E+00  7.72261074E+00 -1.54452215E+01
  7.72261074E+00  7.72261074E+00 -1.54452215E+01  7.72261074E+00  7.72261074E+00
 -1.54452215E+01  7.72261074E+00  7.72261074E+00 -1.54452215E+01  7.72261074E+00
  7.72261074E+00 -1.54452215E+01  7.72261074E+00  7.72261074E+00 -1.54452215E+01
  7.72261074E+00  7.72261074E+00 -1.54452215E+01  7.72261074E+00  7.72261074E+00
 -1.54452215E+01  7.72261074E+00  7.72261074E+00 -1.54452215E+01  7.72261074E+00
  7.72261074E+00 -1.54452215E+01  7.72261074E+00  7.72261074E+00 -1.54452215E+01
  7.72261074E+00  7.72261074E+00 -1.54452215E+01  7.72261074E+00  7.72261074E+00
 -1.54452215E+01  7.72261074E+00  7.72261074E+00 -1.54452215E+01  7.72261074E+00
  7.72261074E+00 -1.54452215E+01  7.72261074E+00  7.72261074E+00 -1.54452215E+01
  7.72261074E+00  7.72261074E+00 -1.54452215E+01  7.72261074E+00  7.72261074E+00
 -1.54452215E+01  7.72261074E+00  7.72261074E+00 -1.54452215E+01  7.72261074E+00
  7.72261074E+00 -1.54452215E+01  7.72261074E+00  7.72261074E+00 -1.54452215E+01
  7.72261074E+00  7.72261074E+00 -1.54452215E+01  7.72261074E+00  7.72261074E+00
 -1.54452215E+01  7.72261074E+00  7.72261074E+00 -1.54452215E+01  7.72261074E+00
  7.72261074E+00 -1.54452215E+01  7.72261074E+00  7.72261074E+00 -1.54452215E+01
  7.72261074E+00  7.72261074E+00 -1.54452215E+01  7.72261074E+00  7.72261074E+00
 -1.54452215E+01  7.72261074E+00  7.72261074E+00 -1.54452215E+01  7.72261074E+00
  7.72261074E+00 -1.54452215E+01  7.72261074E+00  7.72261074E+00 -1.54452215E+01
  7.72261074E+00  7.72261074E+00 -1.54452215E+01  7.72261074E+00  7.72261074E+00
 -1.54452215E+01  7.72261074E+00  7.72261074E+00 -1.54452215E+01  7.72261074E+00
  7.72261074E+00 -1.54452215E+01  7.72261074E+00  7.72261074E+00 -1.54452215E+01
  7.72261074E+00  7.72261074E+00 -1.54452215E+01  7.72261074E+00  7.72261074E+00
 -1.54452215E+01  7.72261074E+00  7.72261074E+00 -1.54452215E+01  7.72261074E+00
  7.72261074E+00 -1.54452215E+01  7.72261074E+00  7.72261074E+00 -1.54452215E+01
  7.72261074E+00  7.72261074E+00 -1.54452215E+01  7.72261074E+00  7.72261074E+00
 -1.54452215E+01  7.72261074E+00  7.72261074E+00 -1.54452215E+01  7.72261074E+00
  7.72261074E+00 -1.54452215E+01  7.72261074E+00  7.72261074E+00 -1.54452215E+01
  7.72261074E+00  7.72261074E+00 -1.54452215E+01  7.72261074E+00  7.72261074E+00
 -1.54452215E+01  7.72261074E+00  7.72261074E+00 -1.54452215E+01  7.72261074E+00
  7.72261074E+00 -1.54452215E+01  7.72261074E+00  7.72261074E+00 -1.54452215E+01
  7.72261074E+00  7.72261074E+00 -1.54452215E+01  7.72261074E+00  7.72261074E+00
 -1.54452215E+01  7.72261074E+00  7.72261074E+00 -1.54452215E+01  7.72261074E+00
  7.72261074E+00 -1.54452215E+01  7.72261074E+00  7.72261074E+00 -1.54452215E+01
  7.72261074E+00  7.72261074E+00 -1.54452215E+01  7.72261074E+00  7.72261074E+00
 -1.54452215E+01  7.72261074E+00  7.72261074E+00 -1.54452215E+01  7.72261074E+00
  7.72261074E+00 -1.54452215E+01  7.72261074E+00  7.72261074E+00 -1.54452215E+01
  7.72261074E+00  7.72261074E+00 -1.54452215E+01  7.72261074E+00  7.72261074E+00
 -1.54452215E+01  7.72261074E+00  7.72261074E+00 -1.54452215E+01  7.72261074E+00
  7.72261074E+00 -1.54452215E+01  7.72261074E+00  7.72261074E+00 -1.54452215E+01
  7.72261074E+00  7.72261074E+00 -1.54452215E+01  7.72261074E+00  7.72261074E+00
 -1.54452215E+01  7.72261074E+00  7.72261074E+00 -1.54452215E+01  7.72261074E+00
  7.72261074E+00 -1.54452215E+01  7.72261074E+00  7.72261074E+00 -1.54452215E+01
  7.72261074E+00  7.72261074E+00 -1.54452215E+01  7.72261074E+00  7.72261074E+00
 -1.54452215E+01  7.72261074E+00  7.72261074E+00 -1.54452215E+01  7.72261074E+00
  7.72261074E+00 -1.54452215E+01  7.72261074E+00  7.72261074E+00 -1.54452215E+01
  7.72261074E+00  7.72261074E+00 -1.54452215E+01  7.72261074E+00  7.72261074E+00
 -1.54452215E+01  7.72261074E+00  7.72261074E+00 -1.54452215E+01  7.72261074E+00
  7.72261074E+00 -1.54452215E+01  7.72261074E+00  7.72261074E+00 -1.54452215E+01
  7.72261074E+00  7.72261074E+00 -1.54452215E+01  7.72261074E+00  7.72261074E+00
 -1.54452215E+01  7.72261074E+00  7.72261074E+00 -1.54452215E+01  7.72261074E+00
  7.72261074E+00 -1.54452215E+01  7.72261074E+00  7.72261074E+00 -1.54452215E+01
  7.72261074E+00  7.72261074E+00 -1.54452215E+01  7.72261074E+00  7.72261074E+00
 -1.54452215E+01  7.72261074E+00  7.72261074E+00 -1.54452215E+01  7.72261074E+00
  7.72261074E+00 -1.54452215E+01  7.72261074E+00  7.72261074E+00 -1.54452215E+01
  7.72261074E+00  7.72261074E+00 -1.54452215E+01  7.72261074E+00  7.72261074E+00
 -1.54452215E+01  7.72261074E+00  7.72261074E+00 -1.54452215E+01  7.72261074E+00
  7.72261074E+00 -1.54452215E+01  7.72261074E+00  7.72261074E+00 -1.54452215E+01
  7.72261074E+00  7.72261074E+00 -1.54452215E+01  7.72261074E+00  7.72261074E+00
 -1.54452215E+01  7.72261074E+00  7.72261074E+00 -1.54452215E+01  7.72261074E+00
  7.72261074E+00 -1.54452215E+01  7.72261074E+00  7.72261074E+00 -1.54452215E+01
  7.72261074E+00  7.72261074E+00 -1.54452215E+01  7.72261074E+00  7.72261074E+00
 -1.54452215E+01  7.72261074E+00  7.72261074E+00 -1.54452215E+01  7.72261074E+00
  7.72261074E+00 -1.54452215E+01  7.72261074E+00  7.72261074E+00 -1.54452215E+01
  7.72261074E+00  7.72261074E+00 -1.54452215E+01  7.72261074E+00  7.72261074E+00
 -1.54452215E+01  7.72261074E+00  7.72261074E+00 -1.54452215E+01  7.72261074E+00
  7.72261074E+00 -1.54452215E+01  7.72261074E+00  7.72261074E+00 -1.54452215E+01
  7.72261074E+00  7.72261074E+00 -1.54452215E+01  7.72261074E+00  7.72261074E+00
 -1.54452215E+01  7.72261074E+00  7.72261074E+00 -1.54452215E+01  7.72261074E+00
  7.72261074E+00 -1.54452215E+01  7.72261074E+00  7.72261074E+00 -1.54452215E+01
  7.72261074E+00  7.72261074E+00 -1.54452215E+01  7.72261074E+00  7.72261074E+00
 -1.54452215E+01  7.72261074E+00  7.72261074E+00 -1.54452215E+01  7.72261074E+00
  7.72261074E+00 -1.54452215E+01  7.72261074E+00  7.72261074E+00 -1.54452215E+01
  7.72261074E+00  7.72261074E+00 -1.54452215E+01  7.72261074E+00  7.72261074E+00
 -1.54452215E+01  7.72261074E+00  7.72261074E+00 -1.54452215E+01  7.72261074E+00
  7.72261074E+00 -1.54452215E+01  7.72261074E+00  7.72261074E+00 -1.54452215E+01
  7.72261074E+00  7.72261074E+00 -1.54452215E+01  7.72261074E+00  7.72261074E+00
 -1.54452215E+01  7.72261074E+00  7.72261074E+00 -1.54452215E+01  7.72261074E+00
  7.72261074E+00 -1.54452215E+01  7.72261074E+00  7.72261074E+00 -1.54452215E+01
  7.72261074E+00  7.72261074E+00 -1.54452215E+01  7.72261074E+00  7.72261074E+00
 -1.54452215E+01  7.72261074E+00  7.72261074E+00 -1.54452215E+01  7.72261074E+00
  7.72261074E+00 -1.54452215E+01  7.72261074E+00  7.72261074E+00 -1.54452215E+01
  7.72261074E+00  7.72261074E+00 -1.54452215E+01  7.72261074E+00  7.72261074E+00
 -1.54452215E+01  7.72261074E+00  7.72261074E+00 -1.54452215E+01  7.72261074E+00
  7.72261074E+00 -1.54452215E+01  7.72261074E+00  7.72261074E+00 -1.54452215E+01
  7.72261074E+00  7.72261074E+00 -1.54452215E+01  7.72261074E+00  7.72261074E+00
 -1.54452215E+01  7.72261074E+00  7.72261074E+00 -1.54452215E+01  7.72261074E+00
  7.72261074E+00 -1.54452215E+01  7.72261074E+00  7.72261074E+00 -1.54452215E+01
  7.72261074E+00  7.72261074E+00 -1.54452215E+01  7.72261074E+00  7.72261074E+00
 -1.54452215E+01  7.72261074E+00  7.72261074E+00 -1.54452215E+01  7.72261074E+00
  7.72261074E+00 -1.54452215E+01  7.72261074E+00  7.72261074E+00 -1.54452215E+01
  7.72261074E+00  7.72261074E+00 -1.54452215E+01  7.72261074E+00  7.72261074E+00
 -1.54452215E+01  7.72261074E+00  7.72261074E+00 -1.54452215E+01  7.72261074E+00
  7.72261074E+00 -1.54452215E+01  7.72261074E+00  7.72261074E+00 -1.54452215E+01
  7.72261074E+00  7.72261074E+00 -1.54452215E+01  7.72261074E+00  7.72261074E+00
 -1.54452215E+01  7.72261074E+00  7.72261074E+00 -1.54452215E+01  7.72261074E+00
  7.72261074E+00 -1.54452215E+01  7.72261074E+00  7.72261074E+00 -1.54452215E+01
  7.72261074E+00  7.72261074E+00 -1.54452215E+01  7.72261074E+00  7.72261074E+00
 -1.54452215E+01  7.72261074E+00  7.72261074E+00 -1.54452215E+01  7.72261074E+00
  7.72261074E+00 -1.54452215E+01  7.72261074E+00  7.72261074E+00 -1.54452215E+01
  7.72261074E+00  7.72261074E+00 -1.54452215E+01  7.72261074E+00  7.72261074E+00
 -1.54452215E+01  7.72261074E+00  7.72261074E+00 -1.54452215E+01  7.72261074E+00
  7.72261074E+00 -1.54452215E+01  7.72261074E+00  7.72261074E+00 -1.54452215E+01
  7.72261074E+00  7.72261074E+00 -1.54452215E+01  7.72261074E+00  7.72261074E+00
 -1.54452215E+01  7.72261074E+00  7.72261074E+00 -1.54452215E+01  7.72261074E+00
  7.72261074E+00 -1.54452215E+01  7.72261074E+00  7.72261074E+00 -1.54452215E+01
  7.72261074E+00  7.72261074E+00 -1.54452215E+01  7.72261074E+00  7.72261074E+00
 -1.54452215E+01  7.72261074E+00  7.72261074E+00 -1.54452215E+01  7.72261074E+00
  7.72261074E+00 -1.54452215E+01  7.72261074E+00  7.72261074E+00 -1.54452215E+01
  7.72261074E+00  7.72261074E+00 -1.54452215E+01  7.72261074E+00  7.72261074E+00
 -1.54452215E+01  7.72261074E+00  7.72261074E+00 -1.54452215E+01  7.72261074E+00
  7.72261074E+00 -1.54452215E+01  7.72261074E+00  7.72261074E+00 -1.54452215E+01
  7.72261074E+00  7.72261074E+00 -1.54452215E+01  7.72261074E+00  7.72261074E+00
 -1.54452215E+01  7.72261074E+00  7.72261074E+00 -1.54452215E+01  7.72261074E+00
  7.72261074E+00 -1.54452215E+01  7.72261074E+00  7.72261074E+00 -1.54452215E+01
  7.72261074E+00  7.72261074E+00 -1.54452215E+01  7.72261074E+00  7.72261074E+00
 -1.54452215E+01  7.72261074E+00  7.72261074E+00 -1.54452215E+01  7.72261074E+00
  7.72261074E+00 -1.54452215E+01  7.72261074E+00  7.72261074E+00 -1.54452215E+01
  7.72261074E+00  7.72261074E+00 -1.54452215E+01  7.72261074E+00  7.72261074E+00
 -1.54452215E+01  7.72261074E+00  7.72261074E+00 -1.54452215E+01  7.72261074E+00
  7.72261074E+00 -1.54452215E+01  7.72261074E+00  7.72261074E+00 -1.54452215E+01
  7.72261074E+00  7.72261074E+00 -1.54452215E+01  7.72261074E+00  7.72261074E+00
 -1.54452215E+01  7.72261074E+00  7.72261074E+00 -1.54452215E+01  7.72261074E+00
  7.72261074E+00 -1.54452215E+01  7.72261074E+00  7.72261074E+00 -1.54452215E+01
  7.72261074E+00  7.72261074E+00 -1.54452215E+01  7.72261074E+00  7.72261074E+00
 -1.54452215E+01  7.72261074E+00  7.72261074E+00 -1.54452215E+01  7.72261074E+00
  7.72261074E+00 -1.54452215E+01  7.72261074E+00  7.72261074E+00 -1.54452215E+01
  7.72261074E+00  7.72261074E+00 -1.54452215E+01  7.72261074E+00  7.72261074E+00
 -1.54452215E+01  7.72261074E+00  7.72261074E+00 -1.54452215E+01  7.72261074E+00
  7.72261074E+00 -1.54452215E+01  7.72261074E+00  7.72261074E+00 -1.54452215E+01
  7.72261074E+00  7.72261074E+00 -1.54452215E+01  7.72261074E+00  7.72261074E+00
 -1.54452215E+01  7.72261074E+00  7.72261074E+00 -1.54452215E+01  7.72261074E+00
  7.72261074E+00 -1.54452215E+01  7.72261074E+00  7.72261074E+00 -1.54452215E+01
  7.72261074E+00  7.72261074E+00 -1.54452215E+01  7.72261074E+00  7.72261074E+00
 -1.54452215E+01  7.72261074E+00  7.72261074E+00 -1.54452215E+01  7.72261074E+00
  7.72261074E+00 -1.54452215E+01  7.72261074E+00  7.72261074E+00 -1.54452215E+01
  7.72261074E+00  7.72261074E+00 -1.54452215E+01  7.72261074E+00  7.72261074E+00
 -1.54452215E+01  7.72261074E+00  7.72261074E+00 -1.54452215E+01  7.72261074E+00
  7.72261074E+00 -1.54452215E+01  7.72261074E+00  7.72261074E+00 -1.54452215E+01
  7.72261074E+00  7.72261074E+00 -1.54452215E+01  7.72261074E+00  7.72261074E+00
 -1.54452215E+01  7.72261074E+00  7.72261074E+00 -1.54452215E+01  7.72261074E+00
  7.72261074E+00 -1.54452215E+01  7.72261074E+00  7.72261074E+00 -1.54452215E+01
  7.72261074E+00  7.72261074E+00 -1.54452215E+01  7.72261074E+00  7.72261074E+00
 -1.54452215E+01  7.72261074E+00  7.72261074E+00 -1.54452215E+01  7.72261074E+00
  7.72261074E+00 -1.54452215E+01  7.72261074E+00  7.72261074E+00 -1.54452215E+01
  7.72261074E+00  7.72261074E+00 -1.54452215E+01  7.72261074E+00  7.72261074E+00
 -1.54452215E+01  7.72261074E+00  7.72261074E+00 -1.54452215E+01  7.72261074E+00
  7.72261074E+00 -1.54452215E+01  7.72261074E+00  7.72261074E+00 -1.54452215E+01
  7.72261074E+00  7.72261074E+00 -1.54452215E+01  7.72261074E+00  7.72261074E+00
 -1.54452215E+01  7.72261074E+00  7.72261074E+00 -1.54452215E+01  7.72261074E+00
  7.72261074E+00 -1.54452215E+01  7.72261074E+00  7.72261074E+00 -1.54452215E+01
  7.72261074E+00  7.72261074E+00 -1.54452215E+01  7.72261074E+00  7.72261074E+00
 -1.54452215E+01  7.72261074E+00  7.72261074E+00 -1.54452215E+01  7.72261074E+00
  7.72261074E+00 -1.54452215E+01  7.72261074E+00  7.72261074E+00 -1.54452215E+01
  7.72261074E+00  7.72261074E+00 -1.54452215E+01  7.72261074E+00  7.72261074E+00
 -1.54452215E+01  7.72261074E+00  7.72261074E+00 -1.54452215E+01  7.72261074E+00
  7.72261074E+00 -1.54452215E+01  7.72261074E+00  7.72261074E+00 -1.54452215E+01
  7.72261074E+00  7.72261074E+00 -1.54452215E+01  7.72261074E+00  7.72261074E+00
 -1.54452215E+01  7.72261074E+00  7.72261074E+00 -1.54452215E+01  7.72261074E+00
  7.72261074E+00 -1.54452215E+01  7.72261074E+00  7.72261074E+00 -1.54452215E+01
  7.72261074E+00  7.72261074E+00 -1.54452215E+01  7.72261074E+00  7.72261074E+00
 -1.54452215E+01  7.72261074E+00  7.72261074E+00 -1.54452215E+01  7.72261074E+00
  7.72261074E+00 -1.54452215E+01  7.72261074E+00  7.72261074E+00 -1.54452215E+01
  7.72261074E+00  7.72261074E+00 -1.54452215E+01  7.72261074E+00  7.72261074E+00
 -1.54452215E+01  7.72261074E+00  7.72261074E+00 -1.54452215E+01  7.72261074E+00
  7.72261074E+00 -1.54452215E+01  7.72261074E+00  7.72261074E+00 -1.54452215E+01
  7.72261074E+00  7.72261074E+00 -1.54452215E+01  7.72261074E+00  7.72261074E+00
 -1.54452215E+01  7.72261074E+00  7.72261074E+00 -1.54452215E+01  7.72261074E+00
  7.72261074E+00 -1.54452215E+01  7.72261074E+00  7.72261074E+00 -1.54452215E+01
  7.72261074E+00  7.72261074E+00 -1.54452215E+01  7.72261074E+00  7.72261074E+00
 -1.54452215E+01  7.72261074E+00  7.72261074E+00 -1.54452215E+01  7.72261074E+00
  7.72261074E+00 -1.54452215E+01  7.72261074E+00  7.72261074E+00 -1.54452215E+01
  7.72261074E+00  7.72261074E+00 -1.54452215E+01  7.72261074E+00  7.72261074E+00
 -1.54452215E+01  7.72261074E+00  7.72261074E+00 -1.54452215E+01  7.72261074E+00
  7.72261074E+00 -1.54452215E+01  7.72261074E+00  7.72261074E+00 -1.54452215E+01
  7.72261074E+00  7.72261074E+00 -1.54452215E+01  7.72261074E+00  7.72261074E+00
 -1.54452215E+01  7.72261074E+00  7.72261074E+00 -1.54452215E+01  7.72261074E+00
  7.72261074E+00 -1.54452215E+01  7.72261074E+00  7.72261074E+00 -1.54452215E+01
  7.72261074E+00  7.72261074E+00 -1.54452215E+01  7.72261074E+00  7.72261074E+00
 -1.54452215E+01  7.72261074E+00  7.72261074E+00 -1.54452215E+01  7.72261074E+00
  7.72261074E+00 -1.54452215E+01  7.72261074E+00  7.72261074E+00 -1.54452215E+01
  7.72261074E+00  7.72261074E+00 -1.54452215E+01  7.72261074E+00  7.72261074E+00
 -1.54452215E+01  7.72261074E+00  7.72261074E+00 -1.54452215E+01  7.72261074E+00
  7.72261074E+00 -1.54452215E+01  7.72261074E+00  7.72261074E+00 -1.54452215E+01
  7.72261074E+00  7.72261074E+00 -1.54452215E+01  7.72261074E+00  7.72261074E+00
 -1.54452215E+01  7.72261074E+00  7.72261074E+00 -1.54452215E+01  7.72261074E+00
  7.72261074E+00 -1.54452215E+01  7.72261074E+00  7.72261074E+00 -1.54452215E+01
  7.72261074E+00  7.72261074E+00 -1.54452215E+01  7.72261074E+00  7.72261074E+00
 -1.54452215E+01  7.72261074E+00  7.72261074E+00 -1.54452215E+01  7.72261074E+00
  7.72261074E+00 -1.54452215E+01  7.72261074E+00  7.72261074E+00 -1.54452215E+01
  7.72261074E+00  7.72261074E+00 -1.54452215E+01  7.72261074E+00  7.72261074E+00
 -1.54452215E+01  7.72261074E+00  7.72261074E+00 -1.54452215E+01  7.72261074E+00
  7.72261074E+00 -1.54452215E+01  7.72261074E+00  7.72261074E+00 -1.54452215E+01
  7.72261074E+00  7.72261074E+00 -1.54452215E+01  7.72261074E+00  7.72261074E+00
 -1.54452215E+01  7.72261074E+00  7.72261074E+00 -1.54452215E+01  7.72261074E+00
  7.72261074E+00 -1.54452215E+01  7.72261074E+00  7.72261074E+00 -1.54452215E+01
  7.72261074E+00  7.72261074E+00 -1.54452215E+01  7.72261074E+00  7.72261074E+00
 -1.54452215E+01  7.72261074E+00  7.72261074E+00 -1.54452215E+01  7.72261074E+00
  7.72261074E+00 -1.54452215E+01  7.72261074E+00  7.72261074E+00 -1.54452215E+01
  7.72261074E+00  7.72261074E+00 -1.54452215E+01  7.72261074E+00  7.72261074E+00
 -1.54452215E+01  7.72261074E+00  7.72261074E+00 -1.54452215E+01  7.72261074E+00
  7.72261074E+00 -1.54452215E+01  7.72261074E+00  7.72261074E+00 -1.54452215E+01
  7.72261074E+00  7.72261074E+00 -1.54452215E+01  7.72261074E+00  7.72261074E+00
 -1.54452215E+01  7.72261074E+00  7.72261074E+00 -1.54452215E+01  7.72261074E+00
  7.72261074E+00 -1.54452215E+01  7.72261074E+00  7.72261074E+00 -1.54452215E+01
  7.72261074E+00  7.72261074E+00 -1.54452215E+01  7.72261074E+00  7.72261074E+00
 -1.54452215E+01  7.72261074E+00  7.72261074E+00 -1.54452215E+01  7.72261074E+00
  7.72261074E+00 -1.54452215E+01  7.72261074E+00  7.72261074E+00 -1.54452215E+01
  7.72261074E+00  7.72261074E+00 -1.54452215E+01  7.72261074E+00  7.72261074E+00
 -1.54452215E+01  7.72261074E+00  7.72261074E+00 -1.54452215E+01  7.72261074E+00
  7.72261074E+00 -1.54452215E+01  7.72261074E+00  7.72261074E+00 -1.54452215E+01
  7.72261074E+00  7.72261074E+00 -1.54452215E+01  7.72261074E+00  7.72261074E+00
 -1.54452215E+01  7.72261074E+00  7.72261074E+00 -1.54452215E+01  7.72261074E+00
  7.72261074E+00 -1.54452215E+01  7.72261074E+00  7.72261074E+00 -1.54452215E+01
  7.72261074E+00  7.72261074E+00 -1.54452215E+01  7.72261074E+00  7.72261074E+00
 -1.54452215E+01  7.72261074E+00  7.72261074E+00 -1.54452215E+01  7.72261074E+00
  7.72261074E+00 -1.54452215E+01  7.72261074E+00  7.72261074E+00 -1.54452215E+01
  7.72261074E+00  7.72261074E+00 -1.54452215E+01  7.72261074E+00  7.72261074E+00
 -1.54452215E+01  7.72261074E+00  7.72261074E+00 -1.54452215E+01  7.72261074E+00
  7.72261074E+00 -1.54452215E+01  7.72261074E+00  7.72261074E+00 -1.54452215E+01
  7.72261074E+00  7.72261074E+00 -1.54452215E+01  7.72261074E+00  7.72261074E+00
 -1.54452215E+01  7.72261074E+00  7.72261074E+00 -1.54452215E+01  7.72261074E+00
  7.72261074E+00 -1.54452215E+01  7.72261074E+00  7.72261074E+00 -1.54452215E+01
  7.72261074E+00  7.72261074E+00 -1.54452215E+01  7.72261074E+00  7.72261074E+00
 -1.54452215E+01  7.72261074E+00  7.72261074E+00 -1.54452215E+01  7.72261074E+00
  7.72261074E+00 -1.54452215E+01  7.72261074E+00  7.72261074E+00 -1.54452215E+01
  7.72261074E+00  7.72261074E+00 -1.54452215E+01  7.72261074E+00  7.72261074E+00
 -1.54452215E+01  7.72261074E+00  7.72261074E+00 -1.54452215E+01  7.72261074E+00
  7.72261074E+00 -1.54452215E+01  7.72261074E+00  7.72261074E+00 -1.54452215E+01
  7.72261074E+00  7.72261074E+00 -1.54452215E+01  7.72261074E+00  7.72261074E+00
 -1.54452215E+01  7.72261074E+00  7.72261074E+00 -1.54452215E+01  7.72261074E+00
  7.72261074E+00 -1.54452215E+01  7.72261074E+00  7.72261074E+00 -1.54452215E+01
  7.72261074E+00  7.72261074E+00 -1.54452215E+01  7.72261074E+00  7.72261074E+00
 -1.54452215E+01  7.72261074E+00  7.72261074E+00 -1.54452215E+01  7.72261074E+00
  7.72261074E+00 -1.54452215E+01  7.72261074E+00  7.72261074E+00 -1.54452215E+01
  7.72261074E+00  7.72261074E+00 -1.54452215E+01  7.72261074E+00  7.72261074E+00
 -1.54452215E+01  7.72261074E+00  7.72261074E+00 -1.54452215E+01  7.72261074E+00
  7.72261074E+00 -1.54452215E+01  7.72261074E+00  7.72261074E+00 -1.54452215E+01
  7.72261074E+00  7.72261074E+00 -1.54452215E+01  7.72261074E+00  7.72261074E+00
 -1.54452215E+01  7.72261074E+00  7.72261074E+00 -1.54452215E+01  7.72261074E+00
  7.72261074E+00 -1.54452215E+01  7.72261074E+00  7.72261074E+00 -1.54452215E+01
  7.72261074E+00  7.72261074E+00 -1.54452215E+01  7.72261074E+00  7.72261074E+00
 -1.54452215E+01  7.72261074E+00  7.72261074E+00 -1.54452215E+01  7.72261074E+00
  7.72261074E+00 -1.54452215E+01  7.72261074E+00  7.72261074E+00 -1.54452215E+01
  7.72261074E+00  7.72261074E+00 -1.54452215E+01  7.72261074E+00  7.72261074E+00
 -1.54452215E+01  7.72261074E+00  7.72261074E+00 -1.54452215E+01  7.72261074E+00
  7.72261074E+00 -1.54452215E+01  7.72261074E+00  7.72261074E+00 -1.54452215E+01
  7.72261074E+00  7.72261074E+00 -1.54452215E+01  7.72261074E+00  7.72261074E+00
 -1.54452215E+01  7.72261074E+00  7.72261074E+00 -1.54452215E+01  7.72261074E+00
  7.72261074E+00 -1.54452215E+01  7.72261074E+00  7.72261074E+00 -1.54452215E+01
  7.72261074E+00  7.72261074E+00 -1.54452215E+01  7.72261074E+00  7.72261074E+00
 -1.54452215E+01  7.72261074E+00  7.72261074E+00 -1.54452215E+01  7.72261074E+00
  7.72261074E+00 -1.54452215E+01  7.72261074E+00  7.72261074E+00 -1.54452215E+01
  7.72261074E+00  7.72261074E+00 -1.54452215E+01  7.72261074E+00  7.72261074E+00
 -1.54452215E+01  7.72261074E+00  7.72261074E+00 -1.54452215E+01  7.72261074E+00
  7.72261074E+00 -1.54452215E+01  7.72261074E+00  7.72261074E+00 -1.54452215E+01
  7.72261074E+00  7.72261074E+00 -1.54452215E+01  7.72261074E+00  7.72261074E+00
 -1.54452215E+01  7.72261074E+00  7.72261074E+00 -1.54452215E+01  7.72261074E+00
  7.72261074E+00 -1.54452215E+01  7.72261074E+00  7.72261074E+00 -1.54452215E+01
  7.72261074E+00  7.72261074E+00 -1.54452215E+01  7.72261074E+00  7.72261074E+00
 -1.54452215E+01  7.72261074E+00  7.72261074E+00 -1.54452215E+01  7.72261074E+00
  7.72261074E+00 -1.54452215E+01  7.72261074E+00  7.72261074E+00 -1.54452215E+01
  7.72261074E+00  7.72261074E+00 -1.54452215E+01  7.72261074E+00  7.72261074E+00
 -1.54452215E+01  7.72261074E+00  7.72261074E+00 -1.54452215E+01  7.72261074E+00
  7.72261074E+00 -1.54452215E+01  7.72261074E+00  7.72261074E+00 -1.54452215E+01
  7.72261074E+00  7.72261074E+00 -1.54452215E+01  7.72261074E+00  7.72261074E+00
 -1.54452215E+01  7.72261074E+00  7.72261074E+00 -1.54452215E+01  7.72261074E+00
  7.72261074E+00 -1.54452215E+01  7.72261074E+00  7.72261074E+00 -1.54452215E+01
  7.72261074E+00  7.72261074E+00 -1.54452215E+01  7.72261074E+00  7.72261074E+00
 -1.54452215E+01  7.72261074E+00  7.72261074E+00 -1.54452215E+01  7.72261074E+00
  7.72261074E+00 -1.54452215E+01  7.72261074E+00  7.72261074E+00 -1.54452215E+01
  7.72261074E+00  7.72261074E+00 -1.54452215E+01  7.72261074E+00  7.72261074E+00
 -1.54452215E+01  7.72261074E+00  7.72261074E+00 -1.54452215E+01  7.72261074E+00
  7.72261074E+00 -1.54452215E+01  7.72261074E+00  7.72261074E+00 -1.54452215E+01
  7.72261074E+00  7.72261074E+00 -1.54452215E+01  7.72261074E+00  7.72261074E+00
 -1.54452215E+01  7.72261074E+00  7.72261074E+00 -1.54452215E+01  7.72261074E+00
  7.72261074E+00 -1.54452215E+01  7.72261074E+00  7.72261074E+00 -1.54452215E+01
  7.72261074E+00  7.72261074E+00 -1.54452215E+01  7.72261074E+00  7.72261074E+00
 -1.54452215E+01  7.72261074E+00  7.72261074E+00 -1.54452215E+01  7.72261074E+00
  7.72261074E+00 -1.54452215E+01  7.72261074E+00  7.72261074E+00 -1.54452215E+01
  7.72261074E+00  7.72261074E+00 -1.54452215E+01  7.72261074E+00  7.72261074E+00
 -1.54452215E+01  7.72261074E+00  7.72261074E+00 -1.54452215E+01  7.72261074E+00
  7.72261074E+00 -1.54452215E+01  7.72261074E+00  7.72261074E+00 -1.54452215E+01
  7.72261074E+00  7.72261074E+00 -1.54452215E+01  7.72261074E+00  7.72261074E+00
 -1.54452215E+01  7.72261074E+00  7.72261074E+00 -1.54452215E+01  7.72261074E+00
  7.72261074E+00 -1.54452215E+01  7.72261074E+00  7.72261074E+00 -1.54452215E+01
  7.72261074E+00  7.72261074E+00 -1.54452215E+01  7.72261074E+00  7.72261074E+00
 -1.54452215E+01  7.72261074E+00  7.72261074E+00 -1.54452215E+01  7.72261074E+00
  7.72261074E+00 -1.54452215E+01  7.72261074E+00  7.72261074E+00 -1.54452215E+01
  7.72261074E+00  7.72261074E+00 -1.54452215E+01  7.72261074E+00  7.72261074E+00
 -1.54452215E+01  7.72261074E+00  7.72261074E+00 -1.54452215E+01  7.72261074E+00
  7.72261074E+00 -1.54452215E+01  7.72261074E+00  7.72261074E+00 -1.54452215E+01
  7.72261074E+00  7.72261074E+00 -1.54452215E+01  7.72261074E+00  7.72261074E+00
 -1.54452215E+01  7.72261074E+00  7.72261074E+00 -1.54452215E+01  7.72261074E+00
  7.72261074E+00 -1.54452215E+01  7.72261074E+00  7.72261074E+00 -1.54452215E+01
  7.72261074E+00  7.72261074E+00 -1.54452215E+01  7.72261074E+00  7.72261074E+00
 -1.54452215E+01  7.72261074E+00  7.72261074E+00 -1.54452215E+01  7.72261074E+00
  7.72261074E+00 -1.54452215E+01  7.72261074E+00  7.72261074E+00 -1.54452215E+01
  7.72261074E+00  7.72261074E+00 -1.54452215E+01  7.72261074E+00  7.72261074E+00
 -1.54452215E+01  7.72261074E+00  7.72261074E+00 -1.54452215E+01  7.72261074E+00
  7.72261074E+00 -1.54452215E+01  7.72261074E+00  7.72261074E+00 -1.54452215E+01
  7.72261074E+00  7.72261074E+00 -1.54452215E+01  7.72261074E+00  7.72261074E+00
 -1.54452215E+01  7.72261074E+00  7.72261074E+00 -1.54452215E+01  7.72261074E+00
  7.72261074E+00 -1.54452215E+01  7.72261074E+00  7.72261074E+00 -1.54452215E+01
  7.72261074E+00  7.72261074E+00 -1.54452215E+01  7.72261074E+00  7.72261074E+00
 -1.54452215E+01  7.72261074E+00  7.72261074E+00 -1.54452215E+01  7.72261074E+00
  7.72261074E+00 -1.54452215E+01  7.72261074E+00  7.72261074E+00 -1.54452215E+01
  7.72261074E+00  7.72261074E+00 -1.54452215E+01  7.72261074E+00  7.72261074E+00
 -1.54452215E+01  7.72261074E+00  7.72261074E+00 -1.54452215E+01  7.72261074E+00
  7.72261074E+00 -1.54452215E+01  7.72261074E+00  7.72261074E+00 -1.54452215E+01
  7.72261074E+00  7.72261074E+00 -1.54452215E+01  7.72261074E+00  7.72261074E+00
 -1.54452215E+01  7.72261074E+00  7.72261074E+00 -1.54452215E+01  7.72261074E+00
  7.72261074E+00 -1.54452215E+01  7.72261074E+00  7.72261074E+00 -1.54452215E+01
  7.72261074E+00  7.72261074E+00 -1.54452215E+01  7.72261074E+00  7.72261074E+00
 -1.54452215E+01  7.72261074E+00  7.72261074E+00 -1.54452215E+01  7.72261074E+00
  7.72261074E+00 -1.54452215E+01  7.72261074E+00  7.72261074E+00 -1.54452215E+01
  7.72261074E+00  7.72261074E+00 -1.54452215E+01  7.72261074E+00  7.72261074E+00
 -1.54452215E+01  7.72261074E+00  7.72261074E+00 -1.54452215E+01  7.72261074E+00
  7.72261074E+00 -1.54452215E+01  7.72261074E+00  7.72261074E+00 -1.54452215E+01
  7.72261074E+00  7.72261074E+00 -1.54452215E+01  7.72261074E+00  7.72261074E+00
 -1.54452215E+01  7.72261074E+00  7.72261074E+00 -1.54452215E+01  7.72261074E+00
  7.72261074E+00 -1.54452215E+01  7.72261074E+00  7.72261074E+00 -1.54452215E+01
  7.72261074E+00  7.72261074E+00 -1.54452215E+01  7.72261074E+00  7.72261074E+00
 -1.54452215E+01  7.72261074E+00  7.72261074E+00 -1.54452215E+01  7.72261074E+00
  7.72261074E+00 -1.54452215E+01  7.72261074E+00  7.72261074E+00 -1.54452215E+01
  7.72261074E+00  7.72261074E+00 -1.54452215E+01  7.72261074E+00  7.72261074E+00
 -1.54452215E+01  7.72261074E+00  7.72261074E+00 -1.54452215E+01  7.72261074E+00
  7.72261074E+00 -1.54452215E+01  7.72261074E+00  7.72261074E+00 -1.54452215E+01
  7.72261074E+00  7.72261074E+00 -1.54452215E+01  7.72261074E+00  7.72261074E+00
 -1.54452215E+01  7.72261074E+00  7.72261074E+00 -1.54452215E+01  7.72261074E+00
  7.72261074E+00 -1.54452215E+01  7.72261074E+00  7.72261074E+00 -1.54452215E+01
  7.72261074E+00  7.72261074E+00 -1.54452215E+01  7.72261074E+00  7.72261074E+00
 -1.54452215E+01  7.72261074E+00  7.72261074E+00 -1.54452215E+01  7.72261074E+00
  7.72261074E+00 -1.54452215E+01  7.72261074E+00  7.72261074E+00 -1.54452215E+01
  7.72261074E+00  7.72261074E+00 -1.54452215E+01  7.72261074E+00  7.72261074E+00
 -1.54452215E+01  7.72261074E+00  7.72261074E+00 -1.54452215E+01  7.72261074E+00
  7.72261074E+00 -1.54452215E+01  7.72261074E+00  7.72261074E+00 -1.54452215E+01
  7.72261074E+00  7.72261074E+00 -1.54452215E+01  7.72261074E+00  7.72261074E+00
 -1.54452215E+01  7.72261074E+00  7.72261074E+00 -1.54452215E+01  7.72261074E+00
  7.72261074E+00 -1.54452215E+01  7.72261074E+00  7.72261074E+00 -1.54452215E+01
  7.72261074E+00  7.72261074E+00 -1.54452215E+01  7.72261074E+00  7.72261074E+00
 -1.54452215E+01  7.72261074E+00  7.72261074E+00 -1.54452215E+01  7.72261074E+00
  7.72261074E+00 -1.54452215E+01  7.72261074E+00  7.72261074E+00 -1.54452215E+01
  7.72261074E+00  7.72261074E+00 -1.54452215E+01  7.72261074E+00  7.72261074E+00
 -1.54452215E+01  7.72261074E+00  7.72261074E+00 -1.54452215E+01  7.72261074E+00
  7.72261074E+00 -1.54452215E+01  7.72261074E+00  7.72261074E+00 -1.54452215E+01
  7.72261074E+00  7.72261074E+00 -1.54452215E+01  7.72261074E+00  7.72261074E+00
 -1.54452215E+01  7.72261074E+00  7.72261074E+00 -1.54452215E+01  7.72261074E+00
  7.72261074E+00 -1.54452215E+01  7.72261074E+00  7.72261074E+00 -1.54452215E+01
  7.72261074E+00  7.72261074E+00 -1.54452215E+01  7.72261074E+00  7.72261074E+00
 -1.54452215E+01  7.72261074E+00  7.72261074E+00 -1.54452215E+01  7.72261074E+00
  7.72261074E+00 -1.54452215E+01  7.72261074E+00  7.72261074E+00 -1.54452215E+01
  7.72261074E+00  7.72261074E+00 -1.54452215E+01  7.72261074E+00  7.72261074E+00
 -1.54452215E+01  7.72261074E+00  7.72261074E+00 -1.54452215E+01  7.72261074E+00
  7.72261074E+00 -1.54452215E+01  7.72261074E+00  7.72261074E+00 -1.54452215E+01
  7.72261074E+00  7.72261074E+00 -1.54452215E+01  7.72261074E+00  7.72261074E+00
 -1.54452215E+01  7.72261074E+00  7.72261074E+00 -1.54452215E+01  7.72261074E+00
  7.72261074E+00 -1.54452215E+01  7.72261074E+00  7.72261074E+00 -1.54452215E+01
  7.72261074E+00  7.72261074E+00 -1.54452215E+01  7.72261074E+00  7.72261074E+00
 -1.54452215E+01  7.72261074E+00  7.72261074E+00 -1.54452215E+01  7.72261074E+00
  7.72261074E+00 -1.54452215E+01  7.72261074E+00  7.72261074E+00 -1.54452215E+01
  7.72261074E+00  7.72261074E+00 -1.54452215E+01  7.72261074E+00  7.72261074E+00
 -1.54452215E+01  7.72261074E+00  7.72261074E+00 -1.54452215E+01  7.72261074E+00
  7.72261074E+00 -1.54452215E+01  7.72261074E+00  7.72261074E+00 -1.54452215E+01
  7.72261074E+00  7.72261074E+00 -1.54452215E+01  7.72261074E+00  7.72261074E+00
 -1.54452215E+01  7.72261074E+00  7.72261074E+00 -1.54452215E+01  7.72261074E+00
  7.72261074E+00 -1.54452215E+01  7.72261074E+00  7.72261074E+00 -1.54452215E+01
  7.72261074E+00  7.72261074E+00 -1.54452215E+01  7.72261074E+00  7.72261074E+00
 -1.54452215E+01  7.72261074E+00  7.72261074E+00 -1.54452215E+01  7.72261074E+00
  7.72261074E+00 -1.54452215E+01  7.72261074E+00  7.72261074E+00 -1.54452215E+01
  7.72261074E+00  7.72261074E+00 -1.54452215E+01  7.72261074E+00  7.72261074E+00
 -1.54452215E+01  7.72261074E+00  7.72261074E+00 -1.54452215E+01  7.72261074E+00
  7.72261074E+00 -1.54452215E+01  7.72261074E+00  7.72261074E+00 -1.54452215E+01
  7.72261074E+00  7.72261074E+00 -1.54452215E+01  7.72261074E+00  7.72261074E+00
 -1.54452215E+01  7.72261074E+00  7.72261074E+00 -1.54452215E+01  7.72261074E+00
  7.72261074E+00 -1.54452215E+01  7.72261074E+00  7.72261074E+00 -1.54452215E+01
  7.72261074E+00  7.72261074E+00 -1.54452215E+01  7.72261074E+00  7.72261074E+00
 -1.54452215E+01  7.72261074E+00  7.72261074E+00 -1.54452215E+01  7.72261074E+00
  7.72261074E+00 -1.54452215E+01  7.72261074E+00  7.72261074E+00 -1.54452215E+01
  7.72261074E+00  7.72261074E+00 -1.54452215E+01  7.72261074E+00  7.72261074E+00
 -1.54452215E+01  7.72261074E+00  7.72261074E+00 -1.54452215E+01  7.72261074E+00
  7.72261074E+00 -1.54452215E+01  7.72261074E+00  7.72261074E+00 -1.54452215E+01
  7.72261074E+00  7.72261074E+00 -1.54452215E+01  7.72261074E+00  7.72261074E+00
 -1.54452215E+01  7.72261074E+00  7.72261074E+00 -1.54452215E+01  7.72261074E+00
  7.72261074E+00 -1.54452215E+01  7.72261074E+00  7.72261074E+00 -1.54452215E+01
  7.72261074E+00  7.72261074E+00 -1.54452215E+01  7.72261074E+00  7.72261074E+00
 -1.54452215E+01  7.72261074E+00  7.72261074E+00 -1.54452215E+01  7.72261074E+00
  7.72261074E+00 -1.54452215E+01  7.72261074E+00  7.72261074E+00 -1.54452215E+01
  7.72261074E+00  7.72261074E+00 -1.54452215E+01  7.72261074E+00  7.72261074E+00
 -1.54452215E+01  7.72261074E+00  7.72261074E+00 -1.54452215E+01  7.72261074E+00
  7.72261074E+00 -1.54452215E+01  7.72261074E+00  7.72261074E+00 -1.54452215E+01
  7.72261074E+00  7.72261074E+00 -1.54452215E+01  7.72261074E+00  7.72261074E+00
 -1.54452215E+01  7.72261074E+00  7.72261074E+00 -1.54452215E+01  7.72261074E+00
  7.72261074E+00 -1.54452215E+01  7.72261074E+00  7.72261074E+00 -1.54452215E+01
  7.72261074E+00  7.72261074E+00 -1.54452215E+01  7.72261074E+00  7.72261074E+00
 -1.54452215E+01  7.72261074E+00  7.72261074E+00 -1.54452215E+01  7.72261074E+00
  7.72261074E+00 -1.54452215E+01  7.72261074E+00  7.72261074E+00 -1.54452215E+01
  7.72261074E+00  7.72261074E+00 -1.54452215E+01  7.72261074E+00  7.72261074E+00
 -1.54452215E+01  7.72261074E+00  7.72261074E+00 -1.54452215E+01  7.72261074E+00
  7.72261074E+00 -1.54452215E+01  7.72261074E+00  7.72261074E+00 -1.54452215E+01
  7.72261074E+00  7.72261074E+00 -1.54452215E+01  7.72261074E+00  7.72261074E+00
 -1.54452215E+01  7.72261074E+00  7.72261074E+00 -1.54452215E+01  7.72261074E+00
  7.72261074E+00 -1.54452215E+01  7.72261074E+00  7.72261074E+00 -1.54452215E+01
  7.72261074E+00  7.72261074E+00 -1.54452215E+01  7.72261074E+00  7.72261074E+00
 -1.54452215E+01  7.72261074E+00  7.72261074E+00 -1.54452215E+01  7.72261074E+00
  7.72261074E+00 -1.54452215E+01  7.72261074E+00  7.72261074E+00 -1.54452215E+01
  7.72261074E+00  7.72261074E+00 -1.54452215E+01  7.72261074E+00  7.72261074E+00
 -1.54452215E+01  7.72261074E+00  7.72261074E+00 -1.54452215E+01  7.72261074E+00
  7.72261074E+00 -1.54452215E+01  7.72261074E+00  7.72261074E+00 -1.54452215E+01
  7.72261074E+00  7.72261074E+00 -1.54452215E+01  7.72261074E+00  7.72261074E+00
 -1.54452215E+01  7.72261074E+00  7.72261074E+00 -1.54452215E+01  7.72261074E+00
  7.72261074E+00 -1.54452215E+01  7.72261074E+00  7.72261074E+00 -1.54452215E+01
  7.72261074E+00  7.72261074E+00 -1.54452215E+01  7.72261074E+00  7.72261074E+00
 -1.54452215E+01  7.72261074E+00  7.72261074E+00 -1.54452215E+01  7.72261074E+00
  7.72261074E+00 -1.54452215E+01  7.72261074E+00  7.72261074E+00 -1.54452215E+01
  7.72261074E+00  7.72261074E+00 -1.54452215E+01  7.72261074E+00  7.72261074E+00
 -1.54452215E+01  7.72261074E+00  7.72261074E+00 -1.54452215E+01  7.72261074E+00
  7.72261074E+00 -1.54452215E+01  7.72261074E+00  7.72261074E+00 -1.54452215E+01
  7.72261074E+00  7.72261074E+00 -1.54452215E+01  7.72261074E+00  7.72261074E+00
 -1.54452215E+01  7.72261074E+00  7.72261074E+00 -1.54452215E+01  7.72261074E+00
  7.72261074E+00 -1.54452215E+01  7.72261074E+00  7.72261074E+00 -1.54452215E+01
  7.72261074E+00  7.72261074E+00 -1.54452215E+01  7.72261074E+00  7.72261074E+00
 -1.54452215E+01  7.72261074E+00  7.72261074E+00 -1.54452215E+01  7.72261074E+00
  7.72261074E+00 -1.54452215E+01  7.72261074E+00  7.72261074E+00 -1.54452215E+01
  7.72261074E+00  7.72261074E+00 -1.54452215E+01  7.72261074E+00  7.72261074E+00
 -1.54452215E+01  7.72261074E+00  7.72261074E+00 -1.54452215E+01  7.72261074E+00
  7.72261074E+00 -1.54452215E+01  7.72261074E+00  7.72261074E+00 -1.54452215E+01
  7.72261074E+00  7.72261074E+00 -1.54452215E+01  7.72261074E+00  7.72261074E+00
 -1.54452215E+01  7.72261074E+00  7.72261074E+00 -1.54452215E+01  7.72261074E+00
  7.72261074E+00 -1.54452215E+01  7.72261074E+00  7.72261074E+00 -1.54452215E+01
  7.72261074E+00  7.72261074E+00 -1.54452215E+01  7.72261074E+00  7.72261074E+00
 -1.54452215E+01  7.72261074E+00  7.72261074E+00 -1.54452215E+01  7.72261074E+00
  7.72261074E+00 -1.54452215E+01  7.72261074E+00  7.72261074E+00 -1.54452215E+01
  7.72261074E+00  7.72261074E+00 -1.54452215E+01  7.72261074E+00  7.72261074E+00
 -1.54452215E+01  7.72261074E+00  7.72261074E+00 -1.54452215E+01  7.72261074E+00
  7.72261074E+00 -1.54452215E+01  7.72261074E+00  7.72261074E+00 -1.54452215E+01
  7.72261074E+00  7.72261074E+00 -1.54452215E+01  7.72261074E+00  7.72261074E+00
 -1.54452215E+01  7.72261074E+00  7.72261074E+00 -1.54452215E+01  7.72261074E+00
  7.72261074E+00 -1.54452215E+01  7.72261074E+00  7.72261074E+00 -1.54452215E+01
  7.72261074E+00  7.72261074E+00 -1.54452215E+01  7.72261074E+00  7.72261074E+00
 -1.54452215E+01  7.72261074E+00  7.72261074E+00 -1.54452215E+01  7.72261074E+00
  7.72261074E+00 -1.54452215E+01  7.72261074E+00  7.72261074E+00 -1.54452215E+01
  7.72261074E+00  7.72261074E+00 -1.54452215E+01  7.72261074E+00  7.72261074E+00
 -1.54452215E+01  7.72261074E+00  7.72261074E+00 -1.54452215E+01  7.72261074E+00
  7.72261074E+00 -1.54452215E+01  7.72261074E+00  7.72261074E+00 -1.54452215E+01
  7.72261074E+00  7.72261074E+00 -1.54452215E+01  7.72261074E+00  7.72261074E+00
 -1.54452215E+01  7.72261074E+00  7.72261074E+00 -1.54452215E+01  7.72261074E+00
  7.72261074E+00 -1.54452215E+01  7.72261074E+00  7.72261074E+00 -1.54452215E+01
  7.72261074E+00  7.72261074E+00 -1.54452215E+01  7.72261074E+00  7.72261074E+00
 -1.54452215E+01  7.72261074E+00  7.72261074E+00 -1.54452215E+01  7.72261074E+00
  7.72261074E+00 -1.54452215E+01  7.72261074E+00  7.72261074E+00 -1.54452215E+01
  7.72261074E+00  7.72261074E+00 -1.54452215E+01  7.72261074E+00  7.72261074E+00
 -1.54452215E+01  7.72261074E+00  7.72261074E+00 -1.54452215E+01  7.72261074E+00
  7.72261074E+00 -1.54452215E+01  7.72261074E+00  7.72261074E+00 -1.54452215E+01
  7.72261074E+00  7.72261074E+00 -1.54452215E+01  7.72261074E+00  7.72261074E+00
 -1.54452215E+01  7.72261074E+00  7.72261074E+00 -1.54452215E+01  7.72261074E+00
  7.72261074E+00 -1.54452215E+01  7.72261074E+00  7.72261074E+00 -1.54452215E+01
  7.72261074E+00  7.72261074E+00 -1.54452215E+01  7.72261074E+00  7.72261074E+00
 -1.54452215E+01  7.72261074E+00  7.72261074E+00 -1.54452215E+01  7.72261074E+00
  7.72261074E+00 -1.54452215E+01  7.72261074E+00  7.72261074E+00 -1.54452215E+01
  7.72261074E+00  7.72261074E+00 -1.54452215E+01  7.72261074E+00  7.72261074E+00
 -1.54452215E+01  7.72261074E+00  7.72261074E+00 -1.54452215E+01  7.72261074E+00
  7.72261074E+00 -1.54452215E+01  7.72261074E+00  7.72261074E+00 -1.54452215E+01
  7.72261074E+00  7.72261074E+00 -1.54452215E+01  7.72261074E+00  7.72261074E+00
 -1.54452215E+01  7.72261074E+00  7.72261074E+00 -1.54452215E+01  7.72261074E+00
  7.72261074E+00 -1.54452215E+01  7.72261074E+00  7.72261074E+00 -1.54452215E+01
  7.72261074E+00  7.72261074E+00 -1.54452215E+01  7.72261074E+00  7.72261074E+00
 -1.54452215E+01  7.72261074E+00  7.72261074E+00 -1.54452215E+01  7.72261074E+00
  7.72261074E+00 -1.54452215E+01  7.72261074E+00  7.72261074E+00 -1.54452215E+01
  7.72261074E+00  7.72261074E+00 -1.54452215E+01  7.72261074E+00  7.72261074E+00
 -1.54452215E+01  7.72261074E+00  7.72261074E+00 -1.54452215E+01  7.72261074E+00
  7.72261074E+00 -1.54452215E+01  7.72261074E+00  7.72261074E+00 -1.54452215E+01
  7.72261074E+00  7.72261074E+00 -1.54452215E+01  7.72261074E+00  7.72261074E+00
 -1.54452215E+01  7.72261074E+00  7.72261074E+00 -1.54452215E+01  7.72261074E+00
  7.72261074E+00 -1.54452215E+01  7.72261074E+00  7.72261074E+00 -1.54452215E+01
  7.72261074E+00  7.72261074E+00 -1.54452215E+01  7.72261074E+00  7.72261074E+00
 -1.54452215E+01  7.72261074E+00  7.72261074E+00 -1.54452215E+01  7.72261074E+00
  7.72261074E+00 -1.54452215E+01  7.72261074E+00  7.72261074E+00 -1.54452215E+01
  7.72261074E+00  7.72261074E+00 -1.54452215E+01  7.72261074E+00  7.72261074E+00
 -1.54452215E+01  7.72261074E+00  7.72261074E+00 -1.54452215E+01  7.72261074E+00
  7.72261074E+00 -1.54452215E+01  7.72261074E+00  7.72261074E+00 -1.54452215E+01
  7.72261074E+00  7.72261074E+00 -1.54452215E+01  7.72261074E+00  7.72261074E+00
 -1.54452215E+01  7.72261074E+00  7.72261074E+00 -1.54452215E+01  7.72261074E+00
  7.72261074E+00 -1.54452215E+01  7.72261074E+00  7.72261074E+00 -1.54452215E+01
  7.72261074E+00  7.72261074E+00 -1.54452215E+01  7.72261074E+00  7.72261074E+00
 -1.54452215E+01  7.72261074E+00  7.72261074E+00 -1.54452215E+01  7.72261074E+00
  7.72261074E+00 -1.54452215E+01  7.72261074E+00  7.72261074E+00 -1.54452215E+01
  7.72261074E+00  7.72261074E+00 -1.54452215E+01  7.72261074E+00  7.72261074E+00
 -1.54452215E+01  7.72261074E+00  7.72261074E+00 -1.54452215E+01  7.72261074E+00
  7.72261074E+00 -1.54452215E+01  7.72261074E+00  7.72261074E+00 -1.54452215E+01
  7.72261074E+00  7.72261074E+00 -1.54452215E+01  7.72261074E+00  7.72261074E+00
 -1.54452215E+01  7.72261074E+00  7.72261074E+00 -1.54452215E+01  7.72261074E+00
  7.72261074E+00 -1.54452215E+01  7.72261074E+00  7.72261074E+00 -1.54452215E+01
  7.72261074E+00  7.72261074E+00 -1.54452215E+01  7.72261074E+00  7.72261074E+00
 -1.54452215E+01  7.72261074E+00  7.72261074E+00 -1.54452215E+01  7.72261074E+00
  7.72261074E+00 -1.54452215E+01  7.72261074E+00  7.72261074E+00 -1.54452215E+01
  7.72261074E+00  7.72261074E+00 -1.54452215E+01  7.72261074E+00  7.72261074E+00
 -1.54452215E+01  7.72261074E+00  7.72261074E+00 -1.54452215E+01  7.72261074E+00
  7.72261074E+00 -1.54452215E+01  7.72261074E+00  7.72261074E+00 -1.54452215E+01
  7.72261074E+00  7.72261074E+00 -1.54452215E+01  7.72261074E+00  7.72261074E+00
 -1.54452215E+01  7.72261074E+00  7.72261074E+00 -1.54452215E+01  7.72261074E+00
  7.72261074E+00 -1.54452215E+01  7.72261074E+00  7.72261074E+00 -1.54452215E+01
  7.72261074E+00  7.72261074E+00 -1.54452215E+01  7.72261074E+00  7.72261074E+00
 -1.54452215E+01  7.72261074E+00  7.72261074E+00 -1.54452215E+01  7.72261074E+00
  7.72261074E+00 -1.54452215E+01  7.72261074E+00  7.72261074E+00 -1.54452215E+01
  7.72261074E+00  7.72261074E+00 -1.54452215E+01  7.72261074E+00  7.72261074E+00
 -1.54452215E+01  7.72261074E+00  7.72261074E+00 -1.54452215E+01  7.72261074E+00
  7.72261074E+00 -1.54452215E+01  7.72261074E+00  7.72261074E+00 -1.54452215E+01
  7.72261074E+00  7.72261074E+00 -1.54452215E+01  7.72261074E+00  7.72261074E+00
 -1.54452215E+01  7.72261074E+00  7.72261074E+00 -1.54452215E+01  7.72261074E+00
  7.72261074E+00 -1.54452215E+01  7.72261074E+00  7.72261074E+00 -1.54452215E+01
  7.72261074E+00  7.72261074E+00 -1.54452215E+01  7.72261074E+00  7.72261074E+00
 -1.54452215E+01  7.72261074E+00  7.72261074E+00 -1.54452215E+01  7.72261074E+00
  7.72261074E+00 -1.54452215E+01  7.72261074E+00  7.72261074E+00 -1.54452215E+01
  7.72261074E+00  7.72261074E+00 -1.54452215E+01  7.72261074E+00  7.72261074E+00
 -1.54452215E+01  7.72261074E+00  7.72261074E+00 -1.54452215E+01  7.72261074E+00
  7.72261074E+00 -1.54452215E+01  7.72261074E+00  7.72261074E+00 -1.54452215E+01
  7.72261074E+00  7.72261074E+00 -1.54452215E+01  7.72261074E+00  7.72261074E+00
 -1.54452215E+01  7.72261074E+00  7.72261074E+00 -1.54452215E+01  7.72261074E+00
  7.72261074E+00 -1.54452215E+01  7.72261074E+00  7.72261074E+00 -1.54452215E+01
  7.72261074E+00  7.72261074E+00 -1.54452215E+01  7.72261074E+00  7.72261074E+00
 -1.54452215E+01  7.72261074E+00  7.72261074E+00 -1.54452215E+01  7.72261074E+00
  7.72261074E+00 -1.54452215E+01  7.72261074E+00  7.72261074E+00 -1.54452215E+01
  7.72261074E+00  7.72261074E+00 -1.54452215E+01  7.72261074E+00  7.72261074E+00
 -1.54452215E+01  7.72261074E+00  7.72261074E+00 -1.54452215E+01  7.72261074E+00
  7.72261074E+00 -1.54452215E+01  7.72261074E+00  7.72261074E+00 -1.54452215E+01
  7.72261074E+00  7.72261074E+00 -1.54452215E+01  7.72261074E+00  7.72261074E+00
 -1.54452215E+01  7.72261074E+00  7.72261074E+00 -1.54452215E+01  7.72261074E+00
  7.72261074E+00 -1.54452215E+01  7.72261074E+00  7.72261074E+00 -1.54452215E+01
  7.72261074E+00  7.72261074E+00 -1.54452215E+01  7.72261074E+00  7.72261074E+00
 -1.54452215E+01  7.72261074E+00  7.72261074E+00 -1.54452215E+01  7.72261074E+00
  7.72261074E+00 -1.54452215E+01  7.72261074E+00  7.72261074E+00 -1.54452215E+01
  7.72261074E+00  7.72261074E+00 -1.54452215E+01  7.72261074E+00  7.72261074E+00
 -1.54452215E+01  7.72261074E+00  7.72261074E+00 -1.54452215E+01  7.72261074E+00
  7.72261074E+00 -1.54452215E+01  7.72261074E+00  7.72261074E+00 -1.54452215E+01
  7.72261074E+00  7.72261074E+00 -1.54452215E+01  7.72261074E+00  7.72261074E+00
 -1.54452215E+01  7.72261074E+00  7.72261074E+00 -1.54452215E+01  7.72261074E+00
  7.72261074E+00 -1.54452215E+01  7.72261074E+00  7.72261074E+00 -1.54452215E+01
  7.72261074E+00  7.72261074E+00 -1.54452215E+01  7.72261074E+00  7.72261074E+00
 -1.54452215E+01  7.72261074E+00  7.72261074E+00 -1.54452215E+01  7.72261074E+00
  7.72261074E+00 -1.54452215E+01  7.72261074E+00  7.72261074E+00 -1.54452215E+01
  7.72261074E+00  7.72261074E+00 -1.54452215E+01  7.72261074E+00  7.72261074E+00
 -1.54452215E+01  7.72261074E+00  7.72261074E+00 -1.54452215E+01  7.72261074E+00
  7.72261074E+00 -1.54452215E+01  7.72261074E+00  7.72261074E+00 -1.54452215E+01
  7.72261074E+00  7.72261074E+00 -1.54452215E+01  7.72261074E+00  7.72261074E+00
 -1.54452215E+01  7.72261074E+00  7.72261074E+00 -1.54452215E+01  7.72261074E+00
  7.72261074E+00 -1.54452215E+01  7.72261074E+00  7.72261074E+00 -1.54452215E+01
  7.72261074E+00  7.72261074E+00 -1.54452215E+01  7.72261074E+00  7.72261074E+00
 -1.54452215E+01  7.72261074E+00  7.72261074E+00 -1.54452215E+01  7.72261074E+00
  7.72261074E+00 -1.54452215E+01  7.72261074E+00  7.72261074E+00 -1.54452215E+01
  7.72261074E+00  7.72261074E+00 -1.54452215E+01  7.72261074E+00  7.72261074E+00
 -1.54452215E+01  7.72261074E+00  7.72261074E+00 -1.54452215E+01  7.72261074E+00
  7.72261074E+00 -1.54452215E+01  7.72261074E+00  7.72261074E+00 -1.54452215E+01
  7.72261074E+00  7.72261074E+00 -1.54452215E+01  7.72261074E+00  7.72261074E+00
 -1.54452215E+01  7.72261074E+00  7.72261074E+00 -1.54452215E+01  7.72261074E+00
  7.72261074E+00 -1.54452215E+01  7.72261074E+00  7.72261074E+00 -1.54452215E+01
  7.72261074E+00  7.72261074E+00 -1.54452215E+01  7.72261074E+00  7.72261074E+00
 -1.54452215E+01  7.72261074E+00  7.72261074E+00 -1.54452215E+01  7.72261074E+00
  7.72261074E+00 -1.54452215E+01  7.72261074E+00  7.72261074E+00 -1.54452215E+01
  7.72261074E+00  7.72261074E+00 -1.54452215E+01  7.72261074E+00  7.72261074E+00
 -1.54452215E+01  7.72261074E+00  7.72261074E+00 -1.54452215E+01  7.72261074E+00
  7.72261074E+00 -1.54452215E+01  7.72261074E+00  7.72261074E+00 -1.54452215E+01
  7.72261074E+00  7.72261074E+00 -1.54452215E+01  7.72261074E+00  7.72261074E+00
 -1.54452215E+01  7.72261074E+00  7.72261074E+00 -1.54452215E+01  7.72261074E+00
  7.72261074E+00 -1.54452215E+01  7.72261074E+00  7.72261074E+00 -1.54452215E+01
  7.72261074E+00  7.72261074E+00 -1.54452215E+01  7.72261074E+00  7.72261074E+00
 -1.54452215E+01  7.72261074E+00  7.72261074E+00 -1.54452215E+01  7.72261074E+00
  7.72261074E+00 -1.54452215E+01  7.72261074E+00  7.72261074E+00 -1.54452215E+01
  7.72261074E+00  7.72261074E+00 -1.54452215E+01  7.72261074E+00  7.72261074E+00
 -1.54452215E+01  7.72261074E+00  7.72261074E+00 -1.54452215E+01  7.72261074E+00
  7.72261074E+00 -1.54452215E+01  7.72261074E+00  7.72261074E+00 -1.54452215E+01
  7.72261074E+00  7.72261074E+00 -1.54452215E+01  7.72261074E+00  7.72261074E+00
 -1.54452215E+01  7.72261074E+00  7.72261074E+00 -1.54452215E+01  7.72261074E+00
  7.72261074E+00 -1.54452215E+01  7.72261074E+00  7.72261074E+00 -1.54452215E+01
  7.72261074E+00  7.72261074E+00 -1.54452215E+01  7.72261074E+00  7.72261074E+00
 -1.54452215E+01  7.72261074E+00  7.72261074E+00 -1.54452215E+01  7.72261074E+00
  7.72261074E+00 -1.54452215E+01  7.72261074E+00  7.72261074E+00 -1.54452215E+01
  7.72261074E+00  7.72261074E+00 -1.54452215E+01  7.72261074E+00  7.72261074E+00
 -1.54452215E+01  7.72261074E+00  7.72261074E+00 -1.54452215E+01  7.72261074E+00
  7.72261074E+00 -1.54452215E+01  7.72261074E+00  7.72261074E+00 -1.54452215E+01
  7.72261074E+00  7.72261074E+00 -1.54452215E+01  7.72261074E+00  7.72261074E+00
 -1.54452215E+01  7.72261074E+00  7.72261074E+00 -1.54452215E+01  7.72261074E+00
  7.72261074E+00 -1.54452215E+01  7.72261074E+00  7.72261074E+00 -1.54452215E+01
  7.72261074E+00  7.72261074E+00 -1.54452215E+01  7.72261074E+00  7.72261074E+00
 -1.54452215E+01  7.72261074E+00  7.72261074E+00 -1.54452215E+01  7.72261074E+00
  7.72261074E+00 -1.54452215E+01  7.72261074E+00  7.72261074E+00 -1.54452215E+01
  7.72261074E+00  7.72261074E+00 -1.54452215E+01  7.72261074E+00  7.72261074E+00
 -1.54452215E+01  7.72261074E+00  7.72261074E+00 -1.54452215E+01  7.72261074E+00
  7.72261074E+00 -1.54452215E+01  7.72261074E+00  7.72261074E+00 -1.54452215E+01
  7.72261074E+00  7.72261074E+00 -1.54452215E+01  7.72261074E+00  7.72261074E+00
 -1.54452215E+01  7.72261074E+00  7.72261074E+00 -1.54452215E+01  7.72261074E+00
  7.72261074E+00 -1.54452215E+01  7.72261074E+00  7.72261074E+00 -1.54452215E+01
  7.72261074E+00  7.72261074E+00 -1.54452215E+01  7.72261074E+00  7.72261074E+00
 -1.54452215E+01  7.72261074E+00  7.72261074E+00 -1.54452215E+01  7.72261074E+00
  7.72261074E+00 -1.54452215E+01  7.72261074E+00  7.72261074E+00 -1.54452215E+01
  7.72261074E+00  7.72261074E+00 -1.54452215E+01  7.72261074E+00  7.72261074E+00
 -1.54452215E+01  7.72261074E+00  7.72261074E+00 -1.54452215E+01  7.72261074E+00
  7.72261074E+00 -1.54452215E+01  7.72261074E+00  7.72261074E+00 -1.54452215E+01
  7.72261074E+00  7.72261074E+00 -1.54452215E+01  7.72261074E+00  7.72261074E+00
 -1.54452215E+01  7.72261074E+00  7.72261074E+00 -1.54452215E+01  7.72261074E+00
  7.72261074E+00 -1.54452215E+01  7.72261074E+00  7.72261074E+00 -1.54452215E+01
  7.72261074E+00  7.72261074E+00 -1.54452215E+01  7.72261074E+00  7.72261074E+00
 -1.54452215E+01  7.72261074E+00  7.72261074E+00 -1.54452215E+01  7.72261074E+00
  7.72261074E+00 -1.54452215E+01  7.72261074E+00  7.72261074E+00 -1.54452215E+01
  7.72261074E+00  7.72261074E+00 -1.54452215E+01  7.72261074E+00  7.72261074E+00
 -1.54452215E+01  7.72261074E+00  7.72261074E+00 -1.54452215E+01  7.72261074E+00
  7.72261074E+00 -1.54452215E+01  7.72261074E+00  7.72261074E+00 -1.54452215E+01
  7.72261074E+00  7.72261074E+00 -1.54452215E+01  7.72261074E+00  7.72261074E+00
 -1.54452215E+01  7.72261074E+00  7.72261074E+00 -1.54452215E+01  7.72261074E+00
  7.72261074E+00 -1.54452215E+01  7.72261074E+00  7.72261074E+00 -1.54452215E+01
  7.72261074E+00  7.72261074E+00 -1.54452215E+01  7.72261074E+00  7.72261074E+00
 -1.54452215E+01  7.72261074E+00  7.72261074E+00 -1.54452215E+01  7.72261074E+00
  7.72261074E+00 -1.54452215E+01  7.72261074E+00  7.72261074E+00 -1.54452215E+01
  7.72261074E+00  7.72261074E+00 -1.54452215E+01  7.72261074E+00  7.72261074E+00
 -1.54452215E+01  7.72261074E+00  7.72261074E+00 -1.54452215E+01  7.72261074E+00
  7.72261074E+00 -1.54452215E+01  7.72261074E+00  7.72261074E+00 -1.54452215E+01
  7.72261074E+00  7.72261074E+00 -1.54452215E+01  7.72261074E+00  7.72261074E+00
 -1.54452215E+01  7.72261074E+00  7.72261074E+00 -1.54452215E+01  7.72261074E+00
  7.72261074E+00 -1.54452215E+01  7.72261074E+00  7.72261074E+00 -1.54452215E+01
  7.72261074E+00  7.72261074E+00 -1.54452215E+01  7.72261074E+00  7.72261074E+00
 -1.54452215E+01  7.72261074E+00  7.72261074E+00 -1.54452215E+01  7.72261074E+00
  7.72261074E+00 -1.54452215E+01  7.72261074E+00  7.72261074E+00 -1.54452215E+01
  7.72261074E+00  7.72261074E+00 -1.54452215E+01  7.72261074E+00  7.72261074E+00
 -1.54452215E+01  7.72261074E+00  7.72261074E+00 -1.54452215E+01  7.72261074E+00
  7.72261074E+00 -1.54452215E+01  7.72261074E+00  7.72261074E+00 -1.54452215E+01
  7.72261074E+00  7.72261074E+00 -1.54452215E+01  7.72261074E+00  7.72261074E+00
 -1.54452215E+01  7.72261074E+00  7.72261074E+00 -1.54452215E+01  7.72261074E+00
  7.72261074E+00 -1.54452215E+01  7.72261074E+00  7.72261074E+00 -1.54452215E+01
  7.72261074E+00  7.72261074E+00 -1.54452215E+01  7.72261074E+00  7.72261074E+00
 -1.54452215E+01  7.72261074E+00  7.72261074E+00 -1.54452215E+01  7.72261074E+00
  7.72261074E+00 -1.54452215E+01  7.72261074E+00  7.72261074E+00 -1.54452215E+01
  7.72261074E+00  7.72261074E+00 -1.54452215E+01  7.72261074E+00  7.72261074E+00
 -1.54452215E+01  7.72261074E+00  7.72261074E+00 -1.54452215E+01  7.72261074E+00
  7.72261074E+00 -1.54452215E+01  7.72261074E+00  7.72261074E+00 -1.54452215E+01
  7.72261074E+00  7.72261074E+00 -1.54452215E+01  7.72261074E+00  7.72261074E+00
 -1.54452215E+01  7.72261074E+00  7.72261074E+00 -1.54452215E+01  7.72261074E+00
  7.72261074E+00 -1.54452215E+01  7.72261074E+00  7.72261074E+00 -1.54452215E+01
  7.72261074E+00  7.72261074E+00 -1.54452215E+01  7.72261074E+00  7.72261074E+00
 -1.54452215E+01  7.72261074E+00  7.72261074E+00 -1.54452215E+01  7.72261074E+00
  7.72261074E+00 -1.54452215E+01  7.72261074E+00  7.72261074E+00 -1.54452215E+01
  7.72261074E+00  7.72261074E+00 -1.54452215E+01  7.72261074E+00  7.72261074E+00
 -1.54452215E+01  7.72261074E+00  7.72261074E+00 -1.54452215E+01  7.72261074E+00
  7.72261074E+00 -1.54452215E+01  7.72261074E+00  7.72261074E+00 -1.54452215E+01
  7.72261074E+00  7.72261074E+00 -1.54452215E+01  7.72261074E+00  7.72261074E+00
 -1.54452215E+01  7.72261074E+00  7.72261074E+00 -1.54452215E+01  7.72261074E+00
  7.72261074E+00 -1.54452215E+01  7.72261074E+00  7.72261074E+00 -1.54452215E+01
  7.72261074E+00  7.72261074E+00 -1.54452215E+01  7.72261074E+00  7.72261074E+00
 -1.54452215E+01  7.72261074E+00  7.72261074E+00 -1.54452215E+01  7.72261074E+00
  7.72261074E+00 -1.54452215E+01  7.72261074E+00  7.72261074E+00 -1.54452215E+01
  7.72261074E+00  7.72261074E+00 -1.54452215E+01  7.72261074E+00  7.72261074E+00
 -1.54452215E+01  7.72261074E+00  7.72261074E+00 -1.54452215E+01  7.72261074E+00
  7.72261074E+00 -1.54452215E+01  7.72261074E+00  7.72261074E+00 -1.54452215E+01
  7.72261074E+00  7.72261074E+00 -1.54452215E+01  7.72261074E+00  7.72261074E+00
 -1.54452215E+01  7.72261074E+00  7.72261074E+00 -1.54452215E+01  7.72261074E+00
  7.72261074E+00 -1.54452215E+01  7.72261074E+00  7.72261074E+00 -1.54452215E+01
  7.72261074E+00  7.72261074E+00 -1.54452215E+01  7.72261074E+00  7.72261074E+00
 -1.54452215E+01  7.72261074E+00  7.72261074E+00 -1.54452215E+01  7.72261074E+00
  7.72261074E+00 -1.54452215E+01  7.72261074E+00  7.72261074E+00 -1.54452215E+01
  7.72261074E+00  7.72261074E+00 -1.54452215E+01  7.72261074E+00  7.72261074E+00
 -1.54452215E+01  7.72261074E+00  7.72261074E+00 -1.54452215E+01  7.72261074E+00
  7.72261074E+00 -1.54452215E+01  7.72261074E+00  7.72261074E+00 -1.54452215E+01
  7.72261074E+00  7.72261074E+00 -1.54452215E+01  7.72261074E+00  7.72261074E+00
 -1.54452215E+01  7.72261074E+00  7.72261074E+00 -1.54452215E+01  7.72261074E+00
  7.72261074E+00 -1.54452215E+01  7.72261074E+00  7.72261074E+00 -1.54452215E+01
  7.72261074E+00  7.72261074E+00 -1.54452215E+01  7.72261074E+00  7.72261074E+00
 -1.54452215E+01  7.72261074E+00  7.72261074E+00 -1.54452215E+01  7.72261074E+00
  7.72261074E+00 -1.54452215E+01  7.72261074E+00  7.72261074E+00 -1.54452215E+01
  7.72261074E+00  7.72261074E+00 -1.54452215E+01  7.72261074E+00  7.72261074E+00
 -1.54452215E+01  7.72261074E+00  7.72261074E+00 -1.54452215E+01  7.72261074E+00
  7.72261074E+00 -1.54452215E+01  7.72261074E+00  7.72261074E+00 -1.54452215E+01
  7.72261074E+00  7.72261074E+00 -1.54452215E+01  7.72261074E+00  7.72261074E+00
 -1.54452215E+01  7.72261074E+00  7.72261074E+00 -1.54452215E+01  7.72261074E+00
  7.72261074E+00 -1.54452215E+01  7.72261074E+00  7.72261074E+00 -1.54452215E+01
  7.72261074E+00  7.72261074E+00 -1.54452215E+01  7.72261074E+00  7.72261074E+00
 -1.54452215E+01  7.72261074E+00  7.72261074E+00 -1.54452215E+01  7.72261074E+00
  7.72261074E+00 -1.54452215E+01  7.72261074E+00  7.72261074E+00 -1.54452215E+01
  7.72261074E+00  7.72261074E+00 -1.54452215E+01  7.72261074E+00  7.72261074E+00
 -1.54452215E+01  7.72261074E+00  7.72261074E+00 -1.54452215E+01  7.72261074E+00
  7.72261074E+00 -1.54452215E+01  7.72261074E+00  7.72261074E+00 -1.54452215E+01
  7.72261074E+00  7.72261074E+00 -1.54452215E+01  7.72261074E+00  7.72261074E+00
 -1.54452215E+01  7.72261074E+00  7.72261074E+00 -1.54452215E+01  7.72261074E+00
  7.72261074E+00 -1.54452215E+01  7.72261074E+00  7.72261074E+00 -1.54452215E+01
  7.72261074E+00  7.72261074E+00 -1.54452215E+01  7.72261074E+00  7.72261074E+00
 -1.54452215E+01  7.72261074E+00  7.72261074E+00 -1.54452215E+01  7.72261074E+00
  7.72261074E+00 -1.54452215E+01  7.72261074E+00  7.72261074E+00 -1.54452215E+01
  7.72261074E+00  7.72261074E+00 -1.54452215E+01  7.72261074E+00  7.72261074E+00
 -1.54452215E+01  7.72261074E+00  7.72261074E+00 -1.54452215E+01  7.72261074E+00
  7.72261074E+00 -1.54452215E+01  7.72261074E+00  7.72261074E+00 -1.54452215E+01
  7.72261074E+00  7.72261074E+00 -1.54452215E+01  7.72261074E+00  7.72261074E+00
 -1.54452215E+01  7.72261074E+00  7.72261074E+00 -1.54452215E+01  7.72261074E+00
  7.72261074E+00 -1.54452215E+01  7.72261074E+00  7.72261074E+00 -1.54452215E+01
  7.72261074E+00  7.72261074E+00 -1.54452215E+01  7.72261074E+00  7.72261074E+00
 -1.54452215E+01  7.72261074E+00  7.72261074E+00 -1.54452215E+01  7.72261074E+00
  7.72261074E+00 -1.54452215E+01  7.72261074E+00  7.72261074E+00 -1.54452215E+01
  7.72261074E+00  7.72261074E+00 -1.54452215E+01  7.72261074E+00  7.72261074E+00
 -1.54452215E+01  7.72261074E+00  7.72261074E+00 -1.54452215E+01  7.72261074E+00
  7.72261074E+00 -1.54452215E+01  7.72261074E+00  7.72261074E+00 -1.54452215E+01
  7.72261074E+00  7.72261074E+00 -1.54452215E+01  7.72261074E+00  7.72261074E+00
 -1.54452215E+01  7.72261074E+00  7.72261074E+00 -1.54452215E+01  7.72261074E+00
  7.72261074E+00 -1.54452215E+01  7.72261074E+00  7.72261074E+00 -1.54452215E+01
  7.72261074E+00  7.72261074E+00 -1.54452215E+01  7.72261074E+00  7.72261074E+00
 -1.54452215E+01  7.72261074E+00  7.72261074E+00 -1.54452215E+01  7.72261074E+00
  7.72261074E+00 -1.54452215E+01  7.72261074E+00  7.72261074E+00 -1.54452215E+01
  7.72261074E+00  7.72261074E+00 -1.54452215E+01  7.72261074E+00  7.72261074E+00
 -1.54452215E+01  7.72261074E+00  7.72261074E+00 -1.54452215E+01  7.72261074E+00
  7.72261074E+00 -1.54452215E+01  7.72261074E+00  7.72261074E+00 -1.54452215E+01
  7.72261074E+00  7.72261074E+00 -1.54452215E+01  7.72261074E+00  7.72261074E+00
 -1.54452215E+01  7.72261074E+00  7.72261074E+00 -1.54452215E+01  7.72261074E+00
  7.72261074E+00 -1.54452215E+01  7.72261074E+00  7.72261074E+00 -1.54452215E+01
  7.72261074E+00  7.72261074E+00 -1.54452215E+01  7.72261074E+00  7.72261074E+00
 -1.54452215E+01  7.72261074E+00  7.72261074E+00 -1.54452215E+01  7.72261074E+00
  7.72261074E+00 -1.54452215E+01  7.72261074E+00  7.72261074E+00 -1.54452215E+01
  7.72261074E+00  7.72261074E+00 -1.54452215E+01  7.72261074E+00  7.72261074E+00
 -1.54452215E+01  7.72261074E+00  7.72261074E+00 -1.54452215E+01  7.72261074E+00
  7.72261074E+00 -1.54452215E+01  7.72261074E+00  7.72261074E+00 -1.54452215E+01
  7.72261074E+00  7.72261074E+00 -1.54452215E+01  7.72261074E+00  7.72261074E+00
 -1.54452215E+01  7.72261074E+00  7.72261074E+00 -1.54452215E+01  7.72261074E+00
  7.72261074E+00 -1.54452215E+01  7.72261074E+00  7.72261074E+00 -1.54452215E+01
  7.72261074E+00  7.72261074E+00 -1.54452215E+01  7.72261074E+00  7.72261074E+00
 -1.54452215E+01  7.72261074E+00  7.72261074E+00 -1.54452215E+01  7.72261074E+00
  7.72261074E+00 -1.54452215E+01  7.72261074E+00  7.72261074E+00 -1.54452215E+01
  7.72261074E+00  7.72261074E+00 -1.54452215E+01  7.72261074E+00  7.72261074E+00
 -1.54452215E+01  7.72261074E+00  7.72261074E+00 -1.54452215E+01  7.72261074E+00
  7.72261074E+00 -1.54452215E+01  7.72261074E+00  7.72261074E+00 -1.54452215E+01
  7.72261074E+00  7.72261074E+00 -1.54452215E+01  7.72261074E+00  7.72261074E+00
 -1.54452215E+01  7.72261074E+00  7.72261074E+00 -1.54452215E+01  7.72261074E+00
  7.72261074E+00 -1.54452215E+01  7.72261074E+00  7.72261074E+00 -1.54452215E+01
  7.72261074E+00  7.72261074E+00 -1.54452215E+01  7.72261074E+00  7.72261074E+00
 -1.54452215E+01  7.72261074E+00  7.72261074E+00 -1.54452215E+01  7.72261074E+00
  7.72261074E+00 -1.54452215E+01  7.72261074E+00  7.72261074E+00 -1.54452215E+01
  7.72261074E+00  7.72261074E+00 -1.54452215E+01  7.72261074E+00  7.72261074E+00
 -1.54452215E+01  7.72261074E+00  7.72261074E+00 -1.54452215E+01  7.72261074E+00
  7.72261074E+00 -1.54452215E+01  7.72261074E+00  7.72261074E+00 -1.54452215E+01
  7.72261074E+00  7.72261074E+00 -1.54452215E+01  7.72261074E+00  7.72261074E+00
 -1.54452215E+01  7.72261074E+00  7.72261074E+00 -1.54452215E+01  7.72261074E+00
  7.72261074E+00 -1.54452215E+01  7.72261074E+00  7.72261074E+00 -1.54452215E+01
  7.72261074E+00  7.72261074E+00 -1.54452215E+01  7.72261074E+00  7.72261074E+00
 -1.54452215E+01  7.72261074E+00  7.72261074E+00 -1.54452215E+01  7.72261074E+00
  7.72261074E+00 -1.54452215E+01  7.72261074E+00  7.72261074E+00 -1.54452215E+01
  7.72261074E+00  7.72261074E+00 -1.54452215E+01  7.72261074E+00  7.72261074E+00
 -1.54452215E+01  7.72261074E+00  7.72261074E+00 -1.54452215E+01  7.72261074E+00
  7.72261074E+00 -1.54452215E+01  7.72261074E+00  7.72261074E+00 -1.54452215E+01
  7.72261074E+00  7.72261074E+00 -1.54452215E+01  7.72261074E+00  7.72261074E+00
 -1.54452215E+01  7.72261074E+00  7.72261074E+00 -1.54452215E+01  7.72261074E+00
  7.72261074E+00 -1.54452215E+01  7.72261074E+00  7.72261074E+00 -1.54452215E+01
  7.72261074E+00  7.72261074E+00 -1.54452215E+01  7.72261074E+00  7.72261074E+00
 -1.54452215E+01  7.72261074E+00  7.72261074E+00 -1.54452215E+01  7.72261074E+00
  7.72261074E+00 -1.54452215E+01  7.72261074E+00  7.72261074E+00 -1.54452215E+01
  7.72261074E+00  7.72261074E+00 -1.54452215E+01  7.72261074E+00  7.72261074E+00
 -1.54452215E+01  7.72261074E+00  7.72261074E+00 -1.54452215E+01  7.72261074E+00
  7.72261074E+00 -1.54452215E+01  7.72261074E+00  7.72261074E+00 -1.54452215E+01
  7.72261074E+00  7.72261074E+00 -1.54452215E+01  7.72261074E+00  7.72261074E+00
 -1.54452215E+01  7.72261074E+00  7.72261074E+00 -1.54452215E+01  7.72261074E+00
  7.72261074E+00 -1.54452215E+01  7.72261074E+00  7.72261074E+00 -1.54452215E+01
  7.72261074E+00  7.72261074E+00 -1.54452215E+01  7.72261074E+00  7.72261074E+00
 -1.54452215E+01  7.72261074E+00  7.72261074E+00 -1.54452215E+01  7.72261074E+00
  7.72261074E+00 -1.54452215E+01  7.72261074E+00  7.72261074E+00 -1.54452215E+01
  7.72261074E+00  7.72261074E+00 -1.54452215E+01  7.72261074E+00  7.72261074E+00
 -1.54452215E+01  7.72261074E+00  7.72261074E+00 -1.54452215E+01  7.72261074E+00
  7.72261074E+00 -1.54452215E+01  7.72261074E+00  7.72261074E+00 -1.54452215E+01
  7.72261074E+00  7.72261074E+00 -1.54452215E+01  7.72261074E+00  7.72261074E+00
 -1.54452215E+01  7.72261074E+00  7.72261074E+00 -1.54452215E+01  7.72261074E+00
  7.72261074E+00 -1.54452215E+01  7.72261074E+00  7.72261074E+00 -1.54452215E+01
  7.72261074E+00  7.72261074E+00 -1.54452215E+01  7.72261074E+00  7.72261074E+00
 -1.54452215E+01  7.72261074E+00  7.72261074E+00 -1.54452215E+01  7.72261074E+00
  7.72261074E+00 -1.54452215E+01  7.72261074E+00  7.72261074E+00 -1.54452215E+01
  7.72261074E+00  7.72261074E+00 -1.54452215E+01  7.72261074E+00  7.72261074E+00
 -1.54452215E+01  7.72261074E+00  7.72261074E+00 -1.54452215E+01  7.72261074E+00
  7.72261074E+00 -1.54452215E+01  7.72261074E+00  7.72261074E+00 -1.54452215E+01
  7.72261074E+00  7.72261074E+00 -1.54452215E+01  7.72261074E+00  7.72261074E+00
 -1.54452215E+01  7.72261074E+00  7.72261074E+00 -1.54452215E+01  7.72261074E+00
  7.72261074E+00 -1.54452215E+01  7.72261074E+00  7.72261074E+00 -1.54452215E+01
  7.72261074E+00  7.72261074E+00 -1.54452215E+01  7.72261074E+00  7.72261074E+00
 -1.54452215E+01  7.72261074E+00  7.72261074E+00 -1.54452215E+01  7.72261074E+00
  7.72261074E+00 -1.54452215E+01  7.72261074E+00  7.72261074E+00 -1.54452215E+01
  7.72261074E+00  7.72261074E+00 -1.54452215E+01  7.72261074E+00  7.72261074E+00
 -1.54452215E+01  7.72261074E+00  7.72261074E+00 -1.54452215E+01  7.72261074E+00
  7.72261074E+00 -1.54452215E+01  7.72261074E+00  7.72261074E+00 -1.54452215E+01
  7.72261074E+00  7.72261074E+00 -1.54452215E+01  7.72261074E+00  7.72261074E+00
 -1.54452215E+01  7.72261074E+00  7.72261074E+00 -1.54452215E+01  7.72261074E+00
  7.72261074E+00 -1.54452215E+01  7.72261074E+00  7.72261074E+00 -1.54452215E+01
  7.72261074E+00  7.72261074E+00 -1.54452215E+01  7.72261074E+00  7.72261074E+00
 -1.54452215E+01  7.72261074E+00  7.72261074E+00 -1.54452215E+01  7.72261074E+00
  7.72261074E+00 -1.54452215E+01  7.72261074E+00  7.72261074E+00 -1.54452215E+01
  7.72261074E+00  7.72261074E+00 -1.54452215E+01  7.72261074E+00  7.72261074E+00
 -1.54452215E+01  7.72261074E+00  7.72261074E+00 -1.54452215E+01  7.72261074E+00
  7.72261074E+00 -1.54452215E+01  7.72261074E+00  7.72261074E+00 -1.54452215E+01
  7.72261074E+00  7.72261074E+00 -1.54452215E+01  7.72261074E+00  7.72261074E+00
 -1.54452215E+01  7.72261074E+00  7.72261074E+00 -1.54452215E+01  7.72261074E+00
  7.72261074E+00 -1.54452215E+01  7.72261074E+00  7.72261074E+00 -1.54452215E+01
  7.72261074E+00  7.72261074E+00 -1.54452215E+01  7.72261074E+00  7.72261074E+00
 -1.54452215E+01  7.72261074E+00  7.72261074E+00 -1.54452215E+01  7.72261074E+00
  7.72261074E+00 -1.54452215E+01  7.72261074E+00  7.72261074E+00 -1.54452215E+01
  7.72261074E+00  7.72261074E+00 -1.54452215E+01  7.72261074E+00  7.72261074E+00
 -1.54452215E+01  7.72261074E+00  7.72261074E+00 -1.54452215E+01  7.72261074E+00
  7.72261074E+00 -1.54452215E+01  7.72261074E+00  7.72261074E+00 -1.54452215E+01
  7.72261074E+00  7.72261074E+00 -1.54452215E+01  7.72261074E+00  7.72261074E+00
 -1.54452215E+01  7.72261074E+00  7.72261074E+00 -1.54452215E+01  7.72261074E+00
  7.72261074E+00 -1.54452215E+01  7.72261074E+00  7.72261074E+00 -1.54452215E+01
  7.72261074E+00  7.72261074E+00 -1.54452215E+01  7.72261074E+00  7.72261074E+00
 -1.54452215E+01  7.72261074E+00  7.72261074E+00 -1.54452215E+01  7.72261074E+00
  7.72261074E+00 -1.54452215E+01  7.72261074E+00  7.72261074E+00 -1.54452215E+01
  7.72261074E+00  7.72261074E+00 -1.54452215E+01  7.72261074E+00  7.72261074E+00
 -1.54452215E+01  7.72261074E+00  7.72261074E+00 -1.54452215E+01  7.72261074E+00
  7.72261074E+00 -1.54452215E+01  7.72261074E+00  7.72261074E+00 -1.54452215E+01
  7.72261074E+00  7.72261074E+00 -1.54452215E+01  7.72261074E+00  7.72261074E+00
 -1.54452215E+01  7.72261074E+00  7.72261074E+00 -1.54452215E+01  7.72261074E+00
  7.72261074E+00 -1.54452215E+01  7.72261074E+00  7.72261074E+00 -1.54452215E+01
  7.72261074E+00  7.72261074E+00 -1.54452215E+01  7.72261074E+00  7.72261074E+00
 -1.54452215E+01  7.72261074E+00  7.72261074E+00 -1.54452215E+01  7.72261074E+00
  7.72261074E+00 -1.54452215E+01  7.72261074E+00  7.72261074E+00 -1.54452215E+01
  7.72261074E+00  7.72261074E+00 -1.54452215E+01  7.72261074E+00  7.72261074E+00
 -1.54452215E+01  7.72261074E+00  7.72261074E+00 -1.54452215E+01  7.72261074E+00
  7.72261074E+00 -1.54452215E+01  7.72261074E+00  7.72261074E+00 -1.54452215E+01
  7.72261074E+00  7.72261074E+00 -1.54452215E+01  7.72261074E+00  7.72261074E+00
 -1.54452215E+01  7.72261074E+00  7.72261074E+00 -1.54452215E+01  7.72261074E+00
  7.72261074E+00 -1.54452215E+01  7.72261074E+00  7.72261074E+00 -1.54452215E+01
  7.72261074E+00  7.72261074E+00 -1.54452215E+01  7.72261074E+00  7.72261074E+00
 -1.54452215E+01  7.72261074E+00  7.72261074E+00 -1.54452215E+01  7.72261074E+00
  7.72261074E+00 -1.54452215E+01  7.72261074E+00  7.72261074E+00 -1.54452215E+01
  7.72261074E+00  7.72261074E+00 -1.54452215E+01  7.72261074E+00  7.72261074E+00
 -1.54452215E+01  7.72261074E+00  7.72261074E+00 -1.54452215E+01  7.72261074E+00
  7.72261074E+00 -1.54452215E+01  7.72261074E+00  7.72261074E+00 -1.54452215E+01
  7.72261074E+00  7.72261074E+00 -1.54452215E+01  7.72261074E+00  7.72261074E+00
 -1.54452215E+01  7.72261074E+00  7.72261074E+00 -1.54452215E+01  7.72261074E+00
  7.72261074E+00 -1.54452215E+01  7.72261074E+00  7.72261074E+00 -1.54452215E+01
  7.72261074E+00  7.72261074E+00 -1.54452215E+01  7.72261074E+00  7.72261074E+00
 -1.54452215E+01  7.72261074E+00  7.72261074E+00 -1.54452215E+01  7.72261074E+00
  7.72261074E+00 -1.54452215E+01  7.72261074E+00  7.72261074E+00 -1.54452215E+01
  7.72261074E+00  7.72261074E+00 -1.54452215E+01  7.72261074E+00  7.72261074E+00
 -1.54452215E+01  7.72261074E+00  7.72261074E+00 -1.54452215E+01  7.72261074E+00
  7.72261074E+00 -1.54452215E+01  7.72261074E+00  7.72261074E+00 -1.54452215E+01
  7.72261074E+00  7.72261074E+00 -1.54452215E+01  7.72261074E+00  7.72261074E+00
 -1.54452215E+01  7.72261074E+00  7.72261074E+00 -1.54452215E+01  7.72261074E+00
  7.72261074E+00 -1.54452215E+01  7.72261074E+00  7.72261074E+00 -1.54452215E+01
  7.72261074E+00  7.72261074E+00 -1.54452215E+01  7.72261074E+00  7.72261074E+00
 -1.54452215E+01  7.72261074E+00  7.72261074E+00 -1.54452215E+01  7.72261074E+00
  7.72261074E+00 -1.54452215E+01  7.72261074E+00  7.72261074E+00 -1.54452215E+01
  7.72261074E+00  7.72261074E+00 -1.54452215E+01  7.72261074E+00  7.72261074E+00
 -1.54452215E+01  7.72261074E+00  7.72261074E+00 -1.54452215E+01  7.72261074E+00
  7.72261074E+00 -1.54452215E+01  7.72261074E+00  7.72261074E+00 -1.54452215E+01
  7.72261074E+00  7.72261074E+00 -1.54452215E+01  7.72261074E+00  7.72261074E+00
 -1.54452215E+01  7.72261074E+00  7.72261074E+00 -1.54452215E+01  7.72261074E+00
  7.72261074E+00 -1.54452215E+01  7.72261074E+00  7.72261074E+00 -1.54452215E+01
  7.72261074E+00  7.72261074E+00 -1.54452215E+01  7.72261074E+00  7.72261074E+00
 -1.54452215E+01  7.72261074E+00  7.72261074E+00 -1.54452215E+01  7.72261074E+00
  7.72261074E+00 -1.54452215E+01  7.72261074E+00  7.72261074E+00 -1.54452215E+01
  7.72261074E+00  7.72261074E+00 -1.54452215E+01  7.72261074E+00  7.72261074E+00
 -1.54452215E+01  7.72261074E+00  7.72261074E+00 -1.54452215E+01  7.72261074E+00
  7.72261074E+00 -1.54452215E+01  7.72261074E+00  7.72261074E+00 -1.54452215E+01
  7.72261074E+00  7.72261074E+00 -1.54452215E+01  7.72261074E+00  7.72261074E+00
 -1.54452215E+01  7.72261074E+00  7.72261074E+00 -1.54452215E+01  7.72261074E+00
  7.72261074E+00 -1.54452215E+01  7.72261074E+00  7.72261074E+00 -1.54452215E+01
  7.72261074E+00  7.72261074E+00 -1.54452215E+01  7.72261074E+00  7.72261074E+00
 -1.54452215E+01  7.72261074E+00  7.72261074E+00 -1.54452215E+01  7.72261074E+00
  7.72261074E+00 -1.54452215E+01  7.72261074E+00  7.72261074E+00 -1.54452215E+01
  7.72261074E+00  7.72261074E+00 -1.54452215E+01  7.72261074E+00  7.72261074E+00
 -1.54452215E+01  7.72261074E+00  7.72261074E+00 -1.54452215E+01  7.72261074E+00
  7.72261074E+00 -1.54452215E+01  7.72261074E+00  7.72261074E+00 -1.54452215E+01
  7.72261074E+00  7.72261074E+00 -1.54452215E+01  7.72261074E+00  7.72261074E+00
 -1.54452215E+01  7.72261074E+00  7.72261074E+00 -1.54452215E+01  7.72261074E+00
  7.72261074E+00 -1.54452215E+01  7.72261074E+00  7.72261074E+00 -1.54452215E+01
  7.72261074E+00  7.72261074E+00 -1.54452215E+01  7.72261074E+00  7.72261074E+00
 -1.54452215E+01  7.72261074E+00  7.72261074E+00 -1.54452215E+01  7.72261074E+00
  7.72261074E+00 -1.54452215E+01  7.72261074E+00  7.72261074E+00 -1.54452215E+01
  7.72261074E+00  7.72261074E+00 -1.54452215E+01  7.72261074E+00  7.72261074E+00
 -1.54452215E+01  7.72261074E+00  7.72261074E+00 -1.54452215E+01  7.72261074E+00
  7.72261074E+00 -1.54452215E+01  7.72261074E+00  7.72261074E+00 -1.54452215E+01
  7.72261074E+00  7.72261074E+00 -1.54452215E+01  7.72261074E+00  7.72261074E+00
 -1.54452215E+01  7.72261074E+00  7.72261074E+00 -1.54452215E+01  7.72261074E+00
  7.72261074E+00 -1.54452215E+01  7.72261074E+00  7.72261074E+00 -1.54452215E+01
  7.72261074E+00  7.72261074E+00 -1.54452215E+01  7.72261074E+00  7.72261074E+00
 -1.54452215E+01  7.72261074E+00  7.72261074E+00 -1.54452215E+01  7.72261074E+00
  7.72261074E+00 -1.54452215E+01  7.72261074E+00  7.72261074E+00 -1.54452215E+01
  7.72261074E+00  7.72261074E+00 -1.54452215E+01  7.72261074E+00  7.72261074E+00
 -1.54452215E+01  7.72261074E+00  7.72261074E+00 -1.54452215E+01  7.72261074E+00
  7.72261074E+00 -1.54452215E+01  7.72261074E+00  7.72261074E+00 -1.54452215E+01
  7.72261074E+00  7.72261074E+00 -1.54452215E+01  7.72261074E+00  7.72261074E+00
 -1.54452215E+01  7.72261074E+00  7.72261074E+00 -1.54452215E+01  7.72261074E+00
  7.72261074E+00 -1.54452215E+01  7.72261074E+00  7.72261074E+00 -1.54452215E+01
  7.72261074E+00  7.72261074E+00 -1.54452215E+01  7.72261074E+00  7.72261074E+00
 -1.54452215E+01  7.72261074E+00  7.72261074E+00 -1.54452215E+01  7.72261074E+00
  7.72261074E+00 -1.54452215E+01  7.72261074E+00  7.72261074E+00 -1.54452215E+01
  7.72261074E+00  7.72261074E+00 -1.54452215E+01  7.72261074E+00  7.72261074E+00
 -1.54452215E+01  7.72261074E+00  7.72261074E+00 -1.54452215E+01  7.72261074E+00
  7.72261074E+00 -1.54452215E+01  7.72261074E+00  7.72261074E+00 -1.54452215E+01
  7.72261074E+00  7.72261074E+00 -1.54452215E+01  7.72261074E+00  7.72261074E+00
 -1.54452215E+01  7.72261074E+00  7.72261074E+00 -1.54452215E+01  7.72261074E+00
  7.72261074E+00 -1.54452215E+01  7.72261074E+00  7.72261074E+00 -1.54452215E+01
  7.72261074E+00  7.72261074E+00 -1.54452215E+01  7.72261074E+00  7.72261074E+00
 -1.54452215E+01  7.72261074E+00  7.72261074E+00 -1.54452215E+01  7.72261074E+00
  7.72261074E+00 -1.54452215E+01  7.72261074E+00  7.72261074E+00 -1.54452215E+01
  7.72261074E+00  7.72261074E+00 -1.54452215E+01  7.72261074E+00  7.72261074E+00
 -1.54452215E+01  7.72261074E+00  7.72261074E+00 -1.54452215E+01  7.72261074E+00
  7.72261074E+00 -1.54452215E+01  7.72261074E+00  7.72261074E+00 -1.54452215E+01
  7.72261074E+00  7.72261074E+00 -1.54452215E+01  7.72261074E+00  7.72261074E+00
 -1.54452215E+01  7.72261074E+00  7.72261074E+00 -1.54452215E+01  7.72261074E+00
  7.72261074E+00 -1.54452215E+01  7.72261074E+00  7.72261074E+00 -1.54452215E+01
  7.72261074E+00  7.72261074E+00 -1.54452215E+01  7.72261074E+00  7.72261074E+00
 -1.54452215E+01  7.72261074E+00  7.72261074E+00 -1.54452215E+01  7.72261074E+00
  7.72261074E+00 -1.54452215E+01  7.72261074E+00  7.72261074E+00 -1.54452215E+01
  7.72261074E+00  7.72261074E+00 -1.54452215E+01  7.72261074E+00  7.72261074E+00
 -1.54452215E+01  7.72261074E+00  7.72261074E+00 -1.54452215E+01  7.72261074E+00
  7.72261074E+00 -1.54452215E+01  7.72261074E+00  7.72261074E+00 -1.54452215E+01
  7.72261074E+00  7.72261074E+00 -1.54452215E+01  7.72261074E+00  7.72261074E+00
 -1.54452215E+01  7.72261074E+00  7.72261074E+00 -1.54452215E+01  7.72261074E+00
  7.72261074E+00 -1.54452215E+01  7.72261074E+00  7.72261074E+00 -1.54452215E+01
  7.72261074E+00  7.72261074E+00 -1.54452215E+01  7.72261074E+00  7.72261074E+00
 -1.54452215E+01  7.72261074E+00  7.72261074E+00 -1.54452215E+01  7.72261074E+00
  7.72261074E+00 -1.54452215E+01  7.72261074E+00  7.72261074E+00 -1.54452215E+01
  7.72261074E+00  7.72261074E+00 -1.54452215E+01  7.72261074E+00  7.72261074E+00
 -1.54452215E+01  7.72261074E+00  7.72261074E+00 -1.54452215E+01  7.72261074E+00
  7.72261074E+00 -1.54452215E+01  7.72261074E+00  7.72261074E+00 -1.54452215E+01
  7.72261074E+00  7.72261074E+00 -1.54452215E+01  7.72261074E+00  7.72261074E+00
 -1.54452215E+01  7.72261074E+00  7.72261074E+00 -1.54452215E+01  7.72261074E+00
  7.72261074E+00 -1.54452215E+01  7.72261074E+00  7.72261074E+00 -1.54452215E+01
  7.72261074E+00  7.72261074E+00 -1.54452215E+01  7.72261074E+00  7.72261074E+00
 -1.54452215E+01  7.72261074E+00  7.72261074E+00 -1.54452215E+01  7.72261074E+00
  7.72261074E+00 -1.54452215E+01  7.72261074E+00  7.72261074E+00 -1.54452215E+01
  7.72261074E+00  7.72261074E+00 -1.54452215E+01  7.72261074E+00  7.72261074E+00
 -1.54452215E+01  7.72261074E+00  7.72261074E+00 -1.54452215E+01  7.72261074E+00
  7.72261074E+00 -1.54452215E+01  7.72261074E+00  7.72261074E+00 -1.54452215E+01
  7.72261074E+00  7.72261074E+00 -1.54452215E+01  7.72261074E+00  7.72261074E+00
 -1.54452215E+01  7.72261074E+00  7.72261074E+00 -1.54452215E+01  7.72261074E+00
  7.72261074E+00 -1.54452215E+01  7.72261074E+00  7.72261074E+00 -1.54452215E+01
  7.72261074E+00  7.72261074E+00 -1.54452215E+01  7.72261074E+00  7.72261074E+00
 -1.54452215E+01  7.72261074E+00  7.72261074E+00 -1.54452215E+01  7.72261074E+00
  7.72261074E+00 -1.54452215E+01  7.72261074E+00  7.72261074E+00 -1.54452215E+01
  7.72261074E+00  7.72261074E+00 -1.54452215E+01  7.72261074E+00  7.72261074E+00
 -1.54452215E+01  7.72261074E+00  7.72261074E+00 -1.54452215E+01  7.72261074E+00
  7.72261074E+00 -1.54452215E+01  7.72261074E+00  7.72261074E+00 -1.54452215E+01
  7.72261074E+00  7.72261074E+00 -1.54452215E+01  7.72261074E+00  7.72261074E+00
 -1.54452215E+01  7.72261074E+00  7.72261074E+00 -1.54452215E+01  7.72261074E+00
  7.72261074E+00 -1.54452215E+01  7.72261074E+00  7.72261074E+00 -1.54452215E+01
  7.72261074E+00  7.72261074E+00 -1.54452215E+01  7.72261074E+00  7.72261074E+00
 -1.54452215E+01  7.72261074E+00  7.72261074E+00 -1.54452215E+01  7.72261074E+00
  7.72261074E+00 -1.54452215E+01  7.72261074E+00  7.72261074E+00 -1.54452215E+01
  7.72261074E+00  7.72261074E+00 -1.54452215E+01  7.72261074E+00  7.72261074E+00
 -1.54452215E+01  7.72261074E+00  7.72261074E+00 -1.54452215E+01  7.72261074E+00
  7.72261074E+00 -1.54452215E+01  7.72261074E+00  7.72261074E+00 -1.54452215E+01
  7.72261074E+00  7.72261074E+00 -1.54452215E+01  7.72261074E+00  7.72261074E+00
 -1.54452215E+01  7.72261074E+00  7.72261074E+00 -1.54452215E+01  7.72261074E+00
  7.72261074E+00 -1.54452215E+01  7.72261074E+00  7.72261074E+00 -1.54452215E+01
  7.72261074E+00  7.72261074E+00 -1.54452215E+01  7.72261074E+00  7.72261074E+00
 -1.54452215E+01  7.72261074E+00  7.72261074E+00 -1.54452215E+01  7.72261074E+00
  7.72261074E+00 -1.54452215E+01  7.72261074E+00  7.72261074E+00 -1.54452215E+01
  7.72261074E+00  7.72261074E+00 -1.54452215E+01  7.72261074E+00  7.72261074E+00
 -1.54452215E+01  7.72261074E+00  7.72261074E+00 -1.54452215E+01  7.72261074E+00
  7.72261074E+00 -1.54452215E+01  7.72261074E+00  7.72261074E+00 -1.54452215E+01
  7.72261074E+00  7.72261074E+00 -1.54452215E+01  7.72261074E+00  7.72261074E+00
 -1.54452215E+01  7.72261074E+00  7.72261074E+00 -1.54452215E+01  7.72261074E+00
  7.72261074E+00 -1.54452215E+01  7.72261074E+00  7.72261074E+00 -1.54452215E+01
  7.72261074E+00  7.72261074E+00 -1.54452215E+01  7.72261074E+00  7.72261074E+00
 -1.54452215E+01  7.72261074E+00  7.72261074E+00 -1.54452215E+01  7.72261074E+00
  7.72261074E+00 -1.54452215E+01  7.72261074E+00  7.72261074E+00 -1.54452215E+01
  7.72261074E+00  7.72261074E+00 -1.54452215E+01  7.72261074E+00  7.72261074E+00
 -1.54452215E+01  7.72261074E+00  7.72261074E+00 -1.54452215E+01  7.72261074E+00
  7.72261074E+00 -1.54452215E+01  7.72261074E+00  7.72261074E+00 -1.54452215E+01
  7.72261074E+00  7.72261074E+00 -1.54452215E+01  7.72261074E+00  7.72261074E+00
 -1.54452215E+01  7.72261074E+00  7.72261074E+00 -1.54452215E+01  7.72261074E+00
  7.72261074E+00 -1.54452215E+01  7.72261074E+00  7.72261074E+00 -1.54452215E+01
  7.72261074E+00  7.72261074E+00 -1.54452215E+01  7.72261074E+00  7.72261074E+00
 -1.54452215E+01  7.72261074E+00  7.72261074E+00 -1.54452215E+01  7.72261074E+00
  7.72261074E+00 -1.54452215E+01  7.72261074E+00  7.72261074E+00 -1.54452215E+01
  7.72261074E+00  7.72261074E+00 -1.54452215E+01  7.72261074E+00  7.72261074E+00
 -1.54452215E+01  7.72261074E+00  7.72261074E+00 -1.54452215E+01  7.72261074E+00
  7.72261074E+00 -1.54452215E+01  7.72261074E+00  7.72261074E+00 -1.54452215E+01
  7.72261074E+00  7.72261074E+00 -1.54452215E+01  7.72261074E+00  7.72261074E+00
 -1.54452215E+01  7.72261074E+00  7.72261074E+00 -1.54452215E+01  7.72261074E+00
  7.72261074E+00 -1.54452215E+01  7.72261074E+00  7.72261074E+00 -1.54452215E+01
  7.72261074E+00  7.72261074E+00 -1.54452215E+01  7.72261074E+00  7.72261074E+00
 -1.54452215E+01  7.72261074E+00  7.72261074E+00 -1.54452215E+01  7.72261074E+00
  7.72261074E+00 -1.54452215E+01  7.72261074E+00  7.72261074E+00 -1.54452215E+01
  7.72261074E+00  7.72261074E+00 -1.54452215E+01  7.72261074E+00  7.72261074E+00
 -1.54452215E+01  7.72261074E+00  7.72261074E+00 -1.54452215E+01  7.72261074E+00
  7.72261074E+00 -1.54452215E+01  7.72261074E+00  7.72261074E+00 -1.54452215E+01
  7.72261074E+00  7.72261074E+00 -1.54452215E+01  7.72261074E+00  7.72261074E+00
 -1.54452215E+01  7.72261074E+00  7.72261074E+00 -1.54452215E+01  7.72261074E+00
  7.72261074E+00 -1.54452215E+01  7.72261074E+00  7.72261074E+00 -1.54452215E+01
  7.72261074E+00  7.72261074E+00 -1.54452215E+01  7.72261074E+00  7.72261074E+00
 -1.54452215E+01  7.72261074E+00  7.72261074E+00 -1.54452215E+01  7.72261074E+00
  7.72261074E+00 -1.54452215E+01  7.72261074E+00  7.72261074E+00 -1.54452215E+01
  7.72261074E+00  7.72261074E+00 -1.54452215E+01  7.72261074E+00  7.72261074E+00
 -1.54452215E+01  7.72261074E+00  7.72261074E+00 -1.54452215E+01  7.72261074E+00
  7.72261074E+00 -1.54452215E+01  7.72261074E+00  7.72261074E+00 -1.54452215E+01
  7.72261074E+00  7.72261074E+00 -1.54452215E+01  7.72261074E+00  7.72261074E+00
 -1.54452215E+01  7.72261074E+00  7.72261074E+00 -1.54452215E+01  7.72261074E+00
  7.72261074E+00 -1.54452215E+01  7.72261074E+00  7.72261074E+00 -1.54452215E+01
  7.72261074E+00  7.72261074E+00 -1.54452215E+01  7.72261074E+00  7.72261074E+00
 -1.54452215E+01  7.72261074E+00  7.72261074E+00 -1.54452215E+01  7.72261074E+00
  7.72261074E+00 -1.54452215E+01  7.72261074E+00  7.72261074E+00 -1.54452215E+01
  7.72261074E+00  7.72261074E+00 -1.54452215E+01  7.72261074E+00  7.72261074E+00
 -1.54452215E+01  7.72261074E+00  7.72261074E+00 -1.54452215E+01  7.72261074E+00
  7.72261074E+00 -1.54452215E+01  7.72261074E+00  7.72261074E+00 -1.54452215E+01
  7.72261074E+00  7.72261074E+00 -1.54452215E+01  7.72261074E+00  7.72261074E+00
 -1.54452215E+01  7.72261074E+00  7.72261074E+00 -1.54452215E+01  7.72261074E+00
  7.72261074E+00 -1.54452215E+01  7.72261074E+00  7.72261074E+00 -1.54452215E+01
  7.72261074E+00  7.72261074E+00 -1.54452215E+01  7.72261074E+00  7.72261074E+00
 -1.54452215E+01  7.72261074E+00  7.72261074E+00 -1.54452215E+01  7.72261074E+00
  7.72261074E+00 -1.54452215E+01  7.72261074E+00  7.72261074E+00 -1.54452215E+01
  7.72261074E+00  7.72261074E+00 -1.54452215E+01  7.72261074E+00  7.72261074E+00
 -1.54452215E+01  7.72261074E+00  7.72261074E+00 -1.54452215E+01  7.72261074E+00
  7.72261074E+00 -1.54452215E+01  7.72261074E+00  7.72261074E+00 -1.54452215E+01
  7.72261074E+00  7.72261074E+00 -1.54452215E+01  7.72261074E+00  7.72261074E+00
 -1.54452215E+01  7.72261074E+00  7.72261074E+00 -1.54452215E+01  7.72261074E+00
  7.72261074E+00 -1.54452215E+01  7.72261074E+00  7.72261074E+00 -1.54452215E+01
  7.72261074E+00  7.72261074E+00 -1.54452215E+01  7.72261074E+00  7.72261074E+00
 -1.54452215E+01  7.72261074E+00  7.72261074E+00 -1.54452215E+01  7.72261074E+00
  7.72261074E+00 -1.54452215E+01  7.72261074E+00  7.72261074E+00 -1.54452215E+01
  7.72261074E+00  7.72261074E+00 -1.54452215E+01  7.72261074E+00  7.72261074E+00
 -1.54452215E+01  7.72261074E+00  7.72261074E+00 -1.54452215E+01  7.72261074E+00
  7.72261074E+00 -1.54452215E+01  7.72261074E+00  7.72261074E+00 -1.54452215E+01
  7.72261074E+00  7.72261074E+00 -1.54452215E+01  7.72261074E+00  7.72261074E+00
 -1.54452215E+01  7.72261074E+00  7.72261074E+00 -1.54452215E+01  7.72261074E+00
  7.72261074E+00 -1.54452215E+01  7.72261074E+00  7.72261074E+00 -1.54452215E+01
  7.72261074E+00  7.72261074E+00 -1.54452215E+01  7.72261074E+00  7.72261074E+00
 -1.54452215E+01  7.72261074E+00  7.72261074E+00 -1.54452215E+01  7.72261074E+00
  7.72261074E+00 -1.54452215E+01  7.72261074E+00  7.72261074E+00 -1.54452215E+01
  7.72261074E+00  7.72261074E+00 -1.54452215E+01  7.72261074E+00  7.72261074E+00
 -1.54452215E+01  7.72261074E+00  7.72261074E+00 -1.54452215E+01  7.72261074E+00
  7.72261074E+00 -1.54452215E+01  7.72261074E+00  7.72261074E+00 -1.54452215E+01
  7.72261074E+00  7.72261074E+00 -1.54452215E+01  7.72261074E+00  7.72261074E+00
 -1.54452215E+01  7.72261074E+00  7.72261074E+00 -1.54452215E+01  7.72261074E+00
  7.72261074E+00 -1.54452215E+01  7.72261074E+00  7.72261074E+00 -1.54452215E+01
  7.72261074E+00  7.72261074E+00 -1.54452215E+01  7.72261074E+00  7.72261074E+00
 -1.54452215E+01  7.72261074E+00  7.72261074E+00 -1.54452215E+01  7.72261074E+00
  7.72261074E+00 -1.54452215E+01  7.72261074E+00  7.72261074E+00 -1.54452215E+01
  7.72261074E+00  7.72261074E+00 -1.54452215E+01  7.72261074E+00  7.72261074E+00
 -1.54452215E+01  7.72261074E+00  7.72261074E+00 -1.54452215E+01  7.72261074E+00
  7.72261074E+00 -1.54452215E+01  7.72261074E+00  7.72261074E+00 -1.54452215E+01
  7.72261074E+00  7.72261074E+00 -1.54452215E+01  7.72261074E+00  7.72261074E+00
 -1.54452215E+01  7.72261074E+00  7.72261074E+00 -1.54452215E+01  7.72261074E+00
  7.72261074E+00 -1.54452215E+01  7.72261074E+00  7.72261074E+00 -1.54452215E+01
  7.72261074E+00  7.72261074E+00 -1.54452215E+01  7.72261074E+00  7.72261074E+00
 -1.54452215E+01  7.72261074E+00  7.72261074E+00 -1.54452215E+01  7.72261074E+00
  7.72261074E+00 -1.54452215E+01  7.72261074E+00  7.72261074E+00 -1.54452215E+01
  7.72261074E+00  7.72261074E+00 -1.54452215E+01  7.72261074E+00  7.72261074E+00
 -1.54452215E+01  7.72261074E+00  7.72261074E+00 -1.54452215E+01  7.72261074E+00
  7.72261074E+00 -1.54452215E+01  7.72261074E+00  7.72261074E+00 -1.54452215E+01
  7.72261074E+00  7.72261074E+00 -1.54452215E+01  7.72261074E+00  7.72261074E+00
 -1.54452215E+01  7.72261074E+00  7.72261074E+00 -1.54452215E+01  7.72261074E+00
  7.72261074E+00 -1.54452215E+01  7.72261074E+00  7.72261074E+00 -1.54452215E+01
  7.72261074E+00  7.72261074E+00 -1.54452215E+01  7.72261074E+00  7.72261074E+00
 -1.54452215E+01  7.72261074E+00  7.72261074E+00 -1.54452215E+01  7.72261074E+00
  7.72261074E+00 -1.54452215E+01  7.72261074E+00  7.72261074E+00 -1.54452215E+01
  7.72261074E+00  7.72261074E+00 -1.54452215E+01  7.72261074E+00  7.72261074E+00
 -1.54452215E+01  7.72261074E+00  7.72261074E+00 -1.54452215E+01  7.72261074E+00
  7.72261074E+00 -1.54452215E+01  7.72261074E+00  7.72261074E+00 -1.54452215E+01
  7.72261074E+00  7.72261074E+00 -1.54452215E+01  7.72261074E+00  7.72261074E+00
 -1.54452215E+01  7.72261074E+00  7.72261074E+00 -1.54452215E+01  7.72261074E+00
  7.72261074E+00 -1.54452215E+01  7.72261074E+00  7.72261074E+00 -1.54452215E+01
  7.72261074E+00  7.72261074E+00 -1.54452215E+01  7.72261074E+00  7.72261074E+00
 -1.54452215E+01  7.72261074E+00  7.72261074E+00 -1.54452215E+01  7.72261074E+00
  7.72261074E+00 -1.54452215E+01  7.72261074E+00  7.72261074E+00 -1.54452215E+01
  7.72261074E+00  7.72261074E+00 -1.54452215E+01  7.72261074E+00  7.72261074E+00
 -1.54452215E+01  7.72261074E+00  7.72261074E+00 -1.54452215E+01  7.72261074E+00
  7.72261074E+00 -1.54452215E+01  7.72261074E+00  7.72261074E+00 -1.54452215E+01
  7.72261074E+00  7.72261074E+00 -1.54452215E+01  7.72261074E+00  7.72261074E+00
 -1.54452215E+01  7.72261074E+00  7.72261074E+00 -1.54452215E+01  7.72261074E+00
  7.72261074E+00 -1.54452215E+01  7.72261074E+00  7.72261074E+00 -1.54452215E+01
  7.72261074E+00  7.72261074E+00 -1.54452215E+01  7.72261074E+00  7.72261074E+00
 -1.54452215E+01  7.72261074E+00  7.72261074E+00 -1.54452215E+01  7.72261074E+00
  7.72261074E+00 -1.54452215E+01  7.72261074E+00  7.72261074E+00 -1.54452215E+01
  7.72261074E+00  7.72261074E+00 -1.54452215E+01  7.72261074E+00  7.72261074E+00
 -1.54452215E+01  7.72261074E+00  7.72261074E+00 -1.54452215E+01  7.72261074E+00
  7.72261074E+00 -1.54452215E+01  7.72261074E+00  7.72261074E+00 -1.54452215E+01
  7.72261074E+00  7.72261074E+00 -1.54452215E+01  7.72261074E+00  7.72261074E+00
 -1.54452215E+01  7.72261074E+00  7.72261074E+00 -1.54452215E+01  7.72261074E+00
  7.72261074E+00 -1.54452215E+01  7.72261074E+00  7.72261074E+00 -1.54452215E+01
  7.72261074E+00  7.72261074E+00 -1.54452215E+01  7.72261074E+00  7.72261074E+00
 -1.54452215E+01  7.72261074E+00  7.72261074E+00 -1.54452215E+01  7.72261074E+00
  7.72261074E+00 -1.54452215E+01  7.72261074E+00  7.72261074E+00 -1.54452215E+01
  7.72261074E+00  7.72261074E+00 -1.54452215E+01  7.72261074E+00  7.72261074E+00
 -1.54452215E+01  7.72261074E+00  7.72261074E+00 -1.54452215E+01  7.72261074E+00
  7.72261074E+00 -1.54452215E+01  7.72261074E+00  7.72261074E+00 -1.54452215E+01
  7.72261074E+00  7.72261074E+00 -1.54452215E+01  7.72261074E+00  7.72261074E+00
 -1.54452215E+01  7.72261074E+00  7.72261074E+00 -1.54452215E+01  7.72261074E+00
  7.72261074E+00 -1.54452215E+01  7.72261074E+00  7.72261074E+00 -1.54452215E+01
  7.72261074E+00  7.72261074E+00 -1.54452215E+01  7.72261074E+00  7.72261074E+00
 -1.54452215E+01  7.72261074E+00  7.72261074E+00 -1.54452215E+01  7.72261074E+00
  7.72261074E+00 -1.54452215E+01  7.72261074E+00  7.72261074E+00 -1.54452215E+01
  7.72261074E+00  7.72261074E+00 -1.54452215E+01  7.72261074E+00  7.72261074E+00
 -1.54452215E+01  7.72261074E+00  7.72261074E+00 -1.54452215E+01  7.72261074E+00
  7.72261074E+00 -1.54452215E+01  7.72261074E+00  7.72261074E+00 -1.54452215E+01
  7.72261074E+00  7.72261074E+00 -1.54452215E+01  7.72261074E+00  7.72261074E+00
 -1.54452215E+01  7.72261074E+00  7.72261074E+00 -1.54452215E+01  7.72261074E+00
  7.72261074E+00 -1.54452215E+01  7.72261074E+00  7.72261074E+00 -1.54452215E+01
  7.72261074E+00  7.72261074E+00 -1.54452215E+01  7.72261074E+00  7.72261074E+00
 -1.54452215E+01  7.72261074E+00  7.72261074E+00 -1.54452215E+01  7.72261074E+00
  7.72261074E+00 -1.54452215E+01  7.72261074E+00  7.72261074E+00 -1.54452215E+01
  7.72261074E+00  7.72261074E+00 -1.54452215E+01  7.72261074E+00  7.72261074E+00
 -1.54452215E+01  7.72261074E+00  7.72261074E+00 -1.54452215E+01  7.72261074E+00
  7.72261074E+00 -1.54452215E+01  7.72261074E+00  7.72261074E+00 -1.54452215E+01
  7.72261074E+00  7.72261074E+00 -1.54452215E+01  7.72261074E+00  7.72261074E+00
 -1.54452215E+01  7.72261074E+00  7.72261074E+00 -1.54452215E+01  7.72261074E+00
  7.72261074E+00 -1.54452215E+01  7.72261074E+00  7.72261074E+00 -1.54452215E+01
  7.72261074E+00  7.72261074E+00 -1.54452215E+01  7.72261074E+00  7.72261074E+00
 -1.54452215E+01  7.72261074E+00  7.72261074E+00 -1.54452215E+01  7.72261074E+00
  7.72261074E+00 -1.54452215E+01  7.72261074E+00  7.72261074E+00 -1.54452215E+01
  7.72261074E+00  7.72261074E+00 -1.54452215E+01  7.72261074E+00  7.72261074E+00
 -1.54452215E+01  7.72261074E+00  7.72261074E+00 -1.54452215E+01  7.72261074E+00
  7.72261074E+00 -1.54452215E+01  7.72261074E+00  7.72261074E+00 -1.54452215E+01
  7.72261074E+00  7.72261074E+00 -1.54452215E+01  7.72261074E+00  7.72261074E+00
 -1.54452215E+01  7.72261074E+00  7.72261074E+00 -1.54452215E+01  7.72261074E+00
  7.72261074E+00 -1.54452215E+01  7.72261074E+00  7.72261074E+00 -1.54452215E+01
  7.72261074E+00  7.72261074E+00 -1.54452215E+01  7.72261074E+00  7.72261074E+00
 -1.54452215E+01  7.72261074E+00  7.72261074E+00 -1.54452215E+01  7.72261074E+00
  7.72261074E+00 -1.54452215E+01  7.72261074E+00  7.72261074E+00 -1.54452215E+01
  7.72261074E+00  7.72261074E+00 -1.54452215E+01  7.72261074E+00  7.72261074E+00
 -1.54452215E+01  7.72261074E+00  7.72261074E+00 -1.54452215E+01  7.72261074E+00
  7.72261074E+00 -1.54452215E+01  7.72261074E+00  7.72261074E+00 -1.54452215E+01
  7.72261074E+00  7.72261074E+00 -1.54452215E+01  7.72261074E+00  7.72261074E+00
 -1.54452215E+01  7.72261074E+00  7.72261074E+00 -1.54452215E+01  7.72261074E+00
  7.72261074E+00 -1.54452215E+01  7.72261074E+00  7.72261074E+00 -1.54452215E+01
  7.72261074E+00  7.72261074E+00 -1.54452215E+01  7.72261074E+00  7.72261074E+00
 -1.54452215E+01  7.72261074E+00  7.72261074E+00 -1.54452215E+01  7.72261074E+00
  7.72261074E+00 -1.54452215E+01  7.72261074E+00  7.72261074E+00 -1.54452215E+01
  7.72261074E+00  7.72261074E+00 -1.54452215E+01  7.72261074E+00  7.72261074E+00
 -1.54452215E+01  7.72261074E+00  7.72261074E+00 -1.54452215E+01  7.72261074E+00
  7.72261074E+00 -1.54452215E+01  7.72261074E+00  7.72261074E+00 -1.54452215E+01
  7.72261074E+00  7.72261074E+00 -1.54452215E+01  7.72261074E+00  7.72261074E+00
 -1.54452215E+01  7.72261074E+00  7.72261074E+00 -1.54452215E+01  7.72261074E+00
  7.72261074E+00 -1.54452215E+01  7.72261074E+00  7.72261074E+00 -1.54452215E+01
  7.72261074E+00  7.72261074E+00 -1.54452215E+01  7.72261074E+00  7.72261074E+00
 -1.54452215E+01  7.72261074E+00  7.72261074E+00 -1.54452215E+01  7.72261074E+00
  7.72261074E+00 -1.54452215E+01  7.72261074E+00  7.72261074E+00 -1.54452215E+01
  7.72261074E+00  7.72261074E+00 -1.54452215E+01  7.72261074E+00  7.72261074E+00
 -1.54452215E+01  7.72261074E+00  7.72261074E+00 -1.54452215E+01  7.72261074E+00
  7.72261074E+00 -1.54452215E+01  7.72261074E+00  7.72261074E+00 -1.54452215E+01
  7.72261074E+00  7.72261074E+00 -1.54452215E+01  7.72261074E+00  7.72261074E+00
 -1.54452215E+01  7.72261074E+00  7.72261074E+00 -1.54452215E+01  7.72261074E+00
  7.72261074E+00 -1.54452215E+01  7.72261074E+00  7.72261074E+00 -1.54452215E+01
  7.72261074E+00  7.72261074E+00 -1.54452215E+01  7.72261074E+00  7.72261074E+00
 -1.54452215E+01  7.72261074E+00  7.72261074E+00 -1.54452215E+01  7.72261074E+00
  7.72261074E+00 -1.54452215E+01  7.72261074E+00  7.72261074E+00 -1.54452215E+01
  7.72261074E+00  7.72261074E+00 -1.54452215E+01  7.72261074E+00  7.72261074E+00
 -1.54452215E+01  7.72261074E+00  7.72261074E+00 -1.54452215E+01  7.72261074E+00
  7.72261074E+00 -1.54452215E+01  7.72261074E+00  7.72261074E+00 -1.54452215E+01
  7.72261074E+00  7.72261074E+00 -1.54452215E+01  7.72261074E+00  7.72261074E+00
 -1.54452215E+01  7.72261074E+00  7.72261074E+00 -1.54452215E+01  7.72261074E+00
  7.72261074E+00 -1.54452215E+01  7.72261074E+00  7.72261074E+00 -1.54452215E+01
  7.72261074E+00  7.72261074E+00 -1.54452215E+01  7.72261074E+00  7.72261074E+00
 -1.54452215E+01  7.72261074E+00  7.72261074E+00 -1.54452215E+01  7.72261074E+00
  7.72261074E+00 -1.54452215E+01  7.72261074E+00  7.72261074E+00 -1.54452215E+01
  7.72261074E+00  7.72261074E+00 -1.54452215E+01  7.72261074E+00  7.72261074E+00
 -1.54452215E+01  7.72261074E+00  7.72261074E+00 -1.54452215E+01  7.72261074E+00
  7.72261074E+00 -1.54452215E+01  7.72261074E+00  7.72261074E+00 -1.54452215E+01
  7.72261074E+00  7.72261074E+00 -1.54452215E+01  7.72261074E+00  7.72261074E+00
 -1.54452215E+01  7.72261074E+00  7.72261074E+00 -1.54452215E+01  7.72261074E+00
  7.72261074E+00 -1.54452215E+01  7.72261074E+00  7.72261074E+00 -1.54452215E+01
  7.72261074E+00  7.72261074E+00 -1.54452215E+01  7.72261074E+00  7.72261074E+00
 -1.54452215E+01  7.72261074E+00  7.72261074E+00 -1.54452215E+01  7.72261074E+00
  7.72261074E+00 -1.54452215E+01  7.72261074E+00  7.72261074E+00 -1.54452215E+01
  7.72261074E+00  7.72261074E+00 -1.54452215E+01  7.72261074E+00  7.72261074E+00
 -1.54452215E+01  7.72261074E+00  7.72261074E+00 -1.54452215E+01  7.72261074E+00
  7.72261074E+00 -1.54452215E+01  7.72261074E+00  7.72261074E+00 -1.54452215E+01
  7.72261074E+00  7.72261074E+00 -1.54452215E+01  7.72261074E+00  7.72261074E+00
 -1.54452215E+01  7.72261074E+00  7.72261074E+00 -1.54452215E+01  7.72261074E+00
  7.72261074E+00 -1.54452215E+01  7.72261074E+00  7.72261074E+00 -1.54452215E+01
  7.72261074E+00  7.72261074E+00 -1.54452215E+01  7.72261074E+00  7.72261074E+00
 -1.54452215E+01  7.72261074E+00  7.72261074E+00 -1.54452215E+01  7.72261074E+00
  7.72261074E+00 -1.54452215E+01  7.72261074E+00  7.72261074E+00 -1.54452215E+01
  7.72261074E+00  7.72261074E+00 -1.54452215E+01  7.72261074E+00  7.72261074E+00
 -1.54452215E+01  7.72261074E+00  7.72261074E+00 -1.54452215E+01  7.72261074E+00
  7.72261074E+00 -1.54452215E+01  7.72261074E+00  7.72261074E+00 -1.54452215E+01
  7.72261074E+00  7.72261074E+00 -1.54452215E+01  7.72261074E+00  7.72261074E+00
 -1.54452215E+01  7.72261074E+00  7.72261074E+00 -1.54452215E+01  7.72261074E+00
  7.72261074E+00 -1.54452215E+01  7.72261074E+00  7.72261074E+00 -1.54452215E+01
  7.72261074E+00  7.72261074E+00 -1.54452215E+01  7.72261074E+00  7.72261074E+00
 -1.54452215E+01  7.72261074E+00  7.72261074E+00 -1.54452215E+01  7.72261074E+00
  7.72261074E+00 -1.54452215E+01  7.72261074E+00  7.72261074E+00 -1.54452215E+01
  7.72261074E+00  7.72261074E+00 -1.54452215E+01  7.72261074E+00  7.72261074E+00
 -1.54452215E+01  7.72261074E+00  7.72261074E+00 -1.54452215E+01  7.72261074E+00
  7.72261074E+00 -1.54452215E+01  7.72261074E+00  7.72261074E+00 -1.54452215E+01
  7.72261074E+00  7.72261074E+00 -1.54452215E+01  7.72261074E+00  7.72261074E+00
 -1.54452215E+01  7.72261074E+00  7.72261074E+00 -1.54452215E+01  7.72261074E+00
  7.72261074E+00 -1.54452215E+01  7.72261074E+00  7.72261074E+00 -1.54452215E+01
  7.72261074E+00  7.72261074E+00 -1.54452215E+01  7.72261074E+00  7.72261074E+00
 -1.54452215E+01  7.72261074E+00  7.72261074E+00 -1.54452215E+01  7.72261074E+00
  7.72261074E+00 -1.54452215E+01  7.72261074E+00  7.72261074E+00 -1.54452215E+01
  7.72261074E+00  7.72261074E+00 -1.54452215E+01  7.72261074E+00  7.72261074E+00
 -1.54452215E+01  7.72261074E+00  7.72261074E+00 -1.54452215E+01  7.72261074E+00
  7.72261074E+00 -1.54452215E+01  7.72261074E+00  7.72261074E+00 -1.54452215E+01
  7.72261074E+00  7.72261074E+00 -1.54452215E+01  7.72261074E+00  7.72261074E+00
 -1.54452215E+01  7.72261074E+00  7.72261074E+00 -1.54452215E+01  7.72261074E+00
  7.72261074E+00 -1.54452215E+01  7.72261074E+00  7.72261074E+00 -1.54452215E+01
  7.72261074E+00  7.72261074E+00 -1.54452215E+01  7.72261074E+00  7.72261074E+00
 -1.54452215E+01  7.72261074E+00  7.72261074E+00 -1.54452215E+01  7.72261074E+00
  7.72261074E+00 -1.54452215E+01  7.72261074E+00  7.72261074E+00 -1.54452215E+01
  7.72261074E+00  7.72261074E+00 -1.54452215E+01  7.72261074E+00  7.72261074E+00
 -1.54452215E+01  7.72261074E+00  7.72261074E+00 -1.54452215E+01  7.72261074E+00
  7.72261074E+00 -1.54452215E+01  7.72261074E+00  7.72261074E+00 -1.54452215E+01
  7.72261074E+00  7.72261074E+00 -1.54452215E+01  7.72261074E+00  7.72261074E+00
 -1.54452215E+01  7.72261074E+00  7.72261074E+00 -1.54452215E+01  7.72261074E+00
  7.72261074E+00 -1.54452215E+01  7.72261074E+00  7.72261074E+00 -1.54452215E+01
  7.72261074E+00  7.72261074E+00 -1.54452215E+01  7.72261074E+00  7.72261074E+00
 -1.54452215E+01  7.72261074E+00  7.72261074E+00 -1.54452215E+01  7.72261074E+00
  7.72261074E+00 -1.54452215E+01  7.72261074E+00  7.72261074E+00 -1.54452215E+01
  7.72261074E+00  7.72261074E+00 -1.54452215E+01  7.72261074E+00  7.72261074E+00
 -1.54452215E+01  7.72261074E+00  7.72261074E+00 -1.54452215E+01  7.72261074E+00
  7.72261074E+00 -1.54452215E+01  7.72261074E+00  7.72261074E+00 -1.54452215E+01
  7.72261074E+00  7.72261074E+00 -1.54452215E+01  7.72261074E+00  7.72261074E+00
 -1.54452215E+01  7.72261074E+00  7.72261074E+00 -1.54452215E+01  7.72261074E+00
  7.72261074E+00 -1.54452215E+01  7.72261074E+00  7.72261074E+00 -1.54452215E+01
  7.72261074E+00  7.72261074E+00 -1.54452215E+01  7.72261074E+00  7.72261074E+00
 -1.54452215E+01  7.72261074E+00  7.72261074E+00 -1.54452215E+01  7.72261074E+00
  7.72261074E+00 -1.54452215E+01  7.72261074E+00  7.72261074E+00 -1.54452215E+01
  7.72261074E+00  7.72261074E+00 -1.54452215E+01  7.72261074E+00  7.72261074E+00
 -1.54452215E+01  7.72261074E+00  7.72261074E+00 -1.54452215E+01  7.72261074E+00
  7.72261074E+00 -1.54452215E+01  7.72261074E+00  7.72261074E+00 -1.54452215E+01
  7.72261074E+00  7.72261074E+00 -1.54452215E+01  7.72261074E+00  7.72261074E+00
 -1.54452215E+01  7.72261074E+00  7.72261074E+00 -1.54452215E+01  7.72261074E+00
  7.72261074E+00 -1.54452215E+01  7.72261074E+00  7.72261074E+00 -1.54452215E+01
  7.72261074E+00  7.72261074E+00 -1.54452215E+01  7.72261074E+00  7.72261074E+00
 -1.54452215E+01  7.72261074E+00  7.72261074E+00 -1.54452215E+01  7.72261074E+00
  7.72261074E+00 -1.54452215E+01  7.72261074E+00  7.72261074E+00 -1.54452215E+01
  7.72261074E+00  7.72261074E+00 -1.54452215E+01  7.72261074E+00  7.72261074E+00
 -1.54452215E+01  7.72261074E+00  7.72261074E+00 -1.54452215E+01  7.72261074E+00
  7.72261074E+00 -1.54452215E+01  7.72261074E+00  7.72261074E+00 -1.54452215E+01
  7.72261074E+00  7.72261074E+00 -1.54452215E+01  7.72261074E+00  7.72261074E+00
 -1.54452215E+01  7.72261074E+00  7.72261074E+00 -1.54452215E+01  7.72261074E+00
  7.72261074E+00 -1.54452215E+01  7.72261074E+00  7.72261074E+00 -1.54452215E+01
  7.72261074E+00  7.72261074E+00 -1.54452215E+01  7.72261074E+00  7.72261074E+00
 -1.54452215E+01  7.72261074E+00  7.72261074E+00 -1.54452215E+01  7.72261074E+00
  7.72261074E+00 -1.54452215E+01  7.72261074E+00  7.72261074E+00 -1.54452215E+01
  7.72261074E+00  7.72261074E+00 -1.54452215E+01  7.72261074E+00  7.72261074E+00
 -1.54452215E+01  7.72261074E+00  7.72261074E+00 -1.54452215E+01  7.72261074E+00
  7.72261074E+00 -1.54452215E+01  7.72261074E+00  7.72261074E+00 -1.54452215E+01
  7.72261074E+00  7.72261074E+00 -1.54452215E+01  7.72261074E+00  7.72261074E+00
 -1.54452215E+01  7.72261074E+00  7.72261074E+00 -1.54452215E+01  7.72261074E+00
  7.72261074E+00 -1.54452215E+01  7.72261074E+00  7.72261074E+00 -1.54452215E+01
  7.72261074E+00  7.72261074E+00 -1.54452215E+01  7.72261074E+00  7.72261074E+00
 -1.54452215E+01  7.72261074E+00  7.72261074E+00 -1.54452215E+01  7.72261074E+00
  7.72261074E+00 -1.54452215E+01  7.72261074E+00  7.72261074E+00 -1.54452215E+01
  7.72261074E+00  7.72261074E+00 -1.54452215E+01  7.72261074E+00  7.72261074E+00
 -1.54452215E+01  7.72261074E+00  7.72261074E+00 -1.54452215E+01  7.72261074E+00
  7.72261074E+00 -1.54452215E+01  7.72261074E+00  7.72261074E+00 -1.54452215E+01
  7.72261074E+00  7.72261074E+00 -1.54452215E+01  7.72261074E+00  7.72261074E+00
 -1.54452215E+01  7.72261074E+00  7.72261074E+00 -1.54452215E+01  7.72261074E+00
  7.72261074E+00 -1.54452215E+01  7.72261074E+00  7.72261074E+00 -1.54452215E+01
  7.72261074E+00  7.72261074E+00 -1.54452215E+01  7.72261074E+00  7.72261074E+00
 -1.54452215E+01  7.72261074E+00  7.72261074E+00 -1.54452215E+01  7.72261074E+00
  7.72261074E+00 -1.54452215E+01  7.72261074E+00  7.72261074E+00 -1.54452215E+01
  7.72261074E+00  7.72261074E+00 -1.54452215E+01  7.72261074E+00  7.72261074E+00
 -1.54452215E+01  7.72261074E+00  7.72261074E+00 -1.54452215E+01  7.72261074E+00
  7.72261074E+00 -1.54452215E+01  7.72261074E+00  7.72261074E+00 -1.54452215E+01
  7.72261074E+00  7.72261074E+00 -1.54452215E+01  7.72261074E+00  7.72261074E+00
 -1.54452215E+01  7.72261074E+00  7.72261074E+00 -1.54452215E+01  7.72261074E+00
  7.72261074E+00 -1.54452215E+01  7.72261074E+00  7.72261074E+00 -1.54452215E+01
  7.72261074E+00  7.72261074E+00 -1.54452215E+01  7.72261074E+00  7.72261074E+00
 -1.54452215E+01  7.72261074E+00  7.72261074E+00 -1.54452215E+01  7.72261074E+00
  7.72261074E+00 -1.54452215E+01  7.72261074E+00  7.72261074E+00 -1.54452215E+01
  7.72261074E+00  7.72261074E+00 -1.54452215E+01  7.72261074E+00  7.72261074E+00
 -1.54452215E+01  7.72261074E+00  7.72261074E+00 -1.54452215E+01  7.72261074E+00
  7.72261074E+00 -1.54452215E+01  7.72261074E+00  7.72261074E+00 -1.54452215E+01
  7.72261074E+00  7.72261074E+00 -1.54452215E+01  7.72261074E+00  7.72261074E+00
 -1.54452215E+01  7.72261074E+00  7.72261074E+00 -1.54452215E+01  7.72261074E+00
  7.72261074E+00 -1.54452215E+01  7.72261074E+00  7.72261074E+00 -1.54452215E+01
  7.72261074E+00  7.72261074E+00 -1.54452215E+01  7.72261074E+00  7.72261074E+00
 -1.54452215E+01  7.72261074E+00  7.72261074E+00 -1.54452215E+01  7.72261074E+00
  7.72261074E+00 -1.54452215E+01  7.72261074E+00  7.72261074E+00 -1.54452215E+01
  7.72261074E+00  7.72261074E+00 -1.54452215E+01  7.72261074E+00  7.72261074E+00
 -1.54452215E+01  7.72261074E+00  7.72261074E+00 -1.54452215E+01  7.72261074E+00
  7.72261074E+00 -1.54452215E+01  7.72261074E+00  7.72261074E+00 -1.54452215E+01
  7.72261074E+00  7.72261074E+00 -1.54452215E+01  7.72261074E+00  7.72261074E+00
 -1.54452215E+01  7.72261074E+00  7.72261074E+00 -1.54452215E+01  7.72261074E+00
  7.72261074E+00 -1.54452215E+01  7.72261074E+00  7.72261074E+00 -1.54452215E+01
  7.72261074E+00  7.72261074E+00 -1.54452215E+01  7.72261074E+00  7.72261074E+00
 -1.54452215E+01  7.72261074E+00  7.72261074E+00 -1.54452215E+01  7.72261074E+00
  7.72261074E+00 -1.54452215E+01  7.72261074E+00  7.72261074E+00 -1.54452215E+01
  7.72261074E+00  7.72261074E+00 -1.54452215E+01  7.72261074E+00  7.72261074E+00
 -1.54452215E+01  7.72261074E+00  7.72261074E+00 -1.54452215E+01  7.72261074E+00
  7.72261074E+00 -1.54452215E+01  7.72261074E+00  7.72261074E+00 -1.54452215E+01
  7.72261074E+00  7.72261074E+00 -1.54452215E+01  7.72261074E+00  7.72261074E+00
 -1.54452215E+01  7.72261074E+00  7.72261074E+00 -1.54452215E+01  7.72261074E+00
  7.72261074E+00 -1.54452215E+01  7.72261074E+00  7.72261074E+00 -1.54452215E+01
  7.72261074E+00  7.72261074E+00 -1.54452215E+01  7.72261074E+00  7.72261074E+00
 -1.54452215E+01  7.72261074E+00  7.72261074E+00 -1.54452215E+01  7.72261074E+00
  7.72261074E+00 -1.54452215E+01  7.72261074E+00  7.72261074E+00 -1.54452215E+01
  7.72261074E+00  7.72261074E+00 -1.54452215E+01  7.72261074E+00  7.72261074E+00
 -1.54452215E+01  7.72261074E+00  7.72261074E+00 -1.54452215E+01  7.72261074E+00
  7.72261074E+00 -1.54452215E+01  7.72261074E+00  7.72261074E+00 -1.54452215E+01
  7.72261074E+00  7.72261074E+00 -1.54452215E+01  7.72261074E+00  7.72261074E+00
 -1.54452215E+01  7.72261074E+00  7.72261074E+00 -1.54452215E+01  7.72261074E+00
  7.72261074E+00 -1.54452215E+01  7.72261074E+00  7.72261074E+00 -1.54452215E+01
  7.72261074E+00  7.72261074E+00 -1.54452215E+01  7.72261074E+00  7.72261074E+00
 -1.54452215E+01  7.72261074E+00  7.72261074E+00 -1.54452215E+01  7.72261074E+00
  7.72261074E+00 -1.54452215E+01  7.72261074E+00  7.72261074E+00 -1.54452215E+01
  7.72261074E+00  7.72261074E+00 -1.54452215E+01  7.72261074E+00  7.72261074E+00
 -1.54452215E+01  7.72261074E+00  7.72261074E+00 -1.54452215E+01  7.72261074E+00
  7.72261074E+00 -1.54452215E+01  7.72261074E+00  7.72261074E+00 -1.54452215E+01
  7.72261074E+00  7.72261074E+00 -1.54452215E+01  7.72261074E+00  7.72261074E+00
 -1.54452215E+01  7.72261074E+00  7.72261074E+00 -1.54452215E+01  7.72261074E+00
  7.72261074E+00 -1.54452215E+01  7.72261074E+00  7.72261074E+00 -1.54452215E+01
  7.72261074E+00  7.72261074E+00 -1.54452215E+01  7.72261074E+00  7.72261074E+00
 -1.54452215E+01  7.72261074E+00  7.72261074E+00 -1.54452215E+01  7.72261074E+00
  7.72261074E+00 -1.54452215E+01  7.72261074E+00  7.72261074E+00 -1.54452215E+01
  7.72261074E+00  7.72261074E+00 -1.54452215E+01  7.72261074E+00  7.72261074E+00
 -1.54452215E+01  7.72261074E+00  7.72261074E+00 -1.54452215E+01  7.72261074E+00
  7.72261074E+00 -1.54452215E+01  7.72261074E+00  7.72261074E+00 -1.54452215E+01
  7.72261074E+00  7.72261074E+00 -1.54452215E+01  7.72261074E+00  7.72261074E+00
 -1.54452215E+01  7.72261074E+00  7.72261074E+00 -1.54452215E+01  7.72261074E+00
  7.72261074E+00 -1.54452215E+01  7.72261074E+00  7.72261074E+00 -1.54452215E+01
  7.72261074E+00  7.72261074E+00 -1.54452215E+01  7.72261074E+00  7.72261074E+00
 -1.54452215E+01  7.72261074E+00  7.72261074E+00 -1.54452215E+01  7.72261074E+00
  7.72261074E+00 -1.54452215E+01  7.72261074E+00  7.72261074E+00 -1.54452215E+01
  7.72261074E+00  7.72261074E+00 -1.54452215E+01  7.72261074E+00  7.72261074E+00
 -1.54452215E+01  7.72261074E+00  7.72261074E+00 -1.54452215E+01  7.72261074E+00
  7.72261074E+00 -1.54452215E+01  7.72261074E+00  7.72261074E+00 -1.54452215E+01
  7.72261074E+00  7.72261074E+00 -1.54452215E+01  7.72261074E+00  7.72261074E+00
 -1.54452215E+01  7.72261074E+00  7.72261074E+00 -1.54452215E+01  7.72261074E+00
  7.72261074E+00 -1.54452215E+01  7.72261074E+00  7.72261074E+00 -1.54452215E+01
  7.72261074E+00  7.72261074E+00 -1.54452215E+01  7.72261074E+00  7.72261074E+00
 -1.54452215E+01  7.72261074E+00  7.72261074E+00 -1.54452215E+01  7.72261074E+00
  7.72261074E+00 -1.54452215E+01  7.72261074E+00  7.72261074E+00 -1.54452215E+01
  7.72261074E+00  7.72261074E+00 -1.54452215E+01  7.72261074E+00  7.72261074E+00
 -1.54452215E+01  7.72261074E+00  7.72261074E+00 -1.54452215E+01  7.72261074E+00
  7.72261074E+00 -1.54452215E+01  7.72261074E+00  7.72261074E+00 -1.54452215E+01
  7.72261074E+00  7.72261074E+00 -1.54452215E+01  7.72261074E+00  7.72261074E+00
 -1.54452215E+01  7.72261074E+00  7.72261074E+00 -1.54452215E+01  7.72261074E+00
  7.72261074E+00 -1.54452215E+01  7.72261074E+00  7.72261074E+00 -1.54452215E+01
  7.72261074E+00  7.72261074E+00 -1.54452215E+01  7.72261074E+00  7.72261074E+00
 -1.54452215E+01  7.72261074E+00  7.72261074E+00 -1.54452215E+01  7.72261074E+00
  7.72261074E+00 -1.54452215E+01  7.72261074E+00  7.72261074E+00 -1.54452215E+01
  7.72261074E+00  7.72261074E+00 -1.54452215E+01  7.72261074E+00  7.72261074E+00
 -1.54452215E+01  7.72261074E+00  7.72261074E+00 -1.54452215E+01  7.72261074E+00
  7.72261074E+00 -1.54452215E+01  7.72261074E+00  7.72261074E+00 -1.54452215E+01
  7.72261074E+00  7.72261074E+00 -1.54452215E+01  7.72261074E+00  7.72261074E+00
 -1.54452215E+01  7.72261074E+00  7.72261074E+00 -1.54452215E+01  7.72261074E+00
  7.72261074E+00 -1.54452215E+01  7.72261074E+00  7.72261074E+00 -1.54452215E+01
  7.72261074E+00  7.72261074E+00 -1.54452215E+01  7.72261074E+00  7.72261074E+00
 -1.54452215E+01  7.72261074E+00  7.72261074E+00 -1.54452215E+01  7.72261074E+00
  7.72261074E+00 -1.54452215E+01  7.72261074E+00  7.72261074E+00 -1.54452215E+01
  7.72261074E+00  7.72261074E+00 -1.54452215E+01  7.72261074E+00  7.72261074E+00
 -1.54452215E+01  7.72261074E+00  7.72261074E+00 -1.54452215E+01  7.72261074E+00
  7.72261074E+00 -1.54452215E+01  7.72261074E+00  7.72261074E+00 -1.54452215E+01
  7.72261074E+00  7.72261074E+00 -1.54452215E+01  7.72261074E+00  7.72261074E+00
 -1.54452215E+01  7.72261074E+00  7.72261074E+00 -1.54452215E+01  7.72261074E+00
  7.72261074E+00 -1.54452215E+01  7.72261074E+00  7.72261074E+00 -1.54452215E+01
  7.72261074E+00  7.72261074E+00 -1.54452215E+01  7.72261074E+00  7.72261074E+00
 -1.54452215E+01  7.72261074E+00  7.72261074E+00 -1.54452215E+01  7.72261074E+00
  7.72261074E+00 -1.54452215E+01  7.72261074E+00  7.72261074E+00 -1.54452215E+01
  7.72261074E+00  7.72261074E+00 -1.54452215E+01  7.72261074E+00  7.72261074E+00
 -1.54452215E+01  7.72261074E+00  7.72261074E+00 -1.54452215E+01  7.72261074E+00
  7.72261074E+00 -1.54452215E+01  7.72261074E+00  7.72261074E+00 -1.54452215E+01
  7.72261074E+00  7.72261074E+00 -1.54452215E+01  7.72261074E+00  7.72261074E+00
 -1.54452215E+01  7.72261074E+00  7.72261074E+00 -1.54452215E+01  7.72261074E+00
  7.72261074E+00 -1.54452215E+01  7.72261074E+00  7.72261074E+00 -1.54452215E+01
  7.72261074E+00  7.72261074E+00 -1.54452215E+01  7.72261074E+00  7.72261074E+00
 -1.54452215E+01  7.72261074E+00  7.72261074E+00 -1.54452215E+01  7.72261074E+00
  7.72261074E+00 -1.54452215E+01  7.72261074E+00  7.72261074E+00 -1.54452215E+01
  7.72261074E+00  7.72261074E+00 -1.54452215E+01  7.72261074E+00  7.72261074E+00
 -1.54452215E+01  7.72261074E+00  7.72261074E+00 -1.54452215E+01  7.72261074E+00
  7.72261074E+00 -1.54452215E+01  7.72261074E+00  7.72261074E+00 -1.54452215E+01
  7.72261074E+00  7.72261074E+00 -1.54452215E+01  7.72261074E+00  7.72261074E+00
 -1.54452215E+01  7.72261074E+00  7.72261074E+00 -1.54452215E+01  7.72261074E+00
  7.72261074E+00 -1.54452215E+01  7.72261074E+00  7.72261074E+00 -1.54452215E+01
  7.72261074E+00  7.72261074E+00 -1.54452215E+01  7.72261074E+00  7.72261074E+00
 -1.54452215E+01  7.72261074E+00  7.72261074E+00 -1.54452215E+01  7.72261074E+00
  7.72261074E+00 -1.54452215E+01  7.72261074E+00  7.72261074E+00 -1.54452215E+01
  7.72261074E+00  7.72261074E+00 -1.54452215E+01  7.72261074E+00  7.72261074E+00
 -1.54452215E+01  7.72261074E+00  7.72261074E+00 -1.54452215E+01  7.72261074E+00
  7.72261074E+00 -1.54452215E+01  7.72261074E+00  7.72261074E+00 -1.54452215E+01
  7.72261074E+00  7.72261074E+00 -1.54452215E+01  7.72261074E+00  7.72261074E+00
 -1.54452215E+01  7.72261074E+00  7.72261074E+00 -1.54452215E+01  7.72261074E+00
  7.72261074E+00 -1.54452215E+01  7.72261074E+00  7.72261074E+00 -1.54452215E+01
  7.72261074E+00  7.72261074E+00 -1.54452215E+01  7.72261074E+00  7.72261074E+00
 -1.54452215E+01  7.72261074E+00  7.72261074E+00 -1.54452215E+01  7.72261074E+00
  7.72261074E+00 -1.54452215E+01  7.72261074E+00  7.72261074E+00 -1.54452215E+01
  7.72261074E+00  7.72261074E+00 -1.54452215E+01  7.72261074E+00  7.72261074E+00
 -1.54452215E+01  7.72261074E+00  7.72261074E+00 -1.54452215E+01  7.72261074E+00
  7.72261074E+00 -1.54452215E+01  7.72261074E+00  7.72261074E+00 -1.54452215E+01
  7.72261074E+00  7.72261074E+00 -1.54452215E+01  7.72261074E+00  7.72261074E+00
 -1.54452215E+01  7.72261074E+00  7.72261074E+00 -1.54452215E+01  7.72261074E+00
  7.72261074E+00 -1.54452215E+01  7.72261074E+00  7.72261074E+00 -1.54452215E+01
  7.72261074E+00  7.72261074E+00 -1.54452215E+01  7.72261074E+00  7.72261074E+00
 -1.54452215E+01  7.72261074E+00  7.72261074E+00 -1.54452215E+01  7.72261074E+00
  7.72261074E+00 -1.54452215E+01  7.72261074E+00  7.72261074E+00 -1.54452215E+01
  7.72261074E+00  7.72261074E+00 -1.54452215E+01  7.72261074E+00  7.72261074E+00
 -1.54452215E+01  7.72261074E+00  7.72261074E+00 -1.54452215E+01  7.72261074E+00
  7.72261074E+00 -1.54452215E+01  7.72261074E+00  7.72261074E+00 -1.54452215E+01
  7.72261074E+00  7.72261074E+00 -1.54452215E+01  7.72261074E+00  7.72261074E+00
 -1.54452215E+01  7.72261074E+00  7.72261074E+00 -1.54452215E+01  7.72261074E+00
  7.72261074E+00 -1.54452215E+01  7.72261074E+00  7.72261074E+00 -1.54452215E+01
  7.72261074E+00  7.72261074E+00 -1.54452215E+01  7.72261074E+00  7.72261074E+00
 -1.54452215E+01  7.72261074E+00  7.72261074E+00 -1.54452215E+01  7.72261074E+00
  7.72261074E+00 -1.54452215E+01  7.72261074E+00  7.72261074E+00 -1.54452215E+01
  7.72261074E+00  7.72261074E+00 -1.54452215E+01  7.72261074E+00  7.72261074E+00
 -1.54452215E+01  7.72261074E+00  7.72261074E+00 -1.54452215E+01  7.72261074E+00
  7.72261074E+00 -1.54452215E+01  7.72261074E+00  7.72261074E+00 -1.54452215E+01
  7.72261074E+00  7.72261074E+00 -1.54452215E+01  7.72261074E+00  7.72261074E+00
 -1.54452215E+01  7.72261074E+00  7.72261074E+00 -1.54452215E+01  7.72261074E+00
  7.72261074E+00 -1.54452215E+01  7.72261074E+00  7.72261074E+00 -1.54452215E+01
  7.72261074E+00  7.72261074E+00 -1.54452215E+01  7.72261074E+00  7.72261074E+00
 -1.54452215E+01  7.72261074E+00  7.72261074E+00 -1.54452215E+01  7.72261074E+00
  7.72261074E+00 -1.54452215E+01  7.72261074E+00  7.72261074E+00 -1.54452215E+01
  7.72261074E+00  7.72261074E+00 -1.54452215E+01  7.72261074E+00  7.72261074E+00
 -1.54452215E+01  7.72261074E+00  7.72261074E+00 -1.54452215E+01  7.72261074E+00
  7.72261074E+00 -1.54452215E+01  7.72261074E+00  7.72261074E+00 -1.54452215E+01
  7.72261074E+00  7.72261074E+00 -1.54452215E+01  7.72261074E+00  7.72261074E+00
 -1.54452215E+01  7.72261074E+00  7.72261074E+00 -1.54452215E+01  7.72261074E+00
  7.72261074E+00 -1.54452215E+01  7.72261074E+00  7.72261074E+00 -1.54452215E+01
  7.72261074E+00  7.72261074E+00 -1.54452215E+01  7.72261074E+00  7.72261074E+00
 -1.54452215E+01  7.72261074E+00  7.72261074E+00 -1.54452215E+01  7.72261074E+00
  7.72261074E+00 -1.54452215E+01  7.72261074E+00  7.72261074E+00 -1.54452215E+01
  7.72261074E+00  7.72261074E+00 -1.54452215E+01  7.72261074E+00  7.72261074E+00
 -1.54452215E+01  7.72261074E+00  7.72261074E+00 -1.54452215E+01  7.72261074E+00
  7.72261074E+00 -1.54452215E+01  7.72261074E+00  7.72261074E+00 -1.54452215E+01
  7.72261074E+00  7.72261074E+00 -1.54452215E+01  7.72261074E+00  7.72261074E+00
 -1.54452215E+01  7.72261074E+00  7.72261074E+00 -1.54452215E+01  7.72261074E+00
  7.72261074E+00 -1.54452215E+01  7.72261074E+00  7.72261074E+00 -1.54452215E+01
  7.72261074E+00  7.72261074E+00 -1.54452215E+01  7.72261074E+00  7.72261074E+00
 -1.54452215E+01  7.72261074E+00  7.72261074E+00 -1.54452215E+01  7.72261074E+00
  7.72261074E+00 -1.54452215E+01  7.72261074E+00  7.72261074E+00 -1.54452215E+01
  7.72261074E+00  7.72261074E+00 -1.54452215E+01  7.72261074E+00  7.72261074E+00
 -1.54452215E+01  7.72261074E+00  7.72261074E+00 -1.54452215E+01  7.72261074E+00
  7.72261074E+00 -1.54452215E+01  7.72261074E+00  7.72261074E+00 -1.54452215E+01
  7.72261074E+00  7.72261074E+00 -1.54452215E+01  7.72261074E+00  7.72261074E+00
 -1.54452215E+01  7.72261074E+00  7.72261074E+00 -1.54452215E+01  7.72261074E+00
  7.72261074E+00 -1.54452215E+01  7.72261074E+00  7.72261074E+00 -1.54452215E+01
  7.72261074E+00  7.72261074E+00 -1.54452215E+01  7.72261074E+00  7.72261074E+00
 -1.54452215E+01  7.72261074E+00  7.72261074E+00 -1.54452215E+01  7.72261074E+00
  7.72261074E+00 -1.54452215E+01  7.72261074E+00  7.72261074E+00 -1.54452215E+01
  7.72261074E+00  7.72261074E+00 -1.54452215E+01  7.72261074E+00  7.72261074E+00
 -1.54452215E+01  7.72261074E+00  7.72261074E+00 -1.54452215E+01  7.72261074E+00
  7.72261074E+00 -1.54452215E+01  7.72261074E+00  7.72261074E+00 -1.54452215E+01
  7.72261074E+00  7.72261074E+00 -1.54452215E+01  7.72261074E+00  7.72261074E+00
 -1.54452215E+01  7.72261074E+00  7.72261074E+00 -1.54452215E+01  7.72261074E+00
  7.72261074E+00 -1.54452215E+01  7.72261074E+00  7.72261074E+00 -1.54452215E+01
  7.72261074E+00  7.72261074E+00 -1.54452215E+01  7.72261074E+00  7.72261074E+00
 -1.54452215E+01  7.72261074E+00  7.72261074E+00 -1.54452215E+01  7.72261074E+00
  7.72261074E+00 -1.54452215E+01  7.72261074E+00  7.72261074E+00 -1.54452215E+01
  7.72261074E+00  7.72261074E+00 -1.54452215E+01  7.72261074E+00  7.72261074E+00
 -1.54452215E+01  7.72261074E+00  7.72261074E+00 -1.54452215E+01  7.72261074E+00
  7.72261074E+00 -1.54452215E+01  7.72261074E+00  7.72261074E+00 -1.54452215E+01
  7.72261074E+00  7.72261074E+00 -1.54452215E+01  7.72261074E+00  7.72261074E+00
 -1.54452215E+01  7.72261074E+00  7.72261074E+00 -1.54452215E+01  7.72261074E+00
  7.72261074E+00 -1.54452215E+01  7.72261074E+00  7.72261074E+00 -1.54452215E+01
  7.72261074E+00  7.72261074E+00 -1.54452215E+01  7.72261074E+00  7.72261074E+00
 -1.54452215E+01  7.72261074E+00  7.72261074E+00 -1.54452215E+01  7.72261074E+00
  7.72261074E+00 -1.54452215E+01  7.72261074E+00  7.72261074E+00 -1.54452215E+01
  7.72261074E+00  7.72261074E+00 -1.54452215E+01  7.72261074E+00  7.72261074E+00
 -1.54452215E+01  7.72261074E+00  7.72261074E+00 -1.54452215E+01  7.72261074E+00
  7.72261074E+00 -1.54452215E+01  7.72261074E+00  7.72261074E+00 -1.54452215E+01
  7.72261074E+00  7.72261074E+00 -1.54452215E+01  7.72261074E+00  7.72261074E+00
 -1.54452215E+01  7.72261074E+00  7.72261074E+00 -1.54452215E+01  7.72261074E+00
  7.72261074E+00 -1.54452215E+01  7.72261074E+00  7.72261074E+00 -1.54452215E+01
  7.72261074E+00  7.72261074E+00 -1.54452215E+01  7.72261074E+00  7.72261074E+00
 -1.54452215E+01  7.72261074E+00  7.72261074E+00 -1.54452215E+01  7.72261074E+00
  7.72261074E+00 -1.54452215E+01  7.72261074E+00  7.72261074E+00 -1.54452215E+01
  7.72261074E+00  7.72261074E+00 -1.54452215E+01  7.72261074E+00  7.72261074E+00
 -1.54452215E+01  7.72261074E+00  7.72261074E+00 -1.54452215E+01  7.72261074E+00
  7.72261074E+00 -1.54452215E+01  7.72261074E+00  7.72261074E+00 -1.54452215E+01
  7.72261074E+00  7.72261074E+00 -1.54452215E+01  7.72261074E+00  7.72261074E+00
 -1.54452215E+01  7.72261074E+00  7.72261074E+00 -1.54452215E+01  7.72261074E+00
  7.72261074E+00 -1.54452215E+01  7.72261074E+00  7.72261074E+00 -1.54452215E+01
  7.72261074E+00  7.72261074E+00 -1.54452215E+01  7.72261074E+00  7.72261074E+00
 -1.54452215E+01  7.72261074E+00  7.72261074E+00 -1.54452215E+01  7.72261074E+00
  7.72261074E+00 -1.54452215E+01  7.72261074E+00  7.72261074E+00 -1.54452215E+01
  7.72261074E+00  7.72261074E+00 -1.54452215E+01  7.72261074E+00  7.72261074E+00
 -1.54452215E+01  7.72261074E+00  7.72261074E+00 -1.54452215E+01  7.72261074E+00
  7.72261074E+00 -1.54452215E+01  7.72261074E+00  7.72261074E+00 -1.54452215E+01
  7.72261074E+00  7.72261074E+00 -1.54452215E+01  7.72261074E+00  7.72261074E+00
 -1.54452215E+01  7.72261074E+00  7.72261074E+00 -1.54452215E+01  7.72261074E+00
  7.72261074E+00 -1.54452215E+01  7.72261074E+00  7.72261074E+00 -1.54452215E+01
  7.72261074E+00  7.72261074E+00 -1.54452215E+01  7.72261074E+00  7.72261074E+00
 -1.54452215E+01  7.72261074E+00  7.72261074E+00 -1.54452215E+01  7.72261074E+00
  7.72261074E+00 -1.54452215E+01  7.72261074E+00  7.72261074E+00 -1.54452215E+01
  7.72261074E+00  7.72261074E+00 -1.54452215E+01  7.72261074E+00  7.72261074E+00
 -1.54452215E+01  7.72261074E+00  7.72261074E+00 -1.54452215E+01  7.72261074E+00
  7.72261074E+00 -1.54452215E+01  7.72261074E+00  7.72261074E+00 -1.54452215E+01
  7.72261074E+00  7.72261074E+00 -1.54452215E+01  7.72261074E+00  7.72261074E+00
 -1.54452215E+01  7.72261074E+00  7.72261074E+00 -1.54452215E+01  7.72261074E+00
  7.72261074E+00 -1.54452215E+01  7.72261074E+00  7.72261074E+00 -1.54452215E+01
  7.72261074E+00  7.72261074E+00 -1.54452215E+01  7.72261074E+00  7.72261074E+00
 -1.54452215E+01  7.72261074E+00  7.72261074E+00 -1.54452215E+01  7.72261074E+00
  7.72261074E+00 -1.54452215E+01  7.72261074E+00  7.72261074E+00 -1.54452215E+01
  7.72261074E+00  7.72261074E+00 -1.54452215E+01  7.72261074E+00  7.72261074E+00
 -1.54452215E+01  7.72261074E+00  7.72261074E+00 -1.54452215E+01  7.72261074E+00
  7.72261074E+00 -1.54452215E+01  7.72261074E+00  7.72261074E+00 -1.54452215E+01
  7.72261074E+00  7.72261074E+00 -1.54452215E+01  7.72261074E+00  7.72261074E+00
 -1.54452215E+01  7.72261074E+00  7.72261074E+00 -1.54452215E+01  7.72261074E+00
  7.72261074E+00 -1.54452215E+01  7.72261074E+00  7.72261074E+00 -1.54452215E+01
  7.72261074E+00  7.72261074E+00 -1.54452215E+01  7.72261074E+00  7.72261074E+00
 -1.54452215E+01  7.72261074E+00  7.72261074E+00 -1.54452215E+01  7.72261074E+00
  7.72261074E+00 -1.54452215E+01  7.72261074E+00  7.72261074E+00 -1.54452215E+01
  7.72261074E+00  7.72261074E+00 -1.54452215E+01  7.72261074E+00  7.72261074E+00
 -1.54452215E+01  7.72261074E+00  7.72261074E+00 -1.54452215E+01  7.72261074E+00
  7.72261074E+00 -1.54452215E+01  7.72261074E+00  7.72261074E+00 -1.54452215E+01
  7.72261074E+00  7.72261074E+00 -1.54452215E+01  7.72261074E+00  7.72261074E+00
 -1.54452215E+01  7.72261074E+00  7.72261074E+00 -1.54452215E+01  7.72261074E+00
  7.72261074E+00 -1.54452215E+01  7.72261074E+00  7.72261074E+00 -1.54452215E+01
  7.72261074E+00  7.72261074E+00 -1.54452215E+01  7.72261074E+00  7.72261074E+00
 -1.54452215E+01  7.72261074E+00  7.72261074E+00 -1.54452215E+01  7.72261074E+00
  7.72261074E+00 -1.54452215E+01  7.72261074E+00  7.72261074E+00 -1.54452215E+01
  7.72261074E+00  7.72261074E+00 -1.54452215E+01  7.72261074E+00  7.72261074E+00
 -1.54452215E+01  7.72261074E+00  7.72261074E+00 -1.54452215E+01  7.72261074E+00
  7.72261074E+00 -1.54452215E+01  7.72261074E+00  7.72261074E+00 -1.54452215E+01
  7.72261074E+00  7.72261074E+00 -1.54452215E+01  7.72261074E+00  7.72261074E+00
 -1.54452215E+01  7.72261074E+00  7.72261074E+00 -1.54452215E+01  7.72261074E+00
  7.72261074E+00 -1.54452215E+01  7.72261074E+00  7.72261074E+00 -1.54452215E+01
  7.72261074E+00  7.72261074E+00 -1.54452215E+01  7.72261074E+00  7.72261074E+00
 -1.54452215E+01  7.72261074E+00  7.72261074E+00 -1.54452215E+01  7.72261074E+00
  7.72261074E+00 -1.54452215E+01  7.72261074E+00  7.72261074E+00 -1.54452215E+01
  7.72261074E+00  7.72261074E+00 -1.54452215E+01  7.72261074E+00  7.72261074E+00
 -1.54452215E+01  7.72261074E+00  7.72261074E+00 -1.54452215E+01  7.72261074E+00
  7.72261074E+00 -1.54452215E+01  7.72261074E+00  7.72261074E+00 -1.54452215E+01
  7.72261074E+00  7.72261074E+00 -1.54452215E+01  7.72261074E+00  7.72261074E+00
 -1.54452215E+01  7.72261074E+00  7.72261074E+00 -1.54452215E+01  7.72261074E+00
  7.72261074E+00 -1.54452215E+01  7.72261074E+00  7.72261074E+00 -1.54452215E+01
  7.72261074E+00  7.72261074E+00 -1.54452215E+01  7.72261074E+00  7.72261074E+00
 -1.54452215E+01  7.72261074E+00  7.72261074E+00 -1.54452215E+01  7.72261074E+00
  7.72261074E+00 -1.54452215E+01  7.72261074E+00  7.72261074E+00 -1.54452215E+01
  7.72261074E+00  7.72261074E+00 -1.54452215E+01  7.72261074E+00  7.72261074E+00
 -1.54452215E+01  7.72261074E+00  7.72261074E+00 -1.54452215E+01  7.72261074E+00
  7.72261074E+00 -1.54452215E+01  7.72261074E+00  7.72261074E+00 -1.54452215E+01
  7.72261074E+00  7.72261074E+00 -1.54452215E+01  7.72261074E+00  7.72261074E+00
 -1.54452215E+01  7.72261074E+00  7.72261074E+00 -1.54452215E+01  7.72261074E+00
  7.72261074E+00 -1.54452215E+01  7.72261074E+00  7.72261074E+00 -1.54452215E+01
  7.72261074E+00  7.72261074E+00 -1.54452215E+01  7.72261074E+00  7.72261074E+00
 -1.54452215E+01  7.72261074E+00  7.72261074E+00 -1.54452215E+01  7.72261074E+00
  7.72261074E+00 -1.54452215E+01  7.72261074E+00  7.72261074E+00 -1.54452215E+01
  7.72261074E+00  7.72261074E+00 -1.54452215E+01  7.72261074E+00  7.72261074E+00
 -1.54452215E+01  7.72261074E+00  7.72261074E+00 -1.54452215E+01  7.72261074E+00
  7.72261074E+00 -1.54452215E+01  7.72261074E+00  7.72261074E+00 -1.54452215E+01
  7.72261074E+00  7.72261074E+00 -1.54452215E+01  7.72261074E+00  7.72261074E+00
 -1.54452215E+01  7.72261074E+00  7.72261074E+00 -1.54452215E+01  7.72261074E+00
  7.72261074E+00 -1.54452215E+01  7.72261074E+00  7.72261074E+00 -1.54452215E+01
  7.72261074E+00  7.72261074E+00 -1.54452215E+01  7.72261074E+00  7.72261074E+00
 -1.54452215E+01  7.72261074E+00  7.72261074E+00 -1.54452215E+01  7.72261074E+00
  7.72261074E+00 -1.54452215E+01  7.72261074E+00  7.72261074E+00 -1.54452215E+01
  7.72261074E+00  7.72261074E+00 -1.54452215E+01  7.72261074E+00  7.72261074E+00
 -1.54452215E+01  7.72261074E+00  7.72261074E+00 -1.54452215E+01  7.72261074E+00
  7.72261074E+00 -1.54452215E+01  7.72261074E+00  7.72261074E+00 -1.54452215E+01
  7.72261074E+00  7.72261074E+00 -1.54452215E+01  7.72261074E+00  7.72261074E+00
 -1.54452215E+01  7.72261074E+00  7.72261074E+00 -1.54452215E+01  7.72261074E+00
  7.72261074E+00 -1.54452215E+01  7.72261074E+00  7.72261074E+00 -1.54452215E+01
  7.72261074E+00  7.72261074E+00 -1.54452215E+01  7.72261074E+00  7.72261074E+00
 -1.54452215E+01  7.72261074E+00  7.72261074E+00 -1.54452215E+01  7.72261074E+00
  7.72261074E+00 -1.54452215E+01  7.72261074E+00  7.72261074E+00 -1.54452215E+01
  7.72261074E+00  7.72261074E+00 -1.54452215E+01  7.72261074E+00  7.72261074E+00
 -1.54452215E+01  7.72261074E+00  7.72261074E+00 -1.54452215E+01  7.72261074E+00
  7.72261074E+00 -1.54452215E+01  7.72261074E+00  7.72261074E+00 -1.54452215E+01
  7.72261074E+00  7.72261074E+00 -1.54452215E+01  7.72261074E+00  7.72261074E+00
 -1.54452215E+01  7.72261074E+00  7.72261074E+00 -1.54452215E+01  7.72261074E+00
  7.72261074E+00 -1.54452215E+01  7.72261074E+00  7.72261074E+00 -1.54452215E+01
  7.72261074E+00  7.72261074E+00 -1.54452215E+01  7.72261074E+00  7.72261074E+00
 -1.54452215E+01  7.72261074E+00  7.72261074E+00 -1.54452215E+01  7.72261074E+00
  7.72261074E+00 -1.54452215E+01  7.72261074E+00  7.72261074E+00 -1.54452215E+01
  7.72261074E+00  7.72261074E+00 -1.54452215E+01  7.72261074E+00  7.72261074E+00
 -1.54452215E+01  7.72261074E+00  7.72261074E+00 -1.54452215E+01  7.72261074E+00
  7.72261074E+00 -1.54452215E+01  7.72261074E+00  7.72261074E+00 -1.54452215E+01
  7.72261074E+00  7.72261074E+00 -1.54452215E+01  7.72261074E+00  7.72261074E+00
 -1.54452215E+01  7.72261074E+00  7.72261074E+00 -1.54452215E+01  7.72261074E+00
  7.72261074E+00 -1.54452215E+01  7.72261074E+00  7.72261074E+00 -1.54452215E+01
  7.72261074E+00  7.72261074E+00 -1.54452215E+01  7.72261074E+00  7.72261074E+00
 -1.54452215E+01  7.72261074E+00  7.72261074E+00 -1.54452215E+01  7.72261074E+00
  7.72261074E+00 -1.54452215E+01  7.72261074E+00  7.72261074E+00 -1.54452215E+01
  7.72261074E+00  7.72261074E+00 -1.54452215E+01  7.72261074E+00  7.72261074E+00
 -1.54452215E+01  7.72261074E+00  7.72261074E+00 -1.54452215E+01  7.72261074E+00
  7.72261074E+00 -1.54452215E+01  7.72261074E+00  7.72261074E+00 -1.54452215E+01
  7.72261074E+00  7.72261074E+00 -1.54452215E+01  7.72261074E+00  7.72261074E+00
 -1.54452215E+01  7.72261074E+00  7.72261074E+00 -1.54452215E+01  7.72261074E+00
  7.72261074E+00 -1.54452215E+01  7.72261074E+00  7.72261074E+00 -1.54452215E+01
  7.72261074E+00  7.72261074E+00 -1.54452215E+01  7.72261074E+00  7.72261074E+00
 -1.54452215E+01  7.72261074E+00  7.72261074E+00 -1.54452215E+01  7.72261074E+00
  7.72261074E+00 -1.54452215E+01  7.72261074E+00  7.72261074E+00 -1.54452215E+01
  7.72261074E+00  7.72261074E+00 -1.54452215E+01  7.72261074E+00  7.72261074E+00
 -1.54452215E+01  7.72261074E+00  7.72261074E+00 -1.54452215E+01  7.72261074E+00
  7.72261074E+00 -1.54452215E+01  7.72261074E+00  7.72261074E+00 -1.54452215E+01
  7.72261074E+00  7.72261074E+00 -1.54452215E+01  7.72261074E+00  7.72261074E+00
 -1.54452215E+01  7.72261074E+00  7.72261074E+00 -1.54452215E+01  7.72261074E+00
  7.72261074E+00 -1.54452215E+01  7.72261074E+00  7.72261074E+00 -1.54452215E+01
  7.72261074E+00  7.72261074E+00 -1.54452215E+01  7.72261074E+00  7.72261074E+00
 -1.54452215E+01  7.72261074E+00  7.72261074E+00 -1.54452215E+01  7.72261074E+00
  7.72261074E+00 -1.54452215E+01  7.72261074E+00  7.72261074E+00 -1.54452215E+01
  7.72261074E+00  7.72261074E+00 -1.54452215E+01  7.72261074E+00  7.72261074E+00
 -1.54452215E+01  7.72261074E+00  7.72261074E+00 -1.54452215E+01  7.72261074E+00
  7.72261074E+00 -1.54452215E+01  7.72261074E+00  7.72261074E+00 -1.54452215E+01
  7.72261074E+00  7.72261074E+00 -1.54452215E+01  7.72261074E+00  7.72261074E+00
 -1.54452215E+01  7.72261074E+00  7.72261074E+00 -1.54452215E+01  7.72261074E+00
  7.72261074E+00 -1.54452215E+01  7.72261074E+00  7.72261074E+00 -1.54452215E+01
  7.72261074E+00  7.72261074E+00 -1.54452215E+01  7.72261074E+00  7.72261074E+00
 -1.54452215E+01  7.72261074E+00  7.72261074E+00 -1.54452215E+01  7.72261074E+00
  7.72261074E+00 -1.54452215E+01  7.72261074E+00  7.72261074E+00 -1.54452215E+01
  7.72261074E+00  7.72261074E+00 -1.54452215E+01  7.72261074E+00  7.72261074E+00
 -1.54452215E+01  7.72261074E+00  7.72261074E+00 -1.54452215E+01  7.72261074E+00
  7.72261074E+00 -1.54452215E+01  7.72261074E+00  7.72261074E+00 -1.54452215E+01
  7.72261074E+00  7.72261074E+00 -1.54452215E+01  7.72261074E+00  7.72261074E+00
 -1.54452215E+01  7.72261074E+00  7.72261074E+00 -1.54452215E+01  7.72261074E+00
  7.72261074E+00 -1.54452215E+01  7.72261074E+00  7.72261074E+00 -1.54452215E+01
  7.72261074E+00  7.72261074E+00 -1.54452215E+01  7.72261074E+00  7.72261074E+00
 -1.54452215E+01  7.72261074E+00  7.72261074E+00 -1.54452215E+01  7.72261074E+00
  7.72261074E+00 -1.54452215E+01  7.72261074E+00  7.72261074E+00 -1.54452215E+01
  7.72261074E+00  7.72261074E+00 -1.54452215E+01  7.72261074E+00  7.72261074E+00
 -1.54452215E+01  7.72261074E+00  7.72261074E+00 -1.54452215E+01  7.72261074E+00
  7.72261074E+00 -1.54452215E+01  7.72261074E+00  7.72261074E+00 -1.54452215E+01
  7.72261074E+00  7.72261074E+00 -1.54452215E+01  7.72261074E+00  7.72261074E+00
 -1.54452215E+01  7.72261074E+00  7.72261074E+00 -1.54452215E+01  7.72261074E+00
  7.72261074E+00 -1.54452215E+01  7.72261074E+00  7.72261074E+00 -1.54452215E+01
  7.72261074E+00  7.72261074E+00 -1.54452215E+01  7.72261074E+00  7.72261074E+00
 -1.54452215E+01  7.72261074E+00  7.72261074E+00 -1.54452215E+01  7.72261074E+00
  7.72261074E+00 -1.54452215E+01  7.72261074E+00  7.72261074E+00 -1.54452215E+01
  7.72261074E+00  7.72261074E+00 -1.54452215E+01  7.72261074E+00  7.72261074E+00
 -1.54452215E+01  7.72261074E+00  7.72261074E+00 -1.54452215E+01  7.72261074E+00
  7.72261074E+00 -1.54452215E+01  7.72261074E+00  7.72261074E+00 -1.54452215E+01
  7.72261074E+00  7.72261074E+00 -1.54452215E+01  7.72261074E+00  7.72261074E+00
 -1.54452215E+01  7.72261074E+00  7.72261074E+00 -1.54452215E+01  7.72261074E+00
  7.72261074E+00 -1.54452215E+01  7.72261074E+00  7.72261074E+00 -1.54452215E+01
  7.72261074E+00  7.72261074E+00 -1.54452215E+01  7.72261074E+00  7.72261074E+00
 -1.54452215E+01  7.72261074E+00  7.72261074E+00 -1.54452215E+01  7.72261074E+00
  7.72261074E+00 -1.54452215E+01  7.72261074E+00  7.72261074E+00 -1.54452215E+01
  7.72261074E+00  7.72261074E+00 -1.54452215E+01  7.72261074E+00  7.72261074E+00
 -1.54452215E+01  7.72261074E+00  7.72261074E+00 -1.54452215E+01  7.72261074E+00
  7.72261074E+00 -1.54452215E+01  7.72261074E+00  7.72261074E+00 -1.54452215E+01
  7.72261074E+00  7.72261074E+00 -1.54452215E+01  7.72261074E+00  7.72261074E+00
 -1.54452215E+01  7.72261074E+00  7.72261074E+00 -1.54452215E+01  7.72261074E+00
  7.72261074E+00 -1.54452215E+01  7.72261074E+00  7.72261074E+00 -1.54452215E+01
  7.72261074E+00  7.72261074E+00 -1.54452215E+01  7.72261074E+00  7.72261074E+00
 -1.54452215E+01  7.72261074E+00  7.72261074E+00 -1.54452215E+01  7.72261074E+00
  7.72261074E+00 -1.54452215E+01  7.72261074E+00  7.72261074E+00 -1.54452215E+01
  7.72261074E+00  7.72261074E+00 -1.54452215E+01  7.72261074E+00  7.72261074E+00
 -1.54452215E+01  7.72261074E+00  7.72261074E+00 -1.54452215E+01  7.72261074E+00
  7.72261074E+00 -1.54452215E+01  7.72261074E+00  7.72261074E+00 -1.54452215E+01
  7.72261074E+00  7.72261074E+00 -1.54452215E+01  7.72261074E+00  7.72261074E+00
 -1.54452215E+01  7.72261074E+00  7.72261074E+00 -1.54452215E+01  7.72261074E+00
  7.72261074E+00 -1.54452215E+01  7.72261074E+00  7.72261074E+00 -1.54452215E+01
  7.72261074E+00  7.72261074E+00 -1.54452215E+01  7.72261074E+00  7.72261074E+00
 -1.54452215E+01  7.72261074E+00  7.72261074E+00 -1.54452215E+01  7.72261074E+00
  7.72261074E+00 -1.54452215E+01  7.72261074E+00  7.72261074E+00 -1.54452215E+01
  7.72261074E+00  7.72261074E+00 -1.54452215E+01  7.72261074E+00  7.72261074E+00
 -1.54452215E+01  7.72261074E+00  7.72261074E+00 -1.54452215E+01  7.72261074E+00
  7.72261074E+00 -1.54452215E+01  7.72261074E+00  7.72261074E+00 -1.54452215E+01
  7.72261074E+00  7.72261074E+00 -1.54452215E+01  7.72261074E+00  7.72261074E+00
 -1.54452215E+01  7.72261074E+00  7.72261074E+00 -1.54452215E+01  7.72261074E+00
  7.72261074E+00 -1.54452215E+01  7.72261074E+00  7.72261074E+00 -1.54452215E+01
  7.72261074E+00  7.72261074E+00 -1.54452215E+01  7.72261074E+00  7.72261074E+00
 -1.54452215E+01  7.72261074E+00  7.72261074E+00 -1.54452215E+01  7.72261074E+00
  7.72261074E+00 -1.54452215E+01  7.72261074E+00  7.72261074E+00 -1.54452215E+01
  7.72261074E+00  7.72261074E+00 -1.54452215E+01  7.72261074E+00  7.72261074E+00
 -1.54452215E+01  7.72261074E+00  7.72261074E+00 -1.54452215E+01  7.72261074E+00
  7.72261074E+00 -1.54452215E+01  7.72261074E+00  7.72261074E+00 -1.54452215E+01
  7.72261074E+00  7.72261074E+00 -1.54452215E+01  7.72261074E+00  7.72261074E+00
 -1.54452215E+01  7.72261074E+00  7.72261074E+00 -1.54452215E+01  7.72261074E+00
  7.72261074E+00 -1.54452215E+01  7.72261074E+00  7.72261074E+00 -1.54452215E+01
  7.72261074E+00  7.72261074E+00 -1.54452215E+01  7.72261074E+00  7.72261074E+00
 -1.54452215E+01  7.72261074E+00  7.72261074E+00 -1.54452215E+01  7.72261074E+00
  7.72261074E+00 -1.54452215E+01  7.72261074E+00  7.72261074E+00 -1.54452215E+01
  7.72261074E+00  7.72261074E+00 -1.54452215E+01  7.72261074E+00  7.72261074E+00
 -1.54452215E+01  7.72261074E+00  7.72261074E+00 -1.54452215E+01  7.72261074E+00
  7.72261074E+00 -1.54452215E+01  7.72261074E+00  7.72261074E+00 -1.54452215E+01
  7.72261074E+00  7.72261074E+00 -1.54452215E+01  7.72261074E+00  7.72261074E+00
 -1.54452215E+01  7.72261074E+00  7.72261074E+00 -1.54452215E+01  7.72261074E+00
  7.72261074E+00 -1.54452215E+01  7.72261074E+00  7.72261074E+00 -1.54452215E+01
  7.72261074E+00  7.72261074E+00 -1.54452215E+01  7.72261074E+00  7.72261074E+00
 -1.54452215E+01  7.72261074E+00  7.72261074E+00 -1.54452215E+01  7.72261074E+00
  7.72261074E+00 -1.54452215E+01  7.72261074E+00  7.72261074E+00 -1.54452215E+01
  7.72261074E+00  7.72261074E+00 -1.54452215E+01  7.72261074E+00  7.72261074E+00
 -1.54452215E+01  7.72261074E+00  7.72261074E+00 -1.54452215E+01  7.72261074E+00
  7.72261074E+00 -1.54452215E+01  7.72261074E+00  7.72261074E+00 -1.54452215E+01
  7.72261074E+00  7.72261074E+00 -1.54452215E+01  7.72261074E+00  7.72261074E+00
 -1.54452215E+01  7.72261074E+00  7.72261074E+00 -1.54452215E+01  7.72261074E+00
  7.72261074E+00 -1.54452215E+01  7.72261074E+00  7.72261074E+00 -1.54452215E+01
  7.72261074E+00  7.72261074E+00 -1.54452215E+01  7.72261074E+00  7.72261074E+00
 -1.54452215E+01  7.72261074E+00  7.72261074E+00 -1.54452215E+01  7.72261074E+00
  7.72261074E+00 -1.54452215E+01  7.72261074E+00  7.72261074E+00 -1.54452215E+01
  7.72261074E+00  7.72261074E+00 -1.54452215E+01  7.72261074E+00  7.72261074E+00
 -1.54452215E+01  7.72261074E+00  7.72261074E+00 -1.54452215E+01  7.72261074E+00
  7.72261074E+00 -1.54452215E+01  7.72261074E+00  7.72261074E+00 -1.54452215E+01
  7.72261074E+00  7.72261074E+00 -1.54452215E+01  7.72261074E+00  7.72261074E+00
 -1.54452215E+01  7.72261074E+00  7.72261074E+00 -1.54452215E+01  7.72261074E+00
  7.72261074E+00 -1.54452215E+01  7.72261074E+00  7.72261074E+00 -1.54452215E+01
  7.72261074E+00  7.72261074E+00 -1.54452215E+01  7.72261074E+00  7.72261074E+00
 -1.54452215E+01  7.72261074E+00  7.72261074E+00 -1.54452215E+01  7.72261074E+00
  7.72261074E+00 -1.54452215E+01  7.72261074E+00  7.72261074E+00 -1.54452215E+01
  7.72261074E+00  7.72261074E+00 -1.54452215E+01  7.72261074E+00  7.72261074E+00
 -1.54452215E+01  7.72261074E+00  7.72261074E+00 -1.54452215E+01  7.72261074E+00
  7.72261074E+00 -1.54452215E+01  7.72261074E+00  7.72261074E+00 -1.54452215E+01
  7.72261074E+00  7.72261074E+00 -1.54452215E+01  7.72261074E+00  7.72261074E+00
 -1.54452215E+01  7.72261074E+00  7.72261074E+00 -1.54452215E+01  7.72261074E+00
  7.72261074E+00 -1.54452215E+01  7.72261074E+00  7.72261074E+00 -1.54452215E+01
  7.72261074E+00  7.72261074E+00 -1.54452215E+01  7.72261074E+00  7.72261074E+00
 -1.54452215E+01  7.72261074E+00  7.72261074E+00 -1.54452215E+01  7.72261074E+00
  7.72261074E+00 -1.54452215E+01  7.72261074E+00  7.72261074E+00 -1.54452215E+01
  7.72261074E+00  7.72261074E+00 -1.54452215E+01  7.72261074E+00  7.72261074E+00
 -1.54452215E+01  7.72261074E+00  7.72261074E+00 -1.54452215E+01  7.72261074E+00
  7.72261074E+00 -1.54452215E+01  7.72261074E+00  7.72261074E+00 -1.54452215E+01
  7.72261074E+00  7.72261074E+00 -1.54452215E+01  7.72261074E+00  7.72261074E+00
 -1.54452215E+01  7.72261074E+00  7.72261074E+00 -1.54452215E+01  7.72261074E+00
  7.72261074E+00 -1.54452215E+01  7.72261074E+00  7.72261074E+00 -1.54452215E+01
  7.72261074E+00  7.72261074E+00 -1.54452215E+01  7.72261074E+00  7.72261074E+00
 -1.54452215E+01  7.72261074E+00  7.72261074E+00 -1.54452215E+01  7.72261074E+00
  7.72261074E+00 -1.54452215E+01  7.72261074E+00  7.72261074E+00 -1.54452215E+01
  7.72261074E+00  7.72261074E+00 -1.54452215E+01  7.72261074E+00  7.72261074E+00
 -1.54452215E+01  7.72261074E+00  7.72261074E+00 -1.54452215E+01  7.72261074E+00
  7.72261074E+00 -1.54452215E+01  7.72261074E+00  7.72261074E+00 -1.54452215E+01
  7.72261074E+00  7.72261074E+00 -1.54452215E+01  7.72261074E+00  7.72261074E+00
 -1.54452215E+01  7.72261074E+00  7.72261074E+00 -1.54452215E+01  7.72261074E+00
  7.72261074E+00 -1.54452215E+01  7.72261074E+00  7.72261074E+00 -1.54452215E+01
  7.72261074E+00  7.72261074E+00 -1.54452215E+01  7.72261074E+00  7.72261074E+00
 -1.54452215E+01  7.72261074E+00  7.72261074E+00 -1.54452215E+01  7.72261074E+00
  7.72261074E+00 -1.54452215E+01  7.72261074E+00  7.72261074E+00 -1.54452215E+01
  7.72261074E+00  7.72261074E+00 -1.54452215E+01  7.72261074E+00  7.72261074E+00
 -1.54452215E+01  7.72261074E+00  7.72261074E+00 -1.54452215E+01  7.72261074E+00
  7.72261074E+00 -1.54452215E+01  7.72261074E+00  7.72261074E+00 -1.54452215E+01
  7.72261074E+00  7.72261074E+00 -1.54452215E+01  7.72261074E+00  7.72261074E+00
 -1.54452215E+01  7.72261074E+00  7.72261074E+00 -1.54452215E+01  7.72261074E+00
  7.72261074E+00 -1.54452215E+01  7.72261074E+00  7.72261074E+00 -1.54452215E+01
  7.72261074E+00  7.72261074E+00 -1.54452215E+01  7.72261074E+00  7.72261074E+00
 -1.54452215E+01  7.72261074E+00  7.72261074E+00 -1.54452215E+01  7.72261074E+00
  7.72261074E+00 -1.54452215E+01  7.72261074E+00  7.72261074E+00 -1.54452215E+01
  7.72261074E+00  7.72261074E+00 -1.54452215E+01  7.72261074E+00  7.72261074E+00
 -1.54452215E+01  7.72261074E+00  7.72261074E+00 -1.54452215E+01  7.72261074E+00
  7.72261074E+00 -1.54452215E+01  7.72261074E+00  7.72261074E+00 -1.54452215E+01
  7.72261074E+00  7.72261074E+00 -1.54452215E+01  7.72261074E+00  7.72261074E+00
 -1.54452215E+01  7.72261074E+00  7.72261074E+00 -1.54452215E+01  7.72261074E+00
  7.72261074E+00 -1.54452215E+01  7.72261074E+00  7.72261074E+00 -1.54452215E+01
  7.72261074E+00  7.72261074E+00 -1.54452215E+01  7.72261074E+00  7.72261074E+00
 -1.54452215E+01  7.72261074E+00  7.72261074E+00 -1.54452215E+01  7.72261074E+00
  7.72261074E+00 -1.54452215E+01  7.72261074E+00  7.72261074E+00 -1.54452215E+01
  7.72261074E+00  7.72261074E+00 -1.54452215E+01  7.72261074E+00  7.72261074E+00
 -1.54452215E+01  7.72261074E+00  7.72261074E+00 -1.54452215E+01  7.72261074E+00
  7.72261074E+00 -1.54452215E+01  7.72261074E+00  7.72261074E+00 -1.54452215E+01
  7.72261074E+00  7.72261074E+00 -1.54452215E+01  7.72261074E+00  7.72261074E+00
 -1.54452215E+01  7.72261074E+00  7.72261074E+00 -1.54452215E+01  7.72261074E+00
  7.72261074E+00 -1.54452215E+01  7.72261074E+00  7.72261074E+00 -1.54452215E+01
  7.72261074E+00  7.72261074E+00 -1.54452215E+01  7.72261074E+00  7.72261074E+00
 -1.54452215E+01  7.72261074E+00  7.72261074E+00 -1.54452215E+01  7.72261074E+00
  7.72261074E+00 -1.54452215E+01  7.72261074E+00  7.72261074E+00 -1.54452215E+01
  7.72261074E+00  7.72261074E+00 -1.54452215E+01  7.72261074E+00  7.72261074E+00
 -1.54452215E+01  7.72261074E+00  7.72261074E+00 -1.54452215E+01  7.72261074E+00
  7.72261074E+00 -1.54452215E+01  7.72261074E+00  7.72261074E+00 -1.54452215E+01
  7.72261074E+00  7.72261074E+00 -1.54452215E+01  7.72261074E+00  7.72261074E+00
 -1.54452215E+01  7.72261074E+00  7.72261074E+00 -1.54452215E+01  7.72261074E+00
  7.72261074E+00 -1.54452215E+01  7.72261074E+00  7.72261074E+00 -1.54452215E+01
  7.72261074E+00  7.72261074E+00 -1.54452215E+01  7.72261074E+00  7.72261074E+00
 -1.54452215E+01  7.72261074E+00  7.72261074E+00 -1.54452215E+01  7.72261074E+00
  7.72261074E+00 -1.54452215E+01  7.72261074E+00  7.72261074E+00 -1.54452215E+01
  7.72261074E+00  7.72261074E+00 -1.54452215E+01  7.72261074E+00  7.72261074E+00
 -1.54452215E+01  7.72261074E+00  7.72261074E+00 -1.54452215E+01  7.72261074E+00
  7.72261074E+00 -1.54452215E+01  7.72261074E+00  7.72261074E+00 -1.54452215E+01
  7.72261074E+00  7.72261074E+00 -1.54452215E+01  7.72261074E+00  7.72261074E+00
 -1.54452215E+01  7.72261074E+00  7.72261074E+00 -1.54452215E+01  7.72261074E+00
  7.72261074E+00 -1.54452215E+01  7.72261074E+00  7.72261074E+00 -1.54452215E+01
  7.72261074E+00  7.72261074E+00 -1.54452215E+01  7.72261074E+00  7.72261074E+00
 -1.54452215E+01  7.72261074E+00  7.72261074E+00 -1.54452215E+01  7.72261074E+00
  7.72261074E+00 -1.54452215E+01  7.72261074E+00  7.72261074E+00 -1.54452215E+01
  7.72261074E+00  7.72261074E+00 -1.54452215E+01  7.72261074E+00  7.72261074E+00
 -1.54452215E+01  7.72261074E+00  7.72261074E+00 -1.54452215E+01  7.72261074E+00
  7.72261074E+00 -1.54452215E+01  7.72261074E+00  7.72261074E+00 -1.54452215E+01
  7.72261074E+00  7.72261074E+00 -1.54452215E+01  7.72261074E+00  7.72261074E+00
 -1.54452215E+01  7.72261074E+00  7.72261074E+00 -1.54452215E+01  7.72261074E+00
  7.72261074E+00 -1.54452215E+01  7.72261074E+00  7.72261074E+00 -1.54452215E+01
  7.72261074E+00  7.72261074E+00 -1.54452215E+01  7.72261074E+00  7.72261074E+00
 -1.54452215E+01  7.72261074E+00  7.72261074E+00 -1.54452215E+01  7.72261074E+00
  7.72261074E+00 -1.54452215E+01  7.72261074E+00  7.72261074E+00 -1.54452215E+01
  7.72261074E+00  7.72261074E+00 -1.54452215E+01  7.72261074E+00  7.72261074E+00
 -1.54452215E+01  7.72261074E+00  7.72261074E+00 -1.54452215E+01  7.72261074E+00
  7.72261074E+00 -1.54452215E+01  7.72261074E+00  7.72261074E+00 -1.54452215E+01
  7.72261074E+00  7.72261074E+00 -1.54452215E+01  7.72261074E+00  7.72261074E+00
 -1.54452215E+01  7.72261074E+00  7.72261074E+00 -1.54452215E+01  7.72261074E+00
  7.72261074E+00 -1.54452215E+01  7.72261074E+00  7.72261074E+00 -1.54452215E+01
  7.72261074E+00  7.72261074E+00 -1.54452215E+01  7.72261074E+00  7.72261074E+00
 -1.54452215E+01  7.72261074E+00  7.72261074E+00 -1.54452215E+01  7.72261074E+00
  7.72261074E+00 -1.54452215E+01  7.72261074E+00  7.72261074E+00 -1.54452215E+01
  7.72261074E+00  7.72261074E+00 -1.54452215E+01  7.72261074E+00  7.72261074E+00
 -1.54452215E+01  7.72261074E+00  7.72261074E+00 -1.54452215E+01  7.72261074E+00
  7.72261074E+00 -1.54452215E+01  7.72261074E+00  7.72261074E+00 -1.54452215E+01
  7.72261074E+00  7.72261074E+00 -1.54452215E+01  7.72261074E+00  7.72261074E+00
 -1.54452215E+01  7.72261074E+00  7.72261074E+00 -1.54452215E+01  7.72261074E+00
  7.72261074E+00 -1.54452215E+01  7.72261074E+00  7.72261074E+00 -1.54452215E+01
  7.72261074E+00  7.72261074E+00 -1.54452215E+01  7.72261074E+00  7.72261074E+00
 -1.54452215E+01  7.72261074E+00  7.72261074E+00 -1.54452215E+01  7.72261074E+00
  7.72261074E+00 -1.54452215E+01  7.72261074E+00  7.72261074E+00 -1.54452215E+01
  7.72261074E+00  7.72261074E+00 -1.54452215E+01  7.72261074E+00  7.72261074E+00
 -1.54452215E+01  7.72261074E+00  7.72261074E+00 -1.54452215E+01  7.72261074E+00
  7.72261074E+00 -1.54452215E+01  7.72261074E+00  7.72261074E+00 -1.54452215E+01
  7.72261074E+00  7.72261074E+00 -1.54452215E+01  7.72261074E+00  7.72261074E+00
 -1.54452215E+01  7.72261074E+00  7.72261074E+00 -1.54452215E+01  7.72261074E+00
  7.72261074E+00 -1.54452215E+01  7.72261074E+00  7.72261074E+00 -1.54452215E+01
  7.72261074E+00  7.72261074E+00 -1.54452215E+01  7.72261074E+00  7.72261074E+00
 -1.54452215E+01  7.72261074E+00  7.72261074E+00 -1.54452215E+01  7.72261074E+00
  7.72261074E+00 -1.54452215E+01  7.72261074E+00  7.72261074E+00 -1.54452215E+01
  7.72261074E+00  7.72261074E+00 -1.54452215E+01  7.72261074E+00  7.72261074E+00
 -1.54452215E+01  7.72261074E+00  7.72261074E+00 -1.54452215E+01  7.72261074E+00
  7.72261074E+00 -1.54452215E+01  7.72261074E+00  7.72261074E+00 -1.54452215E+01
  7.72261074E+00  7.72261074E+00 -1.54452215E+01  7.72261074E+00  7.72261074E+00
 -1.54452215E+01  7.72261074E+00  7.72261074E+00 -1.54452215E+01  7.72261074E+00
  7.72261074E+00 -1.54452215E+01  7.72261074E+00  7.72261074E+00 -1.54452215E+01
  7.72261074E+00  7.72261074E+00 -1.54452215E+01  7.72261074E+00  7.72261074E+00
 -1.54452215E+01  7.72261074E+00  7.72261074E+00 -1.54452215E+01  7.72261074E+00
  7.72261074E+00 -1.54452215E+01  7.72261074E+00  7.72261074E+00 -1.54452215E+01
  7.72261074E+00  7.72261074E+00 -1.54452215E+01  7.72261074E+00  7.72261074E+00
 -1.54452215E+01  7.72261074E+00  7.72261074E+00 -1.54452215E+01  7.72261074E+00
  7.72261074E+00 -1.54452215E+01  7.72261074E+00  7.72261074E+00 -1.54452215E+01
  7.72261074E+00  7.72261074E+00 -1.54452215E+01  7.72261074E+00  7.72261074E+00
 -1.54452215E+01  7.72261074E+00  7.72261074E+00 -1.54452215E+01  7.72261074E+00
  7.72261074E+00 -1.54452215E+01  7.72261074E+00  7.72261074E+00 -1.54452215E+01
  7.72261074E+00  7.72261074E+00 -1.54452215E+01  7.72261074E+00  7.72261074E+00
 -1.54452215E+01  7.72261074E+00  7.72261074E+00 -1.54452215E+01  7.72261074E+00
  7.72261074E+00 -1.54452215E+01  7.72261074E+00  7.72261074E+00 -1.54452215E+01
  7.72261074E+00  7.72261074E+00 -1.54452215E+01  7.72261074E+00  7.72261074E+00
 -1.54452215E+01  7.72261074E+00  7.72261074E+00 -1.54452215E+01  7.72261074E+00
  7.72261074E+00 -1.54452215E+01  7.72261074E+00  7.72261074E+00 -1.54452215E+01
  7.72261074E+00  7.72261074E+00 -1.54452215E+01  7.72261074E+00  7.72261074E+00
 -1.54452215E+01  7.72261074E+00  7.72261074E+00 -1.54452215E+01  7.72261074E+00
  7.72261074E+00 -1.54452215E+01  7.72261074E+00  7.72261074E+00 -1.54452215E+01
  7.72261074E+00  7.72261074E+00 -1.54452215E+01  7.72261074E+00  7.72261074E+00
 -1.54452215E+01  7.72261074E+00  7.72261074E+00 -1.54452215E+01  7.72261074E+00
  7.72261074E+00 -1.54452215E+01  7.72261074E+00  7.72261074E+00 -1.54452215E+01
  7.72261074E+00  7.72261074E+00 -1.54452215E+01  7.72261074E+00  7.72261074E+00
 -1.54452215E+01  7.72261074E+00  7.72261074E+00 -1.54452215E+01  7.72261074E+00
  7.72261074E+00 -1.54452215E+01  7.72261074E+00  7.72261074E+00 -1.54452215E+01
  7.72261074E+00  7.72261074E+00 -1.54452215E+01  7.72261074E+00  7.72261074E+00
 -1.54452215E+01  7.72261074E+00  7.72261074E+00 -1.54452215E+01  7.72261074E+00
  7.72261074E+00 -1.54452215E+01  7.72261074E+00  7.72261074E+00 -1.54452215E+01
  7.72261074E+00  7.72261074E+00 -1.54452215E+01  7.72261074E+00  7.72261074E+00
 -1.54452215E+01  7.72261074E+00  7.72261074E+00 -1.54452215E+01  7.72261074E+00
  7.72261074E+00 -1.54452215E+01  7.72261074E+00  7.72261074E+00 -1.54452215E+01
  7.72261074E+00  7.72261074E+00 -1.54452215E+01  7.72261074E+00  7.72261074E+00
 -1.54452215E+01  7.72261074E+00  7.72261074E+00 -1.54452215E+01  7.72261074E+00
  7.72261074E+00 -1.54452215E+01  7.72261074E+00  7.72261074E+00 -1.54452215E+01
  7.72261074E+00  7.72261074E+00 -1.54452215E+01  7.72261074E+00  7.72261074E+00
 -1.54452215E+01  7.72261074E+00  7.72261074E+00 -1.54452215E+01  7.72261074E+00
  7.72261074E+00 -1.54452215E+01  7.72261074E+00  7.72261074E+00 -1.54452215E+01
  7.72261074E+00  7.72261074E+00 -1.54452215E+01  7.72261074E+00  7.72261074E+00
 -1.54452215E+01  7.72261074E+00  7.72261074E+00 -1.54452215E+01  7.72261074E+00
  7.72261074E+00 -1.54452215E+01  7.72261074E+00  7.72261074E+00 -1.54452215E+01
  7.72261074E+00  7.72261074E+00 -1.54452215E+01  7.72261074E+00  7.72261074E+00
 -1.54452215E+01  7.72261074E+00  7.72261074E+00 -1.54452215E+01  7.72261074E+00
  7.72261074E+00 -1.54452215E+01  7.72261074E+00  7.72261074E+00 -1.54452215E+01
  7.72261074E+00  7.72261074E+00 -1.54452215E+01  7.72261074E+00  7.72261074E+00
 -1.54452215E+01  7.72261074E+00  7.72261074E+00 -1.54452215E+01  7.72261074E+00
  7.72261074E+00 -1.54452215E+01  7.72261074E+00  7.72261074E+00 -1.54452215E+01
  7.72261074E+00  7.72261074E+00 -1.54452215E+01  7.72261074E+00  7.72261074E+00
 -1.54452215E+01  7.72261074E+00  7.72261074E+00 -1.54452215E+01  7.72261074E+00
  7.72261074E+00 -1.54452215E+01  7.72261074E+00  7.72261074E+00 -1.54452215E+01
  7.72261074E+00  7.72261074E+00 -1.54452215E+01  7.72261074E+00  7.72261074E+00
 -1.54452215E+01  7.72261074E+00  7.72261074E+00 -1.54452215E+01  7.72261074E+00
  7.72261074E+00 -1.54452215E+01  7.72261074E+00  7.72261074E+00 -1.54452215E+01
  7.72261074E+00  7.72261074E+00 -1.54452215E+01  7.72261074E+00  7.72261074E+00
 -1.54452215E+01  7.72261074E+00  7.72261074E+00 -1.54452215E+01  7.72261074E+00
  7.72261074E+00 -1.54452215E+01  7.72261074E+00  7.72261074E+00 -1.54452215E+01
  7.72261074E+00  7.72261074E+00 -1.54452215E+01  7.72261074E+00  7.72261074E+00
 -1.54452215E+01  7.72261074E+00  7.72261074E+00 -1.54452215E+01  7.72261074E+00
  7.72261074E+00 -1.54452215E+01  7.72261074E+00  7.72261074E+00 -1.54452215E+01
  7.72261074E+00  7.72261074E+00 -1.54452215E+01  7.72261074E+00  7.72261074E+00
 -1.54452215E+01  7.72261074E+00  7.72261074E+00 -1.54452215E+01  7.72261074E+00
  7.72261074E+00 -1.54452215E+01  7.72261074E+00  7.72261074E+00 -1.54452215E+01
  7.72261074E+00  7.72261074E+00 -1.54452215E+01  7.72261074E+00  7.72261074E+00
 -1.54452215E+01  7.72261074E+00  7.72261074E+00 -1.54452215E+01  7.72261074E+00
  7.72261074E+00 -1.54452215E+01  7.72261074E+00  7.72261074E+00 -1.54452215E+01
  7.72261074E+00  7.72261074E+00 -1.54452215E+01  7.72261074E+00  7.72261074E+00
 -1.54452215E+01  7.72261074E+00  7.72261074E+00 -1.54452215E+01  7.72261074E+00
  7.72261074E+00 -1.54452215E+01  7.72261074E+00  7.72261074E+00 -1.54452215E+01
  7.72261074E+00  7.72261074E+00 -1.54452215E+01  7.72261074E+00  7.72261074E+00
 -1.54452215E+01  7.72261074E+00  7.72261074E+00 -1.54452215E+01  7.72261074E+00
  7.72261074E+00 -1.54452215E+01  7.72261074E+00  7.72261074E+00 -1.54452215E+01
  7.72261074E+00  7.72261074E+00 -1.54452215E+01  7.72261074E+00  7.72261074E+00
 -1.54452215E+01  7.72261074E+00  7.72261074E+00 -1.54452215E+01  7.72261074E+00
  7.72261074E+00 -1.54452215E+01  7.72261074E+00  7.72261074E+00 -1.54452215E+01
  7.72261074E+00  7.72261074E+00 -1.54452215E+01  7.72261074E+00  7.72261074E+00
 -1.54452215E+01  7.72261074E+00  7.72261074E+00 -1.54452215E+01  7.72261074E+00
  7.72261074E+00 -1.54452215E+01  7.72261074E+00  7.72261074E+00 -1.54452215E+01
  7.72261074E+00  7.72261074E+00 -1.54452215E+01  7.72261074E+00  7.72261074E+00
 -1.54452215E+01  7.72261074E+00  7.72261074E+00 -1.54452215E+01  7.72261074E+00
  7.72261074E+00 -1.54452215E+01  7.72261074E+00  7.72261074E+00 -1.54452215E+01
  7.72261074E+00  7.72261074E+00 -1.54452215E+01  7.72261074E+00  7.72261074E+00
 -1.54452215E+01  7.72261074E+00  7.72261074E+00 -1.54452215E+01  7.72261074E+00
  7.72261074E+00 -1.54452215E+01  7.72261074E+00  7.72261074E+00 -1.54452215E+01
  7.72261074E+00  7.72261074E+00 -1.54452215E+01  7.72261074E+00  7.72261074E+00
 -1.54452215E+01  7.72261074E+00  7.72261074E+00 -1.54452215E+01  7.72261074E+00
  7.72261074E+00 -1.54452215E+01  7.72261074E+00  7.72261074E+00 -1.54452215E+01
  7.72261074E+00  7.72261074E+00 -1.54452215E+01  7.72261074E+00  7.72261074E+00
 -1.54452215E+01  7.72261074E+00  7.72261074E+00 -1.54452215E+01  7.72261074E+00
  7.72261074E+00 -1.54452215E+01  7.72261074E+00  7.72261074E+00 -1.54452215E+01
  7.72261074E+00  7.72261074E+00 -1.54452215E+01  7.72261074E+00  7.72261074E+00
 -1.54452215E+01  7.72261074E+00  7.72261074E+00 -1.54452215E+01  7.72261074E+00
  7.72261074E+00 -1.54452215E+01  7.72261074E+00  7.72261074E+00 -1.54452215E+01
  7.72261074E+00  7.72261074E+00 -1.54452215E+01  7.72261074E+00  7.72261074E+00
 -1.54452215E+01  7.72261074E+00  7.72261074E+00 -1.54452215E+01  7.72261074E+00
  7.72261074E+00 -1.54452215E+01  7.72261074E+00  7.72261074E+00 -1.54452215E+01
  7.72261074E+00  7.72261074E+00 -1.54452215E+01  7.72261074E+00  7.72261074E+00
 -1.54452215E+01  7.72261074E+00  7.72261074E+00 -1.54452215E+01  7.72261074E+00
  7.72261074E+00 -1.54452215E+01  7.72261074E+00  7.72261074E+00 -1.54452215E+01
  7.72261074E+00  7.72261074E+00 -1.54452215E+01  7.72261074E+00  7.72261074E+00
 -1.54452215E+01  7.72261074E+00  7.72261074E+00 -1.54452215E+01  7.72261074E+00
  7.72261074E+00 -1.54452215E+01  7.72261074E+00  7.72261074E+00 -1.54452215E+01
  7.72261074E+00  7.72261074E+00 -1.54452215E+01  7.72261074E+00  7.72261074E+00
 -1.54452215E+01  7.72261074E+00  7.72261074E+00 -1.54452215E+01  7.72261074E+00
  7.72261074E+00 -1.54452215E+01  7.72261074E+00  7.72261074E+00 -1.54452215E+01
  7.72261074E+00  7.72261074E+00 -1.54452215E+01  7.72261074E+00  7.72261074E+00
 -1.54452215E+01  7.72261074E+00  7.72261074E+00 -1.54452215E+01  7.72261074E+00
  7.72261074E+00 -1.54452215E+01  7.72261074E+00  7.72261074E+00 -1.54452215E+01
  7.72261074E+00  7.72261074E+00 -1.54452215E+01  7.72261074E+00  7.72261074E+00
 -1.54452215E+01  7.72261074E+00  7.72261074E+00 -1.54452215E+01  7.72261074E+00
  7.72261074E+00 -1.54452215E+01  7.72261074E+00  7.72261074E+00 -1.54452215E+01
  7.72261074E+00  7.72261074E+00 -1.54452215E+01  7.72261074E+00  7.72261074E+00
 -1.54452215E+01  7.72261074E+00  7.72261074E+00 -1.54452215E+01  7.72261074E+00
  7.72261074E+00 -1.54452215E+01  7.72261074E+00  7.72261074E+00 -1.54452215E+01
  7.72261074E+00  7.72261074E+00 -1.54452215E+01  7.72261074E+00  7.72261074E+00
 -1.54452215E+01  7.72261074E+00  7.72261074E+00 -1.54452215E+01  7.72261074E+00
  7.72261074E+00 -1.54452215E+01  7.72261074E+00  7.72261074E+00 -1.54452215E+01
  7.72261074E+00  7.72261074E+00 -1.54452215E+01  7.72261074E+00  7.72261074E+00
 -1.54452215E+01  7.72261074E+00  7.72261074E+00 -1.54452215E+01  7.72261074E+00
  7.72261074E+00 -1.54452215E+01  7.72261074E+00  7.72261074E+00 -1.54452215E+01
  7.72261074E+00  7.72261074E+00 -1.54452215E+01  7.72261074E+00  7.72261074E+00
 -1.54452215E+01  7.72261074E+00  7.72261074E+00 -1.54452215E+01  7.72261074E+00
  7.72261074E+00 -1.54452215E+01  7.72261074E+00  7.72261074E+00 -1.54452215E+01
  7.72261074E+00  7.72261074E+00 -1.54452215E+01  7.72261074E+00  7.72261074E+00
 -1.54452215E+01  7.72261074E+00  7.72261074E+00 -1.54452215E+01  7.72261074E+00
  7.72261074E+00 -1.54452215E+01  7.72261074E+00  7.72261074E+00 -1.54452215E+01
  7.72261074E+00  7.72261074E+00 -1.54452215E+01  7.72261074E+00  7.72261074E+00
 -1.54452215E+01  7.72261074E+00  7.72261074E+00 -1.54452215E+01  7.72261074E+00
  7.72261074E+00 -1.54452215E+01  7.72261074E+00  7.72261074E+00 -1.54452215E+01
  7.72261074E+00  7.72261074E+00 -1.54452215E+01  7.72261074E+00  7.72261074E+00
 -1.54452215E+01  7.72261074E+00  7.72261074E+00 -1.54452215E+01  7.72261074E+00
  7.72261074E+00 -1.54452215E+01  7.72261074E+00  7.72261074E+00 -1.54452215E+01
  7.72261074E+00  7.72261074E+00 -1.54452215E+01  7.72261074E+00  7.72261074E+00
 -1.54452215E+01  7.72261074E+00  7.72261074E+00 -1.54452215E+01  7.72261074E+00
  7.72261074E+00 -1.54452215E+01  7.72261074E+00  7.72261074E+00 -1.54452215E+01
  7.72261074E+00  7.72261074E+00 -1.54452215E+01  7.72261074E+00  7.72261074E+00
 -1.54452215E+01  7.72261074E+00  7.72261074E+00 -1.54452215E+01  7.72261074E+00
  7.72261074E+00 -1.54452215E+01  7.72261074E+00  7.72261074E+00 -1.54452215E+01
  7.72261074E+00  7.72261074E+00 -1.54452215E+01  7.72261074E+00  7.72261074E+00
 -1.54452215E+01  7.72261074E+00  7.72261074E+00 -1.54452215E+01  7.72261074E+00
  7.72261074E+00 -1.54452215E+01  7.72261074E+00  7.72261074E+00 -1.54452215E+01
  7.72261074E+00  7.72261074E+00 -1.54452215E+01  7.72261074E+00  7.72261074E+00
 -1.54452215E+01  7.72261074E+00  7.72261074E+00 -1.54452215E+01  7.72261074E+00
  7.72261074E+00 -1.54452215E+01  7.72261074E+00  7.72261074E+00 -1.54452215E+01
  7.72261074E+00  7.72261074E+00 -1.54452215E+01  7.72261074E+00  7.72261074E+00
 -1.54452215E+01  7.72261074E+00  7.72261074E+00 -1.54452215E+01  7.72261074E+00
  7.72261074E+00 -1.54452215E+01  7.72261074E+00  7.72261074E+00 -1.54452215E+01
  7.72261074E+00  7.72261074E+00 -1.54452215E+01  7.72261074E+00  7.72261074E+00
 -1.54452215E+01  7.72261074E+00  7.72261074E+00 -1.54452215E+01  7.72261074E+00
  7.72261074E+00 -1.54452215E+01  7.72261074E+00  7.72261074E+00 -1.54452215E+01
  7.72261074E+00  7.72261074E+00 -1.54452215E+01  7.72261074E+00  7.72261074E+00
 -1.54452215E+01  7.72261074E+00  7.72261074E+00 -1.54452215E+01  7.72261074E+00
  7.72261074E+00 -1.54452215E+01  7.72261074E+00  7.72261074E+00 -1.54452215E+01
  7.72261074E+00  7.72261074E+00 -1.54452215E+01  7.72261074E+00  7.72261074E+00
 -1.54452215E+01  7.72261074E+00  7.72261074E+00 -1.54452215E+01  7.72261074E+00
  7.72261074E+00 -1.54452215E+01  7.72261074E+00  7.72261074E+00 -1.54452215E+01
  7.72261074E+00  7.72261074E+00 -1.54452215E+01  7.72261074E+00  7.72261074E+00
 -1.54452215E+01  7.72261074E+00  7.72261074E+00 -1.54452215E+01  7.72261074E+00
  7.72261074E+00 -1.54452215E+01  7.72261074E+00  7.72261074E+00 -1.54452215E+01
  7.72261074E+00  7.72261074E+00 -1.54452215E+01  7.72261074E+00  7.72261074E+00
 -1.54452215E+01  7.72261074E+00  7.72261074E+00 -1.54452215E+01  7.72261074E+00
  7.72261074E+00 -1.54452215E+01  7.72261074E+00  7.72261074E+00 -1.54452215E+01
  7.72261074E+00  7.72261074E+00 -1.54452215E+01  7.72261074E+00  7.72261074E+00
 -1.54452215E+01  7.72261074E+00  7.72261074E+00 -1.54452215E+01  7.72261074E+00
  7.72261074E+00 -1.54452215E+01  7.72261074E+00  7.72261074E+00 -1.54452215E+01
  7.72261074E+00  7.72261074E+00 -1.54452215E+01  7.72261074E+00  7.72261074E+00
 -1.54452215E+01  7.72261074E+00  7.72261074E+00 -1.54452215E+01  7.72261074E+00
  7.72261074E+00 -1.54452215E+01  7.72261074E+00  7.72261074E+00 -1.54452215E+01
  7.72261074E+00  7.72261074E+00 -1.54452215E+01  7.72261074E+00  7.72261074E+00
 -1.54452215E+01  7.72261074E+00  7.72261074E+00 -1.54452215E+01  7.72261074E+00
  7.72261074E+00 -1.54452215E+01  7.72261074E+00  7.72261074E+00 -1.54452215E+01
  7.72261074E+00  7.72261074E+00 -1.54452215E+01  7.72261074E+00  7.72261074E+00
 -1.54452215E+01  7.72261074E+00  7.72261074E+00 -1.54452215E+01  7.72261074E+00
  7.72261074E+00 -1.54452215E+01  7.72261074E+00  7.72261074E+00 -1.54452215E+01
  7.72261074E+00  7.72261074E+00 -1.54452215E+01  7.72261074E+00  7.72261074E+00
 -1.54452215E+01  7.72261074E+00  7.72261074E+00 -1.54452215E+01  7.72261074E+00
  7.72261074E+00 -1.54452215E+01  7.72261074E+00  7.72261074E+00 -1.54452215E+01
  7.72261074E+00  7.72261074E+00 -1.54452215E+01  7.72261074E+00  7.72261074E+00
 -1.54452215E+01  7.72261074E+00  7.72261074E+00 -1.54452215E+01  7.72261074E+00
  7.72261074E+00 -1.54452215E+01  7.72261074E+00  7.72261074E+00 -1.54452215E+01
  7.72261074E+00  7.72261074E+00 -1.54452215E+01  7.72261074E+00  7.72261074E+00
 -1.54452215E+01  7.72261074E+00  7.72261074E+00 -1.54452215E+01  7.72261074E+00
  7.72261074E+00 -1.54452215E+01  7.72261074E+00  7.72261074E+00 -1.54452215E+01
  7.72261074E+00  7.72261074E+00 -1.54452215E+01  7.72261074E+00  7.72261074E+00
 -1.54452215E+01  7.72261074E+00  7.72261074E+00 -1.54452215E+01  7.72261074E+00
  7.72261074E+00 -1.54452215E+01  7.72261074E+00  7.72261074E+00 -1.54452215E+01
  7.72261074E+00  7.72261074E+00 -1.54452215E+01  7.72261074E+00  7.72261074E+00
 -1.54452215E+01  7.72261074E+00  7.72261074E+00 -1.54452215E+01  7.72261074E+00
  7.72261074E+00 -1.54452215E+01  7.72261074E+00  7.72261074E+00 -1.54452215E+01
  7.72261074E+00  7.72261074E+00 -1.54452215E+01  7.72261074E+00  7.72261074E+00
 -1.54452215E+01  7.72261074E+00  7.72261074E+00 -1.54452215E+01  7.72261074E+00
  7.72261074E+00 -1.54452215E+01  7.72261074E+00  7.72261074E+00 -1.54452215E+01
  7.72261074E+00  7.72261074E+00 -1.54452215E+01  7.72261074E+00  7.72261074E+00
 -1.54452215E+01  7.72261074E+00  7.72261074E+00 -1.54452215E+01  7.72261074E+00
  7.72261074E+00 -1.54452215E+01  7.72261074E+00  7.72261074E+00 -1.54452215E+01
  7.72261074E+00  7.72261074E+00 -1.54452215E+01  7.72261074E+00  7.72261074E+00
 -1.54452215E+01  7.72261074E+00  7.72261074E+00 -1.54452215E+01  7.72261074E+00
  7.72261074E+00 -1.54452215E+01  7.72261074E+00  7.72261074E+00 -1.54452215E+01
  7.72261074E+00  7.72261074E+00 -1.54452215E+01  7.72261074E+00  7.72261074E+00
 -1.54452215E+01  7.72261074E+00  7.72261074E+00 -1.54452215E+01  7.72261074E+00
  7.72261074E+00 -1.54452215E+01  7.72261074E+00  7.72261074E+00 -1.54452215E+01
  7.72261074E+00  7.72261074E+00 -1.54452215E+01  7.72261074E+00  7.72261074E+00
 -1.54452215E+01  7.72261074E+00  7.72261074E+00 -1.54452215E+01  7.72261074E+00
  7.72261074E+00 -1.54452215E+01  7.72261074E+00  7.72261074E+00 -1.54452215E+01
  7.72261074E+00  7.72261074E+00 -1.54452215E+01  7.72261074E+00  7.72261074E+00
 -1.54452215E+01  7.72261074E+00  7.72261074E+00 -1.54452215E+01  7.72261074E+00
  7.72261074E+00 -1.54452215E+01  7.72261074E+00  7.72261074E+00 -1.54452215E+01
  7.72261074E+00  7.72261074E+00 -1.54452215E+01  7.72261074E+00  7.72261074E+00
 -1.54452215E+01  7.72261074E+00  7.72261074E+00 -1.54452215E+01  7.72261074E+00
  7.72261074E+00 -1.54452215E+01  7.72261074E+00  7.72261074E+00 -1.54452215E+01
  7.72261074E+00  7.72261074E+00 -1.54452215E+01  7.72261074E+00  7.72261074E+00
 -1.54452215E+01  7.72261074E+00  7.72261074E+00 -1.54452215E+01  7.72261074E+00
  7.72261074E+00 -1.54452215E+01  7.72261074E+00  7.72261074E+00 -1.54452215E+01
  7.72261074E+00  7.72261074E+00 -1.54452215E+01  7.72261074E+00  7.72261074E+00
 -1.54452215E+01  7.72261074E+00  7.72261074E+00 -1.54452215E+01  7.72261074E+00
  7.72261074E+00 -1.54452215E+01  7.72261074E+00  7.72261074E+00 -1.54452215E+01
  7.72261074E+00  7.72261074E+00 -1.54452215E+01  7.72261074E+00  7.72261074E+00
 -1.54452215E+01  7.72261074E+00  7.72261074E+00 -1.54452215E+01  7.72261074E+00
  7.72261074E+00 -1.54452215E+01  7.72261074E+00  7.72261074E+00 -1.54452215E+01
  7.72261074E+00  7.72261074E+00 -1.54452215E+01  7.72261074E+00  7.72261074E+00
 -1.54452215E+01  7.72261074E+00  7.72261074E+00 -1.54452215E+01  7.72261074E+00
  7.72261074E+00 -1.54452215E+01  7.72261074E+00  7.72261074E+00 -1.54452215E+01
  7.72261074E+00  7.72261074E+00 -1.54452215E+01  7.72261074E+00  7.72261074E+00
 -1.54452215E+01  7.72261074E+00  7.72261074E+00 -1.54452215E+01  7.72261074E+00
  7.72261074E+00 -1.54452215E+01  7.72261074E+00  7.72261074E+00 -1.54452215E+01
  7.72261074E+00  7.72261074E+00 -1.54452215E+01  7.72261074E+00  7.72261074E+00
 -1.54452215E+01  7.72261074E+00  7.72261074E+00 -1.54452215E+01  7.72261074E+00
  7.72261074E+00 -1.54452215E+01  7.72261074E+00  7.72261074E+00 -1.54452215E+01
  7.72261074E+00  7.72261074E+00 -1.54452215E+01  7.72261074E+00  7.72261074E+00
 -1.54452215E+01  7.72261074E+00  7.72261074E+00 -1.54452215E+01  7.72261074E+00
  7.72261074E+00 -1.54452215E+01  7.72261074E+00  7.72261074E+00 -1.54452215E+01
  7.72261074E+00  7.72261074E+00 -1.54452215E+01  7.72261074E+00  7.72261074E+00
 -1.54452215E+01  7.72261074E+00  7.72261074E+00 -1.54452215E+01  7.72261074E+00
  7.72261074E+00 -1.54452215E+01  7.72261074E+00  7.72261074E+00 -1.54452215E+01
  7.72261074E+00  7.72261074E+00 -1.54452215E+01  7.72261074E+00  7.72261074E+00
 -1.54452215E+01  7.72261074E+00  7.72261074E+00 -1.54452215E+01  7.72261074E+00
  7.72261074E+00 -1.54452215E+01  7.72261074E+00  7.72261074E+00 -1.54452215E+01
  7.72261074E+00  7.72261074E+00 -1.54452215E+01  7.72261074E+00  7.72261074E+00
 -1.54452215E+01  7.72261074E+00  7.72261074E+00 -1.54452215E+01  7.72261074E+00
  7.72261074E+00 -1.54452215E+01  7.72261074E+00  7.72261074E+00 -1.54452215E+01
  7.72261074E+00  7.72261074E+00 -1.54452215E+01  7.72261074E+00  7.72261074E+00
 -1.54452215E+01  7.72261074E+00  7.72261074E+00 -1.54452215E+01  7.72261074E+00
  7.72261074E+00 -1.54452215E+01  7.72261074E+00  7.72261074E+00 -1.54452215E+01
  7.72261074E+00  7.72261074E+00 -1.54452215E+01  7.72261074E+00  7.72261074E+00
 -1.54452215E+01  7.72261074E+00  7.72261074E+00 -1.54452215E+01  7.72261074E+00
  7.72261074E+00 -1.54452215E+01  7.72261074E+00  7.72261074E+00 -1.54452215E+01
  7.72261074E+00  7.72261074E+00 -1.54452215E+01  7.72261074E+00  7.72261074E+00
 -1.54452215E+01  7.72261074E+00  7.72261074E+00 -1.54452215E+01  7.72261074E+00
  7.72261074E+00 -1.54452215E+01  7.72261074E+00  7.72261074E+00 -1.54452215E+01
  7.72261074E+00  7.72261074E+00 -1.54452215E+01  7.72261074E+00  7.72261074E+00
 -1.54452215E+01  7.72261074E+00  7.72261074E+00 -1.54452215E+01  7.72261074E+00
  7.72261074E+00 -1.54452215E+01  7.72261074E+00  7.72261074E+00 -1.54452215E+01
  7.72261074E+00  7.72261074E+00 -1.54452215E+01  7.72261074E+00  7.72261074E+00
 -1.54452215E+01  7.72261074E+00  7.72261074E+00 -1.54452215E+01  7.72261074E+00
  7.72261074E+00 -1.54452215E+01  7.72261074E+00  7.72261074E+00 -1.54452215E+01
  7.72261074E+00  7.72261074E+00 -1.54452215E+01  7.72261074E+00  7.72261074E+00
 -1.54452215E+01  7.72261074E+00  7.72261074E+00 -1.54452215E+01  7.72261074E+00
  7.72261074E+00 -1.54452215E+01  7.72261074E+00  7.72261074E+00 -1.54452215E+01
  7.72261074E+00  7.72261074E+00 -1.54452215E+01  7.72261074E+00  7.72261074E+00
 -1.54452215E+01  7.72261074E+00  7.72261074E+00 -1.54452215E+01  7.72261074E+00
  7.72261074E+00 -1.54452215E+01  7.72261074E+00  7.72261074E+00 -1.54452215E+01
  7.72261074E+00  7.72261074E+00 -1.54452215E+01  7.72261074E+00  7.72261074E+00
 -1.54452215E+01  7.72261074E+00  7.72261074E+00 -1.54452215E+01  7.72261074E+00
  7.72261074E+00 -1.54452215E+01  7.72261074E+00  7.72261074E+00 -1.54452215E+01
  7.72261074E+00  7.72261074E+00 -1.54452215E+01  7.72261074E+00  7.72261074E+00
 -1.54452215E+01  7.72261074E+00  7.72261074E+00 -1.54452215E+01  7.72261074E+00
  7.72261074E+00 -1.54452215E+01  7.72261074E+00  7.72261074E+00 -1.54452215E+01
  7.72261074E+00  7.72261074E+00 -1.54452215E+01  7.72261074E+00  7.72261074E+00
 -1.54452215E+01  7.72261074E+00  7.72261074E+00 -1.54452215E+01  7.72261074E+00
  7.72261074E+00 -1.54452215E+01  7.72261074E+00  7.72261074E+00 -1.54452215E+01
  7.72261074E+00  7.72261074E+00 -1.54452215E+01  7.72261074E+00  7.72261074E+00
 -1.54452215E+01  7.72261074E+00  7.72261074E+00 -1.54452215E+01  7.72261074E+00
  7.72261074E+00 -1.54452215E+01  7.72261074E+00  7.72261074E+00 -1.54452215E+01
  7.72261074E+00  7.72261074E+00 -1.54452215E+01  7.72261074E+00  7.72261074E+00
 -1.54452215E+01  7.72261074E+00  7.72261074E+00 -1.54452215E+01  7.72261074E+00
  7.72261074E+00 -1.54452215E+01  7.72261074E+00  7.72261074E+00 -1.54452215E+01
  7.72261074E+00  7.72261074E+00 -1.54452215E+01  7.72261074E+00  7.72261074E+00
 -1.54452215E+01  7.72261074E+00  7.72261074E+00 -1.54452215E+01  7.72261074E+00
  7.72261074E+00 -1.54452215E+01  7.72261074E+00  7.72261074E+00 -1.54452215E+01
  7.72261074E+00  7.72261074E+00 -1.54452215E+01  7.72261074E+00  7.72261074E+00
 -1.54452215E+01  7.72261074E+00  7.72261074E+00 -1.54452215E+01  7.72261074E+00
  7.72261074E+00 -1.54452215E+01  7.72261074E+00  7.72261074E+00 -1.54452215E+01
  7.72261074E+00  7.72261074E+00 -1.54452215E+01  7.72261074E+00  7.72261074E+00
 -1.54452215E+01  7.72261074E+00  7.72261074E+00 -1.54452215E+01  7.72261074E+00
  7.72261074E+00 -1.54452215E+01  7.72261074E+00  7.72261074E+00 -1.54452215E+01
  7.72261074E+00  7.72261074E+00 -1.54452215E+01  7.72261074E+00  7.72261074E+00
 -1.54452215E+01  7.72261074E+00  7.72261074E+00 -1.54452215E+01  7.72261074E+00
  7.72261074E+00 -1.54452215E+01  7.72261074E+00  7.72261074E+00 -1.54452215E+01
  7.72261074E+00  7.72261074E+00 -1.54452215E+01  7.72261074E+00  7.72261074E+00
 -1.54452215E+01  7.72261074E+00  7.72261074E+00 -1.54452215E+01  7.72261074E+00
  7.72261074E+00 -1.54452215E+01  7.72261074E+00  7.72261074E+00 -1.54452215E+01
  7.72261074E+00  7.72261074E+00 -1.54452215E+01  7.72261074E+00  7.72261074E+00
 -1.54452215E+01  7.72261074E+00  7.72261074E+00 -1.54452215E+01  7.72261074E+00
  7.72261074E+00 -1.54452215E+01  7.72261074E+00  7.72261074E+00 -1.54452215E+01
  7.72261074E+00  7.72261074E+00 -1.54452215E+01  7.72261074E+00  7.72261074E+00
 -1.54452215E+01  7.72261074E+00  7.72261074E+00 -1.54452215E+01  7.72261074E+00
  7.72261074E+00 -1.54452215E+01  7.72261074E+00  7.72261074E+00 -1.54452215E+01
  7.72261074E+00  7.72261074E+00 -1.54452215E+01  7.72261074E+00  7.72261074E+00
 -1.54452215E+01  7.72261074E+00  7.72261074E+00 -1.54452215E+01  7.72261074E+00
  7.72261074E+00 -1.54452215E+01  7.72261074E+00  7.72261074E+00 -1.54452215E+01
  7.72261074E+00  7.72261074E+00 -1.54452215E+01  7.72261074E+00  7.72261074E+00
 -1.54452215E+01  7.72261074E+00  7.72261074E+00 -1.54452215E+01  7.72261074E+00
  7.72261074E+00 -1.54452215E+01  7.72261074E+00  7.72261074E+00 -1.54452215E+01
  7.72261074E+00  7.72261074E+00 -1.54452215E+01  7.72261074E+00  7.72261074E+00
 -1.54452215E+01  7.72261074E+00  7.72261074E+00 -1.54452215E+01  7.72261074E+00
  7.72261074E+00 -1.54452215E+01  7.72261074E+00  7.72261074E+00 -1.54452215E+01
  7.72261074E+00  7.72261074E+00 -1.54452215E+01  7.72261074E+00  7.72261074E+00
 -1.54452215E+01  7.72261074E+00  7.72261074E+00 -1.54452215E+01  7.72261074E+00
  7.72261074E+00 -1.54452215E+01  7.72261074E+00  7.72261074E+00 -1.54452215E+01
  7.72261074E+00  7.72261074E+00 -1.54452215E+01  7.72261074E+00  7.72261074E+00
 -1.54452215E+01  7.72261074E+00  7.72261074E+00 -1.54452215E+01  7.72261074E+00
  7.72261074E+00 -1.54452215E+01  7.72261074E+00  7.72261074E+00 -1.54452215E+01
  7.72261074E+00  7.72261074E+00 -1.54452215E+01  7.72261074E+00  7.72261074E+00
 -1.54452215E+01  7.72261074E+00  7.72261074E+00 -1.54452215E+01  7.72261074E+00
  7.72261074E+00 -1.54452215E+01  7.72261074E+00  7.72261074E+00 -1.54452215E+01
  7.72261074E+00  7.72261074E+00 -1.54452215E+01  7.72261074E+00  7.72261074E+00
 -1.54452215E+01  7.72261074E+00  7.72261074E+00 -1.54452215E+01  7.72261074E+00
  7.72261074E+00 -1.54452215E+01  7.72261074E+00  7.72261074E+00 -1.54452215E+01
  7.72261074E+00  7.72261074E+00 -1.54452215E+01  7.72261074E+00  7.72261074E+00
 -1.54452215E+01  7.72261074E+00  7.72261074E+00 -1.54452215E+01  7.72261074E+00
  7.72261074E+00 -1.54452215E+01  7.72261074E+00  7.72261074E+00 -1.54452215E+01
  7.72261074E+00  7.72261074E+00 -1.54452215E+01  7.72261074E+00  7.72261074E+00
 -1.54452215E+01  7.72261074E+00  7.72261074E+00 -1.54452215E+01  7.72261074E+00
  7.72261074E+00 -1.54452215E+01  7.72261074E+00  7.72261074E+00 -1.54452215E+01
  7.72261074E+00  7.72261074E+00 -1.54452215E+01  7.72261074E+00  7.72261074E+00
 -1.54452215E+01  7.72261074E+00  7.72261074E+00 -1.54452215E+01  7.72261074E+00
  7.72261074E+00 -1.54452215E+01  7.72261074E+00  7.72261074E+00 -1.54452215E+01
  7.72261074E+00  7.72261074E+00 -1.54452215E+01  7.72261074E+00  7.72261074E+00
 -1.54452215E+01  7.72261074E+00  7.72261074E+00 -1.54452215E+01  7.72261074E+00
  7.72261074E+00 -1.54452215E+01  7.72261074E+00  7.72261074E+00 -1.54452215E+01
  7.72261074E+00  7.72261074E+00 -1.54452215E+01  7.72261074E+00  7.72261074E+00
 -1.54452215E+01  7.72261074E+00  7.72261074E+00 -1.54452215E+01  7.72261074E+00
  7.72261074E+00 -1.54452215E+01  7.72261074E+00  7.72261074E+00 -1.54452215E+01
  7.72261074E+00  7.72261074E+00 -1.54452215E+01  7.72261074E+00  7.72261074E+00
 -1.54452215E+01  7.72261074E+00  7.72261074E+00 -1.54452215E+01  7.72261074E+00
  7.72261074E+00 -1.54452215E+01  7.72261074E+00  7.72261074E+00 -1.54452215E+01
  7.72261074E+00  7.72261074E+00 -1.54452215E+01  7.72261074E+00  7.72261074E+00
 -1.54452215E+01  7.72261074E+00  7.72261074E+00 -1.54452215E+01  7.72261074E+00
  7.72261074E+00 -1.54452215E+01  7.72261074E+00  7.72261074E+00 -1.54452215E+01
  7.72261074E+00  7.72261074E+00 -1.54452215E+01  7.72261074E+00  7.72261074E+00
 -1.54452215E+01  7.72261074E+00  7.72261074E+00 -1.54452215E+01  7.72261074E+00
  7.72261074E+00 -1.54452215E+01  7.72261074E+00  7.72261074E+00 -1.54452215E+01
  7.72261074E+00  7.72261074E+00 -1.54452215E+01  7.72261074E+00  7.72261074E+00
 -1.54452215E+01  7.72261074E+00  7.72261074E+00 -1.54452215E+01  7.72261074E+00
  7.72261074E+00 -1.54452215E+01  7.72261074E+00  7.72261074E+00 -1.54452215E+01
  7.72261074E+00  7.72261074E+00 -1.54452215E+01  7.72261074E+00  7.72261074E+00
 -1.54452215E+01  7.72261074E+00  7.72261074E+00 -1.54452215E+01  7.72261074E+00
  7.72261074E+00 -1.54452215E+01  7.72261074E+00  7.72261074E+00 -1.54452215E+01
  7.72261074E+00  7.72261074E+00 -1.54452215E+01  7.72261074E+00  7.72261074E+00
 -1.54452215E+01  7.72261074E+00  7.72261074E+00 -1.54452215E+01  7.72261074E+00
  7.72261074E+00 -1.54452215E+01  7.72261074E+00  7.72261074E+00 -1.54452215E+01
  7.72261074E+00  7.72261074E+00 -1.54452215E+01  7.72261074E+00  7.72261074E+00
 -1.54452215E+01  7.72261074E+00  7.72261074E+00 -1.54452215E+01  7.72261074E+00
  7.72261074E+00 -1.54452215E+01  7.72261074E+00  7.72261074E+00 -1.54452215E+01
  7.72261074E+00  7.72261074E+00 -1.54452215E+01  7.72261074E+00  7.72261074E+00
 -1.54452215E+01  7.72261074E+00  7.72261074E+00 -1.54452215E+01  7.72261074E+00
  7.72261074E+00 -1.54452215E+01  7.72261074E+00  7.72261074E+00 -1.54452215E+01
  7.72261074E+00  7.72261074E+00 -1.54452215E+01  7.72261074E+00  7.72261074E+00
 -1.54452215E+01  7.72261074E+00  7.72261074E+00 -1.54452215E+01  7.72261074E+00
  7.72261074E+00 -1.54452215E+01  7.72261074E+00  7.72261074E+00 -1.54452215E+01
  7.72261074E+00  7.72261074E+00 -1.54452215E+01  7.72261074E+00  7.72261074E+00
 -1.54452215E+01  7.72261074E+00  7.72261074E+00 -1.54452215E+01  7.72261074E+00
  7.72261074E+00 -1.54452215E+01  7.72261074E+00  7.72261074E+00 -1.54452215E+01
  7.72261074E+00  7.72261074E+00 -1.54452215E+01  7.72261074E+00  7.72261074E+00
 -1.54452215E+01  7.72261074E+00  7.72261074E+00 -1.54452215E+01  7.72261074E+00
  7.72261074E+00 -1.54452215E+01  7.72261074E+00  7.72261074E+00 -1.54452215E+01
  7.72261074E+00  7.72261074E+00 -1.54452215E+01  7.72261074E+00  7.72261074E+00
 -1.54452215E+01  7.72261074E+00  7.72261074E+00 -1.54452215E+01  7.72261074E+00
  7.72261074E+00 -1.54452215E+01  7.72261074E+00  7.72261074E+00 -1.54452215E+01
  7.72261074E+00  7.72261074E+00 -1.54452215E+01  7.72261074E+00  7.72261074E+00
 -1.54452215E+01  7.72261074E+00  7.72261074E+00 -1.54452215E+01  7.72261074E+00
  7.72261074E+00 -1.54452215E+01  7.72261074E+00  7.72261074E+00 -1.54452215E+01
  7.72261074E+00  7.72261074E+00 -1.54452215E+01  7.72261074E+00  7.72261074E+00
 -1.54452215E+01  7.72261074E+00  7.72261074E+00 -1.54452215E+01  7.72261074E+00
  7.72261074E+00 -1.54452215E+01  7.72261074E+00  7.72261074E+00 -1.54452215E+01
  7.72261074E+00  7.72261074E+00 -1.54452215E+01  7.72261074E+00  7.72261074E+00
 -1.54452215E+01  7.72261074E+00  7.72261074E+00 -1.54452215E+01  7.72261074E+00
  7.72261074E+00 -1.54452215E+01  7.72261074E+00  7.72261074E+00 -1.54452215E+01
  7.72261074E+00  7.72261074E+00 -1.54452215E+01  7.72261074E+00  7.72261074E+00
 -1.54452215E+01  7.72261074E+00  7.72261074E+00 -1.54452215E+01  7.72261074E+00
  7.72261074E+00 -1.54452215E+01  7.72261074E+00  7.72261074E+00 -1.54452215E+01
  7.72261074E+00  7.72261074E+00 -1.54452215E+01  7.72261074E+00  7.72261074E+00
 -1.54452215E+01  7.72261074E+00  7.72261074E+00 -1.54452215E+01  7.72261074E+00
  7.72261074E+00 -1.54452215E+01  7.72261074E+00  7.72261074E+00 -1.54452215E+01
  7.72261074E+00  7.72261074E+00 -1.54452215E+01  7.72261074E+00  7.72261074E+00
 -1.54452215E+01  7.72261074E+00  7.72261074E+00 -1.54452215E+01  7.72261074E+00
  7.72261074E+00 -1.54452215E+01  7.72261074E+00  7.72261074E+00 -1.54452215E+01
  7.72261074E+00  7.72261074E+00 -1.54452215E+01  7.72261074E+00  7.72261074E+00
 -1.54452215E+01  7.72261074E+00  7.72261074E+00 -1.54452215E+01  7.72261074E+00
  7.72261074E+00 -1.54452215E+01  7.72261074E+00  7.72261074E+00 -1.54452215E+01
  7.72261074E+00  7.72261074E+00 -1.54452215E+01  7.72261074E+00  7.72261074E+00
 -1.54452215E+01  7.72261074E+00  7.72261074E+00 -1.54452215E+01  7.72261074E+00
  7.72261074E+00 -1.54452215E+01  7.72261074E+00  7.72261074E+00 -1.54452215E+01
  7.72261074E+00  7.72261074E+00 -1.54452215E+01  7.72261074E+00  7.72261074E+00
 -1.54452215E+01  7.72261074E+00  7.72261074E+00 -1.54452215E+01  7.72261074E+00
  7.72261074E+00 -1.54452215E+01  7.72261074E+00  7.72261074E+00 -1.54452215E+01
  7.72261074E+00  7.72261074E+00 -1.54452215E+01  7.72261074E+00  7.72261074E+00
 -1.54452215E+01  7.72261074E+00  7.72261074E+00 -1.54452215E+01  7.72261074E+00
  7.72261074E+00 -1.54452215E+01  7.72261074E+00  7.72261074E+00 -1.54452215E+01
  7.72261074E+00  7.72261074E+00 -1.54452215E+01  7.72261074E+00  7.72261074E+00
 -1.54452215E+01  7.72261074E+00  7.72261074E+00 -1.54452215E+01  7.72261074E+00
  7.72261074E+00 -1.54452215E+01  7.72261074E+00  7.72261074E+00 -1.54452215E+01
  7.72261074E+00  7.72261074E+00 -1.54452215E+01  7.72261074E+00  7.72261074E+00
 -1.54452215E+01  7.72261074E+00  7.72261074E+00 -1.54452215E+01  7.72261074E+00
  7.72261074E+00 -1.54452215E+01  7.72261074E+00  7.72261074E+00 -1.54452215E+01
  7.72261074E+00  7.72261074E+00 -1.54452215E+01  7.72261074E+00  7.72261074E+00
 -1.54452215E+01  7.72261074E+00  7.72261074E+00 -1.54452215E+01  7.72261074E+00
  7.72261074E+00 -1.54452215E+01  7.72261074E+00  7.72261074E+00 -1.54452215E+01
  7.72261074E+00  7.72261074E+00 -1.54452215E+01  7.72261074E+00  7.72261074E+00
 -1.54452215E+01  7.72261074E+00  7.72261074E+00 -1.54452215E+01  7.72261074E+00
  7.72261074E+00 -1.54452215E+01  7.72261074E+00  7.72261074E+00 -1.54452215E+01
  7.72261074E+00  7.72261074E+00 -1.54452215E+01  7.72261074E+00  7.72261074E+00
 -1.54452215E+01  7.72261074E+00  7.72261074E+00 -1.54452215E+01  7.72261074E+00
  7.72261074E+00 -1.54452215E+01  7.72261074E+00  7.72261074E+00 -1.54452215E+01
  7.72261074E+00  7.72261074E+00 -1.54452215E+01  7.72261074E+00  7.72261074E+00
 -1.54452215E+01  7.72261074E+00  7.72261074E+00 -1.54452215E+01  7.72261074E+00
  7.72261074E+00 -1.54452215E+01  7.72261074E+00  7.72261074E+00 -1.54452215E+01
  7.72261074E+00  7.72261074E+00 -1.54452215E+01  7.72261074E+00  7.72261074E+00
 -1.54452215E+01  7.72261074E+00  7.72261074E+00 -1.54452215E+01  7.72261074E+00
  7.72261074E+00 -1.54452215E+01  7.72261074E+00  7.72261074E+00 -1.54452215E+01
  7.72261074E+00  7.72261074E+00 -1.54452215E+01  7.72261074E+00  7.72261074E+00
 -1.54452215E+01  7.72261074E+00  7.72261074E+00 -1.54452215E+01  7.72261074E+00
  7.72261074E+00 -1.54452215E+01  7.72261074E+00  7.72261074E+00 -1.54452215E+01
  7.72261074E+00  7.72261074E+00 -1.54452215E+01  7.72261074E+00  7.72261074E+00
 -1.54452215E+01  7.72261074E+00  7.72261074E+00 -1.54452215E+01  7.72261074E+00
  7.72261074E+00 -1.54452215E+01  7.72261074E+00  7.72261074E+00 -1.54452215E+01
  7.72261074E+00  7.72261074E+00 -1.54452215E+01  7.72261074E+00  7.72261074E+00
 -1.54452215E+01  7.72261074E+00  7.72261074E+00 -1.54452215E+01  7.72261074E+00
  7.72261074E+00 -1.54452215E+01  7.72261074E+00  7.72261074E+00 -1.54452215E+01
  7.72261074E+00  7.72261074E+00 -1.54452215E+01  7.72261074E+00  7.72261074E+00
 -1.54452215E+01  7.72261074E+00  7.72261074E+00 -1.54452215E+01  7.72261074E+00
  7.72261074E+00 -1.54452215E+01  7.72261074E+00  7.72261074E+00 -1.54452215E+01
  7.72261074E+00  7.72261074E+00 -1.54452215E+01  7.72261074E+00  7.72261074E+00
 -1.54452215E+01  7.72261074E+00  7.72261074E+00 -1.54452215E+01  7.72261074E+00
  7.72261074E+00 -1.54452215E+01  7.72261074E+00  7.72261074E+00 -1.54452215E+01
  7.72261074E+00  7.72261074E+00 -1.54452215E+01  7.72261074E+00  7.72261074E+00
 -1.54452215E+01  7.72261074E+00  7.72261074E+00 -1.54452215E+01  7.72261074E+00
  7.72261074E+00 -1.54452215E+01  7.72261074E+00  7.72261074E+00 -1.54452215E+01
  7.72261074E+00  7.72261074E+00 -1.54452215E+01  7.72261074E+00  7.72261074E+00
 -1.54452215E+01  7.72261074E+00  7.72261074E+00 -1.54452215E+01  7.72261074E+00
  7.72261074E+00 -1.54452215E+01  7.72261074E+00  7.72261074E+00 -1.54452215E+01
  7.72261074E+00  7.72261074E+00 -1.54452215E+01  7.72261074E+00  7.72261074E+00
 -1.54452215E+01  7.72261074E+00  7.72261074E+00 -1.54452215E+01  7.72261074E+00
  7.72261074E+00 -1.54452215E+01  7.72261074E+00  7.72261074E+00 -1.54452215E+01
  7.72261074E+00  7.72261074E+00 -1.54452215E+01  7.72261074E+00  7.72261074E+00
 -1.54452215E+01  7.72261074E+00  7.72261074E+00 -1.54452215E+01  7.72261074E+00
  7.72261074E+00 -1.54452215E+01  7.72261074E+00  7.72261074E+00 -1.54452215E+01
  7.72261074E+00  7.72261074E+00 -1.54452215E+01  7.72261074E+00  7.72261074E+00
 -1.54452215E+01  7.72261074E+00  7.72261074E+00 -1.54452215E+01  7.72261074E+00
  7.72261074E+00 -1.54452215E+01  7.72261074E+00  7.72261074E+00 -1.54452215E+01
  7.72261074E+00  7.72261074E+00 -1.54452215E+01  7.72261074E+00  7.72261074E+00
 -1.54452215E+01  7.72261074E+00  7.72261074E+00 -1.54452215E+01  7.72261074E+00
  7.72261074E+00 -1.54452215E+01  7.72261074E+00  7.72261074E+00 -1.54452215E+01
  7.72261074E+00  7.72261074E+00 -1.54452215E+01  7.72261074E+00  7.72261074E+00
 -1.54452215E+01  7.72261074E+00  7.72261074E+00 -1.54452215E+01  7.72261074E+00
  7.72261074E+00 -1.54452215E+01  7.72261074E+00  7.72261074E+00 -1.54452215E+01
  7.72261074E+00  7.72261074E+00 -1.54452215E+01  7.72261074E+00  7.72261074E+00
 -1.54452215E+01  7.72261074E+00  7.72261074E+00 -1.54452215E+01  7.72261074E+00
  7.72261074E+00 -1.54452215E+01  7.72261074E+00  7.72261074E+00 -1.54452215E+01
  7.72261074E+00  7.72261074E+00 -1.54452215E+01  7.72261074E+00  7.72261074E+00
 -1.54452215E+01  7.72261074E+00  7.72261074E+00 -1.54452215E+01  7.72261074E+00
  7.72261074E+00 -1.54452215E+01  7.72261074E+00  7.72261074E+00 -1.54452215E+01
  7.72261074E+00  7.72261074E+00 -1.54452215E+01  7.72261074E+00  7.72261074E+00
 -1.54452215E+01  7.72261074E+00  7.72261074E+00 -1.54452215E+01  7.72261074E+00
  7.72261074E+00 -1.54452215E+01  7.72261074E+00  7.72261074E+00 -1.54452215E+01
  7.72261074E+00  7.72261074E+00 -1.54452215E+01  7.72261074E+00  7.72261074E+00
 -1.54452215E+01  7.72261074E+00  7.72261074E+00 -1.54452215E+01  7.72261074E+00
  7.72261074E+00 -1.54452215E+01  7.72261074E+00  7.72261074E+00 -1.54452215E+01
  7.72261074E+00  7.72261074E+00 -1.54452215E+01  7.72261074E+00  7.72261074E+00
 -1.54452215E+01  7.72261074E+00  7.72261074E+00 -1.54452215E+01  7.72261074E+00
  7.72261074E+00 -1.54452215E+01  7.72261074E+00  7.72261074E+00 -1.54452215E+01
  7.72261074E+00  7.72261074E+00 -1.54452215E+01  7.72261074E+00  7.72261074E+00
 -1.54452215E+01  7.72261074E+00  7.72261074E+00 -1.54452215E+01  7.72261074E+00
  7.72261074E+00 -1.54452215E+01  7.72261074E+00  7.72261074E+00 -1.54452215E+01
  7.72261074E+00  7.72261074E+00 -1.54452215E+01  7.72261074E+00  7.72261074E+00
 -1.54452215E+01  7.72261074E+00  7.72261074E+00 -1.54452215E+01  7.72261074E+00
  7.72261074E+00 -1.54452215E+01  7.72261074E+00  7.72261074E+00 -1.54452215E+01
  7.72261074E+00  7.72261074E+00 -1.54452215E+01  7.72261074E+00  7.72261074E+00
 -1.54452215E+01  7.72261074E+00  7.72261074E+00 -1.54452215E+01  7.72261074E+00
  7.72261074E+00 -1.54452215E+01  7.72261074E+00  7.72261074E+00 -1.54452215E+01
  7.72261074E+00  7.72261074E+00 -1.54452215E+01  7.72261074E+00  7.72261074E+00
 -1.54452215E+01  7.72261074E+00  7.72261074E+00 -1.54452215E+01  7.72261074E+00
  7.72261074E+00 -1.54452215E+01  7.72261074E+00  7.72261074E+00 -1.54452215E+01
  7.72261074E+00  7.72261074E+00 -1.54452215E+01  7.72261074E+00  7.72261074E+00
 -1.54452215E+01  7.72261074E+00  7.72261074E+00 -1.54452215E+01  7.72261074E+00
  7.72261074E+00 -1.54452215E+01  7.72261074E+00  7.72261074E+00 -1.54452215E+01
  7.72261074E+00  7.72261074E+00 -1.54452215E+01  7.72261074E+00  7.72261074E+00
 -1.54452215E+01  7.72261074E+00  7.72261074E+00 -1.54452215E+01  7.72261074E+00
  7.72261074E+00 -1.54452215E+01  7.72261074E+00  7.72261074E+00 -1.54452215E+01
  7.72261074E+00  7.72261074E+00 -1.54452215E+01  7.72261074E+00  7.72261074E+00
 -1.54452215E+01  7.72261074E+00  7.72261074E+00 -1.54452215E+01  7.72261074E+00
  7.72261074E+00 -1.54452215E+01  7.72261074E+00  7.72261074E+00 -1.54452215E+01
  7.72261074E+00  7.72261074E+00 -1.54452215E+01  7.72261074E+00  7.72261074E+00
 -1.54452215E+01  7.72261074E+00  7.72261074E+00 -1.54452215E+01  7.72261074E+00
  7.72261074E+00 -1.54452215E+01  7.72261074E+00  7.72261074E+00 -1.54452215E+01
  7.72261074E+00  7.72261074E+00 -1.54452215E+01  7.72261074E+00  7.72261074E+00
 -1.54452215E+01  7.72261074E+00  7.72261074E+00 -1.54452215E+01  7.72261074E+00
  7.72261074E+00 -1.54452215E+01  7.72261074E+00  7.72261074E+00 -1.54452215E+01
  7.72261074E+00  7.72261074E+00 -1.54452215E+01  7.72261074E+00  7.72261074E+00
 -1.54452215E+01  7.72261074E+00  7.72261074E+00 -1.54452215E+01  7.72261074E+00
  7.72261074E+00 -1.54452215E+01  7.72261074E+00  7.72261074E+00 -1.54452215E+01
  7.72261074E+00  7.72261074E+00 -1.54452215E+01  7.72261074E+00  7.72261074E+00
 -1.54452215E+01  7.72261074E+00  7.72261074E+00 -1.54452215E+01  7.72261074E+00
  7.72261074E+00 -1.54452215E+01  7.72261074E+00  7.72261074E+00 -1.54452215E+01
  7.72261074E+00  7.72261074E+00 -1.54452215E+01  7.72261074E+00  7.72261074E+00
 -1.54452215E+01  7.72261074E+00  7.72261074E+00 -1.54452215E+01  7.72261074E+00
  7.72261074E+00 -1.54452215E+01  7.72261074E+00  7.72261074E+00 -1.54452215E+01
  7.72261074E+00  7.72261074E+00 -1.54452215E+01  7.72261074E+00  7.72261074E+00
 -1.54452215E+01  7.72261074E+00  7.72261074E+00 -1.54452215E+01  7.72261074E+00
  7.72261074E+00 -1.54452215E+01  7.72261074E+00  7.72261074E+00 -1.54452215E+01
  7.72261074E+00  7.72261074E+00 -1.54452215E+01  7.72261074E+00  7.72261074E+00
 -1.54452215E+01  7.72261074E+00  7.72261074E+00 -1.54452215E+01  7.72261074E+00
  7.72261074E+00 -1.54452215E+01  7.72261074E+00  7.72261074E+00 -1.54452215E+01
  7.72261074E+00  7.72261074E+00 -1.54452215E+01  7.72261074E+00  7.72261074E+00
 -1.54452215E+01  7.72261074E+00  7.72261074E+00 -1.54452215E+01  7.72261074E+00
  7.72261074E+00 -1.54452215E+01  7.72261074E+00  7.72261074E+00 -1.54452215E+01
  7.72261074E+00  7.72261074E+00 -1.54452215E+01  7.72261074E+00  7.72261074E+00
 -1.54452215E+01  7.72261074E+00  7.72261074E+00 -1.54452215E+01  7.72261074E+00
  7.72261074E+00 -1.54452215E+01  7.72261074E+00  7.72261074E+00 -1.54452215E+01
  7.72261074E+00  7.72261074E+00 -1.54452215E+01  7.72261074E+00  7.72261074E+00
 -1.54452215E+01  7.72261074E+00  7.72261074E+00 -1.54452215E+01  7.72261074E+00
  7.72261074E+00 -1.54452215E+01  7.72261074E+00  7.72261074E+00 -1.54452215E+01
  7.72261074E+00  7.72261074E+00 -1.54452215E+01  7.72261074E+00  7.72261074E+00
 -1.54452215E+01  7.72261074E+00  7.72261074E+00 -1.54452215E+01  7.72261074E+00
  7.72261074E+00 -1.54452215E+01  7.72261074E+00  7.72261074E+00 -1.54452215E+01
  7.72261074E+00  7.72261074E+00 -1.54452215E+01  7.72261074E+00  7.72261074E+00
 -1.54452215E+01  7.72261074E+00  7.72261074E+00 -1.54452215E+01  7.72261074E+00
  7.72261074E+00 -1.54452215E+01  7.72261074E+00  7.72261074E+00 -1.54452215E+01
  7.72261074E+00  7.72261074E+00 -1.54452215E+01  7.72261074E+00  7.72261074E+00
 -1.54452215E+01  7.72261074E+00  7.72261074E+00 -1.54452215E+01  7.72261074E+00
  7.72261074E+00 -1.54452215E+01  7.72261074E+00  7.72261074E+00 -1.54452215E+01
  7.72261074E+00  7.72261074E+00 -1.54452215E+01  7.72261074E+00  7.72261074E+00
 -1.54452215E+01  7.72261074E+00  7.72261074E+00 -1.54452215E+01  7.72261074E+00
  7.72261074E+00 -1.54452215E+01  7.72261074E+00  7.72261074E+00 -1.54452215E+01
  7.72261074E+00  7.72261074E+00 -1.54452215E+01  7.72261074E+00  7.72261074E+00
 -1.54452215E+01  7.72261074E+00  7.72261074E+00 -1.54452215E+01  7.72261074E+00
  7.72261074E+00 -1.54452215E+01  7.72261074E+00  7.72261074E+00 -1.54452215E+01
  7.72261074E+00  7.72261074E+00 -1.54452215E+01  7.72261074E+00  7.72261074E+00
 -1.54452215E+01  7.72261074E+00  7.72261074E+00 -1.54452215E+01  7.72261074E+00
  7.72261074E+00 -1.54452215E+01  7.72261074E+00  7.72261074E+00 -1.54452215E+01
  7.72261074E+00  7.72261074E+00 -1.54452215E+01  7.72261074E+00  7.72261074E+00
 -1.54452215E+01  7.72261074E+00  7.72261074E+00 -1.54452215E+01  7.72261074E+00
  7.72261074E+00 -1.54452215E+01  7.72261074E+00  7.72261074E+00 -1.54452215E+01
  7.72261074E+00  7.72261074E+00 -1.54452215E+01  7.72261074E+00  7.72261074E+00
 -1.54452215E+01  7.72261074E+00  7.72261074E+00 -1.54452215E+01  7.72261074E+00
  7.72261074E+00 -1.54452215E+01  7.72261074E+00  7.72261074E+00 -1.54452215E+01
  7.72261074E+00  7.72261074E+00 -1.54452215E+01  7.72261074E+00  7.72261074E+00
 -1.54452215E+01  7.72261074E+00  7.72261074E+00 -1.54452215E+01  7.72261074E+00
  7.72261074E+00 -1.54452215E+01  7.72261074E+00  7.72261074E+00 -1.54452215E+01
  7.72261074E+00  7.72261074E+00 -1.54452215E+01  7.72261074E+00  7.72261074E+00
 -1.54452215E+01  7.72261074E+00  7.72261074E+00 -1.54452215E+01  7.72261074E+00
  7.72261074E+00 -1.54452215E+01  7.72261074E+00  7.72261074E+00 -1.54452215E+01
  7.72261074E+00  7.72261074E+00 -1.54452215E+01  7.72261074E+00  7.72261074E+00
 -1.54452215E+01  7.72261074E+00  7.72261074E+00 -1.54452215E+01  7.72261074E+00
  7.72261074E+00 -1.54452215E+01  7.72261074E+00  7.72261074E+00 -1.54452215E+01
  7.72261074E+00  7.72261074E+00 -1.54452215E+01  7.72261074E+00  7.72261074E+00
 -1.54452215E+01  7.72261074E+00  7.72261074E+00 -1.54452215E+01  7.72261074E+00
  7.72261074E+00 -1.54452215E+01  7.72261074E+00  7.72261074E+00 -1.54452215E+01
  7.72261074E+00  7.72261074E+00 -1.54452215E+01  7.72261074E+00  7.72261074E+00
 -1.54452215E+01  7.72261074E+00  7.72261074E+00 -1.54452215E+01  7.72261074E+00
  7.72261074E+00 -1.54452215E+01  7.72261074E+00  7.72261074E+00 -1.54452215E+01
  7.72261074E+00  7.72261074E+00 -1.54452215E+01  7.72261074E+00  7.72261074E+00
 -1.54452215E+01  7.72261074E+00  7.72261074E+00 -1.54452215E+01  7.72261074E+00
  7.72261074E+00 -1.54452215E+01  7.72261074E+00  7.72261074E+00 -1.54452215E+01
  7.72261074E+00  7.72261074E+00 -1.54452215E+01  7.72261074E+00  7.72261074E+00
 -1.54452215E+01  7.72261074E+00  7.72261074E+00 -1.54452215E+01  7.72261074E+00
  7.72261074E+00 -1.54452215E+01  7.72261074E+00  7.72261074E+00 -1.54452215E+01
  7.72261074E+00  7.72261074E+00 -1.54452215E+01  7.72261074E+00  7.72261074E+00
 -1.54452215E+01  7.72261074E+00  7.72261074E+00 -1.54452215E+01  7.72261074E+00
  7.72261074E+00 -1.54452215E+01  7.72261074E+00  7.72261074E+00 -1.54452215E+01
  7.72261074E+00  7.72261074E+00 -1.54452215E+01  7.72261074E+00  7.72261074E+00
 -1.54452215E+01  7.72261074E+00  7.72261074E+00 -1.54452215E+01  7.72261074E+00
  7.72261074E+00 -1.54452215E+01  7.72261074E+00  7.72261074E+00 -1.54452215E+01
  7.72261074E+00  7.72261074E+00 -1.54452215E+01  7.72261074E+00  7.72261074E+00
 -1.54452215E+01  7.72261074E+00  7.72261074E+00 -1.54452215E+01  7.72261074E+00
  7.72261074E+00 -1.54452215E+01  7.72261074E+00  7.72261074E+00 -1.54452215E+01
  7.72261074E+00  7.72261074E+00 -1.54452215E+01  7.72261074E+00  7.72261074E+00
 -1.54452215E+01  7.72261074E+00  7.72261074E+00 -1.54452215E+01  7.72261074E+00
  7.72261074E+00 -1.54452215E+01  7.72261074E+00  7.72261074E+00 -1.54452215E+01
  7.72261074E+00  7.72261074E+00 -1.54452215E+01  7.72261074E+00  7.72261074E+00
 -1.54452215E+01  7.72261074E+00  7.72261074E+00 -1.54452215E+01  7.72261074E+00
  7.72261074E+00 -1.54452215E+01  7.72261074E+00  7.72261074E+00 -1.54452215E+01
  7.72261074E+00  7.72261074E+00 -1.54452215E+01  7.72261074E+00  7.72261074E+00
 -1.54452215E+01  7.72261074E+00  7.72261074E+00 -1.54452215E+01  7.72261074E+00
  7.72261074E+00 -1.54452215E+01  7.72261074E+00  7.72261074E+00 -1.54452215E+01
  7.72261074E+00  7.72261074E+00 -1.54452215E+01  7.72261074E+00  7.72261074E+00
 -1.54452215E+01  7.72261074E+00  7.72261074E+00 -1.54452215E+01  7.72261074E+00
  7.72261074E+00 -1.54452215E+01  7.72261074E+00  7.72261074E+00 -1.54452215E+01
  7.72261074E+00  7.72261074E+00 -1.54452215E+01  7.72261074E+00  7.72261074E+00
 -1.54452215E+01  7.72261074E+00  7.72261074E+00 -1.54452215E+01  7.72261074E+00
  7.72261074E+00 -1.54452215E+01  7.72261074E+00  7.72261074E+00 -1.54452215E+01
  7.72261074E+00  7.72261074E+00 -1.54452215E+01  7.72261074E+00  7.72261074E+00
 -1.54452215E+01  7.72261074E+00  7.72261074E+00 -1.54452215E+01  7.72261074E+00
  7.72261074E+00 -1.54452215E+01  7.72261074E+00  7.72261074E+00 -1.54452215E+01
  7.72261074E+00  7.72261074E+00 -1.54452215E+01  7.72261074E+00  7.72261074E+00
 -1.54452215E+01  7.72261074E+00  7.72261074E+00 -1.54452215E+01  7.72261074E+00
  7.72261074E+00 -1.54452215E+01  7.72261074E+00  7.72261074E+00 -1.54452215E+01
  7.72261074E+00  7.72261074E+00 -1.54452215E+01  7.72261074E+00  7.72261074E+00
 -1.54452215E+01  7.72261074E+00  7.72261074E+00 -1.54452215E+01  7.72261074E+00
  7.72261074E+00 -1.54452215E+01  7.72261074E+00  7.72261074E+00 -1.54452215E+01
  7.72261074E+00  7.72261074E+00 -1.54452215E+01  7.72261074E+00  7.72261074E+00
 -1.54452215E+01  7.72261074E+00  7.72261074E+00 -1.54452215E+01  7.72261074E+00
  7.72261074E+00 -1.54452215E+01  7.72261074E+00  7.72261074E+00 -1.54452215E+01
  7.72261074E+00  7.72261074E+00 -1.54452215E+01  7.72261074E+00  7.72261074E+00
 -1.54452215E+01  7.72261074E+00  7.72261074E+00 -1.54452215E+01  7.72261074E+00
  7.72261074E+00 -1.54452215E+01  7.72261074E+00  7.72261074E+00 -1.54452215E+01
  7.72261074E+00  7.72261074E+00 -1.54452215E+01  7.72261074E+00  7.72261074E+00
 -1.54452215E+01  7.72261074E+00  7.72261074E+00 -1.54452215E+01  7.72261074E+00
  7.72261074E+00 -1.54452215E+01  7.72261074E+00  7.72261074E+00 -1.54452215E+01
  7.72261074E+00  7.72261074E+00 -1.54452215E+01  7.72261074E+00  7.72261074E+00
 -1.54452215E+01  7.72261074E+00  7.72261074E+00 -1.54452215E+01  7.72261074E+00
  7.72261074E+00 -1.54452215E+01  7.72261074E+00  7.72261074E+00 -1.54452215E+01
  7.72261074E+00  7.72261074E+00 -1.54452215E+01  7.72261074E+00  7.72261074E+00
 -1.54452215E+01  7.72261074E+00  7.72261074E+00 -1.54452215E+01  7.72261074E+00
  7.72261074E+00 -1.54452215E+01  7.72261074E+00  7.72261074E+00 -1.54452215E+01
  7.72261074E+00  7.72261074E+00 -1.54452215E+01  7.72261074E+00  7.72261074E+00
 -1.54452215E+01  7.72261074E+00  7.72261074E+00 -1.54452215E+01  7.72261074E+00
  7.72261074E+00 -1.54452215E+01  7.72261074E+00  7.72261074E+00 -1.54452215E+01
  7.72261074E+00  7.72261074E+00 -1.54452215E+01  7.72261074E+00  7.72261074E+00
 -1.54452215E+01  7.72261074E+00  7.72261074E+00 -1.54452215E+01  7.72261074E+00
  7.72261074E+00 -1.54452215E+01  7.72261074E+00  7.72261074E+00 -1.54452215E+01
  7.72261074E+00  7.72261074E+00 -1.54452215E+01  7.72261074E+00  7.72261074E+00
 -1.54452215E+01  7.72261074E+00  7.72261074E+00 -1.54452215E+01  7.72261074E+00
  7.72261074E+00 -1.54452215E+01  7.72261074E+00  7.72261074E+00 -1.54452215E+01
  7.72261074E+00  7.72261074E+00 -1.54452215E+01  7.72261074E+00  7.72261074E+00
 -1.54452215E+01  7.72261074E+00  7.72261074E+00 -1.54452215E+01  7.72261074E+00
  7.72261074E+00 -1.54452215E+01  7.72261074E+00  7.72261074E+00 -1.54452215E+01
  7.72261074E+00  7.72261074E+00 -1.54452215E+01  7.72261074E+00  7.72261074E+00
 -1.54452215E+01  7.72261074E+00  7.72261074E+00 -1.54452215E+01  7.72261074E+00
  7.72261074E+00 -1.54452215E+01  7.72261074E+00  7.72261074E+00 -1.54452215E+01
  7.72261074E+00  7.72261074E+00 -1.54452215E+01  7.72261074E+00  7.72261074E+00
 -1.54452215E+01  7.72261074E+00  7.72261074E+00 -1.54452215E+01  7.72261074E+00
  7.72261074E+00 -1.54452215E+01  7.72261074E+00  7.72261074E+00 -1.54452215E+01
  7.72261074E+00  7.72261074E+00 -1.54452215E+01  7.72261074E+00  7.72261074E+00
 -1.54452215E+01  7.72261074E+00  7.72261074E+00 -1.54452215E+01  7.72261074E+00
  7.72261074E+00 -1.54452215E+01  7.72261074E+00  7.72261074E+00 -1.54452215E+01
  7.72261074E+00  7.72261074E+00 -1.54452215E+01  7.72261074E+00  7.72261074E+00
 -1.54452215E+01  7.72261074E+00  7.72261074E+00 -1.54452215E+01  7.72261074E+00
  7.72261074E+00 -1.54452215E+01  7.72261074E+00  7.72261074E+00 -1.54452215E+01
  7.72261074E+00  7.72261074E+00 -1.54452215E+01  7.72261074E+00  7.72261074E+00
 -1.54452215E+01  7.72261074E+00  7.72261074E+00 -1.54452215E+01  7.72261074E+00
  7.72261074E+00 -1.54452215E+01  7.72261074E+00  7.72261074E+00 -1.54452215E+01
  7.72261074E+00  7.72261074E+00 -1.54452215E+01  7.72261074E+00  7.72261074E+00
 -1.54452215E+01  7.72261074E+00  7.72261074E+00 -1.54452215E+01  7.72261074E+00
  7.72261074E+00 -1.54452215E+01  7.72261074E+00  7.72261074E+00 -1.54452215E+01
  7.72261074E+00  7.72261074E+00 -1.54452215E+01  7.72261074E+00  7.72261074E+00
 -1.54452215E+01  7.72261074E+00  7.72261074E+00 -1.54452215E+01  7.72261074E+00
  7.72261074E+00 -1.54452215E+01  7.72261074E+00  7.72261074E+00 -1.54452215E+01
  7.72261074E+00  7.72261074E+00 -1.54452215E+01  7.72261074E+00  7.72261074E+00
 -1.54452215E+01  7.72261074E+00  7.72261074E+00 -1.54452215E+01  7.72261074E+00
  7.72261074E+00 -1.54452215E+01  7.72261074E+00  7.72261074E+00 -1.54452215E+01
  7.72261074E+00  7.72261074E+00 -1.54452215E+01  7.72261074E+00  7.72261074E+00
 -1.54452215E+01  7.72261074E+00  7.72261074E+00 -1.54452215E+01  7.72261074E+00
  7.72261074E+00 -1.54452215E+01  7.72261074E+00  7.72261074E+00 -1.54452215E+01
  7.72261074E+00  7.72261074E+00 -1.54452215E+01  7.72261074E+00  7.72261074E+00
 -1.54452215E+01  7.72261074E+00  7.72261074E+00 -1.54452215E+01  7.72261074E+00
  7.72261074E+00 -1.54452215E+01  7.72261074E+00  7.72261074E+00 -1.54452215E+01
  7.72261074E+00  7.72261074E+00 -1.54452215E+01  7.72261074E+00  7.72261074E+00
 -1.54452215E+01  7.72261074E+00  7.72261074E+00 -1.54452215E+01  7.72261074E+00
  7.72261074E+00 -1.54452215E+01  7.72261074E+00  7.72261074E+00 -1.54452215E+01
  7.72261074E+00  7.72261074E+00 -1.54452215E+01  7.72261074E+00  7.72261074E+00
 -1.54452215E+01  7.72261074E+00  7.72261074E+00 -1.54452215E+01  7.72261074E+00
  7.72261074E+00 -1.54452215E+01  7.72261074E+00  7.72261074E+00 -1.54452215E+01
  7.72261074E+00  7.72261074E+00 -1.54452215E+01  7.72261074E+00  7.72261074E+00
 -1.54452215E+01  7.72261074E+00  7.72261074E+00 -1.54452215E+01  7.72261074E+00
  7.72261074E+00 -1.54452215E+01  7.72261074E+00  7.72261074E+00 -1.54452215E+01
  7.72261074E+00  7.72261074E+00 -1.54452215E+01  7.72261074E+00  7.72261074E+00
 -1.54452215E+01  7.72261074E+00  7.72261074E+00 -1.54452215E+01  7.72261074E+00
  7.72261074E+00 -1.54452215E+01  7.72261074E+00  7.72261074E+00 -1.54452215E+01
  7.72261074E+00  7.72261074E+00 -1.54452215E+01  7.72261074E+00  7.72261074E+00
 -1.54452215E+01  7.72261074E+00  7.72261074E+00 -1.54452215E+01  7.72261074E+00
  7.72261074E+00 -1.54452215E+01  7.72261074E+00  7.72261074E+00 -1.54452215E+01
  7.72261074E+00  7.72261074E+00 -1.54452215E+01  7.72261074E+00  7.72261074E+00
 -1.54452215E+01  7.72261074E+00  7.72261074E+00 -1.54452215E+01  7.72261074E+00
  7.72261074E+00 -1.54452215E+01  7.72261074E+00  7.72261074E+00 -1.54452215E+01
  7.72261074E+00  7.72261074E+00 -1.54452215E+01  7.72261074E+00  7.72261074E+00
 -1.54452215E+01  7.72261074E+00  7.72261074E+00 -1.54452215E+01  7.72261074E+00
  7.72261074E+00 -1.54452215E+01  7.72261074E+00  7.72261074E+00 -1.54452215E+01
  7.72261074E+00  7.72261074E+00 -1.54452215E+01  7.72261074E+00  7.72261074E+00
 -1.54452215E+01  7.72261074E+00  7.72261074E+00 -1.54452215E+01  7.72261074E+00
  7.72261074E+00 -1.54452215E+01  7.72261074E+00  7.72261074E+00 -1.54452215E+01
  7.72261074E+00  7.72261074E+00 -1.54452215E+01  7.72261074E+00  7.72261074E+00
 -1.54452215E+01  7.72261074E+00  7.72261074E+00 -1.54452215E+01  7.72261074E+00
  7.72261074E+00 -1.54452215E+01  7.72261074E+00  7.72261074E+00 -1.54452215E+01
  7.72261074E+00  7.72261074E+00 -1.54452215E+01  7.72261074E+00  7.72261074E+00
 -1.54452215E+01  7.72261074E+00  7.72261074E+00 -1.54452215E+01  7.72261074E+00
  7.72261074E+00 -1.54452215E+01  7.72261074E+00  7.72261074E+00 -1.54452215E+01
  7.72261074E+00  7.72261074E+00 -1.54452215E+01  7.72261074E+00  7.72261074E+00
 -1.54452215E+01  7.72261074E+00  7.72261074E+00 -1.54452215E+01  7.72261074E+00
  7.72261074E+00 -1.54452215E+01  7.72261074E+00  7.72261074E+00 -1.54452215E+01
  7.72261074E+00  7.72261074E+00 -1.54452215E+01  7.72261074E+00  7.72261074E+00
 -1.54452215E+01  7.72261074E+00  7.72261074E+00 -1.54452215E+01  7.72261074E+00
  7.72261074E+00 -1.54452215E+01  7.72261074E+00  7.72261074E+00 -1.54452215E+01
  7.72261074E+00  7.72261074E+00 -1.54452215E+01  7.72261074E+00  7.72261074E+00
 -1.54452215E+01  7.72261074E+00  7.72261074E+00 -1.54452215E+01  7.72261074E+00
  7.72261074E+00 -1.54452215E+01  7.72261074E+00  7.72261074E+00 -1.54452215E+01
  7.72261074E+00  7.72261074E+00 -1.54452215E+01  7.72261074E+00  7.72261074E+00
 -1.54452215E+01  7.72261074E+00  7.72261074E+00 -1.54452215E+01  7.72261074E+00
  7.72261074E+00 -1.54452215E+01  7.72261074E+00  7.72261074E+00 -1.54452215E+01
  7.72261074E+00  7.72261074E+00 -1.54452215E+01  7.72261074E+00  7.72261074E+00
 -1.54452215E+01  7.72261074E+00  7.72261074E+00 -1.54452215E+01  7.72261074E+00
  7.72261074E+00 -1.54452215E+01  7.72261074E+00  7.72261074E+00 -1.54452215E+01
  7.72261074E+00  7.72261074E+00 -1.54452215E+01  7.72261074E+00  7.72261074E+00
 -1.54452215E+01  7.72261074E+00  7.72261074E+00 -1.54452215E+01  7.72261074E+00
  7.72261074E+00 -1.54452215E+01  7.72261074E+00  7.72261074E+00 -1.54452215E+01
  7.72261074E+00  7.72261074E+00 -1.54452215E+01  7.72261074E+00  7.72261074E+00
 -1.54452215E+01  7.72261074E+00  7.72261074E+00 -1.54452215E+01  7.72261074E+00
  7.72261074E+00 -1.54452215E+01  7.72261074E+00  7.72261074E+00 -1.54452215E+01
  7.72261074E+00  7.72261074E+00 -1.54452215E+01  7.72261074E+00  7.72261074E+00
 -1.54452215E+01  7.72261074E+00  7.72261074E+00 -1.54452215E+01  7.72261074E+00
  7.72261074E+00 -1.54452215E+01  7.72261074E+00  7.72261074E+00 -1.54452215E+01
  7.72261074E+00  7.72261074E+00 -1.54452215E+01  7.72261074E+00  7.72261074E+00
 -1.54452215E+01  7.72261074E+00  7.72261074E+00 -1.54452215E+01  7.72261074E+00
  7.72261074E+00 -1.54452215E+01  7.72261074E+00  7.72261074E+00 -1.54452215E+01
  7.72261074E+00  7.72261074E+00 -1.54452215E+01  7.72261074E+00  7.72261074E+00
 -1.54452215E+01  7.72261074E+00  7.72261074E+00 -1.54452215E+01  7.72261074E+00
  7.72261074E+00 -1.54452215E+01  7.72261074E+00  7.72261074E+00 -1.54452215E+01
  7.72261074E+00  7.72261074E+00 -1.54452215E+01  7.72261074E+00  7.72261074E+00
 -1.54452215E+01  7.72261074E+00  7.72261074E+00 -1.54452215E+01  7.72261074E+00
  7.72261074E+00 -1.54452215E+01  7.72261074E+00  7.72261074E+00 -1.54452215E+01
  7.72261074E+00  7.72261074E+00 -1.54452215E+01  7.72261074E+00  7.72261074E+00
 -1.54452215E+01  7.72261074E+00  7.72261074E+00 -1.54452215E+01  7.72261074E+00
  7.72261074E+00 -1.54452215E+01  7.72261074E+00  7.72261074E+00 -1.54452215E+01
  7.72261074E+00  7.72261074E+00 -1.54452215E+01  7.72261074E+00  7.72261074E+00
 -1.54452215E+01  7.72261074E+00  7.72261074E+00 -1.54452215E+01  7.72261074E+00
  7.72261074E+00 -1.54452215E+01  7.72261074E+00  7.72261074E+00 -1.54452215E+01
  7.72261074E+00  7.72261074E+00 -1.54452215E+01  7.72261074E+00  7.72261074E+00
 -1.54452215E+01  7.72261074E+00  7.72261074E+00 -1.54452215E+01  7.72261074E+00
  7.72261074E+00 -1.54452215E+01  7.72261074E+00  7.72261074E+00 -1.54452215E+01
  7.72261074E+00  7.72261074E+00 -1.54452215E+01  7.72261074E+00  7.72261074E+00
 -1.54452215E+01  7.72261074E+00  7.72261074E+00 -1.54452215E+01  7.72261074E+00
  7.72261074E+00 -1.54452215E+01  7.72261074E+00  7.72261074E+00 -1.54452215E+01
  7.72261074E+00  7.72261074E+00 -1.54452215E+01  7.72261074E+00  7.72261074E+00
 -1.54452215E+01  7.72261074E+00  7.72261074E+00 -1.54452215E+01  7.72261074E+00
  7.72261074E+00 -1.54452215E+01  7.72261074E+00  7.72261074E+00 -1.54452215E+01
  7.72261074E+00  7.72261074E+00 -1.54452215E+01  7.72261074E+00  7.72261074E+00
 -1.54452215E+01  7.72261074E+00  7.72261074E+00 -1.54452215E+01  7.72261074E+00
  7.72261074E+00 -1.54452215E+01  7.72261074E+00  7.72261074E+00 -1.54452215E+01
  7.72261074E+00  7.72261074E+00 -1.54452215E+01  7.72261074E+00  7.72261074E+00
 -1.54452215E+01  7.72261074E+00  7.72261074E+00 -1.54452215E+01  7.72261074E+00
  7.72261074E+00 -1.54452215E+01  7.72261074E+00  7.72261074E+00 -1.54452215E+01
  7.72261074E+00  7.72261074E+00 -1.54452215E+01  7.72261074E+00  7.72261074E+00
 -1.54452215E+01  7.72261074E+00  7.72261074E+00 -1.54452215E+01  7.72261074E+00
  7.72261074E+00 -1.54452215E+01  7.72261074E+00  7.72261074E+00 -1.54452215E+01
  7.72261074E+00  7.72261074E+00 -1.54452215E+01  7.72261074E+00  7.72261074E+00
 -1.54452215E+01  7.72261074E+00  7.72261074E+00 -1.54452215E+01  7.72261074E+00
  7.72261074E+00 -1.54452215E+01  7.72261074E+00  7.72261074E+00 -1.54452215E+01
  7.72261074E+00  7.72261074E+00 -1.54452215E+01  7.72261074E+00  7.72261074E+00
 -1.54452215E+01  7.72261074E+00  7.72261074E+00 -1.54452215E+01  7.72261074E+00
  7.72261074E+00 -1.54452215E+01  7.72261074E+00  7.72261074E+00 -1.54452215E+01
  7.72261074E+00  7.72261074E+00 -1.54452215E+01  7.72261074E+00  7.72261074E+00
 -1.54452215E+01  7.72261074E+00  7.72261074E+00 -1.54452215E+01  7.72261074E+00
  7.72261074E+00 -1.54452215E+01  7.72261074E+00  7.72261074E+00 -1.54452215E+01
  7.72261074E+00  7.72261074E+00 -1.54452215E+01  7.72261074E+00  7.72261074E+00
 -1.54452215E+01  7.72261074E+00  7.72261074E+00 -1.54452215E+01  7.72261074E+00
  7.72261074E+00 -1.54452215E+01  7.72261074E+00  7.72261074E+00 -1.54452215E+01
  7.72261074E+00  7.72261074E+00 -1.54452215E+01  7.72261074E+00  7.72261074E+00
 -1.54452215E+01  7.72261074E+00  7.72261074E+00 -1.54452215E+01  7.72261074E+00
  7.72261074E+00 -1.54452215E+01  7.72261074E+00  7.72261074E+00 -1.54452215E+01
  7.72261074E+00  7.72261074E+00 -1.54452215E+01  7.72261074E+00  7.72261074E+00
 -1.54452215E+01  7.72261074E+00  7.72261074E+00 -1.54452215E+01  7.72261074E+00
  7.72261074E+00 -1.54452215E+01  7.72261074E+00  7.72261074E+00 -1.54452215E+01
  7.72261074E+00  7.72261074E+00 -1.54452215E+01  7.72261074E+00  7.72261074E+00
 -1.54452215E+01  7.72261074E+00  7.72261074E+00 -1.54452215E+01  7.72261074E+00
  7.72261074E+00 -1.54452215E+01  7.72261074E+00  7.72261074E+00 -1.54452215E+01
  7.72261074E+00  7.72261074E+00 -1.54452215E+01  7.72261074E+00  7.72261074E+00
 -1.54452215E+01  7.72261074E+00  7.72261074E+00 -1.54452215E+01  7.72261074E+00
  7.72261074E+00 -1.54452215E+01  7.72261074E+00  7.72261074E+00 -1.54452215E+01
  7.72261074E+00  7.72261074E+00 -1.54452215E+01  7.72261074E+00  7.72261074E+00
 -1.54452215E+01  7.72261074E+00  7.72261074E+00 -1.54452215E+01  7.72261074E+00
  7.72261074E+00 -1.54452215E+01  7.72261074E+00  7.72261074E+00 -1.54452215E+01
  7.72261074E+00  7.72261074E+00 -1.54452215E+01  7.72261074E+00  7.72261074E+00
 -1.54452215E+01  7.72261074E+00  7.72261074E+00 -1.54452215E+01  7.72261074E+00
  7.72261074E+00 -1.54452215E+01  7.72261074E+00  7.72261074E+00 -1.54452215E+01
  7.72261074E+00  7.72261074E+00 -1.54452215E+01  7.72261074E+00  7.72261074E+00
 -1.54452215E+01  7.72261074E+00  7.72261074E+00 -1.54452215E+01  7.72261074E+00
  7.72261074E+00 -1.54452215E+01  7.72261074E+00  7.72261074E+00 -1.54452215E+01
  7.72261074E+00  7.72261074E+00 -1.54452215E+01  7.72261074E+00  7.72261074E+00
 -1.54452215E+01  7.72261074E+00  7.72261074E+00 -1.54452215E+01  7.72261074E+00
  7.72261074E+00 -1.54452215E+01  7.72261074E+00  7.72261074E+00 -1.54452215E+01
  7.72261074E+00  7.72261074E+00 -1.54452215E+01  7.72261074E+00  7.72261074E+00
 -1.54452215E+01  7.72261074E+00  7.72261074E+00 -1.54452215E+01  7.72261074E+00
  7.72261074E+00 -1.54452215E+01  7.72261074E+00  7.72261074E+00 -1.54452215E+01
  7.72261074E+00  7.72261074E+00 -1.54452215E+01  7.72261074E+00  7.72261074E+00
 -1.54452215E+01  7.72261074E+00  7.72261074E+00 -1.54452215E+01  7.72261074E+00
  7.72261074E+00 -1.54452215E+01  7.72261074E+00  7.72261074E+00 -1.54452215E+01
  7.72261074E+00  7.72261074E+00 -1.54452215E+01  7.72261074E+00  7.72261074E+00
 -1.54452215E+01  7.72261074E+00  7.72261074E+00 -1.54452215E+01  7.72261074E+00
  7.72261074E+00 -1.54452215E+01  7.72261074E+00  7.72261074E+00 -1.54452215E+01
  7.72261074E+00  7.72261074E+00 -1.54452215E+01  7.72261074E+00  7.72261074E+00
 -1.54452215E+01  7.72261074E+00  7.72261074E+00 -1.54452215E+01  7.72261074E+00
  7.72261074E+00 -1.54452215E+01  7.72261074E+00  7.72261074E+00 -1.54452215E+01
  7.72261074E+00  7.72261074E+00 -1.54452215E+01  7.72261074E+00  7.72261074E+00
 -1.54452215E+01  7.72261074E+00  7.72261074E+00 -1.54452215E+01  7.72261074E+00
  7.72261074E+00 -1.54452215E+01  7.72261074E+00  7.72261074E+00 -1.54452215E+01
  7.72261074E+00  7.72261074E+00 -1.54452215E+01  7.72261074E+00  7.72261074E+00
 -1.54452215E+01  7.72261074E+00  7.72261074E+00 -1.54452215E+01  7.72261074E+00
  7.72261074E+00 -1.54452215E+01  7.72261074E+00  7.72261074E+00 -1.54452215E+01
  7.72261074E+00  7.72261074E+00 -1.54452215E+01  7.72261074E+00  7.72261074E+00
 -1.54452215E+01  7.72261074E+00  7.72261074E+00 -1.54452215E+01  7.72261074E+00
  7.72261074E+00 -1.54452215E+01  7.72261074E+00  7.72261074E+00 -1.54452215E+01
  7.72261074E+00  7.72261074E+00 -1.54452215E+01  7.72261074E+00  7.72261074E+00
 -1.54452215E+01  7.72261074E+00  7.72261074E+00 -1.54452215E+01  7.72261074E+00
  7.72261074E+00 -1.54452215E+01  7.72261074E+00  7.72261074E+00 -1.54452215E+01
  7.72261074E+00  7.72261074E+00 -1.54452215E+01  7.72261074E+00  7.72261074E+00
 -1.54452215E+01  7.72261074E+00  7.72261074E+00 -1.54452215E+01  7.72261074E+00
  7.72261074E+00 -1.54452215E+01  7.72261074E+00  7.72261074E+00 -1.54452215E+01
  7.72261074E+00  7.72261074E+00 -1.54452215E+01  7.72261074E+00  7.72261074E+00
 -1.54452215E+01  7.72261074E+00  7.72261074E+00 -1.54452215E+01  7.72261074E+00
  7.72261074E+00 -1.54452215E+01  7.72261074E+00  7.72261074E+00 -1.54452215E+01
  7.72261074E+00  7.72261074E+00 -1.54452215E+01  7.72261074E+00  7.72261074E+00
 -1.54452215E+01  7.72261074E+00  7.72261074E+00 -1.54452215E+01  7.72261074E+00
  7.72261074E+00 -1.54452215E+01  7.72261074E+00  7.72261074E+00 -1.54452215E+01
  7.72261074E+00  7.72261074E+00 -1.54452215E+01  7.72261074E+00  7.72261074E+00
 -1.54452215E+01  7.72261074E+00  7.72261074E+00 -1.54452215E+01  7.72261074E+00
  7.72261074E+00 -1.54452215E+01  7.72261074E+00  7.72261074E+00 -1.54452215E+01
  7.72261074E+00  7.72261074E+00 -1.54452215E+01  7.72261074E+00  7.72261074E+00
 -1.54452215E+01  7.72261074E+00  7.72261074E+00 -1.54452215E+01  7.72261074E+00
  7.72261074E+00 -1.54452215E+01  7.72261074E+00  7.72261074E+00 -1.54452215E+01
  7.72261074E+00  7.72261074E+00 -1.54452215E+01  7.72261074E+00  7.72261074E+00
 -1.54452215E+01  7.72261074E+00  7.72261074E+00 -1.54452215E+01  7.72261074E+00
  7.72261074E+00 -1.54452215E+01  7.72261074E+00  7.72261074E+00 -1.54452215E+01
  7.72261074E+00  7.72261074E+00 -1.54452215E+01  7.72261074E+00  7.72261074E+00
 -1.54452215E+01  7.72261074E+00  7.72261074E+00 -1.54452215E+01  7.72261074E+00
  7.72261074E+00 -1.54452215E+01  7.72261074E+00  7.72261074E+00 -1.54452215E+01
  7.72261074E+00  7.72261074E+00 -1.54452215E+01  7.72261074E+00  7.72261074E+00
 -1.54452215E+01  7.72261074E+00  7.72261074E+00 -1.54452215E+01  7.72261074E+00
  7.72261074E+00 -1.54452215E+01  7.72261074E+00  7.72261074E+00 -1.54452215E+01
  7.72261074E+00  7.72261074E+00 -1.54452215E+01  7.72261074E+00  7.72261074E+00
 -1.54452215E+01  7.72261074E+00  7.72261074E+00 -1.54452215E+01  7.72261074E+00
  7.72261074E+00 -1.54452215E+01  7.72261074E+00  7.72261074E+00 -1.54452215E+01
  7.72261074E+00  7.72261074E+00 -1.54452215E+01  7.72261074E+00  7.72261074E+00
 -1.54452215E+01  7.72261074E+00  7.72261074E+00 -1.54452215E+01  7.72261074E+00
  7.72261074E+00 -1.54452215E+01  7.72261074E+00  7.72261074E+00 -1.54452215E+01
  7.72261074E+00  7.72261074E+00 -1.54452215E+01  7.72261074E+00  7.72261074E+00
 -1.54452215E+01  7.72261074E+00  7.72261074E+00 -1.54452215E+01  7.72261074E+00
  7.72261074E+00 -1.54452215E+01  7.72261074E+00  7.72261074E+00 -1.54452215E+01
  7.72261074E+00  7.72261074E+00 -1.54452215E+01  7.72261074E+00  7.72261074E+00
 -1.54452215E+01  7.72261074E+00  7.72261074E+00 -1.54452215E+01  7.72261074E+00
  7.72261074E+00 -1.54452215E+01  7.72261074E+00  7.72261074E+00 -1.54452215E+01
  7.72261074E+00  7.72261074E+00 -1.54452215E+01  7.72261074E+00  7.72261074E+00
 -1.54452215E+01  7.72261074E+00  7.72261074E+00 -1.54452215E+01  7.72261074E+00
  7.72261074E+00 -1.54452215E+01  7.72261074E+00  7.72261074E+00 -1.54452215E+01
  7.72261074E+00  7.72261074E+00 -1.54452215E+01  7.72261074E+00  7.72261074E+00
 -1.54452215E+01  7.72261074E+00  7.72261074E+00 -1.54452215E+01  7.72261074E+00
  7.72261074E+00 -1.54452215E+01  7.72261074E+00  7.72261074E+00 -1.54452215E+01
  7.72261074E+00  7.72261074E+00 -1.54452215E+01  7.72261074E+00  7.72261074E+00
 -1.54452215E+01  7.72261074E+00  7.72261074E+00 -1.54452215E+01  7.72261074E+00
  7.72261074E+00 -1.54452215E+01  7.72261074E+00  7.72261074E+00 -1.54452215E+01
  7.72261074E+00  7.72261074E+00 -1.54452215E+01  7.72261074E+00  7.72261074E+00
 -1.54452215E+01  7.72261074E+00  7.72261074E+00 -1.54452215E+01  7.72261074E+00
  7.72261074E+00 -1.54452215E+01  7.72261074E+00  7.72261074E+00 -1.54452215E+01
  7.72261074E+00  7.72261074E+00 -1.54452215E+01  7.72261074E+00  7.72261074E+00
 -1.54452215E+01  7.72261074E+00  7.72261074E+00 -1.54452215E+01  7.72261074E+00
  7.72261074E+00 -1.54452215E+01  7.72261074E+00  7.72261074E+00 -1.54452215E+01
  7.72261074E+00  7.72261074E+00 -1.54452215E+01  7.72261074E+00  7.72261074E+00
 -1.54452215E+01  7.72261074E+00  7.72261074E+00 -1.54452215E+01  7.72261074E+00
  7.72261074E+00 -1.54452215E+01  7.72261074E+00  7.72261074E+00 -1.54452215E+01
  7.72261074E+00  7.72261074E+00 -1.54452215E+01  7.72261074E+00  7.72261074E+00
 -1.54452215E+01  7.72261074E+00  7.72261074E+00 -1.54452215E+01  7.72261074E+00
  7.72261074E+00 -1.54452215E+01  7.72261074E+00  7.72261074E+00 -1.54452215E+01
  7.72261074E+00  7.72261074E+00 -1.54452215E+01  7.72261074E+00  7.72261074E+00
 -1.54452215E+01  7.72261074E+00  7.72261074E+00 -1.54452215E+01  7.72261074E+00
  7.72261074E+00 -1.54452215E+01  7.72261074E+00  7.72261074E+00 -1.54452215E+01
  7.72261074E+00  7.72261074E+00 -1.54452215E+01  7.72261074E+00  7.72261074E+00
 -1.54452215E+01  7.72261074E+00  7.72261074E+00 -1.54452215E+01  7.72261074E+00
  7.72261074E+00 -1.54452215E+01  7.72261074E+00  7.72261074E+00 -1.54452215E+01
  7.72261074E+00  7.72261074E+00 -1.54452215E+01  7.72261074E+00  7.72261074E+00
 -1.54452215E+01  7.72261074E+00  7.72261074E+00 -1.54452215E+01  7.72261074E+00
  7.72261074E+00 -1.54452215E+01  7.72261074E+00  7.72261074E+00 -1.54452215E+01
  7.72261074E+00  7.72261074E+00 -1.54452215E+01  7.72261074E+00  7.72261074E+00
 -1.54452215E+01  7.72261074E+00  7.72261074E+00 -1.54452215E+01  7.72261074E+00
  7.72261074E+00 -1.54452215E+01  7.72261074E+00  7.72261074E+00 -1.54452215E+01
  7.72261074E+00  7.72261074E+00 -1.54452215E+01  7.72261074E+00  7.72261074E+00
 -1.54452215E+01  7.72261074E+00  7.72261074E+00 -1.54452215E+01  7.72261074E+00
  7.72261074E+00 -1.54452215E+01  7.72261074E+00  7.72261074E+00 -1.54452215E+01
  7.72261074E+00  7.72261074E+00 -1.54452215E+01  7.72261074E+00  7.72261074E+00
 -1.54452215E+01  7.72261074E+00  7.72261074E+00 -1.54452215E+01  7.72261074E+00
  7.72261074E+00 -1.54452215E+01  7.72261074E+00  7.72261074E+00 -1.54452215E+01
  7.72261074E+00  7.72261074E+00 -1.54452215E+01  7.72261074E+00  7.72261074E+00
 -1.54452215E+01  7.72261074E+00  7.72261074E+00 -1.54452215E+01  7.72261074E+00
  7.72261074E+00 -1.54452215E+01  7.72261074E+00  7.72261074E+00 -1.54452215E+01
  7.72261074E+00  7.72261074E+00 -1.54452215E+01  7.72261074E+00  7.72261074E+00
 -1.54452215E+01  7.72261074E+00  7.72261074E+00 -1.54452215E+01  7.72261074E+00
  7.72261074E+00 -1.54452215E+01  7.72261074E+00  7.72261074E+00 -1.54452215E+01
  7.72261074E+00  7.72261074E+00 -1.54452215E+01  7.72261074E+00  7.72261074E+00
 -1.54452215E+01  7.72261074E+00  7.72261074E+00 -1.54452215E+01  7.72261074E+00
  7.72261074E+00 -1.54452215E+01  7.72261074E+00  7.72261074E+00 -1.54452215E+01
  7.72261074E+00  7.72261074E+00 -1.54452215E+01  7.72261074E+00  7.72261074E+00
 -1.54452215E+01  7.72261074E+00  7.72261074E+00 -1.54452215E+01  7.72261074E+00
  7.72261074E+00 -1.54452215E+01  7.72261074E+00  7.72261074E+00 -1.54452215E+01
  7.72261074E+00  7.72261074E+00 -1.54452215E+01  7.72261074E+00  7.72261074E+00
 -1.54452215E+01  7.72261074E+00  7.72261074E+00 -1.54452215E+01  7.72261074E+00
  7.72261074E+00 -1.54452215E+01  7.72261074E+00  7.72261074E+00 -1.54452215E+01
  7.72261074E+00  7.72261074E+00 -1.54452215E+01  7.72261074E+00  7.72261074E+00
 -1.54452215E+01  7.72261074E+00  7.72261074E+00 -1.54452215E+01  7.72261074E+00
  7.72261074E+00 -1.54452215E+01  7.72261074E+00  7.72261074E+00 -1.54452215E+01
  7.72261074E+00  7.72261074E+00 -1.54452215E+01  7.72261074E+00  7.72261074E+00
 -1.54452215E+01  7.72261074E+00  7.72261074E+00 -1.54452215E+01  7.72261074E+00
  7.72261074E+00 -1.54452215E+01  7.72261074E+00  7.72261074E+00 -1.54452215E+01
  7.72261074E+00  7.72261074E+00 -1.54452215E+01  7.72261074E+00  7.72261074E+00
 -1.54452215E+01  7.72261074E+00  7.72261074E+00 -1.54452215E+01  7.72261074E+00
  7.72261074E+00 -1.54452215E+01  7.72261074E+00  7.72261074E+00 -1.54452215E+01
  7.72261074E+00  7.72261074E+00 -1.54452215E+01  7.72261074E+00  7.72261074E+00
 -1.54452215E+01  7.72261074E+00  7.72261074E+00 -1.54452215E+01  7.72261074E+00
  7.72261074E+00 -1.54452215E+01  7.72261074E+00  7.72261074E+00 -1.54452215E+01
  7.72261074E+00  7.72261074E+00 -1.54452215E+01  7.72261074E+00  7.72261074E+00
 -1.54452215E+01  7.72261074E+00  7.72261074E+00 -1.54452215E+01  7.72261074E+00
  7.72261074E+00 -1.54452215E+01  7.72261074E+00  7.72261074E+00 -1.54452215E+01
  7.72261074E+00  7.72261074E+00 -1.54452215E+01  7.72261074E+00  7.72261074E+00
 -1.54452215E+01  7.72261074E+00  7.72261074E+00 -1.54452215E+01  7.72261074E+00
  7.72261074E+00 -1.54452215E+01  7.72261074E+00  7.72261074E+00 -1.54452215E+01
  7.72261074E+00  7.72261074E+00 -1.54452215E+01  7.72261074E+00  7.72261074E+00
 -1.54452215E+01  7.72261074E+00  7.72261074E+00 -1.54452215E+01  7.72261074E+00
  7.72261074E+00 -1.54452215E+01  7.72261074E+00  7.72261074E+00
%FLAG ATOMIC_NUMBER                                                             
%FORMAT(10I8)                                                                   
       7       6       8       6       7       8       6       7       8       6
       8       6       8       6       8       6       6       6       6       6
       6       1       1       1       1       1       1       1       1       1
       1       1       1       1       1       1       1       1       1      30
      11       8       1       1       8       1       1       8       1       1
       8       1       1       8       1       1       8       1       1       8
       1       1       8       1       1       8       1       1       8       1
       1       8       1       1       8       1       1       8       1       1
       8       1       1       8       1       1       8       1       1       8
       1       1       8       1       1       8       1       1       8       1
       1       8       1       1       8       1       1       8       1       1
       8       1       1       8       1       1       8       1       1       8
       1       1       8       1       1       8       1       1       8       1
       1       8       1       1       8       1       1       8       1       1
       8       1       1       8       1       1       8       1       1       8
       1       1       8       1       1       8       1       1       8       1
       1       8       1       1       8       1       1       8       1       1
       8       1       1       8       1       1       8       1       1       8
       1       1       8       1       1       8       1       1       8       1
       1       8       1       1       8       1       1       8       1       1
       8       1       1       8       1       1       8       1       1       8
       1       1       8       1       1       8       1       1       8       1
       1       8       1       1       8       1       1       8       1       1
       8       1       1       8       1       1       8       1       1       8
       1       1       8       1       1       8       1       1       8       1
       1       8       1       1       8       1       1       8       1       1
       8       1       1       8       1       1       8       1       1       8
       1       1       8       1       1       8       1       1       8       1
       1       8       1       1       8       1       1       8       1       1
       8       1       1       8       1       1       8       1       1       8
       1       1       8       1       1       8       1       1       8       1
       1       8       1       1       8       1       1       8       1       1
       8       1       1       8       1       1       8       1       1       8
       1       1       8       1       1       8       1       1       8       1
       1       8       1       1       8       1       1       8       1       1
       8       1       1       8       1       1       8       1       1       8
       1       1       8       1       1       8       1       1       8       1
       1       8       1       1       8       1       1       8       1       1
       8       1       1       8       1       1       8       1       1       8
       1       1       8       1       1       8       1       1       8       1
       1       8       1       1       8       1       1       8       1       1
       8       1       1       8       1       1       8       1       1       8
       1       1       8       1       1       8       1       1       8       1
       1       8       1       1       8       1       1       8       1       1
       8       1       1       8       1       1       8       1       1       8
       1       1       8       1       1       8       1       1       8       1
       1       8       1       1       8       1       1       8       1       1
       8       1       1       8       1       1       8       1       1       8
       1       1       8       1       1       8       1       1       8       1
       1       8       1       1       8       1       1       8       1       1
       8       1       1       8       1       1       8       1       1       8
       1       1       8       1       1       8       1       1       8       1
       1       8       1       1       8       1       1       8       1       1
       8       1       1       8       1       1       8       1       1       8
       1       1       8       1       1       8       1       1       8       1
       1       8       1       1       8       1       1       8       1       1
       8       1       1       8       1       1       8       1       1       8
       1       1       8       1       1       8       1       1       8       1
       1       8       1       1       8       1       1       8       1       1
       8       1       1       8       1       1       8       1       1       8
       1       1       8       1       1       8       1       1       8       1
       1       8       1       1       8       1       1       8       1       1
       8       1       1       8       1       1       8       1       1       8
       1       1       8       1       1       8       1       1       8       1
       1       8       1       1       8       1       1       8       1       1
       8       1       1       8       1       1       8       1       1       8
       1       1       8       1       1       8       1       1       8       1
       1       8       1       1       8       1       1       8       1       1
       8       1       1       8       1       1       8       1       1       8
       1       1       8       1       1       8       1       1       8       1
       1       8       1       1       8       1       1       8       1       1
       8       1       1       8       1       1       8       1       1       8
       1       1       8       1       1       8       1       1       8       1
       1       8       1       1       8       1       1       8       1       1
       8       1       1       8       1       1       8       1       1       8
       1       1       8       1       1       8       1       1       8       1
       1       8       1       1       8       1       1       8       1       1
       8       1       1       8       1       1       8       1       1       8
       1       1       8       1       1       8       1       1       8       1
       1       8       1       1       8       1       1       8       1       1
       8       1       1       8       1       1       8       1       1       8
       1       1       8       1       1       8       1       1       8       1
       1       8       1       1       8       1       1       8       1       1
       8       1       1       8       1       1       8       1       1       8
       1       1       8       1       1       8       1       1       8       1
       1       8       1       1       8       1       1       8       1       1
       8       1       1       8       1       1       8       1       1       8
       1       1       8       1       1       8       1       1       8       1
       1       8       1       1       8       1       1       8       1       1
       8       1       1       8       1       1       8       1       1       8
       1       1       8       1       1       8       1       1       8       1
       1       8       1       1       8       1       1       8       1       1
       8       1       1       8       1       1       8       1       1       8
       1       1       8       1       1       8       1       1       8       1
       1       8       1       1       8       1       1       8       1       1
       8       1       1       8       1       1       8       1       1       8
       1       1       8       1       1       8       1       1       8       1
       1       8       1       1       8       1       1       8       1       1
       8       1       1       8       1       1       8       1       1       8
       1       1       8       1       1       8       1       1       8       1
       1       8       1       1       8       1       1       8       1       1
       8       1       1       8       1       1       8       1       1       8
       1       1       8       1       1       8       1       1       8       1
       1       8       1       1       8       1       1       8       1       1
       8       1       1       8       1       1       8       1       1       8
       1       1       8       1       1       8       1       1       8       1
       1       8       1       1       8       1       1       8       1       1
       8       1       1       8       1       1       8       1       1       8
       1       1       8       1       1       8       1       1       8       1
       1       8       1       1       8       1       1       8       1       1
       8       1       1       8       1       1       8       1       1       8
       1       1       8       1       1       8       1       1       8       1
       1       8       1       1       8       1       1       8       1       1
       8       1       1       8       1       1       8       1       1       8
       1       1       8       1       1       8       1       1       8       1
       1       8       1       1       8       1       1       8       1       1
       8       1       1       8       1       1       8       1       1       8
       1       1       8       1       1       8       1       1       8       1
       1       8       1       1       8       1       1       8       1       1
       8       1       1       8       1       1       8       1       1       8
       1       1       8       1       1       8       1       1       8       1
       1       8       1       1       8       1       1       8       1       1
       8       1       1       8       1       1       8       1       1       8
       1       1       8       1       1       8       1       1       8       1
       1       8       1       1       8       1       1       8       1       1
       8       1       1       8       1       1       8       1       1       8
       1       1       8       1       1       8       1       1       8       1
       1       8       1       1       8       1       1       8       1       1
       8       1       1       8       1       1       8       1       1       8
       1       1       8       1       1       8       1       1       8       1
       1       8       1       1       8       1       1       8       1       1
       8       1       1       8       1       1       8       1       1       8
       1       1       8       1       1       8       1       1       8       1
       1       8       1       1       8       1       1       8       1       1
       8       1       1       8       1       1       8       1       1       8
       1       1       8       1       1       8       1       1       8       1
       1       8       1       1       8       1       1       8       1       1
       8       1       1       8       1       1       8       1       1       8
       1       1       8       1       1       8       1       1       8       1
       1       8       1       1       8       1       1       8       1       1
       8       1       1       8       1       1       8       1       1       8
       1       1       8       1       1       8       1       1       8       1
       1       8       1       1       8       1       1       8       1       1
       8       1       1       8       1       1       8       1       1       8
       1       1       8       1       1       8       1       1       8       1
       1       8       1       1       8       1       1       8       1       1
       8       1       1       8       1       1       8       1       1       8
       1       1       8       1       1       8       1       1       8       1
       1       8       1       1       8       1       1       8       1       1
       8       1       1       8       1       1       8       1       1       8
       1       1       8       1       1       8       1       1       8       1
       1       8       1       1       8       1       1       8       1       1
       8       1       1       8       1       1       8       1       1       8
       1       1       8       1       1       8       1       1       8       1
       1       8       1       1       8       1       1       8       1       1
       8       1       1       8       1       1       8       1       1       8
       1       1       8       1       1       8       1       1       8       1
       1       8       1       1       8       1       1       8       1       1
       8       1       1       8       1       1       8       1       1       8
       1       1       8       1       1       8       1       1       8       1
       1       8       1       1       8       1       1       8       1       1
       8       1       1       8       1       1       8       1       1       8
       1       1       8       1       1       8       1       1       8       1
       1       8       1       1       8       1       1       8       1       1
       8       1       1       8       1       1       8       1       1       8
       1       1       8       1       1       8       1       1       8       1
       1       8       1       1       8       1       1       8       1       1
       8       1       1       8       1       1       8       1       1       8
       1       1       8       1       1       8       1       1       8       1
       1       8       1       1       8       1       1       8       1       1
       8       1       1       8       1       1       8       1       1       8
       1       1       8       1       1       8       1       1       8       1
       1       8       1       1       8       1       1       8       1       1
       8       1       1       8       1       1       8       1       1       8
       1       1       8       1       1       8       1       1       8       1
       1       8       1       1       8       1       1       8       1       1
       8       1       1       8       1       1       8       1       1       8
       1       1       8       1       1       8       1       1       8       1
       1       8       1       1       8       1       1       8       1       1
       8       1       1       8       1       1       8       1       1       8
       1       1       8       1       1       8       1       1       8       1
       1       8       1       1       8       1       1       8       1       1
       8       1       1       8       1       1       8       1       1       8
       1       1       8       1       1       8       1       1       8       1
       1       8       1       1       8       1       1       8       1       1
       8       1       1       8       1       1       8       1       1       8
       1       1       8       1       1       8       1       1       8       1
       1       8       1       1       8       1       1       8       1       1
       8       1       1       8       1       1       8       1       1       8
       1       1       8       1       1       8       1       1       8       1
       1       8       1       1       8       1       1       8       1       1
       8       1       1       8       1       1       8       1       1       8
       1       1       8       1       1       8       1       1       8       1
       1       8       1       1       8       1       1       8       1       1
       8       1       1       8       1       1       8       1       1       8
       1       1       8       1       1       8       1       1       8       1
       1       8       1       1       8       1       1       8       1       1
       8       1       1       8       1       1       8       1       1       8
       1       1       8       1       1       8       1       1       8       1
       1       8       1       1       8       1       1       8       1       1
       8       1       1       8       1       1       8       1       1       8
       1       1       8       1       1       8       1       1       8       1
       1       8       1       1       8       1       1       8       1       1
       8       1       1       8       1       1       8       1       1       8
       1       1       8       1       1       8       1       1       8       1
       1       8       1       1       8       1       1       8       1       1
       8       1       1       8       1       1       8       1       1       8
       1       1       8       1       1       8       1       1       8       1
       1       8       1       1       8       1       1       8       1       1
       8       1       1       8       1       1       8       1       1       8
       1       1       8       1       1       8       1       1       8       1
       1       8       1       1       8       1       1       8       1       1
       8       1       1       8       1       1       8       1       1       8
       1       1       8       1       1       8       1       1       8       1
       1       8       1       1       8       1       1       8       1       1
       8       1       1       8       1       1       8       1       1       8
       1       1       8       1       1       8       1       1       8       1
       1       8       1       1       8       1       1       8       1       1
       8       1       1       8       1       1       8       1       1       8
       1       1       8       1       1       8       1       1       8       1
       1       8       1       1       8       1       1       8       1       1
       8       1       1       8       1       1       8       1       1       8
       1       1       8       1       1       8       1       1       8       1
       1       8       1       1       8       1       1       8       1       1
       8       1       1       8       1       1       8       1       1       8
       1       1       8       1       1       8       1       1       8       1
       1       8       1       1       8       1       1       8       1       1
       8       1       1       8       1       1       8       1       1       8
       1       1       8       1       1       8       1       1       8       1
       1       8       1       1       8       1       1       8       1       1
       8       1       1       8       1       1       8       1       1       8
       1       1       8       1       1       8       1       1       8       1
       1       8       1       1       8       1       1       8       1       1
       8       1       1       8       1       1       8       1       1       8
       1       1       8       1       1       8       1       1       8       1
       1       8       1       1       8       1       1       8       1       1
       8       1       1       8       1       1       8       1       1       8
       1       1       8       1       1       8       1       1       8       1
       1       8       1       1       8       1       1       8       1       1
       8       1       1       8       1       1       8       1       1       8
       1       1       8       1       1       8       1       1       8       1
       1       8       1       1       8       1       1       8       1       1
       8       1       1       8       1       1       8       1       1       8
       1       1       8       1       1       8       1       1       8       1
       1       8       1       1       8       1       1       8       1       1
       8       1       1       8       1       1       8       1       1       8
       1       1       8       1       1       8       1       1       8       1
       1       8       1       1       8       1       1       8       1       1
       8       1       1       8       1       1       8       1       1       8
       1       1       8       1       1       8       1       1       8       1
       1       8       1       1       8       1       1       8       1       1
       8       1       1       8       1       1       8       1       1       8
       1       1       8       1       1       8       1       1       8       1
       1       8       1       1       8       1       1       8       1       1
       8       1       1       8       1       1       8       1       1       8
       1       1       8       1       1       8       1       1       8       1
       1       8       1       1       8       1       1       8       1       1
       8       1       1       8       1       1       8       1       1       8
       1       1       8       1       1       8       1       1       8       1
       1       8       1       1       8       1       1       8       1       1
       8       1       1       8       1       1       8       1       1       8
       1       1       8       1       1       8       1       1       8       1
       1       8       1       1       8       1       1       8       1       1
       8       1       1       8       1       1       8       1       1       8
       1       1       8       1       1       8       1       1       8       1
       1       8       1       1       8       1       1       8       1       1
       8       1       1       8       1       1       8       1       1       8
       1       1       8       1       1       8       1       1       8       1
       1       8       1       1       8       1       1       8       1       1
       8       1       1       8       1       1       8       1       1       8
       1       1       8       1       1       8       1       1       8       1
       1       8       1       1       8       1       1       8       1       1
       8       1       1       8       1       1       8       1       1       8
       1       1       8       1       1       8       1       1       8       1
       1       8       1       1       8       1       1       8       1       1
       8       1       1       8       1       1       8       1       1       8
       1       1       8       1       1       8       1       1       8       1
       1       8       1       1       8       1       1       8       1       1
       8       1       1       8       1       1       8       1       1       8
       1       1       8       1       1       8       1       1       8       1
       1       8       1       1       8       1       1       8       1       1
       8       1       1       8       1       1       8       1       1       8
       1       1       8       1       1       8       1       1       8       1
       1       8       1       1       8       1       1       8       1       1
       8       1       1       8       1       1       8       1       1       8
       1       1       8       1       1       8       1       1       8       1
       1       8       1       1       8       1       1       8       1       1
       8       1       1       8       1       1       8       1       1       8
       1       1       8       1       1       8       1       1       8       1
       1       8       1       1       8       1       1       8       1       1
       8       1       1       8       1       1       8       1       1       8
       1       1       8       1       1       8       1       1       8       1
       1       8       1       1       8       1       1       8       1       1
       8       1       1       8       1       1       8       1       1       8
       1       1       8       1       1       8       1       1       8       1
       1       8       1       1       8       1       1       8       1       1
       8       1       1       8       1       1       8       1       1       8
       1       1       8       1       1       8       1       1       8       1
       1       8       1       1       8       1       1       8       1       1
       8       1       1       8       1       1       8       1       1       8
       1       1       8       1       1       8       1       1       8       1
       1       8       1       1       8       1       1       8       1       1
       8       1       1       8       1       1       8       1       1       8
       1       1       8       1       1       8       1       1       8       1
       1       8       1       1       8       1       1       8       1       1
       8       1       1       8       1       1       8       1       1       8
       1       1       8       1       1       8       1       1       8       1
       1       8       1       1       8       1       1       8       1       1
       8       1       1       8       1       1       8       1       1       8
       1       1       8       1       1       8       1       1       8       1
       1       8       1       1       8       1       1       8       1       1
       8       1       1       8       1       1       8       1       1       8
       1       1       8       1       1       8       1       1       8       1
       1       8       1       1       8       1       1       8       1       1
       8       1       1       8       1       1       8       1       1       8
       1       1       8       1       1       8       1       1       8       1
       1       8       1       1       8       1       1       8       1       1
       8       1       1       8       1       1       8       1       1       8
       1       1       8       1       1       8       1       1       8       1
       1       8       1       1       8       1       1       8       1       1
       8       1       1       8       1       1       8       1       1       8
       1       1       8       1       1       8       1       1       8       1
       1       8       1       1       8       1       1       8       1       1
       8       1       1       8       1       1       8       1       1       8
       1       1       8       1       1       8       1       1       8       1
       1       8       1       1       8       1       1       8       1       1
       8       1       1       8       1       1       8       1       1       8
       1       1       8       1       1       8       1       1       8       1
       1       8       1       1       8       1       1       8       1       1
       8       1       1       8       1       1       8       1       1       8
       1       1       8       1       1       8       1       1       8       1
       1       8       1       1       8       1       1       8       1       1
       8       1       1       8       1       1       8       1       1       8
       1       1       8       1       1       8       1       1       8       1
       1       8       1       1       8       1       1       8       1       1
       8       1       1       8       1       1       8       1       1       8
       1       1       8       1       1       8       1       1       8       1
       1       8       1       1       8       1       1       8       1       1
       8       1       1       8       1       1       8       1       1       8
       1       1       8       1       1       8       1       1       8       1
       1       8       1       1       8       1       1       8       1       1
       8       1       1       8       1       1       8       1       1       8
       1       1       8       1       1       8       1       1       8       1
       1       8       1       1       8       1       1       8       1       1
       8       1       1       8       1       1       8       1       1       8
       1       1       8       1       1       8       1       1       8       1
       1       8       1       1       8       1       1       8       1       1
       8       1       1       8       1       1       8       1       1       8
       1       1       8       1       1       8       1       1       8       1
       1       8       1       1       8       1       1       8       1       1
       8       1       1       8       1       1       8       1       1       8
       1       1       8       1       1       8       1       1       8       1
       1       8       1       1       8       1       1       8       1       1
       8       1       1       8       1       1       8       1       1       8
       1       1       8       1       1       8       1       1       8       1
       1       8       1       1       8       1       1       8       1       1
       8       1       1       8       1       1       8       1       1       8
       1       1       8       1       1       8       1       1       8       1
       1       8       1       1       8       1       1       8       1       1
       8       1       1       8       1       1       8       1       1       8
       1       1       8       1       1       8       1       1       8       1
       1       8       1       1       8       1       1       8       1       1
       8       1       1       8       1       1       8       1       1       8
       1       1       8       1       1       8       1       1       8       1
       1       8       1       1       8       1       1       8       1       1
       8       1       1       8       1       1       8       1       1       8
       1       1       8       1       1       8       1       1       8       1
       1       8       1       1       8       1       1       8       1       1
       8       1       1       8       1       1       8       1       1       8
       1       1       8       1       1       8       1       1       8       1
       1       8       1       1       8       1       1       8       1       1
       8       1       1       8       1       1       8       1       1       8
       1       1       8       1       1       8       1       1       8       1
       1       8       1       1       8       1       1       8       1       1
       8       1       1       8       1       1       8       1       1       8
       1       1       8       1       1       8       1       1       8       1
       1       8       1       1       8       1       1       8       1       1
       8       1       1       8       1       1       8       1       1       8
       1       1       8       1       1       8       1       1       8       1
       1       8       1       1       8       1       1       8       1       1
       8       1       1       8       1       1       8       1       1       8
       1       1       8       1       1       8       1       1       8       1
       1       8       1       1       8       1       1       8       1       1
       8       1       1       8       1       1       8       1       1       8
       1       1       8       1       1       8       1       1       8       1
       1       8       1       1       8       1       1       8       1       1
       8       1       1       8       1       1       8       1       1       8
       1       1       8       1       1       8       1       1       8       1
       1       8       1       1       8       1       1       8       1       1
       8       1       1       8       1       1       8       1       1       8
       1       1       8       1       1       8       1       1       8       1
       1       8       1       1       8       1       1       8       1       1
       8       1       1       8       1       1       8       1       1       8
       1       1       8       1       1       8       1       1       8       1
       1       8       1       1       8       1       1       8       1       1
       8       1       1       8       1       1       8       1       1       8
       1       1       8       1       1       8       1       1       8       1
       1       8       1       1       8       1       1       8       1       1
       8       1       1       8       1       1       8       1       1       8
       1       1       8       1       1       8       1       1       8       1
       1       8       1       1       8       1       1       8       1       1
       8       1       1       8       1       1       8       1       1       8
       1       1       8       1       1       8       1       1       8       1
       1       8       1       1       8       1       1       8       1       1
       8       1       1       8       1       1       8       1       1       8
       1       1       8       1       1       8       1       1       8       1
       1       8       1       1       8       1       1       8       1       1
       8       1       1       8       1       1       8       1       1       8
       1       1       8       1       1       8       1       1       8       1
       1       8       1       1       8       1       1       8       1       1
       8       1       1       8       1       1       8       1       1       8
       1       1       8       1       1       8       1       1       8       1
       1       8       1       1       8       1       1       8       1       1
       8       1       1       8       1       1       8       1       1       8
       1       1       8       1       1       8       1       1       8       1
       1       8       1       1       8       1       1       8       1       1
       8       1       1       8       1       1       8       1       1       8
       1       1       8       1       1       8       1       1       8       1
       1       8       1       1       8       1       1       8       1       1
       8       1       1       8       1       1       8       1       1       8
       1       1       8       1       1       8       1       1       8       1
       1       8       1       1       8       1       1       8       1       1
       8       1       1       8       1       1       8       1       1       8
       1       1       8       1       1       8       1       1       8       1
       1       8       1       1       8       1       1       8       1       1
       8       1       1       8       1       1       8       1       1       8
       1       1       8       1       1       8       1       1       8       1
       1       8       1       1       8       1       1       8       1       1
       8       1       1       8       1       1       8       1       1       8
       1       1       8       1       1       8       1       1       8       1
       1       8       1       1       8       1       1       8       1       1
       8       1       1       8       1       1       8       1       1       8
       1       1       8       1       1       8       1       1       8       1
       1       8       1       1       8       1       1       8       1       1
       8       1       1       8       1       1       8       1       1       8
       1       1       8       1       1       8       1       1       8       1
       1       8       1       1       8       1       1       8       1       1
       8       1       1       8       1       1       8       1       1       8
       1       1       8       1       1       8       1       1       8       1
       1       8       1       1       8       1       1       8       1       1
       8       1       1       8       1       1       8       1       1       8
       1       1       8       1       1       8       1       1       8       1
       1       8       1       1       8       1       1       8       1       1
       8       1       1       8       1       1       8       1       1       8
       1       1       8       1       1       8       1       1       8       1
       1       8       1       1       8       1       1       8       1       1
       8       1       1       8       1       1       8       1       1       8
       1       1       8       1       1       8       1       1       8       1
       1       8       1       1       8       1       1       8       1       1
       8       1       1       8       1       1       8       1       1       8
       1       1       8       1       1       8       1       1       8       1
       1       8       1       1       8       1       1       8       1       1
       8       1       1       8       1       1       8       1       1       8
       1       1       8       1       1       8       1       1       8       1
       1       8       1       1       8       1       1       8       1       1
       8       1       1       8       1       1       8       1       1       8
       1       1       8       1       1       8       1       1       8       1
       1       8       1       1       8       1       1       8       1       1
       8       1       1       8       1       1       8       1       1       8
       1       1       8       1       1       8       1       1       8       1
       1       8       1       1       8       1       1       8       1       1
       8       1       1       8       1       1       8       1       1       8
       1       1       8       1       1       8       1       1       8       1
       1       8       1       1       8       1       1       8       1       1
       8       1       1       8       1       1       8       1       1       8
       1       1       8       1       1       8       1       1       8       1
       1       8       1       1       8       1       1       8       1       1
       8       1       1       8       1       1       8       1       1       8
       1       1       8       1       1       8       1       1       8       1
       1       8       1       1       8       1       1       8       1       1
       8       1       1       8       1       1       8       1       1       8
       1       1       8       1       1       8       1       1       8       1
       1       8       1       1       8       1       1       8       1       1
       8       1       1       8       1       1       8       1       1       8
       1       1       8       1       1       8       1       1       8       1
       1       8       1       1       8       1       1       8       1       1
       8       1       1       8       1       1       8       1       1       8
       1       1       8       1       1       8       1       1       8       1
       1       8       1       1       8       1       1       8       1       1
       8       1       1       8       1       1       8       1       1       8
       1       1       8       1       1       8       1       1       8       1
       1       8       1       1       8       1       1       8       1       1
       8       1       1       8       1       1       8       1       1       8
       1       1       8       1       1       8       1       1       8       1
       1       8       1       1       8       1       1       8       1       1
       8       1       1       8       1       1       8       1       1       8
       1       1       8       1       1       8       1       1       8       1
       1       8       1       1       8       1       1       8       1       1
       8       1       1       8       1       1       8       1       1       8
       1       1       8       1       1       8       1       1       8       1
       1       8       1       1       8       1       1       8       1       1
       8       1       1       8       1       1       8       1       1       8
       1       1       8       1       1       8       1       1       8       1
       1       8       1       1       8       1       1       8       1       1
       8       1       1       8       1       1       8       1       1       8
       1       1       8       1       1       8       1       1       8       1
       1       8       1       1       8       1       1       8       1       1
       8       1       1       8       1       1       8       1       1       8
       1       1       8       1       1       8       1       1       8       1
       1       8       1       1       8       1       1       8       1       1
       8       1       1       8       1       1       8       1       1       8
       1       1       8       1       1       8       1       1       8       1
       1       8       1       1       8       1       1       8       1       1
       8       1       1       8       1       1       8       1       1       8
       1       1       8       1       1       8       1       1       8       1
       1       8       1       1       8       1       1       8       1       1
       8       1       1       8       1       1       8       1       1       8
       1       1       8       1       1       8       1       1       8       1
       1       8       1       1       8       1       1       8       1       1
       8       1       1       8       1       1       8       1       1       8
       1       1       8       1       1       8       1       1       8       1
       1       8       1       1       8       1       1       8       1       1
       8       1       1       8       1       1       8       1       1       8
       1       1       8       1       1       8       1       1       8       1
       1       8       1       1       8       1       1       8       1       1
       8       1       1       8       1       1       8       1       1       8
       1       1       8       1       1       8       1       1       8       1
       1       8       1       1       8       1       1       8       1       1
       8       1       1       8       1       1       8       1       1       8
       1       1       8       1       1       8       1       1       8       1
       1       8       1       1       8       1       1       8       1       1
       8       1       1       8       1       1       8       1       1       8
       1       1       8       1       1       8       1       1       8       1
       1       8       1       1       8       1       1       8       1       1
       8       1       1       8       1       1       8       1       1       8
       1       1       8       1       1       8       1       1       8       1
       1       8       1       1       8       1       1       8       1       1
       8       1       1       8       1       1       8       1       1       8
       1       1       8       1       1       8       1       1       8       1
       1       8       1       1       8       1       1       8       1       1
       8       1       1       8       1       1       8       1       1       8
       1       1       8       1       1       8       1       1       8       1
       1       8       1       1       8       1       1       8       1       1
       8       1       1       8       1       1       8       1       1       8
       1       1       8       1       1       8       1       1       8       1
       1       8       1       1       8       1       1       8       1       1
       8       1       1       8       1       1       8       1       1       8
       1       1       8       1       1       8       1       1       8       1
       1       8       1       1       8       1       1       8       1       1
       8       1       1       8       1       1       8       1       1       8
       1       1       8       1       1       8       1       1       8       1
       1       8       1       1       8       1       1       8       1       1
       8       1       1       8       1       1       8       1       1       8
       1       1       8       1       1       8       1       1       8       1
       1       8       1       1       8       1       1       8       1       1
       8       1       1       8       1       1       8       1       1       8
       1       1       8       1       1       8       1       1       8       1
       1       8       1       1       8       1       1       8       1       1
       8       1       1       8       1       1       8       1       1       8
       1       1       8       1       1       8       1       1       8       1
       1       8       1       1       8       1       1       8       1       1
       8       1       1       8       1       1       8       1       1       8
       1       1       8       1       1       8       1       1       8       1
       1       8       1       1       8       1       1       8       1       1
       8       1       1       8       1       1       8       1       1       8
       1       1       8       1       1       8       1       1       8       1
       1       8       1       1       8       1       1       8       1       1
       8       1       1       8       1       1       8       1       1       8
       1       1       8       1       1       8       1       1       8       1
       1       8       1       1       8       1       1       8       1       1
       8       1       1       8       1       1       8       1       1       8
       1       1       8       1       1       8       1       1       8       1
       1       8       1       1       8       1       1       8       1       1
       8       1       1       8       1       1       8       1       1       8
       1       1       8       1       1       8       1       1       8       1
       1       8       1       1       8       1       1       8       1       1
       8       1       1       8       1       1       8       1       1       8
       1       1       8       1       1       8       1       1       8       1
       1       8       1       1       8       1       1       8       1       1
       8       1       1       8       1       1       8       1       1       8
       1       1       8       1       1       8       1       1       8       1
       1       8       1       1       8       1       1       8       1       1
       8       1       1       8       1       1       8       1       1       8
       1       1       8       1       1       8       1       1       8       1
       1       8       1       1       8       1       1       8       1       1
       8       1       1       8       1       1       8       1       1       8
       1       1       8       1       1       8       1       1       8       1
       1       8       1       1       8       1       1       8       1       1
       8       1       1       8       1       1       8       1       1       8
       1       1       8       1       1       8       1       1       8       1
       1       8       1       1       8       1       1       8       1       1
       8       1       1       8       1       1       8       1       1       8
       1       1       8       1       1       8       1       1       8       1
       1       8       1       1       8       1       1       8       1       1
       8       1       1       8       1       1       8       1       1       8
       1       1       8       1       1       8       1       1       8       1
       1       8       1       1       8       1       1       8       1       1
       8       1       1       8       1       1       8       1       1       8
       1       1       8       1       1       8       1       1       8       1
       1       8       1       1       8       1       1       8       1       1
       8       1       1       8       1       1       8       1       1       8
       1       1       8       1       1       8       1       1       8       1
       1       8       1       1       8       1       1       8       1       1
       8       1       1       8       1       1       8       1       1       8
       1       1       8       1       1       8       1       1       8       1
       1       8       1       1       8       1       1       8       1       1
       8       1       1       8       1       1       8       1       1       8
       1       1       8       1       1       8       1       1       8       1
       1       8       1       1       8       1       1       8       1       1
       8       1       1       8       1       1       8       1       1       8
       1       1       8       1       1       8       1       1       8       1
       1       8       1       1       8       1       1       8       1       1
       8       1       1       8       1       1       8       1       1       8
       1       1       8       1       1       8       1       1       8       1
       1       8       1       1       8       1       1       8       1       1
       8       1       1       8       1       1       8       1       1       8
       1       1       8       1       1       8       1       1       8       1
       1       8       1       1       8       1       1       8       1       1
       8       1       1       8       1       1       8       1       1       8
       1       1       8       1       1       8       1       1       8       1
       1       8       1       1       8       1       1       8       1       1
       8       1       1       8       1       1       8       1       1       8
       1       1       8       1       1       8       1       1       8       1
       1       8       1       1       8       1       1       8       1       1
       8       1       1       8       1       1       8       1       1       8
       1       1       8       1       1       8       1       1       8       1
       1       8       1       1       8       1       1       8       1       1
       8       1       1       8       1       1       8       1       1       8
       1       1       8       1       1       8       1       1       8       1
       1       8       1       1       8       1       1       8       1       1
       8       1       1       8       1       1       8       1       1       8
       1       1       8       1       1       8       1       1       8       1
       1       8       1       1       8       1       1       8       1       1
       8       1       1       8       1       1       8       1       1       8
       1       1       8       1       1       8       1       1       8       1
       1       8       1       1       8       1       1       8       1       1
       8       1       1       8       1       1       8       1       1       8
       1       1       8       1       1       8       1       1       8       1
       1       8       1       1       8       1       1       8       1       1
       8       1       1       8       1       1       8       1       1       8
       1       1       8       1       1       8       1       1       8       1
       1       8       1       1       8       1       1       8       1       1
       8       1       1       8       1       1       8       1       1       8
       1       1       8       1       1       8       1       1       8       1
       1       8       1       1       8       1       1       8       1       1
       8       1       1       8       1       1       8       1       1       8
       1       1       8       1       1       8       1       1       8       1
       1       8       1       1       8       1       1       8       1       1
       8       1       1       8       1       1       8       1       1       8
       1       1       8       1       1       8       1       1       8       1
       1       8       1       1       8       1       1       8       1       1
       8       1       1       8       1       1       8       1       1       8
       1       1       8       1       1       8       1       1       8       1
       1       8       1       1       8       1       1       8       1       1
       8       1       1       8       1       1       8       1       1       8
       1       1       8       1       1       8       1       1       8       1
       1       8       1       1       8       1       1       8       1       1
       8       1       1       8       1       1       8       1       1       8
       1       1       8       1       1       8       1       1       8       1
       1       8       1       1       8       1       1       8       1       1
       8       1       1       8       1       1       8       1       1       8
       1       1       8       1       1       8       1       1       8       1
       1       8       1       1       8       1       1       8       1       1
       8       1       1       8       1       1       8       1       1       8
       1       1       8       1       1       8       1       1       8       1
       1       8       1       1       8       1       1       8       1       1
       8       1       1       8       1       1       8       1       1       8
       1       1       8       1       1       8       1       1       8       1
       1       8       1       1       8       1       1       8       1       1
       8       1       1       8       1       1       8       1       1       8
       1       1       8       1       1       8       1       1       8       1
       1       8       1       1       8       1       1       8       1       1
       8       1       1       8       1       1       8       1       1       8
       1       1       8       1       1       8       1       1       8       1
       1       8       1       1       8       1       1       8       1       1
       8       1       1       8       1       1       8       1       1       8
       1       1       8       1       1       8       1       1       8       1
       1       8       1       1       8       1       1       8       1       1
       8       1       1       8       1       1       8       1       1       8
       1       1       8       1       1       8       1       1       8       1
       1       8       1       1       8       1       1       8       1       1
       8       1       1       8       1       1       8       1       1       8
       1       1       8       1       1       8       1       1       8       1
       1       8       1       1       8       1       1       8       1       1
       8       1       1       8       1       1       8       1       1       8
       1       1       8       1       1       8       1       1       8       1
       1       8       1       1       8       1       1       8       1       1
       8       1       1       8       1       1       8       1       1       8
       1       1       8       1       1       8       1       1       8       1
       1       8       1       1       8       1       1       8       1       1
       8       1       1       8       1       1       8       1       1       8
       1       1       8       1       1       8       1       1       8       1
       1       8       1       1       8       1       1       8       1       1
       8       1       1       8       1       1       8       1       1       8
       1       1       8       1       1       8       1       1       8       1
       1       8       1       1       8       1       1       8       1       1
       8       1       1       8       1       1       8       1       1       8
       1       1       8       1       1       8       1       1       8       1
       1       8       1       1       8       1       1       8       1       1
       8       1       1       8       1       1       8       1       1       8
       1       1       8       1       1       8       1       1       8       1
       1       8       1       1       8       1       1       8       1       1
       8       1       1       8       1       1       8       1       1       8
       1       1       8       1       1       8       1       1       8       1
       1       8       1       1       8       1       1       8       1       1
       8       1       1       8       1       1       8       1       1       8
       1       1       8       1       1       8       1       1       8       1
       1       8       1       1       8       1       1       8       1       1
       8       1       1       8       1       1       8       1       1       8
       1       1       8       1       1       8       1       1       8       1
       1       8       1       1       8       1       1       8       1       1
       8       1       1       8       1       1       8       1       1       8
       1       1       8       1       1       8       1       1       8       1
       1       8       1       1       8       1       1       8       1       1
       8       1       1       8       1       1       8       1       1       8
       1       1       8       1       1       8       1       1       8       1
       1       8       1       1       8       1       1       8       1       1
       8       1       1       8       1       1       8       1       1       8
       1       1       8       1       1       8       1       1       8       1
       1       8       1       1       8       1       1       8       1       1
       8       1       1       8       1       1       8       1       1       8
       1       1       8       1       1       8       1       1       8       1
       1       8       1       1       8       1       1       8       1       1
       8       1       1       8       1       1       8       1       1       8
       1       1       8       1       1       8       1       1       8       1
       1       8       1       1       8       1       1       8       1       1
       8       1       1       8       1       1       8       1       1       8
       1       1       8       1       1       8       1       1       8       1
       1       8       1       1       8       1       1       8       1       1
       8       1       1       8       1       1       8       1       1       8
       1       1       8       1       1       8       1       1       8       1
       1       8       1       1       8       1       1       8       1       1
       8       1       1       8       1       1       8       1       1       8
       1       1       8       1       1       8       1       1       8       1
       1       8       1       1       8       1       1       8       1       1
       8       1       1       8       1       1       8       1       1       8
       1       1       8       1       1       8       1       1       8       1
       1       8       1       1       8       1       1       8       1       1
       8       1       1       8       1       1       8       1       1       8
       1       1       8       1       1       8       1       1       8       1
       1       8       1       1       8       1       1       8       1       1
       8       1       1       8       1       1       8       1       1       8
       1       1       8       1       1       8       1       1       8       1
       1       8       1       1       8       1       1       8       1       1
       8       1       1       8       1       1       8       1       1       8
       1       1       8       1       1       8       1       1       8       1
       1       8       1       1       8       1       1       8       1       1
       8       1       1       8       1       1       8       1       1       8
       1       1       8       1       1       8       1       1       8       1
       1       8       1       1       8       1       1       8       1       1
       8       1       1       8       1       1       8       1       1       8
       1       1       8       1       1       8       1       1       8       1
       1       8       1       1       8       1       1       8       1       1
       8       1       1       8       1       1       8       1       1       8
       1       1       8       1       1       8       1       1       8       1
       1       8       1       1       8       1       1       8       1       1
       8       1       1       8       1       1       8       1       1       8
       1       1       8       1       1       8       1       1       8       1
       1       8       1       1       8       1       1       8       1       1
       8       1       1       8       1       1       8       1       1       8
       1       1       8       1       1       8       1       1       8       1
       1       8       1       1       8       1       1       8       1       1
       8       1       1       8       1       1       8       1       1       8
       1       1       8       1       1       8       1       1       8       1
       1       8       1       1       8       1       1       8       1       1
       8       1       1       8       1       1       8       1       1       8
       1       1       8       1       1       8       1       1       8       1
       1       8       1       1       8       1       1       8       1       1
       8       1       1       8       1       1       8       1       1       8
       1       1       8       1       1       8       1       1       8       1
       1       8       1       1       8       1       1       8       1       1
       8       1       1       8       1       1       8       1       1       8
       1       1       8       1       1       8       1       1       8       1
       1       8       1       1       8       1       1       8       1       1
       8       1       1       8       1       1       8       1       1       8
       1       1       8       1       1       8       1       1       8       1
       1       8       1       1       8       1       1       8       1       1
       8       1       1       8       1       1       8       1       1       8
       1       1       8       1       1       8       1       1       8       1
       1       8       1       1       8       1       1       8       1       1
       8       1       1       8       1       1       8       1       1       8
       1       1       8       1       1       8       1       1       8       1
       1       8       1       1       8       1       1       8       1       1
       8       1       1       8       1       1       8       1       1       8
       1       1       8       1       1       8       1       1       8       1
       1       8       1       1       8       1       1       8       1       1
       8       1       1       8       1       1       8       1       1       8
       1       1       8       1       1       8       1       1       8       1
       1       8       1       1       8       1       1       8       1       1
       8       1       1       8       1       1       8       1       1       8
       1       1       8       1       1       8       1       1       8       1
       1       8       1       1       8       1       1       8       1       1
       8       1       1       8       1       1       8       1       1       8
       1       1       8       1       1       8       1       1       8       1
       1       8       1       1       8       1       1       8       1       1
       8       1       1       8       1       1       8       1       1       8
       1       1       8       1       1       8       1       1       8       1
       1       8       1       1       8       1       1       8       1       1
       8       1       1       8       1       1       8       1       1       8
       1       1       8       1       1       8       1       1       8       1
       1       8       1       1       8       1       1       8       1       1
       8       1       1       8       1       1       8       1       1       8
       1       1       8       1       1       8       1       1       8       1
       1       8       1       1       8       1       1       8       1       1
       8       1       1       8       1       1       8       1       1       8
       1       1       8       1       1       8       1       1       8       1
       1       8       1       1       8       1       1       8       1       1
       8       1       1       8       1       1       8       1       1       8
       1       1       8       1       1       8       1       1       8       1
       1       8       1       1       8       1       1       8       1       1
       8       1       1       8       1       1       8       1       1       8
       1       1       8       1       1       8       1       1       8       1
       1       8       1       1       8       1       1       8       1       1
       8       1       1       8       1       1       8       1       1       8
       1       1       8       1       1       8       1       1       8       1
       1       8       1       1       8       1       1       8       1       1
       8       1       1       8       1       1       8       1       1       8
       1       1       8       1       1       8       1       1       8       1
       1       8       1       1       8       1       1       8       1       1
       8       1       1       8       1       1       8       1       1       8
       1       1       8       1       1       8       1       1       8       1
       1       8       1       1       8       1       1       8       1       1
       8       1       1       8       1       1       8       1       1       8
       1       1       8       1       1       8       1       1       8       1
       1       8       1       1       8       1       1       8       1       1
       8       1       1       8       1       1       8       1       1       8
       1       1       8       1       1       8       1       1       8       1
       1       8       1       1       8       1       1       8       1       1
       8       1       1       8       1       1       8       1       1       8
       1       1       8       1       1       8       1       1       8       1
       1       8       1       1       8       1       1       8       1       1
       8       1       1       8       1       1       8       1       1       8
       1       1       8       1       1       8       1       1       8       1
       1       8       1       1       8       1       1       8       1       1
       8       1       1       8       1       1       8       1       1       8
       1       1       8       1       1       8       1       1       8       1
       1       8       1       1       8       1       1       8       1       1
       8       1       1       8       1       1       8       1       1       8
       1       1       8       1       1       8       1       1       8       1
       1       8       1       1       8       1       1       8       1       1
       8       1       1       8       1       1       8       1       1       8
       1       1       8       1       1       8       1       1       8       1
       1       8       1       1       8       1       1       8       1       1
       8       1       1       8       1       1       8       1       1       8
       1       1       8       1       1       8       1       1       8       1
       1       8       1       1       8       1       1       8       1       1
       8       1       1       8       1       1       8       1       1       8
       1       1       8       1       1       8       1       1       8       1
       1       8       1       1       8       1       1       8       1       1
       8       1       1       8       1       1       8       1       1       8
       1       1       8       1       1       8       1       1       8       1
       1       8       1       1       8       1       1       8       1       1
       8       1       1       8       1       1       8       1       1       8
       1       1       8       1       1       8       1       1       8       1
       1       8       1       1       8       1       1       8       1       1
       8       1       1       8       1       1       8       1       1       8
       1       1       8       1       1       8       1       1       8       1
       1       8       1       1       8       1       1       8       1       1
       8       1       1       8       1       1       8       1       1       8
       1       1       8       1       1       8       1       1       8       1
       1       8       1       1       8       1       1       8       1       1
       8       1       1       8       1       1       8       1       1       8
       1       1       8       1       1       8       1       1       8       1
       1       8       1       1       8       1       1       8       1       1
       8       1       1       8       1       1       8       1       1       8
       1       1       8       1       1       8       1       1       8       1
       1       8       1       1       8       1       1       8       1       1
       8       1       1       8       1       1       8       1       1       8
       1       1       8       1       1       8       1       1       8       1
       1       8       1       1       8       1       1       8       1       1
       8       1       1       8       1       1       8       1       1       8
       1       1       8       1       1       8       1       1       8       1
       1       8       1       1       8       1       1       8       1       1
       8       1       1       8       1       1       8       1       1       8
       1       1       8       1       1       8       1       1       8       1
       1       8       1       1       8       1       1       8       1       1
       8       1       1       8       1       1       8       1       1       8
       1       1       8       1       1       8       1       1       8       1
       1       8       1       1       8       1       1       8       1       1
       8       1       1       8       1       1       8       1       1       8
       1       1       8       1       1       8       1       1       8       1
       1       8       1       1       8       1       1       8       1       1
       8       1       1       8       1       1       8       1       1       8
       1       1       8       1       1       8       1       1       8       1
       1       8       1       1       8       1       1       8       1       1
       8       1       1       8       1       1       8       1       1       8
       1       1       8       1       1       8       1       1       8       1
       1       8       1       1       8       1       1       8       1       1
       8       1       1       8       1       1       8       1       1       8
       1       1       8       1       1       8       1       1       8       1
       1       8       1       1       8       1       1       8       1       1
       8       1       1       8       1       1       8       1       1       8
       1       1       8       1       1       8       1       1       8       1
       1       8       1       1       8       1       1       8       1       1
       8       1       1       8       1       1       8       1       1       8
       1       1       8       1       1       8       1       1       8       1
       1       8       1       1       8       1       1       8       1       1
       8       1       1       8       1       1       8       1       1       8
       1       1       8       1       1       8       1       1       8       1
       1       8       1       1       8       1       1       8       1       1
       8       1       1       8       1       1       8       1       1       8
       1       1       8       1       1       8       1       1       8       1
       1       8       1       1       8       1       1       8       1       1
       8       1       1       8       1       1       8       1       1       8
       1       1       8       1       1       8       1       1       8       1
       1       8       1       1       8       1       1       8       1       1
       8       1       1       8       1       1       8       1       1       8
       1       1       8       1       1       8       1       1       8       1
       1       8       1       1       8       1       1       8       1       1
       8       1       1       8       1       1       8       1       1       8
       1       1       8       1       1       8       1       1       8       1
       1       8       1       1       8       1       1       8       1       1
       8       1       1       8       1       1       8       1       1       8
       1       1       8       1       1       8       1       1       8       1
       1       8       1       1       8       1       1       8       1       1
       8       1       1       8       1       1       8       1       1       8
       1       1       8       1       1       8       1       1       8       1
       1       8       1       1       8       1       1       8       1       1
       8       1       1       8       1       1       8       1       1       8
       1       1       8       1       1       8       1       1       8       1
       1       8       1       1       8       1       1       8       1       1
       8       1       1       8       1       1       8       1       1       8
       1       1       8       1       1       8       1       1       8       1
       1       8       1       1       8       1       1       8       1       1
       8       1       1       8       1       1       8       1       1       8
       1       1       8       1       1       8       1       1       8       1
       1       8       1       1       8       1       1       8       1       1
       8       1       1       8       1       1       8       1       1       8
       1       1       8       1       1       8       1       1       8       1
       1       8       1       1       8       1       1       8       1       1
       8       1       1       8       1       1       8       1       1       8
       1       1       8       1       1       8       1       1       8       1
       1       8       1       1       8       1       1       8       1       1
       8       1       1       8       1       1       8       1       1       8
       1       1       8       1       1       8       1       1       8       1
       1       8       1       1       8       1       1       8       1       1
       8       1       1       8       1       1       8       1       1       8
       1       1       8       1       1       8       1       1       8       1
       1       8       1       1       8       1       1       8       1       1
       8       1       1       8       1       1       8       1       1       8
       1       1       8       1       1       8       1       1       8       1
       1       8       1       1       8       1       1       8       1       1
       8       1       1       8       1       1       8       1       1       8
       1       1       8       1       1       8       1       1       8       1
       1       8       1       1       8       1       1       8       1       1
       8       1       1       8       1       1       8       1       1       8
       1       1       8       1       1       8       1       1       8       1
       1       8       1       1       8       1       1       8       1       1
       8       1       1       8       1       1       8       1       1       8
       1       1       8       1       1       8       1       1       8       1
       1       8       1       1       8       1       1       8       1       1
       8       1       1       8       1       1       8       1       1       8
       1       1       8       1       1       8       1       1       8       1
       1       8       1       1       8       1       1       8       1       1
       8       1       1       8       1       1       8       1       1       8
       1       1       8       1       1       8       1       1       8       1
       1       8       1       1       8       1       1       8       1       1
       8       1       1       8       1       1       8       1       1       8
       1       1       8       1       1       8       1       1       8       1
       1       8       1       1       8       1       1       8       1       1
       8       1       1       8       1       1       8       1       1       8
       1       1       8       1       1       8       1       1       8       1
       1       8       1       1       8       1       1       8       1       1
       8       1       1       8       1       1       8       1       1       8
       1       1       8       1       1       8       1       1       8       1
       1       8       1       1       8       1       1       8       1       1
       8       1       1       8       1       1       8       1       1       8
       1       1       8       1       1       8       1       1       8       1
       1       8       1       1       8       1       1       8       1       1
       8       1       1       8       1       1       8       1       1       8
       1       1       8       1       1       8       1       1       8       1
       1       8       1       1       8       1       1       8       1       1
       8       1       1       8       1       1       8       1       1       8
       1       1       8       1       1       8       1       1       8       1
       1       8       1       1       8       1       1       8       1       1
       8       1       1       8       1       1       8       1       1       8
       1       1       8       1       1       8       1       1       8       1
       1       8       1       1       8       1       1       8       1       1
       8       1       1       8       1       1       8       1       1       8
       1       1       8       1       1       8       1       1       8       1
       1       8       1       1       8       1       1       8       1       1
       8       1       1       8       1       1       8       1       1       8
       1       1       8       1       1       8       1       1       8       1
       1       8       1       1       8       1       1       8       1       1
       8       1       1       8       1       1       8       1       1       8
       1       1       8       1       1       8       1       1       8       1
       1       8       1       1       8       1       1       8       1       1
       8       1       1       8       1       1       8       1       1       8
       1       1       8       1       1       8       1       1       8       1
       1       8       1       1       8       1       1       8       1       1
       8       1       1       8       1       1       8       1       1       8
       1       1       8       1       1       8       1       1       8       1
       1       8       1       1       8       1       1       8       1       1
       8       1       1       8       1       1       8       1       1       8
       1       1       8       1       1       8       1       1       8       1
       1       8       1       1       8       1       1       8       1       1
       8       1       1       8       1       1       8       1       1       8
       1       1       8       1       1       8       1       1       8       1
       1       8       1       1       8       1       1       8       1       1
       8       1       1       8       1       1       8       1       1       8
       1       1       8       1       1       8       1       1       8       1
       1       8       1       1       8       1       1       8       1       1
       8       1       1       8       1       1       8       1       1       8
       1       1       8       1       1       8       1       1       8       1
       1       8       1       1       8       1       1       8       1       1
       8       1       1       8       1       1       8       1       1       8
       1       1       8       1       1       8       1       1       8       1
       1       8       1       1       8       1       1       8       1       1
       8       1       1       8       1       1       8       1       1       8
       1       1       8       1       1       8       1       1       8       1
       1       8       1       1       8       1       1       8       1       1
       8       1       1       8       1       1       8       1       1       8
       1       1       8       1       1       8       1       1       8       1
       1       8       1       1       8       1       1       8       1       1
       8       1       1       8       1       1       8       1       1       8
       1       1       8       1       1       8       1       1       8       1
       1       8       1       1       8       1       1       8       1       1
       8       1       1       8       1       1       8       1       1       8
       1       1       8       1       1       8       1       1       8       1
       1       8       1       1       8       1       1       8       1       1
       8       1       1       8       1       1       8       1       1       8
       1       1       8       1       1       8       1       1       8       1
       1       8       1       1       8       1       1       8       1       1
       8       1       1       8       1       1       8       1       1       8
       1       1       8       1       1       8       1       1       8       1
       1       8       1       1       8       1       1       8       1       1
       8       1       1       8       1       1       8       1       1       8
       1       1       8       1       1       8       1       1       8       1
       1       8       1       1       8       1       1       8       1       1
       8       1       1       8       1       1       8       1       1       8
       1       1       8       1       1       8       1       1       8       1
       1       8       1       1       8       1       1       8       1       1
       8       1       1       8       1       1       8       1       1       8
       1       1       8       1       1       8       1       1       8       1
       1       8       1       1       8       1       1       8       1       1
       8       1       1       8       1       1       8       1       1       8
       1       1       8       1       1       8       1       1       8       1
       1       8       1       1       8       1       1       8       1       1
       8       1       1       8       1       1       8       1       1       8
       1       1       8       1       1       8       1       1       8       1
       1       8       1       1       8       1       1       8       1       1
       8       1       1       8       1       1       8       1       1       8
       1       1       8       1       1       8       1       1       8       1
       1       8       1       1       8       1       1       8       1       1
       8       1       1       8       1       1       8       1       1       8
       1       1       8       1       1       8       1       1       8       1
       1       8       1       1       8       1       1       8       1       1
       8       1       1       8       1       1       8       1       1       8
       1       1       8       1       1       8       1       1       8       1
       1       8       1       1       8       1       1       8       1       1
       8       1       1       8       1       1       8       1       1       8
       1       1       8       1       1       8       1       1       8       1
       1       8       1       1       8       1       1       8       1       1
       8       1       1       8       1       1       8       1       1       8
       1       1       8       1       1       8       1       1       8       1
       1       8       1       1       8       1       1       8       1       1
       8       1       1       8       1       1       8       1       1       8
       1       1       8       1       1       8       1       1       8       1
       1       8       1       1       8       1       1       8       1       1
       8       1       1       8       1       1       8       1       1       8
       1       1       8       1       1       8       1       1       8       1
       1       8       1       1       8       1       1       8       1       1
       8       1       1       8       1       1       8       1       1       8
       1       1       8       1       1       8       1       1       8       1
       1       8       1       1       8       1       1       8       1       1
       8       1       1       8       1       1       8       1       1       8
       1       1       8       1       1       8       1       1       8       1
       1       8       1       1       8       1       1       8       1       1
       8       1       1       8       1       1       8       1       1       8
       1       1       8       1       1       8       1       1       8       1
       1       8       1       1       8       1       1       8       1       1
       8       1       1       8       1       1       8       1       1       8
       1       1       8       1       1       8       1       1       8       1
       1       8       1       1       8       1       1       8       1       1
       8       1       1       8       1       1       8       1       1       8
       1       1       8       1       1       8       1       1       8       1
       1       8       1       1       8       1       1       8       1       1
       8       1       1       8       1       1       8       1       1       8
       1       1       8       1       1       8       1       1       8       1
       1       8       1       1       8       1       1       8       1       1
       8       1       1       8       1       1       8       1       1       8
       1       1       8       1       1       8       1       1       8       1
       1       8       1       1       8       1       1       8       1       1
       8       1       1       8       1       1       8       1       1       8
       1       1       8       1       1       8       1       1       8       1
       1       8       1       1       8       1       1       8       1       1
       8       1       1       8       1       1       8       1       1       8
       1       1       8       1       1       8       1       1       8       1
       1       8       1       1       8       1       1       8       1       1
       8       1       1       8       1       1       8       1       1       8
       1       1       8       1       1       8       1       1       8       1
       1       8       1       1       8       1       1       8       1       1
       8       1       1       8       1       1       8       1       1       8
       1       1       8       1       1       8       1       1       8       1
       1       8       1       1       8       1       1       8       1       1
       8       1       1       8       1       1       8       1       1       8
       1       1       8       1       1       8       1       1       8       1
       1       8       1       1       8       1       1       8       1       1
       8       1       1       8       1       1       8       1       1       8
       1       1       8       1       1       8       1       1       8       1
       1       8       1       1       8       1       1       8       1       1
       8       1       1       8       1       1       8       1       1       8
       1       1       8       1       1       8       1       1       8       1
       1       8       1       1       8       1       1       8       1       1
       8       1       1       8       1       1       8       1       1       8
       1       1       8       1       1       8       1       1       8       1
       1       8       1       1       8       1       1       8       1       1
       8       1       1       8       1       1       8       1       1       8
       1       1       8       1       1       8       1       1       8       1
       1       8       1       1       8       1       1       8       1       1
       8       1       1       8       1       1       8       1       1       8
       1       1       8       1       1       8       1       1       8       1
       1       8       1       1       8       1       1       8       1       1
       8       1       1       8       1       1       8       1       1       8
       1       1       8       1       1       8       1       1       8       1
       1       8       1       1       8       1       1       8       1       1
       8       1       1       8       1       1       8       1       1       8
       1       1       8       1       1       8       1       1       8       1
       1       8       1       1       8       1       1       8       1       1
       8       1       1       8       1       1       8       1       1       8
       1       1       8       1       1       8       1       1       8       1
       1       8       1       1       8       1       1       8       1       1
       8       1       1       8       1       1       8       1       1       8
       1       1       8       1       1       8       1       1       8       1
       1       8       1       1       8       1       1       8       1       1
       8       1       1       8       1       1       8       1       1       8
       1       1       8       1       1       8       1       1       8       1
       1       8       1       1       8       1       1       8       1       1
       8       1       1       8       1       1       8       1       1       8
       1       1       8       1       1       8       1       1       8       1
       1       8       1       1       8       1       1       8       1       1
       8       1       1       8       1       1       8       1       1       8
       1       1       8       1       1       8       1       1       8       1
       1       8       1       1       8       1       1       8       1       1
       8       1       1       8       1       1       8       1       1       8
       1       1       8       1       1       8       1       1       8       1
       1       8       1       1       8       1       1       8       1       1
       8       1       1       8       1       1       8       1       1       8
       1       1       8       1       1       8       1       1       8       1
       1       8       1       1       8       1       1       8       1       1
       8       1       1       8       1       1       8       1       1       8
       1       1       8       1       1       8       1       1       8       1
       1       8       1       1       8       1       1       8       1       1
       8       1       1       8       1       1       8       1       1       8
       1       1       8       1       1       8       1       1       8       1
       1       8       1       1       8       1       1       8       1       1
       8       1       1       8       1       1       8       1       1       8
       1       1       8       1       1       8       1       1       8       1
       1       8       1       1       8       1       1       8       1       1
       8       1       1       8       1       1       8       1       1       8
       1       1       8       1       1       8       1       1       8       1
       1       8       1       1       8       1       1       8       1       1
       8       1       1       8       1       1       8       1       1       8
       1       1       8       1       1       8       1       1       8       1
       1       8       1       1       8       1       1       8       1       1
       8       1       1       8       1       1       8       1       1       8
       1       1       8       1       1       8       1       1       8       1
       1       8       1       1       8       1       1       8       1       1
       8       1       1       8       1       1       8       1       1       8
       1       1       8       1       1       8       1       1       8       1
       1       8       1       1       8       1       1       8       1       1
       8       1       1       8       1       1       8       1       1       8
       1       1       8       1       1       8       1       1       8       1
       1       8       1       1       8       1       1       8       1       1
       8       1       1       8       1       1       8       1       1       8
       1       1       8       1       1       8       1       1       8       1
       1       8       1       1       8       1       1       8       1       1
       8       1       1       8       1       1       8       1       1       8
       1       1       8       1       1       8       1       1       8       1
       1       8       1       1       8       1       1       8       1       1
       8       1       1       8       1       1       8       1       1       8
       1       1       8       1       1       8       1       1       8       1
       1       8       1       1       8       1       1       8       1       1
       8       1       1       8       1       1       8       1       1       8
       1       1       8       1       1       8       1       1       8       1
       1       8       1       1       8       1       1       8       1       1
       8       1       1       8       1       1       8       1       1       8
       1       1       8       1       1       8       1       1       8       1
       1       8       1       1       8       1       1       8       1       1
       8       1       1       8       1       1       8       1       1       8
       1       1       8       1       1       8       1       1       8       1
       1       8       1       1       8       1       1       8       1       1
       8       1       1       8       1       1       8       1       1       8
       1       1       8       1       1       8       1       1       8       1
       1       8       1       1       8       1       1       8       1       1
       8       1       1       8       1       1       8       1       1       8
       1       1       8       1       1       8       1       1       8       1
       1       8       1       1       8       1       1       8       1       1
       8       1       1       8       1       1       8       1       1       8
       1       1       8       1       1       8       1       1       8       1
       1       8       1       1       8       1       1       8       1       1
       8       1       1       8       1       1       8       1       1       8
       1       1       8       1       1       8       1       1       8       1
       1       8       1       1       8       1       1       8       1       1
       8       1       1       8       1       1       8       1       1       8
       1       1       8       1       1       8       1       1       8       1
       1       8       1       1       8       1       1       8       1       1
       8       1       1       8       1       1       8       1       1       8
       1       1       8       1       1       8       1       1       8       1
       1       8       1       1       8       1       1       8       1       1
       8       1       1       8       1       1       8       1       1       8
       1       1       8       1       1       8       1       1       8       1
       1       8       1       1       8       1       1       8       1       1
       8       1       1       8       1       1       8       1       1       8
       1       1       8       1       1       8       1       1       8       1
       1       8       1       1       8       1       1       8       1       1
       8       1       1       8       1       1       8       1       1       8
       1       1       8       1       1       8       1       1       8       1
       1       8       1       1       8       1       1       8       1       1
       8       1       1       8       1       1       8       1       1       8
       1       1       8       1       1       8       1       1       8       1
       1       8       1       1       8       1       1       8       1       1
       8       1       1       8       1       1       8       1       1       8
       1       1       8       1       1       8       1       1       8       1
       1       8       1       1       8       1       1       8       1       1
       8       1       1       8       1       1       8       1       1       8
       1       1       8       1       1       8       1       1       8       1
       1       8       1       1       8       1       1       8       1       1
       8       1       1       8       1       1       8       1       1       8
       1       1       8       1       1       8       1       1       8       1
       1       8       1       1       8       1       1       8       1       1
       8       1       1       8       1       1       8       1       1       8
       1       1       8       1       1       8       1       1       8       1
       1       8       1       1       8       1       1       8       1       1
       8       1       1       8       1       1       8       1       1       8
       1       1       8       1       1       8       1       1       8       1
       1       8       1       1       8       1       1       8       1       1
       8       1       1       8       1       1       8       1       1       8
       1       1       8       1       1       8       1       1       8       1
       1       8       1       1       8       1       1       8       1       1
       8       1       1       8       1       1       8       1       1       8
       1       1       8       1       1       8       1       1       8       1
       1       8       1       1       8       1       1       8       1       1
       8       1       1       8       1       1       8       1       1       8
       1       1       8       1       1       8       1       1       8       1
       1       8       1       1       8       1       1       8       1       1
       8       1       1       8       1       1       8       1       1       8
       1       1       8       1       1       8       1       1       8       1
       1       8       1       1       8       1       1       8       1       1
       8       1       1       8       1       1       8       1       1       8
       1       1       8       1       1       8       1       1       8       1
       1       8       1       1       8       1       1       8       1       1
       8       1       1       8       1       1       8       1       1       8
       1       1       8       1       1       8       1       1       8       1
       1       8       1       1       8       1       1       8       1       1
       8       1       1       8       1       1       8       1       1       8
       1       1       8       1       1       8       1       1       8       1
       1       8       1       1       8       1       1       8       1       1
       8       1       1       8       1       1       8       1       1       8
       1       1       8       1       1       8       1       1       8       1
       1       8       1       1       8       1       1       8       1       1
       8       1       1       8       1       1       8       1       1       8
       1       1       8       1       1       8       1       1       8       1
       1       8       1       1       8       1       1       8       1       1
       8       1       1       8       1       1       8       1       1       8
       1       1       8       1       1       8       1       1       8       1
       1       8       1       1       8       1       1       8       1       1
       8       1       1       8       1       1       8       1       1       8
       1       1       8       1       1       8       1       1       8       1
       1       8       1       1       8       1       1       8       1       1
       8       1       1       8       1       1       8       1       1       8
       1       1       8       1       1       8       1       1       8       1
       1       8       1       1       8       1       1       8       1       1
       8       1       1       8       1       1       8       1       1       8
       1       1       8       1       1       8       1       1       8       1
       1       8       1       1       8       1       1       8       1       1
       8       1       1       8       1       1       8       1       1       8
       1       1       8       1       1       8       1       1       8       1
       1       8       1       1       8       1       1       8       1       1
       8       1       1       8       1       1       8       1       1       8
       1       1       8       1       1       8       1       1       8       1
       1       8       1       1       8       1       1       8       1       1
       8       1       1       8       1       1       8       1       1       8
       1       1       8       1       1       8       1       1       8       1
       1       8       1       1       8       1       1       8       1       1
       8       1       1       8       1       1       8       1       1       8
       1       1       8       1       1       8       1       1       8       1
       1       8       1       1       8       1       1       8       1       1
       8       1       1       8       1       1       8       1       1       8
       1       1       8       1       1       8       1       1       8       1
       1       8       1       1       8       1       1       8       1       1
       8       1       1       8       1       1       8       1       1       8
       1       1       8       1       1       8       1       1       8       1
       1       8       1       1       8       1       1       8       1       1
       8       1       1       8       1       1       8       1       1       8
       1       1       8       1       1       8       1       1       8       1
       1       8       1       1       8       1       1       8       1       1
       8       1       1       8       1       1       8       1       1       8
       1       1       8       1       1       8       1       1       8       1
       1       8       1       1       8       1       1       8       1       1
       8       1       1       8       1       1       8       1       1       8
       1       1       8       1       1       8       1       1       8       1
       1       8       1       1       8       1       1       8       1       1
       8       1       1       8       1       1       8       1       1       8
       1       1       8       1       1       8       1       1       8       1
       1       8       1       1       8       1       1       8       1       1
       8       1       1       8       1       1       8       1       1       8
       1       1       8       1       1       8       1       1       8       1
       1       8       1       1       8       1       1       8       1       1
       8       1       1       8       1       1       8       1       1       8
       1       1       8       1       1       8       1       1       8       1
       1       8       1       1       8       1       1       8       1       1
       8       1       1       8       1       1       8       1       1       8
       1       1       8       1       1       8       1       1       8       1
       1       8       1       1       8       1       1       8       1       1
       8       1       1       8       1       1       8       1       1       8
       1       1       8       1       1       8       1       1       8       1
       1       8       1       1       8       1       1       8       1       1
       8       1       1       8       1       1       8       1       1       8
       1       1       8       1       1       8       1       1       8       1
       1       8       1       1       8       1       1       8       1       1
       8       1       1       8       1       1       8       1       1       8
       1       1       8       1       1       8       1       1       8       1
       1       8       1       1       8       1       1       8       1       1
       8       1       1       8       1       1       8       1       1       8
       1       1       8       1       1       8       1       1       8       1
       1       8       1       1       8       1       1       8       1       1
       8       1       1       8       1       1       8       1       1       8
       1       1       8       1       1       8       1       1       8       1
       1       8       1       1       8       1       1       8       1       1
       8       1       1       8       1       1       8       1       1       8
       1       1       8       1       1       8       1       1       8       1
       1       8       1       1       8       1       1       8       1       1
       8       1       1       8       1       1       8       1       1       8
       1       1       8       1       1       8       1       1       8       1
       1       8       1       1       8       1       1       8       1       1
       8       1       1       8       1       1       8       1       1       8
       1       1       8       1       1       8       1       1       8       1
       1       8       1       1       8       1       1       8       1       1
       8       1       1       8       1       1       8       1       1       8
       1       1       8       1       1       8       1       1       8       1
       1       8       1       1       8       1       1       8       1       1
       8       1       1       8       1       1       8       1       1       8
       1       1       8       1       1       8       1       1       8       1
       1       8       1       1       8       1       1       8       1       1
       8       1       1       8       1       1       8       1       1       8
       1       1       8       1       1       8       1       1       8       1
       1       8       1       1       8       1       1       8       1       1
       8       1       1       8       1       1       8       1       1       8
       1       1       8       1       1       8       1       1       8       1
       1       8       1       1       8       1       1       8       1       1
       8       1       1       8       1       1       8       1       1       8
       1       1       8       1       1       8       1       1       8       1
       1       8       1       1       8       1       1       8       1       1
       8       1       1       8       1       1       8       1       1       8
       1       1       8       1       1       8       1       1       8       1
       1       8       1       1       8       1       1       8       1       1
       8       1       1       8       1       1       8       1       1       8
       1       1       8       1       1       8       1       1       8       1
       1       8       1       1       8       1       1       8       1       1
       8       1       1       8       1       1       8       1       1       8
       1       1       8       1       1       8       1       1       8       1
       1       8       1       1       8       1       1       8       1       1
       8       1       1       8       1       1       8       1       1       8
       1       1       8       1       1       8       1       1       8       1
       1       8       1       1       8       1       1       8       1       1
       8       1       1       8       1       1       8       1       1       8
       1       1       8       1       1       8       1       1       8       1
       1       8       1       1       8       1       1       8       1       1
       8       1       1       8       1       1       8       1       1       8
       1       1       8       1       1       8       1       1       8       1
       1       8       1       1       8       1       1       8       1       1
       8       1       1       8       1       1       8       1       1       8
       1       1       8       1       1       8       1       1       8       1
       1       8       1       1       8       1       1       8       1       1
       8       1       1       8       1       1       8       1       1       8
       1       1       8       1       1       8       1       1       8       1
       1       8       1       1       8       1       1       8       1       1
       8       1       1       8       1       1       8       1       1       8
       1       1       8       1       1       8       1       1       8       1
       1       8       1       1       8       1       1       8       1       1
       8       1       1       8       1       1       8       1       1       8
       1       1       8       1       1       8       1       1       8       1
       1       8       1       1       8       1       1       8       1       1
       8       1       1       8       1       1       8       1       1       8
       1       1       8       1       1       8       1       1       8       1
       1       8       1       1       8       1       1       8       1       1
       8       1       1       8       1       1       8       1       1       8
       1       1       8       1       1       8       1       1       8       1
       1       8       1       1       8       1       1       8       1       1
       8       1       1       8       1       1       8       1       1       8
       1       1       8       1       1       8       1       1       8       1
       1       8       1       1       8       1       1       8       1       1
       8       1       1       8       1       1       8       1       1       8
       1       1       8       1       1       8       1       1       8       1
       1       8       1       1       8       1       1       8       1       1
       8       1       1       8       1       1       8       1       1       8
       1       1       8       1       1       8       1       1       8       1
       1       8       1       1       8       1       1       8       1       1
       8       1       1       8       1       1       8       1       1       8
       1       1       8       1       1       8       1       1       8       1
       1       8       1       1       8       1       1       8       1       1
       8       1       1       8       1       1       8       1       1       8
       1       1       8       1       1       8       1       1       8       1
       1       8       1       1       8       1       1       8       1       1
       8       1       1       8       1       1       8       1       1       8
       1       1       8       1       1       8       1       1       8       1
       1       8       1       1       8       1       1       8       1       1
       8       1       1       8       1       1       8       1       1       8
       1       1       8       1       1       8       1       1       8       1
       1       8       1       1       8       1       1       8       1       1
       8       1       1       8       1       1       8       1       1       8
       1       1       8       1       1       8       1       1       8       1
       1       8       1       1       8       1       1       8       1       1
       8       1       1       8       1       1       8       1       1       8
       1       1       8       1       1       8       1       1       8       1
       1       8       1       1       8       1       1       8       1       1
       8       1       1       8       1       1       8       1       1       8
       1       1       8       1       1       8       1       1       8       1
       1       8       1       1       8       1       1       8       1       1
       8       1       1       8       1       1       8       1       1       8
       1       1       8       1       1       8       1       1       8       1
       1       8       1       1       8       1       1       8       1       1
       8       1       1       8       1       1       8       1       1       8
       1       1       8       1       1       8       1       1       8       1
       1       8       1       1       8       1       1       8       1       1
       8       1       1       8       1       1       8       1       1       8
       1       1       8       1       1       8       1       1       8       1
       1       8       1       1       8       1       1       8       1       1
       8       1       1       8       1       1       8       1       1       8
       1       1       8       1       1       8       1       1       8       1
       1       8       1       1       8       1       1       8       1       1
       8       1       1       8       1       1       8       1       1       8
       1       1       8       1       1       8       1       1       8       1
       1       8       1       1       8       1       1       8       1       1
       8       1       1       8       1       1       8       1       1       8
       1       1       8       1       1       8       1       1       8       1
       1       8       1       1       8       1       1       8       1       1
       8       1       1       8       1       1       8       1       1       8
       1       1       8       1       1       8       1       1       8       1
       1       8       1       1       8       1       1       8       1       1
       8       1       1       8       1       1       8       1       1       8
       1       1       8       1       1       8       1       1       8       1
       1       8       1       1       8       1       1       8       1       1
       8       1       1       8       1       1       8       1       1       8
       1       1       8       1       1       8       1       1       8       1
       1       8       1       1       8       1       1       8       1       1
       8       1       1       8       1       1       8       1       1       8
       1       1       8       1       1       8       1       1       8       1
       1       8       1       1       8       1       1       8       1       1
       8       1       1       8       1       1       8       1       1       8
       1       1       8       1       1       8       1       1       8       1
       1       8       1       1       8       1       1       8       1       1
       8       1       1       8       1       1       8       1       1       8
       1       1       8       1       1       8       1       1       8       1
       1       8       1       1       8       1       1       8       1       1
       8       1       1       8       1       1       8       1       1       8
       1       1       8       1       1       8       1       1       8       1
       1       8       1       1       8       1       1       8       1       1
       8       1       1       8       1       1       8       1       1       8
       1       1       8       1       1       8       1       1       8       1
       1       8       1       1       8       1       1       8       1       1
       8       1       1       8       1       1       8       1       1       8
       1       1       8       1       1       8       1       1       8       1
       1       8       1       1       8       1       1       8       1       1
       8       1       1       8       1       1       8       1       1       8
       1       1       8       1       1       8       1       1       8       1
       1       8       1       1       8       1       1       8       1       1
       8       1       1       8       1       1       8       1       1       8
       1       1       8       1       1       8       1       1       8       1
       1       8       1       1       8       1       1       8       1       1
       8       1       1       8       1       1       8       1       1       8
       1       1       8       1       1       8       1       1       8       1
       1       8       1       1       8       1       1       8       1       1
       8       1       1       8       1       1       8       1       1       8
       1       1       8       1       1       8       1       1       8       1
       1       8       1       1       8       1       1       8       1       1
       8       1       1       8       1       1       8       1       1       8
       1       1       8       1       1       8       1       1       8       1
       1       8       1       1       8       1       1       8       1       1
       8       1       1       8       1       1       8       1       1       8
       1       1       8       1       1       8       1       1       8       1
       1       8       1       1       8       1       1       8       1       1
       8       1       1       8       1       1       8       1       1       8
       1       1       8       1       1       8       1       1       8       1
       1       8       1       1       8       1       1       8       1       1
       8       1       1       8       1       1       8       1       1       8
       1       1       8       1       1       8       1       1       8       1
       1       8       1       1       8       1       1       8       1       1
       8       1       1       8       1       1       8       1       1       8
       1       1       8       1       1       8       1       1       8       1
       1       8       1       1       8       1       1       8       1       1
       8       1       1       8       1       1       8       1       1       8
       1       1       8       1       1       8       1       1       8       1
       1       8       1       1       8       1       1       8       1       1
       8       1       1       8       1       1       8       1       1       8
       1       1       8       1       1       8       1       1       8       1
       1       8       1       1       8       1       1       8       1       1
       8       1       1       8       1       1       8       1       1       8
       1       1       8       1       1       8       1       1       8       1
       1       8       1       1       8       1       1       8       1       1
       8       1       1       8       1       1       8       1       1       8
       1       1       8       1       1       8       1       1       8       1
       1       8       1       1       8       1       1       8       1       1
       8       1       1       8       1       1       8       1       1       8
       1       1       8       1       1       8       1       1       8       1
       1       8       1       1       8       1       1       8       1       1
       8       1       1       8       1       1       8       1       1       8
       1       1       8       1       1       8       1       1       8       1
       1       8       1       1       8       1       1       8       1       1
       8       1       1       8       1       1       8       1       1       8
       1       1       8       1       1       8       1       1       8       1
       1       8       1       1       8       1       1       8       1       1
       8       1       1       8       1       1       8       1       1       8
       1       1       8       1       1       8       1       1       8       1
       1       8       1       1       8       1       1       8       1       1
       8       1       1       8       1       1       8       1       1       8
       1       1       8       1       1       8       1       1       8       1
       1       8       1       1       8       1       1       8       1       1
       8       1       1       8       1       1       8       1       1       8
       1       1       8       1       1       8       1       1       8       1
       1       8       1       1       8       1       1       8       1       1
       8       1       1       8       1       1       8       1       1       8
       1       1       8       1       1       8       1       1       8       1
       1       8       1       1       8       1       1       8       1       1
       8       1       1       8       1       1       8       1       1       8
       1       1       8       1       1       8       1       1       8       1
       1       8       1       1       8       1       1       8       1       1
       8       1       1       8       1       1       8       1       1       8
       1       1       8       1       1       8       1       1       8       1
       1       8       1       1       8       1       1       8       1       1
       8       1       1       8       1       1       8       1       1       8
       1       1       8       1       1       8       1       1       8       1
       1       8       1       1       8       1       1       8       1       1
       8       1       1       8       1       1       8       1       1       8
       1       1       8       1       1       8       1       1       8       1
       1       8       1       1       8       1       1       8       1       1
       8       1       1       8       1       1       8       1       1       8
       1       1       8       1       1       8       1       1       8       1
       1       8       1       1       8       1       1       8       1       1
       8       1       1       8       1       1       8       1       1       8
       1       1       8       1       1       8       1       1       8       1
       1       8       1       1       8       1       1       8       1       1
       8       1       1       8       1       1       8       1       1       8
       1       1       8       1       1       8       1       1       8       1
       1       8       1       1       8       1       1       8       1       1
       8       1       1       8       1       1       8       1       1       8
       1       1       8       1       1       8       1       1       8       1
       1       8       1       1       8       1       1       8       1       1
       8       1       1       8       1       1       8       1       1       8
       1       1       8       1       1       8       1       1       8       1
       1       8       1       1       8       1       1       8       1       1
       8       1       1       8       1       1       8       1       1       8
       1       1       8       1       1       8       1       1       8       1
       1       8       1       1       8       1       1       8       1       1
       8       1       1       8       1       1       8       1       1       8
       1       1       8       1       1       8       1       1       8       1
       1       8       1       1       8       1       1       8       1       1
       8       1       1       8       1       1       8       1       1       8
       1       1       8       1       1       8       1       1       8       1
       1       8       1       1       8       1       1       8       1       1
       8       1       1       8       1       1       8       1       1       8
       1       1       8       1       1       8       1       1       8       1
       1       8       1       1       8       1       1       8       1       1
       8       1       1       8       1       1       8       1       1       8
       1       1       8       1       1       8       1       1       8       1
       1       8       1       1       8       1       1       8       1       1
       8       1       1       8       1       1       8       1       1       8
       1       1       8       1       1       8       1       1       8       1
       1       8       1       1       8       1       1       8       1       1
       8       1       1       8       1       1       8       1       1       8
       1       1       8       1       1       8       1       1       8       1
       1       8       1       1       8       1       1       8       1       1
       8       1       1       8       1       1       8       1       1       8
       1       1       8       1       1       8       1       1       8       1
       1       8       1       1       8       1       1       8       1       1
       8       1       1       8       1       1       8       1       1       8
       1       1       8       1       1       8       1       1       8       1
       1       8       1       1       8       1       1       8       1       1
       8       1       1       8       1       1       8       1       1       8
       1       1       8       1       1       8       1       1       8       1
       1       8       1       1       8       1       1       8       1       1
       8       1       1       8       1       1       8       1       1       8
       1       1       8       1       1       8       1       1       8       1
       1       8       1       1       8       1       1       8       1       1
       8       1       1       8       1       1       8       1       1       8
       1       1       8       1       1       8       1       1       8       1
       1       8       1       1       8       1       1       8       1       1
       8       1       1       8       1       1       8       1       1       8
       1       1       8       1       1       8       1       1       8       1
       1       8       1       1       8       1       1       8       1       1
       8       1       1       8       1       1       8       1       1       8
       1       1       8       1       1       8       1       1       8       1
       1       8       1       1       8       1       1       8       1       1
       8       1       1       8       1       1       8       1       1       8
       1       1       8       1       1       8       1       1       8       1
       1       8       1       1       8       1       1       8       1       1
       8       1       1       8       1       1       8       1       1       8
       1       1       8       1       1       8       1       1       8       1
       1       8       1       1       8       1       1       8       1       1
       8       1       1       8       1       1       8       1       1       8
       1       1       8       1       1       8       1       1       8       1
       1       8       1       1       8       1       1       8       1       1
       8       1       1       8       1       1       8       1       1       8
       1       1       8       1       1       8       1       1       8       1
       1       8       1       1       8       1       1       8       1       1
       8       1       1       8       1       1       8       1       1       8
       1       1       8       1       1       8       1       1       8       1
       1       8       1       1       8       1       1       8       1       1
       8       1       1       8       1       1       8       1       1       8
       1       1       8       1       1       8       1       1       8       1
       1       8       1       1       8       1       1       8       1       1
       8       1       1       8       1       1       8       1       1       8
       1       1       8       1       1       8       1       1       8       1
       1       8       1       1       8       1       1       8       1       1
       8       1       1       8       1       1       8       1       1       8
       1       1       8       1       1       8       1       1       8       1
       1       8       1       1       8       1       1       8       1       1
       8       1       1       8       1       1       8       1       1       8
       1       1       8       1       1       8       1       1       8       1
       1       8       1       1       8       1       1       8       1       1
       8       1       1       8       1       1       8       1       1       8
       1       1       8       1       1       8       1       1       8       1
       1       8       1       1       8       1       1       8       1       1
       8       1       1       8       1       1       8       1       1       8
       1       1       8       1       1       8       1       1       8       1
       1       8       1       1       8       1       1       8       1       1
       8       1       1       8       1       1       8       1       1       8
       1       1       8       1       1       8       1       1       8       1
       1       8       1       1       8       1       1       8       1       1
       8       1       1       8       1       1       8       1       1       8
       1       1       8       1       1       8       1       1       8       1
       1       8       1       1       8       1       1       8       1       1
       8       1       1       8       1       1       8       1       1       8
       1       1       8       1       1       8       1       1       8       1
       1       8       1       1       8       1       1       8       1       1
       8       1       1       8       1       1       8       1       1       8
       1       1       8       1       1       8       1       1       8       1
       1       8       1       1       8       1       1       8       1       1
       8       1       1       8       1       1       8       1       1       8
       1       1       8       1       1       8       1       1       8       1
       1       8       1       1       8       1       1       8       1       1
       8       1       1       8       1       1       8       1       1       8
       1       1       8       1       1       8       1       1       8       1
       1       8       1       1       8       1       1       8       1       1
       8       1       1       8       1       1       8       1       1       8
       1       1       8       1       1       8       1       1       8       1
       1       8       1       1       8       1       1       8       1       1
       8       1       1       8       1       1       8       1       1       8
       1       1       8       1       1       8       1       1       8       1
       1       8       1       1       8       1       1       8       1       1
       8       1       1       8       1       1       8       1       1       8
       1       1       8       1       1       8       1       1       8       1
       1       8       1       1       8       1       1       8       1       1
       8       1       1       8       1       1       8       1       1       8
       1       1       8       1       1       8       1       1       8       1
       1       8       1       1       8       1       1       8       1       1
       8       1       1       8       1       1       8       1       1       8
       1       1       8       1       1       8       1       1       8       1
       1       8       1       1       8       1       1       8       1       1
       8       1       1       8       1       1       8       1       1       8
       1       1       8       1       1       8       1       1       8       1
       1       8       1       1       8       1       1       8       1       1
       8       1       1       8       1       1       8       1       1       8
       1       1       8       1       1       8       1       1       8       1
       1       8       1       1       8       1       1       8       1       1
       8       1       1       8       1       1       8       1       1       8
       1       1       8       1       1       8       1       1       8       1
       1       8       1       1       8       1       1       8       1       1
       8       1       1       8       1       1       8       1       1       8
       1       1       8       1       1       8       1       1       8       1
       1       8       1       1       8       1       1       8       1       1
       8       1       1       8       1       1       8       1       1       8
       1       1       8       1       1       8       1       1       8       1
       1       8       1       1       8       1       1       8       1       1
       8       1       1       8       1       1       8       1       1       8
       1       1       8       1       1       8       1       1       8       1
       1       8       1       1       8       1       1       8       1       1
       8       1       1       8       1       1       8       1       1       8
       1       1       8       1       1       8       1       1       8       1
       1       8       1       1       8       1       1       8       1       1
       8       1       1       8       1       1       8       1       1       8
       1       1       8       1       1       8       1       1       8       1
       1       8       1       1       8       1       1       8       1       1
       8       1       1       8       1       1       8       1       1       8
       1       1       8       1       1       8       1       1       8       1
       1       8       1       1       8       1       1       8       1       1
       8       1       1       8       1       1       8       1       1       8
       1       1       8       1       1       8       1       1       8       1
       1       8       1       1       8       1       1       8       1       1
       8       1       1       8       1       1       8       1       1       8
       1       1       8       1       1       8       1       1       8       1
       1       8       1       1       8       1       1       8       1       1
       8       1       1       8       1       1       8       1       1       8
       1       1       8       1       1       8       1       1       8       1
       1       8       1       1       8       1       1       8       1       1
       8       1       1       8       1       1       8       1       1       8
       1       1       8       1       1       8       1       1       8       1
       1       8       1       1       8       1       1       8       1       1
       8       1       1       8       1       1       8       1       1       8
       1       1       8       1       1       8       1       1       8       1
       1       8       1       1       8       1       1       8       1       1
       8       1       1       8       1       1       8       1       1       8
       1       1       8       1       1       8       1       1       8       1
       1       8       1       1       8       1       1       8       1       1
       8       1       1       8       1       1       8       1       1       8
       1       1       8       1       1       8       1       1       8       1
       1       8       1       1       8       1       1       8       1       1
       8       1       1       8       1       1       8       1       1       8
       1       1       8       1       1       8       1       1       8       1
       1       8       1       1       8       1       1       8       1       1
       8       1       1       8       1       1       8       1       1       8
       1       1       8       1       1       8       1       1       8       1
       1       8       1       1       8       1       1       8       1       1
       8       1       1       8       1       1       8       1       1       8
       1       1       8       1       1       8       1       1       8       1
       1       8       1       1       8       1       1       8       1       1
       8       1       1       8       1       1       8       1       1       8
       1       1       8       1       1       8       1       1       8       1
       1       8       1       1       8       1       1       8       1       1
       8       1       1       8       1       1       8       1       1       8
       1       1       8       1       1       8       1       1       8       1
       1       8       1       1       8       1       1       8       1       1
       8       1       1       8       1       1       8       1       1       8
       1       1       8       1       1       8       1       1       8       1
       1       8       1       1       8       1       1       8       1       1
       8       1       1       8       1       1       8       1       1       8
       1       1       8       1       1       8       1       1       8       1
       1       8       1       1       8       1       1       8       1       1
       8       1       1       8       1       1       8       1       1       8
       1       1       8       1       1       8       1       1       8       1
       1       8       1       1       8       1       1       8       1       1
       8       1       1       8       1       1       8       1       1       8
       1       1       8       1       1       8       1       1       8       1
       1       8       1       1       8       1       1       8       1       1
       8       1       1       8       1       1       8       1       1       8
       1       1       8       1       1       8       1       1       8       1
       1       8       1       1       8       1       1       8       1       1
       8       1       1       8       1       1       8       1       1       8
       1       1       8       1       1       8       1       1       8       1
       1       8       1       1       8       1       1       8       1       1
       8       1       1       8       1       1       8       1       1       8
       1       1       8       1       1       8       1       1       8       1
       1       8       1       1       8       1       1       8       1       1
       8       1       1       8       1       1       8       1       1       8
       1       1       8       1       1       8       1       1       8       1
       1       8       1       1       8       1       1       8       1       1
       8       1       1       8       1       1       8       1       1       8
       1       1       8       1       1       8       1       1       8       1
       1       8       1       1       8       1       1       8       1       1
       8       1       1       8       1       1       8       1       1       8
       1       1       8       1       1       8       1       1       8       1
       1       8       1       1       8       1       1       8       1       1
       8       1       1       8       1       1       8       1       1       8
       1       1       8       1       1       8       1       1       8       1
       1       8       1       1       8       1       1       8       1       1
       8       1       1       8       1       1       8       1       1       8
       1       1       8       1       1       8       1       1       8       1
       1       8       1       1       8       1       1       8       1       1
       8       1       1       8       1       1       8       1       1       8
       1       1       8       1       1       8       1       1       8       1
       1       8       1       1       8       1       1       8       1       1
       8       1       1       8       1       1       8       1       1       8
       1       1       8       1       1       8       1       1       8       1
       1       8       1       1       8       1       1       8       1       1
       8       1       1       8       1       1       8       1       1       8
       1       1       8       1       1       8       1       1       8       1
       1       8       1       1       8       1       1       8       1       1
       8       1       1       8       1       1       8       1       1       8
       1       1       8       1       1       8       1       1       8       1
       1       8       1       1       8       1       1       8       1       1
       8       1       1       8       1       1       8       1       1       8
       1       1       8       1       1       8       1       1       8       1
       1       8       1       1       8       1       1       8       1       1
       8       1       1       8       1       1       8       1       1       8
       1       1       8       1       1       8       1       1       8       1
       1       8       1       1       8       1       1       8       1       1
       8       1       1       8       1       1       8       1       1       8
       1       1       8       1       1       8       1       1       8       1
       1       8       1       1       8       1       1       8       1       1
       8       1       1       8       1       1       8       1       1       8
       1       1       8       1       1       8       1       1       8       1
       1       8       1       1       8       1       1       8       1       1
       8       1       1       8       1       1       8       1       1       8
       1       1       8       1       1       8       1       1       8       1
       1       8       1       1       8       1       1       8       1       1
       8       1       1       8       1       1       8       1       1       8
       1       1       8       1       1       8       1       1       8       1
       1       8       1       1       8       1       1       8       1       1
       8       1       1       8       1       1       8       1       1       8
       1       1       8       1       1       8       1       1       8       1
       1       8       1       1       8       1       1       8       1       1
       8       1       1       8       1       1       8       1       1       8
       1       1       8       1       1       8       1       1       8       1
       1       8       1       1       8       1       1       8       1       1
       8       1       1       8       1       1       8       1       1       8
       1       1       8       1       1       8       1       1       8       1
       1       8       1       1       8       1       1       8       1       1
       8       1       1       8       1       1       8       1       1       8
       1       1       8       1       1       8       1       1       8       1
       1       8       1       1       8       1       1       8       1       1
       8       1       1       8       1       1       8       1       1       8
       1       1       8       1       1       8       1       1       8       1
       1       8       1       1       8       1       1       8       1       1
       8       1       1       8       1       1       8       1       1       8
       1       1       8       1       1       8       1       1       8       1
       1       8       1       1       8       1       1       8       1       1
       8       1       1       8       1       1       8       1       1       8
       1       1       8       1       1       8       1       1       8       1
       1       8       1       1       8       1       1       8       1       1
       8       1       1       8       1       1       8       1       1       8
       1       1       8       1       1       8       1       1       8       1
       1       8       1       1       8       1       1       8       1       1
       8       1       1       8       1       1       8       1       1       8
       1       1       8       1       1       8       1       1       8       1
       1       8       1       1       8       1       1       8       1       1
       8       1       1       8       1       1       8       1       1       8
       1       1       8       1       1       8       1       1       8       1
       1       8       1       1       8       1       1       8       1       1
       8       1       1       8       1       1       8       1       1       8
       1       1       8       1       1       8       1       1       8       1
       1       8       1       1       8       1       1       8       1       1
       8       1       1       8       1       1       8       1       1       8
       1       1       8       1       1       8       1       1       8       1
       1       8       1       1       8       1       1       8       1       1
       8       1       1       8       1       1       8       1       1       8
       1       1       8       1       1       8       1       1       8       1
       1       8       1       1       8       1       1       8       1       1
       8       1       1       8       1       1       8       1       1       8
       1       1       8       1       1       8       1       1       8       1
       1       8       1       1       8       1       1       8       1       1
       8       1       1       8       1       1       8       1       1       8
       1       1       8       1       1       8       1       1       8       1
       1       8       1       1       8       1       1       8       1       1
       8       1       1       8       1       1       8       1       1       8
       1       1       8       1       1       8       1       1       8       1
       1       8       1       1       8       1       1       8       1       1
       8       1       1       8       1       1       8       1       1       8
       1       1       8       1       1       8       1       1       8       1
       1       8       1       1       8       1       1       8       1       1
       8       1       1       8       1       1       8       1       1       8
       1       1       8       1       1       8       1       1       8       1
       1       8       1       1       8       1       1       8       1       1
       8       1       1       8       1       1       8       1       1       8
       1       1       8       1       1       8       1       1       8       1
       1       8       1       1       8       1       1       8       1       1
       8       1       1       8       1       1       8       1       1       8
       1       1       8       1       1       8       1       1       8       1
       1       8       1       1       8       1       1       8       1       1
       8       1       1       8       1       1       8       1       1       8
       1       1       8       1       1       8       1       1       8       1
       1       8       1       1       8       1       1       8       1       1
       8       1       1       8       1       1       8       1       1       8
       1       1       8       1       1       8       1       1       8       1
       1       8       1       1       8       1       1       8       1       1
       8       1       1       8       1       1       8       1       1       8
       1       1       8       1       1       8       1       1       8       1
       1       8       1       1       8       1       1       8       1       1
       8       1       1       8       1       1       8       1       1       8
       1       1       8       1       1       8       1       1       8       1
       1       8       1       1       8       1       1       8       1       1
       8       1       1       8       1       1       8       1       1       8
       1       1       8       1       1       8       1       1       8       1
       1       8       1       1       8       1       1       8       1       1
       8       1       1       8       1       1       8       1       1       8
       1       1       8       1       1       8       1       1       8       1
       1       8       1       1       8       1       1       8       1       1
       8       1       1       8       1       1       8       1       1       8
       1       1       8       1       1       8       1       1       8       1
       1       8       1       1       8       1       1       8       1       1
       8       1       1       8       1       1       8       1       1       8
       1       1       8       1       1       8       1       1       8       1
       1       8       1       1       8       1       1       8       1       1
       8       1       1       8       1       1       8       1       1       8
       1       1       8       1       1       8       1       1       8       1
       1       8       1       1       8       1       1       8       1       1
       8       1       1       8       1       1       8       1       1       8
       1       1       8       1       1       8       1       1       8       1
       1       8       1       1       8       1       1       8       1       1
       8       1       1       8       1       1       8       1       1       8
       1       1       8       1       1       8       1       1       8       1
       1       8       1       1       8       1       1       8       1       1
       8       1       1       8       1       1       8       1       1       8
       1       1       8       1       1       8       1       1       8       1
       1       8       1       1       8       1       1       8       1       1
       8       1       1       8       1       1       8       1       1       8
       1       1       8       1       1       8       1       1       8       1
       1       8       1       1       8       1       1       8       1       1
       8       1       1       8       1       1       8       1       1       8
       1       1       8       1       1       8       1       1       8       1
       1       8       1       1       8       1       1       8       1       1
       8       1       1       8       1       1       8       1       1       8
       1       1       8       1       1       8       1       1       8       1
       1       8       1       1       8       1       1       8       1       1
       8       1       1       8       1       1       8       1       1       8
       1       1       8       1       1       8       1       1       8       1
       1       8       1       1       8       1       1       8       1       1
       8       1       1       8       1       1       8       1       1       8
       1       1       8       1       1       8       1       1       8       1
       1       8       1       1       8       1       1       8       1       1
       8       1       1       8       1       1       8       1       1       8
       1       1       8       1       1       8       1       1       8       1
       1       8       1       1       8       1       1       8       1       1
       8       1       1       8       1       1       8       1       1       8
       1       1       8       1       1       8       1       1       8       1
       1       8       1       1       8       1       1       8       1       1
       8       1       1       8       1       1       8       1       1       8
       1       1       8       1       1       8       1       1       8       1
       1       8       1       1       8       1       1       8       1       1
       8       1       1       8       1       1       8       1       1       8
       1       1       8       1       1       8       1       1       8       1
       1       8       1       1       8       1       1       8       1       1
       8       1       1       8       1       1       8       1       1       8
       1       1       8       1       1       8       1       1       8       1
       1       8       1       1       8       1       1       8       1       1
       8       1       1       8       1       1       8       1       1       8
       1       1       8       1       1       8       1       1       8       1
       1       8       1       1       8       1       1       8       1       1
       8       1       1       8       1       1       8       1       1       8
       1       1       8       1       1       8       1       1       8       1
       1       8       1       1       8       1       1       8       1       1
       8       1       1       8       1       1       8       1       1       8
       1       1       8       1       1       8       1       1       8       1
       1       8       1       1       8       1       1       8       1       1
       8       1       1       8       1       1       8       1       1       8
       1       1       8       1       1       8       1       1       8       1
       1       8       1       1       8       1       1       8       1       1
       8       1       1       8       1       1       8       1       1       8
       1       1       8       1       1       8       1       1       8       1
       1       8       1       1       8       1       1       8       1       1
       8       1       1       8       1       1       8       1       1       8
       1       1       8       1       1       8       1       1       8       1
       1       8       1       1       8       1       1       8       1       1
       8       1       1       8       1       1       8       1       1       8
       1       1       8       1       1       8       1       1       8       1
       1       8       1       1       8       1       1       8       1       1
       8       1       1       8       1       1       8       1       1       8
       1       1       8       1       1       8       1       1       8       1
       1       8       1       1       8       1       1       8       1       1
       8       1       1       8       1       1       8       1       1       8
       1       1       8       1       1       8       1       1       8       1
       1       8       1       1       8       1       1       8       1       1
       8       1       1       8       1       1       8       1       1       8
       1       1       8       1       1       8       1       1       8       1
       1       8       1       1       8       1       1       8       1       1
       8       1       1       8       1       1       8       1       1       8
       1       1       8       1       1       8       1       1       8       1
       1       8       1       1       8       1       1       8       1       1
       8       1       1       8       1       1       8       1       1       8
       1       1       8       1       1       8       1       1       8       1
       1       8       1       1       8       1       1       8       1       1
       8       1       1       8       1       1       8       1       1       8
       1       1       8       1       1       8       1       1       8       1
       1       8       1       1       8       1       1       8       1       1
       8       1       1       8       1       1       8       1       1       8
       1       1       8       1       1       8       1       1       8       1
       1       8       1       1       8       1       1       8       1       1
       8       1       1       8       1       1       8       1       1       8
       1       1       8       1       1       8       1       1       8       1
       1       8       1       1       8       1       1       8       1       1
       8       1       1       8       1       1       8       1       1       8
       1       1       8       1       1       8       1       1       8       1
       1       8       1       1       8       1       1       8       1       1
       8       1       1       8       1       1       8       1       1       8
       1       1       8       1       1       8       1       1       8       1
       1       8       1       1       8       1       1       8       1       1
       8       1       1       8       1       1       8       1       1       8
       1       1       8       1       1       8       1       1       8       1
       1       8       1       1       8       1       1       8       1       1
       8       1       1       8       1       1       8       1       1       8
       1       1       8       1       1       8       1       1       8       1
       1       8       1       1       8       1       1       8       1       1
       8       1       1       8       1       1       8       1       1       8
       1       1       8       1       1       8       1       1       8       1
       1       8       1       1       8       1       1       8       1       1
       8       1       1       8       1       1       8       1       1       8
       1       1       8       1       1       8       1       1       8       1
       1       8       1       1       8       1       1       8       1       1
       8       1       1       8       1       1       8       1       1       8
       1       1       8       1       1       8       1       1       8       1
       1       8       1       1       8       1       1       8       1       1
       8       1       1       8       1       1       8       1       1       8
       1       1       8       1       1       8       1       1       8       1
       1       8       1       1       8       1       1       8       1       1
       8       1       1       8       1       1       8       1       1       8
       1       1       8       1       1       8       1       1       8       1
       1       8       1       1       8       1       1       8       1       1
       8       1       1       8       1       1       8       1       1       8
       1       1       8       1       1       8       1       1       8       1
       1       8       1       1       8       1       1       8       1       1
       8       1       1       8       1       1       8       1       1       8
       1       1       8       1       1       8       1       1       8       1
       1       8       1       1       8       1       1       8       1       1
       8       1       1       8       1       1       8       1       1       8
       1       1       8       1       1       8       1       1       8       1
       1       8       1       1       8       1       1       8       1       1
       8       1       1       8       1       1       8       1       1       8
       1       1       8       1       1       8       1       1       8       1
       1       8       1       1       8       1       1       8       1       1
       8       1       1       8       1       1       8       1       1       8
       1       1       8       1       1       8       1       1       8       1
       1       8       1       1       8       1       1       8       1       1
       8       1       1       8       1       1       8       1       1       8
       1       1       8       1       1       8       1       1       8       1
       1       8       1       1       8       1       1       8       1       1
       8       1       1       8       1       1       8       1       1       8
       1       1       8       1       1       8       1       1       8       1
       1       8       1       1       8       1       1       8       1       1
       8       1       1       8       1       1       8       1       1       8
       1       1       8       1       1       8       1       1       8       1
       1       8       1       1       8       1       1       8       1       1
       8       1       1       8       1       1       8       1       1       8
       1       1       8       1       1       8       1       1       8       1
       1       8       1       1       8       1       1       8       1       1
       8       1       1       8       1       1       8       1       1       8
       1       1       8       1       1       8       1       1       8       1
       1       8       1       1       8       1       1       8       1       1
       8       1       1       8       1       1       8       1       1       8
       1       1       8       1       1       8       1       1       8       1
       1       8       1       1       8       1       1       8       1       1
       8       1       1       8       1       1       8       1       1       8
       1       1       8       1       1       8       1       1       8       1
       1       8       1       1       8       1       1       8       1       1
       8       1       1       8       1       1       8       1       1       8
       1       1       8       1       1       8       1       1       8       1
       1       8       1       1       8       1       1       8       1       1
       8       1       1       8       1       1       8       1       1       8
       1       1       8       1       1       8       1       1       8       1
       1       8       1       1       8       1       1       8       1       1
       8       1       1       8       1       1       8       1       1       8
       1       1       8       1       1       8       1       1       8       1
       1       8       1       1       8       1       1       8       1       1
       8       1       1       8       1       1       8       1       1       8
       1       1       8       1       1       8       1       1       8       1
       1       8       1       1       8       1       1       8       1       1
       8       1       1       8       1       1       8       1       1       8
       1       1       8       1       1       8       1       1       8       1
       1       8       1       1       8       1       1       8       1       1
       8       1       1       8       1       1       8       1       1       8
       1       1       8       1       1       8       1       1       8       1
       1       8       1       1       8       1       1       8       1       1
       8       1       1       8       1       1       8       1       1       8
       1       1       8       1       1       8       1       1       8       1
       1       8       1       1       8       1       1       8       1       1
       8       1       1       8       1       1       8       1       1       8
       1       1       8       1       1       8       1       1       8       1
       1       8       1       1       8       1       1       8       1       1
       8       1       1       8       1       1       8       1       1       8
       1       1       8       1       1       8       1       1       8       1
       1       8       1       1       8       1       1       8       1       1
       8       1       1       8       1       1       8       1       1       8
       1       1       8       1       1       8       1       1       8       1
       1       8       1       1       8       1       1       8       1       1
       8       1       1       8       1       1       8       1       1       8
       1       1       8       1       1       8       1       1       8       1
       1       8       1       1       8       1       1       8       1       1
       8       1       1       8       1       1       8       1       1       8
       1       1       8       1       1       8       1       1       8       1
       1       8       1       1       8       1       1       8       1       1
       8       1       1       8       1       1       8       1       1       8
       1       1       8       1       1       8       1       1       8       1
       1       8       1       1       8       1       1       8       1       1
       8       1       1       8       1       1       8       1       1       8
       1       1       8       1       1       8       1       1       8       1
       1       8       1       1       8       1       1       8       1       1
       8       1       1       8       1       1       8       1       1       8
       1       1       8       1       1       8       1       1       8       1
       1       8       1       1       8       1       1       8       1       1
       8       1       1       8       1       1       8       1       1       8
       1       1       8       1       1       8       1       1       8       1
       1       8       1       1       8       1       1       8       1       1
       8       1       1       8       1       1       8       1       1       8
       1       1       8       1       1       8       1       1       8       1
       1       8       1       1       8       1       1       8       1       1
       8       1       1       8       1       1       8       1       1       8
       1       1       8       1       1       8       1       1       8       1
       1       8       1       1       8       1       1       8       1       1
       8       1       1       8       1       1       8       1       1       8
       1       1       8       1       1       8       1       1       8       1
       1       8       1       1       8       1       1       8       1       1
       8       1       1       8       1       1       8       1       1       8
       1       1       8       1       1       8       1       1       8       1
       1       8       1       1       8       1       1       8       1       1
       8       1       1       8       1       1       8       1       1       8
       1       1       8       1       1       8       1       1       8       1
       1       8       1       1       8       1       1       8       1       1
       8       1       1       8       1       1       8       1       1       8
       1       1       8       1       1       8       1       1       8       1
       1       8       1       1       8       1       1       8       1       1
       8       1       1       8       1       1       8       1       1       8
       1       1       8       1       1       8       1       1       8       1
       1       8       1       1       8       1       1       8       1       1
       8       1       1       8       1       1       8       1       1       8
       1       1       8       1       1       8       1       1       8       1
       1       8       1       1       8       1       1       8       1       1
       8       1       1       8       1       1       8       1       1       8
       1       1       8       1       1       8       1       1       8       1
       1       8       1       1       8       1       1       8       1       1
       8       1       1       8       1       1       8       1       1       8
       1       1       8       1       1       8       1       1       8       1
       1       8       1       1       8       1       1       8       1       1
       8       1       1       8       1       1       8       1       1       8
       1       1       8       1       1       8       1       1       8       1
       1       8       1       1       8       1       1       8       1       1
       8       1       1       8       1       1       8       1       1       8
       1       1       8       1       1       8       1       1       8       1
       1       8       1       1       8       1       1       8       1       1
       8       1       1       8       1       1       8       1       1       8
       1       1       8       1       1       8       1       1       8       1
       1       8       1       1       8       1       1       8       1       1
       8       1       1       8       1       1       8       1       1       8
       1       1       8       1       1       8       1       1       8       1
       1       8       1       1       8       1       1       8       1       1
       8       1       1       8       1       1       8       1       1       8
       1       1       8       1       1       8       1       1       8       1
       1       8       1       1       8       1       1       8       1       1
       8       1       1       8       1       1       8       1       1       8
       1       1       8       1       1       8       1       1       8       1
       1       8       1       1       8       1       1       8       1       1
       8       1       1       8       1       1       8       1       1       8
       1       1       8       1       1       8       1       1       8       1
       1       8       1       1       8       1       1       8       1       1
       8       1       1       8       1       1       8       1       1       8
       1       1       8       1       1       8       1       1       8       1
       1       8       1       1       8       1       1       8       1       1
       8       1       1       8       1       1       8       1       1       8
       1       1       8       1       1       8       1       1       8       1
       1       8       1       1       8       1       1       8       1       1
       8       1       1       8       1       1       8       1       1       8
       1       1       8       1       1       8       1       1       8       1
       1       8       1       1       8       1       1       8       1       1
       8       1       1       8       1       1       8       1       1       8
       1       1       8       1       1       8       1       1       8       1
       1       8       1       1       8       1       1       8       1       1
       8       1       1       8       1       1       8       1       1       8
       1       1       8       1       1       8       1       1       8       1
       1       8       1       1       8       1       1       8       1       1
       8       1       1       8       1       1       8       1       1       8
       1       1       8       1       1       8       1       1       8       1
       1       8       1       1       8       1       1       8       1       1
       8       1       1       8       1       1       8       1       1       8
       1       1       8       1       1       8       1       1       8       1
       1       8       1       1       8       1       1       8       1       1
       8       1       1       8       1       1       8       1       1       8
       1       1       8       1       1       8       1       1       8       1
       1       8       1       1       8       1       1       8       1       1
       8       1       1       8       1       1       8       1       1       8
       1       1       8       1       1       8       1       1       8       1
       1       8       1       1       8       1       1       8       1       1
       8       1       1       8       1       1       8       1       1       8
       1       1       8       1       1       8       1       1       8       1
       1       8       1       1       8       1       1       8       1       1
       8       1       1       8       1       1       8       1       1       8
       1       1       8       1       1       8       1       1       8       1
       1       8       1       1       8       1       1       8       1       1
       8       1       1       8       1       1       8       1       1       8
       1       1       8       1       1       8       1       1       8       1
       1       8       1       1       8       1       1       8       1       1
       8       1       1       8       1       1       8       1       1       8
       1       1       8       1       1       8       1       1       8       1
       1       8       1       1       8       1       1       8       1       1
       8       1       1       8       1       1       8       1       1       8
       1       1       8       1       1       8       1       1       8       1
       1       8       1       1       8       1       1       8       1       1
       8       1       1       8       1       1       8       1       1       8
       1       1       8       1       1       8       1       1       8       1
       1       8       1       1       8       1       1       8       1       1
       8       1       1       8       1       1       8       1       1       8
       1       1       8       1       1       8       1       1       8       1
       1       8       1       1       8       1       1       8       1       1
       8       1       1       8       1       1       8       1       1       8
       1       1       8       1       1       8       1       1       8       1
       1       8       1       1       8       1       1       8       1       1
       8       1       1       8       1       1       8       1       1       8
       1       1       8       1       1       8       1       1       8       1
       1       8       1       1       8       1       1       8       1       1
       8       1       1       8       1       1       8       1       1       8
       1       1       8       1       1       8       1       1       8       1
       1       8       1       1       8       1       1       8       1       1
       8       1       1       8       1       1       8       1       1       8
       1       1       8       1       1       8       1       1       8       1
       1       8       1       1       8       1       1       8       1       1
       8       1       1       8       1       1       8       1       1       8
       1       1       8       1       1       8       1       1       8       1
       1       8       1       1       8       1       1       8       1       1
       8       1       1       8       1       1       8       1       1       8
       1       1       8       1       1       8       1       1       8       1
       1       8       1       1       8       1       1       8       1       1
       8       1       1       8       1       1       8       1       1       8
       1       1       8       1       1       8       1       1       8       1
       1       8       1       1       8       1       1       8       1       1
       8       1       1       8       1       1       8       1       1       8
       1       1       8       1       1       8       1       1       8       1
       1       8       1       1       8       1       1       8       1       1
       8       1       1       8       1       1       8       1       1       8
       1       1       8       1       1       8       1       1       8       1
       1       8       1       1       8       1       1       8       1       1
       8       1       1       8       1       1       8       1       1       8
       1       1       8       1       1       8       1       1       8       1
       1       8       1       1       8       1       1       8       1       1
       8       1       1       8       1       1       8       1       1       8
       1       1       8       1       1       8       1       1       8       1
       1       8       1       1       8       1       1       8       1       1
       8       1       1       8       1       1       8       1       1       8
       1       1       8       1       1       8       1       1       8       1
       1       8       1       1       8       1       1       8       1       1
       8       1       1       8       1       1       8       1       1       8
       1       1       8       1       1       8       1       1       8       1
       1       8       1       1       8       1       1       8       1       1
       8       1       1       8       1       1       8       1       1       8
       1       1       8       1       1       8       1       1       8       1
       1       8       1       1       8       1       1       8       1       1
       8       1       1       8       1       1       8       1       1       8
       1       1       8       1       1       8       1       1       8       1
       1       8       1       1       8       1       1       8       1       1
       8       1       1       8       1       1       8       1       1       8
       1       1       8       1       1       8       1       1       8       1
       1       8       1       1       8       1       1       8       1       1
       8       1       1       8       1       1       8       1       1       8
       1       1       8       1       1       8       1       1       8       1
       1       8       1       1       8       1       1       8       1       1
       8       1       1       8       1       1       8       1       1       8
       1       1       8       1       1       8       1       1       8       1
       1       8       1       1       8       1       1       8       1       1
       8       1       1       8       1       1       8       1       1       8
       1       1       8       1       1       8       1       1       8       1
       1       8       1       1       8       1       1       8       1       1
       8       1       1       8       1       1       8       1       1       8
       1       1       8       1       1       8       1       1       8       1
       1       8       1       1       8       1       1       8       1       1
       8       1       1       8       1       1       8       1       1       8
       1       1       8       1       1       8       1       1       8       1
       1       8       1       1       8       1       1       8       1       1
       8       1       1       8       1       1       8       1       1       8
       1       1       8       1       1       8       1       1       8       1
       1       8       1       1       8       1       1       8       1       1
       8       1       1       8       1       1       8       1       1       8
       1       1       8       1       1       8       1       1       8       1
       1       8       1       1       8       1       1       8       1       1
       8       1       1       8       1       1       8       1       1       8
       1       1       8       1       1       8       1       1       8       1
       1       8       1       1       8       1       1       8       1       1
       8       1       1       8       1       1       8       1       1       8
       1       1       8       1       1       8       1       1       8       1
       1       8       1       1       8       1       1       8       1       1
       8       1       1       8       1       1       8       1       1       8
       1       1       8       1       1       8       1       1       8       1
       1       8       1       1       8       1       1       8       1       1
       8       1       1       8       1       1       8       1       1       8
       1       1       8       1       1       8       1       1       8       1
       1       8       1       1       8       1       1       8       1       1
       8       1       1       8       1       1       8       1       1       8
       1       1       8       1       1       8       1       1       8       1
       1       8       1       1       8       1       1       8       1       1
       8       1       1       8       1       1       8       1       1       8
       1       1       8       1       1       8       1       1       8       1
       1       8       1       1       8       1       1       8       1       1
       8       1       1       8       1       1       8       1       1       8
       1       1       8       1       1       8       1       1       8       1
       1       8       1       1       8       1       1       8       1       1
       8       1       1       8       1       1       8       1       1       8
       1       1       8       1       1       8       1       1       8       1
       1       8       1       1       8       1       1       8       1       1
       8       1       1       8       1       1       8       1       1       8
       1       1       8       1       1       8       1       1       8       1
       1       8       1       1       8       1       1       8       1       1
       8       1       1       8       1       1       8       1       1       8
       1       1       8       1       1       8       1       1       8       1
       1       8       1       1       8       1       1       8       1       1
       8       1       1       8       1       1       8       1       1       8
       1       1       8       1       1       8       1       1       8       1
       1       8       1       1       8       1       1       8       1       1
       8       1       1       8       1       1       8       1       1       8
       1       1       8       1       1       8       1       1       8       1
       1       8       1       1       8       1       1       8       1       1
       8       1       1       8       1       1       8       1       1       8
       1       1       8       1       1       8       1       1       8       1
       1       8       1       1       8       1       1       8       1       1
       8       1       1       8       1       1       8       1       1       8
       1       1       8       1       1       8       1       1       8       1
       1       8       1       1       8       1       1       8       1       1
       8       1       1       8       1       1       8       1       1       8
       1       1       8       1       1       8       1       1       8       1
       1       8       1       1       8       1       1       8       1       1
       8       1       1       8       1       1       8       1       1       8
       1       1       8       1       1       8       1       1       8       1
       1       8       1       1       8       1       1       8       1       1
       8       1       1       8       1       1       8       1       1       8
       1       1       8       1       1       8       1       1       8       1
       1       8       1       1       8       1       1       8       1       1
       8       1       1       8       1       1       8       1       1       8
       1       1       8       1       1       8       1       1       8       1
       1       8       1       1       8       1       1       8       1       1
       8       1       1       8       1       1       8       1       1       8
       1       1       8       1       1       8       1       1       8       1
       1       8       1       1       8       1       1       8       1       1
       8       1       1       8       1       1       8       1       1       8
       1       1       8       1       1       8       1       1       8       1
       1       8       1       1       8       1       1       8       1       1
       8       1       1       8       1       1       8       1       1       8
       1       1       8       1       1       8       1       1       8       1
       1       8       1       1       8       1       1       8       1       1
       8       1       1       8       1       1       8       1       1       8
       1       1       8       1       1       8       1       1       8       1
       1       8       1       1       8       1       1       8       1       1
       8       1       1       8       1       1       8       1       1       8
       1       1       8       1       1       8       1       1       8       1
       1       8       1       1       8       1       1       8       1       1
       8       1       1       8       1       1       8       1       1       8
       1       1       8       1       1       8       1       1       8       1
       1       8       1       1       8       1       1       8       1       1
       8       1       1       8       1       1       8       1       1       8
       1       1       8       1       1       8       1       1       8       1
       1       8       1       1       8       1       1       8       1       1
       8       1       1       8       1       1       8       1       1       8
       1       1       8       1       1       8       1       1       8       1
       1       8       1       1       8       1       1       8       1       1
       8       1       1       8       1       1       8       1       1       8
       1       1       8       1       1       8       1       1       8       1
       1       8       1       1       8       1       1       8       1       1
       8       1       1       8       1       1       8       1       1       8
       1       1       8       1       1       8       1       1       8       1
       1       8       1       1       8       1       1       8       1       1
       8       1       1       8       1       1       8       1       1       8
       1       1       8       1       1       8       1       1       8       1
       1       8       1       1       8       1       1       8       1       1
       8       1       1       8       1       1       8       1       1       8
       1       1       8       1       1       8       1       1       8       1
       1       8       1       1       8       1       1       8       1       1
       8       1       1       8       1       1       8       1       1       8
       1       1       8       1       1       8       1       1       8       1
       1       8       1       1       8       1       1       8       1       1
       8       1       1       8       1       1       8       1       1       8
       1       1       8       1       1       8       1       1       8       1
       1       8       1       1       8       1       1       8       1       1
       8       1       1       8       1       1       8       1       1       8
       1       1       8       1       1       8       1       1       8       1
       1       8       1       1       8       1       1       8       1       1
       8       1       1       8       1       1       8       1       1       8
       1       1       8       1       1       8       1       1       8       1
       1       8       1       1       8       1       1       8       1       1
       8       1       1       8       1       1       8       1       1       8
       1       1       8       1       1       8       1       1       8       1
       1       8       1       1       8       1       1       8       1       1
       8       1       1       8       1       1       8       1       1       8
       1       1       8       1       1       8       1       1       8       1
       1       8       1       1       8       1       1       8       1       1
       8       1       1       8       1       1       8       1       1       8
       1       1       8       1       1       8       1       1       8       1
       1       8       1       1       8       1       1       8       1       1
       8       1       1       8       1       1       8       1       1       8
       1       1       8       1       1       8       1       1       8       1
       1       8       1       1       8       1       1       8       1       1
       8       1       1       8       1       1       8       1       1       8
       1       1       8       1       1       8       1       1       8       1
       1       8       1       1       8       1       1       8       1       1
       8       1       1       8       1       1       8       1       1       8
       1       1       8       1       1       8       1       1       8       1
       1       8       1       1       8       1       1       8       1       1
       8       1       1       8       1       1       8       1       1       8
       1       1       8       1       1       8       1       1       8       1
       1       8       1       1       8       1       1       8       1       1
       8       1       1       8       1       1       8       1       1       8
       1       1       8       1       1       8       1       1       8       1
       1       8       1       1       8       1       1       8       1       1
       8       1       1       8       1       1       8       1       1       8
       1       1       8       1       1       8       1       1       8       1
       1       8       1       1       8       1       1       8       1       1
       8       1       1       8       1       1       8       1       1       8
       1       1       8       1       1       8       1       1       8       1
       1       8       1       1       8       1       1       8       1       1
       8       1       1       8       1       1       8       1       1       8
       1       1       8       1       1       8       1       1       8       1
       1       8       1       1       8       1       1       8       1       1
       8       1       1       8       1       1       8       1       1       8
       1       1       8       1       1       8       1       1       8       1
       1       8       1       1       8       1       1       8       1       1
       8       1       1       8       1       1       8       1       1       8
       1       1       8       1       1       8       1       1       8       1
       1       8       1       1       8       1       1       8       1       1
       8       1       1       8       1       1       8       1       1       8
       1       1       8       1       1       8       1       1       8       1
       1       8       1       1       8       1       1       8       1       1
       8       1       1       8       1       1       8       1       1       8
       1       1       8       1       1       8       1       1       8       1
       1       8       1       1       8       1       1       8       1       1
       8       1       1       8       1       1       8       1       1       8
       1       1       8       1       1       8       1       1       8       1
       1       8       1       1       8       1       1       8       1       1
       8       1       1       8       1       1       8       1       1       8
       1       1       8       1       1       8       1       1       8       1
       1       8       1       1       8       1       1       8       1       1
       8       1       1       8       1       1       8       1       1       8
       1       1       8       1       1       8       1       1       8       1
       1       8       1       1       8       1       1       8       1       1
       8       1       1       8       1       1       8       1       1       8
       1       1       8       1       1       8       1       1       8       1
       1       8       1       1       8       1       1       8       1       1
       8       1       1       8       1       1       8       1       1       8
       1       1       8       1       1       8       1       1       8       1
       1       8       1       1       8       1       1       8       1       1
       8       1       1       8       1       1       8       1       1       8
       1       1       8       1       1       8       1       1       8       1
       1       8       1       1       8       1       1       8       1       1
       8       1       1       8       1       1       8       1       1       8
       1       1       8       1       1       8       1       1       8       1
       1       8       1       1       8       1       1       8       1       1
       8       1       1       8       1       1       8       1       1       8
       1       1       8       1       1       8       1       1       8       1
       1       8       1       1       8       1       1       8       1       1
       8       1       1       8       1       1       8       1       1       8
       1       1       8       1       1       8       1       1       8       1
       1       8       1       1       8       1       1       8       1       1
       8       1       1       8       1       1       8       1       1       8
       1       1       8       1       1       8       1       1       8       1
       1       8       1       1       8       1       1       8       1       1
       8       1       1       8       1       1       8       1       1       8
       1       1       8       1       1       8       1       1       8       1
       1       8       1       1       8       1       1       8       1       1
       8       1       1       8       1       1       8       1       1       8
       1       1       8       1       1       8       1       1       8       1
       1       8       1       1       8       1       1       8       1       1
       8       1       1       8       1       1       8       1       1       8
       1       1       8       1       1       8       1       1       8       1
       1       8       1       1       8       1       1       8       1       1
       8       1       1       8       1       1       8       1       1       8
       1       1       8       1       1       8       1       1       8       1
       1       8       1       1       8       1       1       8       1       1
       8       1       1       8       1       1       8       1       1       8
       1       1       8       1       1       8       1       1       8       1
       1       8       1       1       8       1       1       8       1       1
       8       1       1       8       1       1       8       1       1       8
       1       1       8       1       1       8       1       1       8       1
       1       8       1       1       8       1       1       8       1       1
       8       1       1       8       1       1       8       1       1       8
       1       1       8       1       1       8       1       1       8       1
       1       8       1       1       8       1       1       8       1       1
       8       1       1       8       1       1       8       1       1       8
       1       1       8       1       1       8       1       1       8       1
       1       8       1       1       8       1       1       8       1       1
       8       1       1       8       1       1       8       1       1       8
       1       1       8       1       1       8       1       1       8       1
       1       8       1       1       8       1       1       8       1       1
       8       1       1       8       1       1       8       1       1       8
       1       1       8       1       1       8       1       1       8       1
       1       8       1       1       8       1       1       8       1       1
       8       1       1       8       1       1       8       1       1       8
       1       1       8       1       1       8       1       1       8       1
       1       8       1       1       8       1       1       8       1       1
       8       1       1       8       1       1       8       1       1       8
       1       1       8       1       1       8       1       1       8       1
       1       8       1       1       8       1       1       8       1       1
       8       1       1       8       1       1       8       1       1       8
       1       1       8       1       1       8       1       1       8       1
       1       8       1       1       8       1       1       8       1       1
       8       1       1       8       1       1       8       1       1       8
       1       1       8       1       1       8       1       1       8       1
       1       8       1       1       8       1       1       8       1       1
       8       1       1       8       1       1       8       1       1       8
       1       1       8       1       1       8       1       1       8       1
       1       8       1       1       8       1       1       8       1       1
       8       1       1       8       1       1       8       1       1       8
       1       1       8       1       1       8       1       1       8       1
       1       8       1       1       8       1       1       8       1       1
       8       1       1       8       1       1       8       1       1       8
       1       1       8       1       1       8       1       1       8       1
       1       8       1       1       8       1       1       8       1       1
       8       1       1       8       1       1       8       1       1       8
       1       1       8       1       1       8       1       1       8       1
       1       8       1       1       8       1       1       8       1       1
       8       1       1       8       1       1       8       1       1       8
       1       1       8       1       1       8       1       1       8       1
       1       8       1       1       8       1       1       8       1       1
       8       1       1       8       1       1       8       1       1       8
       1       1       8       1       1       8       1       1       8       1
       1       8       1       1       8       1       1       8       1       1
       8       1       1       8       1       1       8       1       1       8
       1       1       8       1       1       8       1       1       8       1
       1       8       1       1       8       1       1       8       1       1
       8       1       1       8       1       1       8       1       1       8
       1       1       8       1       1       8       1       1       8       1
       1       8       1       1       8       1       1       8       1       1
       8       1       1       8       1       1       8       1       1       8
       1       1       8       1       1       8       1       1       8       1
       1       8       1       1       8       1       1       8       1       1
       8       1       1       8       1       1       8       1       1       8
       1       1       8       1       1       8       1       1       8       1
       1       8       1       1       8       1       1       8       1       1
       8       1       1       8       1       1       8       1       1       8
       1       1       8       1       1       8       1       1       8       1
       1       8       1       1       8       1       1       8       1       1
       8       1       1       8       1       1       8       1       1       8
       1       1       8       1       1       8       1       1       8       1
       1       8       1       1       8       1       1       8       1       1
       8       1       1       8       1       1       8       1       1       8
       1       1       8       1       1       8       1       1       8       1
       1       8       1       1       8       1       1       8       1       1
       8       1       1       8       1       1       8       1       1       8
       1       1       8       1       1       8       1       1       8       1
       1       8       1       1       8       1       1       8       1       1
       8       1       1       8       1       1       8       1       1       8
       1       1       8       1       1       8       1       1       8       1
       1       8       1       1       8       1       1       8       1       1
       8       1       1       8       1       1       8       1       1       8
       1       1       8       1       1       8       1       1       8       1
       1       8       1       1       8       1       1       8       1       1
       8       1       1       8       1       1       8       1       1       8
       1       1       8       1       1       8       1       1       8       1
       1       8       1       1       8       1       1       8       1       1
       8       1       1       8       1       1       8       1       1       8
       1       1       8       1       1       8       1       1       8       1
       1       8       1       1       8       1       1       8       1       1
       8       1       1       8       1       1       8       1       1       8
       1       1       8       1       1       8       1       1       8       1
       1       8       1       1       8       1       1       8       1       1
       8       1       1       8       1       1       8       1       1       8
       1       1       8       1       1       8       1       1       8       1
       1       8       1       1       8       1       1       8       1       1
       8       1       1       8       1       1       8       1       1       8
       1       1       8       1       1       8       1       1       8       1
       1       8       1       1       8       1       1       8       1       1
       8       1       1       8       1       1       8       1       1       8
       1       1       8       1       1       8       1       1       8       1
       1       8       1       1       8       1       1       8       1       1
       8       1       1       8       1       1       8       1       1       8
       1       1       8       1       1       8       1       1       8       1
       1       8       1       1       8       1       1       8       1       1
       8       1       1       8       1       1       8       1       1       8
       1       1       8       1       1       8       1       1       8       1
       1       8       1       1       8       1       1       8       1       1
       8       1       1       8       1       1       8       1       1       8
       1       1       8       1       1       8       1       1       8       1
       1       8       1       1       8       1       1       8       1       1
       8       1       1       8       1       1       8       1       1       8
       1       1       8       1       1       8       1       1       8       1
       1       8       1       1       8       1       1       8       1       1
       8       1       1       8       1       1       8       1       1       8
       1       1       8       1       1       8       1       1       8       1
       1       8       1       1       8       1       1       8       1       1
       8       1       1       8       1       1       8       1       1       8
       1       1       8       1       1       8       1       1       8       1
       1       8       1       1       8       1       1       8       1       1
       8       1       1       8       1       1       8       1       1       8
       1       1       8       1       1       8       1       1       8       1
       1       8       1       1       8       1       1       8       1       1
       8       1       1       8       1       1       8       1       1       8
       1       1       8       1       1       8       1       1       8       1
       1       8       1       1       8       1       1       8       1       1
       8       1       1       8       1       1       8       1       1       8
       1       1       8       1       1       8       1       1       8       1
       1       8       1       1       8       1       1       8       1       1
       8       1       1       8       1       1       8       1       1       8
       1       1       8       1       1       8       1       1       8       1
       1       8       1       1       8       1       1       8       1       1
       8       1       1       8       1       1       8       1       1       8
       1       1       8       1       1       8       1       1       8       1
       1       8       1       1       8       1       1       8       1       1
       8       1       1       8       1       1       8       1       1       8
       1       1       8       1       1       8       1       1       8       1
       1       8       1       1       8       1       1       8       1       1
       8       1       1       8       1       1       8       1       1       8
       1       1       8       1       1       8       1       1       8       1
       1       8       1       1       8       1       1       8       1       1
       8       1       1       8       1       1       8       1       1       8
       1       1       8       1       1       8       1       1       8       1
       1       8       1       1       8       1       1       8       1       1
       8       1       1       8       1       1       8       1       1       8
       1       1       8       1       1       8       1       1       8       1
       1       8       1       1       8       1       1       8       1       1
       8       1       1       8       1       1       8       1       1       8
       1       1       8       1       1       8       1       1       8       1
       1       8       1       1       8       1       1       8       1       1
       8       1       1       8       1       1       8       1       1       8
       1       1       8       1       1       8       1       1       8       1
       1       8       1       1       8       1       1       8       1       1
       8       1       1       8       1       1       8       1       1       8
       1       1       8       1       1       8       1       1       8       1
       1       8       1       1       8       1       1       8       1       1
       8       1       1       8       1       1       8       1       1       8
       1       1       8       1       1       8       1       1       8       1
       1       8       1       1       8       1       1       8       1       1
       8       1       1       8       1       1       8       1       1       8
       1       1       8       1       1       8       1       1       8       1
       1       8       1       1       8       1       1       8       1       1
       8       1       1       8       1       1       8       1       1       8
       1       1       8       1       1       8       1       1       8       1
       1       8       1       1       8       1       1       8       1       1
       8       1       1       8       1       1       8       1       1       8
       1       1       8       1       1       8       1       1       8       1
       1       8       1       1       8       1       1       8       1       1
       8       1       1       8       1       1       8       1       1       8
       1       1       8       1       1       8       1       1       8       1
       1       8       1       1       8       1       1       8       1       1
       8       1       1       8       1       1       8       1       1       8
       1       1       8       1       1       8       1       1       8       1
       1       8       1       1       8       1       1       8       1       1
       8       1       1       8       1       1       8       1       1       8
       1       1       8       1       1       8       1       1       8       1
       1       8       1       1       8       1       1       8       1       1
       8       1       1       8       1       1       8       1       1       8
       1       1       8       1       1       8       1       1       8       1
       1       8       1       1       8       1       1       8       1       1
       8       1       1       8       1       1       8       1       1       8
       1       1       8       1       1       8       1       1       8       1
       1       8       1       1       8       1       1       8       1       1
       8       1       1       8       1       1       8       1       1       8
       1       1       8       1       1       8       1       1       8       1
       1       8       1       1       8       1       1       8       1       1
       8       1       1       8       1       1       8       1       1       8
       1       1       8       1       1       8       1       1       8       1
       1       8       1       1       8       1       1       8       1       1
       8       1       1       8       1       1       8       1       1       8
       1       1       8       1       1       8       1       1       8       1
       1       8       1       1       8       1       1       8       1       1
       8       1       1       8       1       1       8       1       1       8
       1       1       8       1       1       8       1       1       8       1
       1       8       1       1       8       1       1       8       1       1
       8       1       1       8       1       1       8       1       1       8
       1       1       8       1       1       8       1       1       8       1
       1       8       1       1       8       1       1       8       1       1
       8       1       1       8       1       1       8       1       1       8
       1       1       8       1       1       8       1       1       8       1
       1       8       1       1       8       1       1       8       1       1
       8       1       1       8       1       1       8       1       1       8
       1       1       8       1       1       8       1       1       8       1
       1       8       1       1       8       1       1       8       1       1
       8       1       1       8       1       1       8       1       1       8
       1       1       8       1       1       8       1       1       8       1
       1       8       1       1       8       1       1       8       1       1
       8       1       1       8       1       1       8       1       1       8
       1       1       8       1       1       8       1       1       8       1
       1       8       1       1       8       1       1       8       1       1
       8       1       1       8       1       1       8       1       1       8
       1       1       8       1       1       8       1       1       8       1
       1       8       1       1       8       1       1       8       1       1
       8       1       1       8       1       1       8       1       1       8
       1       1       8       1       1       8       1       1       8       1
       1       8       1       1       8       1       1       8       1       1
       8       1       1       8       1       1       8       1       1       8
       1       1       8       1       1       8       1       1       8       1
       1       8       1       1       8       1       1       8       1       1
       8       1       1       8       1       1       8       1       1       8
       1       1       8       1       1       8       1       1       8       1
       1       8       1       1       8       1       1       8       1       1
       8       1       1       8       1       1       8       1       1       8
       1       1       8       1       1       8       1       1       8       1
       1       8       1       1       8       1       1       8       1       1
       8       1       1       8       1       1       8       1       1       8
       1       1       8       1       1       8       1       1       8       1
       1       8       1       1       8       1       1       8       1       1
       8       1       1       8       1       1       8       1       1       8
       1       1       8       1       1       8       1       1       8       1
       1       8       1       1       8       1       1       8       1       1
       8       1       1       8       1       1       8       1       1       8
       1       1       8       1       1       8       1       1       8       1
       1       8       1       1       8       1       1       8       1       1
       8       1       1       8       1       1       8       1       1       8
       1       1       8       1       1       8       1       1       8       1
       1       8       1       1       8       1       1       8       1       1
       8       1       1       8       1       1       8       1       1       8
       1       1       8       1       1       8       1       1       8       1
       1       8       1       1       8       1       1       8       1       1
       8       1       1       8       1       1       8       1       1       8
       1       1       8       1       1       8       1       1       8       1
       1       8       1       1       8       1       1       8       1       1
       8       1       1       8       1       1       8       1       1       8
       1       1       8       1       1       8       1       1       8       1
       1       8       1       1       8       1       1       8       1       1
       8       1       1       8       1       1       8       1       1       8
       1       1       8       1       1       8       1       1       8       1
       1       8       1       1       8       1       1       8       1       1
       8       1       1       8       1       1       8       1       1       8
       1       1       8       1       1       8       1       1       8       1
       1       8       1       1       8       1       1       8       1       1
       8       1       1       8       1       1       8       1       1       8
       1       1       8       1       1       8       1       1       8       1
       1       8       1       1       8       1       1       8       1       1
       8       1       1       8       1       1       8       1       1       8
       1       1       8       1       1       8       1       1       8       1
       1       8       1       1       8       1       1       8       1       1
       8       1       1       8       1       1       8       1       1       8
       1       1       8       1       1       8       1       1       8       1
       1       8       1       1       8       1       1       8       1       1
       8       1       1       8       1       1       8       1       1       8
       1       1       8       1       1       8       1       1       8       1
       1       8       1       1       8       1       1       8       1       1
       8       1       1       8       1       1       8       1       1       8
       1       1       8       1       1       8       1       1       8       1
       1       8       1       1       8       1       1       8       1       1
       8       1       1       8       1       1       8       1       1       8
       1       1       8       1       1       8       1       1       8       1
       1       8       1       1       8       1       1       8       1       1
       8       1       1       8       1       1       8       1       1       8
       1       1       8       1       1       8       1       1       8       1
       1       8       1       1       8       1       1       8       1       1
       8       1       1       8       1       1       8       1       1       8
       1       1       8       1       1       8       1       1       8       1
       1       8       1       1       8       1       1       8       1       1
       8       1       1       8       1       1       8       1       1       8
       1       1       8       1       1       8       1       1       8       1
       1       8       1       1       8       1       1       8       1       1
       8       1       1       8       1       1       8       1       1       8
       1       1       8       1       1       8       1       1       8       1
       1       8       1       1       8       1       1       8       1       1
       8       1       1       8       1       1       8       1       1       8
       1       1       8       1       1       8       1       1       8       1
       1       8       1       1       8       1       1       8       1       1
       8       1       1       8       1       1       8       1       1       8
       1       1       8       1       1       8       1       1       8       1
       1       8       1       1       8       1       1       8       1       1
       8       1       1       8       1       1       8       1       1       8
       1       1       8       1       1       8       1       1       8       1
       1       8       1       1       8       1       1       8       1       1
       8       1       1       8       1       1       8       1       1       8
       1       1       8       1       1       8       1       1       8       1
       1       8       1       1       8       1       1       8       1       1
       8       1       1       8       1       1       8       1       1       8
       1       1       8       1       1       8       1       1       8       1
       1       8       1       1       8       1       1       8       1       1
       8       1       1       8       1       1       8       1       1       8
       1       1       8       1       1       8       1       1       8       1
       1       8       1       1       8       1       1       8       1       1
       8       1       1       8       1       1       8       1       1       8
       1       1       8       1       1       8       1       1       8       1
       1       8       1       1       8       1       1       8       1       1
       8       1       1       8       1       1       8       1       1       8
       1       1       8       1       1       8       1       1       8       1
       1       8       1       1       8       1       1       8       1       1
       8       1       1       8       1       1       8       1       1       8
       1       1       8       1       1       8       1       1       8       1
       1       8       1       1       8       1       1       8       1       1
       8       1       1       8       1       1       8       1       1       8
       1       1       8       1       1       8       1       1       8       1
       1       8       1       1       8       1       1       8       1       1
       8       1       1       8       1       1       8       1       1       8
       1       1       8       1       1       8       1       1       8       1
       1       8       1       1       8       1       1       8       1       1
       8       1       1       8       1       1       8       1       1       8
       1       1       8       1       1       8       1       1       8       1
       1       8       1       1       8       1       1       8       1       1
       8       1       1       8       1       1       8       1       1       8
       1       1       8       1       1       8       1       1       8       1
       1       8       1       1       8       1       1       8       1       1
       8       1       1       8       1       1       8       1       1       8
       1       1       8       1       1       8       1       1       8       1
       1       8       1       1       8       1       1       8       1       1
       8       1       1       8       1       1       8       1       1       8
       1       1       8       1       1       8       1       1       8       1
       1       8       1       1       8       1       1       8       1       1
       8       1       1       8       1       1       8       1       1       8
       1       1       8       1       1       8       1       1       8       1
       1       8       1       1       8       1       1       8       1       1
       8       1       1       8       1       1       8       1       1       8
       1       1       8       1       1       8       1       1       8       1
       1       8       1       1       8       1       1       8       1       1
       8       1       1       8       1       1       8       1       1       8
       1       1       8       1       1       8       1       1       8       1
       1       8       1       1       8       1       1       8       1       1
       8       1       1       8       1       1       8       1       1       8
       1       1       8       1       1       8       1       1       8       1
       1       8       1       1       8       1       1       8       1       1
       8       1       1       8       1       1       8       1       1       8
       1       1       8       1       1       8       1       1       8       1
       1       8       1       1       8       1       1       8       1       1
       8       1       1       8       1       1       8       1       1       8
       1       1       8       1       1       8       1       1       8       1
       1       8       1       1       8       1       1       8       1       1
       8       1       1       8       1       1       8       1       1       8
       1       1       8       1       1       8       1       1       8       1
       1       8       1       1       8       1       1       8       1       1
       8       1       1       8       1       1       8       1       1       8
       1       1       8       1       1       8       1       1       8       1
       1       8       1       1       8       1       1       8       1       1
       8       1       1       8       1       1       8       1       1       8
       1       1       8       1       1       8       1       1       8       1
       1       8       1       1       8       1       1       8       1       1
       8       1       1       8       1       1       8       1       1       8
       1       1       8       1       1       8       1       1       8       1
       1       8       1       1       8       1       1       8       1       1
       8       1       1       8       1       1       8       1       1       8
       1       1       8       1       1       8       1       1       8       1
       1       8       1       1       8       1       1       8       1       1
       8       1       1       8       1       1       8       1       1       8
       1       1       8       1       1       8       1       1       8       1
       1       8       1       1       8       1       1       8       1       1
       8       1       1       8       1       1       8       1       1       8
       1       1       8       1       1       8       1       1       8       1
       1       8       1       1       8       1       1       8       1       1
       8       1       1       8       1       1       8       1       1       8
       1       1       8       1       1       8       1       1       8       1
       1       8       1       1       8       1       1       8       1       1
       8       1       1       8       1       1       8       1       1       8
       1       1       8       1       1       8       1       1       8       1
       1       8       1       1       8       1       1       8       1       1
       8       1       1       8       1       1       8       1       1       8
       1       1       8       1       1       8       1       1       8       1
       1       8       1       1       8       1       1       8       1       1
       8       1       1       8       1       1       8       1       1       8
       1       1       8       1       1       8       1       1       8       1
       1       8       1       1       8       1       1       8       1       1
       8       1       1       8       1       1       8       1       1       8
       1       1       8       1       1       8       1       1       8       1
       1       8       1       1       8       1       1       8       1       1
       8       1       1       8       1       1       8       1       1       8
       1       1       8       1       1       8       1       1       8       1
       1       8       1       1       8       1       1       8       1       1
       8       1       1       8       1       1       8       1       1       8
       1       1       8       1       1       8       1       1       8       1
       1       8       1       1       8       1       1       8       1       1
       8       1       1       8       1       1       8       1       1       8
       1       1       8       1       1       8       1       1       8       1
       1       8       1       1       8       1       1       8       1       1
       8       1       1       8       1       1       8       1       1       8
       1       1       8       1       1       8       1       1       8       1
       1       8       1       1       8       1       1       8       1       1
       8       1       1       8       1       1       8       1       1       8
       1       1       8       1       1       8       1       1       8       1
       1       8       1       1       8       1       1       8       1       1
       8       1       1       8       1       1       8       1       1       8
       1       1       8       1       1       8       1       1       8       1
       1       8       1       1       8       1       1       8       1       1
       8       1       1       8       1       1       8       1       1       8
       1       1       8       1       1       8       1       1       8       1
       1       8       1       1       8       1       1       8       1       1
       8       1       1       8       1       1       8       1       1       8
       1       1       8       1       1       8       1       1       8       1
       1       8       1       1       8       1       1       8       1       1
       8       1       1       8       1       1       8       1       1       8
       1       1       8       1       1       8       1       1       8       1
       1       8       1       1       8       1       1       8       1       1
       8       1       1       8       1       1       8       1       1       8
       1       1       8       1       1       8       1       1       8       1
       1       8       1       1       8       1       1       8       1       1
       8       1       1       8       1       1       8       1       1       8
       1       1       8       1       1       8       1       1       8       1
       1       8       1       1       8       1       1       8       1       1
       8       1       1       8       1       1       8       1       1       8
       1       1       8       1       1       8       1       1       8       1
       1       8       1       1       8       1       1       8       1       1
       8       1       1       8       1       1       8       1       1       8
       1       1       8       1       1       8       1       1       8       1
       1       8       1       1       8       1       1       8       1       1
       8       1       1       8       1       1       8       1       1       8
       1       1       8       1       1       8       1       1       8       1
       1       8       1       1       8       1       1       8       1       1
       8       1       1       8       1       1       8       1       1       8
       1       1       8       1       1       8       1       1       8       1
       1       8       1       1       8       1       1       8       1       1
       8       1       1       8       1       1       8       1       1       8
       1       1       8       1       1       8       1       1       8       1
       1       8       1       1       8       1       1       8       1       1
       8       1       1       8       1       1       8       1       1       8
       1       1       8       1       1       8       1       1       8       1
       1       8       1       1       8       1       1       8       1       1
       8       1       1       8       1       1       8       1       1       8
       1       1       8       1       1       8       1       1       8       1
       1       8       1       1       8       1       1       8       1       1
       8       1       1       8       1       1       8       1       1       8
       1       1       8       1       1       8       1       1       8       1
       1       8       1       1       8       1       1       8       1       1
       8       1       1       8       1       1       8       1       1       8
       1       1       8       1       1       8       1       1       8       1
       1       8       1       1       8       1       1       8       1       1
       8       1       1       8       1       1       8       1       1       8
       1       1       8       1       1       8       1       1       8       1
       1       8       1       1       8       1       1       8       1       1
       8       1       1       8       1       1       8       1       1       8
       1       1       8       1       1       8       1       1       8       1
       1       8       1       1       8       1       1       8       1       1
       8       1       1       8       1       1       8       1       1       8
       1       1       8       1       1       8       1       1       8       1
       1       8       1       1       8       1       1       8       1       1
       8       1       1       8       1       1       8       1       1       8
       1       1       8       1       1       8       1       1       8       1
       1       8       1       1       8       1       1       8       1       1
       8       1       1       8       1       1       8       1       1       8
       1       1       8       1       1       8       1       1       8       1
       1       8       1       1       8       1       1       8       1       1
       8       1       1       8       1       1       8       1       1       8
       1       1       8       1       1       8       1       1       8       1
       1       8       1       1       8       1       1       8       1       1
       8       1       1       8       1       1       8       1       1       8
       1       1       8       1       1       8       1       1       8       1
       1       8       1       1       8       1       1       8       1       1
       8       1       1       8       1       1       8       1       1       8
       1       1       8       1       1       8       1       1       8       1
       1       8       1       1       8       1       1       8       1       1
       8       1       1       8       1       1       8       1       1       8
       1       1       8       1       1       8       1       1       8       1
       1       8       1       1       8       1       1       8       1       1
       8       1       1       8       1       1       8       1       1       8
       1       1       8       1       1       8       1       1       8       1
       1       8       1       1       8       1       1       8       1       1
       8       1       1       8       1       1       8       1       1       8
       1       1       8       1       1       8       1       1       8       1
       1       8       1       1       8       1       1       8       1       1
       8       1       1       8       1       1       8       1       1       8
       1       1       8       1       1       8       1       1       8       1
       1       8       1       1       8       1       1       8       1       1
       8       1       1       8       1       1       8       1       1       8
       1       1       8       1       1       8       1       1       8       1
       1       8       1       1       8       1       1       8       1       1
       8       1       1       8       1       1       8       1       1       8
       1       1       8       1       1       8       1       1       8       1
       1       8       1       1       8       1       1       8       1       1
       8       1       1       8       1       1       8       1       1       8
       1       1       8       1       1       8       1       1       8       1
       1       8       1       1       8       1       1       8       1       1
       8       1       1       8       1       1       8       1       1       8
       1       1       8       1       1       8       1       1       8       1
       1       8       1       1       8       1       1       8       1       1
       8       1       1       8       1       1       8       1       1       8
       1       1       8       1       1       8       1       1       8       1
       1       8       1       1       8       1       1       8       1       1
       8       1       1       8       1       1       8       1       1       8
       1       1       8       1       1       8       1       1       8       1
       1       8       1       1       8       1       1       8       1       1
       8       1       1       8       1       1       8       1       1       8
       1       1       8       1       1       8       1       1       8       1
       1       8       1       1       8       1       1       8       1       1
       8       1       1       8       1       1       8       1       1       8
       1       1       8       1       1       8       1       1       8       1
       1       8       1       1       8       1       1       8       1       1
       8       1       1       8       1       1       8       1       1       8
       1       1       8       1       1       8       1       1       8       1
       1       8       1       1       8       1       1       8       1       1
       8       1       1       8       1       1       8       1       1       8
       1       1       8       1       1       8       1       1       8       1
       1       8       1       1       8       1       1       8       1       1
       8       1       1       8       1       1       8       1       1       8
       1       1       8       1       1       8       1       1       8       1
       1       8       1       1       8       1       1       8       1       1
       8       1       1       8       1       1       8       1       1       8
       1       1       8       1       1       8       1       1       8       1
       1       8       1       1       8       1       1       8       1       1
       8       1       1       8       1       1       8       1       1       8
       1       1       8       1       1       8       1       1       8       1
       1       8       1       1       8       1       1       8       1       1
       8       1       1       8       1       1       8       1       1       8
       1       1       8       1       1       8       1       1       8       1
       1       8       1       1       8       1       1       8       1       1
       8       1       1       8       1       1       8       1       1       8
       1       1       8       1       1       8       1       1       8       1
       1       8       1       1       8       1       1       8       1       1
       8       1       1       8       1       1       8       1       1       8
       1       1       8       1       1       8       1       1       8       1
       1       8       1       1       8       1       1       8       1       1
       8       1       1       8       1       1       8       1       1       8
       1       1       8       1       1       8       1       1       8       1
       1       8       1       1       8       1       1       8       1       1
       8       1       1       8       1       1       8       1       1       8
       1       1       8       1       1       8       1       1       8       1
       1       8       1       1       8       1       1       8       1       1
       8       1       1       8       1       1       8       1       1       8
       1       1       8       1       1       8       1       1       8       1
       1       8       1       1       8       1       1       8       1       1
       8       1       1       8       1       1       8       1       1       8
       1       1       8       1       1       8       1       1       8       1
       1       8       1       1       8       1       1       8       1       1
       8       1       1       8       1       1       8       1       1       8
       1       1       8       1       1       8       1       1       8       1
       1       8       1       1       8       1       1       8       1       1
       8       1       1       8       1       1       8       1       1       8
       1       1       8       1       1       8       1       1       8       1
       1       8       1       1       8       1       1       8       1       1
       8       1       1       8       1       1       8       1       1       8
       1       1       8       1       1       8       1       1       8       1
       1       8       1       1       8       1       1       8       1       1
       8       1       1       8       1       1       8       1       1       8
       1       1       8       1       1       8       1       1       8       1
       1       8       1       1       8       1       1       8       1       1
       8       1       1       8       1       1       8       1       1       8
       1       1       8       1       1       8       1       1       8       1
       1       8       1       1       8       1       1       8       1       1
       8       1       1       8       1       1       8       1       1       8
       1       1       8       1       1       8       1       1       8       1
       1       8       1       1       8       1       1       8       1       1
       8       1       1       8       1       1       8       1       1       8
       1       1       8       1       1       8       1       1       8       1
       1       8       1       1       8       1       1       8       1       1
       8       1       1       8       1       1       8       1       1       8
       1       1       8       1       1       8       1       1       8       1
       1       8       1       1       8       1       1       8       1       1
       8       1       1       8       1       1       8       1       1       8
       1       1       8       1       1       8       1       1       8       1
       1       8       1       1       8       1       1       8       1       1
       8       1       1       8       1       1       8       1       1       8
       1       1       8       1       1       8       1       1       8       1
       1       8       1       1       8       1       1       8       1       1
       8       1       1       8       1       1       8       1       1       8
       1       1       8       1       1       8       1       1       8       1
       1       8       1       1       8       1       1       8       1       1
       8       1       1       8       1       1       8       1       1       8
       1       1       8       1       1       8       1       1       8       1
       1       8       1       1       8       1       1       8       1       1
       8       1       1       8       1       1       8       1       1       8
       1       1       8       1       1       8       1       1       8       1
       1       8       1       1       8       1       1       8       1       1
       8       1       1       8       1       1       8       1       1       8
       1       1       8       1       1       8       1       1       8       1
       1       8       1       1       8       1       1       8       1       1
       8       1       1       8       1       1       8       1       1       8
       1       1       8       1       1       8       1       1       8       1
       1       8       1       1       8       1       1       8       1       1
       8       1       1       8       1       1       8       1       1       8
       1       1       8       1       1       8       1       1       8       1
       1       8       1       1       8       1       1       8       1       1
       8       1       1       8       1       1       8       1       1       8
       1       1       8       1       1       8       1       1       8       1
       1       8       1       1       8       1       1       8       1       1
       8       1       1       8       1       1       8       1       1       8
       1       1       8       1       1       8       1       1       8       1
       1       8       1       1       8       1       1       8       1       1
       8       1       1       8       1       1       8       1       1       8
       1       1       8       1       1       8       1       1       8       1
       1       8       1       1       8       1       1       8       1       1
       8       1       1       8       1       1       8       1       1       8
       1       1       8       1       1       8       1       1       8       1
       1       8       1       1       8       1       1       8       1       1
       8       1       1       8       1       1       8       1       1       8
       1       1       8       1       1       8       1       1       8       1
       1       8       1       1       8       1       1       8       1       1
       8       1       1       8       1       1       8       1       1       8
       1       1       8       1       1       8       1       1       8       1
       1       8       1       1       8       1       1       8       1       1
       8       1       1       8       1       1       8       1       1       8
       1       1       8       1       1       8       1       1       8       1
       1       8       1       1       8       1       1       8       1       1
       8       1       1       8       1       1       8       1       1       8
       1       1       8       1       1       8       1       1       8       1
       1       8       1       1       8       1       1       8       1       1
       8       1       1       8       1       1       8       1       1       8
       1       1       8       1       1       8       1       1       8       1
       1       8       1       1       8       1       1       8       1       1
       8       1       1       8       1       1       8       1       1       8
       1       1       8       1       1       8       1       1       8       1
       1       8       1       1       8       1       1       8       1       1
       8       1       1       8       1       1       8       1       1       8
       1       1       8       1       1       8       1       1       8       1
       1       8       1       1       8       1       1       8       1       1
       8       1       1       8       1       1       8       1       1       8
       1       1       8       1       1       8       1       1       8       1
       1       8       1       1       8       1       1       8       1       1
       8       1       1       8       1       1       8       1       1       8
       1       1       8       1       1       8       1       1       8       1
       1       8       1       1       8       1       1       8       1       1
       8       1       1       8       1       1       8       1       1       8
       1       1       8       1       1       8       1       1       8       1
       1       8       1       1       8       1       1       8       1       1
       8       1       1       8       1       1       8       1       1       8
       1       1       8       1       1       8       1       1       8       1
       1       8       1       1       8       1       1       8       1       1
       8       1       1       8       1       1       8       1       1       8
       1       1       8       1       1       8       1       1       8       1
       1       8       1       1       8       1       1       8       1       1
       8       1       1       8       1       1       8       1       1       8
       1       1       8       1       1       8       1       1       8       1
       1       8       1       1       8       1       1       8       1       1
       8       1       1       8       1       1       8       1       1       8
       1       1       8       1       1       8       1       1       8       1
       1       8       1       1       8       1       1       8       1       1
       8       1       1       8       1       1       8       1       1       8
       1       1       8       1       1       8       1       1       8       1
       1       8       1       1       8       1       1       8       1       1
       8       1       1       8       1       1       8       1       1       8
       1       1       8       1       1       8       1       1       8       1
       1       8       1       1       8       1       1       8       1       1
       8       1       1       8       1       1       8       1       1       8
       1       1       8       1       1       8       1       1       8       1
       1       8       1       1       8       1       1       8       1       1
       8       1       1       8       1       1       8       1       1       8
       1       1       8       1       1       8       1       1       8       1
       1       8       1       1       8       1       1       8       1       1
       8       1       1       8       1       1       8       1       1       8
       1       1       8       1       1       8       1       1       8       1
       1       8       1       1       8       1       1       8       1       1
       8       1       1       8       1       1       8       1       1       8
       1       1       8       1       1       8       1       1       8       1
       1       8       1       1       8       1       1       8       1       1
       8       1       1       8       1       1       8       1       1       8
       1       1       8       1       1       8       1       1       8       1
       1       8       1       1       8       1       1       8       1       1
       8       1       1       8       1       1       8       1       1       8
       1       1       8       1       1       8       1       1       8       1
       1       8       1       1       8       1       1       8       1       1
       8       1       1       8       1       1       8       1       1       8
       1       1       8       1       1       8       1       1       8       1
       1       8       1       1       8       1       1       8       1       1
       8       1       1       8       1       1       8       1       1       8
       1       1       8       1       1       8       1       1       8       1
       1       8       1       1       8       1       1       8       1       1
       8       1       1       8       1       1       8       1       1       8
       1       1       8       1       1       8       1       1       8       1
       1       8       1       1       8       1       1       8       1       1
       8       1       1       8       1       1       8       1       1       8
       1       1       8       1       1       8       1       1       8       1
       1       8       1       1       8       1       1       8       1       1
       8       1       1       8       1       1       8       1       1       8
       1       1       8       1       1       8       1       1       8       1
       1       8       1       1       8       1       1       8       1       1
       8       1       1       8       1       1       8       1       1       8
       1       1       8       1       1       8       1       1       8       1
       1       8       1       1       8       1       1       8       1       1
       8       1       1       8       1       1       8       1       1       8
       1       1       8       1       1       8       1       1       8       1
       1       8       1       1       8       1       1       8       1       1
       8       1       1       8       1       1       8       1       1       8
       1       1       8       1       1       8       1       1       8       1
       1       8       1       1       8       1       1       8       1       1
       8       1       1       8       1       1       8       1       1       8
       1       1       8       1       1       8       1       1       8       1
       1       8       1       1       8       1       1       8       1       1
       8       1       1       8       1       1       8       1       1       8
       1       1       8       1       1       8       1       1       8       1
       1       8       1       1       8       1       1       8       1       1
       8       1       1       8       1       1       8       1       1       8
       1       1       8       1       1       8       1       1       8       1
       1       8       1       1       8       1       1       8       1       1
       8       1       1       8       1       1       8       1       1       8
       1       1       8       1       1       8       1       1       8       1
       1       8       1       1       8       1       1       8       1       1
       8       1       1       8       1       1       8       1       1       8
       1       1       8       1       1       8       1       1       8       1
       1       8       1       1       8       1       1       8       1       1
       8       1       1       8       1       1       8       1       1       8
       1       1       8       1       1       8       1       1       8       1
       1       8       1       1       8       1       1       8       1       1
       8       1       1       8       1       1       8       1       1       8
       1       1       8       1       1       8       1       1       8       1
       1       8       1       1       8       1       1       8       1       1
       8       1       1       8       1       1       8       1       1       8
       1       1       8       1       1       8       1       1       8       1
       1       8       1       1       8       1       1       8       1       1
       8       1       1       8       1       1       8       1       1       8
       1       1       8       1       1       8       1       1       8       1
       1       8       1       1       8       1       1       8       1       1
       8       1       1       8       1       1       8       1       1       8
       1       1       8       1       1       8       1       1       8       1
       1       8       1       1       8       1       1       8       1       1
       8       1       1       8       1       1       8       1       1       8
       1       1       8       1       1       8       1       1       8       1
       1       8       1       1       8       1       1       8       1       1
       8       1       1       8       1       1       8       1       1       8
       1       1       8       1       1       8       1       1       8       1
       1       8       1       1       8       1       1       8       1       1
       8       1       1       8       1       1       8       1       1       8
       1       1       8       1       1       8       1       1       8       1
       1       8       1       1       8       1       1       8       1       1
       8       1       1       8       1       1       8       1       1       8
       1       1       8       1       1       8       1       1       8       1
       1       8       1       1       8       1       1       8       1       1
       8       1       1       8       1       1       8       1       1       8
       1       1       8       1       1       8       1       1       8       1
       1       8       1       1       8       1       1       8       1       1
       8       1       1       8       1       1       8       1       1       8
       1       1       8       1       1       8       1       1       8       1
       1       8       1       1       8       1       1       8       1       1
       8       1       1       8       1       1       8       1       1       8
       1       1       8       1       1       8       1       1       8       1
       1       8       1       1       8       1       1       8       1       1
       8       1       1       8       1       1       8       1       1       8
       1       1       8       1       1       8       1       1       8       1
       1       8       1       1       8       1       1       8       1       1
       8       1       1       8       1       1       8       1       1       8
       1       1       8       1       1       8       1       1       8       1
       1       8       1       1       8       1       1       8       1       1
       8       1       1       8       1       1       8       1       1       8
       1       1       8       1       1       8       1       1       8       1
       1       8       1       1       8       1       1       8       1       1
       8       1       1       8       1       1       8       1       1       8
       1       1       8       1       1       8       1       1       8       1
       1       8       1       1       8       1       1       8       1       1
       8       1       1       8       1       1       8       1       1       8
       1       1       8       1       1       8       1       1       8       1
       1       8       1       1       8       1       1       8       1       1
       8       1       1       8       1       1       8       1       1       8
       1       1       8       1       1       8       1       1       8       1
       1       8       1       1       8       1       1       8       1       1
       8       1       1       8       1       1       8       1       1       8
       1       1       8       1       1       8       1       1       8       1
       1       8       1       1       8       1       1       8       1       1
       8       1       1       8       1       1       8       1       1       8
       1       1       8       1       1       8       1       1       8       1
       1       8       1       1       8       1       1       8       1       1
       8       1       1       8       1       1       8       1       1       8
       1       1       8       1       1       8       1       1       8       1
       1       8       1       1       8       1       1       8       1       1
       8       1       1       8       1       1       8       1       1       8
       1       1       8       1       1       8       1       1       8       1
       1       8       1       1       8       1       1       8       1       1
       8       1       1       8       1       1       8       1       1       8
       1       1       8       1       1       8       1       1       8       1
       1       8       1       1       8       1       1       8       1       1
       8       1       1       8       1       1       8       1       1       8
       1       1       8       1       1       8       1       1       8       1
       1       8       1       1       8       1       1       8       1       1
       8       1       1       8       1       1       8       1       1       8
       1       1       8       1       1       8       1       1       8       1
       1       8       1       1       8       1       1       8       1       1
       8       1       1       8       1       1       8       1       1       8
       1       1       8       1       1       8       1       1       8       1
       1       8       1       1       8       1       1       8       1       1
       8       1       1       8       1       1       8       1       1       8
       1       1       8       1       1       8       1       1       8       1
       1       8       1       1       8       1       1       8       1       1
       8       1       1       8       1       1       8       1       1       8
       1       1       8       1       1       8       1       1       8       1
       1       8       1       1       8       1       1       8       1       1
       8       1       1       8       1       1       8       1       1       8
       1       1       8       1       1       8       1       1       8       1
       1       8       1       1       8       1       1       8       1       1
       8       1       1       8       1       1       8       1       1       8
       1       1       8       1       1       8       1       1       8       1
       1       8       1       1       8       1       1       8       1       1
       8       1       1       8       1       1       8       1       1       8
       1       1       8       1       1       8       1       1       8       1
       1       8       1       1       8       1       1       8       1       1
       8       1       1       8       1       1       8       1       1       8
       1       1       8       1       1       8       1       1       8       1
       1       8       1       1       8       1       1       8       1       1
       8       1       1       8       1       1       8       1       1       8
       1       1       8       1       1       8       1       1       8       1
       1       8       1       1       8       1       1       8       1       1
       8       1       1       8       1       1       8       1       1       8
       1       1       8       1       1       8       1       1       8       1
       1       8       1       1       8       1       1       8       1       1
       8       1       1       8       1       1       8       1       1       8
       1       1       8       1       1       8       1       1       8       1
       1       8       1       1       8       1       1       8       1       1
       8       1       1       8       1       1       8       1       1       8
       1       1       8       1       1       8       1       1       8       1
       1       8       1       1       8       1       1       8       1       1
       8       1       1       8       1       1       8       1       1       8
       1       1       8       1       1       8       1       1       8       1
       1       8       1       1       8       1       1       8       1       1
       8       1       1       8       1       1       8       1       1       8
       1       1       8       1       1       8       1       1       8       1
       1       8       1       1       8       1       1       8       1       1
       8       1       1       8       1       1       8       1       1       8
       1       1       8       1       1       8       1       1       8       1
       1       8       1       1       8       1       1       8       1       1
       8       1       1       8       1       1       8       1       1       8
       1       1       8       1       1       8       1       1       8       1
       1       8       1       1       8       1       1       8       1       1
       8       1       1       8       1       1       8       1       1       8
       1       1       8       1       1       8       1       1       8       1
       1       8       1       1       8       1       1       8       1       1
       8       1       1       8       1       1       8       1       1       8
       1       1       8       1       1       8       1       1       8       1
       1       8       1       1       8       1       1       8       1       1
       8       1       1       8       1       1       8       1       1       8
       1       1       8       1       1       8       1       1       8       1
       1       8       1       1       8       1       1       8       1       1
       8       1       1       8       1       1       8       1       1       8
       1       1       8       1       1       8       1       1       8       1
       1       8       1       1       8       1       1       8       1       1
       8       1       1       8       1       1       8       1       1       8
       1       1       8       1       1       8       1       1       8       1
       1       8       1       1       8       1       1       8       1       1
       8       1       1       8       1       1       8       1       1       8
       1       1       8       1       1       8       1       1       8       1
       1       8       1       1       8       1       1       8       1       1
       8       1       1       8       1       1       8       1       1       8
       1       1       8       1       1       8       1       1       8       1
       1       8       1       1       8       1       1       8       1       1
       8       1       1       8       1       1       8       1       1       8
       1       1       8       1       1       8       1       1       8       1
       1       8       1       1       8       1       1       8       1       1
       8       1       1       8       1       1       8       1       1       8
       1       1       8       1       1       8       1       1       8       1
       1       8       1       1       8       1       1       8       1       1
       8       1       1       8       1       1       8       1       1       8
       1       1       8       1       1       8       1       1       8       1
       1       8       1       1       8       1       1       8       1       1
       8       1       1       8       1       1       8       1       1       8
       1       1       8       1       1       8       1       1       8       1
       1       8       1       1       8       1       1       8       1       1
       8       1       1       8       1       1       8       1       1       8
       1       1       8       1       1       8       1       1       8       1
       1       8       1       1       8       1       1       8       1       1
       8       1       1       8       1       1       8       1       1       8
       1       1       8       1       1       8       1       1       8       1
       1       8       1       1       8       1       1       8       1       1
       8       1       1       8       1       1       8       1       1       8
       1       1       8       1       1       8       1       1       8       1
       1       8       1       1       8       1       1       8       1       1
       8       1       1       8       1       1       8       1       1       8
       1       1       8       1       1       8       1       1       8       1
       1       8       1       1       8       1       1       8       1       1
       8       1       1       8       1       1       8       1       1       8
       1       1       8       1       1       8       1       1       8       1
       1       8       1       1       8       1       1       8       1       1
       8       1       1       8       1       1       8       1       1       8
       1       1       8       1       1       8       1       1       8       1
       1       8       1       1       8       1       1       8       1       1
       8       1       1       8       1       1       8       1       1       8
       1       1       8       1       1       8       1       1       8       1
       1       8       1       1       8       1       1       8       1       1
       8       1       1       8       1       1       8       1       1       8
       1       1       8       1       1       8       1       1       8       1
       1       8       1       1       8       1       1       8       1       1
       8       1       1       8       1       1       8       1       1       8
       1       1       8       1       1       8       1       1       8       1
       1       8       1       1       8       1       1       8       1       1
       8       1       1       8       1       1       8       1       1       8
       1       1       8       1       1       8       1       1       8       1
       1       8       1       1       8       1       1       8       1       1
       8       1       1       8       1       1       8       1       1       8
       1       1       8       1       1       8       1       1       8       1
       1       8       1       1       8       1       1       8       1       1
       8       1       1       8       1       1       8       1       1       8
       1       1       8       1       1       8       1       1       8       1
       1       8       1       1       8       1       1       8       1       1
       8       1       1       8       1       1       8       1       1       8
       1       1       8       1       1       8       1       1       8       1
       1       8       1       1       8       1       1       8       1       1
       8       1       1       8       1       1       8       1       1       8
       1       1       8       1       1       8       1       1       8       1
       1       8       1       1       8       1       1       8       1       1
       8       1       1       8       1       1       8       1       1       8
       1       1       8       1       1       8       1       1       8       1
       1       8       1       1       8       1       1       8       1       1
       8       1       1       8       1       1       8       1       1       8
       1       1       8       1       1       8       1       1       8       1
       1       8       1       1       8       1       1       8       1       1
       8       1       1       8       1       1       8       1       1       8
       1       1       8       1       1       8       1       1       8       1
       1       8       1       1       8       1       1       8       1       1
       8       1       1       8       1       1       8       1       1       8
       1       1       8       1       1       8       1       1       8       1
       1       8       1       1       8       1       1       8       1       1
       8       1       1       8       1       1       8       1       1       8
       1       1       8       1       1       8       1       1       8       1
       1       8       1       1       8       1       1       8       1       1
       8       1       1       8       1       1       8       1       1       8
       1       1       8       1       1       8       1       1       8       1
       1       8       1       1       8       1       1       8       1       1
       8       1       1       8       1       1       8       1       1       8
       1       1       8       1       1       8       1       1       8       1
       1       8       1       1       8       1       1       8       1       1
       8       1       1       8       1       1       8       1       1       8
       1       1       8       1       1       8       1       1       8       1
       1       8       1       1       8       1       1       8       1       1
       8       1       1       8       1       1       8       1       1       8
       1       1       8       1       1       8       1       1       8       1
       1       8       1       1       8       1       1       8       1       1
       8       1       1       8       1       1       8       1       1       8
       1       1       8       1       1       8       1       1       8       1
       1       8       1       1       8       1       1       8       1       1
       8       1       1       8       1       1       8       1       1       8
       1       1       8       1       1       8       1       1       8       1
       1       8       1       1       8       1       1       8       1       1
       8       1       1       8       1       1       8       1       1       8
       1       1       8       1       1       8       1       1       8       1
       1       8       1       1       8       1       1       8       1       1
       8       1       1       8       1       1       8       1       1       8
       1       1       8       1       1       8       1       1       8       1
       1       8       1       1       8       1       1       8       1       1
       8       1       1       8       1       1       8       1       1       8
       1       1       8       1       1       8       1       1       8       1
       1       8       1       1       8       1       1       8       1       1
       8       1       1       8       1       1       8       1       1       8
       1       1       8       1       1       8       1       1       8       1
       1       8       1       1       8       1       1       8       1       1
       8       1       1       8       1       1       8       1       1       8
       1       1       8       1       1       8       1       1       8       1
       1       8       1       1       8       1       1       8       1       1
       8       1       1       8       1       1       8       1       1       8
       1       1       8       1       1       8       1       1       8       1
       1       8       1       1       8       1       1       8       1       1
       8       1       1       8       1       1       8       1       1       8
       1       1       8       1       1       8       1       1       8       1
       1       8       1       1       8       1       1       8       1       1
       8       1       1       8       1       1       8       1       1       8
       1       1       8       1       1       8       1       1       8       1
       1       8       1       1       8       1       1       8       1       1
       8       1       1       8       1       1       8       1       1       8
       1       1       8       1       1       8       1       1       8       1
       1       8       1       1       8       1       1       8       1       1
       8       1       1       8       1       1       8       1       1       8
       1       1       8       1       1       8       1       1       8       1
       1       8       1       1       8       1       1       8       1       1
       8       1       1       8       1       1       8       1       1       8
       1       1       8       1       1       8       1       1       8       1
       1       8       1       1       8       1       1       8       1       1
       8       1       1       8       1       1       8       1       1       8
       1       1       8       1       1       8       1       1       8       1
       1       8       1       1       8       1       1       8       1       1
       8       1       1       8       1       1       8       1       1       8
       1       1       8       1       1       8       1       1       8       1
       1       8       1       1       8       1       1       8       1       1
       8       1       1       8       1       1       8       1       1       8
       1       1       8       1       1       8       1       1       8       1
       1       8       1       1       8       1       1       8       1       1
       8       1       1       8       1       1       8       1       1       8
       1       1       8       1       1       8       1       1       8       1
       1       8       1       1       8       1       1       8       1       1
       8       1       1       8       1       1       8       1       1       8
       1       1       8       1       1       8       1       1       8       1
       1       8       1       1       8       1       1       8       1       1
       8       1       1       8       1       1       8       1       1       8
       1       1       8       1       1       8       1       1       8       1
       1       8       1       1       8       1       1       8       1       1
       8       1       1       8       1       1       8       1       1       8
       1       1       8       1       1       8       1       1       8       1
       1       8       1       1       8       1       1       8       1       1
       8       1       1       8       1       1       8       1       1       8
       1       1       8       1       1       8       1       1       8       1
       1       8       1       1       8       1       1       8       1       1
       8       1       1       8       1       1       8       1       1       8
       1       1       8       1       1       8       1       1       8       1
       1       8       1       1       8       1       1       8       1       1
       8       1       1       8       1       1       8       1       1       8
       1       1       8       1       1       8       1       1       8       1
       1       8       1       1       8       1       1       8       1       1
       8       1       1       8       1       1       8       1       1       8
       1       1       8       1       1       8       1       1       8       1
       1       8       1       1       8       1       1       8       1       1
       8       1       1       8       1       1       8       1       1       8
       1       1       8       1       1       8       1       1       8       1
       1       8       1       1       8       1       1       8       1       1
       8       1       1       8       1       1       8       1       1       8
       1       1       8       1       1       8       1       1       8       1
       1       8       1       1       8       1       1       8       1       1
       8       1       1       8       1       1       8       1       1       8
       1       1       8       1       1       8       1       1       8       1
       1       8       1       1       8       1       1       8       1       1
       8       1       1       8       1       1       8       1       1       8
       1       1       8       1       1       8       1       1       8       1
       1       8       1       1       8       1       1       8       1       1
       8       1       1       8       1       1       8       1       1       8
       1       1       8       1       1       8       1       1       8       1
       1       8       1       1       8       1       1       8       1       1
       8       1       1       8       1       1       8       1       1       8
       1       1       8       1       1       8       1       1       8       1
       1       8       1       1       8       1       1       8       1       1
       8       1       1       8       1       1       8       1       1       8
       1       1       8       1       1       8       1       1       8       1
       1       8       1       1       8       1       1       8       1       1
       8       1       1       8       1       1       8       1       1       8
       1       1       8       1       1       8       1       1       8       1
       1       8       1       1       8       1       1       8       1       1
       8       1       1       8       1       1       8       1       1       8
       1       1       8       1       1       8       1       1       8       1
       1       8       1       1       8       1       1       8       1       1
       8       1       1       8       1       1       8       1       1       8
       1       1       8       1       1       8       1       1       8       1
       1       8       1       1       8       1       1       8       1       1
       8       1       1       8       1       1       8       1       1       8
       1       1       8       1       1       8       1       1       8       1
       1       8       1       1       8       1       1       8       1       1
       8       1       1       8       1       1       8       1       1       8
       1       1       8       1       1       8       1       1       8       1
       1       8       1       1       8       1       1       8       1       1
       8       1       1       8       1       1       8       1       1       8
       1       1       8       1       1       8       1       1       8       1
       1       8       1       1       8       1       1       8       1       1
       8       1       1       8       1       1       8       1       1       8
       1       1       8       1       1       8       1       1       8       1
       1       8       1       1       8       1       1       8       1       1
       8       1       1       8       1       1       8       1       1       8
       1       1       8       1       1       8       1       1       8       1
       1       8       1       1       8       1       1       8       1       1
       8       1       1       8       1       1       8       1       1       8
       1       1       8       1       1       8       1       1       8       1
       1       8       1       1       8       1       1       8       1       1
       8       1       1       8       1       1       8       1       1       8
       1       1       8       1       1       8       1       1       8       1
       1       8       1       1       8       1       1       8       1       1
       8       1       1       8       1       1       8       1       1       8
       1       1       8       1       1       8       1       1       8       1
       1       8       1       1       8       1       1       8       1       1
       8       1       1       8       1       1       8       1       1       8
       1       1       8       1       1       8       1       1       8       1
       1       8       1       1       8       1       1       8       1       1
       8       1       1       8       1       1       8       1       1       8
       1       1       8       1       1       8       1       1       8       1
       1       8       1       1       8       1       1       8       1       1
       8       1       1       8       1       1       8       1       1       8
       1       1       8       1       1       8       1       1       8       1
       1       8       1       1       8       1       1       8       1       1
       8       1       1       8       1       1       8       1       1       8
       1       1       8       1       1       8       1       1       8       1
       1       8       1       1       8       1       1       8       1       1
       8       1       1       8       1       1       8       1       1       8
       1       1       8       1       1       8       1       1       8       1
       1       8       1       1       8       1       1       8       1       1
       8       1       1       8       1       1       8       1       1       8
       1       1       8       1       1       8       1       1       8       1
       1       8       1       1       8       1       1       8       1       1
       8       1       1       8       1       1       8       1       1       8
       1       1       8       1       1       8       1       1       8       1
       1       8       1       1       8       1       1       8       1       1
       8       1       1       8       1       1       8       1       1       8
       1       1       8       1       1       8       1       1       8       1
       1       8       1       1       8       1       1       8       1       1
       8       1       1       8       1       1       8       1       1       8
       1       1       8       1       1       8       1       1       8       1
       1       8       1       1       8       1       1       8       1       1
       8       1       1       8       1       1       8       1       1       8
       1       1       8       1       1       8       1       1       8       1
       1       8       1       1       8       1       1       8       1       1
       8       1       1       8       1       1       8       1       1       8
       1       1       8       1       1       8       1       1       8       1
       1       8       1       1       8       1       1       8       1       1
       8       1       1       8       1       1       8       1       1       8
       1       1       8       1       1       8       1       1       8       1
       1       8       1       1       8       1       1       8       1       1
       8       1       1       8       1       1       8       1       1       8
       1       1       8       1       1       8       1       1       8       1
       1       8       1       1       8       1       1       8       1       1
       8       1       1       8       1       1       8       1       1       8
       1       1       8       1       1       8       1       1       8       1
       1       8       1       1       8       1       1       8       1       1
       8       1       1       8       1       1       8       1       1       8
       1       1       8       1       1       8       1       1       8       1
       1       8       1       1       8       1       1       8       1       1
       8       1       1       8       1       1       8       1       1       8
       1       1       8       1       1       8       1       1       8       1
       1       8       1       1       8       1       1       8       1       1
       8       1       1       8       1       1       8       1       1       8
       1       1       8       1       1       8       1       1       8       1
       1       8       1       1       8       1       1       8       1       1
       8       1       1       8       1       1       8       1       1       8
       1       1       8       1       1       8       1       1       8       1
       1       8       1       1       8       1       1       8       1       1
       8       1       1       8       1       1       8       1       1       8
       1       1       8       1       1       8       1       1       8       1
       1       8       1       1       8       1       1       8       1       1
       8       1       1       8       1       1       8       1       1       8
       1       1       8       1       1       8       1       1       8       1
       1       8       1       1       8       1       1       8       1       1
       8       1       1       8       1       1       8       1       1       8
       1       1       8       1       1       8       1       1       8       1
       1       8       1       1       8       1       1       8       1       1
       8       1       1       8       1       1       8       1       1       8
       1       1       8       1       1       8       1       1       8       1
       1       8       1       1       8       1       1       8       1       1
       8       1       1       8       1       1       8       1       1       8
       1       1       8       1       1       8       1       1       8       1
       1       8       1       1       8       1       1       8       1       1
       8       1       1       8       1       1       8       1       1       8
       1       1       8       1       1       8       1       1       8       1
       1       8       1       1       8       1       1       8       1       1
       8       1       1       8       1       1       8       1       1       8
       1       1       8       1       1       8       1       1       8       1
       1       8       1       1       8       1       1       8       1       1
       8       1       1       8       1       1       8       1       1       8
       1       1       8       1       1       8       1       1       8       1
       1       8       1       1       8       1       1       8       1       1
       8       1       1       8       1       1       8       1       1       8
       1       1       8       1       1       8       1       1       8       1
       1       8       1       1       8       1       1       8       1       1
       8       1       1       8       1       1       8       1       1       8
       1       1       8       1       1       8       1       1       8       1
       1       8       1       1       8       1       1       8       1       1
       8       1       1       8       1       1       8       1       1       8
       1       1       8       1       1       8       1       1       8       1
       1       8       1       1       8       1       1       8       1       1
       8       1       1       8       1       1       8       1       1       8
       1       1       8       1       1       8       1       1       8       1
       1       8       1       1       8       1       1       8       1       1
       8       1       1       8       1       1       8       1       1       8
       1       1       8       1       1       8       1       1       8       1
       1       8       1       1       8       1       1       8       1       1
       8       1       1       8       1       1       8       1       1       8
       1       1       8       1       1       8       1       1       8       1
       1       8       1       1       8       1       1       8       1       1
       8       1       1       8       1       1       8       1       1       8
       1       1       8       1       1       8       1       1       8       1
       1       8       1       1       8       1       1       8       1       1
       8       1       1       8       1       1       8       1       1       8
       1       1       8       1       1       8       1       1       8       1
       1       8       1       1       8       1       1       8       1       1
       8       1       1       8       1       1       8       1       1       8
       1       1       8       1       1       8       1       1       8       1
       1       8       1       1       8       1       1       8       1       1
       8       1       1       8       1       1       8       1       1       8
       1       1       8       1       1       8       1       1       8       1
       1       8       1       1       8       1       1       8       1       1
       8       1       1       8       1       1       8       1       1       8
       1       1       8       1       1       8       1       1       8       1
       1       8       1       1       8       1       1       8       1       1
       8       1       1       8       1       1       8       1       1       8
       1       1       8       1       1       8       1       1       8       1
       1       8       1       1       8       1       1       8       1       1
       8       1       1       8       1       1       8       1       1       8
       1       1       8       1       1       8       1       1       8       1
       1       8       1       1       8       1       1       8       1       1
       8       1       1       8       1       1       8       1       1       8
       1       1       8       1       1       8       1       1       8       1
       1       8       1       1       8       1       1       8       1       1
       8       1       1       8       1       1       8       1       1       8
       1       1       8       1       1       8       1       1       8       1
       1       8       1       1       8       1       1       8       1       1
       8       1       1       8       1       1       8       1       1       8
       1       1       8       1       1       8       1       1       8       1
       1       8       1       1       8       1       1       8       1       1
       8       1       1       8       1       1       8       1       1       8
       1       1       8       1       1       8       1       1       8       1
       1       8       1       1       8       1       1       8       1       1
       8       1       1       8       1       1       8       1       1       8
       1       1       8       1       1       8       1       1       8       1
       1       8       1       1       8       1       1       8       1       1
       8       1       1       8       1       1       8       1       1       8
       1       1       8       1       1       8       1       1       8       1
       1       8       1       1       8       1       1       8       1       1
       8       1       1       8       1       1       8       1       1       8
       1       1       8       1       1       8       1       1       8       1
       1       8       1       1       8       1       1       8       1       1
       8       1       1       8       1       1       8       1       1       8
       1       1       8       1       1       8       1       1       8       1
       1       8       1       1       8       1       1       8       1       1
       8       1       1       8       1       1       8       1       1       8
       1       1       8       1       1       8       1       1       8       1
       1       8       1       1       8       1       1       8       1       1
       8       1       1       8       1       1       8       1       1       8
       1       1       8       1       1       8       1       1       8       1
       1       8       1       1       8       1       1       8       1       1
       8       1       1       8       1       1       8       1       1       8
       1       1       8       1       1       8       1       1       8       1
       1       8       1       1       8       1       1       8       1       1
       8       1       1       8       1       1       8       1       1       8
       1       1       8       1       1       8       1       1       8       1
       1       8       1       1       8       1       1       8       1       1
       8       1       1       8       1       1       8       1       1       8
       1       1       8       1       1       8       1       1       8       1
       1       8       1       1       8       1       1       8       1       1
       8       1       1       8       1       1       8       1       1       8
       1       1       8       1       1       8       1       1       8       1
       1       8       1       1       8       1       1       8       1       1
       8       1       1       8       1       1       8       1       1       8
       1       1       8       1       1       8       1       1       8       1
       1       8       1       1       8       1       1       8       1       1
       8       1       1       8       1       1       8       1       1       8
       1       1       8       1       1       8       1       1       8       1
       1       8       1       1       8       1       1       8       1       1
       8       1       1       8       1       1       8       1       1       8
       1       1       8       1       1       8       1       1       8       1
       1       8       1       1       8       1       1       8       1       1
       8       1       1       8       1       1       8       1       1       8
       1       1       8       1       1       8       1       1       8       1
       1       8       1       1       8       1       1       8       1       1
       8       1       1       8       1       1       8       1       1       8
       1       1       8       1       1       8       1       1       8       1
       1       8       1       1       8       1       1       8       1       1
       8       1       1       8       1       1       8       1       1       8
       1       1       8       1       1       8       1       1       8       1
       1       8       1       1       8       1       1       8       1       1
       8       1       1       8       1       1       8       1       1       8
       1       1       8       1       1       8       1       1       8       1
       1       8       1       1       8       1       1       8       1       1
       8       1       1       8       1       1       8       1       1       8
       1       1       8       1       1       8       1       1       8       1
       1       8       1       1       8       1       1       8       1       1
       8       1       1       8       1       1       8       1       1       8
       1       1       8       1       1       8       1       1       8       1
       1       8       1       1       8       1       1       8       1       1
       8       1       1       8       1       1       8       1       1       8
       1       1       8       1       1       8       1       1       8       1
       1       8       1       1       8       1       1       8       1       1
       8       1       1       8       1       1       8       1       1       8
       1       1       8       1       1       8       1       1       8       1
       1       8       1       1       8       1       1       8       1       1
       8       1       1       8       1       1       8       1       1       8
       1       1       8       1       1       8       1       1       8       1
       1       8       1       1       8       1       1       8       1       1
       8       1       1       8       1       1       8       1       1       8
       1       1       8       1       1       8       1       1       8       1
       1       8       1       1       8       1       1       8       1       1
       8       1       1       8       1       1       8       1       1       8
       1       1       8       1       1       8       1       1       8       1
       1       8       1       1       8       1       1       8       1       1
       8       1       1       8       1       1       8       1       1       8
       1       1       8       1       1       8       1       1       8       1
       1       8       1       1       8       1       1       8       1       1
       8       1       1       8       1       1       8       1       1       8
       1       1       8       1       1       8       1       1       8       1
       1       8       1       1       8       1       1       8       1       1
       8       1       1       8       1       1       8       1       1       8
       1       1       8       1       1       8       1       1       8       1
       1       8       1       1       8       1       1       8       1       1
       8       1       1       8       1       1       8       1       1       8
       1       1       8       1       1       8       1       1       8       1
       1       8       1       1       8       1       1       8       1       1
       8       1       1       8       1       1       8       1       1       8
       1       1       8       1       1       8       1       1       8       1
       1       8       1       1       8       1       1       8       1       1
       8       1       1       8       1       1       8       1       1       8
       1       1       8       1       1       8       1       1       8       1
       1       8       1       1       8       1       1       8       1       1
       8       1       1       8       1       1       8       1       1       8
       1       1       8       1       1       8       1       1       8       1
       1       8       1       1       8       1       1       8       1       1
       8       1       1       8       1       1       8       1       1       8
       1       1       8       1       1       8       1       1       8       1
       1       8       1       1       8       1       1       8       1       1
       8       1       1       8       1       1       8       1       1       8
       1       1       8       1       1       8       1       1       8       1
       1       8       1       1       8       1       1       8       1       1
       8       1       1       8       1       1       8       1       1       8
       1       1       8       1       1       8       1       1       8       1
       1       8       1       1       8       1       1       8       1       1
       8       1       1       8       1       1       8       1       1       8
       1       1       8       1       1       8       1       1       8       1
       1       8       1       1       8       1       1       8       1       1
       8       1       1       8       1       1       8       1       1       8
       1       1       8       1       1       8       1       1       8       1
       1       8       1       1       8       1       1       8       1       1
       8       1       1       8       1       1       8       1       1       8
       1       1       8       1       1       8       1       1       8       1
       1       8       1       1       8       1       1       8       1       1
       8       1       1       8       1       1       8       1       1       8
       1       1       8       1       1       8       1       1       8       1
       1       8       1       1       8       1       1       8       1       1
       8       1       1       8       1       1       8       1       1       8
       1       1       8       1       1       8       1       1       8       1
       1       8       1       1       8       1       1       8       1       1
       8       1       1       8       1       1       8       1       1       8
       1       1       8       1       1       8       1       1       8       1
       1       8       1       1       8       1       1       8       1       1
       8       1       1       8       1       1       8       1       1       8
       1       1       8       1       1       8       1       1       8       1
       1       8       1       1       8       1       1       8       1       1
       8       1       1       8       1       1       8       1       1       8
       1       1       8       1       1       8       1       1       8       1
       1       8       1       1       8       1       1       8       1       1
       8       1       1       8       1       1       8       1       1       8
       1       1       8       1       1       8       1       1       8       1
       1       8       1       1       8       1       1       8       1       1
       8       1       1       8       1       1       8       1       1       8
       1       1       8       1       1       8       1       1       8       1
       1       8       1       1       8       1       1       8       1       1
       8       1       1       8       1       1       8       1       1       8
       1       1       8       1       1       8       1       1       8       1
       1       8       1       1       8       1       1       8       1       1
       8       1       1       8       1       1       8       1       1       8
       1       1       8       1       1       8       1       1       8       1
       1       8       1       1       8       1       1       8       1       1
       8       1       1       8       1       1       8       1       1       8
       1       1       8       1       1       8       1       1       8       1
       1       8       1       1       8       1       1       8       1       1
       8       1       1       8       1       1       8       1       1       8
       1       1       8       1       1       8       1       1       8       1
       1       8       1       1       8       1       1       8       1       1
       8       1       1       8       1       1       8       1       1       8
       1       1       8       1       1       8       1       1       8       1
       1       8       1       1       8       1       1       8       1       1
       8       1       1       8       1       1       8       1       1       8
       1       1       8       1       1       8       1       1       8       1
       1       8       1       1       8       1       1       8       1       1
       8       1       1       8       1       1       8       1       1       8
       1       1       8       1       1       8       1       1       8       1
       1       8       1       1       8       1       1       8       1       1
       8       1       1       8       1       1       8       1       1       8
       1       1       8       1       1       8       1       1       8       1
       1       8       1       1       8       1       1       8       1       1
       8       1       1       8       1       1       8       1       1       8
       1       1       8       1       1       8       1       1       8       1
       1       8       1       1       8       1       1       8       1       1
       8       1       1       8       1       1       8       1       1       8
       1       1       8       1       1       8       1       1       8       1
       1       8       1       1       8       1       1       8       1       1
       8       1       1       8       1       1       8       1       1       8
       1       1       8       1       1       8       1       1       8       1
       1       8       1       1       8       1       1       8       1       1
       8       1       1       8       1       1       8       1       1       8
       1       1       8       1       1       8       1       1       8       1
       1       8       1       1       8       1       1       8       1       1
       8       1       1       8       1       1       8       1       1       8
       1       1       8       1       1       8       1       1       8       1
       1       8       1       1       8       1       1       8       1       1
       8       1       1       8       1       1       8       1       1       8
       1       1       8       1       1       8       1       1       8       1
       1       8       1       1       8       1       1       8       1       1
       8       1       1       8       1       1       8       1       1       8
       1       1       8       1       1       8       1       1       8       1
       1       8       1       1       8       1       1       8       1       1
       8       1       1       8       1       1       8       1       1       8
       1       1       8       1       1       8       1       1       8       1
       1       8       1       1       8       1       1       8       1       1
       8       1       1       8       1       1       8       1       1       8
       1       1       8       1       1       8       1       1       8       1
       1       8       1       1       8       1       1       8       1       1
       8       1       1       8       1       1       8       1       1       8
       1       1       8       1       1       8       1       1       8       1
       1       8       1       1       8       1       1       8       1       1
       8       1       1       8       1       1       8       1       1       8
       1       1       8       1       1       8       1       1       8       1
       1       8       1       1       8       1       1       8       1       1
       8       1       1       8       1       1       8       1       1       8
       1       1       8       1       1       8       1       1       8       1
       1       8       1       1       8       1       1       8       1       1
       8       1       1       8       1       1       8       1       1       8
       1       1       8       1       1       8       1       1       8       1
       1       8       1       1       8       1       1       8       1       1
       8       1       1       8       1       1       8       1       1       8
       1       1       8       1       1       8       1       1       8       1
       1       8       1       1       8       1       1       8       1       1
       8       1       1       8       1       1       8       1       1       8
       1       1       8       1       1       8       1       1       8       1
       1       8       1       1       8       1       1       8       1       1
       8       1       1       8       1       1       8       1       1       8
       1       1       8       1       1       8       1       1       8       1
       1       8       1       1       8       1       1       8       1       1
       8       1       1       8       1       1       8       1       1       8
       1       1       8       1       1       8       1       1       8       1
       1       8       1       1       8       1       1       8       1       1
       8       1       1       8       1       1       8       1       1       8
       1       1       8       1       1       8       1       1       8       1
       1       8       1       1       8       1       1       8       1       1
       8       1       1       8       1       1       8       1       1       8
       1       1       8       1       1       8       1       1       8       1
       1       8       1       1       8       1       1       8       1       1
       8       1       1       8       1       1       8       1       1       8
       1       1       8       1       1       8       1       1       8       1
       1       8       1       1       8       1       1       8       1       1
       8       1       1       8       1       1       8       1       1       8
       1       1       8       1       1       8       1       1       8       1
       1       8       1       1       8       1       1       8       1       1
       8       1       1       8       1       1       8       1       1       8
       1       1       8       1       1       8       1       1       8       1
       1       8       1       1       8       1       1       8       1       1
       8       1       1       8       1       1       8       1       1       8
       1       1       8       1       1       8       1       1       8       1
       1       8       1       1       8       1       1       8       1       1
       8       1       1       8       1       1       8       1       1       8
       1       1       8       1       1       8       1       1       8       1
       1       8       1       1       8       1       1       8       1       1
       8       1       1       8       1       1       8       1       1       8
       1       1       8       1       1       8       1       1       8       1
       1       8       1       1       8       1       1       8       1       1
       8       1       1       8       1       1       8       1       1       8
       1       1       8       1       1       8       1       1       8       1
       1       8       1       1       8       1       1       8       1       1
       8       1       1       8       1       1       8       1       1       8
       1       1       8       1       1       8       1       1       8       1
       1       8       1       1       8       1       1       8       1       1
       8       1       1       8       1       1       8       1       1       8
       1       1       8       1       1       8       1       1       8       1
       1       8       1       1       8       1       1       8       1       1
       8       1       1       8       1       1       8       1       1       8
       1       1       8       1       1       8       1       1       8       1
       1       8       1       1       8       1       1       8       1       1
       8       1       1       8       1       1       8       1       1       8
       1       1       8       1       1       8       1       1       8       1
       1       8       1       1       8       1       1       8       1       1
       8       1       1       8       1       1       8       1       1       8
       1       1       8       1       1       8       1       1       8       1
       1       8       1       1       8       1       1       8       1       1
       8       1       1       8       1       1       8       1       1       8
       1       1       8       1       1       8       1       1       8       1
       1       8       1       1       8       1       1       8       1       1
       8       1       1       8       1       1       8       1       1       8
       1       1       8       1       1       8       1       1       8       1
       1       8       1       1       8       1       1       8       1       1
       8       1       1       8       1       1       8       1       1       8
       1       1       8       1       1       8       1       1       8       1
       1       8       1       1       8       1       1       8       1       1
       8       1       1       8       1       1       8       1       1       8
       1       1       8       1       1       8       1       1       8       1
       1       8       1       1       8       1       1       8       1       1
       8       1       1       8       1       1       8       1       1       8
       1       1       8       1       1       8       1       1       8       1
       1       8       1       1       8       1       1       8       1       1
       8       1       1       8       1       1       8       1       1       8
       1       1       8       1       1       8       1       1       8       1
       1       8       1       1       8       1       1       8       1       1
       8       1       1       8       1       1       8       1       1       8
       1       1       8       1       1       8       1       1       8       1
       1       8       1       1       8       1       1       8       1       1
       8       1       1       8       1       1       8       1       1       8
       1       1       8       1       1       8       1       1       8       1
       1       8       1       1       8       1       1       8       1       1
       8       1       1       8       1       1       8       1       1       8
       1       1       8       1       1       8       1       1       8       1
       1       8       1       1       8       1       1       8       1       1
       8       1       1       8       1       1       8       1       1       8
       1       1       8       1       1       8       1       1       8       1
       1       8       1       1       8       1       1       8       1       1
       8       1       1       8       1       1       8       1       1       8
       1       1       8       1       1       8       1       1       8       1
       1       8       1       1       8       1       1       8       1       1
       8       1       1       8       1       1       8       1       1       8
       1       1       8       1       1       8       1       1       8       1
       1       8       1       1       8       1       1       8       1       1
       8       1       1       8       1       1       8       1       1       8
       1       1       8       1       1       8       1       1       8       1
       1       8       1       1       8       1       1       8       1       1
       8       1       1       8       1       1       8       1       1       8
       1       1       8       1       1       8       1       1       8       1
       1       8       1       1       8       1       1       8       1       1
       8       1       1       8       1       1       8       1       1       8
       1       1       8       1       1       8       1       1       8       1
       1       8       1       1       8       1       1       8       1       1
       8       1       1       8       1       1       8       1       1       8
       1       1       8       1       1       8       1       1       8       1
       1       8       1       1       8       1       1       8       1       1
       8       1       1       8       1       1       8       1       1       8
       1       1       8       1       1       8       1       1       8       1
       1       8       1       1       8       1       1       8       1       1
       8       1       1       8       1       1       8       1       1       8
       1       1       8       1       1       8       1       1       8       1
       1       8       1       1       8       1       1       8       1       1
       8       1       1       8       1       1       8       1       1       8
       1       1       8       1       1       8       1       1       8       1
       1       8       1       1       8       1       1       8       1       1
       8       1       1       8       1       1       8       1       1       8
       1       1       8       1       1       8       1       1       8       1
       1       8       1       1       8       1       1       8       1       1
       8       1       1       8       1       1       8       1       1       8
       1       1       8       1       1       8       1       1       8       1
       1       8       1       1       8       1       1       8       1       1
       8       1       1       8       1       1       8       1       1       8
       1       1       8       1       1       8       1       1       8       1
       1       8       1       1       8       1       1       8       1       1
       8       1       1       8       1       1       8       1       1       8
       1       1       8       1       1       8       1       1       8       1
       1       8       1       1       8       1       1       8       1       1
       8       1       1       8       1       1       8       1       1       8
       1       1       8       1       1       8       1       1       8       1
       1       8       1       1       8       1       1       8       1       1
       8       1       1       8       1       1       8       1       1       8
       1       1       8       1       1       8       1       1       8       1
       1       8       1       1       8       1       1       8       1       1
       8       1       1       8       1       1       8       1       1       8
       1       1       8       1       1       8       1       1       8       1
       1       8       1       1       8       1       1       8       1       1
       8       1       1       8       1       1       8       1       1       8
       1       1       8       1       1       8       1       1       8       1
       1       8       1       1       8       1       1       8       1       1
       8       1       1       8       1       1       8       1       1       8
       1       1       8       1       1       8       1       1       8       1
       1       8       1       1       8       1       1       8       1       1
       8       1       1       8       1       1       8       1       1       8
       1       1       8       1       1       8       1       1       8       1
       1       8       1       1       8       1       1       8       1       1
       8       1       1       8       1       1       8       1       1       8
       1       1       8       1       1       8       1       1       8       1
       1       8       1       1       8       1       1       8       1       1
       8       1       1       8       1       1       8       1       1       8
       1       1       8       1       1       8       1       1       8       1
       1       8       1       1       8       1       1       8       1       1
       8       1       1       8       1       1       8       1       1       8
       1       1       8       1       1       8       1       1       8       1
       1       8       1       1       8       1       1       8       1       1
       8       1       1       8       1       1       8       1       1       8
       1       1       8       1       1       8       1       1       8       1
       1       8       1       1       8       1       1       8       1       1
       8       1       1       8       1       1       8       1       1       8
       1       1       8       1       1       8       1       1       8       1
       1       8       1       1       8       1       1       8       1       1
       8       1       1       8       1       1       8       1       1       8
       1       1       8       1       1       8       1       1       8       1
       1       8       1       1       8       1       1       8       1       1
       8       1       1       8       1       1       8       1       1       8
       1       1       8       1       1       8       1       1       8       1
       1       8       1       1       8       1       1       8       1       1
       8       1       1       8       1       1       8       1       1       8
       1       1       8       1       1       8       1       1       8       1
       1       8       1       1       8       1       1       8       1       1
       8       1       1       8       1       1       8       1       1       8
       1       1       8       1       1       8       1       1       8       1
       1       8       1       1       8       1       1       8       1       1
       8       1       1       8       1       1       8       1       1       8
       1       1       8       1       1       8       1       1       8       1
       1       8       1       1       8       1       1       8       1       1
       8       1       1       8       1       1       8       1       1       8
       1       1       8       1       1       8       1       1       8       1
       1       8       1       1       8       1       1       8       1       1
       8       1       1       8       1       1       8       1       1       8
       1       1       8       1       1       8       1       1       8       1
       1       8       1       1       8       1       1       8       1       1
       8       1       1       8       1       1       8       1       1       8
       1       1       8       1       1       8       1       1       8       1
       1       8       1       1       8       1       1       8       1       1
       8       1       1       8       1       1       8       1       1       8
       1       1       8       1       1       8       1       1       8       1
       1       8       1       1       8       1       1       8       1       1
       8       1       1       8       1       1       8       1       1       8
       1       1       8       1       1       8       1       1       8       1
       1       8       1       1       8       1       1       8       1       1
       8       1       1       8       1       1       8       1       1       8
       1       1       8       1       1       8       1       1       8       1
       1       8       1       1       8       1       1       8       1       1
       8       1       1       8       1       1       8       1       1       8
       1       1       8       1       1       8       1       1       8       1
       1       8       1       1       8       1       1       8       1       1
       8       1       1       8       1       1       8       1       1       8
       1       1       8       1       1       8       1       1       8       1
       1       8       1       1       8       1       1       8       1       1
       8       1       1       8       1       1       8       1       1       8
       1       1       8       1       1       8       1       1       8       1
       1       8       1       1       8       1       1       8       1       1
       8       1       1       8       1       1       8       1       1       8
       1       1       8       1       1       8       1       1       8       1
       1       8       1       1       8       1       1       8       1       1
       8       1       1       8       1       1       8       1       1       8
       1       1       8       1       1       8       1       1       8       1
       1       8       1       1       8       1       1       8       1       1
       8       1       1       8       1       1       8       1       1       8
       1       1       8       1       1       8       1       1       8       1
       1       8       1       1       8       1       1       8       1       1
       8       1       1       8       1       1       8       1       1       8
       1       1       8       1       1       8       1       1       8       1
       1       8       1       1       8       1       1       8       1       1
       8       1       1       8       1       1       8       1       1       8
       1       1       8       1       1       8       1       1       8       1
       1       8       1       1       8       1       1       8       1       1
       8       1       1       8       1       1       8       1       1       8
       1       1       8       1       1       8       1       1       8       1
       1       8       1       1       8       1       1       8       1       1
       8       1       1       8       1       1       8       1       1       8
       1       1       8       1       1       8       1       1       8       1
       1       8       1       1       8       1       1       8       1       1
       8       1       1       8       1       1       8       1       1       8
       1       1       8       1       1       8       1       1       8       1
       1       8       1       1       8       1       1       8       1       1
       8       1       1       8       1       1       8       1       1       8
       1       1       8       1       1       8       1       1       8       1
       1       8       1       1       8       1       1       8       1       1
       8       1       1       8       1       1       8       1       1       8
       1       1       8       1       1       8       1       1       8       1
       1       8       1       1       8       1       1       8       1       1
       8       1       1       8       1       1       8       1       1       8
       1       1       8       1       1       8       1       1       8       1
       1       8       1       1       8       1       1       8       1       1
       8       1       1       8       1       1       8       1       1       8
       1       1       8       1       1       8       1       1       8       1
       1       8       1       1       8       1       1       8       1       1
       8       1       1       8       1       1       8       1       1       8
       1       1       8       1       1       8       1       1       8       1
       1       8       1       1       8       1       1       8       1       1
       8       1       1       8       1       1       8       1       1       8
       1       1       8       1       1       8       1       1       8       1
       1       8       1       1       8       1       1       8       1       1
       8       1       1       8       1       1       8       1       1       8
       1       1       8       1       1       8       1       1       8       1
       1       8       1       1       8       1       1       8       1       1
       8       1       1       8       1       1       8       1       1       8
       1       1       8       1       1       8       1       1       8       1
       1       8       1       1       8       1       1       8       1       1
       8       1       1       8       1       1       8       1       1       8
       1       1       8       1       1       8       1       1       8       1
       1       8       1       1       8       1       1       8       1       1
       8       1       1       8       1       1       8       1       1       8
       1       1       8       1       1       8       1       1       8       1
       1       8       1       1       8       1       1       8       1       1
       8       1       1       8       1       1       8       1       1       8
       1       1       8       1       1       8       1       1       8       1
       1       8       1       1       8       1       1       8       1       1
       8       1       1       8       1       1       8       1       1       8
       1       1       8       1       1       8       1       1       8       1
       1       8       1       1       8       1       1       8       1       1
       8       1       1       8       1       1       8       1       1       8
       1       1       8       1       1       8       1       1       8       1
       1       8       1       1       8       1       1       8       1       1
       8       1       1       8       1       1       8       1       1       8
       1       1       8       1       1       8       1       1       8       1
       1       8       1       1       8       1       1       8       1       1
       8       1       1       8       1       1       8       1       1       8
       1       1       8       1       1       8       1       1       8       1
       1       8       1       1       8       1       1       8       1       1
       8       1       1       8       1       1       8       1       1       8
       1       1       8       1       1       8       1       1       8       1
       1       8       1       1       8       1       1       8       1       1
       8       1       1       8       1       1       8       1       1       8
       1       1       8       1       1       8       1       1       8       1
       1       8       1       1       8       1       1       8       1       1
       8       1       1       8       1       1       8       1       1       8
       1       1       8       1       1       8       1       1       8       1
       1       8       1       1       8       1       1       8       1       1
       8       1       1       8       1       1       8       1       1       8
       1       1       8       1       1       8       1       1       8       1
       1       8       1       1       8       1       1       8       1       1
       8       1       1       8       1       1       8       1       1       8
       1       1       8       1       1       8       1       1       8       1
       1       8       1       1       8       1       1       8       1       1
       8       1       1       8       1       1       8       1       1       8
       1       1       8       1       1       8       1       1       8       1
       1       8       1       1       8       1       1       8       1       1
       8       1       1       8       1       1       8       1       1       8
       1       1       8       1       1       8       1       1       8       1
       1       8       1       1       8       1       1       8       1       1
       8       1       1       8       1       1       8       1       1       8
       1       1       8       1       1       8       1       1       8       1
       1       8       1       1       8       1       1       8       1       1
       8       1       1       8       1       1       8       1       1       8
       1       1       8       1       1       8       1       1       8       1
       1       8       1       1       8       1       1       8       1       1
       8       1       1       8       1       1       8       1       1       8
       1       1       8       1       1       8       1       1       8       1
       1       8       1       1       8       1       1       8       1       1
       8       1       1       8       1       1       8       1       1       8
       1       1       8       1       1       8       1       1       8       1
       1       8       1       1       8       1       1       8       1       1
       8       1       1       8       1       1       8       1       1       8
       1       1       8       1       1       8       1       1       8       1
       1       8       1       1       8       1       1       8       1       1
       8       1       1       8       1       1       8       1       1       8
       1       1       8       1       1       8       1       1       8       1
       1       8       1       1       8       1       1       8       1       1
       8       1       1       8       1       1       8       1       1       8
       1       1       8       1       1       8       1       1       8       1
       1       8       1       1       8       1       1       8       1       1
       8       1       1       8       1       1       8       1       1       8
       1       1       8       1       1       8       1       1       8       1
       1       8       1       1       8       1       1       8       1       1
       8       1       1       8       1       1       8       1       1       8
       1       1       8       1       1       8       1       1       8       1
       1       8       1       1       8       1       1       8       1       1
       8       1       1       8       1       1       8       1       1       8
       1       1       8       1       1       8       1       1       8       1
       1       8       1       1       8       1       1       8       1       1
       8       1       1       8       1       1       8       1       1       8
       1       1       8       1       1       8       1       1       8       1
       1       8       1       1       8       1       1       8       1       1
       8       1       1       8       1       1       8       1       1       8
       1       1       8       1       1       8       1       1       8       1
       1       8       1       1       8       1       1       8       1       1
       8       1       1       8       1       1       8       1       1       8
       1       1       8       1       1       8       1       1       8       1
       1       8       1       1       8       1       1       8       1       1
       8       1       1       8       1       1       8       1       1       8
       1       1       8       1       1       8       1       1       8       1
       1       8       1       1       8       1       1       8       1       1
       8       1       1       8       1       1       8       1       1       8
       1       1       8       1       1       8       1       1       8       1
       1       8       1       1       8       1       1       8       1       1
       8       1       1       8       1       1       8       1       1       8
       1       1       8       1       1       8       1       1       8       1
       1       8       1       1       8       1       1       8       1       1
       8       1       1       8       1       1       8       1       1       8
       1       1       8       1       1       8       1       1       8       1
       1       8       1       1       8       1       1       8       1       1
       8       1       1       8       1       1       8       1       1       8
       1       1       8       1       1       8       1       1       8       1
       1       8       1       1       8       1       1       8       1       1
       8       1       1       8       1       1       8       1       1       8
       1       1       8       1       1       8       1       1       8       1
       1       8       1       1       8       1       1       8       1       1
       8       1       1       8       1       1       8       1       1       8
       1       1       8       1       1       8       1       1       8       1
       1       8       1       1       8       1       1       8       1       1
       8       1       1       8       1       1       8       1       1       8
       1       1       8       1       1       8       1       1       8       1
       1       8       1       1       8       1       1       8       1       1
       8       1       1       8       1       1       8       1       1       8
       1       1       8       1       1       8       1       1       8       1
       1       8       1       1       8       1       1       8       1       1
       8       1       1       8       1       1       8       1       1       8
       1       1       8       1       1       8       1       1       8       1
       1       8       1       1       8       1       1       8       1       1
       8       1       1       8       1       1       8       1       1       8
       1       1       8       1       1       8       1       1       8       1
       1       8       1       1       8       1       1       8       1       1
       8       1       1       8       1       1       8       1       1       8
       1       1       8       1       1       8       1       1       8       1
       1       8       1       1       8       1       1       8       1       1
       8       1       1       8       1       1       8       1       1       8
       1       1       8       1       1       8       1       1       8       1
       1       8       1       1       8       1       1       8       1       1
       8       1       1       8       1       1       8       1       1       8
       1       1       8       1       1       8       1       1       8       1
       1       8       1       1       8       1       1       8       1       1
       8       1       1       8       1       1       8       1       1       8
       1       1       8       1       1       8       1       1       8       1
       1       8       1       1       8       1       1       8       1       1
       8       1       1       8       1       1       8       1       1       8
       1       1       8       1       1       8       1       1       8       1
       1       8       1       1       8       1       1       8       1       1
       8       1       1       8       1       1       8       1       1       8
       1       1       8       1       1       8       1       1       8       1
       1       8       1       1       8       1       1       8       1       1
       8       1       1       8       1       1       8       1       1       8
       1       1       8       1       1       8       1       1       8       1
       1       8       1       1       8       1       1       8       1       1
       8       1       1       8       1       1       8       1       1       8
       1       1       8       1       1       8       1       1       8       1
       1       8       1       1       8       1       1       8       1       1
       8       1       1       8       1       1       8       1       1       8
       1       1       8       1       1       8       1       1       8       1
       1       8       1       1       8       1       1       8       1       1
       8       1       1       8       1       1       8       1       1       8
       1       1       8       1       1       8       1       1       8       1
       1       8       1       1       8       1       1       8       1       1
       8       1       1       8       1       1       8       1       1       8
       1       1       8       1       1       8       1       1       8       1
       1       8       1       1       8       1       1       8       1       1
       8       1       1       8       1       1       8       1       1       8
       1       1       8       1       1       8       1       1       8       1
       1       8       1       1       8       1       1       8       1       1
       8       1       1       8       1       1       8       1       1       8
       1       1       8       1       1       8       1       1       8       1
       1       8       1       1       8       1       1       8       1       1
       8       1       1       8       1       1       8       1       1       8
       1       1       8       1       1       8       1       1       8       1
       1       8       1       1       8       1       1       8       1       1
       8       1       1       8       1       1       8       1       1       8
       1       1       8       1       1       8       1       1       8       1
       1       8       1       1       8       1       1       8       1       1
       8       1       1       8       1       1       8       1       1       8
       1       1       8       1       1       8       1       1       8       1
       1       8       1       1       8       1       1       8       1       1
       8       1       1       8       1       1       8       1       1       8
       1       1       8       1       1       8       1       1       8       1
       1       8       1       1       8       1       1       8       1       1
       8       1       1       8       1       1       8       1       1       8
       1       1       8       1       1       8       1       1       8       1
       1       8       1       1       8       1       1       8       1       1
       8       1       1       8       1       1       8       1       1       8
       1       1       8       1       1       8       1       1       8       1
       1       8       1       1       8       1       1       8       1       1
       8       1       1       8       1       1       8       1       1       8
       1       1       8       1       1       8       1       1       8       1
       1       8       1       1       8       1       1       8       1       1
       8       1       1       8       1       1       8       1       1       8
       1       1       8       1       1       8       1       1       8       1
       1       8       1       1       8       1       1       8       1       1
       8       1       1       8       1       1       8       1       1       8
       1       1       8       1       1       8       1       1       8       1
       1       8       1       1       8       1       1       8       1       1
       8       1       1       8       1       1       8       1       1       8
       1       1       8       1       1       8       1       1       8       1
       1       8       1       1       8       1       1       8       1       1
       8       1       1       8       1       1       8       1       1       8
       1       1       8       1       1       8       1       1       8       1
       1       8       1       1       8       1       1       8       1       1
       8       1       1       8       1       1       8       1       1       8
       1       1       8       1       1       8       1       1       8       1
       1       8       1       1       8       1       1       8       1       1
       8       1       1       8       1       1       8       1       1       8
       1       1       8       1       1       8       1       1       8       1
       1       8       1       1       8       1       1       8       1       1
       8       1       1       8       1       1       8       1       1       8
       1       1       8       1       1       8       1       1       8       1
       1       8       1       1       8       1       1       8       1       1
       8       1       1       8       1       1       8       1       1       8
       1       1       8       1       1       8       1       1       8       1
       1       8       1       1       8       1       1       8       1       1
       8       1       1       8       1       1       8       1       1       8
       1       1       8       1       1       8       1       1       8       1
       1       8       1       1       8       1       1       8       1       1
       8       1       1       8       1       1       8       1       1       8
       1       1       8       1       1       8       1       1       8       1
       1       8       1       1       8       1       1       8       1       1
       8       1       1       8       1       1       8       1       1       8
       1       1       8       1       1       8       1       1       8       1
       1       8       1       1       8       1       1       8       1       1
       8       1       1       8       1       1       8       1       1       8
       1       1       8       1       1       8       1       1       8       1
       1       8       1       1       8       1       1       8       1       1
       8       1       1       8       1       1       8       1       1       8
       1       1       8       1       1       8       1       1       8       1
       1       8       1       1       8       1       1       8       1       1
       8       1       1       8       1       1       8       1       1       8
       1       1       8       1       1       8       1       1       8       1
       1       8       1       1       8       1       1       8       1       1
       8       1       1       8       1       1       8       1       1       8
       1       1       8       1       1       8       1       1       8       1
       1       8       1       1       8       1       1       8       1       1
       8       1       1       8       1       1       8       1       1       8
       1       1       8       1       1       8       1       1       8       1
       1       8       1       1       8       1       1       8       1       1
       8       1       1       8       1       1       8       1       1       8
       1       1       8       1       1       8       1       1       8       1
       1       8       1       1       8       1       1       8       1       1
       8       1       1       8       1       1       8       1       1       8
       1       1       8       1       1       8       1       1       8       1
       1       8       1       1       8       1       1       8       1       1
       8       1       1       8       1       1       8       1       1       8
       1       1       8       1       1       8       1       1       8       1
       1       8       1       1       8       1       1       8       1       1
       8       1       1       8       1       1       8       1       1       8
       1       1       8       1       1       8       1       1       8       1
       1       8       1       1       8       1       1       8       1       1
       8       1       1       8       1       1       8       1       1       8
       1       1       8       1       1       8       1       1       8       1
       1       8       1       1       8       1       1       8       1       1
       8       1       1       8       1       1       8       1       1       8
       1       1       8       1       1       8       1       1       8       1
       1       8       1       1       8       1       1       8       1       1
       8       1       1       8       1       1       8       1       1       8
       1       1       8       1       1       8       1       1       8       1
       1       8       1       1       8       1       1       8       1       1
       8       1       1       8       1       1       8       1       1       8
       1       1       8       1       1       8       1       1       8       1
       1       8       1       1       8       1       1       8       1       1
       8       1       1       8       1       1       8       1       1       8
       1       1       8       1       1       8       1       1       8       1
       1       8       1       1       8       1       1       8       1       1
       8       1       1       8       1       1       8       1       1       8
       1       1       8       1       1       8       1       1       8       1
       1       8       1       1       8       1       1       8       1       1
       8       1       1       8       1       1       8       1       1       8
       1       1       8       1       1       8       1       1       8       1
       1       8       1       1       8       1       1       8       1       1
       8       1       1       8       1       1       8       1       1       8
       1       1       8       1       1       8       1       1       8       1
       1       8       1       1       8       1       1       8       1       1
       8       1       1       8       1       1       8       1       1       8
       1       1       8       1       1       8       1       1       8       1
       1       8       1       1       8       1       1       8       1       1
       8       1       1       8       1       1       8       1       1       8
       1       1       8       1       1       8       1       1       8       1
       1       8       1       1       8       1       1       8       1       1
       8       1       1       8       1       1       8       1       1       8
       1       1       8       1       1       8       1       1       8       1
       1       8       1       1       8       1       1       8       1       1
       8       1       1       8       1       1       8       1       1       8
       1       1       8       1       1       8       1       1       8       1
       1       8       1       1       8       1       1       8       1       1
       8       1       1       8       1       1       8       1       1       8
       1       1       8       1       1       8       1       1       8       1
       1       8       1       1       8       1       1       8       1       1
       8       1       1       8       1       1       8       1       1       8
       1       1       8       1       1       8       1       1       8       1
       1       8       1       1       8       1       1       8       1       1
       8       1       1       8       1       1       8       1       1       8
       1       1       8       1       1       8       1       1       8       1
       1       8       1       1       8       1       1       8       1       1
       8       1       1       8       1       1       8       1       1       8
       1       1       8       1       1       8       1       1       8       1
       1       8       1       1       8       1       1       8       1       1
       8       1       1       8       1       1       8       1       1       8
       1       1       8       1       1       8       1       1       8       1
       1       8       1       1       8       1       1       8       1       1
       8       1       1       8       1       1       8       1       1       8
       1       1       8       1       1       8       1       1       8       1
       1       8       1       1       8       1       1       8       1       1
       8       1       1       8       1       1       8       1       1       8
       1       1       8       1       1       8       1       1       8       1
       1       8       1       1       8       1       1       8       1       1
       8       1       1       8       1       1       8       1       1       8
       1       1       8       1       1       8       1       1       8       1
       1       8       1       1       8       1       1       8       1       1
       8       1       1       8       1       1       8       1       1       8
       1       1       8       1       1       8       1       1       8       1
       1       8       1       1       8       1       1       8       1       1
       8       1       1       8       1       1       8       1       1       8
       1       1       8       1       1       8       1       1       8       1
       1       8       1       1       8       1       1       8       1       1
       8       1       1       8       1       1       8       1       1       8
       1       1       8       1       1       8       1       1       8       1
       1       8       1       1       8       1       1       8       1       1
       8       1       1       8       1       1       8       1       1       8
       1       1       8       1       1       8       1       1       8       1
       1       8       1       1       8       1       1       8       1       1
       8       1       1       8       1       1       8       1       1       8
       1       1       8       1       1       8       1       1       8       1
       1       8       1       1       8       1       1       8       1       1
       8       1       1       8       1       1       8       1       1       8
       1       1       8       1       1       8       1       1       8       1
       1       8       1       1       8       1       1       8       1       1
       8       1       1       8       1       1       8       1       1       8
       1       1       8       1       1       8       1       1       8       1
       1       8       1       1       8       1       1       8       1       1
       8       1       1       8       1       1       8       1       1       8
       1       1       8       1       1       8       1       1       8       1
       1       8       1       1       8       1       1       8       1       1
       8       1       1       8       1       1       8       1       1       8
       1       1       8       1       1       8       1       1       8       1
       1       8       1       1       8       1       1       8       1       1
       8       1       1       8       1       1       8       1       1       8
       1       1       8       1       1       8       1       1       8       1
       1       8       1       1       8       1       1       8       1       1
       8       1       1       8       1       1       8       1       1       8
       1       1       8       1       1       8       1       1       8       1
       1       8       1       1       8       1       1       8       1       1
       8       1       1       8       1       1       8       1       1       8
       1       1       8       1       1       8       1       1       8       1
       1       8       1       1       8       1       1       8       1       1
       8       1       1       8       1       1       8       1       1       8
       1       1       8       1       1       8       1       1       8       1
       1       8       1       1       8       1       1       8       1       1
       8       1       1       8       1       1       8       1       1       8
       1       1       8       1       1       8       1       1       8       1
       1       8       1       1       8       1       1       8       1       1
       8       1       1       8       1       1       8       1       1       8
       1       1       8       1       1       8       1       1       8       1
       1       8       1       1       8       1       1       8       1       1
       8       1       1       8       1       1       8       1       1       8
       1       1       8       1       1       8       1       1       8       1
       1       8       1       1       8       1       1       8       1       1
       8       1       1       8       1       1       8       1       1       8
       1       1       8       1       1       8       1       1       8       1
       1       8       1       1       8       1       1       8       1       1
       8       1       1       8       1       1       8       1       1       8
       1       1       8       1       1       8       1       1       8       1
       1       8       1       1       8       1       1       8       1       1
       8       1       1       8       1       1       8       1       1       8
       1       1       8       1       1       8       1       1       8       1
       1       8       1       1       8       1       1       8       1       1
       8       1       1       8       1       1       8       1       1       8
       1       1       8       1       1       8       1       1       8       1
       1       8       1       1       8       1       1       8       1       1
       8       1       1       8       1       1       8       1       1       8
       1       1       8       1       1       8       1       1       8       1
       1       8       1       1       8       1       1       8       1       1
       8       1       1       8       1       1       8       1       1       8
       1       1       8       1       1       8       1       1       8       1
       1       8       1       1       8       1       1       8       1       1
       8       1       1       8       1       1       8       1       1       8
       1       1       8       1       1       8       1       1       8       1
       1       8       1       1       8       1       1       8       1       1
       8       1       1       8       1       1       8       1       1       8
       1       1       8       1       1       8       1       1       8       1
       1       8       1       1       8       1       1       8       1       1
       8       1       1       8       1       1       8       1       1       8
       1       1       8       1       1       8       1       1       8       1
       1       8       1       1       8       1       1       8       1       1
       8       1       1       8       1       1       8       1       1       8
       1       1       8       1       1       8       1       1       8       1
       1       8       1       1       8       1       1       8       1       1
       8       1       1       8       1       1       8       1       1       8
       1       1       8       1       1       8       1       1       8       1
       1       8       1       1       8       1       1       8       1       1
       8       1       1       8       1       1       8       1       1       8
       1       1       8       1       1       8       1       1       8       1
       1       8       1       1       8       1       1       8       1       1
       8       1       1       8       1       1       8       1       1       8
       1       1       8       1       1       8       1       1       8       1
       1       8       1       1       8       1       1       8       1       1
       8       1       1       8       1       1       8       1       1       8
       1       1       8       1       1       8       1       1       8       1
       1       8       1       1       8       1       1       8       1       1
       8       1       1       8       1       1       8       1       1       8
       1       1       8       1       1       8       1       1       8       1
       1       8       1       1       8       1       1       8       1       1
       8       1       1       8       1       1       8       1       1       8
       1       1       8       1       1       8       1       1       8       1
       1       8       1       1       8       1       1       8       1       1
       8       1       1       8       1       1       8       1       1       8
       1       1       8       1       1       8       1       1       8       1
       1       8       1       1       8       1       1       8       1       1
       8       1       1       8       1       1       8       1       1       8
       1       1       8       1       1       8       1       1       8       1
       1       8       1       1       8       1       1       8       1       1
       8       1       1       8       1       1       8       1       1       8
       1       1       8       1       1       8       1       1       8       1
       1       8       1       1       8       1       1       8       1       1
       8       1       1       8       1       1       8       1       1       8
       1       1       8       1       1       8       1       1       8       1
       1       8       1       1       8       1       1       8       1       1
       8       1       1       8       1       1       8       1       1       8
       1       1       8       1       1       8       1       1       8       1
       1       8       1       1       8       1       1       8       1       1
       8       1       1       8       1       1       8       1       1       8
       1       1       8       1       1       8       1       1       8       1
       1       8       1       1       8       1       1       8       1       1
       8       1       1       8       1       1       8       1       1       8
       1       1       8       1       1       8       1       1       8       1
       1       8       1       1       8       1       1       8       1       1
       8       1       1       8       1       1       8       1       1       8
       1       1       8       1       1       8       1       1       8       1
       1       8       1       1       8       1       1       8       1       1
       8       1       1       8       1       1       8       1       1       8
       1       1       8       1       1       8       1       1       8       1
       1       8       1       1       8       1       1       8       1       1
       8       1       1       8       1       1       8       1       1       8
       1       1       8       1       1       8       1       1       8       1
       1       8       1       1       8       1       1       8       1       1
       8       1       1       8       1       1       8       1       1       8
       1       1       8       1       1       8       1       1       8       1
       1       8       1       1       8       1       1       8       1       1
       8       1       1       8       1       1       8       1       1       8
       1       1       8       1       1       8       1       1       8       1
       1       8       1       1       8       1       1       8       1       1
       8       1       1       8       1       1       8       1       1       8
       1       1       8       1       1       8       1       1       8       1
       1       8       1       1       8       1       1       8       1       1
       8       1       1       8       1       1       8       1       1       8
       1       1       8       1       1       8       1       1       8       1
       1       8       1       1       8       1       1       8       1       1
       8       1       1       8       1       1       8       1       1       8
       1       1       8       1       1       8       1       1       8       1
       1       8       1       1       8       1       1       8       1       1
       8       1       1       8       1       1       8       1       1       8
       1       1       8       1       1       8       1       1       8       1
       1       8       1       1       8       1       1       8       1       1
       8       1       1       8       1       1       8       1       1       8
       1       1       8       1       1       8       1       1       8       1
       1       8       1       1       8       1       1       8       1       1
       8       1       1       8       1       1       8       1       1       8
       1       1       8       1       1       8       1       1       8       1
       1       8       1       1       8       1       1       8       1       1
       8       1       1       8       1       1       8       1       1       8
       1       1       8       1       1       8       1       1       8       1
       1       8       1       1       8       1       1       8       1       1
       8       1       1       8       1       1       8       1       1       8
       1       1       8       1       1       8       1       1       8       1
       1       8       1       1       8       1       1       8       1       1
       8       1       1       8       1       1       8       1       1       8
       1       1       8       1       1       8       1       1       8       1
       1       8       1       1       8       1       1       8       1       1
       8       1       1       8       1       1       8       1       1       8
       1       1       8       1       1       8       1       1       8       1
       1       8       1       1       8       1       1       8       1       1
       8       1       1       8       1       1       8       1       1       8
       1       1       8       1       1       8       1       1       8       1
       1       8       1       1       8       1       1       8       1       1
       8       1       1       8       1       1       8       1       1       8
       1       1       8       1       1       8       1       1       8       1
       1       8       1       1       8       1       1       8       1       1
       8       1       1       8       1       1       8       1       1       8
       1       1       8       1       1       8       1       1       8       1
       1       8       1       1       8       1       1       8       1       1
       8       1       1       8       1       1       8       1       1       8
       1       1       8       1       1       8       1       1       8       1
       1       8       1       1       8       1       1       8       1       1
       8       1       1       8       1       1       8       1       1       8
       1       1       8       1       1       8       1       1       8       1
       1       8       1       1       8       1       1       8       1       1
       8       1       1       8       1       1       8       1       1       8
       1       1       8       1       1       8       1       1       8       1
       1       8       1       1       8       1       1       8       1       1
       8       1       1       8       1       1       8       1       1       8
       1       1       8       1       1       8       1       1       8       1
       1       8       1       1       8       1       1       8       1       1
       8       1       1       8       1       1       8       1       1       8
       1       1       8       1       1       8       1       1       8       1
       1       8       1       1       8       1       1       8       1       1
       8       1       1       8       1       1       8       1       1       8
       1       1       8       1       1       8       1       1       8       1
       1       8       1       1       8       1       1       8       1       1
       8       1       1       8       1       1       8       1       1       8
       1       1       8       1       1       8       1       1       8       1
       1       8       1       1       8       1       1       8       1       1
       8       1       1       8       1       1       8       1       1       8
       1       1       8       1       1       8       1       1       8       1
       1       8       1       1       8       1       1       8       1       1
       8       1       1       8       1       1       8       1       1       8
       1       1       8       1       1       8       1       1       8       1
       1       8       1       1       8       1       1       8       1       1
       8       1       1       8       1       1       8       1       1       8
       1       1       8       1       1       8       1       1       8       1
       1       8       1       1       8       1       1       8       1       1
       8       1       1       8       1       1       8       1       1       8
       1       1       8       1       1       8       1       1       8       1
       1       8       1       1       8       1       1       8       1       1
       8       1       1       8       1       1       8       1       1       8
       1       1       8       1       1       8       1       1       8       1
       1       8       1       1       8       1       1       8       1       1
       8       1       1       8       1       1       8       1       1       8
       1       1       8       1       1       8       1       1       8       1
       1       8       1       1       8       1       1       8       1       1
       8       1       1       8       1       1       8       1       1       8
       1       1       8       1       1       8       1       1       8       1
       1       8       1       1       8       1       1       8       1       1
       8       1       1       8       1       1       8       1       1       8
       1       1       8       1       1       8       1       1       8       1
       1       8       1       1       8       1       1       8       1       1
       8       1       1       8       1       1       8       1       1       8
       1       1       8       1       1       8       1       1       8       1
       1       8       1       1       8       1       1       8       1       1
       8       1       1       8       1       1       8       1       1       8
       1       1       8       1       1       8       1       1       8       1
       1       8       1       1       8       1       1       8       1       1
       8       1       1       8       1       1       8       1       1       8
       1       1       8       1       1       8       1       1       8       1
       1       8       1       1       8       1       1       8       1       1
       8       1       1       8       1       1       8       1       1       8
       1       1       8       1       1       8       1       1       8       1
       1       8       1       1       8       1       1       8       1       1
       8       1       1       8       1       1       8       1       1       8
       1       1       8       1       1       8       1       1       8       1
       1       8       1       1       8       1       1       8       1       1
       8       1       1       8       1       1       8       1       1       8
       1       1       8       1       1       8       1       1       8       1
       1       8       1       1       8       1       1       8       1       1
       8       1       1       8       1       1       8       1       1       8
       1       1       8       1       1       8       1       1       8       1
       1       8       1       1       8       1       1       8       1       1
       8       1       1       8       1       1       8       1       1       8
       1       1       8       1       1       8       1       1       8       1
       1       8       1       1       8       1       1       8       1       1
       8       1       1       8       1       1       8       1       1       8
       1       1       8       1       1       8       1       1       8       1
       1       8       1       1       8       1       1       8       1       1
       8       1       1       8       1       1       8       1       1       8
       1       1       8       1       1       8       1       1       8       1
       1       8       1       1       8       1       1       8       1       1
       8       1       1       8       1       1       8       1       1       8
       1       1       8       1       1       8       1       1       8       1
       1       8       1       1       8       1       1       8       1       1
       8       1       1       8       1       1       8       1       1       8
       1       1       8       1       1       8       1       1       8       1
       1       8       1       1       8       1       1       8       1       1
       8       1       1       8       1       1       8       1       1       8
       1       1       8       1       1       8       1       1       8       1
       1       8       1       1       8       1       1       8       1       1
       8       1       1       8       1       1       8       1       1       8
       1       1       8       1       1       8       1       1       8       1
       1       8       1       1       8       1       1       8       1       1
       8       1       1       8       1       1       8       1       1       8
       1       1       8       1       1       8       1       1       8       1
       1       8       1       1       8       1       1       8       1       1
       8       1       1       8       1       1       8       1       1       8
       1       1       8       1       1       8       1       1       8       1
       1       8       1       1       8       1       1       8       1       1
       8       1       1       8       1       1       8       1       1       8
       1       1       8       1       1       8       1       1       8       1
       1       8       1       1       8       1       1       8       1       1
       8       1       1       8       1       1       8       1       1       8
       1       1       8       1       1       8       1       1       8       1
       1       8       1       1       8       1       1       8       1       1
       8       1       1       8       1       1       8       1       1       8
       1       1       8       1       1       8       1       1       8       1
       1       8       1       1       8       1       1       8       1       1
       8       1       1       8       1       1       8       1       1       8
       1       1       8       1       1       8       1       1       8       1
       1       8       1       1       8       1       1       8       1       1
       8       1       1       8       1       1       8       1       1       8
       1       1       8       1       1       8       1       1       8       1
       1       8       1       1       8       1       1       8       1       1
       8       1       1       8       1       1       8       1       1       8
       1       1       8       1       1       8       1       1       8       1
       1       8       1       1       8       1       1       8       1       1
       8       1       1       8       1       1       8       1       1       8
       1       1       8       1       1       8       1       1       8       1
       1       8       1       1       8       1       1       8       1       1
       8       1       1       8       1       1       8       1       1       8
       1       1       8       1       1       8       1       1       8       1
       1       8       1       1       8       1       1       8       1       1
       8       1       1       8       1       1       8       1       1       8
       1       1       8       1       1       8       1       1       8       1
       1       8       1       1       8       1       1       8       1       1
       8       1       1       8       1       1       8       1       1       8
       1       1       8       1       1       8       1       1       8       1
       1       8       1       1       8       1       1       8       1       1
       8       1       1       8       1       1       8       1       1       8
       1       1       8       1       1       8       1       1       8       1
       1       8       1       1       8       1       1       8       1       1
       8       1       1       8       1       1       8       1       1       8
       1       1       8       1       1       8       1       1       8       1
       1       8       1       1       8       1       1       8       1       1
       8       1       1       8       1       1       8       1       1       8
       1       1       8       1       1       8       1       1       8       1
       1       8       1       1       8       1       1       8       1       1
       8       1       1       8       1       1       8       1       1       8
       1       1       8       1       1       8       1       1       8       1
       1       8       1       1       8       1       1       8       1       1
       8       1       1       8       1       1       8       1       1       8
       1       1       8       1       1       8       1       1       8       1
       1       8       1       1       8       1       1       8       1       1
       8       1       1       8       1       1       8       1       1       8
       1       1       8       1       1       8       1       1       8       1
       1       8       1       1       8       1       1       8       1       1
       8       1       1       8       1       1       8       1       1       8
       1       1       8       1       1       8       1       1       8       1
       1       8       1       1       8       1       1       8       1       1
       8       1       1       8       1       1       8       1       1       8
       1       1       8       1       1       8       1       1       8       1
       1       8       1       1       8       1       1       8       1       1
       8       1       1       8       1       1       8       1       1       8
       1       1       8       1       1       8       1       1       8       1
       1       8       1       1       8       1       1       8       1       1
       8       1       1       8       1       1       8       1       1       8
       1       1       8       1       1       8       1       1       8       1
       1       8       1       1       8       1       1       8       1       1
       8       1       1       8       1       1       8       1       1       8
       1       1       8       1       1       8       1       1       8       1
       1       8       1       1       8       1       1       8       1       1
       8       1       1       8       1       1       8       1       1       8
       1       1       8       1       1       8       1       1       8       1
       1       8       1       1       8       1       1       8       1       1
       8       1       1       8       1       1       8       1       1       8
       1       1       8       1       1       8       1       1       8       1
       1       8       1       1       8       1       1       8       1       1
       8       1       1       8       1       1       8       1       1       8
       1       1       8       1       1       8       1       1       8       1
       1       8       1       1       8       1       1       8       1       1
       8       1       1       8       1       1       8       1       1       8
       1       1       8       1       1       8       1       1       8       1
       1       8       1       1       8       1       1       8       1       1
       8       1       1       8       1       1       8       1       1       8
       1       1       8       1       1       8       1       1       8       1
       1       8       1       1       8       1       1       8       1       1
       8       1       1       8       1       1       8       1       1       8
       1       1       8       1       1       8       1       1       8       1
       1       8       1       1       8       1       1       8       1       1
       8       1       1       8       1       1       8       1       1       8
       1       1       8       1       1       8       1       1       8       1
       1       8       1       1       8       1       1       8       1       1
       8       1       1       8       1       1       8       1       1       8
       1       1       8       1       1       8       1       1       8       1
       1       8       1       1       8       1       1       8       1       1
       8       1       1       8       1       1       8       1       1       8
       1       1       8       1       1       8       1       1       8       1
       1       8       1       1       8       1       1       8       1       1
       8       1       1       8       1       1       8       1       1       8
       1       1       8       1       1       8       1       1       8       1
       1       8       1       1       8       1       1       8       1       1
       8       1       1       8       1       1       8       1       1       8
       1       1       8       1       1       8       1       1       8       1
       1       8       1       1       8       1       1       8       1       1
       8       1       1       8       1       1       8       1       1       8
       1       1       8       1       1       8       1       1       8       1
       1       8       1       1       8       1       1       8       1       1
       8       1       1       8       1       1       8       1       1       8
       1       1       8       1       1       8       1       1       8       1
       1       8       1       1       8       1       1       8       1       1
       8       1       1       8       1       1       8       1       1       8
       1       1       8       1       1       8       1       1       8       1
       1       8       1       1       8       1       1       8       1       1
       8       1       1       8       1       1       8       1       1       8
       1       1       8       1       1       8       1       1       8       1
       1       8       1       1       8       1       1       8       1       1
       8       1       1       8       1       1       8       1       1       8
       1       1       8       1       1       8       1       1       8       1
       1       8       1       1       8       1       1       8       1       1
       8       1       1       8       1       1       8       1       1       8
       1       1       8       1       1       8       1       1       8       1
       1       8       1       1       8       1       1       8       1       1
       8       1       1       8       1       1       8       1       1       8
       1       1       8       1       1       8       1       1       8       1
       1       8       1       1       8       1       1       8       1       1
       8       1       1       8       1       1       8       1       1       8
       1       1       8       1       1       8       1       1       8       1
       1       8       1       1       8       1       1       8       1       1
       8       1       1       8       1       1       8       1       1       8
       1       1       8       1       1       8       1       1       8       1
       1       8       1       1       8       1       1       8       1       1
       8       1       1       8       1       1       8       1       1       8
       1       1       8       1       1       8       1       1       8       1
       1       8       1       1       8       1       1       8       1       1
       8       1       1       8       1       1       8       1       1       8
       1       1       8       1       1       8       1       1       8       1
       1       8       1       1       8       1       1       8       1       1
       8       1       1       8       1       1       8       1       1       8
       1       1       8       1       1       8       1       1       8       1
       1       8       1       1       8       1       1       8       1       1
       8       1       1       8       1       1       8       1       1       8
       1       1       8       1       1       8       1       1       8       1
       1       8       1       1       8       1       1       8       1       1
       8       1       1       8       1       1       8       1       1       8
       1       1       8       1       1       8       1       1       8       1
       1       8       1       1       8       1       1       8       1       1
       8       1       1       8       1       1       8       1       1       8
       1       1       8       1       1       8       1       1       8       1
       1       8       1       1       8       1       1       8       1       1
       8       1       1       8       1       1       8       1       1       8
       1       1       8       1       1       8       1       1       8       1
       1       8       1       1       8       1       1       8       1       1
       8       1       1       8       1       1       8       1       1       8
       1       1       8       1       1       8       1       1       8       1
       1       8       1       1       8       1       1       8       1       1
       8       1       1       8       1       1       8       1       1       8
       1       1       8       1       1       8       1       1       8       1
       1       8       1       1       8       1       1       8       1       1
       8       1       1       8       1       1       8       1       1       8
       1       1       8       1       1       8       1       1       8       1
       1       8       1       1       8       1       1       8       1       1
       8       1       1       8       1       1       8       1       1       8
       1       1       8       1       1       8       1       1       8       1
       1       8       1       1       8       1       1       8       1       1
       8       1       1       8       1       1       8       1       1       8
       1       1       8       1       1       8       1       1       8       1
       1       8       1       1       8       1       1       8       1       1
       8       1       1       8       1       1       8       1       1       8
       1       1       8       1       1       8       1       1       8       1
       1       8       1       1       8       1       1       8       1       1
       8       1       1       8       1       1       8       1       1       8
       1       1       8       1       1       8       1       1       8       1
       1       8       1       1       8       1       1       8       1       1
       8       1       1       8       1       1       8       1       1       8
       1       1       8       1       1       8       1       1       8       1
       1       8       1       1       8       1       1       8       1       1
       8       1       1       8       1       1       8       1       1       8
       1       1       8       1       1       8       1       1       8       1
       1       8       1       1       8       1       1       8       1       1
       8       1       1       8       1       1       8       1       1       8
       1       1       8       1       1       8       1       1       8       1
       1       8       1       1       8       1       1       8       1       1
       8       1       1       8       1       1       8       1       1       8
       1       1       8       1       1       8       1       1       8       1
       1       8       1       1       8       1       1       8       1       1
       8       1       1       8       1       1       8       1       1       8
       1       1       8       1       1       8       1       1       8       1
       1       8       1       1       8       1       1       8       1       1
       8       1       1       8       1       1       8       1       1       8
       1       1       8       1       1       8       1       1       8       1
       1       8       1       1       8       1       1       8       1       1
       8       1       1       8       1       1       8       1       1       8
       1       1       8       1       1       8       1       1       8       1
       1       8       1       1       8       1       1       8       1       1
       8       1       1       8       1       1       8       1       1       8
       1       1       8       1       1       8       1       1       8       1
       1       8       1       1       8       1       1       8       1       1
       8       1       1       8       1       1       8       1       1       8
       1       1       8       1       1       8       1       1       8       1
       1       8       1       1       8       1       1       8       1       1
       8       1       1       8       1       1       8       1       1       8
       1       1       8       1       1       8       1       1       8       1
       1       8       1       1       8       1       1       8       1       1
       8       1       1       8       1       1       8       1       1       8
       1       1       8       1       1       8       1       1       8       1
       1       8       1       1       8       1       1       8       1       1
       8       1       1       8       1       1       8       1       1       8
       1       1       8       1       1       8       1       1       8       1
       1       8       1       1       8       1       1       8       1       1
       8       1       1       8       1       1       8       1       1       8
       1       1       8       1       1       8       1       1       8       1
       1       8       1       1       8       1       1       8       1       1
       8       1       1       8       1       1       8       1       1       8
       1       1       8       1       1       8       1       1       8       1
       1       8       1       1       8       1       1       8       1       1
       8       1       1       8       1       1       8       1       1       8
       1       1       8       1       1       8       1       1       8       1
       1       8       1       1       8       1       1       8       1       1
       8       1       1       8       1       1       8       1       1       8
       1       1       8       1       1       8       1       1       8       1
       1       8       1       1       8       1       1       8       1       1
       8       1       1       8       1       1       8       1       1       8
       1       1       8       1       1       8       1       1       8       1
       1       8       1       1       8       1       1       8       1       1
       8       1       1       8       1       1       8       1       1       8
       1       1       8       1       1       8       1       1       8       1
       1       8       1       1       8       1       1       8       1       1
       8       1       1       8       1       1       8       1       1       8
       1       1       8       1       1       8       1       1       8       1
       1       8       1       1       8       1       1       8       1       1
       8       1       1       8       1       1       8       1       1       8
       1       1       8       1       1       8       1       1       8       1
       1       8       1       1       8       1       1       8       1       1
       8       1       1       8       1       1       8       1       1       8
       1       1       8       1       1       8       1       1       8       1
       1       8       1       1       8       1       1       8       1       1
       8       1       1       8       1       1       8       1       1       8
       1       1       8       1       1       8       1       1       8       1
       1       8       1       1       8       1       1       8       1       1
       8       1       1       8       1       1       8       1       1       8
       1       1       8       1       1       8       1       1       8       1
       1       8       1       1       8       1       1       8       1       1
       8       1       1       8       1       1       8       1       1       8
       1       1       8       1       1       8       1       1       8       1
       1       8       1       1       8       1       1       8       1       1
       8       1       1       8       1       1       8       1       1       8
       1       1       8       1       1       8       1       1       8       1
       1       8       1       1       8       1       1       8       1       1
       8       1       1       8       1       1       8       1       1       8
       1       1       8       1       1       8       1       1       8       1
       1       8       1       1       8       1       1       8       1       1
       8       1       1       8       1       1       8       1       1       8
       1       1       8       1       1       8       1       1       8       1
       1       8       1       1       8       1       1       8       1       1
       8       1       1       8       1       1       8       1       1       8
       1       1       8       1       1       8       1       1       8       1
       1       8       1       1       8       1       1       8       1       1
       8       1       1       8       1       1       8       1       1       8
       1       1       8       1       1       8       1       1       8       1
       1       8       1       1       8       1       1       8       1       1
       8       1       1       8       1       1       8       1       1       8
       1       1       8       1       1       8       1       1       8       1
       1       8       1       1       8       1       1       8       1       1
       8       1       1       8       1       1       8       1       1       8
       1       1       8       1       1       8       1       1       8       1
       1       8       1       1       8       1       1       8       1       1
       8       1       1       8       1       1       8       1       1       8
       1       1       8       1       1       8       1       1       8       1
       1       8       1       1       8       1       1       8       1       1
       8       1       1       8       1       1       8       1       1       8
       1       1       8       1       1       8       1       1       8       1
       1       8       1       1       8       1       1       8       1       1
       8       1       1       8       1       1       8       1       1       8
       1       1       8       1       1       8       1       1       8       1
       1       8       1       1       8       1       1       8       1       1
       8       1       1       8       1       1       8       1       1       8
       1       1       8       1       1       8       1       1       8       1
       1       8       1       1       8       1       1       8       1       1
       8       1       1       8       1       1       8       1       1       8
       1       1       8       1       1       8       1       1       8       1
       1       8       1       1       8       1       1       8       1       1
       8       1       1       8       1       1       8       1       1       8
       1       1       8       1       1       8       1       1       8       1
       1       8       1       1       8       1       1       8       1       1
       8       1       1       8       1       1       8       1       1       8
       1       1       8       1       1       8       1       1       8       1
       1       8       1       1       8       1       1       8       1       1
       8       1       1       8       1       1       8       1       1       8
       1       1       8       1       1       8       1       1       8       1
       1       8       1       1       8       1       1       8       1       1
       8       1       1       8       1       1       8       1       1       8
       1       1       8       1       1       8       1       1       8       1
       1       8       1       1       8       1       1       8       1       1
       8       1       1       8       1       1       8       1       1       8
       1       1       8       1       1       8       1       1       8       1
       1       8       1       1       8       1       1       8       1       1
       8       1       1       8       1       1       8       1       1       8
       1       1       8       1       1       8       1       1       8       1
       1       8       1       1       8       1       1       8       1       1
       8       1       1       8       1       1       8       1       1       8
       1       1       8       1       1       8       1       1       8       1
       1       8       1       1       8       1       1       8       1       1
       8       1       1       8       1       1       8       1       1       8
       1       1       8       1       1       8       1       1       8       1
       1       8       1       1       8       1       1       8       1       1
       8       1       1       8       1       1       8       1       1       8
       1       1       8       1       1       8       1       1       8       1
       1       8       1       1       8       1       1       8       1       1
       8       1       1       8       1       1       8       1       1       8
       1       1       8       1       1       8       1       1       8       1
       1       8       1       1       8       1       1       8       1       1
       8       1       1       8       1       1       8       1       1       8
       1       1       8       1       1       8       1       1       8       1
       1       8       1       1       8       1       1       8       1       1
       8       1       1       8       1       1       8       1       1       8
       1       1       8       1       1       8       1       1       8       1
       1       8       1       1       8       1       1       8       1       1
       8       1       1       8       1       1       8       1       1       8
       1       1       8       1       1       8       1       1       8       1
       1       8       1       1       8       1       1       8       1       1
       8       1       1       8       1       1       8       1       1       8
       1       1       8       1       1       8       1       1       8       1
       1       8       1       1       8       1       1       8       1       1
       8       1       1       8       1       1       8       1       1       8
       1       1       8       1       1       8       1       1       8       1
       1       8       1       1       8       1       1       8       1       1
       8       1       1       8       1       1       8       1       1       8
       1       1       8       1       1       8       1       1       8       1
       1       8       1       1       8       1       1       8       1       1
       8       1       1       8       1       1       8       1       1       8
       1       1       8       1       1       8       1       1       8       1
       1       8       1       1       8       1       1       8       1       1
       8       1       1       8       1       1       8       1       1       8
       1       1       8       1       1       8       1       1       8       1
       1       8       1       1       8       1       1       8       1       1
       8       1       1       8       1       1       8       1       1       8
       1       1       8       1       1       8       1       1       8       1
       1       8       1       1       8       1       1       8       1       1
       8       1       1       8       1       1       8       1       1       8
       1       1       8       1       1       8       1       1       8       1
       1       8       1       1       8       1       1       8       1       1
       8       1       1       8       1       1       8       1       1       8
       1       1       8       1       1       8       1       1       8       1
       1       8       1       1       8       1       1       8       1       1
       8       1       1       8       1       1       8       1       1       8
       1       1       8       1       1       8       1       1       8       1
       1       8       1       1       8       1       1       8       1       1
       8       1       1       8       1       1       8       1       1       8
       1       1       8       1       1       8       1       1       8       1
       1       8       1       1       8       1       1       8       1       1
       8       1       1       8       1       1       8       1       1       8
       1       1       8       1       1       8       1       1       8       1
       1       8       1       1       8       1       1       8       1       1
       8       1       1       8       1       1       8       1       1       8
       1       1       8       1       1       8       1       1       8       1
       1       8       1       1       8       1       1       8       1       1
       8       1       1       8       1       1       8       1       1       8
       1       1       8       1       1       8       1       1       8       1
       1       8       1       1       8       1       1       8       1       1
       8       1       1       8       1       1       8       1       1       8
       1       1       8       1       1       8       1       1       8       1
       1       8       1       1       8       1       1       8       1       1
       8       1       1       8       1       1       8       1       1       8
       1       1       8       1       1       8       1       1       8       1
       1       8       1       1       8       1       1       8       1       1
       8       1       1       8       1       1       8       1       1       8
       1       1       8       1       1       8       1       1       8       1
       1       8       1       1       8       1       1       8       1       1
       8       1       1       8       1       1       8       1       1       8
       1       1       8       1       1       8       1       1       8       1
       1       8       1       1       8       1       1       8       1       1
       8       1       1       8       1       1       8       1       1       8
       1       1       8       1       1       8       1       1       8       1
       1       8       1       1       8       1       1       8       1       1
       8       1       1       8       1       1       8       1       1       8
       1       1       8       1       1       8       1       1       8       1
       1       8       1       1       8       1       1       8       1       1
       8       1       1       8       1       1       8       1       1       8
       1       1       8       1       1       8       1       1       8       1
       1       8       1       1       8       1       1       8       1       1
       8       1       1       8       1       1       8       1       1       8
       1       1       8       1       1       8       1       1       8       1
       1       8       1       1       8       1       1       8       1       1
       8       1       1       8       1       1       8       1       1       8
       1       1       8       1       1       8       1       1       8       1
       1       8       1       1       8       1       1       8       1       1
       8       1       1       8       1       1       8       1       1       8
       1       1       8       1       1       8       1       1       8       1
       1       8       1       1       8       1       1       8       1       1
       8       1       1       8       1       1       8       1       1       8
       1       1       8       1       1       8       1       1       8       1
       1       8       1       1       8       1       1       8       1       1
       8       1       1       8       1       1       8       1       1       8
       1       1       8       1       1       8       1       1       8       1
       1       8       1       1       8       1       1       8       1       1
       8       1       1       8       1       1       8       1       1       8
       1       1       8       1       1       8       1       1       8       1
       1       8       1       1       8       1       1       8       1       1
       8       1       1       8       1       1       8       1       1       8
       1       1       8       1       1       8       1       1       8       1
       1       8       1       1       8       1       1       8       1       1
       8       1       1       8       1       1       8       1       1       8
       1       1       8       1       1       8       1       1       8       1
       1       8       1       1       8       1       1       8       1       1
       8       1       1       8       1       1       8       1       1       8
       1       1       8       1       1       8       1       1       8       1
       1       8       1       1       8       1       1       8       1       1
       8       1       1       8       1       1       8       1       1       8
       1       1       8       1       1       8       1       1       8       1
       1       8       1       1       8       1       1       8       1       1
       8       1       1       8       1       1       8       1       1       8
       1       1       8       1       1       8       1       1       8       1
       1       8       1       1       8       1       1       8       1       1
       8       1       1       8       1       1       8       1       1       8
       1       1       8       1       1       8       1       1       8       1
       1       8       1       1       8       1       1       8       1       1
       8       1       1       8       1       1       8       1       1       8
       1       1       8       1       1       8       1       1       8       1
       1       8       1       1       8       1       1       8       1       1
       8       1       1       8       1       1       8       1       1       8
       1       1       8       1       1       8       1       1       8       1
       1       8       1       1       8       1       1       8       1       1
       8       1       1       8       1       1       8       1       1       8
       1       1       8       1       1       8       1       1       8       1
       1       8       1       1       8       1       1       8       1       1
       8       1       1       8       1       1       8       1       1       8
       1       1       8       1       1       8       1       1       8       1
       1       8       1       1       8       1       1       8       1       1
       8       1       1       8       1       1       8       1       1       8
       1       1       8       1       1       8       1       1       8       1
       1       8       1       1       8       1       1       8       1       1
       8       1       1       8       1       1       8       1       1       8
       1       1       8       1       1       8       1       1       8       1
       1       8       1       1       8       1       1       8       1       1
       8       1       1       8       1       1       8       1       1       8
       1       1       8       1       1       8       1       1       8       1
       1       8       1       1       8       1       1       8       1       1
       8       1       1       8       1       1       8       1       1       8
       1       1       8       1       1       8       1       1       8       1
       1       8       1       1       8       1       1       8       1       1
       8       1       1       8       1       1       8       1       1       8
       1       1       8       1       1       8       1       1       8       1
       1       8       1       1       8       1       1       8       1       1
       8       1       1       8       1       1       8       1       1       8
       1       1       8       1       1       8       1       1       8       1
       1       8       1       1       8       1       1       8       1       1
       8       1       1       8       1       1       8       1       1       8
       1       1       8       1       1       8       1       1       8       1
       1       8       1       1       8       1       1       8       1       1
       8       1       1       8       1       1       8       1       1       8
       1       1       8       1       1       8       1       1       8       1
       1       8       1       1       8       1       1       8       1       1
       8       1       1       8       1       1       8       1       1       8
       1       1       8       1       1       8       1       1       8       1
       1       8       1       1       8       1       1       8       1       1
       8       1       1       8       1       1       8       1       1       8
       1       1       8       1       1       8       1       1       8       1
       1       8       1       1       8       1       1       8       1       1
       8       1       1       8       1       1       8       1       1       8
       1       1       8       1       1       8       1       1       8       1
       1       8       1       1       8       1       1       8       1       1
       8       1       1       8       1       1       8       1       1       8
       1       1       8       1       1       8       1       1       8       1
       1       8       1       1       8       1       1       8       1       1
       8       1       1       8       1       1       8       1       1       8
       1       1       8       1       1       8       1       1       8       1
       1       8       1       1       8       1       1       8       1       1
       8       1       1       8       1       1       8       1       1       8
       1       1       8       1       1       8       1       1       8       1
       1       8       1       1       8       1       1       8       1       1
       8       1       1       8       1       1       8       1       1       8
       1       1       8       1       1       8       1       1       8       1
       1       8       1       1       8       1       1       8       1       1
       8       1       1       8       1       1       8       1       1       8
       1       1       8       1       1       8       1       1       8       1
       1       8       1       1       8       1       1       8       1       1
       8       1       1       8       1       1       8       1       1       8
       1       1       8       1       1       8       1       1       8       1
       1       8       1       1       8       1       1       8       1       1
       8       1       1       8       1       1       8       1       1       8
       1       1       8       1       1       8       1       1       8       1
       1       8       1       1       8       1       1       8       1       1
       8       1       1       8       1       1       8       1       1       8
       1       1       8       1       1       8       1       1       8       1
       1       8       1       1       8       1       1       8       1       1
       8       1       1       8       1       1       8       1       1       8
       1       1       8       1       1       8       1       1       8       1
       1       8       1       1       8       1       1       8       1       1
       8       1       1       8       1       1       8       1       1       8
       1       1       8       1       1       8       1       1       8       1
       1       8       1       1       8       1       1       8       1       1
       8       1       1       8       1       1       8       1       1       8
       1       1       8       1       1       8       1       1       8       1
       1       8       1       1       8       1       1       8       1       1
       8       1       1       8       1       1       8       1       1       8
       1       1       8       1       1       8       1       1       8       1
       1       8       1       1       8       1       1       8       1       1
       8       1       1       8       1       1       8       1       1       8
       1       1       8       1       1       8       1       1       8       1
       1       8       1       1       8       1       1       8       1       1
       8       1       1       8       1       1       8       1       1       8
       1       1       8       1       1       8       1       1       8       1
       1       8       1       1       8       1       1       8       1       1
       8       1       1       8       1       1       8       1       1       8
       1       1       8       1       1       8       1       1       8       1
       1       8       1       1       8       1       1       8       1       1
       8       1       1       8       1       1       8       1       1       8
       1       1       8       1       1       8       1       1       8       1
       1       8       1       1       8       1       1       8       1       1
       8       1       1       8       1       1       8       1       1       8
       1       1       8       1       1       8       1       1       8       1
       1       8       1       1       8       1       1       8       1       1
       8       1       1       8       1       1       8       1       1       8
       1       1       8       1       1       8       1       1       8       1
       1       8       1       1       8       1       1       8       1       1
       8       1       1       8       1       1       8       1       1       8
       1       1       8       1       1       8       1       1       8       1
       1       8       1       1       8       1       1       8       1       1
       8       1       1       8       1       1       8       1       1       8
       1       1       8       1       1       8       1       1       8       1
       1       8       1       1       8       1       1       8       1       1
       8       1       1       8       1       1       8       1       1       8
       1       1       8       1       1       8       1       1       8       1
       1       8       1       1       8       1       1       8       1       1
       8       1       1       8       1       1       8       1       1       8
       1       1       8       1       1       8       1       1       8       1
       1       8       1       1       8       1       1       8       1       1
       8       1       1       8       1       1       8       1       1       8
       1       1       8       1       1       8       1       1       8       1
       1       8       1       1       8       1       1       8       1       1
       8       1       1       8       1       1       8       1       1       8
       1       1       8       1       1       8       1       1       8       1
       1       8       1       1       8       1       1       8       1       1
       8       1       1       8       1       1       8       1       1       8
       1       1       8       1       1       8       1       1       8       1
       1       8       1       1       8       1       1       8       1       1
       8       1       1       8       1       1       8       1       1       8
       1       1       8       1       1       8       1       1       8       1
       1       8       1       1       8       1       1       8       1       1
       8       1       1       8       1       1       8       1       1       8
       1       1       8       1       1       8       1       1       8       1
       1       8       1       1       8       1       1       8       1       1
       8       1       1       8       1       1       8       1       1       8
       1       1       8       1       1       8       1       1       8       1
       1       8       1       1       8       1       1       8       1       1
       8       1       1       8       1       1       8       1       1       8
       1       1       8       1       1       8       1       1       8       1
       1       8       1       1       8       1       1       8       1       1
       8       1       1       8       1       1       8       1       1       8
       1       1       8       1       1       8       1       1       8       1
       1       8       1       1       8       1       1       8       1       1
       8       1       1       8       1       1       8       1       1       8
       1       1       8       1       1       8       1       1       8       1
       1       8       1       1       8       1       1       8       1       1
       8       1       1       8       1       1       8       1       1       8
       1       1       8       1       1       8       1       1       8       1
       1       8       1       1       8       1       1       8       1       1
       8       1       1       8       1       1       8       1       1       8
       1       1       8       1       1       8       1       1       8       1
       1       8       1       1       8       1       1       8       1       1
       8       1       1       8       1       1       8       1       1       8
       1       1       8       1       1       8       1       1       8       1
       1       8       1       1       8       1       1       8       1       1
       8       1       1       8       1       1       8       1       1       8
       1       1       8       1       1       8       1       1       8       1
       1       8       1       1       8       1       1       8       1       1
       8       1       1       8       1       1       8       1       1       8
       1       1       8       1       1       8       1       1       8       1
       1       8       1       1       8       1       1       8       1       1
       8       1       1       8       1       1       8       1       1       8
       1       1       8       1       1       8       1       1       8       1
       1       8       1       1       8       1       1       8       1       1
       8       1       1       8       1       1       8       1       1       8
       1       1       8       1       1       8       1       1       8       1
       1       8       1       1       8       1       1       8       1       1
       8       1       1       8       1       1       8       1       1       8
       1       1       8       1       1       8       1       1       8       1
       1       8       1       1       8       1       1       8       1       1
       8       1       1       8       1       1       8       1       1       8
       1       1       8       1       1       8       1       1       8       1
       1       8       1       1       8       1       1       8       1       1
       8       1       1       8       1       1       8       1       1       8
       1       1       8       1       1       8       1       1       8       1
       1       8       1       1       8       1       1       8       1       1
       8       1       1       8       1       1       8       1       1       8
       1       1       8       1       1       8       1       1       8       1
       1       8       1       1       8       1       1       8       1       1
       8       1       1       8       1       1       8       1       1       8
       1       1       8       1       1       8       1       1       8       1
       1       8       1       1       8       1       1       8       1       1
       8       1       1       8       1       1       8       1       1       8
       1       1       8       1       1       8       1       1       8       1
       1       8       1       1       8       1       1       8       1       1
       8       1       1       8       1       1       8       1       1       8
       1       1       8       1       1       8       1       1       8       1
       1       8       1       1       8       1       1       8       1       1
       8       1       1       8       1       1       8       1       1       8
       1       1       8       1       1       8       1       1       8       1
       1       8       1       1       8       1       1       8       1       1
       8       1       1       8       1       1       8       1       1       8
       1       1       8       1       1       8       1       1       8       1
       1       8       1       1       8       1       1       8       1       1
       8       1       1       8       1       1       8       1       1       8
       1       1       8       1       1       8       1       1       8       1
       1       8       1       1       8       1       1       8       1       1
       8       1       1       8       1       1       8       1       1       8
       1       1       8       1       1       8       1       1       8       1
       1       8       1       1       8       1       1       8       1       1
       8       1       1       8       1       1       8       1       1       8
       1       1       8       1       1       8       1       1       8       1
       1       8       1       1       8       1       1       8       1       1
       8       1       1       8       1       1       8       1       1       8
       1       1       8       1       1       8       1       1       8       1
       1       8       1       1       8       1       1       8       1       1
       8       1       1       8       1       1       8       1       1       8
       1       1       8       1       1       8       1       1       8       1
       1       8       1       1       8       1       1       8       1       1
       8       1       1       8       1       1       8       1       1       8
       1       1       8       1       1       8       1       1       8       1
       1       8       1       1       8       1       1       8       1       1
       8       1       1       8       1       1       8       1       1       8
       1       1       8       1       1       8       1       1       8       1
       1       8       1       1       8       1       1       8       1       1
       8       1       1       8       1       1       8       1       1       8
       1       1       8       1       1       8       1       1       8       1
       1       8       1       1       8       1       1       8       1       1
       8       1       1       8       1       1       8       1       1       8
       1       1       8       1       1       8       1       1       8       1
       1       8       1       1       8       1       1       8       1       1
       8       1       1       8       1       1       8       1       1       8
       1       1       8       1       1       8       1       1       8       1
       1       8       1       1       8       1       1       8       1       1
       8       1       1       8       1       1       8       1       1       8
       1       1       8       1       1       8       1       1       8       1
       1       8       1       1       8       1       1       8       1       1
       8       1       1       8       1       1       8       1       1       8
       1       1       8       1       1       8       1       1       8       1
       1       8       1       1       8       1       1       8       1       1
       8       1       1       8       1       1       8       1       1       8
       1       1       8       1       1       8       1       1       8       1
       1       8       1       1       8       1       1       8       1       1
       8       1       1       8       1       1       8       1       1       8
       1       1       8       1       1       8       1       1       8       1
       1       8       1       1       8       1       1       8       1       1
       8       1       1       8       1       1       8       1       1       8
       1       1       8       1       1       8       1       1       8       1
       1       8       1       1       8       1       1       8       1       1
       8       1       1       8       1       1       8       1       1       8
       1       1       8       1       1       8       1       1       8       1
       1       8       1       1       8       1       1       8       1       1
       8       1       1       8       1       1       8       1       1       8
       1       1       8       1       1       8       1       1       8       1
       1       8       1       1       8       1       1       8       1       1
       8       1       1       8       1       1       8       1       1       8
       1       1       8       1       1       8       1       1       8       1
       1       8       1       1       8       1       1       8       1       1
       8       1       1       8       1       1       8       1       1       8
       1       1       8       1       1       8       1       1       8       1
       1       8       1       1       8       1       1       8       1       1
       8       1       1       8       1       1       8       1       1       8
       1       1       8       1       1       8       1       1       8       1
       1       8       1       1       8       1       1       8       1       1
       8       1       1       8       1       1       8       1       1       8
       1       1       8       1       1       8       1       1       8       1
       1       8       1       1       8       1       1       8       1       1
       8       1       1       8       1       1       8       1       1       8
       1       1       8       1       1       8       1       1       8       1
       1       8       1       1       8       1       1       8       1       1
       8       1       1       8       1       1       8       1       1       8
       1       1       8       1       1       8       1       1       8       1
       1       8       1       1       8       1       1       8       1       1
       8       1       1       8       1       1       8       1       1       8
       1       1       8       1       1       8       1       1       8       1
       1       8       1       1       8       1       1       8       1       1
       8       1       1       8       1       1       8       1       1       8
       1       1       8       1       1       8       1       1       8       1
       1       8       1       1       8       1       1       8       1       1
       8       1       1       8       1       1       8       1       1       8
       1       1       8       1       1       8       1       1       8       1
       1       8       1       1       8       1       1       8       1       1
       8       1       1       8       1       1       8       1       1       8
       1       1       8       1       1       8       1       1       8       1
       1       8       1       1       8       1       1       8       1       1
       8       1       1       8       1       1       8       1       1       8
       1       1       8       1       1       8       1       1       8       1
       1       8       1       1       8       1       1       8       1       1
       8       1       1       8       1       1       8       1       1       8
       1       1       8       1       1       8       1       1       8       1
       1       8       1       1       8       1       1       8       1       1
       8       1       1       8       1       1       8       1       1       8
       1       1       8       1       1       8       1       1       8       1
       1       8       1       1       8       1       1       8       1       1
       8       1       1       8       1       1       8       1       1       8
       1       1       8       1       1       8       1       1       8       1
       1       8       1       1       8       1       1       8       1       1
       8       1       1       8       1       1       8       1       1       8
       1       1       8       1       1       8       1       1       8       1
       1       8       1       1       8       1       1       8       1       1
       8       1       1       8       1       1       8       1       1       8
       1       1       8       1       1       8       1       1       8       1
       1       8       1       1       8       1       1       8       1       1
       8       1       1       8       1       1       8       1       1       8
       1       1       8       1       1       8       1       1       8       1
       1       8       1       1       8       1       1       8       1       1
       8       1       1       8       1       1       8       1       1       8
       1       1       8       1       1       8       1       1       8       1
       1       8       1       1       8       1       1       8       1       1
       8       1       1       8       1       1       8       1       1       8
       1       1       8       1       1       8       1       1       8       1
       1       8       1       1       8       1       1       8       1       1
       8       1       1       8       1       1       8       1       1       8
       1       1       8       1       1       8       1       1       8       1
       1       8       1       1       8       1       1       8       1       1
       8       1       1       8       1       1       8       1       1       8
       1       1       8       1       1       8       1       1       8       1
       1       8       1       1       8       1       1       8       1       1
       8       1       1       8       1       1       8       1       1       8
       1       1       8       1       1       8       1       1       8       1
       1       8       1       1       8       1       1       8       1       1
       8       1       1       8       1       1       8       1       1       8
       1       1       8       1       1       8       1       1       8       1
       1       8       1       1       8       1       1       8       1       1
       8       1       1       8       1       1       8       1       1       8
       1       1       8       1       1       8       1       1       8       1
       1       8       1       1       8       1       1       8       1       1
       8       1       1       8       1       1       8       1       1       8
       1       1       8       1       1       8       1       1       8       1
       1       8       1       1       8       1       1       8       1       1
       8       1       1       8       1       1       8       1       1       8
       1       1       8       1       1       8       1       1       8       1
       1       8       1       1       8       1       1       8       1       1
       8       1       1       8       1       1       8       1       1       8
       1       1       8       1       1       8       1       1       8       1
       1       8       1       1       8       1       1       8       1       1
       8       1       1       8       1       1       8       1       1       8
       1       1       8       1       1       8       1       1       8       1
       1       8       1       1       8       1       1       8       1       1
       8       1       1       8       1       1       8       1       1       8
       1       1       8       1       1       8       1       1       8       1
       1       8       1       1       8       1       1       8       1       1
       8       1       1       8       1       1       8       1       1       8
       1       1       8       1       1       8       1       1       8       1
       1       8       1       1       8       1       1       8       1       1
       8       1       1       8       1       1       8       1       1       8
       1       1       8       1       1       8       1       1       8       1
       1       8       1       1       8       1       1       8       1       1
       8       1       1       8       1       1       8       1       1       8
       1       1       8       1       1       8       1       1       8       1
       1       8       1       1       8       1       1       8       1       1
       8       1       1       8       1       1       8       1       1       8
       1       1       8       1       1       8       1       1       8       1
       1       8       1       1       8       1       1       8       1       1
       8       1       1       8       1       1       8       1       1       8
       1       1       8       1       1       8       1       1       8       1
       1       8       1       1       8       1       1       8       1       1
       8       1       1       8       1       1       8       1       1       8
       1       1       8       1       1       8       1       1       8       1
       1       8       1       1       8       1       1       8       1       1
       8       1       1       8       1       1       8       1       1       8
       1       1       8       1       1       8       1       1       8       1
       1       8       1       1       8       1       1       8       1       1
       8       1       1       8       1       1       8       1       1       8
       1       1       8       1       1       8       1       1       8       1
       1       8       1       1       8       1       1       8       1       1
       8       1       1       8       1       1       8       1       1       8
       1       1       8       1       1       8       1       1       8       1
       1       8       1       1       8       1       1       8       1       1
       8       1       1       8       1       1       8       1       1       8
       1       1       8       1       1       8       1       1       8       1
       1       8       1       1       8       1       1       8       1       1
       8       1       1       8       1       1       8       1       1       8
       1       1       8       1       1       8       1       1       8       1
       1       8       1       1       8       1       1       8       1       1
       8       1       1       8       1       1       8       1       1       8
       1       1       8       1       1       8       1       1       8       1
       1       8       1       1       8       1       1       8       1       1
       8       1       1       8       1       1       8       1       1       8
       1       1       8       1       1       8       1       1       8       1
       1       8       1       1       8       1       1       8       1       1
       8       1       1       8       1       1       8       1       1       8
       1       1       8       1       1       8       1       1       8       1
       1       8       1       1       8       1       1       8       1       1
       8       1       1       8       1       1       8       1       1       8
       1       1       8       1       1       8       1       1       8       1
       1       8       1       1       8       1       1       8       1       1
       8       1       1       8       1       1       8       1       1       8
       1       1       8       1       1       8       1       1       8       1
       1       8       1       1       8       1       1       8       1       1
       8       1       1       8       1       1       8       1       1       8
       1       1       8       1       1       8       1       1       8       1
       1       8       1       1       8       1       1       8       1       1
       8       1       1       8       1       1       8       1       1       8
       1       1       8       1       1       8       1       1       8       1
       1       8       1       1       8       1       1       8       1       1
       8       1       1       8       1       1       8       1       1       8
       1       1       8       1       1       8       1       1       8       1
       1       8       1       1       8       1       1       8       1       1
       8       1       1       8       1       1       8       1       1       8
       1       1       8       1       1       8       1       1       8       1
       1       8       1       1       8       1       1       8       1       1
       8       1       1       8       1       1       8       1       1       8
       1       1       8       1       1       8       1       1       8       1
       1       8       1       1       8       1       1       8       1       1
       8       1       1       8       1       1       8       1       1       8
       1       1       8       1       1       8       1       1       8       1
       1       8       1       1       8       1       1       8       1       1
       8       1       1       8       1       1       8       1       1       8
       1       1       8       1       1       8       1       1       8       1
       1       8       1       1       8       1       1       8       1       1
       8       1       1       8       1       1       8       1       1       8
       1       1       8       1       1       8       1       1       8       1
       1       8       1       1       8       1       1       8       1       1
       8       1       1       8       1       1       8       1       1       8
       1       1       8       1       1       8       1       1       8       1
       1       8       1       1       8       1       1       8       1       1
       8       1       1       8       1       1       8       1       1       8
       1       1       8       1       1       8       1       1       8       1
       1       8       1       1       8       1       1       8       1       1
       8       1       1       8       1       1       8       1       1       8
       1       1       8       1       1       8       1       1       8       1
       1       8       1       1       8       1       1       8       1       1
       8       1       1       8       1       1       8       1       1       8
       1       1       8       1       1       8       1       1       8       1
       1       8       1       1       8       1       1       8       1       1
       8       1       1       8       1       1       8       1       1       8
       1       1       8       1       1       8       1       1       8       1
       1       8       1       1       8       1       1       8       1       1
       8       1       1       8       1       1       8       1       1       8
       1       1       8       1       1       8       1       1       8       1
       1       8       1       1       8       1       1       8       1       1
       8       1       1       8       1       1       8       1       1       8
       1       1       8       1       1       8       1       1       8       1
       1       8       1       1       8       1       1       8       1       1
       8       1       1       8       1       1       8       1       1       8
       1       1       8       1       1       8       1       1       8       1
       1       8       1       1       8       1       1       8       1       1
       8       1       1       8       1       1       8       1       1       8
       1       1       8       1       1       8       1       1       8       1
       1       8       1       1       8       1       1       8       1       1
       8       1       1       8       1       1       8       1       1       8
       1       1       8       1       1       8       1       1       8       1
       1       8       1       1       8       1       1       8       1       1
       8       1       1       8       1       1       8       1       1       8
       1       1       8       1       1       8       1       1       8       1
       1       8       1       1       8       1       1       8       1       1
       8       1       1       8       1       1       8       1       1       8
       1       1       8       1       1       8       1       1       8       1
       1       8       1       1       8       1       1       8       1       1
       8       1       1       8       1       1       8       1       1       8
       1       1       8       1       1       8       1       1       8       1
       1       8       1       1       8       1       1       8       1       1
       8       1       1       8       1       1       8       1       1       8
       1       1       8       1       1       8       1       1       8       1
       1       8       1       1       8       1       1       8       1       1
       8       1       1       8       1       1       8       1       1       8
       1       1       8       1       1       8       1       1       8       1
       1       8       1       1       8       1       1       8       1       1
       8       1       1       8       1       1       8       1       1       8
       1       1       8       1       1       8       1       1       8       1
       1       8       1       1       8       1       1       8       1       1
       8       1       1       8       1       1       8       1       1       8
       1       1       8       1       1       8       1       1       8       1
       1       8       1       1       8       1       1       8       1       1
       8       1       1       8       1       1       8       1       1       8
       1       1       8       1       1       8       1       1       8       1
       1       8       1       1       8       1       1       8       1       1
       8       1       1       8       1       1       8       1       1       8
       1       1       8       1       1       8       1       1       8       1
       1       8       1       1       8       1       1       8       1       1
       8       1       1       8       1       1       8       1       1       8
       1       1       8       1       1       8       1       1       8       1
       1       8       1       1       8       1       1       8       1       1
       8       1       1       8       1       1       8       1       1       8
       1       1       8       1       1       8       1       1       8       1
       1       8       1       1       8       1       1       8       1       1
       8       1       1       8       1       1       8       1       1       8
       1       1       8       1       1       8       1       1       8       1
       1       8       1       1       8       1       1       8       1       1
       8       1       1       8       1       1       8       1       1       8
       1       1       8       1       1       8       1       1       8       1
       1       8       1       1       8       1       1       8       1       1
       8       1       1       8       1       1       8       1       1       8
       1       1       8       1       1       8       1       1       8       1
       1       8       1       1       8       1       1       8       1       1
       8       1       1       8       1       1       8       1       1       8
       1       1       8       1       1       8       1       1       8       1
       1       8       1       1       8       1       1       8       1       1
       8       1       1       8       1       1       8       1       1       8
       1       1       8       1       1       8       1       1       8       1
       1       8       1       1       8       1       1       8       1       1
       8       1       1       8       1       1       8       1       1       8
       1       1       8       1       1       8       1       1       8       1
       1       8       1       1       8       1       1       8       1       1
       8       1       1       8       1       1       8       1       1       8
       1       1       8       1       1       8       1       1       8       1
       1       8       1       1       8       1       1       8       1       1
       8       1       1       8       1       1       8       1       1       8
       1       1       8       1       1       8       1       1       8       1
       1       8       1       1       8       1       1       8       1       1
       8       1       1       8       1       1       8       1       1       8
       1       1       8       1       1       8       1       1       8       1
       1       8       1       1       8       1       1       8       1       1
       8       1       1       8       1       1       8       1       1       8
       1       1       8       1       1       8       1       1       8       1
       1       8       1       1       8       1       1       8       1       1
       8       1       1       8       1       1       8       1       1       8
       1       1       8       1       1       8       1       1       8       1
       1       8       1       1       8       1       1       8       1       1
       8       1       1       8       1       1       8       1       1       8
       1       1       8       1       1       8       1       1       8       1
       1       8       1       1       8       1       1       8       1       1
       8       1       1       8       1       1       8       1       1       8
       1       1       8       1       1       8       1       1       8       1
       1       8       1       1       8       1       1       8       1       1
       8       1       1       8       1       1       8       1       1       8
       1       1       8       1       1       8       1       1       8       1
       1       8       1       1       8       1       1       8       1       1
       8       1       1       8       1       1       8       1       1       8
       1       1       8       1       1       8       1       1       8       1
       1       8       1       1       8       1       1       8       1       1
       8       1       1       8       1       1       8       1       1       8
       1       1       8       1       1       8       1       1       8       1
       1       8       1       1       8       1       1       8       1       1
       8       1       1       8       1       1       8       1       1       8
       1       1       8       1       1       8       1       1       8       1
       1       8       1       1       8       1       1       8       1       1
       8       1       1       8       1       1       8       1       1       8
       1       1       8       1       1       8       1       1       8       1
       1       8       1       1       8       1       1       8       1       1
       8       1       1       8       1       1       8       1       1       8
       1       1       8       1       1       8       1       1       8       1
       1       8       1       1       8       1       1       8       1       1
       8       1       1       8       1       1       8       1       1       8
       1       1       8       1       1       8       1       1       8       1
       1       8       1       1       8       1       1       8       1       1
       8       1       1       8       1       1       8       1       1       8
       1       1       8       1       1       8       1       1       8       1
       1       8       1       1       8       1       1       8       1       1
       8       1       1       8       1       1       8       1       1       8
       1       1       8       1       1       8       1       1       8       1
       1       8       1       1       8       1       1       8       1       1
       8       1       1       8       1       1       8       1       1       8
       1       1       8       1       1       8       1       1       8       1
       1       8       1       1       8       1       1       8       1       1
       8       1       1       8       1       1       8       1       1       8
       1       1       8       1       1       8       1       1       8       1
       1       8       1       1       8       1       1       8       1       1
       8       1       1       8       1       1       8       1       1       8
       1       1       8       1       1       8       1       1       8       1
       1       8       1       1       8       1       1       8       1       1
       8       1       1       8       1       1       8       1       1       8
       1       1       8       1       1       8       1       1       8       1
       1       8       1       1       8       1       1       8       1       1
       8       1       1       8       1       1       8       1       1       8
       1       1       8       1       1       8       1       1       8       1
       1       8       1       1       8       1       1       8       1       1
       8       1       1       8       1       1       8       1       1       8
       1       1       8       1       1       8       1       1       8       1
       1       8       1       1       8       1       1       8       1       1
       8       1       1       8       1       1       8       1       1       8
       1       1       8       1       1       8       1       1       8       1
       1       8       1       1       8       1       1       8       1       1
       8       1       1       8       1       1       8       1       1       8
       1       1       8       1       1       8       1       1       8       1
       1       8       1       1       8       1       1       8       1       1
       8       1       1       8       1       1       8       1       1       8
       1       1       8       1       1       8       1       1       8       1
       1       8       1       1       8       1       1       8       1       1
       8       1       1       8       1       1       8       1       1       8
       1       1       8       1       1       8       1       1       8       1
       1       8       1       1       8       1       1       8       1       1
       8       1       1       8       1       1       8       1       1       8
       1       1       8       1       1       8       1       1       8       1
       1       8       1       1       8       1       1       8       1       1
       8       1       1       8       1       1       8       1       1       8
       1       1       8       1       1       8       1       1       8       1
       1       8       1       1       8       1       1       8       1       1
       8       1       1       8       1       1       8       1       1       8
       1       1       8       1       1       8       1       1       8       1
       1       8       1       1       8       1       1       8       1       1
       8       1       1       8       1       1       8       1       1       8
       1       1       8       1       1       8       1       1       8       1
       1       8       1       1       8       1       1       8       1       1
       8       1       1       8       1       1       8       1       1       8
       1       1       8       1       1       8       1       1       8       1
       1       8       1       1       8       1       1       8       1       1
       8       1       1       8       1       1       8       1       1       8
       1       1       8       1       1       8       1       1       8       1
       1       8       1       1       8       1       1       8       1       1
       8       1       1       8       1       1       8       1       1       8
       1       1       8       1       1       8       1       1       8       1
       1       8       1       1       8       1       1       8       1       1
       8       1       1       8       1       1       8       1       1       8
       1       1       8       1       1       8       1       1       8       1
       1       8       1       1       8       1       1       8       1       1
       8       1       1       8       1       1       8       1       1       8
       1       1       8       1       1       8       1       1       8       1
       1       8       1       1       8       1       1       8       1       1
       8       1       1       8       1       1       8       1       1       8
       1       1       8       1       1       8       1       1       8       1
       1       8       1       1       8       1       1       8       1       1
       8       1       1       8       1       1       8       1       1       8
       1       1       8       1       1       8       1       1       8       1
       1       8       1       1       8       1       1       8       1       1
       8       1       1       8       1       1       8       1       1       8
       1       1       8       1       1       8       1       1       8       1
       1       8       1       1       8       1       1       8       1       1
       8       1       1       8       1       1       8       1       1       8
       1       1       8       1       1       8       1       1       8       1
       1       8       1       1       8       1       1       8       1       1
       8       1       1       8       1       1       8       1       1       8
       1       1       8       1       1       8       1       1       8       1
       1       8       1       1       8       1       1       8       1       1
       8       1       1       8       1       1       8       1       1       8
       1       1       8       1       1       8       1       1       8       1
       1       8       1       1       8       1       1       8       1       1
       8       1       1       8       1       1       8       1       1       8
       1       1       8       1       1       8       1       1       8       1
       1       8       1       1       8       1       1       8       1       1
       8       1       1       8       1       1       8       1       1       8
       1       1       8       1       1       8       1       1       8       1
       1       8       1       1       8       1       1       8       1       1
       8       1       1       8       1       1       8       1       1       8
       1       1       8       1       1       8       1       1       8       1
       1       8       1       1       8       1       1       8       1       1
       8       1       1       8       1       1       8       1       1       8
       1       1       8       1       1       8       1       1       8       1
       1       8       1       1       8       1       1       8       1       1
       8       1       1       8       1       1       8       1       1       8
       1       1       8       1       1       8       1       1       8       1
       1       8       1       1       8       1       1       8       1       1
       8       1       1       8       1       1       8       1       1       8
       1       1       8       1       1       8       1       1       8       1
       1       8       1       1       8       1       1       8       1       1
       8       1       1       8       1       1       8       1       1       8
       1       1       8       1       1       8       1       1       8       1
       1       8       1       1       8       1       1       8       1       1
       8       1       1       8       1       1       8       1       1       8
       1       1       8       1       1       8       1       1       8       1
       1       8       1       1       8       1       1       8       1       1
       8       1       1       8       1       1       8       1       1       8
       1       1       8       1       1       8       1       1       8       1
       1       8       1       1       8       1       1       8       1       1
       8       1       1       8       1       1       8       1       1       8
       1       1       8       1       1       8       1       1       8       1
       1       8       1       1       8       1       1       8       1       1
       8       1       1       8       1       1       8       1       1       8
       1       1       8       1       1       8       1       1       8       1
       1       8       1       1       8       1       1       8       1       1
       8       1       1       8       1       1       8       1       1       8
       1       1       8       1       1       8       1       1       8       1
       1       8       1       1       8       1       1       8       1       1
       8       1       1       8       1       1       8       1       1       8
       1       1       8       1       1       8       1       1       8       1
       1       8       1       1       8       1       1       8       1       1
       8       1       1       8       1       1       8       1       1       8
       1       1       8       1       1       8       1       1       8       1
       1       8       1       1       8       1       1       8       1       1
       8       1       1       8       1       1       8       1       1       8
       1       1       8       1       1       8       1       1       8       1
       1       8       1       1       8       1       1       8       1       1
       8       1       1       8       1       1       8       1       1       8
       1       1       8       1       1       8       1       1       8       1
       1       8       1       1       8       1       1       8       1       1
       8       1       1       8       1       1       8       1       1       8
       1       1       8       1       1       8       1       1       8       1
       1       8       1       1       8       1       1       8       1       1
       8       1       1       8       1       1       8       1       1       8
       1       1       8       1       1       8       1       1       8       1
       1       8       1       1       8       1       1       8       1       1
       8       1       1       8       1       1       8       1       1       8
       1       1       8       1       1       8       1       1       8       1
       1       8       1       1       8       1       1       8       1       1
       8       1       1       8       1       1       8       1       1       8
       1       1       8       1       1       8       1       1       8       1
       1       8       1       1       8       1       1       8       1       1
       8       1       1       8       1       1       8       1       1       8
       1       1       8       1       1       8       1       1       8       1
       1       8       1       1       8       1       1       8       1       1
       8       1       1       8       1       1       8       1       1       8
       1       1       8       1       1       8       1       1       8       1
       1       8       1       1       8       1       1       8       1       1
       8       1       1       8       1       1       8       1       1       8
       1       1       8       1       1       8       1       1       8       1
       1       8       1       1       8       1       1       8       1       1
       8       1       1       8       1       1       8       1       1       8
       1       1       8       1       1       8       1       1       8       1
       1       8       1       1       8       1       1       8       1       1
       8       1       1       8       1       1       8       1       1       8
       1       1       8       1       1       8       1       1       8       1
       1       8       1       1       8       1       1       8       1       1
       8       1       1       8       1       1       8       1       1       8
       1       1       8       1       1       8       1       1       8       1
       1       8       1       1       8       1       1       8       1       1
       8       1       1       8       1       1       8       1       1       8
       1       1       8       1       1       8       1       1       8       1
       1       8       1       1       8       1       1       8       1       1
       8       1       1       8       1       1       8       1       1       8
       1       1       8       1       1       8       1       1       8       1
       1       8       1       1       8       1       1       8       1       1
       8       1       1       8       1       1       8       1       1       8
       1       1       8       1       1       8       1       1       8       1
       1       8       1       1       8       1       1       8       1       1
       8       1       1       8       1       1       8       1       1       8
       1       1       8       1       1       8       1       1       8       1
       1       8       1       1       8       1       1       8       1       1
       8       1       1       8       1       1       8       1       1       8
       1       1       8       1       1       8       1       1       8       1
       1       8       1       1       8       1       1       8       1       1
       8       1       1       8       1       1       8       1       1       8
       1       1       8       1       1       8       1       1       8       1
       1       8       1       1       8       1       1       8       1       1
       8       1       1       8       1       1       8       1       1       8
       1       1       8       1       1       8       1       1       8       1
       1       8       1       1       8       1       1       8       1       1
       8       1       1       8       1       1       8       1       1       8
       1       1       8       1       1       8       1       1       8       1
       1       8       1       1       8       1       1       8       1       1
       8       1       1       8       1       1       8       1       1       8
       1       1       8       1       1       8       1       1       8       1
       1       8       1       1       8       1       1       8       1       1
       8       1       1       8       1       1       8       1       1       8
       1       1       8       1       1       8       1       1       8       1
       1       8       1       1       8       1       1       8       1       1
       8       1       1       8       1       1       8       1       1       8
       1       1       8       1       1       8       1       1       8       1
       1       8       1       1       8       1       1       8       1       1
       8       1       1       8       1       1       8       1       1       8
       1       1       8       1       1       8       1       1       8       1
       1       8       1       1       8       1       1       8       1       1
       8       1       1       8       1       1       8       1       1       8
       1       1       8       1       1       8       1       1       8       1
       1       8       1       1       8       1       1       8       1       1
       8       1       1       8       1       1       8       1       1       8
       1       1       8       1       1       8       1       1       8       1
       1       8       1       1       8       1       1       8       1       1
       8       1       1       8       1       1       8       1       1       8
       1       1       8       1       1       8       1       1       8       1
       1       8       1       1       8       1       1       8       1       1
       8       1       1       8       1       1       8       1       1       8
       1       1       8       1       1       8       1       1       8       1
       1       8       1       1       8       1       1       8       1       1
       8       1       1       8       1       1       8       1       1       8
       1       1       8       1       1       8       1       1       8       1
       1       8       1       1       8       1       1       8       1       1
       8       1       1       8       1       1       8       1       1       8
       1       1       8       1       1       8       1       1       8       1
       1       8       1       1       8       1       1       8       1       1
       8       1       1       8       1       1       8       1       1       8
       1       1       8       1       1       8       1       1       8       1
       1       8       1       1       8       1       1       8       1       1
       8       1       1       8       1       1       8       1       1       8
       1       1       8       1       1       8       1       1       8       1
       1       8       1       1       8       1       1       8       1       1
       8       1       1       8       1       1       8       1       1       8
       1       1       8       1       1       8       1       1       8       1
       1       8       1       1       8       1       1       8       1       1
       8       1       1       8       1       1       8       1       1       8
       1       1       8       1       1       8       1       1       8       1
       1       8       1       1       8       1       1       8       1       1
       8       1       1       8       1       1       8       1       1       8
       1       1       8       1       1       8       1       1       8       1
       1       8       1       1       8       1       1       8       1       1
       8       1       1       8       1       1       8       1       1       8
       1       1       8       1       1       8       1       1       8       1
       1       8       1       1       8       1       1       8       1       1
       8       1       1       8       1       1       8       1       1       8
       1       1       8       1       1       8       1       1       8       1
       1       8       1       1       8       1       1       8       1       1
       8       1       1       8       1       1       8       1       1       8
       1       1       8       1       1       8       1       1       8       1
       1       8       1       1       8       1       1       8       1       1
       8       1       1       8       1       1       8       1       1       8
       1       1       8       1       1       8       1       1       8       1
       1       8       1       1       8       1       1       8       1       1
       8       1       1       8       1       1       8       1       1       8
       1       1       8       1       1       8       1       1       8       1
       1       8       1       1       8       1       1       8       1       1
       8       1       1       8       1       1       8       1       1       8
       1       1       8       1       1       8       1       1       8       1
       1       8       1       1       8       1       1       8       1       1
       8       1       1       8       1       1       8       1       1       8
       1       1       8       1       1       8       1       1       8       1
       1       8       1       1       8       1       1       8       1       1
       8       1       1       8       1       1       8       1       1       8
       1       1       8       1       1       8       1       1       8       1
       1       8       1       1       8       1       1       8       1       1
       8       1       1       8       1       1       8       1       1       8
       1       1       8       1       1       8       1       1       8       1
       1       8       1       1       8       1       1       8       1       1
       8       1       1       8       1       1       8       1       1       8
       1       1       8       1       1       8       1       1       8       1
       1       8       1       1       8       1       1       8       1       1
       8       1       1       8       1       1       8       1       1       8
       1       1       8       1       1       8       1       1       8       1
       1       8       1       1       8       1       1       8       1       1
       8       1       1       8       1       1       8       1       1       8
       1       1       8       1       1       8       1       1       8       1
       1       8       1       1       8       1       1       8       1       1
       8       1       1       8       1       1       8       1       1       8
       1       1       8       1       1       8       1       1       8       1
       1       8       1       1       8       1       1       8       1       1
       8       1       1       8       1       1       8       1       1       8
       1       1       8       1       1       8       1       1       8       1
       1       8       1       1       8       1       1       8       1       1
       8       1       1       8       1       1       8       1       1       8
       1       1       8       1       1       8       1       1       8       1
       1       8       1       1       8       1       1       8       1       1
       8       1       1       8       1       1       8       1       1       8
       1       1       8       1       1       8       1       1       8       1
       1       8       1       1       8       1       1       8       1       1
       8       1       1       8       1       1       8       1       1       8
       1       1       8       1       1       8       1       1       8       1
       1       8       1       1       8       1       1       8       1       1
       8       1       1       8       1       1       8       1       1       8
       1       1       8       1       1       8       1       1       8       1
       1       8       1       1       8       1       1       8       1       1
       8       1       1       8       1       1       8       1       1       8
       1       1       8       1       1       8       1       1       8       1
       1       8       1       1       8       1       1       8       1       1
       8       1       1       8       1       1       8       1       1       8
       1       1       8       1       1       8       1       1       8       1
       1       8       1       1       8       1       1       8       1       1
       8       1       1       8       1       1       8       1       1       8
       1       1       8       1       1       8       1       1       8       1
       1       8       1       1       8       1       1       8       1       1
       8       1       1       8       1       1       8       1       1       8
       1       1       8       1       1       8       1       1       8       1
       1       8       1       1       8       1       1       8       1       1
       8       1       1       8       1       1       8       1       1       8
       1       1       8       1       1       8       1       1       8       1
       1       8       1       1       8       1       1       8       1       1
       8       1       1       8       1       1       8       1       1       8
       1       1       8       1       1       8       1       1       8       1
       1       8       1       1       8       1       1       8       1       1
       8       1       1       8       1       1       8       1       1       8
       1       1       8       1       1       8       1       1       8       1
       1       8       1       1       8       1       1       8       1       1
       8       1       1       8       1       1       8       1       1       8
       1       1       8       1       1       8       1       1       8       1
       1       8       1       1       8       1       1       8       1       1
       8       1       1       8       1       1       8       1       1       8
       1       1       8       1       1       8       1       1       8       1
       1       8       1       1       8       1       1       8       1       1
       8       1       1       8       1       1       8       1       1       8
       1       1       8       1       1       8       1       1       8       1
       1       8       1       1       8       1       1       8       1       1
       8       1       1       8       1       1       8       1       1       8
       1       1       8       1       1       8       1       1       8       1
       1       8       1       1       8       1       1       8       1       1
       8       1       1       8       1       1       8       1       1       8
       1       1       8       1       1       8       1       1       8       1
       1       8       1       1       8       1       1       8       1       1
       8       1       1       8       1       1       8       1       1       8
       1       1       8       1       1       8       1       1       8       1
       1       8       1       1       8       1       1       8       1       1
       8       1       1       8       1       1       8       1       1       8
       1       1       8       1       1       8       1       1       8       1
       1       8       1       1       8       1       1       8       1       1
       8       1       1       8       1       1       8       1       1       8
       1       1       8       1       1       8       1       1       8       1
       1       8       1       1       8       1       1       8       1       1
       8       1       1       8       1       1       8       1       1       8
       1       1       8       1       1       8       1       1       8       1
       1       8       1       1       8       1       1       8       1       1
       8       1       1       8       1       1       8       1       1       8
       1       1       8       1       1       8       1       1       8       1
       1       8       1       1       8       1       1       8       1       1
       8       1       1       8       1       1       8       1       1       8
       1       1       8       1       1       8       1       1       8       1
       1       8       1       1       8       1       1       8       1       1
       8       1       1       8       1       1       8       1       1       8
       1       1       8       1       1       8       1       1       8       1
       1       8       1       1       8       1       1       8       1       1
       8       1       1       8       1       1       8       1       1       8
       1       1       8       1       1       8       1       1       8       1
       1       8       1       1       8       1       1       8       1       1
       8       1       1       8       1       1       8       1       1       8
       1       1       8       1       1       8       1       1       8       1
       1       8       1       1       8       1       1       8       1       1
       8       1       1       8       1       1       8       1       1       8
       1       1       8       1       1       8       1       1       8       1
       1       8       1       1       8       1       1       8       1       1
       8       1       1       8       1       1       8       1       1       8
       1       1       8       1       1       8       1       1       8       1
       1       8       1       1       8       1       1       8       1       1
       8       1       1       8       1       1       8       1       1       8
       1       1       8       1       1       8       1       1       8       1
       1       8       1       1       8       1       1       8       1       1
       8       1       1       8       1       1       8       1       1       8
       1       1       8       1       1       8       1       1       8       1
       1       8       1       1       8       1       1       8       1       1
       8       1       1       8       1       1       8       1       1       8
       1       1       8       1       1       8       1       1       8       1
       1       8       1       1       8       1       1       8       1       1
       8       1       1       8       1       1       8       1       1       8
       1       1       8       1       1       8       1       1       8       1
       1       8       1       1       8       1       1       8       1       1
       8       1       1       8       1       1       8       1       1       8
       1       1       8       1       1       8       1       1       8       1
       1       8       1       1       8       1       1       8       1       1
       8       1       1       8       1       1       8       1       1       8
       1       1       8       1       1       8       1       1       8       1
       1       8       1       1       8       1       1       8       1       1
       8       1       1       8       1       1       8       1       1       8
       1       1       8       1       1       8       1       1       8       1
       1       8       1       1       8       1       1       8       1       1
       8       1       1       8       1       1       8       1       1       8
       1       1       8       1       1       8       1       1       8       1
       1       8       1       1       8       1       1       8       1       1
       8       1       1       8       1       1       8       1       1       8
       1       1       8       1       1       8       1       1       8       1
       1       8       1       1       8       1       1       8       1       1
       8       1       1       8       1       1       8       1       1       8
       1       1       8       1       1       8       1       1       8       1
       1       8       1       1       8       1       1       8       1       1
       8       1       1       8       1       1       8       1       1       8
       1       1       8       1       1       8       1       1       8       1
       1       8       1       1       8       1       1       8       1       1
       8       1       1       8       1       1       8       1       1       8
       1       1       8       1       1       8       1       1       8       1
       1       8       1       1       8       1       1       8       1       1
       8       1       1       8       1       1       8       1       1       8
       1       1       8       1       1       8       1       1       8       1
       1       8       1       1       8       1       1       8       1       1
       8       1       1       8       1       1       8       1       1       8
       1       1       8       1       1       8       1       1       8       1
       1       8       1       1       8       1       1       8       1       1
       8       1       1       8       1       1       8       1       1       8
       1       1       8       1       1       8       1       1       8       1
       1       8       1       1       8       1       1       8       1       1
       8       1       1       8       1       1       8       1       1       8
       1       1       8       1       1       8       1       1       8       1
       1       8       1       1       8       1       1       8       1       1
       8       1       1       8       1       1       8       1       1       8
       1       1       8       1       1       8       1       1       8       1
       1       8       1       1       8       1       1       8       1       1
       8       1       1       8       1       1       8       1       1       8
       1       1       8       1       1       8       1       1       8       1
       1       8       1       1       8       1       1       8       1       1
       8       1       1       8       1       1       8       1       1       8
       1       1       8       1       1       8       1       1       8       1
       1       8       1       1       8       1       1       8       1       1
       8       1       1       8       1       1       8       1       1       8
       1       1       8       1       1       8       1       1       8       1
       1       8       1       1       8       1       1       8       1       1
       8       1       1       8       1       1       8       1       1       8
       1       1       8       1       1       8       1       1       8       1
       1       8       1       1       8       1       1       8       1       1
       8       1       1       8       1       1       8       1       1       8
       1       1       8       1       1       8       1       1       8       1
       1       8       1       1       8       1       1       8       1       1
       8       1       1       8       1       1       8       1       1       8
       1       1       8       1       1       8       1       1       8       1
       1       8       1       1       8       1       1       8       1       1
       8       1       1       8       1       1       8       1       1       8
       1       1       8       1       1       8       1       1       8       1
       1       8       1       1       8       1       1       8       1       1
       8       1       1       8       1       1       8       1       1       8
       1       1       8       1       1       8       1       1       8       1
       1       8       1       1       8       1       1       8       1       1
       8       1       1       8       1       1       8       1       1       8
       1       1       8       1       1       8       1       1       8       1
       1       8       1       1       8       1       1       8       1       1
       8       1       1       8       1       1       8       1       1       8
       1       1       8       1       1       8       1       1       8       1
       1       8       1       1       8       1       1       8       1       1
       8       1       1       8       1       1       8       1       1       8
       1       1       8       1       1       8       1       1       8       1
       1       8       1       1       8       1       1       8       1       1
       8       1       1       8       1       1       8       1       1       8
       1       1       8       1       1       8       1       1       8       1
       1       8       1       1       8       1       1       8       1       1
       8       1       1       8       1       1       8       1       1       8
       1       1       8       1       1       8       1       1       8       1
       1       8       1       1       8       1       1       8       1       1
       8       1       1       8       1       1       8       1       1       8
       1       1       8       1       1       8       1       1       8       1
       1       8       1       1       8       1       1       8       1       1
       8       1       1       8       1       1       8       1       1       8
       1       1       8       1       1       8       1       1       8       1
       1       8       1       1       8       1       1       8       1       1
       8       1       1       8       1       1       8       1       1       8
       1       1       8       1       1       8       1       1       8       1
       1       8       1       1       8       1       1       8       1       1
       8       1       1       8       1       1       8       1       1       8
       1       1       8       1       1       8       1       1       8       1
       1       8       1       1       8       1       1       8       1       1
       8       1       1       8       1       1       8       1       1       8
       1       1       8       1       1       8       1       1       8       1
       1       8       1       1       8       1       1       8       1       1
       8       1       1       8       1       1       8       1       1       8
       1       1       8       1       1       8       1       1       8       1
       1       8       1       1       8       1       1       8       1       1
       8       1       1       8       1       1       8       1       1       8
       1       1       8       1       1       8       1       1       8       1
       1       8       1       1       8       1       1       8       1       1
       8       1       1       8       1       1       8       1       1       8
       1       1       8       1       1       8       1       1       8       1
       1       8       1       1       8       1       1       8       1       1
       8       1       1       8       1       1       8       1       1       8
       1       1       8       1       1       8       1       1       8       1
       1       8       1       1       8       1       1       8       1       1
       8       1       1       8       1       1       8       1       1       8
       1       1       8       1       1       8       1       1       8       1
       1       8       1       1       8       1       1       8       1       1
       8       1       1       8       1       1       8       1       1       8
       1       1       8       1       1       8       1       1       8       1
       1       8       1       1       8       1       1       8       1       1
       8       1       1       8       1       1       8       1       1       8
       1       1       8       1       1       8       1       1       8       1
       1       8       1       1       8       1       1       8       1       1
       8       1       1       8       1       1       8       1       1       8
       1       1       8       1       1       8       1       1       8       1
       1       8       1       1       8       1       1       8       1       1
       8       1       1       8       1       1       8       1       1       8
       1       1       8       1       1       8       1       1       8       1
       1       8       1       1       8       1       1       8       1       1
       8       1       1       8       1       1       8       1       1       8
       1       1       8       1       1       8       1       1       8       1
       1       8       1       1       8       1       1       8       1       1
       8       1       1       8       1       1       8       1       1       8
       1       1       8       1       1       8       1       1       8       1
       1       8       1       1       8       1       1       8       1       1
       8       1       1       8       1       1       8       1       1       8
       1       1       8       1       1       8       1       1       8       1
       1       8       1       1       8       1       1       8       1       1
       8       1       1       8       1       1       8       1       1       8
       1       1       8       1       1       8       1       1       8       1
       1       8       1       1       8       1       1       8       1       1
       8       1       1       8       1       1       8       1       1       8
       1       1       8       1       1       8       1       1       8       1
       1       8       1       1       8       1       1       8       1       1
       8       1       1       8       1       1       8       1       1       8
       1       1       8       1       1       8       1       1       8       1
       1       8       1       1       8       1       1       8       1       1
       8       1       1       8       1       1       8       1       1       8
       1       1       8       1       1       8       1       1       8       1
       1       8       1       1       8       1       1       8       1       1
       8       1       1       8       1       1       8       1       1       8
       1       1       8       1       1       8       1       1       8       1
       1       8       1       1       8       1       1       8       1       1
       8       1       1       8       1       1       8       1       1       8
       1       1       8       1       1       8       1       1       8       1
       1       8       1       1       8       1       1       8       1       1
       8       1       1       8       1       1       8       1       1       8
       1       1       8       1       1       8       1       1       8       1
       1       8       1       1       8       1       1       8       1       1
       8       1       1       8       1       1       8       1       1       8
       1       1       8       1       1       8       1       1       8       1
       1       8       1       1       8       1       1       8       1       1
       8       1       1       8       1       1       8       1       1       8
       1       1       8       1       1       8       1       1       8       1
       1       8       1       1       8       1       1       8       1       1
       8       1       1       8       1       1       8       1       1       8
       1       1       8       1       1       8       1       1       8       1
       1       8       1       1       8       1       1       8       1       1
       8       1       1       8       1       1       8       1       1       8
       1       1       8       1       1       8       1       1       8       1
       1       8       1       1       8       1       1       8       1       1
       8       1       1       8       1       1       8       1       1       8
       1       1       8       1       1       8       1       1       8       1
       1       8       1       1       8       1       1       8       1       1
       8       1       1       8       1       1       8       1       1       8
       1       1       8       1       1       8       1       1       8       1
       1       8       1       1       8       1       1       8       1       1
       8       1       1       8       1       1       8       1       1       8
       1       1       8       1       1       8       1       1       8       1
       1       8       1       1       8       1       1       8       1       1
       8       1       1       8       1       1       8       1       1       8
       1       1       8       1       1       8       1       1       8       1
       1       8       1       1       8       1       1       8       1       1
       8       1       1       8       1       1       8       1       1       8
       1       1       8       1       1       8       1       1       8       1
       1       8       1       1       8       1       1       8       1       1
       8       1       1       8       1       1       8       1       1       8
       1       1       8       1       1       8       1       1       8       1
       1       8       1       1       8       1       1       8       1       1
       8       1       1       8       1       1       8       1       1       8
       1       1       8       1       1       8       1       1       8       1
       1       8       1       1       8       1       1       8       1       1
       8       1       1       8       1       1       8       1       1       8
       1       1       8       1       1       8       1       1       8       1
       1       8       1       1       8       1       1       8       1       1
       8       1       1       8       1       1       8       1       1       8
       1       1       8       1       1       8       1       1       8       1
       1       8       1       1       8       1       1       8       1       1
       8       1       1       8       1       1       8       1       1       8
       1       1       8       1       1       8       1       1       8       1
       1       8       1       1       8       1       1       8       1       1
       8       1       1       8       1       1       8       1       1       8
       1       1       8       1       1       8       1       1       8       1
       1       8       1       1       8       1       1       8       1       1
       8       1       1       8       1       1       8       1       1       8
       1       1       8       1       1       8       1       1       8       1
       1       8       1       1       8       1       1       8       1       1
       8       1       1       8       1       1       8       1       1       8
       1       1       8       1       1       8       1       1       8       1
       1       8       1       1       8       1       1       8       1       1
       8       1       1       8       1       1       8       1       1       8
       1       1       8       1       1       8       1       1       8       1
       1       8       1       1       8       1       1       8       1       1
       8       1       1       8       1       1       8       1       1       8
       1       1       8       1       1       8       1       1       8       1
       1       8       1       1       8       1       1       8       1       1
       8       1       1       8       1       1       8       1       1       8
       1       1       8       1       1       8       1       1       8       1
       1       8       1       1       8       1       1       8       1       1
       8       1       1       8       1       1       8       1       1       8
       1       1       8       1       1       8       1       1       8       1
       1       8       1       1       8       1       1       8       1       1
       8       1       1       8       1       1       8       1       1       8
       1       1       8       1       1       8       1       1       8       1
       1       8       1       1       8       1       1       8       1       1
       8       1       1       8       1       1       8       1       1       8
       1       1       8       1       1       8       1       1       8       1
       1       8       1       1       8       1       1       8       1       1
       8       1       1       8       1       1       8       1       1       8
       1       1       8       1       1       8       1       1       8       1
       1       8       1       1       8       1       1       8       1       1
       8       1       1       8       1       1       8       1       1       8
       1       1       8       1       1       8       1       1       8       1
       1       8       1       1       8       1       1       8       1       1
       8       1       1       8       1       1       8       1       1       8
       1       1       8       1       1       8       1       1       8       1
       1       8       1       1       8       1       1       8       1       1
       8       1       1       8       1       1       8       1       1       8
       1       1       8       1       1       8       1       1       8       1
       1       8       1       1       8       1       1       8       1       1
       8       1       1       8       1       1       8       1       1       8
       1       1       8       1       1       8       1       1       8       1
       1       8       1       1       8       1       1       8       1       1
       8       1       1       8       1       1       8       1       1       8
       1       1       8       1       1       8       1       1       8       1
       1       8       1       1       8       1       1       8       1       1
       8       1       1       8       1       1       8       1       1       8
       1       1       8       1       1       8       1       1       8       1
       1       8       1       1       8       1       1       8       1       1
       8       1       1       8       1       1       8       1       1       8
       1       1       8       1       1       8       1       1       8       1
       1       8       1       1       8       1       1       8       1       1
       8       1       1       8       1       1       8       1       1       8
       1       1       8       1       1       8       1       1       8       1
       1       8       1       1       8       1       1       8       1       1
       8       1       1       8       1       1       8       1       1       8
       1       1       8       1       1       8       1       1       8       1
       1       8       1       1       8       1       1       8       1       1
       8       1       1       8       1       1       8       1       1       8
       1       1       8       1       1       8       1       1       8       1
       1       8       1       1       8       1       1       8       1       1
       8       1       1       8       1       1       8       1       1       8
       1       1       8       1       1       8       1       1       8       1
       1       8       1       1       8       1       1       8       1       1
       8       1       1       8       1       1       8       1       1       8
       1       1       8       1       1       8       1       1       8       1
       1       8       1       1       8       1       1       8       1       1
       8       1       1       8       1       1       8       1       1       8
       1       1       8       1       1       8       1       1       8       1
       1       8       1       1       8       1       1       8       1       1
       8       1       1       8       1       1       8       1       1       8
       1       1       8       1       1       8       1       1       8       1
       1       8       1       1       8       1       1       8       1       1
       8       1       1       8       1       1       8       1       1       8
       1       1       8       1       1       8       1       1       8       1
       1       8       1       1       8       1       1       8       1       1
       8       1       1       8       1       1       8       1       1       8
       1       1       8       1       1       8       1       1       8       1
       1       8       1       1       8       1       1       8       1       1
       8       1       1       8       1       1       8       1       1       8
       1       1       8       1       1       8       1       1       8       1
       1       8       1       1       8       1       1       8       1       1
       8       1       1       8       1       1       8       1       1       8
       1       1       8       1       1       8       1       1       8       1
       1       8       1       1       8       1       1       8       1       1
       8       1       1       8       1       1       8       1       1       8
       1       1       8       1       1       8       1       1       8       1
       1       8       1       1       8       1       1       8       1       1
       8       1       1       8       1       1       8       1       1       8
       1       1       8       1       1       8       1       1       8       1
       1       8       1       1       8       1       1       8       1       1
       8       1       1       8       1       1       8       1       1       8
       1       1       8       1       1       8       1       1       8       1
       1       8       1       1       8       1       1       8       1       1
       8       1       1       8       1       1       8       1       1       8
       1       1       8       1       1       8       1       1       8       1
       1       8       1       1       8       1       1       8       1       1
       8       1       1       8       1       1       8       1       1       8
       1       1       8       1       1       8       1       1       8       1
       1       8       1       1       8       1       1       8       1       1
       8       1       1       8       1       1       8       1       1       8
       1       1       8       1       1       8       1       1       8       1
       1       8       1       1       8       1       1       8       1       1
       8       1       1       8       1       1       8       1       1       8
       1       1       8       1       1       8       1       1       8       1
       1       8       1       1       8       1       1       8       1       1
       8       1       1       8       1       1       8       1       1       8
       1       1       8       1       1       8       1       1       8       1
       1       8       1       1       8       1       1       8       1       1
       8       1       1       8       1       1       8       1       1       8
       1       1       8       1       1       8       1       1       8       1
       1       8       1       1       8       1       1       8       1       1
       8       1       1       8       1       1       8       1       1       8
       1       1       8       1       1       8       1       1       8       1
       1       8       1       1       8       1       1       8       1       1
       8       1       1       8       1       1       8       1       1       8
       1       1       8       1       1       8       1       1       8       1
       1       8       1       1       8       1       1       8       1       1
       8       1       1       8       1       1       8       1       1       8
       1       1       8       1       1       8       1       1       8       1
       1       8       1       1       8       1       1       8       1       1
       8       1       1       8       1       1       8       1       1       8
       1       1       8       1       1       8       1       1       8       1
       1       8       1       1       8       1       1       8       1       1
       8       1       1       8       1       1       8       1       1       8
       1       1       8       1       1       8       1       1       8       1
       1       8       1       1       8       1       1       8       1       1
       8       1       1       8       1       1       8       1       1       8
       1       1       8       1       1       8       1       1       8       1
       1       8       1       1       8       1       1       8       1       1
       8       1       1       8       1       1       8       1       1       8
       1       1       8       1       1       8       1       1       8       1
       1       8       1       1       8       1       1       8       1       1
       8       1       1       8       1       1       8       1       1       8
       1       1       8       1       1       8       1       1       8       1
       1       8       1       1       8       1       1       8       1       1
       8       1       1       8       1       1       8       1       1       8
       1       1       8       1       1       8       1       1       8       1
       1       8       1       1       8       1       1       8       1       1
       8       1       1       8       1       1       8       1       1       8
       1       1       8       1       1       8       1       1       8       1
       1       8       1       1       8       1       1       8       1       1
       8       1       1       8       1       1       8       1       1       8
       1       1       8       1       1       8       1       1       8       1
       1       8       1       1       8       1       1       8       1       1
       8       1       1       8       1       1       8       1       1       8
       1       1       8       1       1       8       1       1       8       1
       1       8       1       1       8       1       1       8       1       1
       8       1       1       8       1       1       8       1       1       8
       1       1       8       1       1       8       1       1       8       1
       1       8       1       1       8       1       1       8       1       1
       8       1       1       8       1       1       8       1       1       8
       1       1       8       1       1       8       1       1       8       1
       1       8       1       1       8       1       1       8       1       1
       8       1       1       8       1       1       8       1       1       8
       1       1       8       1       1       8       1       1       8       1
       1       8       1       1       8       1       1       8       1       1
       8       1       1       8       1       1       8       1       1       8
       1       1       8       1       1       8       1       1       8       1
       1       8       1       1       8       1       1       8       1       1
       8       1       1       8       1       1       8       1       1       8
       1       1       8       1       1       8       1       1       8       1
       1       8       1       1       8       1       1       8       1       1
       8       1       1       8       1       1       8       1       1       8
       1       1       8       1       1       8       1       1       8       1
       1       8       1       1       8       1       1       8       1       1
       8       1       1       8       1       1       8       1       1       8
       1       1       8       1       1       8       1       1       8       1
       1       8       1       1       8       1       1       8       1       1
       8       1       1       8       1       1       8       1       1       8
       1       1       8       1       1       8       1       1       8       1
       1       8       1       1       8       1       1       8       1       1
       8       1       1       8       1       1       8       1       1       8
       1       1       8       1       1       8       1       1       8       1
       1       8       1       1       8       1       1       8       1       1
       8       1       1       8       1       1       8       1       1       8
       1       1       8       1       1       8       1       1       8       1
       1       8       1       1       8       1       1       8       1       1
       8       1       1       8       1       1       8       1       1       8
       1       1       8       1       1       8       1       1       8       1
       1       8       1       1       8       1       1       8       1       1
       8       1       1       8       1       1       8       1       1       8
       1       1       8       1       1       8       1       1       8       1
       1       8       1       1       8       1       1       8       1       1
       8       1       1       8       1       1       8       1       1       8
       1       1       8       1       1       8       1       1       8       1
       1       8       1       1       8       1       1       8       1       1
       8       1       1       8       1       1       8       1       1       8
       1       1       8       1       1       8       1       1       8       1
       1       8       1       1       8       1       1       8       1       1
       8       1       1       8       1       1       8       1       1       8
       1       1       8       1       1       8       1       1       8       1
       1       8       1       1       8       1       1       8       1       1
       8       1       1       8       1       1       8       1       1       8
       1       1       8       1       1       8       1       1       8       1
       1       8       1       1       8       1       1       8       1       1
       8       1       1       8       1       1       8       1       1       8
       1       1       8       1       1       8       1       1       8       1
       1       8       1       1       8       1       1       8       1       1
       8       1       1       8       1       1       8       1       1       8
       1       1       8       1       1       8       1       1       8       1
       1       8       1       1       8       1       1       8       1       1
       8       1       1       8       1       1       8       1       1       8
       1       1       8       1       1       8       1       1       8       1
       1       8       1       1       8       1       1       8       1       1
       8       1       1       8       1       1       8       1       1       8
       1       1       8       1       1       8       1       1       8       1
       1       8       1       1       8       1       1       8       1       1
       8       1       1       8       1       1       8       1       1       8
       1       1       8       1       1       8       1       1       8       1
       1       8       1       1       8       1       1       8       1       1
       8       1       1       8       1       1       8       1       1       8
       1       1       8       1       1       8       1       1       8       1
       1       8       1       1       8       1       1       8       1       1
       8       1       1       8       1       1       8       1       1       8
       1       1       8       1       1       8       1       1       8       1
       1       8       1       1       8       1       1       8       1       1
       8       1       1       8       1       1       8       1       1       8
       1       1       8       1       1       8       1       1       8       1
       1       8       1       1       8       1       1       8       1       1
       8       1       1       8       1       1       8       1       1       8
       1       1       8       1       1       8       1       1       8       1
       1       8       1       1       8       1       1       8       1       1
       8       1       1       8       1       1       8       1       1       8
       1       1       8       1       1       8       1       1       8       1
       1       8       1       1       8       1       1       8       1       1
       8       1       1       8       1       1       8       1       1       8
       1       1       8       1       1       8       1       1       8       1
       1       8       1       1       8       1       1       8       1       1
       8       1       1       8       1       1       8       1       1       8
       1       1       8       1       1       8       1       1       8       1
       1       8       1       1       8       1       1       8       1       1
       8       1       1       8       1       1       8       1       1       8
       1       1       8       1       1       8       1       1       8       1
       1       8       1       1       8       1       1       8       1       1
       8       1       1       8       1       1       8       1       1       8
       1       1       8       1       1       8       1       1       8       1
       1       8       1       1       8       1       1       8       1       1
       8       1       1       8       1       1       8       1       1       8
       1       1       8       1       1       8       1       1       8       1
       1       8       1       1       8       1       1       8       1       1
       8       1       1       8       1       1       8       1       1       8
       1       1       8       1       1       8       1       1       8       1
       1       8       1       1       8       1       1       8       1       1
       8       1       1       8       1       1       8       1       1       8
       1       1       8       1       1       8       1       1       8       1
       1       8       1       1       8       1       1       8       1       1
       8       1       1       8       1       1       8       1       1       8
       1       1       8       1       1       8       1       1       8       1
       1       8       1       1       8       1       1       8       1       1
       8       1       1       8       1       1       8       1       1       8
       1       1       8       1       1       8       1       1       8       1
       1       8       1       1       8       1       1       8       1       1
       8       1       1       8       1       1       8       1       1       8
       1       1       8       1       1       8       1       1       8       1
       1       8       1       1       8       1       1       8       1       1
       8       1       1       8       1       1       8       1       1       8
       1       1       8       1       1       8       1       1       8       1
       1       8       1       1       8       1       1       8       1       1
       8       1       1       8       1       1       8       1       1       8
       1       1       8       1       1       8       1       1       8       1
       1       8       1       1       8       1       1       8       1       1
       8       1       1       8       1       1       8       1       1       8
       1       1       8       1       1       8       1       1       8       1
       1       8       1       1       8       1       1       8       1       1
       8       1       1       8       1       1       8       1       1       8
       1       1       8       1       1       8       1       1       8       1
       1       8       1       1       8       1       1       8       1       1
       8       1       1       8       1       1       8       1       1       8
       1       1       8       1       1       8       1       1       8       1
       1       8       1       1       8       1       1       8       1       1
       8       1       1       8       1       1       8       1       1       8
       1       1       8       1       1       8       1       1       8       1
       1       8       1       1       8       1       1       8       1       1
       8       1       1       8       1       1       8       1       1       8
       1       1       8       1       1       8       1       1       8       1
       1       8       1       1       8       1       1       8       1       1
       8       1       1       8       1       1       8       1       1       8
       1       1       8       1       1       8       1       1       8       1
       1       8       1       1       8       1       1       8       1       1
       8       1       1       8       1       1       8       1       1       8
       1       1       8       1       1       8       1       1       8       1
       1       8       1       1       8       1       1       8       1       1
       8       1       1       8       1       1       8       1       1       8
       1       1       8       1       1       8       1       1       8       1
       1       8       1       1       8       1       1       8       1       1
       8       1       1       8       1       1       8       1       1       8
       1       1       8       1       1       8       1       1       8       1
       1       8       1       1       8       1       1       8       1       1
       8       1       1       8       1       1       8       1       1       8
       1       1       8       1       1       8       1       1       8       1
       1       8       1       1       8       1       1       8       1       1
       8       1       1       8       1       1       8       1       1       8
       1       1       8       1       1       8       1       1       8       1
       1       8       1       1       8       1       1       8       1       1
       8       1       1       8       1       1       8       1       1       8
       1       1       8       1       1       8       1       1       8       1
       1       8       1       1       8       1       1       8       1       1
       8       1       1       8       1       1       8       1       1       8
       1       1       8       1       1       8       1       1       8       1
       1       8       1       1       8       1       1       8       1       1
       8       1       1       8       1       1       8       1       1       8
       1       1       8       1       1       8       1       1       8       1
       1       8       1       1       8       1       1       8       1       1
       8       1       1       8       1       1       8       1       1       8
       1       1       8       1       1       8       1       1       8       1
       1       8       1       1       8       1       1       8       1       1
       8       1       1       8       1       1       8       1       1       8
       1       1       8       1       1       8       1       1       8       1
       1       8       1       1       8       1       1       8       1       1
       8       1       1       8       1       1       8       1       1       8
       1       1       8       1       1       8       1       1       8       1
       1       8       1       1       8       1       1       8       1       1
       8       1       1       8       1       1       8       1       1       8
       1       1       8       1       1       8       1       1       8       1
       1       8       1       1       8       1       1       8       1       1
       8       1       1       8       1       1       8       1       1       8
       1       1       8       1       1       8       1       1       8       1
       1       8       1       1       8       1       1       8       1       1
       8       1       1       8       1       1       8       1       1       8
       1       1       8       1       1       8       1       1       8       1
       1       8       1       1       8       1       1       8       1       1
       8       1       1       8       1       1       8       1       1       8
       1       1       8       1       1       8       1       1       8       1
       1       8       1       1       8       1       1       8       1       1
       8       1       1       8       1       1       8       1       1       8
       1       1       8       1       1       8       1       1       8       1
       1       8       1       1       8       1       1       8       1       1
       8       1       1       8       1       1       8       1       1       8
       1       1       8       1       1       8       1       1       8       1
       1       8       1       1       8       1       1       8       1       1
       8       1       1       8       1       1       8       1       1       8
       1       1       8       1       1       8       1       1       8       1
       1       8       1       1       8       1       1       8       1       1
       8       1       1       8       1       1       8       1       1       8
       1       1       8       1       1       8       1       1       8       1
       1       8       1       1       8       1       1       8       1       1
       8       1       1       8       1       1       8       1       1       8
       1       1       8       1       1       8       1       1       8       1
       1       8       1       1       8       1       1       8       1       1
       8       1       1       8       1       1       8       1       1       8
       1       1       8       1       1       8       1       1       8       1
       1       8       1       1       8       1       1       8       1       1
       8       1       1       8       1       1       8       1       1       8
       1       1       8       1       1       8       1       1       8       1
       1       8       1       1       8       1       1       8       1       1
       8       1       1       8       1       1       8       1       1       8
       1       1       8       1       1       8       1       1       8       1
       1       8       1       1       8       1       1       8       1       1
       8       1       1       8       1       1       8       1       1       8
       1       1       8       1       1       8       1       1       8       1
       1       8       1       1       8       1       1       8       1       1
       8       1       1       8       1       1       8       1       1       8
       1       1       8       1       1       8       1       1       8       1
       1       8       1       1       8       1       1       8       1       1
       8       1       1       8       1       1       8       1       1       8
       1       1       8       1       1       8       1       1       8       1
       1       8       1       1       8       1       1       8       1       1
       8       1       1       8       1       1       8       1       1       8
       1       1       8       1       1       8       1       1       8       1
       1       8       1       1       8       1       1       8       1       1
       8       1       1       8       1       1       8       1       1       8
       1       1       8       1       1       8       1       1       8       1
       1       8       1       1       8       1       1       8       1       1
       8       1       1       8       1       1       8       1       1       8
       1       1       8       1       1       8       1       1       8       1
       1       8       1       1       8       1       1       8       1       1
       8       1       1       8       1       1       8       1       1       8
       1       1       8       1       1       8       1       1       8       1
       1       8       1       1       8       1       1       8       1       1
       8       1       1       8       1       1       8       1       1       8
       1       1       8       1       1       8       1       1       8       1
       1       8       1       1       8       1       1       8       1       1
       8       1       1       8       1       1       8       1       1       8
       1       1       8       1       1       8       1       1       8       1
       1       8       1       1       8       1       1       8       1       1
       8       1       1       8       1       1       8       1       1       8
       1       1       8       1       1       8       1       1       8       1
       1       8       1       1       8       1       1       8       1       1
       8       1       1       8       1       1       8       1       1       8
       1       1       8       1       1       8       1       1       8       1
       1       8       1       1       8       1       1       8       1       1
       8       1       1       8       1       1       8       1       1       8
       1       1       8       1       1       8       1       1       8       1
       1       8       1       1       8       1       1       8       1       1
       8       1       1       8       1       1       8       1       1       8
       1       1       8       1       1       8       1       1       8       1
       1       8       1       1       8       1       1       8       1       1
       8       1       1       8       1       1       8       1       1       8
       1       1       8       1       1       8       1       1       8       1
       1       8       1       1       8       1       1       8       1       1
       8       1       1       8       1       1       8       1       1       8
       1       1       8       1       1       8       1       1       8       1
       1       8       1       1       8       1       1       8       1       1
       8       1       1       8       1       1       8       1       1       8
       1       1       8       1       1       8       1       1       8       1
       1       8       1       1       8       1       1       8       1       1
       8       1       1       8       1       1       8       1       1       8
       1       1       8       1       1       8       1       1       8       1
       1       8       1       1       8       1       1       8       1       1
       8       1       1       8       1       1       8       1       1       8
       1       1       8       1       1       8       1       1       8       1
       1       8       1       1       8       1       1       8       1       1
       8       1       1       8       1       1       8       1       1       8
       1       1       8       1       1       8       1       1       8       1
       1       8       1       1       8       1       1       8       1       1
       8       1       1       8       1       1       8       1       1       8
       1       1       8       1       1       8       1       1       8       1
       1       8       1       1       8       1       1       8       1       1
       8       1       1       8       1       1       8       1       1       8
       1       1       8       1       1       8       1       1       8       1
       1       8       1       1       8       1       1       8       1       1
       8       1       1       8       1       1       8       1       1       8
       1       1       8       1       1       8       1       1       8       1
       1       8       1       1       8       1       1       8       1       1
       8       1       1       8       1       1       8       1       1       8
       1       1       8       1       1       8       1       1       8       1
       1       8       1       1       8       1       1       8       1       1
       8       1       1       8       1       1       8       1       1       8
       1       1       8       1       1       8       1       1       8       1
       1       8       1       1       8       1       1       8       1       1
       8       1       1       8       1       1       8       1       1       8
       1       1       8       1       1       8       1       1       8       1
       1       8       1       1       8       1       1       8       1       1
       8       1       1       8       1       1       8       1       1       8
       1       1       8       1       1       8       1       1       8       1
       1       8       1       1       8       1       1       8       1       1
       8       1       1       8       1       1       8       1       1       8
       1       1       8       1       1       8       1       1       8       1
       1       8       1       1       8       1       1       8       1       1
       8       1       1       8       1       1       8       1       1       8
       1       1       8       1       1       8       1       1       8       1
       1       8       1       1       8       1       1       8       1       1
       8       1       1       8       1       1       8       1       1       8
       1       1       8       1       1       8       1       1       8       1
       1       8       1       1       8       1       1       8       1       1
       8       1       1       8       1       1       8       1       1       8
       1       1       8       1       1       8       1       1       8       1
       1       8       1       1       8       1       1       8       1       1
       8       1       1       8       1       1       8       1       1       8
       1       1       8       1       1       8       1       1       8       1
       1       8       1       1       8       1       1       8       1       1
       8       1       1       8       1       1       8       1       1       8
       1       1       8       1       1       8       1       1       8       1
       1       8       1       1       8       1       1       8       1       1
       8       1       1       8       1       1       8       1       1       8
       1       1       8       1       1       8       1       1       8       1
       1       8       1       1       8       1       1       8       1       1
       8       1       1       8       1       1       8       1       1       8
       1       1       8       1       1       8       1       1       8       1
       1       8       1       1       8       1       1       8       1       1
       8       1       1       8       1       1       8       1       1       8
       1       1       8       1       1       8       1       1       8       1
       1       8       1       1       8       1       1       8       1       1
       8       1       1       8       1       1       8       1       1       8
       1       1       8       1       1       8       1       1       8       1
       1       8       1       1       8       1       1       8       1       1
       8       1       1       8       1       1       8       1       1       8
       1       1       8       1       1       8       1       1       8       1
       1       8       1       1       8       1       1       8       1       1
       8       1       1       8       1       1       8       1       1       8
       1       1       8       1       1       8       1       1       8       1
       1       8       1       1       8       1       1       8       1       1
       8       1       1       8       1       1       8       1       1       8
       1       1       8       1       1       8       1       1       8       1
       1       8       1       1       8       1       1       8       1       1
       8       1       1       8       1       1       8       1       1       8
       1       1       8       1       1       8       1       1       8       1
       1       8       1       1       8       1       1       8       1       1
       8       1       1       8       1       1       8       1       1       8
       1       1       8       1       1       8       1       1       8       1
       1       8       1       1       8       1       1       8       1       1
       8       1       1       8       1       1       8       1       1       8
       1       1       8       1       1       8       1       1       8       1
       1       8       1       1       8       1       1       8       1       1
       8       1       1       8       1       1       8       1       1       8
       1       1       8       1       1       8       1       1       8       1
       1       8       1       1       8       1       1       8       1       1
       8       1       1       8       1       1       8       1       1       8
       1       1       8       1       1       8       1       1       8       1
       1       8       1       1       8       1       1       8       1       1
       8       1       1       8       1       1       8       1       1       8
       1       1       8       1       1       8       1       1       8       1
       1       8       1       1       8       1       1       8       1       1
       8       1       1       8       1       1       8       1       1       8
       1       1       8       1       1       8       1       1       8       1
       1       8       1       1       8       1       1       8       1       1
       8       1       1       8       1       1       8       1       1       8
       1       1       8       1       1       8       1       1       8       1
       1       8       1       1       8       1       1       8       1       1
       8       1       1       8       1       1       8       1       1       8
       1       1       8       1       1       8       1       1       8       1
       1       8       1       1       8       1       1       8       1       1
       8       1       1       8       1       1       8       1       1       8
       1       1       8       1       1       8       1       1       8       1
       1       8       1       1       8       1       1       8       1       1
       8       1       1       8       1       1       8       1       1       8
       1       1       8       1       1       8       1       1       8       1
       1       8       1       1       8       1       1       8       1       1
       8       1       1       8       1       1       8       1       1       8
       1       1       8       1       1       8       1       1       8       1
       1       8       1       1       8       1       1       8       1       1
       8       1       1       8       1       1       8       1       1       8
       1       1       8       1       1       8       1       1       8       1
       1       8       1       1       8       1       1       8       1       1
       8       1       1       8       1       1       8       1       1       8
       1       1       8       1       1       8       1       1       8       1
       1       8       1       1       8       1       1       8       1       1
       8       1       1       8       1       1       8       1       1       8
       1       1       8       1       1       8       1       1       8       1
       1       8       1       1       8       1       1       8       1       1
       8       1       1       8       1       1       8       1       1       8
       1       1       8       1       1       8       1       1       8       1
       1       8       1       1       8       1       1       8       1       1
       8       1       1       8       1       1       8       1       1       8
       1       1       8       1       1       8       1       1       8       1
       1       8       1       1       8       1       1       8       1       1
       8       1       1       8       1       1       8       1       1       8
       1       1       8       1       1       8       1       1       8       1
       1       8       1       1       8       1       1       8       1       1
       8       1       1       8       1       1       8       1       1       8
       1       1       8       1       1       8       1       1       8       1
       1       8       1       1       8       1       1       8       1       1
       8       1       1       8       1       1       8       1       1       8
       1       1       8       1       1       8       1       1       8       1
       1       8       1       1       8       1       1       8       1       1
       8       1       1       8       1       1       8       1       1       8
       1       1       8       1       1       8       1       1       8       1
       1       8       1       1       8       1       1       8       1       1
       8       1       1       8       1       1       8       1       1       8
       1       1       8       1       1       8       1       1       8       1
       1       8       1       1       8       1       1       8       1       1
       8       1       1       8       1       1       8       1       1       8
       1       1       8       1       1       8       1       1       8       1
       1       8       1       1       8       1       1       8       1       1
       8       1       1       8       1       1       8       1       1       8
       1       1       8       1       1       8       1       1       8       1
       1       8       1       1       8       1       1       8       1       1
       8       1       1       8       1       1       8       1       1       8
       1       1       8       1       1       8       1       1       8       1
       1       8       1       1       8       1       1       8       1       1
       8       1       1       8       1       1       8       1       1       8
       1       1       8       1       1       8       1       1       8       1
       1       8       1       1       8       1       1       8       1       1
       8       1       1       8       1       1       8       1       1       8
       1       1       8       1       1       8       1       1       8       1
       1       8       1       1       8       1       1       8       1       1
       8       1       1       8       1       1       8       1       1       8
       1       1       8       1       1       8       1       1       8       1
       1       8       1       1       8       1       1       8       1       1
       8       1       1       8       1       1       8       1       1       8
       1       1       8       1       1       8       1       1       8       1
       1       8       1       1       8       1       1       8       1       1
       8       1       1       8       1       1       8       1       1       8
       1       1       8       1       1       8       1       1       8       1
       1       8       1       1       8       1       1       8       1       1
       8       1       1       8       1       1       8       1       1       8
       1       1       8       1       1       8       1       1       8       1
       1       8       1       1       8       1       1       8       1       1
       8       1       1       8       1       1       8       1       1       8
       1       1       8       1       1       8       1       1       8       1
       1       8       1       1       8       1       1       8       1       1
       8       1       1       8       1       1       8       1       1       8
       1       1       8       1       1       8       1       1       8       1
       1       8       1       1       8       1       1       8       1       1
       8       1       1       8       1       1       8       1       1       8
       1       1       8       1       1       8       1       1       8       1
       1       8       1       1       8       1       1       8       1       1
       8       1       1       8       1       1       8       1       1       8
       1       1       8       1       1       8       1       1       8       1
       1       8       1       1       8       1       1       8       1       1
       8       1       1       8       1       1       8       1       1       8
       1       1       8       1       1       8       1       1       8       1
       1       8       1       1       8       1       1       8       1       1
       8       1       1       8       1       1       8       1       1       8
       1       1       8       1       1       8       1       1       8       1
       1       8       1       1       8       1       1       8       1       1
       8       1       1       8       1       1       8       1       1       8
       1       1       8       1       1       8       1       1       8       1
       1       8       1       1       8       1       1       8       1       1
       8       1       1       8       1       1       8       1       1       8
       1       1       8       1       1       8       1       1       8       1
       1       8       1       1       8       1       1       8       1       1
       8       1       1       8       1       1       8       1       1       8
       1       1       8       1       1       8       1       1       8       1
       1       8       1       1       8       1       1       8       1       1
       8       1       1       8       1       1       8       1       1       8
       1       1       8       1       1       8       1       1       8       1
       1       8       1       1       8       1       1       8       1       1
       8       1       1       8       1       1       8       1       1       8
       1       1       8       1       1       8       1       1       8       1
       1       8       1       1       8       1       1       8       1       1
       8       1       1       8       1       1       8       1       1       8
       1       1       8       1       1       8       1       1       8       1
       1       8       1       1       8       1       1       8       1       1
       8       1       1       8       1       1       8       1       1       8
       1       1       8       1       1       8       1       1       8       1
       1       8       1       1       8       1       1       8       1       1
       8       1       1       8       1       1       8       1       1       8
       1       1       8       1       1       8       1       1       8       1
       1       8       1       1       8       1       1       8       1       1
       8       1       1       8       1       1       8       1       1       8
       1       1       8       1       1       8       1       1       8       1
       1       8       1       1       8       1       1       8       1       1
       8       1       1       8       1       1       8       1       1       8
       1       1       8       1       1       8       1       1       8       1
       1       8       1       1       8       1       1       8       1       1
       8       1       1       8       1       1       8       1       1       8
       1       1       8       1       1       8       1       1       8       1
       1       8       1       1       8       1       1       8       1       1
       8       1       1       8       1       1       8       1       1       8
       1       1       8       1       1       8       1       1       8       1
       1       8       1       1       8       1       1       8       1       1
       8       1       1       8       1       1       8       1       1       8
       1       1       8       1       1       8       1       1       8       1
       1       8       1       1       8       1       1       8       1       1
       8       1       1       8       1       1       8       1       1       8
       1       1       8       1       1       8       1       1       8       1
       1       8       1       1       8       1       1       8       1       1
       8       1       1       8       1       1       8       1       1       8
       1       1       8       1       1       8       1       1       8       1
       1       8       1       1       8       1       1       8       1       1
       8       1       1       8       1       1       8       1       1       8
       1       1       8       1       1       8       1       1       8       1
       1       8       1       1       8       1       1       8       1       1
       8       1       1       8       1       1       8       1       1       8
       1       1       8       1       1       8       1       1       8       1
       1       8       1       1       8       1       1       8       1       1
       8       1       1       8       1       1       8       1       1       8
       1       1       8       1       1       8       1       1       8       1
       1       8       1       1       8       1       1       8       1       1
       8       1       1       8       1       1       8       1       1       8
       1       1       8       1       1       8       1       1       8       1
       1       8       1       1       8       1       1       8       1       1
       8       1       1       8       1       1       8       1       1       8
       1       1       8       1       1       8       1       1       8       1
       1       8       1       1       8       1       1       8       1       1
       8       1       1       8       1       1       8       1       1       8
       1       1       8       1       1       8       1       1       8       1
       1       8       1       1       8       1       1       8       1       1
       8       1       1       8       1       1       8       1       1       8
       1       1       8       1       1       8       1       1       8       1
       1       8       1       1       8       1       1       8       1       1
       8       1       1       8       1       1       8       1       1       8
       1       1       8       1       1       8       1       1       8       1
       1       8       1       1       8       1       1       8       1       1
       8       1       1       8       1       1       8       1       1       8
       1       1       8       1       1       8       1       1       8       1
       1       8       1       1       8       1       1       8       1       1
       8       1       1       8       1       1       8       1       1       8
       1       1       8       1       1       8       1       1       8       1
       1       8       1       1       8       1       1       8       1       1
       8       1       1       8       1       1       8       1       1       8
       1       1       8       1       1       8       1       1       8       1
       1       8       1       1       8       1       1       8       1       1
       8       1       1       8       1       1       8       1       1       8
       1       1       8       1       1       8       1       1       8       1
       1       8       1       1       8       1       1       8       1       1
       8       1       1       8       1       1       8       1       1       8
       1       1       8       1       1       8       1       1       8       1
       1       8       1       1       8       1       1       8       1       1
       8       1       1       8       1       1       8       1       1       8
       1       1       8       1       1       8       1       1       8       1
       1       8       1       1       8       1       1       8       1       1
       8       1       1       8       1       1       8       1       1       8
       1       1       8       1       1       8       1       1       8       1
       1       8       1       1       8       1       1       8       1       1
       8       1       1       8       1       1       8       1       1       8
       1       1       8       1       1       8       1       1       8       1
       1       8       1       1       8       1       1       8       1       1
       8       1       1       8       1       1       8       1       1       8
       1       1       8       1       1       8       1       1       8       1
       1       8       1       1       8       1       1       8       1       1
       8       1       1       8       1       1       8       1       1       8
       1       1       8       1       1       8       1       1       8       1
       1       8       1       1       8       1       1       8       1       1
       8       1       1       8       1       1       8       1       1       8
       1       1       8       1       1       8       1       1       8       1
       1       8       1       1       8       1       1       8       1       1
       8       1       1       8       1       1       8       1       1       8
       1       1       8       1       1       8       1       1       8       1
       1       8       1       1       8       1       1       8       1       1
       8       1       1       8       1       1       8       1       1       8
       1       1       8       1       1       8       1       1       8       1
       1       8       1       1       8       1       1       8       1       1
       8       1       1       8       1       1       8       1       1       8
       1       1       8       1       1       8       1       1       8       1
       1       8       1       1       8       1       1       8       1       1
       8       1       1       8       1       1       8       1       1       8
       1       1       8       1       1       8       1       1       8       1
       1       8       1       1       8       1       1       8       1       1
       8       1       1       8       1       1       8       1       1       8
       1       1       8       1       1       8       1       1       8       1
       1       8       1       1       8       1       1       8       1       1
       8       1       1       8       1       1       8       1       1       8
       1       1       8       1       1       8       1       1       8       1
       1       8       1       1       8       1       1       8       1       1
       8       1       1       8       1       1       8       1       1       8
       1       1       8       1       1       8       1       1       8       1
       1       8       1       1       8       1       1       8       1       1
       8       1       1       8       1       1       8       1       1       8
       1       1       8       1       1       8       1       1       8       1
       1       8       1       1       8       1       1       8       1       1
       8       1       1       8       1       1       8       1       1       8
       1       1       8       1       1       8       1       1       8       1
       1       8       1       1       8       1       1       8       1       1
       8       1       1       8       1       1       8       1       1       8
       1       1       8       1       1       8       1       1       8       1
       1       8       1       1       8       1       1       8       1       1
       8       1       1       8       1       1       8       1       1       8
       1       1       8       1       1       8       1       1       8       1
       1       8       1       1       8       1       1       8       1       1
       8       1       1       8       1       1       8       1       1       8
       1       1       8       1       1       8       1       1       8       1
       1       8       1       1       8       1       1       8       1       1
       8       1       1       8       1       1       8       1       1       8
       1       1       8       1       1       8       1       1       8       1
       1       8       1       1       8       1       1       8       1       1
       8       1       1       8       1       1       8       1       1       8
       1       1       8       1       1       8       1       1       8       1
       1       8       1       1       8       1       1       8       1       1
       8       1       1       8       1       1       8       1       1       8
       1       1       8       1       1       8       1       1       8       1
       1       8       1       1       8       1       1       8       1       1
       8       1       1       8       1       1       8       1       1       8
       1       1       8       1       1       8       1       1       8       1
       1       8       1       1       8       1       1       8       1       1
       8       1       1       8       1       1       8       1       1       8
       1       1       8       1       1       8       1       1       8       1
       1       8       1       1       8       1       1       8       1       1
       8       1       1       8       1       1       8       1       1       8
       1       1       8       1       1       8       1       1       8       1
       1       8       1       1       8       1       1       8       1       1
       8       1       1       8       1       1       8       1       1       8
       1       1       8       1       1       8       1       1       8       1
       1       8       1       1       8       1       1       8       1       1
       8       1       1       8       1       1       8       1       1       8
       1       1       8       1       1       8       1       1       8       1
       1       8       1       1       8       1       1       8       1       1
       8       1       1       8       1       1       8       1       1       8
       1       1       8       1       1       8       1       1       8       1
       1       8       1       1       8       1       1       8       1       1
       8       1       1       8       1       1       8       1       1       8
       1       1       8       1       1       8       1       1       8       1
       1       8       1       1       8       1       1       8       1       1
       8       1       1       8       1       1       8       1       1       8
       1       1       8       1       1       8       1       1       8       1
       1       8       1       1       8       1       1       8       1       1
       8       1       1       8       1       1       8       1       1       8
       1       1       8       1       1       8       1       1       8       1
       1       8       1       1       8       1       1       8       1       1
       8       1       1       8       1       1       8       1       1       8
       1       1       8       1       1       8       1       1       8       1
       1       8       1       1       8       1       1       8       1       1
       8       1       1       8       1       1       8       1       1       8
       1       1       8       1       1       8       1       1       8       1
       1       8       1       1       8       1       1       8       1       1
       8       1       1       8       1       1       8       1       1       8
       1       1       8       1       1       8       1       1       8       1
       1       8       1       1       8       1       1       8       1       1
       8       1       1       8       1       1       8       1       1       8
       1       1       8       1       1       8       1       1       8       1
       1       8       1       1       8       1       1       8       1       1
       8       1       1       8       1       1       8       1       1       8
       1       1       8       1       1       8       1       1       8       1
       1       8       1       1       8       1       1       8       1       1
       8       1       1       8       1       1       8       1       1       8
       1       1       8       1       1       8       1       1       8       1
       1       8       1       1       8       1       1       8       1       1
       8       1       1       8       1       1       8       1       1       8
       1       1       8       1       1       8       1       1       8       1
       1       8       1       1       8       1       1       8       1       1
       8       1       1       8       1       1       8       1       1       8
       1       1       8       1       1       8       1       1       8       1
       1       8       1       1       8       1       1       8       1       1
       8       1       1       8       1       1       8       1       1       8
       1       1       8       1       1       8       1       1       8       1
       1       8       1       1       8       1       1       8       1       1
       8       1       1       8       1       1       8       1       1       8
       1       1       8       1       1       8       1       1       8       1
       1       8       1       1       8       1       1       8       1       1
       8       1       1       8       1       1       8       1       1       8
       1       1       8       1       1       8       1       1       8       1
       1       8       1       1       8       1       1       8       1       1
       8       1       1       8       1       1       8       1       1       8
       1       1       8       1       1       8       1       1       8       1
       1       8       1       1       8       1       1       8       1       1
       8       1       1       8       1       1       8       1       1       8
       1       1       8       1       1       8       1       1       8       1
       1       8       1       1       8       1       1       8       1       1
       8       1       1       8       1       1       8       1       1       8
       1       1       8       1       1       8       1       1       8       1
       1       8       1       1       8       1       1       8       1       1
       8       1       1       8       1       1       8       1       1       8
       1       1       8       1       1       8       1       1       8       1
       1       8       1       1       8       1       1       8       1       1
       8       1       1       8       1       1       8       1       1       8
       1       1       8       1       1       8       1       1       8       1
       1       8       1       1       8       1       1       8       1       1
       8       1       1       8       1       1       8       1       1       8
       1       1       8       1       1       8       1       1       8       1
       1       8       1       1       8       1       1       8       1       1
       8       1       1       8       1       1       8       1       1       8
       1       1       8       1       1       8       1       1       8       1
       1       8       1       1       8       1       1       8       1       1
       8       1       1       8       1       1       8       1       1       8
       1       1       8       1       1       8       1       1       8       1
       1       8       1       1       8       1       1       8       1       1
       8       1       1       8       1       1       8       1       1       8
       1       1       8       1       1       8       1       1       8       1
       1       8       1       1       8       1       1       8       1       1
       8       1       1       8       1       1       8       1       1       8
       1       1       8       1       1       8       1       1       8       1
       1       8       1       1       8       1       1       8       1       1
       8       1       1       8       1       1       8       1       1       8
       1       1       8       1       1       8       1       1       8       1
       1       8       1       1       8       1       1       8       1       1
       8       1       1       8       1       1       8       1       1       8
       1       1       8       1       1       8       1       1       8       1
       1       8       1       1       8       1       1       8       1       1
       8       1       1       8       1       1       8       1       1       8
       1       1       8       1       1       8       1       1       8       1
       1       8       1       1       8       1       1       8       1       1
       8       1       1       8       1       1       8       1       1       8
       1       1       8       1       1       8       1       1       8       1
       1       8       1       1       8       1       1       8       1       1
       8       1       1       8       1       1       8       1       1       8
       1       1       8       1       1       8       1       1       8       1
       1       8       1       1       8       1       1       8       1       1
       8       1       1       8       1       1       8       1       1       8
       1       1       8       1       1       8       1       1       8       1
       1       8       1       1       8       1       1       8       1       1
       8       1       1       8       1       1       8       1       1       8
       1       1       8       1       1       8       1       1       8       1
       1       8       1       1       8       1       1       8       1       1
       8       1       1       8       1       1       8       1       1       8
       1       1       8       1       1       8       1       1       8       1
       1       8       1       1       8       1       1       8       1       1
       8       1       1       8       1       1       8       1       1       8
       1       1       8       1       1       8       1       1       8       1
       1       8       1       1       8       1       1       8       1       1
       8       1       1       8       1       1       8       1       1       8
       1       1       8       1       1       8       1       1       8       1
       1       8       1       1       8       1       1       8       1       1
       8       1       1       8       1       1       8       1       1       8
       1       1       8       1       1       8       1       1       8       1
       1       8       1       1       8       1       1       8       1       1
       8       1       1       8       1       1       8       1       1       8
       1       1       8       1       1       8       1       1       8       1
       1       8       1       1       8       1       1       8       1       1
       8       1       1       8       1       1       8       1       1       8
       1       1       8       1       1       8       1       1       8       1
       1       8       1       1       8       1       1       8       1       1
       8       1       1       8       1       1       8       1       1       8
       1       1       8       1       1       8       1       1       8       1
       1       8       1       1       8       1       1       8       1       1
       8       1       1       8       1       1       8       1       1       8
       1       1       8       1       1       8       1       1       8       1
       1       8       1       1       8       1       1       8       1       1
       8       1       1       8       1       1       8       1       1       8
       1       1       8       1       1       8       1       1       8       1
       1       8       1       1       8       1       1       8       1       1
       8       1       1       8       1       1       8       1       1       8
       1       1       8       1       1       8       1       1       8       1
       1       8       1       1       8       1       1       8       1       1
       8       1       1       8       1       1       8       1       1       8
       1       1       8       1       1       8       1       1       8       1
       1       8       1       1       8       1       1       8       1       1
       8       1       1       8       1       1       8       1       1       8
       1       1       8       1       1       8       1       1       8       1
       1       8       1       1       8       1       1       8       1       1
       8       1       1       8       1       1       8       1       1       8
       1       1       8       1       1       8       1       1       8       1
       1       8       1       1       8       1       1       8       1       1
       8       1       1       8       1       1       8       1       1       8
       1       1       8       1       1       8       1       1       8       1
       1       8       1       1       8       1       1       8       1       1
       8       1       1       8       1       1       8       1       1       8
       1       1       8       1       1       8       1       1       8       1
       1       8       1       1       8       1       1       8       1       1
       8       1       1       8       1       1       8       1       1       8
       1       1       8       1       1       8       1       1       8       1
       1       8       1       1       8       1       1       8       1       1
       8       1       1       8       1       1       8       1       1       8
       1       1       8       1       1       8       1       1       8       1
       1       8       1       1       8       1       1       8       1       1
       8       1       1       8       1       1       8       1       1       8
       1       1       8       1       1       8       1       1       8       1
       1       8       1       1       8       1       1       8       1       1
       8       1       1       8       1       1       8       1       1       8
       1       1       8       1       1       8       1       1       8       1
       1       8       1       1       8       1       1       8       1       1
       8       1       1       8       1       1       8       1       1       8
       1       1       8       1       1       8       1       1       8       1
       1       8       1       1       8       1       1       8       1       1
       8       1       1       8       1       1       8       1       1       8
       1       1       8       1       1       8       1       1       8       1
       1       8       1       1       8       1       1       8       1       1
       8       1       1       8       1       1       8       1       1       8
       1       1       8       1       1       8       1       1       8       1
       1       8       1       1       8       1       1       8       1       1
       8       1       1       8       1       1       8       1       1       8
       1       1       8       1       1       8       1       1       8       1
       1       8       1       1       8       1       1       8       1       1
       8       1       1       8       1       1       8       1       1       8
       1       1       8       1       1       8       1       1       8       1
       1       8       1       1       8       1       1       8       1       1
       8       1       1       8       1       1       8       1       1       8
       1       1       8       1       1       8       1       1       8       1
       1       8       1       1       8       1       1       8       1       1
       8       1       1       8       1       1       8       1       1       8
       1       1       8       1       1       8       1       1       8       1
       1       8       1       1       8       1       1       8       1       1
       8       1       1       8       1       1       8       1       1       8
       1       1       8       1       1       8       1       1       8       1
       1       8       1       1       8       1       1       8       1       1
       8       1       1       8       1       1       8       1       1       8
       1       1       8       1       1       8       1       1       8       1
       1       8       1       1       8       1       1       8       1       1
       8       1       1       8       1       1       8       1       1       8
       1       1       8       1       1       8       1       1       8       1
       1       8       1       1       8       1       1       8       1       1
       8       1       1       8       1       1       8       1       1       8
       1       1       8       1       1       8       1       1       8       1
       1       8       1       1       8       1       1       8       1       1
       8       1       1       8       1       1       8       1       1       8
       1       1       8       1       1       8       1       1       8       1
       1       8       1       1       8       1       1       8       1       1
       8       1       1       8       1       1       8       1       1       8
       1       1       8       1       1       8       1       1       8       1
       1       8       1       1       8       1       1       8       1       1
       8       1       1       8       1       1       8       1       1       8
       1       1       8       1       1       8       1       1       8       1
       1       8       1       1       8       1       1       8       1       1
       8       1       1       8       1       1       8       1       1       8
       1       1       8       1       1       8       1       1       8       1
       1       8       1       1       8       1       1       8       1       1
       8       1       1       8       1       1       8       1       1       8
       1       1       8       1       1       8       1       1       8       1
       1       8       1       1       8       1       1       8       1       1
       8       1       1       8       1       1       8       1       1       8
       1       1       8       1       1       8       1       1       8       1
       1       8       1       1       8       1       1       8       1       1
       8       1       1       8       1       1       8       1       1       8
       1       1       8       1       1       8       1       1       8       1
       1       8       1       1       8       1       1       8       1       1
       8       1       1       8       1       1       8       1       1       8
       1       1       8       1       1       8       1       1       8       1
       1       8       1       1       8       1       1       8       1       1
       8       1       1       8       1       1       8       1       1       8
       1       1       8       1       1       8       1       1       8       1
       1       8       1       1       8       1       1       8       1       1
       8       1       1       8       1       1       8       1       1       8
       1       1       8       1       1       8       1       1       8       1
       1       8       1       1       8       1       1       8       1       1
       8       1       1       8       1       1       8       1       1       8
       1       1       8       1       1       8       1       1       8       1
       1       8       1       1       8       1       1       8       1       1
       8       1       1       8       1       1       8       1       1       8
       1       1       8       1       1       8       1       1       8       1
       1       8       1       1       8       1       1       8       1       1
       8       1       1       8       1       1       8       1       1       8
       1       1       8       1       1       8       1       1       8       1
       1       8       1       1       8       1       1       8       1       1
       8       1       1       8       1       1       8       1       1       8
       1       1       8       1       1       8       1       1       8       1
       1       8       1       1       8       1       1       8       1       1
       8       1       1       8       1       1       8       1       1       8
       1       1       8       1       1       8       1       1       8       1
       1       8       1       1       8       1       1       8       1       1
       8       1       1       8       1       1       8       1       1       8
       1       1       8       1       1       8       1       1       8       1
       1       8       1       1       8       1       1       8       1       1
       8       1       1       8       1       1       8       1       1       8
       1       1       8       1       1       8       1       1       8       1
       1       8       1       1       8       1       1       8       1       1
       8       1       1       8       1       1       8       1       1       8
       1       1       8       1       1       8       1       1       8       1
       1       8       1       1       8       1       1       8       1       1
       8       1       1       8       1       1       8       1       1       8
       1       1       8       1       1       8       1       1       8       1
       1       8       1       1       8       1       1       8       1       1
       8       1       1       8       1       1       8       1       1       8
       1       1       8       1       1       8       1       1       8       1
       1       8       1       1       8       1       1       8       1       1
       8       1       1       8       1       1       8       1       1       8
       1       1       8       1       1       8       1       1       8       1
       1       8       1       1       8       1       1       8       1       1
       8       1       1       8       1       1       8       1       1       8
       1       1       8       1       1       8       1       1       8       1
       1       8       1       1       8       1       1       8       1       1
       8       1       1       8       1       1       8       1       1       8
       1       1       8       1       1       8       1       1       8       1
       1       8       1       1       8       1       1       8       1       1
       8       1       1       8       1       1       8       1       1       8
       1       1       8       1       1       8       1       1       8       1
       1       8       1       1       8       1       1       8       1       1
       8       1       1       8       1       1       8       1       1       8
       1       1       8       1       1       8       1       1       8       1
       1       8       1       1       8       1       1       8       1       1
       8       1       1       8       1       1       8       1       1       8
       1       1       8       1       1       8       1       1       8       1
       1       8       1       1       8       1       1       8       1       1
       8       1       1       8       1       1       8       1       1       8
       1       1       8       1       1       8       1       1       8       1
       1       8       1       1       8       1       1       8       1       1
       8       1       1       8       1       1       8       1       1       8
       1       1       8       1       1       8       1       1       8       1
       1       8       1       1       8       1       1       8       1       1
       8       1       1       8       1       1       8       1       1       8
       1       1       8       1       1       8       1       1       8       1
       1       8       1       1       8       1       1       8       1       1
       8       1       1       8       1       1       8       1       1       8
       1       1       8       1       1       8       1       1       8       1
       1       8       1       1       8       1       1       8       1       1
       8       1       1       8       1       1       8       1       1       8
       1       1       8       1       1       8       1       1       8       1
       1       8       1       1       8       1       1       8       1       1
       8       1       1       8       1       1       8       1       1       8
       1       1       8       1       1       8       1       1       8       1
       1       8       1       1       8       1       1       8       1       1
       8       1       1       8       1       1       8       1       1       8
       1       1       8       1       1       8       1       1       8       1
       1       8       1       1       8       1       1       8       1       1
       8       1       1       8       1       1       8       1       1       8
       1       1       8       1       1       8       1       1       8       1
       1       8       1       1       8       1       1       8       1       1
       8       1       1       8       1       1       8       1       1       8
       1       1       8       1       1       8       1       1       8       1
       1       8       1       1       8       1       1       8       1       1
       8       1       1       8       1       1       8       1       1       8
       1       1       8       1       1       8       1       1       8       1
       1       8       1       1       8       1       1       8       1       1
       8       1       1       8       1       1       8       1       1       8
       1       1       8       1       1       8       1       1       8       1
       1       8       1       1       8       1       1       8       1       1
       8       1       1       8       1       1       8       1       1       8
       1       1       8       1       1       8       1       1       8       1
       1       8       1       1       8       1       1       8       1       1
       8       1       1       8       1       1       8       1       1       8
       1       1       8       1       1       8       1       1       8       1
       1       8       1       1       8       1       1       8       1       1
       8       1       1       8       1       1       8       1       1       8
       1       1       8       1       1       8       1       1       8       1
       1       8       1       1       8       1       1       8       1       1
       8       1       1       8       1       1       8       1       1       8
       1       1       8       1       1       8       1       1       8       1
       1       8       1       1       8       1       1       8       1       1
       8       1       1       8       1       1       8       1       1       8
       1       1       8       1       1       8       1       1       8       1
       1       8       1       1       8       1       1       8       1       1
       8       1       1       8       1       1       8       1       1       8
       1       1       8       1       1       8       1       1       8       1
       1       8       1       1       8       1       1       8       1       1
       8       1       1       8       1       1       8       1       1       8
       1       1       8       1       1       8       1       1       8       1
       1       8       1       1       8       1       1       8       1       1
       8       1       1       8       1       1       8       1       1       8
       1       1       8       1       1       8       1       1       8       1
       1       8       1       1       8       1       1       8       1       1
       8       1       1       8       1       1       8       1       1       8
       1       1       8       1       1       8       1       1       8       1
       1       8       1       1       8       1       1       8       1       1
       8       1       1       8       1       1       8       1       1       8
       1       1       8       1       1       8       1       1       8       1
       1       8       1       1       8       1       1       8       1       1
       8       1       1       8       1       1       8       1       1       8
       1       1       8       1       1       8       1       1       8       1
       1       8       1       1       8       1       1       8       1       1
       8       1       1       8       1       1       8       1       1       8
       1       1       8       1       1       8       1       1       8       1
       1       8       1       1       8       1       1       8       1       1
       8       1       1       8       1       1       8       1       1       8
       1       1       8       1       1       8       1       1       8       1
       1       8       1       1       8       1       1       8       1       1
       8       1       1       8       1       1       8       1       1       8
       1       1       8       1       1       8       1       1       8       1
       1       8       1       1       8       1       1       8       1       1
       8       1       1       8       1       1       8       1       1       8
       1       1       8       1       1       8       1       1       8       1
       1       8       1       1       8       1       1       8       1       1
       8       1       1       8       1       1       8       1       1       8
       1       1       8       1       1       8       1       1       8       1
       1       8       1       1       8       1       1       8       1       1
       8       1       1       8       1       1       8       1       1       8
       1       1       8       1       1       8       1       1       8       1
       1       8       1       1       8       1       1       8       1       1
       8       1       1       8       1       1       8       1       1       8
       1       1       8       1       1       8       1       1       8       1
       1       8       1       1       8       1       1       8       1       1
       8       1       1       8       1       1       8       1       1       8
       1       1       8       1       1       8       1       1       8       1
       1       8       1       1       8       1       1       8       1       1
       8       1       1       8       1       1       8       1       1       8
       1       1       8       1       1       8       1       1       8       1
       1       8       1       1       8       1       1       8       1       1
       8       1       1       8       1       1       8       1       1       8
       1       1       8       1       1       8       1       1       8       1
       1       8       1       1       8       1       1       8       1       1
       8       1       1       8       1       1       8       1       1       8
       1       1       8       1       1       8       1       1       8       1
       1       8       1       1       8       1       1       8       1       1
       8       1       1       8       1       1       8       1       1       8
       1       1       8       1       1       8       1       1       8       1
       1       8       1       1       8       1       1       8       1       1
       8       1       1       8       1       1       8       1       1       8
       1       1       8       1       1       8       1       1       8       1
       1       8       1       1       8       1       1       8       1       1
       8       1       1       8       1       1       8       1       1       8
       1       1       8       1       1       8       1       1       8       1
       1       8       1       1       8       1       1       8       1       1
       8       1       1       8       1       1       8       1       1       8
       1       1       8       1       1       8       1       1       8       1
       1       8       1       1       8       1       1       8       1       1
       8       1       1       8       1       1       8       1       1       8
       1       1       8       1       1       8       1       1       8       1
       1       8       1       1       8       1       1       8       1       1
       8       1       1       8       1       1       8       1       1       8
       1       1       8       1       1       8       1       1       8       1
       1       8       1       1       8       1       1       8       1       1
       8       1       1       8       1       1       8       1       1       8
       1       1       8       1       1       8       1       1       8       1
       1       8       1       1       8       1       1       8       1       1
       8       1       1       8       1       1       8       1       1       8
       1       1       8       1       1       8       1       1       8       1
       1       8       1       1       8       1       1       8       1       1
       8       1       1       8       1       1       8       1       1       8
       1       1       8       1       1       8       1       1       8       1
       1       8       1       1       8       1       1       8       1       1
       8       1       1       8       1       1       8       1       1       8
       1       1       8       1       1       8       1       1       8       1
       1       8       1       1       8       1       1       8       1       1
       8       1       1       8       1       1       8       1       1       8
       1       1       8       1       1       8       1       1       8       1
       1       8       1       1       8       1       1       8       1       1
       8       1       1       8       1       1       8       1       1       8
       1       1       8       1       1       8       1       1       8       1
       1       8       1       1       8       1       1       8       1       1
       8       1       1       8       1       1       8       1       1       8
       1       1       8       1       1       8       1       1       8       1
       1       8       1       1       8       1       1       8       1       1
       8       1       1       8       1       1       8       1       1       8
       1       1       8       1       1       8       1       1       8       1
       1       8       1       1       8       1       1       8       1       1
       8       1       1       8       1       1       8       1       1       8
       1       1       8       1       1       8       1       1       8       1
       1       8       1       1       8       1       1       8       1       1
       8       1       1       8       1       1       8       1       1       8
       1       1       8       1       1       8       1       1       8       1
       1       8       1       1       8       1       1       8       1       1
       8       1       1       8       1       1       8       1       1       8
       1       1       8       1       1       8       1       1       8       1
       1       8       1       1       8       1       1       8       1       1
       8       1       1       8       1       1       8       1       1       8
       1       1       8       1       1       8       1       1       8       1
       1       8       1       1       8       1       1       8       1       1
       8       1       1       8       1       1       8       1       1       8
       1       1       8       1       1       8       1       1       8       1
       1       8       1       1       8       1       1       8       1       1
       8       1       1       8       1       1       8       1       1       8
       1       1       8       1       1       8       1       1       8       1
       1       8       1       1       8       1       1       8       1       1
       8       1       1       8       1       1       8       1       1       8
       1       1       8       1       1       8       1       1       8       1
       1       8       1       1       8       1       1       8       1       1
       8       1       1       8       1       1       8       1       1       8
       1       1       8       1       1       8       1       1       8       1
       1       8       1       1       8       1       1       8       1       1
       8       1       1       8       1       1       8       1       1       8
       1       1       8       1       1       8       1       1       8       1
       1       8       1       1       8       1       1       8       1       1
       8       1       1       8       1       1       8       1       1       8
       1       1       8       1       1       8       1       1       8       1
       1       8       1       1       8       1       1       8       1       1
       8       1       1       8       1       1       8       1       1       8
       1       1       8       1       1       8       1       1       8       1
       1       8       1       1       8       1       1       8       1       1
       8       1       1       8       1       1       8       1       1       8
       1       1       8       1       1       8       1       1       8       1
       1       8       1       1       8       1       1       8       1       1
       8       1       1       8       1       1       8       1       1       8
       1       1       8       1       1       8       1       1       8       1
       1       8       1       1       8       1       1       8       1       1
       8       1       1       8       1       1       8       1       1       8
       1       1       8       1       1       8       1       1       8       1
       1       8       1       1       8       1       1       8       1       1
       8       1       1       8       1       1       8       1       1       8
       1       1       8       1       1       8       1       1       8       1
       1       8       1       1       8       1       1       8       1       1
       8       1       1       8       1       1       8       1       1       8
       1       1       8       1       1       8       1       1       8       1
       1       8       1       1       8       1       1       8       1       1
       8       1       1       8       1       1       8       1       1       8
       1       1       8       1       1       8       1       1       8       1
       1       8       1       1       8       1       1       8       1       1
       8       1       1       8       1       1       8       1       1       8
       1       1       8       1       1       8       1       1       8       1
       1       8       1       1       8       1       1       8       1       1
       8       1       1       8       1       1       8       1       1       8
       1       1       8       1       1       8       1       1       8       1
       1       8       1       1       8       1       1       8       1       1
       8       1       1       8       1       1       8       1       1       8
       1       1       8       1       1       8       1       1       8       1
       1       8       1       1       8       1       1       8       1       1
       8       1       1       8       1       1       8       1       1       8
       1       1       8       1       1       8       1       1       8       1
       1       8       1       1       8       1       1       8       1       1
       8       1       1       8       1       1       8       1       1       8
       1       1       8       1       1       8       1       1       8       1
       1       8       1       1       8       1       1       8       1       1
       8       1       1       8       1       1       8       1       1       8
       1       1       8       1       1       8       1       1       8       1
       1       8       1       1       8       1       1       8       1       1
       8       1       1       8       1       1       8       1       1       8
       1       1       8       1       1       8       1       1       8       1
       1       8       1       1       8       1       1       8       1       1
       8       1       1       8       1       1       8       1       1       8
       1       1       8       1       1       8       1       1       8       1
       1       8       1       1       8       1       1       8       1       1
       8       1       1       8       1       1       8       1       1       8
       1       1       8       1       1       8       1       1       8       1
       1       8       1       1       8       1       1       8       1       1
       8       1       1       8       1       1       8       1       1       8
       1       1       8       1       1       8       1       1       8       1
       1       8       1       1       8       1       1       8       1       1
       8       1       1       8       1       1       8       1       1       8
       1       1       8       1       1       8       1       1       8       1
       1       8       1       1       8       1       1       8       1       1
       8       1       1       8       1       1       8       1       1       8
       1       1       8       1       1       8       1       1       8       1
       1       8       1       1       8       1       1       8       1       1
       8       1       1       8       1       1       8       1       1       8
       1       1       8       1       1       8       1       1       8       1
       1       8       1       1       8       1       1       8       1       1
       8       1       1       8       1       1       8       1       1       8
       1       1       8       1       1       8       1       1       8       1
       1       8       1       1       8       1       1       8       1       1
       8       1       1       8       1       1       8       1       1       8
       1       1       8       1       1       8       1       1       8       1
       1       8       1       1       8       1       1       8       1       1
       8       1       1       8       1       1       8       1       1       8
       1       1       8       1       1       8       1       1       8       1
       1       8       1       1       8       1       1       8       1       1
       8       1       1       8       1       1       8       1       1       8
       1       1       8       1       1       8       1       1       8       1
       1       8       1       1       8       1       1       8       1       1
       8       1       1       8       1       1       8       1       1       8
       1       1       8       1       1       8       1       1       8       1
       1       8       1       1       8       1       1       8       1       1
       8       1       1       8       1       1       8       1       1       8
       1       1       8       1       1       8       1       1       8       1
       1       8       1       1       8       1       1       8       1       1
       8       1       1       8       1       1       8       1       1       8
       1       1       8       1       1       8       1       1       8       1
       1       8       1       1       8       1       1       8       1       1
       8       1       1       8       1       1       8       1       1       8
       1       1       8       1       1       8       1       1       8       1
       1       8       1       1       8       1       1       8       1       1
       8       1       1       8       1       1       8       1       1       8
       1       1       8       1       1       8       1       1       8       1
       1       8       1       1       8       1       1       8       1       1
       8       1       1       8       1       1       8       1       1       8
       1       1       8       1       1       8       1       1       8       1
       1       8       1       1       8       1       1       8       1       1
       8       1       1       8       1       1       8       1       1       8
       1       1       8       1       1       8       1       1       8       1
       1       8       1       1       8       1       1       8       1       1
       8       1       1       8       1       1       8       1       1       8
       1       1       8       1       1       8       1       1       8       1
       1       8       1       1       8       1       1       8       1       1
       8       1       1       8       1       1       8       1       1       8
       1       1       8       1       1       8       1       1       8       1
       1       8       1       1       8       1       1       8       1       1
       8       1       1       8       1       1       8       1       1       8
       1       1       8       1       1       8       1       1       8       1
       1       8       1       1       8       1       1       8       1       1
       8       1       1       8       1       1       8       1       1       8
       1       1       8       1       1       8       1       1       8       1
       1       8       1       1       8       1       1       8       1       1
       8       1       1       8       1       1       8       1       1       8
       1       1       8       1       1       8       1       1       8       1
       1       8       1       1       8       1       1       8       1       1
       8       1       1       8       1       1       8       1       1       8
       1       1       8       1       1       8       1       1       8       1
       1       8       1       1       8       1       1       8       1       1
       8       1       1       8       1       1       8       1       1       8
       1       1       8       1       1       8       1       1       8       1
       1       8       1       1       8       1       1       8       1       1
       8       1       1       8       1       1       8       1       1       8
       1       1       8       1       1       8       1       1       8       1
       1       8       1       1       8       1       1       8       1       1
       8       1       1       8       1       1       8       1       1       8
       1       1       8       1       1       8       1       1       8       1
       1       8       1       1       8       1       1       8       1       1
       8       1       1       8       1       1       8       1       1       8
       1       1       8       1       1       8       1       1       8       1
       1       8       1       1       8       1       1       8       1       1
       8       1       1       8       1       1       8       1       1       8
       1       1       8       1       1       8       1       1       8       1
       1       8       1       1       8       1       1       8       1       1
       8       1       1       8       1       1       8       1       1       8
       1       1       8       1       1       8       1       1       8       1
       1       8       1       1       8       1       1       8       1       1
       8       1       1       8       1       1       8       1       1       8
       1       1       8       1       1       8       1       1       8       1
       1       8       1       1       8       1       1       8       1       1
       8       1       1       8       1       1       8       1       1       8
       1       1       8       1       1       8       1       1       8       1
       1       8       1       1       8       1       1       8       1       1
       8       1       1       8       1       1       8       1       1       8
       1       1       8       1       1       8       1       1       8       1
       1       8       1       1       8       1       1       8       1       1
       8       1       1       8       1       1       8       1       1       8
       1       1       8       1       1       8       1       1       8       1
       1       8       1       1       8       1       1       8       1       1
       8       1       1       8       1       1       8       1       1       8
       1       1       8       1       1       8       1       1       8       1
       1       8       1       1       8       1       1       8       1       1
       8       1       1       8       1       1       8       1       1       8
       1       1       8       1       1       8       1       1       8       1
       1       8       1       1       8       1       1       8       1       1
       8       1       1       8       1       1       8       1       1       8
       1       1       8       1       1       8       1       1       8       1
       1       8       1       1       8       1       1       8       1       1
       8       1       1       8       1       1       8       1       1       8
       1       1       8       1       1       8       1       1       8       1
       1       8       1       1       8       1       1       8       1       1
       8       1       1       8       1       1       8       1       1       8
       1       1       8       1       1       8       1       1       8       1
       1       8       1       1       8       1       1       8       1       1
       8       1       1       8       1       1       8       1       1       8
       1       1       8       1       1       8       1       1       8       1
       1       8       1       1       8       1       1       8       1       1
       8       1       1       8       1       1       8       1       1       8
       1       1       8       1       1       8       1       1       8       1
       1       8       1       1       8       1       1       8       1       1
       8       1       1       8       1       1       8       1       1       8
       1       1       8       1       1       8       1       1       8       1
       1       8       1       1       8       1       1       8       1       1
       8       1       1       8       1       1       8       1       1       8
       1       1       8       1       1       8       1       1       8       1
       1       8       1       1       8       1       1       8       1       1
       8       1       1       8       1       1       8       1       1       8
       1       1       8       1       1       8       1       1       8       1
       1       8       1       1       8       1       1       8       1       1
       8       1       1       8       1       1       8       1       1       8
       1       1       8       1       1       8       1       1       8       1
       1       8       1       1       8       1       1       8       1       1
       8       1       1       8       1       1       8       1       1       8
       1       1       8       1       1       8       1       1       8       1
       1       8       1       1       8       1       1       8       1       1
       8       1       1       8       1       1       8       1       1       8
       1       1       8       1       1       8       1       1       8       1
       1       8       1       1       8       1       1       8       1       1
       8       1       1       8       1       1       8       1       1       8
       1       1       8       1       1       8       1       1       8       1
       1       8       1       1       8       1       1       8       1       1
       8       1       1       8       1       1       8       1       1       8
       1       1       8       1       1       8       1       1       8       1
       1       8       1       1       8       1       1       8       1       1
       8       1       1       8       1       1       8       1       1       8
       1       1       8       1       1       8       1       1       8       1
       1       8       1       1       8       1       1       8       1       1
       8       1       1       8       1       1       8       1       1       8
       1       1       8       1       1       8       1       1       8       1
       1       8       1       1       8       1       1       8       1       1
       8       1       1       8       1       1       8       1       1       8
       1       1       8       1       1       8       1       1       8       1
       1       8       1       1       8       1       1       8       1       1
       8       1       1       8       1       1       8       1       1       8
       1       1       8       1       1       8       1       1       8       1
       1       8       1       1       8       1       1       8       1       1
       8       1       1       8       1       1       8       1       1       8
       1       1       8       1       1       8       1       1       8       1
       1       8       1       1       8       1       1       8       1       1
       8       1       1       8       1       1       8       1       1       8
       1       1       8       1       1       8       1       1       8       1
       1       8       1       1       8       1       1       8       1       1
       8       1       1       8       1       1       8       1       1       8
       1       1       8       1       1       8       1       1       8       1
       1       8       1       1       8       1       1       8       1       1
       8       1       1       8       1       1       8       1       1       8
       1       1       8       1       1       8       1       1       8       1
       1       8       1       1       8       1       1       8       1       1
       8       1       1       8       1       1       8       1       1       8
       1       1       8       1       1       8       1       1       8       1
       1       8       1       1       8       1       1       8       1       1
       8       1       1       8       1       1       8       1       1       8
       1       1       8       1       1       8       1       1       8       1
       1       8       1       1       8       1       1       8       1       1
       8       1       1       8       1       1       8       1       1       8
       1       1       8       1       1       8       1       1       8       1
       1       8       1       1       8       1       1       8       1       1
       8       1       1       8       1       1       8       1       1       8
       1       1       8       1       1       8       1       1       8       1
       1       8       1       1       8       1       1       8       1       1
       8       1       1       8       1       1       8       1       1       8
       1       1       8       1       1       8       1       1       8       1
       1       8       1       1       8       1       1       8       1       1
       8       1       1       8       1       1       8       1       1       8
       1       1       8       1       1       8       1       1       8       1
       1       8       1       1       8       1       1       8       1       1
       8       1       1       8       1       1       8       1       1       8
       1       1       8       1       1       8       1       1       8       1
       1       8       1       1       8       1       1       8       1       1
       8       1       1       8       1       1       8       1       1       8
       1       1       8       1       1       8       1       1       8       1
       1       8       1       1       8       1       1       8       1       1
       8       1       1       8       1       1       8       1       1       8
       1       1       8       1       1       8       1       1       8       1
       1       8       1       1       8       1       1       8       1       1
       8       1       1       8       1       1       8       1       1       8
       1       1       8       1       1       8       1       1       8       1
       1       8       1       1       8       1       1       8       1       1
       8       1       1       8       1       1       8       1       1       8
       1       1       8       1       1       8       1       1       8       1
       1       8       1       1       8       1       1       8       1       1
       8       1       1       8       1       1       8       1       1       8
       1       1       8       1       1       8       1       1       8       1
       1       8       1       1       8       1       1       8       1       1
       8       1       1       8       1       1       8       1       1       8
       1       1       8       1       1       8       1       1       8       1
       1       8       1       1       8       1       1       8       1       1
       8       1       1       8       1       1       8       1       1       8
       1       1       8       1       1       8       1       1       8       1
       1       8       1       1       8       1       1       8       1       1
       8       1       1       8       1       1       8       1       1       8
       1       1       8       1       1       8       1       1       8       1
       1       8       1       1       8       1       1       8       1       1
       8       1       1       8       1       1       8       1       1       8
       1       1       8       1       1       8       1       1       8       1
       1       8       1       1       8       1       1       8       1       1
       8       1       1       8       1       1       8       1       1       8
       1       1       8       1       1       8       1       1       8       1
       1       8       1       1       8       1       1       8       1       1
       8       1       1       8       1       1       8       1       1       8
       1       1       8       1       1       8       1       1       8       1
       1       8       1       1       8       1       1       8       1       1
       8       1       1       8       1       1       8       1       1       8
       1       1       8       1       1       8       1       1       8       1
       1       8       1       1       8       1       1       8       1       1
       8       1       1       8       1       1       8       1       1       8
       1       1       8       1       1       8       1       1       8       1
       1       8       1       1       8       1       1       8       1       1
       8       1       1       8       1       1       8       1       1       8
       1       1       8       1       1       8       1       1       8       1
       1       8       1       1       8       1       1       8       1       1
       8       1       1       8       1       1       8       1       1       8
       1       1       8       1       1       8       1       1       8       1
       1       8       1       1       8       1       1       8       1       1
       8       1       1       8       1       1       8       1       1       8
       1       1       8       1       1       8       1       1       8       1
       1       8       1       1       8       1       1       8       1       1
       8       1       1       8       1       1       8       1       1       8
       1       1       8       1       1       8       1       1       8       1
       1       8       1       1       8       1       1       8       1       1
       8       1       1       8       1       1       8       1       1       8
       1       1       8       1       1       8       1       1       8       1
       1       8       1       1       8       1       1       8       1       1
       8       1       1       8       1       1       8       1       1       8
       1       1       8       1       1       8       1       1       8       1
       1       8       1       1       8       1       1       8       1       1
       8       1       1       8       1       1       8       1       1       8
       1       1       8       1       1       8       1       1       8       1
       1       8       1       1       8       1       1       8       1       1
       8       1       1       8       1       1       8       1       1       8
       1       1       8       1       1       8       1       1       8       1
       1       8       1       1       8       1       1       8       1       1
       8       1       1       8       1       1       8       1       1       8
       1       1       8       1       1       8       1       1       8       1
       1       8       1       1       8       1       1       8       1       1
       8       1       1       8       1       1       8       1       1       8
       1       1       8       1       1       8       1       1       8       1
       1       8       1       1       8       1       1       8       1       1
       8       1       1       8       1       1       8       1       1       8
       1       1       8       1       1       8       1       1       8       1
       1       8       1       1       8       1       1       8       1       1
       8       1       1       8       1       1       8       1       1       8
       1       1       8       1       1       8       1       1       8       1
       1       8       1       1       8       1       1       8       1       1
       8       1       1       8       1       1       8       1       1       8
       1       1       8       1       1       8       1       1       8       1
       1       8       1       1       8       1       1       8       1       1
       8       1       1       8       1       1       8       1       1       8
       1       1       8       1       1       8       1       1       8       1
       1       8       1       1       8       1       1       8       1       1
       8       1       1       8       1       1       8       1       1       8
       1       1       8       1       1       8       1       1       8       1
       1       8       1       1       8       1       1       8       1       1
       8       1       1       8       1       1       8       1       1       8
       1       1       8       1       1       8       1       1       8       1
       1       8       1       1       8       1       1       8       1       1
       8       1       1       8       1       1       8       1       1       8
       1       1       8       1       1       8       1       1       8       1
       1       8       1       1       8       1       1       8       1       1
       8       1       1       8       1       1       8       1       1       8
       1       1       8       1       1       8       1       1       8       1
       1       8       1       1       8       1       1       8       1       1
       8       1       1       8       1       1       8       1       1       8
       1       1       8       1       1       8       1       1       8       1
       1       8       1       1       8       1       1       8       1       1
       8       1       1       8       1       1       8       1       1       8
       1       1       8       1       1       8       1       1       8       1
       1       8       1       1       8       1       1       8       1       1
       8       1       1       8       1       1       8       1       1       8
       1       1       8       1       1       8       1       1       8       1
       1       8       1       1       8       1       1       8       1       1
       8       1       1       8       1       1       8       1       1       8
       1       1       8       1       1       8       1       1       8       1
       1       8       1       1       8       1       1       8       1       1
       8       1       1       8       1       1       8       1       1       8
       1       1       8       1       1       8       1       1       8       1
       1       8       1       1       8       1       1       8       1       1
       8       1       1       8       1       1       8       1       1       8
       1       1       8       1       1       8       1       1       8       1
       1       8       1       1       8       1       1       8       1       1
       8       1       1       8       1       1       8       1       1       8
       1       1       8       1       1       8       1       1       8       1
       1       8       1       1       8       1       1       8       1       1
       8       1       1       8       1       1       8       1       1       8
       1       1       8       1       1       8       1       1       8       1
       1       8       1       1       8       1       1       8       1       1
       8       1       1       8       1       1       8       1       1       8
       1       1       8       1       1       8       1       1       8       1
       1       8       1       1       8       1       1       8       1       1
       8       1       1       8       1       1       8       1       1       8
       1       1       8       1       1       8       1       1       8       1
       1       8       1       1       8       1       1       8       1       1
       8       1       1       8       1       1       8       1       1       8
       1       1       8       1       1       8       1       1       8       1
       1       8       1       1       8       1       1       8       1       1
       8       1       1       8       1       1       8       1       1       8
       1       1       8       1       1       8       1       1       8       1
       1       8       1       1       8       1       1       8       1       1
       8       1       1       8       1       1       8       1       1       8
       1       1       8       1       1       8       1       1       8       1
       1       8       1       1       8       1       1       8       1       1
       8       1       1       8       1       1       8       1       1       8
       1       1       8       1       1       8       1       1       8       1
       1       8       1       1       8       1       1       8       1       1
       8       1       1       8       1       1       8       1       1       8
       1       1       8       1       1       8       1       1       8       1
       1       8       1       1       8       1       1       8       1       1
       8       1       1       8       1       1       8       1       1       8
       1       1       8       1       1       8       1       1       8       1
       1       8       1       1       8       1       1       8       1       1
       8       1       1       8       1       1       8       1       1       8
       1       1       8       1       1       8       1       1       8       1
       1       8       1       1       8       1       1       8       1       1
       8       1       1       8       1       1       8       1       1       8
       1       1       8       1       1       8       1       1       8       1
       1       8       1       1       8       1       1       8       1       1
       8       1       1       8       1       1       8       1       1       8
       1       1       8       1       1       8       1       1       8       1
       1       8       1       1       8       1       1       8       1       1
       8       1       1       8       1       1       8       1       1       8
       1       1       8       1       1       8       1       1       8       1
       1       8       1       1       8       1       1       8       1       1
       8       1       1       8       1       1       8       1       1       8
       1       1       8       1       1       8       1       1       8       1
       1       8       1       1       8       1       1       8       1       1
       8       1       1       8       1       1       8       1       1       8
       1       1       8       1       1       8       1       1       8       1
       1       8       1       1       8       1       1       8       1       1
       8       1       1       8       1       1       8       1       1       8
       1       1       8       1       1       8       1       1       8       1
       1       8       1       1       8       1       1       8       1       1
       8       1       1       8       1       1       8       1       1       8
       1       1       8       1       1       8       1       1       8       1
       1       8       1       1       8       1       1       8       1       1
       8       1       1       8       1       1       8       1       1       8
       1       1       8       1       1       8       1       1       8       1
       1       8       1       1       8       1       1       8       1       1
       8       1       1       8       1       1       8       1       1       8
       1       1       8       1       1       8       1       1       8       1
       1       8       1       1       8       1       1       8       1       1
       8       1       1       8       1       1       8       1       1       8
       1       1       8       1       1       8       1       1       8       1
       1       8       1       1       8       1       1       8       1       1
       8       1       1       8       1       1       8       1       1       8
       1       1       8       1       1       8       1       1       8       1
       1       8       1       1       8       1       1       8       1       1
       8       1       1       8       1       1       8       1       1       8
       1       1       8       1       1       8       1       1       8       1
       1       8       1       1       8       1       1       8       1       1
       8       1       1       8       1       1       8       1       1       8
       1       1       8       1       1       8       1       1       8       1
       1       8       1       1       8       1       1       8       1       1
       8       1       1       8       1       1       8       1       1       8
       1       1       8       1       1       8       1       1       8       1
       1       8       1       1       8       1       1       8       1       1
       8       1       1       8       1       1       8       1       1       8
       1       1       8       1       1       8       1       1       8       1
       1       8       1       1       8       1       1       8       1       1
       8       1       1       8       1       1       8       1       1       8
       1       1       8       1       1       8       1       1       8       1
       1       8       1       1       8       1       1       8       1       1
       8       1       1       8       1       1       8       1       1       8
       1       1       8       1       1       8       1       1       8       1
       1       8       1       1       8       1       1       8       1       1
       8       1       1       8       1       1       8       1       1       8
       1       1       8       1       1       8       1       1       8       1
       1       8       1       1       8       1       1       8       1       1
       8       1       1       8       1       1       8       1       1       8
       1       1       8       1       1       8       1       1       8       1
       1       8       1       1
%FLAG MASS                                                                      
%FORMAT(5E16.8)                                                                 
  1.40100000E+01  1.20100000E+01  1.60000000E+01  1.20100000E+01  1.40100000E+01
  1.60000000E+01  1.20100000E+01  1.40100000E+01  1.60000000E+01  1.20100000E+01
  1.60000000E+01  1.20100000E+01  1.60000000E+01  1.20100000E+01  1.60000000E+01
  1.20100000E+01  1.20100000E+01  1.20100000E+01  1.20100000E+01  1.20100000E+01
  1.20100000E+01  1.00800000E+00  1.00800000E+00  1.00800000E+00  1.00800000E+00
  1.00800000E+00  1.00800000E+00  1.00800000E+00  1.00800000E+00  1.00800000E+00
  1.00800000E+00  1.00800000E+00  1.00800000E+00  1.00800000E+00  1.00800000E+00
  1.00800000E+00  1.00800000E+00  1.00800000E+00  1.00800000E+00  6.54000000E+01
  2.29900000E+01  1.60000000E+01  1.00800000E+00  1.00800000E+00  1.60000000E+01
  1.00800000E+00  1.00800000E+00  1.60000000E+01  1.00800000E+00  1.00800000E+00
  1.60000000E+01  1.00800000E+00  1.00800000E+00  1.60000000E+01  1.00800000E+00
  1.00800000E+00  1.60000000E+01  1.00800000E+00  1.00800000E+00  1.60000000E+01
  1.00800000E+00  1.00800000E+00  1.60000000E+01  1.00800000E+00  1.00800000E+00
  1.60000000E+01  1.00800000E+00  1.00800000E+00  1.60000000E+01  1.00800000E+00
  1.00800000E+00  1.60000000E+01  1.00800000E+00  1.00800000E+00  1.60000000E+01
  1.00800000E+00  1.00800000E+00  1.60000000E+01  1.00800000E+00  1.00800000E+00
  1.60000000E+01  1.00800000E+00  1.00800000E+00  1.60000000E+01  1.00800000E+00
  1.00800000E+00  1.60000000E+01  1.00800000E+00  1.00800000E+00  1.60000000E+01
  1.00800000E+00  1.00800000E+00  1.60000000E+01  1.00800000E+00  1.00800000E+00
  1.60000000E+01  1.00800000E+00  1.00800000E+00  1.60000000E+01  1.00800000E+00
  1.00800000E+00  1.60000000E+01  1.00800000E+00  1.00800000E+00  1.60000000E+01
  1.00800000E+00  1.00800000E+00  1.60000000E+01  1.00800000E+00  1.00800000E+00
  1.60000000E+01  1.00800000E+00  1.00800000E+00  1.60000000E+01  1.00800000E+00
  1.00800000E+00  1.60000000E+01  1.00800000E+00  1.00800000E+00  1.60000000E+01
  1.00800000E+00  1.00800000E+00  1.60000000E+01  1.00800000E+00  1.00800000E+00
  1.60000000E+01  1.00800000E+00  1.00800000E+00  1.60000000E+01  1.00800000E+00
  1.00800000E+00  1.60000000E+01  1.00800000E+00  1.00800000E+00  1.60000000E+01
  1.00800000E+00  1.00800000E+00  1.60000000E+01  1.00800000E+00  1.00800000E+00
  1.60000000E+01  1.00800000E+00  1.00800000E+00  1.60000000E+01  1.00800000E+00
  1.00800000E+00  1.60000000E+01  1.00800000E+00  1.00800000E+00  1.60000000E+01
  1.00800000E+00  1.00800000E+00  1.60000000E+01  1.00800000E+00  1.00800000E+00
  1.60000000E+01  1.00800000E+00  1.00800000E+00  1.60000000E+01  1.00800000E+00
  1.00800000E+00  1.60000000E+01  1.00800000E+00  1.00800000E+00  1.60000000E+01
  1.00800000E+00  1.00800000E+00  1.60000000E+01  1.00800000E+00  1.00800000E+00
  1.60000000E+01  1.00800000E+00  1.00800000E+00  1.60000000E+01  1.00800000E+00
  1.00800000E+00  1.60000000E+01  1.00800000E+00  1.00800000E+00  1.60000000E+01
  1.00800000E+00  1.00800000E+00  1.60000000E+01  1.00800000E+00  1.00800000E+00
  1.60000000E+01  1.00800000E+00  1.00800000E+00  1.60000000E+01  1.00800000E+00
  1.00800000E+00  1.60000000E+01  1.00800000E+00  1.00800000E+00  1.60000000E+01
  1.00800000E+00  1.00800000E+00  1.60000000E+01  1.00800000E+00  1.00800000E+00
  1.60000000E+01  1.00800000E+00  1.00800000E+00  1.60000000E+01  1.00800000E+00
  1.00800000E+00  1.60000000E+01  1.00800000E+00  1.00800000E+00  1.60000000E+01
  1.00800000E+00  1.00800000E+00  1.60000000E+01  1.00800000E+00  1.00800000E+00
  1.60000000E+01  1.00800000E+00  1.00800000E+00  1.60000000E+01  1.00800000E+00
  1.00800000E+00  1.60000000E+01  1.00800000E+00  1.00800000E+00  1.60000000E+01
  1.00800000E+00  1.00800000E+00  1.60000000E+01  1.00800000E+00  1.00800000E+00
  1.60000000E+01  1.00800000E+00  1.00800000E+00  1.60000000E+01  1.00800000E+00
  1.00800000E+00  1.60000000E+01  1.00800000E+00  1.00800000E+00  1.60000000E+01
  1.00800000E+00  1.00800000E+00  1.60000000E+01  1.00800000E+00  1.00800000E+00
  1.60000000E+01  1.00800000E+00  1.00800000E+00  1.60000000E+01  1.00800000E+00
  1.00800000E+00  1.60000000E+01  1.00800000E+00  1.00800000E+00  1.60000000E+01
  1.00800000E+00  1.00800000E+00  1.60000000E+01  1.00800000E+00  1.00800000E+00
  1.60000000E+01  1.00800000E+00  1.00800000E+00  1.60000000E+01  1.00800000E+00
  1.00800000E+00  1.60000000E+01  1.00800000E+00  1.00800000E+00  1.60000000E+01
  1.00800000E+00  1.00800000E+00  1.60000000E+01  1.00800000E+00  1.00800000E+00
  1.60000000E+01  1.00800000E+00  1.00800000E+00  1.60000000E+01  1.00800000E+00
  1.00800000E+00  1.60000000E+01  1.00800000E+00  1.00800000E+00  1.60000000E+01
  1.00800000E+00  1.00800000E+00  1.60000000E+01  1.00800000E+00  1.00800000E+00
  1.60000000E+01  1.00800000E+00  1.00800000E+00  1.60000000E+01  1.00800000E+00
  1.00800000E+00  1.60000000E+01  1.00800000E+00  1.00800000E+00  1.60000000E+01
  1.00800000E+00  1.00800000E+00  1.60000000E+01  1.00800000E+00  1.00800000E+00
  1.60000000E+01  1.00800000E+00  1.00800000E+00  1.60000000E+01  1.00800000E+00
  1.00800000E+00  1.60000000E+01  1.00800000E+00  1.00800000E+00  1.60000000E+01
  1.00800000E+00  1.00800000E+00  1.60000000E+01  1.00800000E+00  1.00800000E+00
  1.60000000E+01  1.00800000E+00  1.00800000E+00  1.60000000E+01  1.00800000E+00
  1.00800000E+00  1.60000000E+01  1.00800000E+00  1.00800000E+00  1.60000000E+01
  1.00800000E+00  1.00800000E+00  1.60000000E+01  1.00800000E+00  1.00800000E+00
  1.60000000E+01  1.00800000E+00  1.00800000E+00  1.60000000E+01  1.00800000E+00
  1.00800000E+00  1.60000000E+01  1.00800000E+00  1.00800000E+00  1.60000000E+01
  1.00800000E+00  1.00800000E+00  1.60000000E+01  1.00800000E+00  1.00800000E+00
  1.60000000E+01  1.00800000E+00  1.00800000E+00  1.60000000E+01  1.00800000E+00
  1.00800000E+00  1.60000000E+01  1.00800000E+00  1.00800000E+00  1.60000000E+01
  1.00800000E+00  1.00800000E+00  1.60000000E+01  1.00800000E+00  1.00800000E+00
  1.60000000E+01  1.00800000E+00  1.00800000E+00  1.60000000E+01  1.00800000E+00
  1.00800000E+00  1.60000000E+01  1.00800000E+00  1.00800000E+00  1.60000000E+01
  1.00800000E+00  1.00800000E+00  1.60000000E+01  1.00800000E+00  1.00800000E+00
  1.60000000E+01  1.00800000E+00  1.00800000E+00  1.60000000E+01  1.00800000E+00
  1.00800000E+00  1.60000000E+01  1.00800000E+00  1.00800000E+00  1.60000000E+01
  1.00800000E+00  1.00800000E+00  1.60000000E+01  1.00800000E+00  1.00800000E+00
  1.60000000E+01  1.00800000E+00  1.00800000E+00  1.60000000E+01  1.00800000E+00
  1.00800000E+00  1.60000000E+01  1.00800000E+00  1.00800000E+00  1.60000000E+01
  1.00800000E+00  1.00800000E+00  1.60000000E+01  1.00800000E+00  1.00800000E+00
  1.60000000E+01  1.00800000E+00  1.00800000E+00  1.60000000E+01  1.00800000E+00
  1.00800000E+00  1.60000000E+01  1.00800000E+00  1.00800000E+00  1.60000000E+01
  1.00800000E+00  1.00800000E+00  1.60000000E+01  1.00800000E+00  1.00800000E+00
  1.60000000E+01  1.00800000E+00  1.00800000E+00  1.60000000E+01  1.00800000E+00
  1.00800000E+00  1.60000000E+01  1.00800000E+00  1.00800000E+00  1.60000000E+01
  1.00800000E+00  1.00800000E+00  1.60000000E+01  1.00800000E+00  1.00800000E+00
  1.60000000E+01  1.00800000E+00  1.00800000E+00  1.60000000E+01  1.00800000E+00
  1.00800000E+00  1.60000000E+01  1.00800000E+00  1.00800000E+00  1.60000000E+01
  1.00800000E+00  1.00800000E+00  1.60000000E+01  1.00800000E+00  1.00800000E+00
  1.60000000E+01  1.00800000E+00  1.00800000E+00  1.60000000E+01  1.00800000E+00
  1.00800000E+00  1.60000000E+01  1.00800000E+00  1.00800000E+00  1.60000000E+01
  1.00800000E+00  1.00800000E+00  1.60000000E+01  1.00800000E+00  1.00800000E+00
  1.60000000E+01  1.00800000E+00  1.00800000E+00  1.60000000E+01  1.00800000E+00
  1.00800000E+00  1.60000000E+01  1.00800000E+00  1.00800000E+00  1.60000000E+01
  1.00800000E+00  1.00800000E+00  1.60000000E+01  1.00800000E+00  1.00800000E+00
  1.60000000E+01  1.00800000E+00  1.00800000E+00  1.60000000E+01  1.00800000E+00
  1.00800000E+00  1.60000000E+01  1.00800000E+00  1.00800000E+00  1.60000000E+01
  1.00800000E+00  1.00800000E+00  1.60000000E+01  1.00800000E+00  1.00800000E+00
  1.60000000E+01  1.00800000E+00  1.00800000E+00  1.60000000E+01  1.00800000E+00
  1.00800000E+00  1.60000000E+01  1.00800000E+00  1.00800000E+00  1.60000000E+01
  1.00800000E+00  1.00800000E+00  1.60000000E+01  1.00800000E+00  1.00800000E+00
  1.60000000E+01  1.00800000E+00  1.00800000E+00  1.60000000E+01  1.00800000E+00
  1.00800000E+00  1.60000000E+01  1.00800000E+00  1.00800000E+00  1.60000000E+01
  1.00800000E+00  1.00800000E+00  1.60000000E+01  1.00800000E+00  1.00800000E+00
  1.60000000E+01  1.00800000E+00  1.00800000E+00  1.60000000E+01  1.00800000E+00
  1.00800000E+00  1.60000000E+01  1.00800000E+00  1.00800000E+00  1.60000000E+01
  1.00800000E+00  1.00800000E+00  1.60000000E+01  1.00800000E+00  1.00800000E+00
  1.60000000E+01  1.00800000E+00  1.00800000E+00  1.60000000E+01  1.00800000E+00
  1.00800000E+00  1.60000000E+01  1.00800000E+00  1.00800000E+00  1.60000000E+01
  1.00800000E+00  1.00800000E+00  1.60000000E+01  1.00800000E+00  1.00800000E+00
  1.60000000E+01  1.00800000E+00  1.00800000E+00  1.60000000E+01  1.00800000E+00
  1.00800000E+00  1.60000000E+01  1.00800000E+00  1.00800000E+00  1.60000000E+01
  1.00800000E+00  1.00800000E+00  1.60000000E+01  1.00800000E+00  1.00800000E+00
  1.60000000E+01  1.00800000E+00  1.00800000E+00  1.60000000E+01  1.00800000E+00
  1.00800000E+00  1.60000000E+01  1.00800000E+00  1.00800000E+00  1.60000000E+01
  1.00800000E+00  1.00800000E+00  1.60000000E+01  1.00800000E+00  1.00800000E+00
  1.60000000E+01  1.00800000E+00  1.00800000E+00  1.60000000E+01  1.00800000E+00
  1.00800000E+00  1.60000000E+01  1.00800000E+00  1.00800000E+00  1.60000000E+01
  1.00800000E+00  1.00800000E+00  1.60000000E+01  1.00800000E+00  1.00800000E+00
  1.60000000E+01  1.00800000E+00  1.00800000E+00  1.60000000E+01  1.00800000E+00
  1.00800000E+00  1.60000000E+01  1.00800000E+00  1.00800000E+00  1.60000000E+01
  1.00800000E+00  1.00800000E+00  1.60000000E+01  1.00800000E+00  1.00800000E+00
  1.60000000E+01  1.00800000E+00  1.00800000E+00  1.60000000E+01  1.00800000E+00
  1.00800000E+00  1.60000000E+01  1.00800000E+00  1.00800000E+00  1.60000000E+01
  1.00800000E+00  1.00800000E+00  1.60000000E+01  1.00800000E+00  1.00800000E+00
  1.60000000E+01  1.00800000E+00  1.00800000E+00  1.60000000E+01  1.00800000E+00
  1.00800000E+00  1.60000000E+01  1.00800000E+00  1.00800000E+00  1.60000000E+01
  1.00800000E+00  1.00800000E+00  1.60000000E+01  1.00800000E+00  1.00800000E+00
  1.60000000E+01  1.00800000E+00  1.00800000E+00  1.60000000E+01  1.00800000E+00
  1.00800000E+00  1.60000000E+01  1.00800000E+00  1.00800000E+00  1.60000000E+01
  1.00800000E+00  1.00800000E+00  1.60000000E+01  1.00800000E+00  1.00800000E+00
  1.60000000E+01  1.00800000E+00  1.00800000E+00  1.60000000E+01  1.00800000E+00
  1.00800000E+00  1.60000000E+01  1.00800000E+00  1.00800000E+00  1.60000000E+01
  1.00800000E+00  1.00800000E+00  1.60000000E+01  1.00800000E+00  1.00800000E+00
  1.60000000E+01  1.00800000E+00  1.00800000E+00  1.60000000E+01  1.00800000E+00
  1.00800000E+00  1.60000000E+01  1.00800000E+00  1.00800000E+00  1.60000000E+01
  1.00800000E+00  1.00800000E+00  1.60000000E+01  1.00800000E+00  1.00800000E+00
  1.60000000E+01  1.00800000E+00  1.00800000E+00  1.60000000E+01  1.00800000E+00
  1.00800000E+00  1.60000000E+01  1.00800000E+00  1.00800000E+00  1.60000000E+01
  1.00800000E+00  1.00800000E+00  1.60000000E+01  1.00800000E+00  1.00800000E+00
  1.60000000E+01  1.00800000E+00  1.00800000E+00  1.60000000E+01  1.00800000E+00
  1.00800000E+00  1.60000000E+01  1.00800000E+00  1.00800000E+00  1.60000000E+01
  1.00800000E+00  1.00800000E+00  1.60000000E+01  1.00800000E+00  1.00800000E+00
  1.60000000E+01  1.00800000E+00  1.00800000E+00  1.60000000E+01  1.00800000E+00
  1.00800000E+00  1.60000000E+01  1.00800000E+00  1.00800000E+00  1.60000000E+01
  1.00800000E+00  1.00800000E+00  1.60000000E+01  1.00800000E+00  1.00800000E+00
  1.60000000E+01  1.00800000E+00  1.00800000E+00  1.60000000E+01  1.00800000E+00
  1.00800000E+00  1.60000000E+01  1.00800000E+00  1.00800000E+00  1.60000000E+01
  1.00800000E+00  1.00800000E+00  1.60000000E+01  1.00800000E+00  1.00800000E+00
  1.60000000E+01  1.00800000E+00  1.00800000E+00  1.60000000E+01  1.00800000E+00
  1.00800000E+00  1.60000000E+01  1.00800000E+00  1.00800000E+00  1.60000000E+01
  1.00800000E+00  1.00800000E+00  1.60000000E+01  1.00800000E+00  1.00800000E+00
  1.60000000E+01  1.00800000E+00  1.00800000E+00  1.60000000E+01  1.00800000E+00
  1.00800000E+00  1.60000000E+01  1.00800000E+00  1.00800000E+00  1.60000000E+01
  1.00800000E+00  1.00800000E+00  1.60000000E+01  1.00800000E+00  1.00800000E+00
  1.60000000E+01  1.00800000E+00  1.00800000E+00  1.60000000E+01  1.00800000E+00
  1.00800000E+00  1.60000000E+01  1.00800000E+00  1.00800000E+00  1.60000000E+01
  1.00800000E+00  1.00800000E+00  1.60000000E+01  1.00800000E+00  1.00800000E+00
  1.60000000E+01  1.00800000E+00  1.00800000E+00  1.60000000E+01  1.00800000E+00
  1.00800000E+00  1.60000000E+01  1.00800000E+00  1.00800000E+00  1.60000000E+01
  1.00800000E+00  1.00800000E+00  1.60000000E+01  1.00800000E+00  1.00800000E+00
  1.60000000E+01  1.00800000E+00  1.00800000E+00  1.60000000E+01  1.00800000E+00
  1.00800000E+00  1.60000000E+01  1.00800000E+00  1.00800000E+00  1.60000000E+01
  1.00800000E+00  1.00800000E+00  1.60000000E+01  1.00800000E+00  1.00800000E+00
  1.60000000E+01  1.00800000E+00  1.00800000E+00  1.60000000E+01  1.00800000E+00
  1.00800000E+00  1.60000000E+01  1.00800000E+00  1.00800000E+00  1.60000000E+01
  1.00800000E+00  1.00800000E+00  1.60000000E+01  1.00800000E+00  1.00800000E+00
  1.60000000E+01  1.00800000E+00  1.00800000E+00  1.60000000E+01  1.00800000E+00
  1.00800000E+00  1.60000000E+01  1.00800000E+00  1.00800000E+00  1.60000000E+01
  1.00800000E+00  1.00800000E+00  1.60000000E+01  1.00800000E+00  1.00800000E+00
  1.60000000E+01  1.00800000E+00  1.00800000E+00  1.60000000E+01  1.00800000E+00
  1.00800000E+00  1.60000000E+01  1.00800000E+00  1.00800000E+00  1.60000000E+01
  1.00800000E+00  1.00800000E+00  1.60000000E+01  1.00800000E+00  1.00800000E+00
  1.60000000E+01  1.00800000E+00  1.00800000E+00  1.60000000E+01  1.00800000E+00
  1.00800000E+00  1.60000000E+01  1.00800000E+00  1.00800000E+00  1.60000000E+01
  1.00800000E+00  1.00800000E+00  1.60000000E+01  1.00800000E+00  1.00800000E+00
  1.60000000E+01  1.00800000E+00  1.00800000E+00  1.60000000E+01  1.00800000E+00
  1.00800000E+00  1.60000000E+01  1.00800000E+00  1.00800000E+00  1.60000000E+01
  1.00800000E+00  1.00800000E+00  1.60000000E+01  1.00800000E+00  1.00800000E+00
  1.60000000E+01  1.00800000E+00  1.00800000E+00  1.60000000E+01  1.00800000E+00
  1.00800000E+00  1.60000000E+01  1.00800000E+00  1.00800000E+00  1.60000000E+01
  1.00800000E+00  1.00800000E+00  1.60000000E+01  1.00800000E+00  1.00800000E+00
  1.60000000E+01  1.00800000E+00  1.00800000E+00  1.60000000E+01  1.00800000E+00
  1.00800000E+00  1.60000000E+01  1.00800000E+00  1.00800000E+00  1.60000000E+01
  1.00800000E+00  1.00800000E+00  1.60000000E+01  1.00800000E+00  1.00800000E+00
  1.60000000E+01  1.00800000E+00  1.00800000E+00  1.60000000E+01  1.00800000E+00
  1.00800000E+00  1.60000000E+01  1.00800000E+00  1.00800000E+00  1.60000000E+01
  1.00800000E+00  1.00800000E+00  1.60000000E+01  1.00800000E+00  1.00800000E+00
  1.60000000E+01  1.00800000E+00  1.00800000E+00  1.60000000E+01  1.00800000E+00
  1.00800000E+00  1.60000000E+01  1.00800000E+00  1.00800000E+00  1.60000000E+01
  1.00800000E+00  1.00800000E+00  1.60000000E+01  1.00800000E+00  1.00800000E+00
  1.60000000E+01  1.00800000E+00  1.00800000E+00  1.60000000E+01  1.00800000E+00
  1.00800000E+00  1.60000000E+01  1.00800000E+00  1.00800000E+00  1.60000000E+01
  1.00800000E+00  1.00800000E+00  1.60000000E+01  1.00800000E+00  1.00800000E+00
  1.60000000E+01  1.00800000E+00  1.00800000E+00  1.60000000E+01  1.00800000E+00
  1.00800000E+00  1.60000000E+01  1.00800000E+00  1.00800000E+00  1.60000000E+01
  1.00800000E+00  1.00800000E+00  1.60000000E+01  1.00800000E+00  1.00800000E+00
  1.60000000E+01  1.00800000E+00  1.00800000E+00  1.60000000E+01  1.00800000E+00
  1.00800000E+00  1.60000000E+01  1.00800000E+00  1.00800000E+00  1.60000000E+01
  1.00800000E+00  1.00800000E+00  1.60000000E+01  1.00800000E+00  1.00800000E+00
  1.60000000E+01  1.00800000E+00  1.00800000E+00  1.60000000E+01  1.00800000E+00
  1.00800000E+00  1.60000000E+01  1.00800000E+00  1.00800000E+00  1.60000000E+01
  1.00800000E+00  1.00800000E+00  1.60000000E+01  1.00800000E+00  1.00800000E+00
  1.60000000E+01  1.00800000E+00  1.00800000E+00  1.60000000E+01  1.00800000E+00
  1.00800000E+00  1.60000000E+01  1.00800000E+00  1.00800000E+00  1.60000000E+01
  1.00800000E+00  1.00800000E+00  1.60000000E+01  1.00800000E+00  1.00800000E+00
  1.60000000E+01  1.00800000E+00  1.00800000E+00  1.60000000E+01  1.00800000E+00
  1.00800000E+00  1.60000000E+01  1.00800000E+00  1.00800000E+00  1.60000000E+01
  1.00800000E+00  1.00800000E+00  1.60000000E+01  1.00800000E+00  1.00800000E+00
  1.60000000E+01  1.00800000E+00  1.00800000E+00  1.60000000E+01  1.00800000E+00
  1.00800000E+00  1.60000000E+01  1.00800000E+00  1.00800000E+00  1.60000000E+01
  1.00800000E+00  1.00800000E+00  1.60000000E+01  1.00800000E+00  1.00800000E+00
  1.60000000E+01  1.00800000E+00  1.00800000E+00  1.60000000E+01  1.00800000E+00
  1.00800000E+00  1.60000000E+01  1.00800000E+00  1.00800000E+00  1.60000000E+01
  1.00800000E+00  1.00800000E+00  1.60000000E+01  1.00800000E+00  1.00800000E+00
  1.60000000E+01  1.00800000E+00  1.00800000E+00  1.60000000E+01  1.00800000E+00
  1.00800000E+00  1.60000000E+01  1.00800000E+00  1.00800000E+00  1.60000000E+01
  1.00800000E+00  1.00800000E+00  1.60000000E+01  1.00800000E+00  1.00800000E+00
  1.60000000E+01  1.00800000E+00  1.00800000E+00  1.60000000E+01  1.00800000E+00
  1.00800000E+00  1.60000000E+01  1.00800000E+00  1.00800000E+00  1.60000000E+01
  1.00800000E+00  1.00800000E+00  1.60000000E+01  1.00800000E+00  1.00800000E+00
  1.60000000E+01  1.00800000E+00  1.00800000E+00  1.60000000E+01  1.00800000E+00
  1.00800000E+00  1.60000000E+01  1.00800000E+00  1.00800000E+00  1.60000000E+01
  1.00800000E+00  1.00800000E+00  1.60000000E+01  1.00800000E+00  1.00800000E+00
  1.60000000E+01  1.00800000E+00  1.00800000E+00  1.60000000E+01  1.00800000E+00
  1.00800000E+00  1.60000000E+01  1.00800000E+00  1.00800000E+00  1.60000000E+01
  1.00800000E+00  1.00800000E+00  1.60000000E+01  1.00800000E+00  1.00800000E+00
  1.60000000E+01  1.00800000E+00  1.00800000E+00  1.60000000E+01  1.00800000E+00
  1.00800000E+00  1.60000000E+01  1.00800000E+00  1.00800000E+00  1.60000000E+01
  1.00800000E+00  1.00800000E+00  1.60000000E+01  1.00800000E+00  1.00800000E+00
  1.60000000E+01  1.00800000E+00  1.00800000E+00  1.60000000E+01  1.00800000E+00
  1.00800000E+00  1.60000000E+01  1.00800000E+00  1.00800000E+00  1.60000000E+01
  1.00800000E+00  1.00800000E+00  1.60000000E+01  1.00800000E+00  1.00800000E+00
  1.60000000E+01  1.00800000E+00  1.00800000E+00  1.60000000E+01  1.00800000E+00
  1.00800000E+00  1.60000000E+01  1.00800000E+00  1.00800000E+00  1.60000000E+01
  1.00800000E+00  1.00800000E+00  1.60000000E+01  1.00800000E+00  1.00800000E+00
  1.60000000E+01  1.00800000E+00  1.00800000E+00  1.60000000E+01  1.00800000E+00
  1.00800000E+00  1.60000000E+01  1.00800000E+00  1.00800000E+00  1.60000000E+01
  1.00800000E+00  1.00800000E+00  1.60000000E+01  1.00800000E+00  1.00800000E+00
  1.60000000E+01  1.00800000E+00  1.00800000E+00  1.60000000E+01  1.00800000E+00
  1.00800000E+00  1.60000000E+01  1.00800000E+00  1.00800000E+00  1.60000000E+01
  1.00800000E+00  1.00800000E+00  1.60000000E+01  1.00800000E+00  1.00800000E+00
  1.60000000E+01  1.00800000E+00  1.00800000E+00  1.60000000E+01  1.00800000E+00
  1.00800000E+00  1.60000000E+01  1.00800000E+00  1.00800000E+00  1.60000000E+01
  1.00800000E+00  1.00800000E+00  1.60000000E+01  1.00800000E+00  1.00800000E+00
  1.60000000E+01  1.00800000E+00  1.00800000E+00  1.60000000E+01  1.00800000E+00
  1.00800000E+00  1.60000000E+01  1.00800000E+00  1.00800000E+00  1.60000000E+01
  1.00800000E+00  1.00800000E+00  1.60000000E+01  1.00800000E+00  1.00800000E+00
  1.60000000E+01  1.00800000E+00  1.00800000E+00  1.60000000E+01  1.00800000E+00
  1.00800000E+00  1.60000000E+01  1.00800000E+00  1.00800000E+00  1.60000000E+01
  1.00800000E+00  1.00800000E+00  1.60000000E+01  1.00800000E+00  1.00800000E+00
  1.60000000E+01  1.00800000E+00  1.00800000E+00  1.60000000E+01  1.00800000E+00
  1.00800000E+00  1.60000000E+01  1.00800000E+00  1.00800000E+00  1.60000000E+01
  1.00800000E+00  1.00800000E+00  1.60000000E+01  1.00800000E+00  1.00800000E+00
  1.60000000E+01  1.00800000E+00  1.00800000E+00  1.60000000E+01  1.00800000E+00
  1.00800000E+00  1.60000000E+01  1.00800000E+00  1.00800000E+00  1.60000000E+01
  1.00800000E+00  1.00800000E+00  1.60000000E+01  1.00800000E+00  1.00800000E+00
  1.60000000E+01  1.00800000E+00  1.00800000E+00  1.60000000E+01  1.00800000E+00
  1.00800000E+00  1.60000000E+01  1.00800000E+00  1.00800000E+00  1.60000000E+01
  1.00800000E+00  1.00800000E+00  1.60000000E+01  1.00800000E+00  1.00800000E+00
  1.60000000E+01  1.00800000E+00  1.00800000E+00  1.60000000E+01  1.00800000E+00
  1.00800000E+00  1.60000000E+01  1.00800000E+00  1.00800000E+00  1.60000000E+01
  1.00800000E+00  1.00800000E+00  1.60000000E+01  1.00800000E+00  1.00800000E+00
  1.60000000E+01  1.00800000E+00  1.00800000E+00  1.60000000E+01  1.00800000E+00
  1.00800000E+00  1.60000000E+01  1.00800000E+00  1.00800000E+00  1.60000000E+01
  1.00800000E+00  1.00800000E+00  1.60000000E+01  1.00800000E+00  1.00800000E+00
  1.60000000E+01  1.00800000E+00  1.00800000E+00  1.60000000E+01  1.00800000E+00
  1.00800000E+00  1.60000000E+01  1.00800000E+00  1.00800000E+00  1.60000000E+01
  1.00800000E+00  1.00800000E+00  1.60000000E+01  1.00800000E+00  1.00800000E+00
  1.60000000E+01  1.00800000E+00  1.00800000E+00  1.60000000E+01  1.00800000E+00
  1.00800000E+00  1.60000000E+01  1.00800000E+00  1.00800000E+00  1.60000000E+01
  1.00800000E+00  1.00800000E+00  1.60000000E+01  1.00800000E+00  1.00800000E+00
  1.60000000E+01  1.00800000E+00  1.00800000E+00  1.60000000E+01  1.00800000E+00
  1.00800000E+00  1.60000000E+01  1.00800000E+00  1.00800000E+00  1.60000000E+01
  1.00800000E+00  1.00800000E+00  1.60000000E+01  1.00800000E+00  1.00800000E+00
  1.60000000E+01  1.00800000E+00  1.00800000E+00  1.60000000E+01  1.00800000E+00
  1.00800000E+00  1.60000000E+01  1.00800000E+00  1.00800000E+00  1.60000000E+01
  1.00800000E+00  1.00800000E+00  1.60000000E+01  1.00800000E+00  1.00800000E+00
  1.60000000E+01  1.00800000E+00  1.00800000E+00  1.60000000E+01  1.00800000E+00
  1.00800000E+00  1.60000000E+01  1.00800000E+00  1.00800000E+00  1.60000000E+01
  1.00800000E+00  1.00800000E+00  1.60000000E+01  1.00800000E+00  1.00800000E+00
  1.60000000E+01  1.00800000E+00  1.00800000E+00  1.60000000E+01  1.00800000E+00
  1.00800000E+00  1.60000000E+01  1.00800000E+00  1.00800000E+00  1.60000000E+01
  1.00800000E+00  1.00800000E+00  1.60000000E+01  1.00800000E+00  1.00800000E+00
  1.60000000E+01  1.00800000E+00  1.00800000E+00  1.60000000E+01  1.00800000E+00
  1.00800000E+00  1.60000000E+01  1.00800000E+00  1.00800000E+00  1.60000000E+01
  1.00800000E+00  1.00800000E+00  1.60000000E+01  1.00800000E+00  1.00800000E+00
  1.60000000E+01  1.00800000E+00  1.00800000E+00  1.60000000E+01  1.00800000E+00
  1.00800000E+00  1.60000000E+01  1.00800000E+00  1.00800000E+00  1.60000000E+01
  1.00800000E+00  1.00800000E+00  1.60000000E+01  1.00800000E+00  1.00800000E+00
  1.60000000E+01  1.00800000E+00  1.00800000E+00  1.60000000E+01  1.00800000E+00
  1.00800000E+00  1.60000000E+01  1.00800000E+00  1.00800000E+00  1.60000000E+01
  1.00800000E+00  1.00800000E+00  1.60000000E+01  1.00800000E+00  1.00800000E+00
  1.60000000E+01  1.00800000E+00  1.00800000E+00  1.60000000E+01  1.00800000E+00
  1.00800000E+00  1.60000000E+01  1.00800000E+00  1.00800000E+00  1.60000000E+01
  1.00800000E+00  1.00800000E+00  1.60000000E+01  1.00800000E+00  1.00800000E+00
  1.60000000E+01  1.00800000E+00  1.00800000E+00  1.60000000E+01  1.00800000E+00
  1.00800000E+00  1.60000000E+01  1.00800000E+00  1.00800000E+00  1.60000000E+01
  1.00800000E+00  1.00800000E+00  1.60000000E+01  1.00800000E+00  1.00800000E+00
  1.60000000E+01  1.00800000E+00  1.00800000E+00  1.60000000E+01  1.00800000E+00
  1.00800000E+00  1.60000000E+01  1.00800000E+00  1.00800000E+00  1.60000000E+01
  1.00800000E+00  1.00800000E+00  1.60000000E+01  1.00800000E+00  1.00800000E+00
  1.60000000E+01  1.00800000E+00  1.00800000E+00  1.60000000E+01  1.00800000E+00
  1.00800000E+00  1.60000000E+01  1.00800000E+00  1.00800000E+00  1.60000000E+01
  1.00800000E+00  1.00800000E+00  1.60000000E+01  1.00800000E+00  1.00800000E+00
  1.60000000E+01  1.00800000E+00  1.00800000E+00  1.60000000E+01  1.00800000E+00
  1.00800000E+00  1.60000000E+01  1.00800000E+00  1.00800000E+00  1.60000000E+01
  1.00800000E+00  1.00800000E+00  1.60000000E+01  1.00800000E+00  1.00800000E+00
  1.60000000E+01  1.00800000E+00  1.00800000E+00  1.60000000E+01  1.00800000E+00
  1.00800000E+00  1.60000000E+01  1.00800000E+00  1.00800000E+00  1.60000000E+01
  1.00800000E+00  1.00800000E+00  1.60000000E+01  1.00800000E+00  1.00800000E+00
  1.60000000E+01  1.00800000E+00  1.00800000E+00  1.60000000E+01  1.00800000E+00
  1.00800000E+00  1.60000000E+01  1.00800000E+00  1.00800000E+00  1.60000000E+01
  1.00800000E+00  1.00800000E+00  1.60000000E+01  1.00800000E+00  1.00800000E+00
  1.60000000E+01  1.00800000E+00  1.00800000E+00  1.60000000E+01  1.00800000E+00
  1.00800000E+00  1.60000000E+01  1.00800000E+00  1.00800000E+00  1.60000000E+01
  1.00800000E+00  1.00800000E+00  1.60000000E+01  1.00800000E+00  1.00800000E+00
  1.60000000E+01  1.00800000E+00  1.00800000E+00  1.60000000E+01  1.00800000E+00
  1.00800000E+00  1.60000000E+01  1.00800000E+00  1.00800000E+00  1.60000000E+01
  1.00800000E+00  1.00800000E+00  1.60000000E+01  1.00800000E+00  1.00800000E+00
  1.60000000E+01  1.00800000E+00  1.00800000E+00  1.60000000E+01  1.00800000E+00
  1.00800000E+00  1.60000000E+01  1.00800000E+00  1.00800000E+00  1.60000000E+01
  1.00800000E+00  1.00800000E+00  1.60000000E+01  1.00800000E+00  1.00800000E+00
  1.60000000E+01  1.00800000E+00  1.00800000E+00  1.60000000E+01  1.00800000E+00
  1.00800000E+00  1.60000000E+01  1.00800000E+00  1.00800000E+00  1.60000000E+01
  1.00800000E+00  1.00800000E+00  1.60000000E+01  1.00800000E+00  1.00800000E+00
  1.60000000E+01  1.00800000E+00  1.00800000E+00  1.60000000E+01  1.00800000E+00
  1.00800000E+00  1.60000000E+01  1.00800000E+00  1.00800000E+00  1.60000000E+01
  1.00800000E+00  1.00800000E+00  1.60000000E+01  1.00800000E+00  1.00800000E+00
  1.60000000E+01  1.00800000E+00  1.00800000E+00  1.60000000E+01  1.00800000E+00
  1.00800000E+00  1.60000000E+01  1.00800000E+00  1.00800000E+00  1.60000000E+01
  1.00800000E+00  1.00800000E+00  1.60000000E+01  1.00800000E+00  1.00800000E+00
  1.60000000E+01  1.00800000E+00  1.00800000E+00  1.60000000E+01  1.00800000E+00
  1.00800000E+00  1.60000000E+01  1.00800000E+00  1.00800000E+00  1.60000000E+01
  1.00800000E+00  1.00800000E+00  1.60000000E+01  1.00800000E+00  1.00800000E+00
  1.60000000E+01  1.00800000E+00  1.00800000E+00  1.60000000E+01  1.00800000E+00
  1.00800000E+00  1.60000000E+01  1.00800000E+00  1.00800000E+00  1.60000000E+01
  1.00800000E+00  1.00800000E+00  1.60000000E+01  1.00800000E+00  1.00800000E+00
  1.60000000E+01  1.00800000E+00  1.00800000E+00  1.60000000E+01  1.00800000E+00
  1.00800000E+00  1.60000000E+01  1.00800000E+00  1.00800000E+00  1.60000000E+01
  1.00800000E+00  1.00800000E+00  1.60000000E+01  1.00800000E+00  1.00800000E+00
  1.60000000E+01  1.00800000E+00  1.00800000E+00  1.60000000E+01  1.00800000E+00
  1.00800000E+00  1.60000000E+01  1.00800000E+00  1.00800000E+00  1.60000000E+01
  1.00800000E+00  1.00800000E+00  1.60000000E+01  1.00800000E+00  1.00800000E+00
  1.60000000E+01  1.00800000E+00  1.00800000E+00  1.60000000E+01  1.00800000E+00
  1.00800000E+00  1.60000000E+01  1.00800000E+00  1.00800000E+00  1.60000000E+01
  1.00800000E+00  1.00800000E+00  1.60000000E+01  1.00800000E+00  1.00800000E+00
  1.60000000E+01  1.00800000E+00  1.00800000E+00  1.60000000E+01  1.00800000E+00
  1.00800000E+00  1.60000000E+01  1.00800000E+00  1.00800000E+00  1.60000000E+01
  1.00800000E+00  1.00800000E+00  1.60000000E+01  1.00800000E+00  1.00800000E+00
  1.60000000E+01  1.00800000E+00  1.00800000E+00  1.60000000E+01  1.00800000E+00
  1.00800000E+00  1.60000000E+01  1.00800000E+00  1.00800000E+00  1.60000000E+01
  1.00800000E+00  1.00800000E+00  1.60000000E+01  1.00800000E+00  1.00800000E+00
  1.60000000E+01  1.00800000E+00  1.00800000E+00  1.60000000E+01  1.00800000E+00
  1.00800000E+00  1.60000000E+01  1.00800000E+00  1.00800000E+00  1.60000000E+01
  1.00800000E+00  1.00800000E+00  1.60000000E+01  1.00800000E+00  1.00800000E+00
  1.60000000E+01  1.00800000E+00  1.00800000E+00  1.60000000E+01  1.00800000E+00
  1.00800000E+00  1.60000000E+01  1.00800000E+00  1.00800000E+00  1.60000000E+01
  1.00800000E+00  1.00800000E+00  1.60000000E+01  1.00800000E+00  1.00800000E+00
  1.60000000E+01  1.00800000E+00  1.00800000E+00  1.60000000E+01  1.00800000E+00
  1.00800000E+00  1.60000000E+01  1.00800000E+00  1.00800000E+00  1.60000000E+01
  1.00800000E+00  1.00800000E+00  1.60000000E+01  1.00800000E+00  1.00800000E+00
  1.60000000E+01  1.00800000E+00  1.00800000E+00  1.60000000E+01  1.00800000E+00
  1.00800000E+00  1.60000000E+01  1.00800000E+00  1.00800000E+00  1.60000000E+01
  1.00800000E+00  1.00800000E+00  1.60000000E+01  1.00800000E+00  1.00800000E+00
  1.60000000E+01  1.00800000E+00  1.00800000E+00  1.60000000E+01  1.00800000E+00
  1.00800000E+00  1.60000000E+01  1.00800000E+00  1.00800000E+00  1.60000000E+01
  1.00800000E+00  1.00800000E+00  1.60000000E+01  1.00800000E+00  1.00800000E+00
  1.60000000E+01  1.00800000E+00  1.00800000E+00  1.60000000E+01  1.00800000E+00
  1.00800000E+00  1.60000000E+01  1.00800000E+00  1.00800000E+00  1.60000000E+01
  1.00800000E+00  1.00800000E+00  1.60000000E+01  1.00800000E+00  1.00800000E+00
  1.60000000E+01  1.00800000E+00  1.00800000E+00  1.60000000E+01  1.00800000E+00
  1.00800000E+00  1.60000000E+01  1.00800000E+00  1.00800000E+00  1.60000000E+01
  1.00800000E+00  1.00800000E+00  1.60000000E+01  1.00800000E+00  1.00800000E+00
  1.60000000E+01  1.00800000E+00  1.00800000E+00  1.60000000E+01  1.00800000E+00
  1.00800000E+00  1.60000000E+01  1.00800000E+00  1.00800000E+00  1.60000000E+01
  1.00800000E+00  1.00800000E+00  1.60000000E+01  1.00800000E+00  1.00800000E+00
  1.60000000E+01  1.00800000E+00  1.00800000E+00  1.60000000E+01  1.00800000E+00
  1.00800000E+00  1.60000000E+01  1.00800000E+00  1.00800000E+00  1.60000000E+01
  1.00800000E+00  1.00800000E+00  1.60000000E+01  1.00800000E+00  1.00800000E+00
  1.60000000E+01  1.00800000E+00  1.00800000E+00  1.60000000E+01  1.00800000E+00
  1.00800000E+00  1.60000000E+01  1.00800000E+00  1.00800000E+00  1.60000000E+01
  1.00800000E+00  1.00800000E+00  1.60000000E+01  1.00800000E+00  1.00800000E+00
  1.60000000E+01  1.00800000E+00  1.00800000E+00  1.60000000E+01  1.00800000E+00
  1.00800000E+00  1.60000000E+01  1.00800000E+00  1.00800000E+00  1.60000000E+01
  1.00800000E+00  1.00800000E+00  1.60000000E+01  1.00800000E+00  1.00800000E+00
  1.60000000E+01  1.00800000E+00  1.00800000E+00  1.60000000E+01  1.00800000E+00
  1.00800000E+00  1.60000000E+01  1.00800000E+00  1.00800000E+00  1.60000000E+01
  1.00800000E+00  1.00800000E+00  1.60000000E+01  1.00800000E+00  1.00800000E+00
  1.60000000E+01  1.00800000E+00  1.00800000E+00  1.60000000E+01  1.00800000E+00
  1.00800000E+00  1.60000000E+01  1.00800000E+00  1.00800000E+00  1.60000000E+01
  1.00800000E+00  1.00800000E+00  1.60000000E+01  1.00800000E+00  1.00800000E+00
  1.60000000E+01  1.00800000E+00  1.00800000E+00  1.60000000E+01  1.00800000E+00
  1.00800000E+00  1.60000000E+01  1.00800000E+00  1.00800000E+00  1.60000000E+01
  1.00800000E+00  1.00800000E+00  1.60000000E+01  1.00800000E+00  1.00800000E+00
  1.60000000E+01  1.00800000E+00  1.00800000E+00  1.60000000E+01  1.00800000E+00
  1.00800000E+00  1.60000000E+01  1.00800000E+00  1.00800000E+00  1.60000000E+01
  1.00800000E+00  1.00800000E+00  1.60000000E+01  1.00800000E+00  1.00800000E+00
  1.60000000E+01  1.00800000E+00  1.00800000E+00  1.60000000E+01  1.00800000E+00
  1.00800000E+00  1.60000000E+01  1.00800000E+00  1.00800000E+00  1.60000000E+01
  1.00800000E+00  1.00800000E+00  1.60000000E+01  1.00800000E+00  1.00800000E+00
  1.60000000E+01  1.00800000E+00  1.00800000E+00  1.60000000E+01  1.00800000E+00
  1.00800000E+00  1.60000000E+01  1.00800000E+00  1.00800000E+00  1.60000000E+01
  1.00800000E+00  1.00800000E+00  1.60000000E+01  1.00800000E+00  1.00800000E+00
  1.60000000E+01  1.00800000E+00  1.00800000E+00  1.60000000E+01  1.00800000E+00
  1.00800000E+00  1.60000000E+01  1.00800000E+00  1.00800000E+00  1.60000000E+01
  1.00800000E+00  1.00800000E+00  1.60000000E+01  1.00800000E+00  1.00800000E+00
  1.60000000E+01  1.00800000E+00  1.00800000E+00  1.60000000E+01  1.00800000E+00
  1.00800000E+00  1.60000000E+01  1.00800000E+00  1.00800000E+00  1.60000000E+01
  1.00800000E+00  1.00800000E+00  1.60000000E+01  1.00800000E+00  1.00800000E+00
  1.60000000E+01  1.00800000E+00  1.00800000E+00  1.60000000E+01  1.00800000E+00
  1.00800000E+00  1.60000000E+01  1.00800000E+00  1.00800000E+00  1.60000000E+01
  1.00800000E+00  1.00800000E+00  1.60000000E+01  1.00800000E+00  1.00800000E+00
  1.60000000E+01  1.00800000E+00  1.00800000E+00  1.60000000E+01  1.00800000E+00
  1.00800000E+00  1.60000000E+01  1.00800000E+00  1.00800000E+00  1.60000000E+01
  1.00800000E+00  1.00800000E+00  1.60000000E+01  1.00800000E+00  1.00800000E+00
  1.60000000E+01  1.00800000E+00  1.00800000E+00  1.60000000E+01  1.00800000E+00
  1.00800000E+00  1.60000000E+01  1.00800000E+00  1.00800000E+00  1.60000000E+01
  1.00800000E+00  1.00800000E+00  1.60000000E+01  1.00800000E+00  1.00800000E+00
  1.60000000E+01  1.00800000E+00  1.00800000E+00  1.60000000E+01  1.00800000E+00
  1.00800000E+00  1.60000000E+01  1.00800000E+00  1.00800000E+00  1.60000000E+01
  1.00800000E+00  1.00800000E+00  1.60000000E+01  1.00800000E+00  1.00800000E+00
  1.60000000E+01  1.00800000E+00  1.00800000E+00  1.60000000E+01  1.00800000E+00
  1.00800000E+00  1.60000000E+01  1.00800000E+00  1.00800000E+00  1.60000000E+01
  1.00800000E+00  1.00800000E+00  1.60000000E+01  1.00800000E+00  1.00800000E+00
  1.60000000E+01  1.00800000E+00  1.00800000E+00  1.60000000E+01  1.00800000E+00
  1.00800000E+00  1.60000000E+01  1.00800000E+00  1.00800000E+00  1.60000000E+01
  1.00800000E+00  1.00800000E+00  1.60000000E+01  1.00800000E+00  1.00800000E+00
  1.60000000E+01  1.00800000E+00  1.00800000E+00  1.60000000E+01  1.00800000E+00
  1.00800000E+00  1.60000000E+01  1.00800000E+00  1.00800000E+00  1.60000000E+01
  1.00800000E+00  1.00800000E+00  1.60000000E+01  1.00800000E+00  1.00800000E+00
  1.60000000E+01  1.00800000E+00  1.00800000E+00  1.60000000E+01  1.00800000E+00
  1.00800000E+00  1.60000000E+01  1.00800000E+00  1.00800000E+00  1.60000000E+01
  1.00800000E+00  1.00800000E+00  1.60000000E+01  1.00800000E+00  1.00800000E+00
  1.60000000E+01  1.00800000E+00  1.00800000E+00  1.60000000E+01  1.00800000E+00
  1.00800000E+00  1.60000000E+01  1.00800000E+00  1.00800000E+00  1.60000000E+01
  1.00800000E+00  1.00800000E+00  1.60000000E+01  1.00800000E+00  1.00800000E+00
  1.60000000E+01  1.00800000E+00  1.00800000E+00  1.60000000E+01  1.00800000E+00
  1.00800000E+00  1.60000000E+01  1.00800000E+00  1.00800000E+00  1.60000000E+01
  1.00800000E+00  1.00800000E+00  1.60000000E+01  1.00800000E+00  1.00800000E+00
  1.60000000E+01  1.00800000E+00  1.00800000E+00  1.60000000E+01  1.00800000E+00
  1.00800000E+00  1.60000000E+01  1.00800000E+00  1.00800000E+00  1.60000000E+01
  1.00800000E+00  1.00800000E+00  1.60000000E+01  1.00800000E+00  1.00800000E+00
  1.60000000E+01  1.00800000E+00  1.00800000E+00  1.60000000E+01  1.00800000E+00
  1.00800000E+00  1.60000000E+01  1.00800000E+00  1.00800000E+00  1.60000000E+01
  1.00800000E+00  1.00800000E+00  1.60000000E+01  1.00800000E+00  1.00800000E+00
  1.60000000E+01  1.00800000E+00  1.00800000E+00  1.60000000E+01  1.00800000E+00
  1.00800000E+00  1.60000000E+01  1.00800000E+00  1.00800000E+00  1.60000000E+01
  1.00800000E+00  1.00800000E+00  1.60000000E+01  1.00800000E+00  1.00800000E+00
  1.60000000E+01  1.00800000E+00  1.00800000E+00  1.60000000E+01  1.00800000E+00
  1.00800000E+00  1.60000000E+01  1.00800000E+00  1.00800000E+00  1.60000000E+01
  1.00800000E+00  1.00800000E+00  1.60000000E+01  1.00800000E+00  1.00800000E+00
  1.60000000E+01  1.00800000E+00  1.00800000E+00  1.60000000E+01  1.00800000E+00
  1.00800000E+00  1.60000000E+01  1.00800000E+00  1.00800000E+00  1.60000000E+01
  1.00800000E+00  1.00800000E+00  1.60000000E+01  1.00800000E+00  1.00800000E+00
  1.60000000E+01  1.00800000E+00  1.00800000E+00  1.60000000E+01  1.00800000E+00
  1.00800000E+00  1.60000000E+01  1.00800000E+00  1.00800000E+00  1.60000000E+01
  1.00800000E+00  1.00800000E+00  1.60000000E+01  1.00800000E+00  1.00800000E+00
  1.60000000E+01  1.00800000E+00  1.00800000E+00  1.60000000E+01  1.00800000E+00
  1.00800000E+00  1.60000000E+01  1.00800000E+00  1.00800000E+00  1.60000000E+01
  1.00800000E+00  1.00800000E+00  1.60000000E+01  1.00800000E+00  1.00800000E+00
  1.60000000E+01  1.00800000E+00  1.00800000E+00  1.60000000E+01  1.00800000E+00
  1.00800000E+00  1.60000000E+01  1.00800000E+00  1.00800000E+00  1.60000000E+01
  1.00800000E+00  1.00800000E+00  1.60000000E+01  1.00800000E+00  1.00800000E+00
  1.60000000E+01  1.00800000E+00  1.00800000E+00  1.60000000E+01  1.00800000E+00
  1.00800000E+00  1.60000000E+01  1.00800000E+00  1.00800000E+00  1.60000000E+01
  1.00800000E+00  1.00800000E+00  1.60000000E+01  1.00800000E+00  1.00800000E+00
  1.60000000E+01  1.00800000E+00  1.00800000E+00  1.60000000E+01  1.00800000E+00
  1.00800000E+00  1.60000000E+01  1.00800000E+00  1.00800000E+00  1.60000000E+01
  1.00800000E+00  1.00800000E+00  1.60000000E+01  1.00800000E+00  1.00800000E+00
  1.60000000E+01  1.00800000E+00  1.00800000E+00  1.60000000E+01  1.00800000E+00
  1.00800000E+00  1.60000000E+01  1.00800000E+00  1.00800000E+00  1.60000000E+01
  1.00800000E+00  1.00800000E+00  1.60000000E+01  1.00800000E+00  1.00800000E+00
  1.60000000E+01  1.00800000E+00  1.00800000E+00  1.60000000E+01  1.00800000E+00
  1.00800000E+00  1.60000000E+01  1.00800000E+00  1.00800000E+00  1.60000000E+01
  1.00800000E+00  1.00800000E+00  1.60000000E+01  1.00800000E+00  1.00800000E+00
  1.60000000E+01  1.00800000E+00  1.00800000E+00  1.60000000E+01  1.00800000E+00
  1.00800000E+00  1.60000000E+01  1.00800000E+00  1.00800000E+00  1.60000000E+01
  1.00800000E+00  1.00800000E+00  1.60000000E+01  1.00800000E+00  1.00800000E+00
  1.60000000E+01  1.00800000E+00  1.00800000E+00  1.60000000E+01  1.00800000E+00
  1.00800000E+00  1.60000000E+01  1.00800000E+00  1.00800000E+00  1.60000000E+01
  1.00800000E+00  1.00800000E+00  1.60000000E+01  1.00800000E+00  1.00800000E+00
  1.60000000E+01  1.00800000E+00  1.00800000E+00  1.60000000E+01  1.00800000E+00
  1.00800000E+00  1.60000000E+01  1.00800000E+00  1.00800000E+00  1.60000000E+01
  1.00800000E+00  1.00800000E+00  1.60000000E+01  1.00800000E+00  1.00800000E+00
  1.60000000E+01  1.00800000E+00  1.00800000E+00  1.60000000E+01  1.00800000E+00
  1.00800000E+00  1.60000000E+01  1.00800000E+00  1.00800000E+00  1.60000000E+01
  1.00800000E+00  1.00800000E+00  1.60000000E+01  1.00800000E+00  1.00800000E+00
  1.60000000E+01  1.00800000E+00  1.00800000E+00  1.60000000E+01  1.00800000E+00
  1.00800000E+00  1.60000000E+01  1.00800000E+00  1.00800000E+00  1.60000000E+01
  1.00800000E+00  1.00800000E+00  1.60000000E+01  1.00800000E+00  1.00800000E+00
  1.60000000E+01  1.00800000E+00  1.00800000E+00  1.60000000E+01  1.00800000E+00
  1.00800000E+00  1.60000000E+01  1.00800000E+00  1.00800000E+00  1.60000000E+01
  1.00800000E+00  1.00800000E+00  1.60000000E+01  1.00800000E+00  1.00800000E+00
  1.60000000E+01  1.00800000E+00  1.00800000E+00  1.60000000E+01  1.00800000E+00
  1.00800000E+00  1.60000000E+01  1.00800000E+00  1.00800000E+00  1.60000000E+01
  1.00800000E+00  1.00800000E+00  1.60000000E+01  1.00800000E+00  1.00800000E+00
  1.60000000E+01  1.00800000E+00  1.00800000E+00  1.60000000E+01  1.00800000E+00
  1.00800000E+00  1.60000000E+01  1.00800000E+00  1.00800000E+00  1.60000000E+01
  1.00800000E+00  1.00800000E+00  1.60000000E+01  1.00800000E+00  1.00800000E+00
  1.60000000E+01  1.00800000E+00  1.00800000E+00  1.60000000E+01  1.00800000E+00
  1.00800000E+00  1.60000000E+01  1.00800000E+00  1.00800000E+00  1.60000000E+01
  1.00800000E+00  1.00800000E+00  1.60000000E+01  1.00800000E+00  1.00800000E+00
  1.60000000E+01  1.00800000E+00  1.00800000E+00  1.60000000E+01  1.00800000E+00
  1.00800000E+00  1.60000000E+01  1.00800000E+00  1.00800000E+00  1.60000000E+01
  1.00800000E+00  1.00800000E+00  1.60000000E+01  1.00800000E+00  1.00800000E+00
  1.60000000E+01  1.00800000E+00  1.00800000E+00  1.60000000E+01  1.00800000E+00
  1.00800000E+00  1.60000000E+01  1.00800000E+00  1.00800000E+00  1.60000000E+01
  1.00800000E+00  1.00800000E+00  1.60000000E+01  1.00800000E+00  1.00800000E+00
  1.60000000E+01  1.00800000E+00  1.00800000E+00  1.60000000E+01  1.00800000E+00
  1.00800000E+00  1.60000000E+01  1.00800000E+00  1.00800000E+00  1.60000000E+01
  1.00800000E+00  1.00800000E+00  1.60000000E+01  1.00800000E+00  1.00800000E+00
  1.60000000E+01  1.00800000E+00  1.00800000E+00  1.60000000E+01  1.00800000E+00
  1.00800000E+00  1.60000000E+01  1.00800000E+00  1.00800000E+00  1.60000000E+01
  1.00800000E+00  1.00800000E+00  1.60000000E+01  1.00800000E+00  1.00800000E+00
  1.60000000E+01  1.00800000E+00  1.00800000E+00  1.60000000E+01  1.00800000E+00
  1.00800000E+00  1.60000000E+01  1.00800000E+00  1.00800000E+00  1.60000000E+01
  1.00800000E+00  1.00800000E+00  1.60000000E+01  1.00800000E+00  1.00800000E+00
  1.60000000E+01  1.00800000E+00  1.00800000E+00  1.60000000E+01  1.00800000E+00
  1.00800000E+00  1.60000000E+01  1.00800000E+00  1.00800000E+00  1.60000000E+01
  1.00800000E+00  1.00800000E+00  1.60000000E+01  1.00800000E+00  1.00800000E+00
  1.60000000E+01  1.00800000E+00  1.00800000E+00  1.60000000E+01  1.00800000E+00
  1.00800000E+00  1.60000000E+01  1.00800000E+00  1.00800000E+00  1.60000000E+01
  1.00800000E+00  1.00800000E+00  1.60000000E+01  1.00800000E+00  1.00800000E+00
  1.60000000E+01  1.00800000E+00  1.00800000E+00  1.60000000E+01  1.00800000E+00
  1.00800000E+00  1.60000000E+01  1.00800000E+00  1.00800000E+00  1.60000000E+01
  1.00800000E+00  1.00800000E+00  1.60000000E+01  1.00800000E+00  1.00800000E+00
  1.60000000E+01  1.00800000E+00  1.00800000E+00  1.60000000E+01  1.00800000E+00
  1.00800000E+00  1.60000000E+01  1.00800000E+00  1.00800000E+00  1.60000000E+01
  1.00800000E+00  1.00800000E+00  1.60000000E+01  1.00800000E+00  1.00800000E+00
  1.60000000E+01  1.00800000E+00  1.00800000E+00  1.60000000E+01  1.00800000E+00
  1.00800000E+00  1.60000000E+01  1.00800000E+00  1.00800000E+00  1.60000000E+01
  1.00800000E+00  1.00800000E+00  1.60000000E+01  1.00800000E+00  1.00800000E+00
  1.60000000E+01  1.00800000E+00  1.00800000E+00  1.60000000E+01  1.00800000E+00
  1.00800000E+00  1.60000000E+01  1.00800000E+00  1.00800000E+00  1.60000000E+01
  1.00800000E+00  1.00800000E+00  1.60000000E+01  1.00800000E+00  1.00800000E+00
  1.60000000E+01  1.00800000E+00  1.00800000E+00  1.60000000E+01  1.00800000E+00
  1.00800000E+00  1.60000000E+01  1.00800000E+00  1.00800000E+00  1.60000000E+01
  1.00800000E+00  1.00800000E+00  1.60000000E+01  1.00800000E+00  1.00800000E+00
  1.60000000E+01  1.00800000E+00  1.00800000E+00  1.60000000E+01  1.00800000E+00
  1.00800000E+00  1.60000000E+01  1.00800000E+00  1.00800000E+00  1.60000000E+01
  1.00800000E+00  1.00800000E+00  1.60000000E+01  1.00800000E+00  1.00800000E+00
  1.60000000E+01  1.00800000E+00  1.00800000E+00  1.60000000E+01  1.00800000E+00
  1.00800000E+00  1.60000000E+01  1.00800000E+00  1.00800000E+00  1.60000000E+01
  1.00800000E+00  1.00800000E+00  1.60000000E+01  1.00800000E+00  1.00800000E+00
  1.60000000E+01  1.00800000E+00  1.00800000E+00  1.60000000E+01  1.00800000E+00
  1.00800000E+00  1.60000000E+01  1.00800000E+00  1.00800000E+00  1.60000000E+01
  1.00800000E+00  1.00800000E+00  1.60000000E+01  1.00800000E+00  1.00800000E+00
  1.60000000E+01  1.00800000E+00  1.00800000E+00  1.60000000E+01  1.00800000E+00
  1.00800000E+00  1.60000000E+01  1.00800000E+00  1.00800000E+00  1.60000000E+01
  1.00800000E+00  1.00800000E+00  1.60000000E+01  1.00800000E+00  1.00800000E+00
  1.60000000E+01  1.00800000E+00  1.00800000E+00  1.60000000E+01  1.00800000E+00
  1.00800000E+00  1.60000000E+01  1.00800000E+00  1.00800000E+00  1.60000000E+01
  1.00800000E+00  1.00800000E+00  1.60000000E+01  1.00800000E+00  1.00800000E+00
  1.60000000E+01  1.00800000E+00  1.00800000E+00  1.60000000E+01  1.00800000E+00
  1.00800000E+00  1.60000000E+01  1.00800000E+00  1.00800000E+00  1.60000000E+01
  1.00800000E+00  1.00800000E+00  1.60000000E+01  1.00800000E+00  1.00800000E+00
  1.60000000E+01  1.00800000E+00  1.00800000E+00  1.60000000E+01  1.00800000E+00
  1.00800000E+00  1.60000000E+01  1.00800000E+00  1.00800000E+00  1.60000000E+01
  1.00800000E+00  1.00800000E+00  1.60000000E+01  1.00800000E+00  1.00800000E+00
  1.60000000E+01  1.00800000E+00  1.00800000E+00  1.60000000E+01  1.00800000E+00
  1.00800000E+00  1.60000000E+01  1.00800000E+00  1.00800000E+00  1.60000000E+01
  1.00800000E+00  1.00800000E+00  1.60000000E+01  1.00800000E+00  1.00800000E+00
  1.60000000E+01  1.00800000E+00  1.00800000E+00  1.60000000E+01  1.00800000E+00
  1.00800000E+00  1.60000000E+01  1.00800000E+00  1.00800000E+00  1.60000000E+01
  1.00800000E+00  1.00800000E+00  1.60000000E+01  1.00800000E+00  1.00800000E+00
  1.60000000E+01  1.00800000E+00  1.00800000E+00  1.60000000E+01  1.00800000E+00
  1.00800000E+00  1.60000000E+01  1.00800000E+00  1.00800000E+00  1.60000000E+01
  1.00800000E+00  1.00800000E+00  1.60000000E+01  1.00800000E+00  1.00800000E+00
  1.60000000E+01  1.00800000E+00  1.00800000E+00  1.60000000E+01  1.00800000E+00
  1.00800000E+00  1.60000000E+01  1.00800000E+00  1.00800000E+00  1.60000000E+01
  1.00800000E+00  1.00800000E+00  1.60000000E+01  1.00800000E+00  1.00800000E+00
  1.60000000E+01  1.00800000E+00  1.00800000E+00  1.60000000E+01  1.00800000E+00
  1.00800000E+00  1.60000000E+01  1.00800000E+00  1.00800000E+00  1.60000000E+01
  1.00800000E+00  1.00800000E+00  1.60000000E+01  1.00800000E+00  1.00800000E+00
  1.60000000E+01  1.00800000E+00  1.00800000E+00  1.60000000E+01  1.00800000E+00
  1.00800000E+00  1.60000000E+01  1.00800000E+00  1.00800000E+00  1.60000000E+01
  1.00800000E+00  1.00800000E+00  1.60000000E+01  1.00800000E+00  1.00800000E+00
  1.60000000E+01  1.00800000E+00  1.00800000E+00  1.60000000E+01  1.00800000E+00
  1.00800000E+00  1.60000000E+01  1.00800000E+00  1.00800000E+00  1.60000000E+01
  1.00800000E+00  1.00800000E+00  1.60000000E+01  1.00800000E+00  1.00800000E+00
  1.60000000E+01  1.00800000E+00  1.00800000E+00  1.60000000E+01  1.00800000E+00
  1.00800000E+00  1.60000000E+01  1.00800000E+00  1.00800000E+00  1.60000000E+01
  1.00800000E+00  1.00800000E+00  1.60000000E+01  1.00800000E+00  1.00800000E+00
  1.60000000E+01  1.00800000E+00  1.00800000E+00  1.60000000E+01  1.00800000E+00
  1.00800000E+00  1.60000000E+01  1.00800000E+00  1.00800000E+00  1.60000000E+01
  1.00800000E+00  1.00800000E+00  1.60000000E+01  1.00800000E+00  1.00800000E+00
  1.60000000E+01  1.00800000E+00  1.00800000E+00  1.60000000E+01  1.00800000E+00
  1.00800000E+00  1.60000000E+01  1.00800000E+00  1.00800000E+00  1.60000000E+01
  1.00800000E+00  1.00800000E+00  1.60000000E+01  1.00800000E+00  1.00800000E+00
  1.60000000E+01  1.00800000E+00  1.00800000E+00  1.60000000E+01  1.00800000E+00
  1.00800000E+00  1.60000000E+01  1.00800000E+00  1.00800000E+00  1.60000000E+01
  1.00800000E+00  1.00800000E+00  1.60000000E+01  1.00800000E+00  1.00800000E+00
  1.60000000E+01  1.00800000E+00  1.00800000E+00  1.60000000E+01  1.00800000E+00
  1.00800000E+00  1.60000000E+01  1.00800000E+00  1.00800000E+00  1.60000000E+01
  1.00800000E+00  1.00800000E+00  1.60000000E+01  1.00800000E+00  1.00800000E+00
  1.60000000E+01  1.00800000E+00  1.00800000E+00  1.60000000E+01  1.00800000E+00
  1.00800000E+00  1.60000000E+01  1.00800000E+00  1.00800000E+00  1.60000000E+01
  1.00800000E+00  1.00800000E+00  1.60000000E+01  1.00800000E+00  1.00800000E+00
  1.60000000E+01  1.00800000E+00  1.00800000E+00  1.60000000E+01  1.00800000E+00
  1.00800000E+00  1.60000000E+01  1.00800000E+00  1.00800000E+00  1.60000000E+01
  1.00800000E+00  1.00800000E+00  1.60000000E+01  1.00800000E+00  1.00800000E+00
  1.60000000E+01  1.00800000E+00  1.00800000E+00  1.60000000E+01  1.00800000E+00
  1.00800000E+00  1.60000000E+01  1.00800000E+00  1.00800000E+00  1.60000000E+01
  1.00800000E+00  1.00800000E+00  1.60000000E+01  1.00800000E+00  1.00800000E+00
  1.60000000E+01  1.00800000E+00  1.00800000E+00  1.60000000E+01  1.00800000E+00
  1.00800000E+00  1.60000000E+01  1.00800000E+00  1.00800000E+00  1.60000000E+01
  1.00800000E+00  1.00800000E+00  1.60000000E+01  1.00800000E+00  1.00800000E+00
  1.60000000E+01  1.00800000E+00  1.00800000E+00  1.60000000E+01  1.00800000E+00
  1.00800000E+00  1.60000000E+01  1.00800000E+00  1.00800000E+00  1.60000000E+01
  1.00800000E+00  1.00800000E+00  1.60000000E+01  1.00800000E+00  1.00800000E+00
  1.60000000E+01  1.00800000E+00  1.00800000E+00  1.60000000E+01  1.00800000E+00
  1.00800000E+00  1.60000000E+01  1.00800000E+00  1.00800000E+00  1.60000000E+01
  1.00800000E+00  1.00800000E+00  1.60000000E+01  1.00800000E+00  1.00800000E+00
  1.60000000E+01  1.00800000E+00  1.00800000E+00  1.60000000E+01  1.00800000E+00
  1.00800000E+00  1.60000000E+01  1.00800000E+00  1.00800000E+00  1.60000000E+01
  1.00800000E+00  1.00800000E+00  1.60000000E+01  1.00800000E+00  1.00800000E+00
  1.60000000E+01  1.00800000E+00  1.00800000E+00  1.60000000E+01  1.00800000E+00
  1.00800000E+00  1.60000000E+01  1.00800000E+00  1.00800000E+00  1.60000000E+01
  1.00800000E+00  1.00800000E+00  1.60000000E+01  1.00800000E+00  1.00800000E+00
  1.60000000E+01  1.00800000E+00  1.00800000E+00  1.60000000E+01  1.00800000E+00
  1.00800000E+00  1.60000000E+01  1.00800000E+00  1.00800000E+00  1.60000000E+01
  1.00800000E+00  1.00800000E+00  1.60000000E+01  1.00800000E+00  1.00800000E+00
  1.60000000E+01  1.00800000E+00  1.00800000E+00  1.60000000E+01  1.00800000E+00
  1.00800000E+00  1.60000000E+01  1.00800000E+00  1.00800000E+00  1.60000000E+01
  1.00800000E+00  1.00800000E+00  1.60000000E+01  1.00800000E+00  1.00800000E+00
  1.60000000E+01  1.00800000E+00  1.00800000E+00  1.60000000E+01  1.00800000E+00
  1.00800000E+00  1.60000000E+01  1.00800000E+00  1.00800000E+00  1.60000000E+01
  1.00800000E+00  1.00800000E+00  1.60000000E+01  1.00800000E+00  1.00800000E+00
  1.60000000E+01  1.00800000E+00  1.00800000E+00  1.60000000E+01  1.00800000E+00
  1.00800000E+00  1.60000000E+01  1.00800000E+00  1.00800000E+00  1.60000000E+01
  1.00800000E+00  1.00800000E+00  1.60000000E+01  1.00800000E+00  1.00800000E+00
  1.60000000E+01  1.00800000E+00  1.00800000E+00  1.60000000E+01  1.00800000E+00
  1.00800000E+00  1.60000000E+01  1.00800000E+00  1.00800000E+00  1.60000000E+01
  1.00800000E+00  1.00800000E+00  1.60000000E+01  1.00800000E+00  1.00800000E+00
  1.60000000E+01  1.00800000E+00  1.00800000E+00  1.60000000E+01  1.00800000E+00
  1.00800000E+00  1.60000000E+01  1.00800000E+00  1.00800000E+00  1.60000000E+01
  1.00800000E+00  1.00800000E+00  1.60000000E+01  1.00800000E+00  1.00800000E+00
  1.60000000E+01  1.00800000E+00  1.00800000E+00  1.60000000E+01  1.00800000E+00
  1.00800000E+00  1.60000000E+01  1.00800000E+00  1.00800000E+00  1.60000000E+01
  1.00800000E+00  1.00800000E+00  1.60000000E+01  1.00800000E+00  1.00800000E+00
  1.60000000E+01  1.00800000E+00  1.00800000E+00  1.60000000E+01  1.00800000E+00
  1.00800000E+00  1.60000000E+01  1.00800000E+00  1.00800000E+00  1.60000000E+01
  1.00800000E+00  1.00800000E+00  1.60000000E+01  1.00800000E+00  1.00800000E+00
  1.60000000E+01  1.00800000E+00  1.00800000E+00  1.60000000E+01  1.00800000E+00
  1.00800000E+00  1.60000000E+01  1.00800000E+00  1.00800000E+00  1.60000000E+01
  1.00800000E+00  1.00800000E+00  1.60000000E+01  1.00800000E+00  1.00800000E+00
  1.60000000E+01  1.00800000E+00  1.00800000E+00  1.60000000E+01  1.00800000E+00
  1.00800000E+00  1.60000000E+01  1.00800000E+00  1.00800000E+00  1.60000000E+01
  1.00800000E+00  1.00800000E+00  1.60000000E+01  1.00800000E+00  1.00800000E+00
  1.60000000E+01  1.00800000E+00  1.00800000E+00  1.60000000E+01  1.00800000E+00
  1.00800000E+00  1.60000000E+01  1.00800000E+00  1.00800000E+00  1.60000000E+01
  1.00800000E+00  1.00800000E+00  1.60000000E+01  1.00800000E+00  1.00800000E+00
  1.60000000E+01  1.00800000E+00  1.00800000E+00  1.60000000E+01  1.00800000E+00
  1.00800000E+00  1.60000000E+01  1.00800000E+00  1.00800000E+00  1.60000000E+01
  1.00800000E+00  1.00800000E+00  1.60000000E+01  1.00800000E+00  1.00800000E+00
  1.60000000E+01  1.00800000E+00  1.00800000E+00  1.60000000E+01  1.00800000E+00
  1.00800000E+00  1.60000000E+01  1.00800000E+00  1.00800000E+00  1.60000000E+01
  1.00800000E+00  1.00800000E+00  1.60000000E+01  1.00800000E+00  1.00800000E+00
  1.60000000E+01  1.00800000E+00  1.00800000E+00  1.60000000E+01  1.00800000E+00
  1.00800000E+00  1.60000000E+01  1.00800000E+00  1.00800000E+00  1.60000000E+01
  1.00800000E+00  1.00800000E+00  1.60000000E+01  1.00800000E+00  1.00800000E+00
  1.60000000E+01  1.00800000E+00  1.00800000E+00  1.60000000E+01  1.00800000E+00
  1.00800000E+00  1.60000000E+01  1.00800000E+00  1.00800000E+00  1.60000000E+01
  1.00800000E+00  1.00800000E+00  1.60000000E+01  1.00800000E+00  1.00800000E+00
  1.60000000E+01  1.00800000E+00  1.00800000E+00  1.60000000E+01  1.00800000E+00
  1.00800000E+00  1.60000000E+01  1.00800000E+00  1.00800000E+00  1.60000000E+01
  1.00800000E+00  1.00800000E+00  1.60000000E+01  1.00800000E+00  1.00800000E+00
  1.60000000E+01  1.00800000E+00  1.00800000E+00  1.60000000E+01  1.00800000E+00
  1.00800000E+00  1.60000000E+01  1.00800000E+00  1.00800000E+00  1.60000000E+01
  1.00800000E+00  1.00800000E+00  1.60000000E+01  1.00800000E+00  1.00800000E+00
  1.60000000E+01  1.00800000E+00  1.00800000E+00  1.60000000E+01  1.00800000E+00
  1.00800000E+00  1.60000000E+01  1.00800000E+00  1.00800000E+00  1.60000000E+01
  1.00800000E+00  1.00800000E+00  1.60000000E+01  1.00800000E+00  1.00800000E+00
  1.60000000E+01  1.00800000E+00  1.00800000E+00  1.60000000E+01  1.00800000E+00
  1.00800000E+00  1.60000000E+01  1.00800000E+00  1.00800000E+00  1.60000000E+01
  1.00800000E+00  1.00800000E+00  1.60000000E+01  1.00800000E+00  1.00800000E+00
  1.60000000E+01  1.00800000E+00  1.00800000E+00  1.60000000E+01  1.00800000E+00
  1.00800000E+00  1.60000000E+01  1.00800000E+00  1.00800000E+00  1.60000000E+01
  1.00800000E+00  1.00800000E+00  1.60000000E+01  1.00800000E+00  1.00800000E+00
  1.60000000E+01  1.00800000E+00  1.00800000E+00  1.60000000E+01  1.00800000E+00
  1.00800000E+00  1.60000000E+01  1.00800000E+00  1.00800000E+00  1.60000000E+01
  1.00800000E+00  1.00800000E+00  1.60000000E+01  1.00800000E+00  1.00800000E+00
  1.60000000E+01  1.00800000E+00  1.00800000E+00  1.60000000E+01  1.00800000E+00
  1.00800000E+00  1.60000000E+01  1.00800000E+00  1.00800000E+00  1.60000000E+01
  1.00800000E+00  1.00800000E+00  1.60000000E+01  1.00800000E+00  1.00800000E+00
  1.60000000E+01  1.00800000E+00  1.00800000E+00  1.60000000E+01  1.00800000E+00
  1.00800000E+00  1.60000000E+01  1.00800000E+00  1.00800000E+00  1.60000000E+01
  1.00800000E+00  1.00800000E+00  1.60000000E+01  1.00800000E+00  1.00800000E+00
  1.60000000E+01  1.00800000E+00  1.00800000E+00  1.60000000E+01  1.00800000E+00
  1.00800000E+00  1.60000000E+01  1.00800000E+00  1.00800000E+00  1.60000000E+01
  1.00800000E+00  1.00800000E+00  1.60000000E+01  1.00800000E+00  1.00800000E+00
  1.60000000E+01  1.00800000E+00  1.00800000E+00  1.60000000E+01  1.00800000E+00
  1.00800000E+00  1.60000000E+01  1.00800000E+00  1.00800000E+00  1.60000000E+01
  1.00800000E+00  1.00800000E+00  1.60000000E+01  1.00800000E+00  1.00800000E+00
  1.60000000E+01  1.00800000E+00  1.00800000E+00  1.60000000E+01  1.00800000E+00
  1.00800000E+00  1.60000000E+01  1.00800000E+00  1.00800000E+00  1.60000000E+01
  1.00800000E+00  1.00800000E+00  1.60000000E+01  1.00800000E+00  1.00800000E+00
  1.60000000E+01  1.00800000E+00  1.00800000E+00  1.60000000E+01  1.00800000E+00
  1.00800000E+00  1.60000000E+01  1.00800000E+00  1.00800000E+00  1.60000000E+01
  1.00800000E+00  1.00800000E+00  1.60000000E+01  1.00800000E+00  1.00800000E+00
  1.60000000E+01  1.00800000E+00  1.00800000E+00  1.60000000E+01  1.00800000E+00
  1.00800000E+00  1.60000000E+01  1.00800000E+00  1.00800000E+00  1.60000000E+01
  1.00800000E+00  1.00800000E+00  1.60000000E+01  1.00800000E+00  1.00800000E+00
  1.60000000E+01  1.00800000E+00  1.00800000E+00  1.60000000E+01  1.00800000E+00
  1.00800000E+00  1.60000000E+01  1.00800000E+00  1.00800000E+00  1.60000000E+01
  1.00800000E+00  1.00800000E+00  1.60000000E+01  1.00800000E+00  1.00800000E+00
  1.60000000E+01  1.00800000E+00  1.00800000E+00  1.60000000E+01  1.00800000E+00
  1.00800000E+00  1.60000000E+01  1.00800000E+00  1.00800000E+00  1.60000000E+01
  1.00800000E+00  1.00800000E+00  1.60000000E+01  1.00800000E+00  1.00800000E+00
  1.60000000E+01  1.00800000E+00  1.00800000E+00  1.60000000E+01  1.00800000E+00
  1.00800000E+00  1.60000000E+01  1.00800000E+00  1.00800000E+00  1.60000000E+01
  1.00800000E+00  1.00800000E+00  1.60000000E+01  1.00800000E+00  1.00800000E+00
  1.60000000E+01  1.00800000E+00  1.00800000E+00  1.60000000E+01  1.00800000E+00
  1.00800000E+00  1.60000000E+01  1.00800000E+00  1.00800000E+00  1.60000000E+01
  1.00800000E+00  1.00800000E+00  1.60000000E+01  1.00800000E+00  1.00800000E+00
  1.60000000E+01  1.00800000E+00  1.00800000E+00  1.60000000E+01  1.00800000E+00
  1.00800000E+00  1.60000000E+01  1.00800000E+00  1.00800000E+00  1.60000000E+01
  1.00800000E+00  1.00800000E+00  1.60000000E+01  1.00800000E+00  1.00800000E+00
  1.60000000E+01  1.00800000E+00  1.00800000E+00  1.60000000E+01  1.00800000E+00
  1.00800000E+00  1.60000000E+01  1.00800000E+00  1.00800000E+00  1.60000000E+01
  1.00800000E+00  1.00800000E+00  1.60000000E+01  1.00800000E+00  1.00800000E+00
  1.60000000E+01  1.00800000E+00  1.00800000E+00  1.60000000E+01  1.00800000E+00
  1.00800000E+00  1.60000000E+01  1.00800000E+00  1.00800000E+00  1.60000000E+01
  1.00800000E+00  1.00800000E+00  1.60000000E+01  1.00800000E+00  1.00800000E+00
  1.60000000E+01  1.00800000E+00  1.00800000E+00  1.60000000E+01  1.00800000E+00
  1.00800000E+00  1.60000000E+01  1.00800000E+00  1.00800000E+00  1.60000000E+01
  1.00800000E+00  1.00800000E+00  1.60000000E+01  1.00800000E+00  1.00800000E+00
  1.60000000E+01  1.00800000E+00  1.00800000E+00  1.60000000E+01  1.00800000E+00
  1.00800000E+00  1.60000000E+01  1.00800000E+00  1.00800000E+00  1.60000000E+01
  1.00800000E+00  1.00800000E+00  1.60000000E+01  1.00800000E+00  1.00800000E+00
  1.60000000E+01  1.00800000E+00  1.00800000E+00  1.60000000E+01  1.00800000E+00
  1.00800000E+00  1.60000000E+01  1.00800000E+00  1.00800000E+00  1.60000000E+01
  1.00800000E+00  1.00800000E+00  1.60000000E+01  1.00800000E+00  1.00800000E+00
  1.60000000E+01  1.00800000E+00  1.00800000E+00  1.60000000E+01  1.00800000E+00
  1.00800000E+00  1.60000000E+01  1.00800000E+00  1.00800000E+00  1.60000000E+01
  1.00800000E+00  1.00800000E+00  1.60000000E+01  1.00800000E+00  1.00800000E+00
  1.60000000E+01  1.00800000E+00  1.00800000E+00  1.60000000E+01  1.00800000E+00
  1.00800000E+00  1.60000000E+01  1.00800000E+00  1.00800000E+00  1.60000000E+01
  1.00800000E+00  1.00800000E+00  1.60000000E+01  1.00800000E+00  1.00800000E+00
  1.60000000E+01  1.00800000E+00  1.00800000E+00  1.60000000E+01  1.00800000E+00
  1.00800000E+00  1.60000000E+01  1.00800000E+00  1.00800000E+00  1.60000000E+01
  1.00800000E+00  1.00800000E+00  1.60000000E+01  1.00800000E+00  1.00800000E+00
  1.60000000E+01  1.00800000E+00  1.00800000E+00  1.60000000E+01  1.00800000E+00
  1.00800000E+00  1.60000000E+01  1.00800000E+00  1.00800000E+00  1.60000000E+01
  1.00800000E+00  1.00800000E+00  1.60000000E+01  1.00800000E+00  1.00800000E+00
  1.60000000E+01  1.00800000E+00  1.00800000E+00  1.60000000E+01  1.00800000E+00
  1.00800000E+00  1.60000000E+01  1.00800000E+00  1.00800000E+00  1.60000000E+01
  1.00800000E+00  1.00800000E+00  1.60000000E+01  1.00800000E+00  1.00800000E+00
  1.60000000E+01  1.00800000E+00  1.00800000E+00  1.60000000E+01  1.00800000E+00
  1.00800000E+00  1.60000000E+01  1.00800000E+00  1.00800000E+00  1.60000000E+01
  1.00800000E+00  1.00800000E+00  1.60000000E+01  1.00800000E+00  1.00800000E+00
  1.60000000E+01  1.00800000E+00  1.00800000E+00  1.60000000E+01  1.00800000E+00
  1.00800000E+00  1.60000000E+01  1.00800000E+00  1.00800000E+00  1.60000000E+01
  1.00800000E+00  1.00800000E+00  1.60000000E+01  1.00800000E+00  1.00800000E+00
  1.60000000E+01  1.00800000E+00  1.00800000E+00  1.60000000E+01  1.00800000E+00
  1.00800000E+00  1.60000000E+01  1.00800000E+00  1.00800000E+00  1.60000000E+01
  1.00800000E+00  1.00800000E+00  1.60000000E+01  1.00800000E+00  1.00800000E+00
  1.60000000E+01  1.00800000E+00  1.00800000E+00  1.60000000E+01  1.00800000E+00
  1.00800000E+00  1.60000000E+01  1.00800000E+00  1.00800000E+00  1.60000000E+01
  1.00800000E+00  1.00800000E+00  1.60000000E+01  1.00800000E+00  1.00800000E+00
  1.60000000E+01  1.00800000E+00  1.00800000E+00  1.60000000E+01  1.00800000E+00
  1.00800000E+00  1.60000000E+01  1.00800000E+00  1.00800000E+00  1.60000000E+01
  1.00800000E+00  1.00800000E+00  1.60000000E+01  1.00800000E+00  1.00800000E+00
  1.60000000E+01  1.00800000E+00  1.00800000E+00  1.60000000E+01  1.00800000E+00
  1.00800000E+00  1.60000000E+01  1.00800000E+00  1.00800000E+00  1.60000000E+01
  1.00800000E+00  1.00800000E+00  1.60000000E+01  1.00800000E+00  1.00800000E+00
  1.60000000E+01  1.00800000E+00  1.00800000E+00  1.60000000E+01  1.00800000E+00
  1.00800000E+00  1.60000000E+01  1.00800000E+00  1.00800000E+00  1.60000000E+01
  1.00800000E+00  1.00800000E+00  1.60000000E+01  1.00800000E+00  1.00800000E+00
  1.60000000E+01  1.00800000E+00  1.00800000E+00  1.60000000E+01  1.00800000E+00
  1.00800000E+00  1.60000000E+01  1.00800000E+00  1.00800000E+00  1.60000000E+01
  1.00800000E+00  1.00800000E+00  1.60000000E+01  1.00800000E+00  1.00800000E+00
  1.60000000E+01  1.00800000E+00  1.00800000E+00  1.60000000E+01  1.00800000E+00
  1.00800000E+00  1.60000000E+01  1.00800000E+00  1.00800000E+00  1.60000000E+01
  1.00800000E+00  1.00800000E+00  1.60000000E+01  1.00800000E+00  1.00800000E+00
  1.60000000E+01  1.00800000E+00  1.00800000E+00  1.60000000E+01  1.00800000E+00
  1.00800000E+00  1.60000000E+01  1.00800000E+00  1.00800000E+00  1.60000000E+01
  1.00800000E+00  1.00800000E+00  1.60000000E+01  1.00800000E+00  1.00800000E+00
  1.60000000E+01  1.00800000E+00  1.00800000E+00  1.60000000E+01  1.00800000E+00
  1.00800000E+00  1.60000000E+01  1.00800000E+00  1.00800000E+00  1.60000000E+01
  1.00800000E+00  1.00800000E+00  1.60000000E+01  1.00800000E+00  1.00800000E+00
  1.60000000E+01  1.00800000E+00  1.00800000E+00  1.60000000E+01  1.00800000E+00
  1.00800000E+00  1.60000000E+01  1.00800000E+00  1.00800000E+00  1.60000000E+01
  1.00800000E+00  1.00800000E+00  1.60000000E+01  1.00800000E+00  1.00800000E+00
  1.60000000E+01  1.00800000E+00  1.00800000E+00  1.60000000E+01  1.00800000E+00
  1.00800000E+00  1.60000000E+01  1.00800000E+00  1.00800000E+00  1.60000000E+01
  1.00800000E+00  1.00800000E+00  1.60000000E+01  1.00800000E+00  1.00800000E+00
  1.60000000E+01  1.00800000E+00  1.00800000E+00  1.60000000E+01  1.00800000E+00
  1.00800000E+00  1.60000000E+01  1.00800000E+00  1.00800000E+00  1.60000000E+01
  1.00800000E+00  1.00800000E+00  1.60000000E+01  1.00800000E+00  1.00800000E+00
  1.60000000E+01  1.00800000E+00  1.00800000E+00  1.60000000E+01  1.00800000E+00
  1.00800000E+00  1.60000000E+01  1.00800000E+00  1.00800000E+00  1.60000000E+01
  1.00800000E+00  1.00800000E+00  1.60000000E+01  1.00800000E+00  1.00800000E+00
  1.60000000E+01  1.00800000E+00  1.00800000E+00  1.60000000E+01  1.00800000E+00
  1.00800000E+00  1.60000000E+01  1.00800000E+00  1.00800000E+00  1.60000000E+01
  1.00800000E+00  1.00800000E+00  1.60000000E+01  1.00800000E+00  1.00800000E+00
  1.60000000E+01  1.00800000E+00  1.00800000E+00  1.60000000E+01  1.00800000E+00
  1.00800000E+00  1.60000000E+01  1.00800000E+00  1.00800000E+00  1.60000000E+01
  1.00800000E+00  1.00800000E+00  1.60000000E+01  1.00800000E+00  1.00800000E+00
  1.60000000E+01  1.00800000E+00  1.00800000E+00  1.60000000E+01  1.00800000E+00
  1.00800000E+00  1.60000000E+01  1.00800000E+00  1.00800000E+00  1.60000000E+01
  1.00800000E+00  1.00800000E+00  1.60000000E+01  1.00800000E+00  1.00800000E+00
  1.60000000E+01  1.00800000E+00  1.00800000E+00  1.60000000E+01  1.00800000E+00
  1.00800000E+00  1.60000000E+01  1.00800000E+00  1.00800000E+00  1.60000000E+01
  1.00800000E+00  1.00800000E+00  1.60000000E+01  1.00800000E+00  1.00800000E+00
  1.60000000E+01  1.00800000E+00  1.00800000E+00  1.60000000E+01  1.00800000E+00
  1.00800000E+00  1.60000000E+01  1.00800000E+00  1.00800000E+00  1.60000000E+01
  1.00800000E+00  1.00800000E+00  1.60000000E+01  1.00800000E+00  1.00800000E+00
  1.60000000E+01  1.00800000E+00  1.00800000E+00  1.60000000E+01  1.00800000E+00
  1.00800000E+00  1.60000000E+01  1.00800000E+00  1.00800000E+00  1.60000000E+01
  1.00800000E+00  1.00800000E+00  1.60000000E+01  1.00800000E+00  1.00800000E+00
  1.60000000E+01  1.00800000E+00  1.00800000E+00  1.60000000E+01  1.00800000E+00
  1.00800000E+00  1.60000000E+01  1.00800000E+00  1.00800000E+00  1.60000000E+01
  1.00800000E+00  1.00800000E+00  1.60000000E+01  1.00800000E+00  1.00800000E+00
  1.60000000E+01  1.00800000E+00  1.00800000E+00  1.60000000E+01  1.00800000E+00
  1.00800000E+00  1.60000000E+01  1.00800000E+00  1.00800000E+00  1.60000000E+01
  1.00800000E+00  1.00800000E+00  1.60000000E+01  1.00800000E+00  1.00800000E+00
  1.60000000E+01  1.00800000E+00  1.00800000E+00  1.60000000E+01  1.00800000E+00
  1.00800000E+00  1.60000000E+01  1.00800000E+00  1.00800000E+00  1.60000000E+01
  1.00800000E+00  1.00800000E+00  1.60000000E+01  1.00800000E+00  1.00800000E+00
  1.60000000E+01  1.00800000E+00  1.00800000E+00  1.60000000E+01  1.00800000E+00
  1.00800000E+00  1.60000000E+01  1.00800000E+00  1.00800000E+00  1.60000000E+01
  1.00800000E+00  1.00800000E+00  1.60000000E+01  1.00800000E+00  1.00800000E+00
  1.60000000E+01  1.00800000E+00  1.00800000E+00  1.60000000E+01  1.00800000E+00
  1.00800000E+00  1.60000000E+01  1.00800000E+00  1.00800000E+00  1.60000000E+01
  1.00800000E+00  1.00800000E+00  1.60000000E+01  1.00800000E+00  1.00800000E+00
  1.60000000E+01  1.00800000E+00  1.00800000E+00  1.60000000E+01  1.00800000E+00
  1.00800000E+00  1.60000000E+01  1.00800000E+00  1.00800000E+00  1.60000000E+01
  1.00800000E+00  1.00800000E+00  1.60000000E+01  1.00800000E+00  1.00800000E+00
  1.60000000E+01  1.00800000E+00  1.00800000E+00  1.60000000E+01  1.00800000E+00
  1.00800000E+00  1.60000000E+01  1.00800000E+00  1.00800000E+00  1.60000000E+01
  1.00800000E+00  1.00800000E+00  1.60000000E+01  1.00800000E+00  1.00800000E+00
  1.60000000E+01  1.00800000E+00  1.00800000E+00  1.60000000E+01  1.00800000E+00
  1.00800000E+00  1.60000000E+01  1.00800000E+00  1.00800000E+00  1.60000000E+01
  1.00800000E+00  1.00800000E+00  1.60000000E+01  1.00800000E+00  1.00800000E+00
  1.60000000E+01  1.00800000E+00  1.00800000E+00  1.60000000E+01  1.00800000E+00
  1.00800000E+00  1.60000000E+01  1.00800000E+00  1.00800000E+00  1.60000000E+01
  1.00800000E+00  1.00800000E+00  1.60000000E+01  1.00800000E+00  1.00800000E+00
  1.60000000E+01  1.00800000E+00  1.00800000E+00  1.60000000E+01  1.00800000E+00
  1.00800000E+00  1.60000000E+01  1.00800000E+00  1.00800000E+00  1.60000000E+01
  1.00800000E+00  1.00800000E+00  1.60000000E+01  1.00800000E+00  1.00800000E+00
  1.60000000E+01  1.00800000E+00  1.00800000E+00  1.60000000E+01  1.00800000E+00
  1.00800000E+00  1.60000000E+01  1.00800000E+00  1.00800000E+00  1.60000000E+01
  1.00800000E+00  1.00800000E+00  1.60000000E+01  1.00800000E+00  1.00800000E+00
  1.60000000E+01  1.00800000E+00  1.00800000E+00  1.60000000E+01  1.00800000E+00
  1.00800000E+00  1.60000000E+01  1.00800000E+00  1.00800000E+00  1.60000000E+01
  1.00800000E+00  1.00800000E+00  1.60000000E+01  1.00800000E+00  1.00800000E+00
  1.60000000E+01  1.00800000E+00  1.00800000E+00  1.60000000E+01  1.00800000E+00
  1.00800000E+00  1.60000000E+01  1.00800000E+00  1.00800000E+00  1.60000000E+01
  1.00800000E+00  1.00800000E+00  1.60000000E+01  1.00800000E+00  1.00800000E+00
  1.60000000E+01  1.00800000E+00  1.00800000E+00  1.60000000E+01  1.00800000E+00
  1.00800000E+00  1.60000000E+01  1.00800000E+00  1.00800000E+00  1.60000000E+01
  1.00800000E+00  1.00800000E+00  1.60000000E+01  1.00800000E+00  1.00800000E+00
  1.60000000E+01  1.00800000E+00  1.00800000E+00  1.60000000E+01  1.00800000E+00
  1.00800000E+00  1.60000000E+01  1.00800000E+00  1.00800000E+00  1.60000000E+01
  1.00800000E+00  1.00800000E+00  1.60000000E+01  1.00800000E+00  1.00800000E+00
  1.60000000E+01  1.00800000E+00  1.00800000E+00  1.60000000E+01  1.00800000E+00
  1.00800000E+00  1.60000000E+01  1.00800000E+00  1.00800000E+00  1.60000000E+01
  1.00800000E+00  1.00800000E+00  1.60000000E+01  1.00800000E+00  1.00800000E+00
  1.60000000E+01  1.00800000E+00  1.00800000E+00  1.60000000E+01  1.00800000E+00
  1.00800000E+00  1.60000000E+01  1.00800000E+00  1.00800000E+00  1.60000000E+01
  1.00800000E+00  1.00800000E+00  1.60000000E+01  1.00800000E+00  1.00800000E+00
  1.60000000E+01  1.00800000E+00  1.00800000E+00  1.60000000E+01  1.00800000E+00
  1.00800000E+00  1.60000000E+01  1.00800000E+00  1.00800000E+00  1.60000000E+01
  1.00800000E+00  1.00800000E+00  1.60000000E+01  1.00800000E+00  1.00800000E+00
  1.60000000E+01  1.00800000E+00  1.00800000E+00  1.60000000E+01  1.00800000E+00
  1.00800000E+00  1.60000000E+01  1.00800000E+00  1.00800000E+00  1.60000000E+01
  1.00800000E+00  1.00800000E+00  1.60000000E+01  1.00800000E+00  1.00800000E+00
  1.60000000E+01  1.00800000E+00  1.00800000E+00  1.60000000E+01  1.00800000E+00
  1.00800000E+00  1.60000000E+01  1.00800000E+00  1.00800000E+00  1.60000000E+01
  1.00800000E+00  1.00800000E+00  1.60000000E+01  1.00800000E+00  1.00800000E+00
  1.60000000E+01  1.00800000E+00  1.00800000E+00  1.60000000E+01  1.00800000E+00
  1.00800000E+00  1.60000000E+01  1.00800000E+00  1.00800000E+00  1.60000000E+01
  1.00800000E+00  1.00800000E+00  1.60000000E+01  1.00800000E+00  1.00800000E+00
  1.60000000E+01  1.00800000E+00  1.00800000E+00  1.60000000E+01  1.00800000E+00
  1.00800000E+00  1.60000000E+01  1.00800000E+00  1.00800000E+00  1.60000000E+01
  1.00800000E+00  1.00800000E+00  1.60000000E+01  1.00800000E+00  1.00800000E+00
  1.60000000E+01  1.00800000E+00  1.00800000E+00  1.60000000E+01  1.00800000E+00
  1.00800000E+00  1.60000000E+01  1.00800000E+00  1.00800000E+00  1.60000000E+01
  1.00800000E+00  1.00800000E+00  1.60000000E+01  1.00800000E+00  1.00800000E+00
  1.60000000E+01  1.00800000E+00  1.00800000E+00  1.60000000E+01  1.00800000E+00
  1.00800000E+00  1.60000000E+01  1.00800000E+00  1.00800000E+00  1.60000000E+01
  1.00800000E+00  1.00800000E+00  1.60000000E+01  1.00800000E+00  1.00800000E+00
  1.60000000E+01  1.00800000E+00  1.00800000E+00  1.60000000E+01  1.00800000E+00
  1.00800000E+00  1.60000000E+01  1.00800000E+00  1.00800000E+00  1.60000000E+01
  1.00800000E+00  1.00800000E+00  1.60000000E+01  1.00800000E+00  1.00800000E+00
  1.60000000E+01  1.00800000E+00  1.00800000E+00  1.60000000E+01  1.00800000E+00
  1.00800000E+00  1.60000000E+01  1.00800000E+00  1.00800000E+00  1.60000000E+01
  1.00800000E+00  1.00800000E+00  1.60000000E+01  1.00800000E+00  1.00800000E+00
  1.60000000E+01  1.00800000E+00  1.00800000E+00  1.60000000E+01  1.00800000E+00
  1.00800000E+00  1.60000000E+01  1.00800000E+00  1.00800000E+00  1.60000000E+01
  1.00800000E+00  1.00800000E+00  1.60000000E+01  1.00800000E+00  1.00800000E+00
  1.60000000E+01  1.00800000E+00  1.00800000E+00  1.60000000E+01  1.00800000E+00
  1.00800000E+00  1.60000000E+01  1.00800000E+00  1.00800000E+00  1.60000000E+01
  1.00800000E+00  1.00800000E+00  1.60000000E+01  1.00800000E+00  1.00800000E+00
  1.60000000E+01  1.00800000E+00  1.00800000E+00  1.60000000E+01  1.00800000E+00
  1.00800000E+00  1.60000000E+01  1.00800000E+00  1.00800000E+00  1.60000000E+01
  1.00800000E+00  1.00800000E+00  1.60000000E+01  1.00800000E+00  1.00800000E+00
  1.60000000E+01  1.00800000E+00  1.00800000E+00  1.60000000E+01  1.00800000E+00
  1.00800000E+00  1.60000000E+01  1.00800000E+00  1.00800000E+00  1.60000000E+01
  1.00800000E+00  1.00800000E+00  1.60000000E+01  1.00800000E+00  1.00800000E+00
  1.60000000E+01  1.00800000E+00  1.00800000E+00  1.60000000E+01  1.00800000E+00
  1.00800000E+00  1.60000000E+01  1.00800000E+00  1.00800000E+00  1.60000000E+01
  1.00800000E+00  1.00800000E+00  1.60000000E+01  1.00800000E+00  1.00800000E+00
  1.60000000E+01  1.00800000E+00  1.00800000E+00  1.60000000E+01  1.00800000E+00
  1.00800000E+00  1.60000000E+01  1.00800000E+00  1.00800000E+00  1.60000000E+01
  1.00800000E+00  1.00800000E+00  1.60000000E+01  1.00800000E+00  1.00800000E+00
  1.60000000E+01  1.00800000E+00  1.00800000E+00  1.60000000E+01  1.00800000E+00
  1.00800000E+00  1.60000000E+01  1.00800000E+00  1.00800000E+00  1.60000000E+01
  1.00800000E+00  1.00800000E+00  1.60000000E+01  1.00800000E+00  1.00800000E+00
  1.60000000E+01  1.00800000E+00  1.00800000E+00  1.60000000E+01  1.00800000E+00
  1.00800000E+00  1.60000000E+01  1.00800000E+00  1.00800000E+00  1.60000000E+01
  1.00800000E+00  1.00800000E+00  1.60000000E+01  1.00800000E+00  1.00800000E+00
  1.60000000E+01  1.00800000E+00  1.00800000E+00  1.60000000E+01  1.00800000E+00
  1.00800000E+00  1.60000000E+01  1.00800000E+00  1.00800000E+00  1.60000000E+01
  1.00800000E+00  1.00800000E+00  1.60000000E+01  1.00800000E+00  1.00800000E+00
  1.60000000E+01  1.00800000E+00  1.00800000E+00  1.60000000E+01  1.00800000E+00
  1.00800000E+00  1.60000000E+01  1.00800000E+00  1.00800000E+00  1.60000000E+01
  1.00800000E+00  1.00800000E+00  1.60000000E+01  1.00800000E+00  1.00800000E+00
  1.60000000E+01  1.00800000E+00  1.00800000E+00  1.60000000E+01  1.00800000E+00
  1.00800000E+00  1.60000000E+01  1.00800000E+00  1.00800000E+00  1.60000000E+01
  1.00800000E+00  1.00800000E+00  1.60000000E+01  1.00800000E+00  1.00800000E+00
  1.60000000E+01  1.00800000E+00  1.00800000E+00  1.60000000E+01  1.00800000E+00
  1.00800000E+00  1.60000000E+01  1.00800000E+00  1.00800000E+00  1.60000000E+01
  1.00800000E+00  1.00800000E+00  1.60000000E+01  1.00800000E+00  1.00800000E+00
  1.60000000E+01  1.00800000E+00  1.00800000E+00  1.60000000E+01  1.00800000E+00
  1.00800000E+00  1.60000000E+01  1.00800000E+00  1.00800000E+00  1.60000000E+01
  1.00800000E+00  1.00800000E+00  1.60000000E+01  1.00800000E+00  1.00800000E+00
  1.60000000E+01  1.00800000E+00  1.00800000E+00  1.60000000E+01  1.00800000E+00
  1.00800000E+00  1.60000000E+01  1.00800000E+00  1.00800000E+00  1.60000000E+01
  1.00800000E+00  1.00800000E+00  1.60000000E+01  1.00800000E+00  1.00800000E+00
  1.60000000E+01  1.00800000E+00  1.00800000E+00  1.60000000E+01  1.00800000E+00
  1.00800000E+00  1.60000000E+01  1.00800000E+00  1.00800000E+00  1.60000000E+01
  1.00800000E+00  1.00800000E+00  1.60000000E+01  1.00800000E+00  1.00800000E+00
  1.60000000E+01  1.00800000E+00  1.00800000E+00  1.60000000E+01  1.00800000E+00
  1.00800000E+00  1.60000000E+01  1.00800000E+00  1.00800000E+00  1.60000000E+01
  1.00800000E+00  1.00800000E+00  1.60000000E+01  1.00800000E+00  1.00800000E+00
  1.60000000E+01  1.00800000E+00  1.00800000E+00  1.60000000E+01  1.00800000E+00
  1.00800000E+00  1.60000000E+01  1.00800000E+00  1.00800000E+00  1.60000000E+01
  1.00800000E+00  1.00800000E+00  1.60000000E+01  1.00800000E+00  1.00800000E+00
  1.60000000E+01  1.00800000E+00  1.00800000E+00  1.60000000E+01  1.00800000E+00
  1.00800000E+00  1.60000000E+01  1.00800000E+00  1.00800000E+00  1.60000000E+01
  1.00800000E+00  1.00800000E+00  1.60000000E+01  1.00800000E+00  1.00800000E+00
  1.60000000E+01  1.00800000E+00  1.00800000E+00  1.60000000E+01  1.00800000E+00
  1.00800000E+00  1.60000000E+01  1.00800000E+00  1.00800000E+00  1.60000000E+01
  1.00800000E+00  1.00800000E+00  1.60000000E+01  1.00800000E+00  1.00800000E+00
  1.60000000E+01  1.00800000E+00  1.00800000E+00  1.60000000E+01  1.00800000E+00
  1.00800000E+00  1.60000000E+01  1.00800000E+00  1.00800000E+00  1.60000000E+01
  1.00800000E+00  1.00800000E+00  1.60000000E+01  1.00800000E+00  1.00800000E+00
  1.60000000E+01  1.00800000E+00  1.00800000E+00  1.60000000E+01  1.00800000E+00
  1.00800000E+00  1.60000000E+01  1.00800000E+00  1.00800000E+00  1.60000000E+01
  1.00800000E+00  1.00800000E+00  1.60000000E+01  1.00800000E+00  1.00800000E+00
  1.60000000E+01  1.00800000E+00  1.00800000E+00  1.60000000E+01  1.00800000E+00
  1.00800000E+00  1.60000000E+01  1.00800000E+00  1.00800000E+00  1.60000000E+01
  1.00800000E+00  1.00800000E+00  1.60000000E+01  1.00800000E+00  1.00800000E+00
  1.60000000E+01  1.00800000E+00  1.00800000E+00  1.60000000E+01  1.00800000E+00
  1.00800000E+00  1.60000000E+01  1.00800000E+00  1.00800000E+00  1.60000000E+01
  1.00800000E+00  1.00800000E+00  1.60000000E+01  1.00800000E+00  1.00800000E+00
  1.60000000E+01  1.00800000E+00  1.00800000E+00  1.60000000E+01  1.00800000E+00
  1.00800000E+00  1.60000000E+01  1.00800000E+00  1.00800000E+00  1.60000000E+01
  1.00800000E+00  1.00800000E+00  1.60000000E+01  1.00800000E+00  1.00800000E+00
  1.60000000E+01  1.00800000E+00  1.00800000E+00  1.60000000E+01  1.00800000E+00
  1.00800000E+00  1.60000000E+01  1.00800000E+00  1.00800000E+00  1.60000000E+01
  1.00800000E+00  1.00800000E+00  1.60000000E+01  1.00800000E+00  1.00800000E+00
  1.60000000E+01  1.00800000E+00  1.00800000E+00  1.60000000E+01  1.00800000E+00
  1.00800000E+00  1.60000000E+01  1.00800000E+00  1.00800000E+00  1.60000000E+01
  1.00800000E+00  1.00800000E+00  1.60000000E+01  1.00800000E+00  1.00800000E+00
  1.60000000E+01  1.00800000E+00  1.00800000E+00  1.60000000E+01  1.00800000E+00
  1.00800000E+00  1.60000000E+01  1.00800000E+00  1.00800000E+00  1.60000000E+01
  1.00800000E+00  1.00800000E+00  1.60000000E+01  1.00800000E+00  1.00800000E+00
  1.60000000E+01  1.00800000E+00  1.00800000E+00  1.60000000E+01  1.00800000E+00
  1.00800000E+00  1.60000000E+01  1.00800000E+00  1.00800000E+00  1.60000000E+01
  1.00800000E+00  1.00800000E+00  1.60000000E+01  1.00800000E+00  1.00800000E+00
  1.60000000E+01  1.00800000E+00  1.00800000E+00  1.60000000E+01  1.00800000E+00
  1.00800000E+00  1.60000000E+01  1.00800000E+00  1.00800000E+00  1.60000000E+01
  1.00800000E+00  1.00800000E+00  1.60000000E+01  1.00800000E+00  1.00800000E+00
  1.60000000E+01  1.00800000E+00  1.00800000E+00  1.60000000E+01  1.00800000E+00
  1.00800000E+00  1.60000000E+01  1.00800000E+00  1.00800000E+00  1.60000000E+01
  1.00800000E+00  1.00800000E+00  1.60000000E+01  1.00800000E+00  1.00800000E+00
  1.60000000E+01  1.00800000E+00  1.00800000E+00  1.60000000E+01  1.00800000E+00
  1.00800000E+00  1.60000000E+01  1.00800000E+00  1.00800000E+00  1.60000000E+01
  1.00800000E+00  1.00800000E+00  1.60000000E+01  1.00800000E+00  1.00800000E+00
  1.60000000E+01  1.00800000E+00  1.00800000E+00  1.60000000E+01  1.00800000E+00
  1.00800000E+00  1.60000000E+01  1.00800000E+00  1.00800000E+00  1.60000000E+01
  1.00800000E+00  1.00800000E+00  1.60000000E+01  1.00800000E+00  1.00800000E+00
  1.60000000E+01  1.00800000E+00  1.00800000E+00  1.60000000E+01  1.00800000E+00
  1.00800000E+00  1.60000000E+01  1.00800000E+00  1.00800000E+00  1.60000000E+01
  1.00800000E+00  1.00800000E+00  1.60000000E+01  1.00800000E+00  1.00800000E+00
  1.60000000E+01  1.00800000E+00  1.00800000E+00  1.60000000E+01  1.00800000E+00
  1.00800000E+00  1.60000000E+01  1.00800000E+00  1.00800000E+00  1.60000000E+01
  1.00800000E+00  1.00800000E+00  1.60000000E+01  1.00800000E+00  1.00800000E+00
  1.60000000E+01  1.00800000E+00  1.00800000E+00  1.60000000E+01  1.00800000E+00
  1.00800000E+00  1.60000000E+01  1.00800000E+00  1.00800000E+00  1.60000000E+01
  1.00800000E+00  1.00800000E+00  1.60000000E+01  1.00800000E+00  1.00800000E+00
  1.60000000E+01  1.00800000E+00  1.00800000E+00  1.60000000E+01  1.00800000E+00
  1.00800000E+00  1.60000000E+01  1.00800000E+00  1.00800000E+00  1.60000000E+01
  1.00800000E+00  1.00800000E+00  1.60000000E+01  1.00800000E+00  1.00800000E+00
  1.60000000E+01  1.00800000E+00  1.00800000E+00  1.60000000E+01  1.00800000E+00
  1.00800000E+00  1.60000000E+01  1.00800000E+00  1.00800000E+00  1.60000000E+01
  1.00800000E+00  1.00800000E+00  1.60000000E+01  1.00800000E+00  1.00800000E+00
  1.60000000E+01  1.00800000E+00  1.00800000E+00  1.60000000E+01  1.00800000E+00
  1.00800000E+00  1.60000000E+01  1.00800000E+00  1.00800000E+00  1.60000000E+01
  1.00800000E+00  1.00800000E+00  1.60000000E+01  1.00800000E+00  1.00800000E+00
  1.60000000E+01  1.00800000E+00  1.00800000E+00  1.60000000E+01  1.00800000E+00
  1.00800000E+00  1.60000000E+01  1.00800000E+00  1.00800000E+00  1.60000000E+01
  1.00800000E+00  1.00800000E+00  1.60000000E+01  1.00800000E+00  1.00800000E+00
  1.60000000E+01  1.00800000E+00  1.00800000E+00  1.60000000E+01  1.00800000E+00
  1.00800000E+00  1.60000000E+01  1.00800000E+00  1.00800000E+00  1.60000000E+01
  1.00800000E+00  1.00800000E+00  1.60000000E+01  1.00800000E+00  1.00800000E+00
  1.60000000E+01  1.00800000E+00  1.00800000E+00  1.60000000E+01  1.00800000E+00
  1.00800000E+00  1.60000000E+01  1.00800000E+00  1.00800000E+00  1.60000000E+01
  1.00800000E+00  1.00800000E+00  1.60000000E+01  1.00800000E+00  1.00800000E+00
  1.60000000E+01  1.00800000E+00  1.00800000E+00  1.60000000E+01  1.00800000E+00
  1.00800000E+00  1.60000000E+01  1.00800000E+00  1.00800000E+00  1.60000000E+01
  1.00800000E+00  1.00800000E+00  1.60000000E+01  1.00800000E+00  1.00800000E+00
  1.60000000E+01  1.00800000E+00  1.00800000E+00  1.60000000E+01  1.00800000E+00
  1.00800000E+00  1.60000000E+01  1.00800000E+00  1.00800000E+00  1.60000000E+01
  1.00800000E+00  1.00800000E+00  1.60000000E+01  1.00800000E+00  1.00800000E+00
  1.60000000E+01  1.00800000E+00  1.00800000E+00  1.60000000E+01  1.00800000E+00
  1.00800000E+00  1.60000000E+01  1.00800000E+00  1.00800000E+00  1.60000000E+01
  1.00800000E+00  1.00800000E+00  1.60000000E+01  1.00800000E+00  1.00800000E+00
  1.60000000E+01  1.00800000E+00  1.00800000E+00  1.60000000E+01  1.00800000E+00
  1.00800000E+00  1.60000000E+01  1.00800000E+00  1.00800000E+00  1.60000000E+01
  1.00800000E+00  1.00800000E+00  1.60000000E+01  1.00800000E+00  1.00800000E+00
  1.60000000E+01  1.00800000E+00  1.00800000E+00  1.60000000E+01  1.00800000E+00
  1.00800000E+00  1.60000000E+01  1.00800000E+00  1.00800000E+00  1.60000000E+01
  1.00800000E+00  1.00800000E+00  1.60000000E+01  1.00800000E+00  1.00800000E+00
  1.60000000E+01  1.00800000E+00  1.00800000E+00  1.60000000E+01  1.00800000E+00
  1.00800000E+00  1.60000000E+01  1.00800000E+00  1.00800000E+00  1.60000000E+01
  1.00800000E+00  1.00800000E+00  1.60000000E+01  1.00800000E+00  1.00800000E+00
  1.60000000E+01  1.00800000E+00  1.00800000E+00  1.60000000E+01  1.00800000E+00
  1.00800000E+00  1.60000000E+01  1.00800000E+00  1.00800000E+00  1.60000000E+01
  1.00800000E+00  1.00800000E+00  1.60000000E+01  1.00800000E+00  1.00800000E+00
  1.60000000E+01  1.00800000E+00  1.00800000E+00  1.60000000E+01  1.00800000E+00
  1.00800000E+00  1.60000000E+01  1.00800000E+00  1.00800000E+00  1.60000000E+01
  1.00800000E+00  1.00800000E+00  1.60000000E+01  1.00800000E+00  1.00800000E+00
  1.60000000E+01  1.00800000E+00  1.00800000E+00  1.60000000E+01  1.00800000E+00
  1.00800000E+00  1.60000000E+01  1.00800000E+00  1.00800000E+00  1.60000000E+01
  1.00800000E+00  1.00800000E+00  1.60000000E+01  1.00800000E+00  1.00800000E+00
  1.60000000E+01  1.00800000E+00  1.00800000E+00  1.60000000E+01  1.00800000E+00
  1.00800000E+00  1.60000000E+01  1.00800000E+00  1.00800000E+00  1.60000000E+01
  1.00800000E+00  1.00800000E+00  1.60000000E+01  1.00800000E+00  1.00800000E+00
  1.60000000E+01  1.00800000E+00  1.00800000E+00  1.60000000E+01  1.00800000E+00
  1.00800000E+00  1.60000000E+01  1.00800000E+00  1.00800000E+00  1.60000000E+01
  1.00800000E+00  1.00800000E+00  1.60000000E+01  1.00800000E+00  1.00800000E+00
  1.60000000E+01  1.00800000E+00  1.00800000E+00  1.60000000E+01  1.00800000E+00
  1.00800000E+00  1.60000000E+01  1.00800000E+00  1.00800000E+00  1.60000000E+01
  1.00800000E+00  1.00800000E+00  1.60000000E+01  1.00800000E+00  1.00800000E+00
  1.60000000E+01  1.00800000E+00  1.00800000E+00  1.60000000E+01  1.00800000E+00
  1.00800000E+00  1.60000000E+01  1.00800000E+00  1.00800000E+00  1.60000000E+01
  1.00800000E+00  1.00800000E+00  1.60000000E+01  1.00800000E+00  1.00800000E+00
  1.60000000E+01  1.00800000E+00  1.00800000E+00  1.60000000E+01  1.00800000E+00
  1.00800000E+00  1.60000000E+01  1.00800000E+00  1.00800000E+00  1.60000000E+01
  1.00800000E+00  1.00800000E+00  1.60000000E+01  1.00800000E+00  1.00800000E+00
  1.60000000E+01  1.00800000E+00  1.00800000E+00  1.60000000E+01  1.00800000E+00
  1.00800000E+00  1.60000000E+01  1.00800000E+00  1.00800000E+00  1.60000000E+01
  1.00800000E+00  1.00800000E+00  1.60000000E+01  1.00800000E+00  1.00800000E+00
  1.60000000E+01  1.00800000E+00  1.00800000E+00  1.60000000E+01  1.00800000E+00
  1.00800000E+00  1.60000000E+01  1.00800000E+00  1.00800000E+00  1.60000000E+01
  1.00800000E+00  1.00800000E+00  1.60000000E+01  1.00800000E+00  1.00800000E+00
  1.60000000E+01  1.00800000E+00  1.00800000E+00  1.60000000E+01  1.00800000E+00
  1.00800000E+00  1.60000000E+01  1.00800000E+00  1.00800000E+00  1.60000000E+01
  1.00800000E+00  1.00800000E+00  1.60000000E+01  1.00800000E+00  1.00800000E+00
  1.60000000E+01  1.00800000E+00  1.00800000E+00  1.60000000E+01  1.00800000E+00
  1.00800000E+00  1.60000000E+01  1.00800000E+00  1.00800000E+00  1.60000000E+01
  1.00800000E+00  1.00800000E+00  1.60000000E+01  1.00800000E+00  1.00800000E+00
  1.60000000E+01  1.00800000E+00  1.00800000E+00  1.60000000E+01  1.00800000E+00
  1.00800000E+00  1.60000000E+01  1.00800000E+00  1.00800000E+00  1.60000000E+01
  1.00800000E+00  1.00800000E+00  1.60000000E+01  1.00800000E+00  1.00800000E+00
  1.60000000E+01  1.00800000E+00  1.00800000E+00  1.60000000E+01  1.00800000E+00
  1.00800000E+00  1.60000000E+01  1.00800000E+00  1.00800000E+00  1.60000000E+01
  1.00800000E+00  1.00800000E+00  1.60000000E+01  1.00800000E+00  1.00800000E+00
  1.60000000E+01  1.00800000E+00  1.00800000E+00  1.60000000E+01  1.00800000E+00
  1.00800000E+00  1.60000000E+01  1.00800000E+00  1.00800000E+00  1.60000000E+01
  1.00800000E+00  1.00800000E+00  1.60000000E+01  1.00800000E+00  1.00800000E+00
  1.60000000E+01  1.00800000E+00  1.00800000E+00  1.60000000E+01  1.00800000E+00
  1.00800000E+00  1.60000000E+01  1.00800000E+00  1.00800000E+00  1.60000000E+01
  1.00800000E+00  1.00800000E+00  1.60000000E+01  1.00800000E+00  1.00800000E+00
  1.60000000E+01  1.00800000E+00  1.00800000E+00  1.60000000E+01  1.00800000E+00
  1.00800000E+00  1.60000000E+01  1.00800000E+00  1.00800000E+00  1.60000000E+01
  1.00800000E+00  1.00800000E+00  1.60000000E+01  1.00800000E+00  1.00800000E+00
  1.60000000E+01  1.00800000E+00  1.00800000E+00  1.60000000E+01  1.00800000E+00
  1.00800000E+00  1.60000000E+01  1.00800000E+00  1.00800000E+00  1.60000000E+01
  1.00800000E+00  1.00800000E+00  1.60000000E+01  1.00800000E+00  1.00800000E+00
  1.60000000E+01  1.00800000E+00  1.00800000E+00  1.60000000E+01  1.00800000E+00
  1.00800000E+00  1.60000000E+01  1.00800000E+00  1.00800000E+00  1.60000000E+01
  1.00800000E+00  1.00800000E+00  1.60000000E+01  1.00800000E+00  1.00800000E+00
  1.60000000E+01  1.00800000E+00  1.00800000E+00  1.60000000E+01  1.00800000E+00
  1.00800000E+00  1.60000000E+01  1.00800000E+00  1.00800000E+00  1.60000000E+01
  1.00800000E+00  1.00800000E+00  1.60000000E+01  1.00800000E+00  1.00800000E+00
  1.60000000E+01  1.00800000E+00  1.00800000E+00  1.60000000E+01  1.00800000E+00
  1.00800000E+00  1.60000000E+01  1.00800000E+00  1.00800000E+00  1.60000000E+01
  1.00800000E+00  1.00800000E+00  1.60000000E+01  1.00800000E+00  1.00800000E+00
  1.60000000E+01  1.00800000E+00  1.00800000E+00  1.60000000E+01  1.00800000E+00
  1.00800000E+00  1.60000000E+01  1.00800000E+00  1.00800000E+00  1.60000000E+01
  1.00800000E+00  1.00800000E+00  1.60000000E+01  1.00800000E+00  1.00800000E+00
  1.60000000E+01  1.00800000E+00  1.00800000E+00  1.60000000E+01  1.00800000E+00
  1.00800000E+00  1.60000000E+01  1.00800000E+00  1.00800000E+00  1.60000000E+01
  1.00800000E+00  1.00800000E+00  1.60000000E+01  1.00800000E+00  1.00800000E+00
  1.60000000E+01  1.00800000E+00  1.00800000E+00  1.60000000E+01  1.00800000E+00
  1.00800000E+00  1.60000000E+01  1.00800000E+00  1.00800000E+00  1.60000000E+01
  1.00800000E+00  1.00800000E+00  1.60000000E+01  1.00800000E+00  1.00800000E+00
  1.60000000E+01  1.00800000E+00  1.00800000E+00  1.60000000E+01  1.00800000E+00
  1.00800000E+00  1.60000000E+01  1.00800000E+00  1.00800000E+00  1.60000000E+01
  1.00800000E+00  1.00800000E+00  1.60000000E+01  1.00800000E+00  1.00800000E+00
  1.60000000E+01  1.00800000E+00  1.00800000E+00  1.60000000E+01  1.00800000E+00
  1.00800000E+00  1.60000000E+01  1.00800000E+00  1.00800000E+00  1.60000000E+01
  1.00800000E+00  1.00800000E+00  1.60000000E+01  1.00800000E+00  1.00800000E+00
  1.60000000E+01  1.00800000E+00  1.00800000E+00  1.60000000E+01  1.00800000E+00
  1.00800000E+00  1.60000000E+01  1.00800000E+00  1.00800000E+00  1.60000000E+01
  1.00800000E+00  1.00800000E+00  1.60000000E+01  1.00800000E+00  1.00800000E+00
  1.60000000E+01  1.00800000E+00  1.00800000E+00  1.60000000E+01  1.00800000E+00
  1.00800000E+00  1.60000000E+01  1.00800000E+00  1.00800000E+00  1.60000000E+01
  1.00800000E+00  1.00800000E+00  1.60000000E+01  1.00800000E+00  1.00800000E+00
  1.60000000E+01  1.00800000E+00  1.00800000E+00  1.60000000E+01  1.00800000E+00
  1.00800000E+00  1.60000000E+01  1.00800000E+00  1.00800000E+00  1.60000000E+01
  1.00800000E+00  1.00800000E+00  1.60000000E+01  1.00800000E+00  1.00800000E+00
  1.60000000E+01  1.00800000E+00  1.00800000E+00  1.60000000E+01  1.00800000E+00
  1.00800000E+00  1.60000000E+01  1.00800000E+00  1.00800000E+00  1.60000000E+01
  1.00800000E+00  1.00800000E+00  1.60000000E+01  1.00800000E+00  1.00800000E+00
  1.60000000E+01  1.00800000E+00  1.00800000E+00  1.60000000E+01  1.00800000E+00
  1.00800000E+00  1.60000000E+01  1.00800000E+00  1.00800000E+00  1.60000000E+01
  1.00800000E+00  1.00800000E+00  1.60000000E+01  1.00800000E+00  1.00800000E+00
  1.60000000E+01  1.00800000E+00  1.00800000E+00  1.60000000E+01  1.00800000E+00
  1.00800000E+00  1.60000000E+01  1.00800000E+00  1.00800000E+00  1.60000000E+01
  1.00800000E+00  1.00800000E+00  1.60000000E+01  1.00800000E+00  1.00800000E+00
  1.60000000E+01  1.00800000E+00  1.00800000E+00  1.60000000E+01  1.00800000E+00
  1.00800000E+00  1.60000000E+01  1.00800000E+00  1.00800000E+00  1.60000000E+01
  1.00800000E+00  1.00800000E+00  1.60000000E+01  1.00800000E+00  1.00800000E+00
  1.60000000E+01  1.00800000E+00  1.00800000E+00  1.60000000E+01  1.00800000E+00
  1.00800000E+00  1.60000000E+01  1.00800000E+00  1.00800000E+00  1.60000000E+01
  1.00800000E+00  1.00800000E+00  1.60000000E+01  1.00800000E+00  1.00800000E+00
  1.60000000E+01  1.00800000E+00  1.00800000E+00  1.60000000E+01  1.00800000E+00
  1.00800000E+00  1.60000000E+01  1.00800000E+00  1.00800000E+00  1.60000000E+01
  1.00800000E+00  1.00800000E+00  1.60000000E+01  1.00800000E+00  1.00800000E+00
  1.60000000E+01  1.00800000E+00  1.00800000E+00  1.60000000E+01  1.00800000E+00
  1.00800000E+00  1.60000000E+01  1.00800000E+00  1.00800000E+00  1.60000000E+01
  1.00800000E+00  1.00800000E+00  1.60000000E+01  1.00800000E+00  1.00800000E+00
  1.60000000E+01  1.00800000E+00  1.00800000E+00  1.60000000E+01  1.00800000E+00
  1.00800000E+00  1.60000000E+01  1.00800000E+00  1.00800000E+00  1.60000000E+01
  1.00800000E+00  1.00800000E+00  1.60000000E+01  1.00800000E+00  1.00800000E+00
  1.60000000E+01  1.00800000E+00  1.00800000E+00  1.60000000E+01  1.00800000E+00
  1.00800000E+00  1.60000000E+01  1.00800000E+00  1.00800000E+00  1.60000000E+01
  1.00800000E+00  1.00800000E+00  1.60000000E+01  1.00800000E+00  1.00800000E+00
  1.60000000E+01  1.00800000E+00  1.00800000E+00  1.60000000E+01  1.00800000E+00
  1.00800000E+00  1.60000000E+01  1.00800000E+00  1.00800000E+00  1.60000000E+01
  1.00800000E+00  1.00800000E+00  1.60000000E+01  1.00800000E+00  1.00800000E+00
  1.60000000E+01  1.00800000E+00  1.00800000E+00  1.60000000E+01  1.00800000E+00
  1.00800000E+00  1.60000000E+01  1.00800000E+00  1.00800000E+00  1.60000000E+01
  1.00800000E+00  1.00800000E+00  1.60000000E+01  1.00800000E+00  1.00800000E+00
  1.60000000E+01  1.00800000E+00  1.00800000E+00  1.60000000E+01  1.00800000E+00
  1.00800000E+00  1.60000000E+01  1.00800000E+00  1.00800000E+00  1.60000000E+01
  1.00800000E+00  1.00800000E+00  1.60000000E+01  1.00800000E+00  1.00800000E+00
  1.60000000E+01  1.00800000E+00  1.00800000E+00  1.60000000E+01  1.00800000E+00
  1.00800000E+00  1.60000000E+01  1.00800000E+00  1.00800000E+00  1.60000000E+01
  1.00800000E+00  1.00800000E+00  1.60000000E+01  1.00800000E+00  1.00800000E+00
  1.60000000E+01  1.00800000E+00  1.00800000E+00  1.60000000E+01  1.00800000E+00
  1.00800000E+00  1.60000000E+01  1.00800000E+00  1.00800000E+00  1.60000000E+01
  1.00800000E+00  1.00800000E+00  1.60000000E+01  1.00800000E+00  1.00800000E+00
  1.60000000E+01  1.00800000E+00  1.00800000E+00  1.60000000E+01  1.00800000E+00
  1.00800000E+00  1.60000000E+01  1.00800000E+00  1.00800000E+00  1.60000000E+01
  1.00800000E+00  1.00800000E+00  1.60000000E+01  1.00800000E+00  1.00800000E+00
  1.60000000E+01  1.00800000E+00  1.00800000E+00  1.60000000E+01  1.00800000E+00
  1.00800000E+00  1.60000000E+01  1.00800000E+00  1.00800000E+00  1.60000000E+01
  1.00800000E+00  1.00800000E+00  1.60000000E+01  1.00800000E+00  1.00800000E+00
  1.60000000E+01  1.00800000E+00  1.00800000E+00  1.60000000E+01  1.00800000E+00
  1.00800000E+00  1.60000000E+01  1.00800000E+00  1.00800000E+00  1.60000000E+01
  1.00800000E+00  1.00800000E+00  1.60000000E+01  1.00800000E+00  1.00800000E+00
  1.60000000E+01  1.00800000E+00  1.00800000E+00  1.60000000E+01  1.00800000E+00
  1.00800000E+00  1.60000000E+01  1.00800000E+00  1.00800000E+00  1.60000000E+01
  1.00800000E+00  1.00800000E+00  1.60000000E+01  1.00800000E+00  1.00800000E+00
  1.60000000E+01  1.00800000E+00  1.00800000E+00  1.60000000E+01  1.00800000E+00
  1.00800000E+00  1.60000000E+01  1.00800000E+00  1.00800000E+00  1.60000000E+01
  1.00800000E+00  1.00800000E+00  1.60000000E+01  1.00800000E+00  1.00800000E+00
  1.60000000E+01  1.00800000E+00  1.00800000E+00  1.60000000E+01  1.00800000E+00
  1.00800000E+00  1.60000000E+01  1.00800000E+00  1.00800000E+00  1.60000000E+01
  1.00800000E+00  1.00800000E+00  1.60000000E+01  1.00800000E+00  1.00800000E+00
  1.60000000E+01  1.00800000E+00  1.00800000E+00  1.60000000E+01  1.00800000E+00
  1.00800000E+00  1.60000000E+01  1.00800000E+00  1.00800000E+00  1.60000000E+01
  1.00800000E+00  1.00800000E+00  1.60000000E+01  1.00800000E+00  1.00800000E+00
  1.60000000E+01  1.00800000E+00  1.00800000E+00  1.60000000E+01  1.00800000E+00
  1.00800000E+00  1.60000000E+01  1.00800000E+00  1.00800000E+00  1.60000000E+01
  1.00800000E+00  1.00800000E+00  1.60000000E+01  1.00800000E+00  1.00800000E+00
  1.60000000E+01  1.00800000E+00  1.00800000E+00  1.60000000E+01  1.00800000E+00
  1.00800000E+00  1.60000000E+01  1.00800000E+00  1.00800000E+00  1.60000000E+01
  1.00800000E+00  1.00800000E+00  1.60000000E+01  1.00800000E+00  1.00800000E+00
  1.60000000E+01  1.00800000E+00  1.00800000E+00  1.60000000E+01  1.00800000E+00
  1.00800000E+00  1.60000000E+01  1.00800000E+00  1.00800000E+00  1.60000000E+01
  1.00800000E+00  1.00800000E+00  1.60000000E+01  1.00800000E+00  1.00800000E+00
  1.60000000E+01  1.00800000E+00  1.00800000E+00  1.60000000E+01  1.00800000E+00
  1.00800000E+00  1.60000000E+01  1.00800000E+00  1.00800000E+00  1.60000000E+01
  1.00800000E+00  1.00800000E+00  1.60000000E+01  1.00800000E+00  1.00800000E+00
  1.60000000E+01  1.00800000E+00  1.00800000E+00  1.60000000E+01  1.00800000E+00
  1.00800000E+00  1.60000000E+01  1.00800000E+00  1.00800000E+00  1.60000000E+01
  1.00800000E+00  1.00800000E+00  1.60000000E+01  1.00800000E+00  1.00800000E+00
  1.60000000E+01  1.00800000E+00  1.00800000E+00  1.60000000E+01  1.00800000E+00
  1.00800000E+00  1.60000000E+01  1.00800000E+00  1.00800000E+00  1.60000000E+01
  1.00800000E+00  1.00800000E+00  1.60000000E+01  1.00800000E+00  1.00800000E+00
  1.60000000E+01  1.00800000E+00  1.00800000E+00  1.60000000E+01  1.00800000E+00
  1.00800000E+00  1.60000000E+01  1.00800000E+00  1.00800000E+00  1.60000000E+01
  1.00800000E+00  1.00800000E+00  1.60000000E+01  1.00800000E+00  1.00800000E+00
  1.60000000E+01  1.00800000E+00  1.00800000E+00  1.60000000E+01  1.00800000E+00
  1.00800000E+00  1.60000000E+01  1.00800000E+00  1.00800000E+00  1.60000000E+01
  1.00800000E+00  1.00800000E+00  1.60000000E+01  1.00800000E+00  1.00800000E+00
  1.60000000E+01  1.00800000E+00  1.00800000E+00  1.60000000E+01  1.00800000E+00
  1.00800000E+00  1.60000000E+01  1.00800000E+00  1.00800000E+00  1.60000000E+01
  1.00800000E+00  1.00800000E+00  1.60000000E+01  1.00800000E+00  1.00800000E+00
  1.60000000E+01  1.00800000E+00  1.00800000E+00  1.60000000E+01  1.00800000E+00
  1.00800000E+00  1.60000000E+01  1.00800000E+00  1.00800000E+00  1.60000000E+01
  1.00800000E+00  1.00800000E+00  1.60000000E+01  1.00800000E+00  1.00800000E+00
  1.60000000E+01  1.00800000E+00  1.00800000E+00  1.60000000E+01  1.00800000E+00
  1.00800000E+00  1.60000000E+01  1.00800000E+00  1.00800000E+00  1.60000000E+01
  1.00800000E+00  1.00800000E+00  1.60000000E+01  1.00800000E+00  1.00800000E+00
  1.60000000E+01  1.00800000E+00  1.00800000E+00  1.60000000E+01  1.00800000E+00
  1.00800000E+00  1.60000000E+01  1.00800000E+00  1.00800000E+00  1.60000000E+01
  1.00800000E+00  1.00800000E+00  1.60000000E+01  1.00800000E+00  1.00800000E+00
  1.60000000E+01  1.00800000E+00  1.00800000E+00  1.60000000E+01  1.00800000E+00
  1.00800000E+00  1.60000000E+01  1.00800000E+00  1.00800000E+00  1.60000000E+01
  1.00800000E+00  1.00800000E+00  1.60000000E+01  1.00800000E+00  1.00800000E+00
  1.60000000E+01  1.00800000E+00  1.00800000E+00  1.60000000E+01  1.00800000E+00
  1.00800000E+00  1.60000000E+01  1.00800000E+00  1.00800000E+00  1.60000000E+01
  1.00800000E+00  1.00800000E+00  1.60000000E+01  1.00800000E+00  1.00800000E+00
  1.60000000E+01  1.00800000E+00  1.00800000E+00  1.60000000E+01  1.00800000E+00
  1.00800000E+00  1.60000000E+01  1.00800000E+00  1.00800000E+00  1.60000000E+01
  1.00800000E+00  1.00800000E+00  1.60000000E+01  1.00800000E+00  1.00800000E+00
  1.60000000E+01  1.00800000E+00  1.00800000E+00  1.60000000E+01  1.00800000E+00
  1.00800000E+00  1.60000000E+01  1.00800000E+00  1.00800000E+00  1.60000000E+01
  1.00800000E+00  1.00800000E+00  1.60000000E+01  1.00800000E+00  1.00800000E+00
  1.60000000E+01  1.00800000E+00  1.00800000E+00  1.60000000E+01  1.00800000E+00
  1.00800000E+00  1.60000000E+01  1.00800000E+00  1.00800000E+00  1.60000000E+01
  1.00800000E+00  1.00800000E+00  1.60000000E+01  1.00800000E+00  1.00800000E+00
  1.60000000E+01  1.00800000E+00  1.00800000E+00  1.60000000E+01  1.00800000E+00
  1.00800000E+00  1.60000000E+01  1.00800000E+00  1.00800000E+00  1.60000000E+01
  1.00800000E+00  1.00800000E+00  1.60000000E+01  1.00800000E+00  1.00800000E+00
  1.60000000E+01  1.00800000E+00  1.00800000E+00  1.60000000E+01  1.00800000E+00
  1.00800000E+00  1.60000000E+01  1.00800000E+00  1.00800000E+00  1.60000000E+01
  1.00800000E+00  1.00800000E+00  1.60000000E+01  1.00800000E+00  1.00800000E+00
  1.60000000E+01  1.00800000E+00  1.00800000E+00  1.60000000E+01  1.00800000E+00
  1.00800000E+00  1.60000000E+01  1.00800000E+00  1.00800000E+00  1.60000000E+01
  1.00800000E+00  1.00800000E+00  1.60000000E+01  1.00800000E+00  1.00800000E+00
  1.60000000E+01  1.00800000E+00  1.00800000E+00  1.60000000E+01  1.00800000E+00
  1.00800000E+00  1.60000000E+01  1.00800000E+00  1.00800000E+00  1.60000000E+01
  1.00800000E+00  1.00800000E+00  1.60000000E+01  1.00800000E+00  1.00800000E+00
  1.60000000E+01  1.00800000E+00  1.00800000E+00  1.60000000E+01  1.00800000E+00
  1.00800000E+00  1.60000000E+01  1.00800000E+00  1.00800000E+00  1.60000000E+01
  1.00800000E+00  1.00800000E+00  1.60000000E+01  1.00800000E+00  1.00800000E+00
  1.60000000E+01  1.00800000E+00  1.00800000E+00  1.60000000E+01  1.00800000E+00
  1.00800000E+00  1.60000000E+01  1.00800000E+00  1.00800000E+00  1.60000000E+01
  1.00800000E+00  1.00800000E+00  1.60000000E+01  1.00800000E+00  1.00800000E+00
  1.60000000E+01  1.00800000E+00  1.00800000E+00  1.60000000E+01  1.00800000E+00
  1.00800000E+00  1.60000000E+01  1.00800000E+00  1.00800000E+00  1.60000000E+01
  1.00800000E+00  1.00800000E+00  1.60000000E+01  1.00800000E+00  1.00800000E+00
  1.60000000E+01  1.00800000E+00  1.00800000E+00  1.60000000E+01  1.00800000E+00
  1.00800000E+00  1.60000000E+01  1.00800000E+00  1.00800000E+00  1.60000000E+01
  1.00800000E+00  1.00800000E+00  1.60000000E+01  1.00800000E+00  1.00800000E+00
  1.60000000E+01  1.00800000E+00  1.00800000E+00  1.60000000E+01  1.00800000E+00
  1.00800000E+00  1.60000000E+01  1.00800000E+00  1.00800000E+00  1.60000000E+01
  1.00800000E+00  1.00800000E+00  1.60000000E+01  1.00800000E+00  1.00800000E+00
  1.60000000E+01  1.00800000E+00  1.00800000E+00  1.60000000E+01  1.00800000E+00
  1.00800000E+00  1.60000000E+01  1.00800000E+00  1.00800000E+00  1.60000000E+01
  1.00800000E+00  1.00800000E+00  1.60000000E+01  1.00800000E+00  1.00800000E+00
  1.60000000E+01  1.00800000E+00  1.00800000E+00  1.60000000E+01  1.00800000E+00
  1.00800000E+00  1.60000000E+01  1.00800000E+00  1.00800000E+00  1.60000000E+01
  1.00800000E+00  1.00800000E+00  1.60000000E+01  1.00800000E+00  1.00800000E+00
  1.60000000E+01  1.00800000E+00  1.00800000E+00  1.60000000E+01  1.00800000E+00
  1.00800000E+00  1.60000000E+01  1.00800000E+00  1.00800000E+00  1.60000000E+01
  1.00800000E+00  1.00800000E+00  1.60000000E+01  1.00800000E+00  1.00800000E+00
  1.60000000E+01  1.00800000E+00  1.00800000E+00  1.60000000E+01  1.00800000E+00
  1.00800000E+00  1.60000000E+01  1.00800000E+00  1.00800000E+00  1.60000000E+01
  1.00800000E+00  1.00800000E+00  1.60000000E+01  1.00800000E+00  1.00800000E+00
  1.60000000E+01  1.00800000E+00  1.00800000E+00  1.60000000E+01  1.00800000E+00
  1.00800000E+00  1.60000000E+01  1.00800000E+00  1.00800000E+00  1.60000000E+01
  1.00800000E+00  1.00800000E+00  1.60000000E+01  1.00800000E+00  1.00800000E+00
  1.60000000E+01  1.00800000E+00  1.00800000E+00  1.60000000E+01  1.00800000E+00
  1.00800000E+00  1.60000000E+01  1.00800000E+00  1.00800000E+00  1.60000000E+01
  1.00800000E+00  1.00800000E+00  1.60000000E+01  1.00800000E+00  1.00800000E+00
  1.60000000E+01  1.00800000E+00  1.00800000E+00  1.60000000E+01  1.00800000E+00
  1.00800000E+00  1.60000000E+01  1.00800000E+00  1.00800000E+00  1.60000000E+01
  1.00800000E+00  1.00800000E+00  1.60000000E+01  1.00800000E+00  1.00800000E+00
  1.60000000E+01  1.00800000E+00  1.00800000E+00  1.60000000E+01  1.00800000E+00
  1.00800000E+00  1.60000000E+01  1.00800000E+00  1.00800000E+00  1.60000000E+01
  1.00800000E+00  1.00800000E+00  1.60000000E+01  1.00800000E+00  1.00800000E+00
  1.60000000E+01  1.00800000E+00  1.00800000E+00  1.60000000E+01  1.00800000E+00
  1.00800000E+00  1.60000000E+01  1.00800000E+00  1.00800000E+00  1.60000000E+01
  1.00800000E+00  1.00800000E+00  1.60000000E+01  1.00800000E+00  1.00800000E+00
  1.60000000E+01  1.00800000E+00  1.00800000E+00  1.60000000E+01  1.00800000E+00
  1.00800000E+00  1.60000000E+01  1.00800000E+00  1.00800000E+00  1.60000000E+01
  1.00800000E+00  1.00800000E+00  1.60000000E+01  1.00800000E+00  1.00800000E+00
  1.60000000E+01  1.00800000E+00  1.00800000E+00  1.60000000E+01  1.00800000E+00
  1.00800000E+00  1.60000000E+01  1.00800000E+00  1.00800000E+00  1.60000000E+01
  1.00800000E+00  1.00800000E+00  1.60000000E+01  1.00800000E+00  1.00800000E+00
  1.60000000E+01  1.00800000E+00  1.00800000E+00  1.60000000E+01  1.00800000E+00
  1.00800000E+00  1.60000000E+01  1.00800000E+00  1.00800000E+00  1.60000000E+01
  1.00800000E+00  1.00800000E+00  1.60000000E+01  1.00800000E+00  1.00800000E+00
  1.60000000E+01  1.00800000E+00  1.00800000E+00  1.60000000E+01  1.00800000E+00
  1.00800000E+00  1.60000000E+01  1.00800000E+00  1.00800000E+00  1.60000000E+01
  1.00800000E+00  1.00800000E+00  1.60000000E+01  1.00800000E+00  1.00800000E+00
  1.60000000E+01  1.00800000E+00  1.00800000E+00  1.60000000E+01  1.00800000E+00
  1.00800000E+00  1.60000000E+01  1.00800000E+00  1.00800000E+00  1.60000000E+01
  1.00800000E+00  1.00800000E+00  1.60000000E+01  1.00800000E+00  1.00800000E+00
  1.60000000E+01  1.00800000E+00  1.00800000E+00  1.60000000E+01  1.00800000E+00
  1.00800000E+00  1.60000000E+01  1.00800000E+00  1.00800000E+00  1.60000000E+01
  1.00800000E+00  1.00800000E+00  1.60000000E+01  1.00800000E+00  1.00800000E+00
  1.60000000E+01  1.00800000E+00  1.00800000E+00  1.60000000E+01  1.00800000E+00
  1.00800000E+00  1.60000000E+01  1.00800000E+00  1.00800000E+00  1.60000000E+01
  1.00800000E+00  1.00800000E+00  1.60000000E+01  1.00800000E+00  1.00800000E+00
  1.60000000E+01  1.00800000E+00  1.00800000E+00  1.60000000E+01  1.00800000E+00
  1.00800000E+00  1.60000000E+01  1.00800000E+00  1.00800000E+00  1.60000000E+01
  1.00800000E+00  1.00800000E+00  1.60000000E+01  1.00800000E+00  1.00800000E+00
  1.60000000E+01  1.00800000E+00  1.00800000E+00  1.60000000E+01  1.00800000E+00
  1.00800000E+00  1.60000000E+01  1.00800000E+00  1.00800000E+00  1.60000000E+01
  1.00800000E+00  1.00800000E+00  1.60000000E+01  1.00800000E+00  1.00800000E+00
  1.60000000E+01  1.00800000E+00  1.00800000E+00  1.60000000E+01  1.00800000E+00
  1.00800000E+00  1.60000000E+01  1.00800000E+00  1.00800000E+00  1.60000000E+01
  1.00800000E+00  1.00800000E+00  1.60000000E+01  1.00800000E+00  1.00800000E+00
  1.60000000E+01  1.00800000E+00  1.00800000E+00  1.60000000E+01  1.00800000E+00
  1.00800000E+00  1.60000000E+01  1.00800000E+00  1.00800000E+00  1.60000000E+01
  1.00800000E+00  1.00800000E+00  1.60000000E+01  1.00800000E+00  1.00800000E+00
  1.60000000E+01  1.00800000E+00  1.00800000E+00  1.60000000E+01  1.00800000E+00
  1.00800000E+00  1.60000000E+01  1.00800000E+00  1.00800000E+00  1.60000000E+01
  1.00800000E+00  1.00800000E+00  1.60000000E+01  1.00800000E+00  1.00800000E+00
  1.60000000E+01  1.00800000E+00  1.00800000E+00  1.60000000E+01  1.00800000E+00
  1.00800000E+00  1.60000000E+01  1.00800000E+00  1.00800000E+00  1.60000000E+01
  1.00800000E+00  1.00800000E+00  1.60000000E+01  1.00800000E+00  1.00800000E+00
  1.60000000E+01  1.00800000E+00  1.00800000E+00  1.60000000E+01  1.00800000E+00
  1.00800000E+00  1.60000000E+01  1.00800000E+00  1.00800000E+00  1.60000000E+01
  1.00800000E+00  1.00800000E+00  1.60000000E+01  1.00800000E+00  1.00800000E+00
  1.60000000E+01  1.00800000E+00  1.00800000E+00  1.60000000E+01  1.00800000E+00
  1.00800000E+00  1.60000000E+01  1.00800000E+00  1.00800000E+00  1.60000000E+01
  1.00800000E+00  1.00800000E+00  1.60000000E+01  1.00800000E+00  1.00800000E+00
  1.60000000E+01  1.00800000E+00  1.00800000E+00  1.60000000E+01  1.00800000E+00
  1.00800000E+00  1.60000000E+01  1.00800000E+00  1.00800000E+00  1.60000000E+01
  1.00800000E+00  1.00800000E+00  1.60000000E+01  1.00800000E+00  1.00800000E+00
  1.60000000E+01  1.00800000E+00  1.00800000E+00  1.60000000E+01  1.00800000E+00
  1.00800000E+00  1.60000000E+01  1.00800000E+00  1.00800000E+00  1.60000000E+01
  1.00800000E+00  1.00800000E+00  1.60000000E+01  1.00800000E+00  1.00800000E+00
  1.60000000E+01  1.00800000E+00  1.00800000E+00  1.60000000E+01  1.00800000E+00
  1.00800000E+00  1.60000000E+01  1.00800000E+00  1.00800000E+00  1.60000000E+01
  1.00800000E+00  1.00800000E+00  1.60000000E+01  1.00800000E+00  1.00800000E+00
  1.60000000E+01  1.00800000E+00  1.00800000E+00  1.60000000E+01  1.00800000E+00
  1.00800000E+00  1.60000000E+01  1.00800000E+00  1.00800000E+00  1.60000000E+01
  1.00800000E+00  1.00800000E+00  1.60000000E+01  1.00800000E+00  1.00800000E+00
  1.60000000E+01  1.00800000E+00  1.00800000E+00  1.60000000E+01  1.00800000E+00
  1.00800000E+00  1.60000000E+01  1.00800000E+00  1.00800000E+00  1.60000000E+01
  1.00800000E+00  1.00800000E+00  1.60000000E+01  1.00800000E+00  1.00800000E+00
  1.60000000E+01  1.00800000E+00  1.00800000E+00  1.60000000E+01  1.00800000E+00
  1.00800000E+00  1.60000000E+01  1.00800000E+00  1.00800000E+00  1.60000000E+01
  1.00800000E+00  1.00800000E+00  1.60000000E+01  1.00800000E+00  1.00800000E+00
  1.60000000E+01  1.00800000E+00  1.00800000E+00  1.60000000E+01  1.00800000E+00
  1.00800000E+00  1.60000000E+01  1.00800000E+00  1.00800000E+00  1.60000000E+01
  1.00800000E+00  1.00800000E+00  1.60000000E+01  1.00800000E+00  1.00800000E+00
  1.60000000E+01  1.00800000E+00  1.00800000E+00  1.60000000E+01  1.00800000E+00
  1.00800000E+00  1.60000000E+01  1.00800000E+00  1.00800000E+00  1.60000000E+01
  1.00800000E+00  1.00800000E+00  1.60000000E+01  1.00800000E+00  1.00800000E+00
  1.60000000E+01  1.00800000E+00  1.00800000E+00  1.60000000E+01  1.00800000E+00
  1.00800000E+00  1.60000000E+01  1.00800000E+00  1.00800000E+00  1.60000000E+01
  1.00800000E+00  1.00800000E+00  1.60000000E+01  1.00800000E+00  1.00800000E+00
  1.60000000E+01  1.00800000E+00  1.00800000E+00  1.60000000E+01  1.00800000E+00
  1.00800000E+00  1.60000000E+01  1.00800000E+00  1.00800000E+00  1.60000000E+01
  1.00800000E+00  1.00800000E+00  1.60000000E+01  1.00800000E+00  1.00800000E+00
  1.60000000E+01  1.00800000E+00  1.00800000E+00  1.60000000E+01  1.00800000E+00
  1.00800000E+00  1.60000000E+01  1.00800000E+00  1.00800000E+00  1.60000000E+01
  1.00800000E+00  1.00800000E+00  1.60000000E+01  1.00800000E+00  1.00800000E+00
  1.60000000E+01  1.00800000E+00  1.00800000E+00  1.60000000E+01  1.00800000E+00
  1.00800000E+00  1.60000000E+01  1.00800000E+00  1.00800000E+00  1.60000000E+01
  1.00800000E+00  1.00800000E+00  1.60000000E+01  1.00800000E+00  1.00800000E+00
  1.60000000E+01  1.00800000E+00  1.00800000E+00  1.60000000E+01  1.00800000E+00
  1.00800000E+00  1.60000000E+01  1.00800000E+00  1.00800000E+00  1.60000000E+01
  1.00800000E+00  1.00800000E+00  1.60000000E+01  1.00800000E+00  1.00800000E+00
  1.60000000E+01  1.00800000E+00  1.00800000E+00  1.60000000E+01  1.00800000E+00
  1.00800000E+00  1.60000000E+01  1.00800000E+00  1.00800000E+00  1.60000000E+01
  1.00800000E+00  1.00800000E+00  1.60000000E+01  1.00800000E+00  1.00800000E+00
  1.60000000E+01  1.00800000E+00  1.00800000E+00  1.60000000E+01  1.00800000E+00
  1.00800000E+00  1.60000000E+01  1.00800000E+00  1.00800000E+00  1.60000000E+01
  1.00800000E+00  1.00800000E+00  1.60000000E+01  1.00800000E+00  1.00800000E+00
  1.60000000E+01  1.00800000E+00  1.00800000E+00  1.60000000E+01  1.00800000E+00
  1.00800000E+00  1.60000000E+01  1.00800000E+00  1.00800000E+00  1.60000000E+01
  1.00800000E+00  1.00800000E+00  1.60000000E+01  1.00800000E+00  1.00800000E+00
  1.60000000E+01  1.00800000E+00  1.00800000E+00  1.60000000E+01  1.00800000E+00
  1.00800000E+00  1.60000000E+01  1.00800000E+00  1.00800000E+00  1.60000000E+01
  1.00800000E+00  1.00800000E+00  1.60000000E+01  1.00800000E+00  1.00800000E+00
  1.60000000E+01  1.00800000E+00  1.00800000E+00  1.60000000E+01  1.00800000E+00
  1.00800000E+00  1.60000000E+01  1.00800000E+00  1.00800000E+00  1.60000000E+01
  1.00800000E+00  1.00800000E+00  1.60000000E+01  1.00800000E+00  1.00800000E+00
  1.60000000E+01  1.00800000E+00  1.00800000E+00  1.60000000E+01  1.00800000E+00
  1.00800000E+00  1.60000000E+01  1.00800000E+00  1.00800000E+00  1.60000000E+01
  1.00800000E+00  1.00800000E+00  1.60000000E+01  1.00800000E+00  1.00800000E+00
  1.60000000E+01  1.00800000E+00  1.00800000E+00  1.60000000E+01  1.00800000E+00
  1.00800000E+00  1.60000000E+01  1.00800000E+00  1.00800000E+00  1.60000000E+01
  1.00800000E+00  1.00800000E+00  1.60000000E+01  1.00800000E+00  1.00800000E+00
  1.60000000E+01  1.00800000E+00  1.00800000E+00  1.60000000E+01  1.00800000E+00
  1.00800000E+00  1.60000000E+01  1.00800000E+00  1.00800000E+00  1.60000000E+01
  1.00800000E+00  1.00800000E+00  1.60000000E+01  1.00800000E+00  1.00800000E+00
  1.60000000E+01  1.00800000E+00  1.00800000E+00  1.60000000E+01  1.00800000E+00
  1.00800000E+00  1.60000000E+01  1.00800000E+00  1.00800000E+00  1.60000000E+01
  1.00800000E+00  1.00800000E+00  1.60000000E+01  1.00800000E+00  1.00800000E+00
  1.60000000E+01  1.00800000E+00  1.00800000E+00  1.60000000E+01  1.00800000E+00
  1.00800000E+00  1.60000000E+01  1.00800000E+00  1.00800000E+00  1.60000000E+01
  1.00800000E+00  1.00800000E+00  1.60000000E+01  1.00800000E+00  1.00800000E+00
  1.60000000E+01  1.00800000E+00  1.00800000E+00  1.60000000E+01  1.00800000E+00
  1.00800000E+00  1.60000000E+01  1.00800000E+00  1.00800000E+00  1.60000000E+01
  1.00800000E+00  1.00800000E+00  1.60000000E+01  1.00800000E+00  1.00800000E+00
  1.60000000E+01  1.00800000E+00  1.00800000E+00  1.60000000E+01  1.00800000E+00
  1.00800000E+00  1.60000000E+01  1.00800000E+00  1.00800000E+00  1.60000000E+01
  1.00800000E+00  1.00800000E+00  1.60000000E+01  1.00800000E+00  1.00800000E+00
  1.60000000E+01  1.00800000E+00  1.00800000E+00  1.60000000E+01  1.00800000E+00
  1.00800000E+00  1.60000000E+01  1.00800000E+00  1.00800000E+00  1.60000000E+01
  1.00800000E+00  1.00800000E+00  1.60000000E+01  1.00800000E+00  1.00800000E+00
  1.60000000E+01  1.00800000E+00  1.00800000E+00  1.60000000E+01  1.00800000E+00
  1.00800000E+00  1.60000000E+01  1.00800000E+00  1.00800000E+00  1.60000000E+01
  1.00800000E+00  1.00800000E+00  1.60000000E+01  1.00800000E+00  1.00800000E+00
  1.60000000E+01  1.00800000E+00  1.00800000E+00  1.60000000E+01  1.00800000E+00
  1.00800000E+00  1.60000000E+01  1.00800000E+00  1.00800000E+00  1.60000000E+01
  1.00800000E+00  1.00800000E+00  1.60000000E+01  1.00800000E+00  1.00800000E+00
  1.60000000E+01  1.00800000E+00  1.00800000E+00  1.60000000E+01  1.00800000E+00
  1.00800000E+00  1.60000000E+01  1.00800000E+00  1.00800000E+00  1.60000000E+01
  1.00800000E+00  1.00800000E+00  1.60000000E+01  1.00800000E+00  1.00800000E+00
  1.60000000E+01  1.00800000E+00  1.00800000E+00  1.60000000E+01  1.00800000E+00
  1.00800000E+00  1.60000000E+01  1.00800000E+00  1.00800000E+00  1.60000000E+01
  1.00800000E+00  1.00800000E+00  1.60000000E+01  1.00800000E+00  1.00800000E+00
  1.60000000E+01  1.00800000E+00  1.00800000E+00  1.60000000E+01  1.00800000E+00
  1.00800000E+00  1.60000000E+01  1.00800000E+00  1.00800000E+00  1.60000000E+01
  1.00800000E+00  1.00800000E+00  1.60000000E+01  1.00800000E+00  1.00800000E+00
  1.60000000E+01  1.00800000E+00  1.00800000E+00  1.60000000E+01  1.00800000E+00
  1.00800000E+00  1.60000000E+01  1.00800000E+00  1.00800000E+00  1.60000000E+01
  1.00800000E+00  1.00800000E+00  1.60000000E+01  1.00800000E+00  1.00800000E+00
  1.60000000E+01  1.00800000E+00  1.00800000E+00  1.60000000E+01  1.00800000E+00
  1.00800000E+00  1.60000000E+01  1.00800000E+00  1.00800000E+00  1.60000000E+01
  1.00800000E+00  1.00800000E+00  1.60000000E+01  1.00800000E+00  1.00800000E+00
  1.60000000E+01  1.00800000E+00  1.00800000E+00  1.60000000E+01  1.00800000E+00
  1.00800000E+00  1.60000000E+01  1.00800000E+00  1.00800000E+00  1.60000000E+01
  1.00800000E+00  1.00800000E+00  1.60000000E+01  1.00800000E+00  1.00800000E+00
  1.60000000E+01  1.00800000E+00  1.00800000E+00  1.60000000E+01  1.00800000E+00
  1.00800000E+00  1.60000000E+01  1.00800000E+00  1.00800000E+00  1.60000000E+01
  1.00800000E+00  1.00800000E+00  1.60000000E+01  1.00800000E+00  1.00800000E+00
  1.60000000E+01  1.00800000E+00  1.00800000E+00  1.60000000E+01  1.00800000E+00
  1.00800000E+00  1.60000000E+01  1.00800000E+00  1.00800000E+00  1.60000000E+01
  1.00800000E+00  1.00800000E+00  1.60000000E+01  1.00800000E+00  1.00800000E+00
  1.60000000E+01  1.00800000E+00  1.00800000E+00  1.60000000E+01  1.00800000E+00
  1.00800000E+00  1.60000000E+01  1.00800000E+00  1.00800000E+00  1.60000000E+01
  1.00800000E+00  1.00800000E+00  1.60000000E+01  1.00800000E+00  1.00800000E+00
  1.60000000E+01  1.00800000E+00  1.00800000E+00  1.60000000E+01  1.00800000E+00
  1.00800000E+00  1.60000000E+01  1.00800000E+00  1.00800000E+00  1.60000000E+01
  1.00800000E+00  1.00800000E+00  1.60000000E+01  1.00800000E+00  1.00800000E+00
  1.60000000E+01  1.00800000E+00  1.00800000E+00  1.60000000E+01  1.00800000E+00
  1.00800000E+00  1.60000000E+01  1.00800000E+00  1.00800000E+00  1.60000000E+01
  1.00800000E+00  1.00800000E+00  1.60000000E+01  1.00800000E+00  1.00800000E+00
  1.60000000E+01  1.00800000E+00  1.00800000E+00  1.60000000E+01  1.00800000E+00
  1.00800000E+00  1.60000000E+01  1.00800000E+00  1.00800000E+00  1.60000000E+01
  1.00800000E+00  1.00800000E+00  1.60000000E+01  1.00800000E+00  1.00800000E+00
  1.60000000E+01  1.00800000E+00  1.00800000E+00  1.60000000E+01  1.00800000E+00
  1.00800000E+00  1.60000000E+01  1.00800000E+00  1.00800000E+00  1.60000000E+01
  1.00800000E+00  1.00800000E+00  1.60000000E+01  1.00800000E+00  1.00800000E+00
  1.60000000E+01  1.00800000E+00  1.00800000E+00  1.60000000E+01  1.00800000E+00
  1.00800000E+00  1.60000000E+01  1.00800000E+00  1.00800000E+00  1.60000000E+01
  1.00800000E+00  1.00800000E+00  1.60000000E+01  1.00800000E+00  1.00800000E+00
  1.60000000E+01  1.00800000E+00  1.00800000E+00  1.60000000E+01  1.00800000E+00
  1.00800000E+00  1.60000000E+01  1.00800000E+00  1.00800000E+00  1.60000000E+01
  1.00800000E+00  1.00800000E+00  1.60000000E+01  1.00800000E+00  1.00800000E+00
  1.60000000E+01  1.00800000E+00  1.00800000E+00  1.60000000E+01  1.00800000E+00
  1.00800000E+00  1.60000000E+01  1.00800000E+00  1.00800000E+00  1.60000000E+01
  1.00800000E+00  1.00800000E+00  1.60000000E+01  1.00800000E+00  1.00800000E+00
  1.60000000E+01  1.00800000E+00  1.00800000E+00  1.60000000E+01  1.00800000E+00
  1.00800000E+00  1.60000000E+01  1.00800000E+00  1.00800000E+00  1.60000000E+01
  1.00800000E+00  1.00800000E+00  1.60000000E+01  1.00800000E+00  1.00800000E+00
  1.60000000E+01  1.00800000E+00  1.00800000E+00  1.60000000E+01  1.00800000E+00
  1.00800000E+00  1.60000000E+01  1.00800000E+00  1.00800000E+00  1.60000000E+01
  1.00800000E+00  1.00800000E+00  1.60000000E+01  1.00800000E+00  1.00800000E+00
  1.60000000E+01  1.00800000E+00  1.00800000E+00  1.60000000E+01  1.00800000E+00
  1.00800000E+00  1.60000000E+01  1.00800000E+00  1.00800000E+00  1.60000000E+01
  1.00800000E+00  1.00800000E+00  1.60000000E+01  1.00800000E+00  1.00800000E+00
  1.60000000E+01  1.00800000E+00  1.00800000E+00  1.60000000E+01  1.00800000E+00
  1.00800000E+00  1.60000000E+01  1.00800000E+00  1.00800000E+00  1.60000000E+01
  1.00800000E+00  1.00800000E+00  1.60000000E+01  1.00800000E+00  1.00800000E+00
  1.60000000E+01  1.00800000E+00  1.00800000E+00  1.60000000E+01  1.00800000E+00
  1.00800000E+00  1.60000000E+01  1.00800000E+00  1.00800000E+00  1.60000000E+01
  1.00800000E+00  1.00800000E+00  1.60000000E+01  1.00800000E+00  1.00800000E+00
  1.60000000E+01  1.00800000E+00  1.00800000E+00  1.60000000E+01  1.00800000E+00
  1.00800000E+00  1.60000000E+01  1.00800000E+00  1.00800000E+00  1.60000000E+01
  1.00800000E+00  1.00800000E+00  1.60000000E+01  1.00800000E+00  1.00800000E+00
  1.60000000E+01  1.00800000E+00  1.00800000E+00  1.60000000E+01  1.00800000E+00
  1.00800000E+00  1.60000000E+01  1.00800000E+00  1.00800000E+00  1.60000000E+01
  1.00800000E+00  1.00800000E+00  1.60000000E+01  1.00800000E+00  1.00800000E+00
  1.60000000E+01  1.00800000E+00  1.00800000E+00  1.60000000E+01  1.00800000E+00
  1.00800000E+00  1.60000000E+01  1.00800000E+00  1.00800000E+00  1.60000000E+01
  1.00800000E+00  1.00800000E+00  1.60000000E+01  1.00800000E+00  1.00800000E+00
  1.60000000E+01  1.00800000E+00  1.00800000E+00  1.60000000E+01  1.00800000E+00
  1.00800000E+00  1.60000000E+01  1.00800000E+00  1.00800000E+00  1.60000000E+01
  1.00800000E+00  1.00800000E+00  1.60000000E+01  1.00800000E+00  1.00800000E+00
  1.60000000E+01  1.00800000E+00  1.00800000E+00  1.60000000E+01  1.00800000E+00
  1.00800000E+00  1.60000000E+01  1.00800000E+00  1.00800000E+00  1.60000000E+01
  1.00800000E+00  1.00800000E+00  1.60000000E+01  1.00800000E+00  1.00800000E+00
  1.60000000E+01  1.00800000E+00  1.00800000E+00  1.60000000E+01  1.00800000E+00
  1.00800000E+00  1.60000000E+01  1.00800000E+00  1.00800000E+00  1.60000000E+01
  1.00800000E+00  1.00800000E+00  1.60000000E+01  1.00800000E+00  1.00800000E+00
  1.60000000E+01  1.00800000E+00  1.00800000E+00  1.60000000E+01  1.00800000E+00
  1.00800000E+00  1.60000000E+01  1.00800000E+00  1.00800000E+00  1.60000000E+01
  1.00800000E+00  1.00800000E+00  1.60000000E+01  1.00800000E+00  1.00800000E+00
  1.60000000E+01  1.00800000E+00  1.00800000E+00  1.60000000E+01  1.00800000E+00
  1.00800000E+00  1.60000000E+01  1.00800000E+00  1.00800000E+00  1.60000000E+01
  1.00800000E+00  1.00800000E+00  1.60000000E+01  1.00800000E+00  1.00800000E+00
  1.60000000E+01  1.00800000E+00  1.00800000E+00  1.60000000E+01  1.00800000E+00
  1.00800000E+00  1.60000000E+01  1.00800000E+00  1.00800000E+00  1.60000000E+01
  1.00800000E+00  1.00800000E+00  1.60000000E+01  1.00800000E+00  1.00800000E+00
  1.60000000E+01  1.00800000E+00  1.00800000E+00  1.60000000E+01  1.00800000E+00
  1.00800000E+00  1.60000000E+01  1.00800000E+00  1.00800000E+00  1.60000000E+01
  1.00800000E+00  1.00800000E+00  1.60000000E+01  1.00800000E+00  1.00800000E+00
  1.60000000E+01  1.00800000E+00  1.00800000E+00  1.60000000E+01  1.00800000E+00
  1.00800000E+00  1.60000000E+01  1.00800000E+00  1.00800000E+00  1.60000000E+01
  1.00800000E+00  1.00800000E+00  1.60000000E+01  1.00800000E+00  1.00800000E+00
  1.60000000E+01  1.00800000E+00  1.00800000E+00  1.60000000E+01  1.00800000E+00
  1.00800000E+00  1.60000000E+01  1.00800000E+00  1.00800000E+00  1.60000000E+01
  1.00800000E+00  1.00800000E+00  1.60000000E+01  1.00800000E+00  1.00800000E+00
  1.60000000E+01  1.00800000E+00  1.00800000E+00  1.60000000E+01  1.00800000E+00
  1.00800000E+00  1.60000000E+01  1.00800000E+00  1.00800000E+00  1.60000000E+01
  1.00800000E+00  1.00800000E+00  1.60000000E+01  1.00800000E+00  1.00800000E+00
  1.60000000E+01  1.00800000E+00  1.00800000E+00  1.60000000E+01  1.00800000E+00
  1.00800000E+00  1.60000000E+01  1.00800000E+00  1.00800000E+00  1.60000000E+01
  1.00800000E+00  1.00800000E+00  1.60000000E+01  1.00800000E+00  1.00800000E+00
  1.60000000E+01  1.00800000E+00  1.00800000E+00  1.60000000E+01  1.00800000E+00
  1.00800000E+00  1.60000000E+01  1.00800000E+00  1.00800000E+00  1.60000000E+01
  1.00800000E+00  1.00800000E+00  1.60000000E+01  1.00800000E+00  1.00800000E+00
  1.60000000E+01  1.00800000E+00  1.00800000E+00  1.60000000E+01  1.00800000E+00
  1.00800000E+00  1.60000000E+01  1.00800000E+00  1.00800000E+00  1.60000000E+01
  1.00800000E+00  1.00800000E+00  1.60000000E+01  1.00800000E+00  1.00800000E+00
  1.60000000E+01  1.00800000E+00  1.00800000E+00  1.60000000E+01  1.00800000E+00
  1.00800000E+00  1.60000000E+01  1.00800000E+00  1.00800000E+00  1.60000000E+01
  1.00800000E+00  1.00800000E+00  1.60000000E+01  1.00800000E+00  1.00800000E+00
  1.60000000E+01  1.00800000E+00  1.00800000E+00  1.60000000E+01  1.00800000E+00
  1.00800000E+00  1.60000000E+01  1.00800000E+00  1.00800000E+00  1.60000000E+01
  1.00800000E+00  1.00800000E+00  1.60000000E+01  1.00800000E+00  1.00800000E+00
  1.60000000E+01  1.00800000E+00  1.00800000E+00  1.60000000E+01  1.00800000E+00
  1.00800000E+00  1.60000000E+01  1.00800000E+00  1.00800000E+00  1.60000000E+01
  1.00800000E+00  1.00800000E+00  1.60000000E+01  1.00800000E+00  1.00800000E+00
  1.60000000E+01  1.00800000E+00  1.00800000E+00  1.60000000E+01  1.00800000E+00
  1.00800000E+00  1.60000000E+01  1.00800000E+00  1.00800000E+00  1.60000000E+01
  1.00800000E+00  1.00800000E+00  1.60000000E+01  1.00800000E+00  1.00800000E+00
  1.60000000E+01  1.00800000E+00  1.00800000E+00  1.60000000E+01  1.00800000E+00
  1.00800000E+00  1.60000000E+01  1.00800000E+00  1.00800000E+00  1.60000000E+01
  1.00800000E+00  1.00800000E+00  1.60000000E+01  1.00800000E+00  1.00800000E+00
  1.60000000E+01  1.00800000E+00  1.00800000E+00  1.60000000E+01  1.00800000E+00
  1.00800000E+00  1.60000000E+01  1.00800000E+00  1.00800000E+00  1.60000000E+01
  1.00800000E+00  1.00800000E+00  1.60000000E+01  1.00800000E+00  1.00800000E+00
  1.60000000E+01  1.00800000E+00  1.00800000E+00  1.60000000E+01  1.00800000E+00
  1.00800000E+00  1.60000000E+01  1.00800000E+00  1.00800000E+00  1.60000000E+01
  1.00800000E+00  1.00800000E+00  1.60000000E+01  1.00800000E+00  1.00800000E+00
  1.60000000E+01  1.00800000E+00  1.00800000E+00  1.60000000E+01  1.00800000E+00
  1.00800000E+00  1.60000000E+01  1.00800000E+00  1.00800000E+00  1.60000000E+01
  1.00800000E+00  1.00800000E+00  1.60000000E+01  1.00800000E+00  1.00800000E+00
  1.60000000E+01  1.00800000E+00  1.00800000E+00  1.60000000E+01  1.00800000E+00
  1.00800000E+00  1.60000000E+01  1.00800000E+00  1.00800000E+00  1.60000000E+01
  1.00800000E+00  1.00800000E+00  1.60000000E+01  1.00800000E+00  1.00800000E+00
  1.60000000E+01  1.00800000E+00  1.00800000E+00  1.60000000E+01  1.00800000E+00
  1.00800000E+00  1.60000000E+01  1.00800000E+00  1.00800000E+00  1.60000000E+01
  1.00800000E+00  1.00800000E+00  1.60000000E+01  1.00800000E+00  1.00800000E+00
  1.60000000E+01  1.00800000E+00  1.00800000E+00  1.60000000E+01  1.00800000E+00
  1.00800000E+00  1.60000000E+01  1.00800000E+00  1.00800000E+00  1.60000000E+01
  1.00800000E+00  1.00800000E+00  1.60000000E+01  1.00800000E+00  1.00800000E+00
  1.60000000E+01  1.00800000E+00  1.00800000E+00  1.60000000E+01  1.00800000E+00
  1.00800000E+00  1.60000000E+01  1.00800000E+00  1.00800000E+00  1.60000000E+01
  1.00800000E+00  1.00800000E+00  1.60000000E+01  1.00800000E+00  1.00800000E+00
  1.60000000E+01  1.00800000E+00  1.00800000E+00  1.60000000E+01  1.00800000E+00
  1.00800000E+00  1.60000000E+01  1.00800000E+00  1.00800000E+00  1.60000000E+01
  1.00800000E+00  1.00800000E+00  1.60000000E+01  1.00800000E+00  1.00800000E+00
  1.60000000E+01  1.00800000E+00  1.00800000E+00  1.60000000E+01  1.00800000E+00
  1.00800000E+00  1.60000000E+01  1.00800000E+00  1.00800000E+00  1.60000000E+01
  1.00800000E+00  1.00800000E+00  1.60000000E+01  1.00800000E+00  1.00800000E+00
  1.60000000E+01  1.00800000E+00  1.00800000E+00  1.60000000E+01  1.00800000E+00
  1.00800000E+00  1.60000000E+01  1.00800000E+00  1.00800000E+00  1.60000000E+01
  1.00800000E+00  1.00800000E+00  1.60000000E+01  1.00800000E+00  1.00800000E+00
  1.60000000E+01  1.00800000E+00  1.00800000E+00  1.60000000E+01  1.00800000E+00
  1.00800000E+00  1.60000000E+01  1.00800000E+00  1.00800000E+00  1.60000000E+01
  1.00800000E+00  1.00800000E+00  1.60000000E+01  1.00800000E+00  1.00800000E+00
  1.60000000E+01  1.00800000E+00  1.00800000E+00  1.60000000E+01  1.00800000E+00
  1.00800000E+00  1.60000000E+01  1.00800000E+00  1.00800000E+00  1.60000000E+01
  1.00800000E+00  1.00800000E+00  1.60000000E+01  1.00800000E+00  1.00800000E+00
  1.60000000E+01  1.00800000E+00  1.00800000E+00  1.60000000E+01  1.00800000E+00
  1.00800000E+00  1.60000000E+01  1.00800000E+00  1.00800000E+00  1.60000000E+01
  1.00800000E+00  1.00800000E+00  1.60000000E+01  1.00800000E+00  1.00800000E+00
  1.60000000E+01  1.00800000E+00  1.00800000E+00  1.60000000E+01  1.00800000E+00
  1.00800000E+00  1.60000000E+01  1.00800000E+00  1.00800000E+00  1.60000000E+01
  1.00800000E+00  1.00800000E+00  1.60000000E+01  1.00800000E+00  1.00800000E+00
  1.60000000E+01  1.00800000E+00  1.00800000E+00  1.60000000E+01  1.00800000E+00
  1.00800000E+00  1.60000000E+01  1.00800000E+00  1.00800000E+00  1.60000000E+01
  1.00800000E+00  1.00800000E+00  1.60000000E+01  1.00800000E+00  1.00800000E+00
  1.60000000E+01  1.00800000E+00  1.00800000E+00  1.60000000E+01  1.00800000E+00
  1.00800000E+00  1.60000000E+01  1.00800000E+00  1.00800000E+00  1.60000000E+01
  1.00800000E+00  1.00800000E+00  1.60000000E+01  1.00800000E+00  1.00800000E+00
  1.60000000E+01  1.00800000E+00  1.00800000E+00  1.60000000E+01  1.00800000E+00
  1.00800000E+00  1.60000000E+01  1.00800000E+00  1.00800000E+00  1.60000000E+01
  1.00800000E+00  1.00800000E+00  1.60000000E+01  1.00800000E+00  1.00800000E+00
  1.60000000E+01  1.00800000E+00  1.00800000E+00  1.60000000E+01  1.00800000E+00
  1.00800000E+00  1.60000000E+01  1.00800000E+00  1.00800000E+00  1.60000000E+01
  1.00800000E+00  1.00800000E+00  1.60000000E+01  1.00800000E+00  1.00800000E+00
  1.60000000E+01  1.00800000E+00  1.00800000E+00  1.60000000E+01  1.00800000E+00
  1.00800000E+00  1.60000000E+01  1.00800000E+00  1.00800000E+00  1.60000000E+01
  1.00800000E+00  1.00800000E+00  1.60000000E+01  1.00800000E+00  1.00800000E+00
  1.60000000E+01  1.00800000E+00  1.00800000E+00  1.60000000E+01  1.00800000E+00
  1.00800000E+00  1.60000000E+01  1.00800000E+00  1.00800000E+00  1.60000000E+01
  1.00800000E+00  1.00800000E+00  1.60000000E+01  1.00800000E+00  1.00800000E+00
  1.60000000E+01  1.00800000E+00  1.00800000E+00  1.60000000E+01  1.00800000E+00
  1.00800000E+00  1.60000000E+01  1.00800000E+00  1.00800000E+00  1.60000000E+01
  1.00800000E+00  1.00800000E+00  1.60000000E+01  1.00800000E+00  1.00800000E+00
  1.60000000E+01  1.00800000E+00  1.00800000E+00  1.60000000E+01  1.00800000E+00
  1.00800000E+00  1.60000000E+01  1.00800000E+00  1.00800000E+00  1.60000000E+01
  1.00800000E+00  1.00800000E+00  1.60000000E+01  1.00800000E+00  1.00800000E+00
  1.60000000E+01  1.00800000E+00  1.00800000E+00  1.60000000E+01  1.00800000E+00
  1.00800000E+00  1.60000000E+01  1.00800000E+00  1.00800000E+00  1.60000000E+01
  1.00800000E+00  1.00800000E+00  1.60000000E+01  1.00800000E+00  1.00800000E+00
  1.60000000E+01  1.00800000E+00  1.00800000E+00  1.60000000E+01  1.00800000E+00
  1.00800000E+00  1.60000000E+01  1.00800000E+00  1.00800000E+00  1.60000000E+01
  1.00800000E+00  1.00800000E+00  1.60000000E+01  1.00800000E+00  1.00800000E+00
  1.60000000E+01  1.00800000E+00  1.00800000E+00  1.60000000E+01  1.00800000E+00
  1.00800000E+00  1.60000000E+01  1.00800000E+00  1.00800000E+00  1.60000000E+01
  1.00800000E+00  1.00800000E+00  1.60000000E+01  1.00800000E+00  1.00800000E+00
  1.60000000E+01  1.00800000E+00  1.00800000E+00  1.60000000E+01  1.00800000E+00
  1.00800000E+00  1.60000000E+01  1.00800000E+00  1.00800000E+00  1.60000000E+01
  1.00800000E+00  1.00800000E+00  1.60000000E+01  1.00800000E+00  1.00800000E+00
  1.60000000E+01  1.00800000E+00  1.00800000E+00  1.60000000E+01  1.00800000E+00
  1.00800000E+00  1.60000000E+01  1.00800000E+00  1.00800000E+00  1.60000000E+01
  1.00800000E+00  1.00800000E+00  1.60000000E+01  1.00800000E+00  1.00800000E+00
  1.60000000E+01  1.00800000E+00  1.00800000E+00  1.60000000E+01  1.00800000E+00
  1.00800000E+00  1.60000000E+01  1.00800000E+00  1.00800000E+00  1.60000000E+01
  1.00800000E+00  1.00800000E+00  1.60000000E+01  1.00800000E+00  1.00800000E+00
  1.60000000E+01  1.00800000E+00  1.00800000E+00  1.60000000E+01  1.00800000E+00
  1.00800000E+00  1.60000000E+01  1.00800000E+00  1.00800000E+00  1.60000000E+01
  1.00800000E+00  1.00800000E+00  1.60000000E+01  1.00800000E+00  1.00800000E+00
  1.60000000E+01  1.00800000E+00  1.00800000E+00  1.60000000E+01  1.00800000E+00
  1.00800000E+00  1.60000000E+01  1.00800000E+00  1.00800000E+00  1.60000000E+01
  1.00800000E+00  1.00800000E+00  1.60000000E+01  1.00800000E+00  1.00800000E+00
  1.60000000E+01  1.00800000E+00  1.00800000E+00  1.60000000E+01  1.00800000E+00
  1.00800000E+00  1.60000000E+01  1.00800000E+00  1.00800000E+00  1.60000000E+01
  1.00800000E+00  1.00800000E+00  1.60000000E+01  1.00800000E+00  1.00800000E+00
  1.60000000E+01  1.00800000E+00  1.00800000E+00  1.60000000E+01  1.00800000E+00
  1.00800000E+00  1.60000000E+01  1.00800000E+00  1.00800000E+00  1.60000000E+01
  1.00800000E+00  1.00800000E+00  1.60000000E+01  1.00800000E+00  1.00800000E+00
  1.60000000E+01  1.00800000E+00  1.00800000E+00  1.60000000E+01  1.00800000E+00
  1.00800000E+00  1.60000000E+01  1.00800000E+00  1.00800000E+00  1.60000000E+01
  1.00800000E+00  1.00800000E+00  1.60000000E+01  1.00800000E+00  1.00800000E+00
  1.60000000E+01  1.00800000E+00  1.00800000E+00  1.60000000E+01  1.00800000E+00
  1.00800000E+00  1.60000000E+01  1.00800000E+00  1.00800000E+00  1.60000000E+01
  1.00800000E+00  1.00800000E+00  1.60000000E+01  1.00800000E+00  1.00800000E+00
  1.60000000E+01  1.00800000E+00  1.00800000E+00  1.60000000E+01  1.00800000E+00
  1.00800000E+00  1.60000000E+01  1.00800000E+00  1.00800000E+00  1.60000000E+01
  1.00800000E+00  1.00800000E+00  1.60000000E+01  1.00800000E+00  1.00800000E+00
  1.60000000E+01  1.00800000E+00  1.00800000E+00  1.60000000E+01  1.00800000E+00
  1.00800000E+00  1.60000000E+01  1.00800000E+00  1.00800000E+00  1.60000000E+01
  1.00800000E+00  1.00800000E+00  1.60000000E+01  1.00800000E+00  1.00800000E+00
  1.60000000E+01  1.00800000E+00  1.00800000E+00  1.60000000E+01  1.00800000E+00
  1.00800000E+00  1.60000000E+01  1.00800000E+00  1.00800000E+00  1.60000000E+01
  1.00800000E+00  1.00800000E+00  1.60000000E+01  1.00800000E+00  1.00800000E+00
  1.60000000E+01  1.00800000E+00  1.00800000E+00  1.60000000E+01  1.00800000E+00
  1.00800000E+00  1.60000000E+01  1.00800000E+00  1.00800000E+00  1.60000000E+01
  1.00800000E+00  1.00800000E+00  1.60000000E+01  1.00800000E+00  1.00800000E+00
  1.60000000E+01  1.00800000E+00  1.00800000E+00  1.60000000E+01  1.00800000E+00
  1.00800000E+00  1.60000000E+01  1.00800000E+00  1.00800000E+00  1.60000000E+01
  1.00800000E+00  1.00800000E+00  1.60000000E+01  1.00800000E+00  1.00800000E+00
  1.60000000E+01  1.00800000E+00  1.00800000E+00  1.60000000E+01  1.00800000E+00
  1.00800000E+00  1.60000000E+01  1.00800000E+00  1.00800000E+00  1.60000000E+01
  1.00800000E+00  1.00800000E+00  1.60000000E+01  1.00800000E+00  1.00800000E+00
  1.60000000E+01  1.00800000E+00  1.00800000E+00  1.60000000E+01  1.00800000E+00
  1.00800000E+00  1.60000000E+01  1.00800000E+00  1.00800000E+00  1.60000000E+01
  1.00800000E+00  1.00800000E+00  1.60000000E+01  1.00800000E+00  1.00800000E+00
  1.60000000E+01  1.00800000E+00  1.00800000E+00  1.60000000E+01  1.00800000E+00
  1.00800000E+00  1.60000000E+01  1.00800000E+00  1.00800000E+00  1.60000000E+01
  1.00800000E+00  1.00800000E+00  1.60000000E+01  1.00800000E+00  1.00800000E+00
  1.60000000E+01  1.00800000E+00  1.00800000E+00  1.60000000E+01  1.00800000E+00
  1.00800000E+00  1.60000000E+01  1.00800000E+00  1.00800000E+00  1.60000000E+01
  1.00800000E+00  1.00800000E+00  1.60000000E+01  1.00800000E+00  1.00800000E+00
  1.60000000E+01  1.00800000E+00  1.00800000E+00  1.60000000E+01  1.00800000E+00
  1.00800000E+00  1.60000000E+01  1.00800000E+00  1.00800000E+00  1.60000000E+01
  1.00800000E+00  1.00800000E+00  1.60000000E+01  1.00800000E+00  1.00800000E+00
  1.60000000E+01  1.00800000E+00  1.00800000E+00  1.60000000E+01  1.00800000E+00
  1.00800000E+00  1.60000000E+01  1.00800000E+00  1.00800000E+00  1.60000000E+01
  1.00800000E+00  1.00800000E+00  1.60000000E+01  1.00800000E+00  1.00800000E+00
  1.60000000E+01  1.00800000E+00  1.00800000E+00  1.60000000E+01  1.00800000E+00
  1.00800000E+00  1.60000000E+01  1.00800000E+00  1.00800000E+00  1.60000000E+01
  1.00800000E+00  1.00800000E+00  1.60000000E+01  1.00800000E+00  1.00800000E+00
  1.60000000E+01  1.00800000E+00  1.00800000E+00  1.60000000E+01  1.00800000E+00
  1.00800000E+00  1.60000000E+01  1.00800000E+00  1.00800000E+00  1.60000000E+01
  1.00800000E+00  1.00800000E+00  1.60000000E+01  1.00800000E+00  1.00800000E+00
  1.60000000E+01  1.00800000E+00  1.00800000E+00  1.60000000E+01  1.00800000E+00
  1.00800000E+00  1.60000000E+01  1.00800000E+00  1.00800000E+00  1.60000000E+01
  1.00800000E+00  1.00800000E+00  1.60000000E+01  1.00800000E+00  1.00800000E+00
  1.60000000E+01  1.00800000E+00  1.00800000E+00  1.60000000E+01  1.00800000E+00
  1.00800000E+00  1.60000000E+01  1.00800000E+00  1.00800000E+00  1.60000000E+01
  1.00800000E+00  1.00800000E+00  1.60000000E+01  1.00800000E+00  1.00800000E+00
  1.60000000E+01  1.00800000E+00  1.00800000E+00  1.60000000E+01  1.00800000E+00
  1.00800000E+00  1.60000000E+01  1.00800000E+00  1.00800000E+00  1.60000000E+01
  1.00800000E+00  1.00800000E+00  1.60000000E+01  1.00800000E+00  1.00800000E+00
  1.60000000E+01  1.00800000E+00  1.00800000E+00  1.60000000E+01  1.00800000E+00
  1.00800000E+00  1.60000000E+01  1.00800000E+00  1.00800000E+00  1.60000000E+01
  1.00800000E+00  1.00800000E+00  1.60000000E+01  1.00800000E+00  1.00800000E+00
  1.60000000E+01  1.00800000E+00  1.00800000E+00  1.60000000E+01  1.00800000E+00
  1.00800000E+00  1.60000000E+01  1.00800000E+00  1.00800000E+00  1.60000000E+01
  1.00800000E+00  1.00800000E+00  1.60000000E+01  1.00800000E+00  1.00800000E+00
  1.60000000E+01  1.00800000E+00  1.00800000E+00  1.60000000E+01  1.00800000E+00
  1.00800000E+00  1.60000000E+01  1.00800000E+00  1.00800000E+00  1.60000000E+01
  1.00800000E+00  1.00800000E+00  1.60000000E+01  1.00800000E+00  1.00800000E+00
  1.60000000E+01  1.00800000E+00  1.00800000E+00  1.60000000E+01  1.00800000E+00
  1.00800000E+00  1.60000000E+01  1.00800000E+00  1.00800000E+00  1.60000000E+01
  1.00800000E+00  1.00800000E+00  1.60000000E+01  1.00800000E+00  1.00800000E+00
  1.60000000E+01  1.00800000E+00  1.00800000E+00  1.60000000E+01  1.00800000E+00
  1.00800000E+00  1.60000000E+01  1.00800000E+00  1.00800000E+00  1.60000000E+01
  1.00800000E+00  1.00800000E+00  1.60000000E+01  1.00800000E+00  1.00800000E+00
  1.60000000E+01  1.00800000E+00  1.00800000E+00  1.60000000E+01  1.00800000E+00
  1.00800000E+00  1.60000000E+01  1.00800000E+00  1.00800000E+00  1.60000000E+01
  1.00800000E+00  1.00800000E+00  1.60000000E+01  1.00800000E+00  1.00800000E+00
  1.60000000E+01  1.00800000E+00  1.00800000E+00  1.60000000E+01  1.00800000E+00
  1.00800000E+00  1.60000000E+01  1.00800000E+00  1.00800000E+00  1.60000000E+01
  1.00800000E+00  1.00800000E+00  1.60000000E+01  1.00800000E+00  1.00800000E+00
  1.60000000E+01  1.00800000E+00  1.00800000E+00  1.60000000E+01  1.00800000E+00
  1.00800000E+00  1.60000000E+01  1.00800000E+00  1.00800000E+00  1.60000000E+01
  1.00800000E+00  1.00800000E+00  1.60000000E+01  1.00800000E+00  1.00800000E+00
  1.60000000E+01  1.00800000E+00  1.00800000E+00  1.60000000E+01  1.00800000E+00
  1.00800000E+00  1.60000000E+01  1.00800000E+00  1.00800000E+00  1.60000000E+01
  1.00800000E+00  1.00800000E+00  1.60000000E+01  1.00800000E+00  1.00800000E+00
  1.60000000E+01  1.00800000E+00  1.00800000E+00  1.60000000E+01  1.00800000E+00
  1.00800000E+00  1.60000000E+01  1.00800000E+00  1.00800000E+00  1.60000000E+01
  1.00800000E+00  1.00800000E+00  1.60000000E+01  1.00800000E+00  1.00800000E+00
  1.60000000E+01  1.00800000E+00  1.00800000E+00  1.60000000E+01  1.00800000E+00
  1.00800000E+00  1.60000000E+01  1.00800000E+00  1.00800000E+00  1.60000000E+01
  1.00800000E+00  1.00800000E+00  1.60000000E+01  1.00800000E+00  1.00800000E+00
  1.60000000E+01  1.00800000E+00  1.00800000E+00  1.60000000E+01  1.00800000E+00
  1.00800000E+00  1.60000000E+01  1.00800000E+00  1.00800000E+00  1.60000000E+01
  1.00800000E+00  1.00800000E+00  1.60000000E+01  1.00800000E+00  1.00800000E+00
  1.60000000E+01  1.00800000E+00  1.00800000E+00  1.60000000E+01  1.00800000E+00
  1.00800000E+00  1.60000000E+01  1.00800000E+00  1.00800000E+00  1.60000000E+01
  1.00800000E+00  1.00800000E+00  1.60000000E+01  1.00800000E+00  1.00800000E+00
  1.60000000E+01  1.00800000E+00  1.00800000E+00  1.60000000E+01  1.00800000E+00
  1.00800000E+00  1.60000000E+01  1.00800000E+00  1.00800000E+00  1.60000000E+01
  1.00800000E+00  1.00800000E+00  1.60000000E+01  1.00800000E+00  1.00800000E+00
  1.60000000E+01  1.00800000E+00  1.00800000E+00  1.60000000E+01  1.00800000E+00
  1.00800000E+00  1.60000000E+01  1.00800000E+00  1.00800000E+00  1.60000000E+01
  1.00800000E+00  1.00800000E+00  1.60000000E+01  1.00800000E+00  1.00800000E+00
  1.60000000E+01  1.00800000E+00  1.00800000E+00  1.60000000E+01  1.00800000E+00
  1.00800000E+00  1.60000000E+01  1.00800000E+00  1.00800000E+00  1.60000000E+01
  1.00800000E+00  1.00800000E+00  1.60000000E+01  1.00800000E+00  1.00800000E+00
  1.60000000E+01  1.00800000E+00  1.00800000E+00  1.60000000E+01  1.00800000E+00
  1.00800000E+00  1.60000000E+01  1.00800000E+00  1.00800000E+00  1.60000000E+01
  1.00800000E+00  1.00800000E+00  1.60000000E+01  1.00800000E+00  1.00800000E+00
  1.60000000E+01  1.00800000E+00  1.00800000E+00  1.60000000E+01  1.00800000E+00
  1.00800000E+00  1.60000000E+01  1.00800000E+00  1.00800000E+00  1.60000000E+01
  1.00800000E+00  1.00800000E+00  1.60000000E+01  1.00800000E+00  1.00800000E+00
  1.60000000E+01  1.00800000E+00  1.00800000E+00  1.60000000E+01  1.00800000E+00
  1.00800000E+00  1.60000000E+01  1.00800000E+00  1.00800000E+00  1.60000000E+01
  1.00800000E+00  1.00800000E+00  1.60000000E+01  1.00800000E+00  1.00800000E+00
  1.60000000E+01  1.00800000E+00  1.00800000E+00  1.60000000E+01  1.00800000E+00
  1.00800000E+00  1.60000000E+01  1.00800000E+00  1.00800000E+00  1.60000000E+01
  1.00800000E+00  1.00800000E+00  1.60000000E+01  1.00800000E+00  1.00800000E+00
  1.60000000E+01  1.00800000E+00  1.00800000E+00  1.60000000E+01  1.00800000E+00
  1.00800000E+00  1.60000000E+01  1.00800000E+00  1.00800000E+00  1.60000000E+01
  1.00800000E+00  1.00800000E+00  1.60000000E+01  1.00800000E+00  1.00800000E+00
  1.60000000E+01  1.00800000E+00  1.00800000E+00  1.60000000E+01  1.00800000E+00
  1.00800000E+00  1.60000000E+01  1.00800000E+00  1.00800000E+00  1.60000000E+01
  1.00800000E+00  1.00800000E+00  1.60000000E+01  1.00800000E+00  1.00800000E+00
  1.60000000E+01  1.00800000E+00  1.00800000E+00  1.60000000E+01  1.00800000E+00
  1.00800000E+00  1.60000000E+01  1.00800000E+00  1.00800000E+00  1.60000000E+01
  1.00800000E+00  1.00800000E+00  1.60000000E+01  1.00800000E+00  1.00800000E+00
  1.60000000E+01  1.00800000E+00  1.00800000E+00  1.60000000E+01  1.00800000E+00
  1.00800000E+00  1.60000000E+01  1.00800000E+00  1.00800000E+00  1.60000000E+01
  1.00800000E+00  1.00800000E+00  1.60000000E+01  1.00800000E+00  1.00800000E+00
  1.60000000E+01  1.00800000E+00  1.00800000E+00  1.60000000E+01  1.00800000E+00
  1.00800000E+00  1.60000000E+01  1.00800000E+00  1.00800000E+00  1.60000000E+01
  1.00800000E+00  1.00800000E+00  1.60000000E+01  1.00800000E+00  1.00800000E+00
  1.60000000E+01  1.00800000E+00  1.00800000E+00  1.60000000E+01  1.00800000E+00
  1.00800000E+00  1.60000000E+01  1.00800000E+00  1.00800000E+00  1.60000000E+01
  1.00800000E+00  1.00800000E+00  1.60000000E+01  1.00800000E+00  1.00800000E+00
  1.60000000E+01  1.00800000E+00  1.00800000E+00  1.60000000E+01  1.00800000E+00
  1.00800000E+00  1.60000000E+01  1.00800000E+00  1.00800000E+00  1.60000000E+01
  1.00800000E+00  1.00800000E+00  1.60000000E+01  1.00800000E+00  1.00800000E+00
  1.60000000E+01  1.00800000E+00  1.00800000E+00  1.60000000E+01  1.00800000E+00
  1.00800000E+00  1.60000000E+01  1.00800000E+00  1.00800000E+00  1.60000000E+01
  1.00800000E+00  1.00800000E+00  1.60000000E+01  1.00800000E+00  1.00800000E+00
  1.60000000E+01  1.00800000E+00  1.00800000E+00  1.60000000E+01  1.00800000E+00
  1.00800000E+00  1.60000000E+01  1.00800000E+00  1.00800000E+00  1.60000000E+01
  1.00800000E+00  1.00800000E+00  1.60000000E+01  1.00800000E+00  1.00800000E+00
  1.60000000E+01  1.00800000E+00  1.00800000E+00  1.60000000E+01  1.00800000E+00
  1.00800000E+00  1.60000000E+01  1.00800000E+00  1.00800000E+00  1.60000000E+01
  1.00800000E+00  1.00800000E+00  1.60000000E+01  1.00800000E+00  1.00800000E+00
  1.60000000E+01  1.00800000E+00  1.00800000E+00  1.60000000E+01  1.00800000E+00
  1.00800000E+00  1.60000000E+01  1.00800000E+00  1.00800000E+00  1.60000000E+01
  1.00800000E+00  1.00800000E+00  1.60000000E+01  1.00800000E+00  1.00800000E+00
  1.60000000E+01  1.00800000E+00  1.00800000E+00  1.60000000E+01  1.00800000E+00
  1.00800000E+00  1.60000000E+01  1.00800000E+00  1.00800000E+00  1.60000000E+01
  1.00800000E+00  1.00800000E+00  1.60000000E+01  1.00800000E+00  1.00800000E+00
  1.60000000E+01  1.00800000E+00  1.00800000E+00  1.60000000E+01  1.00800000E+00
  1.00800000E+00  1.60000000E+01  1.00800000E+00  1.00800000E+00  1.60000000E+01
  1.00800000E+00  1.00800000E+00  1.60000000E+01  1.00800000E+00  1.00800000E+00
  1.60000000E+01  1.00800000E+00  1.00800000E+00  1.60000000E+01  1.00800000E+00
  1.00800000E+00  1.60000000E+01  1.00800000E+00  1.00800000E+00  1.60000000E+01
  1.00800000E+00  1.00800000E+00  1.60000000E+01  1.00800000E+00  1.00800000E+00
  1.60000000E+01  1.00800000E+00  1.00800000E+00  1.60000000E+01  1.00800000E+00
  1.00800000E+00  1.60000000E+01  1.00800000E+00  1.00800000E+00  1.60000000E+01
  1.00800000E+00  1.00800000E+00  1.60000000E+01  1.00800000E+00  1.00800000E+00
  1.60000000E+01  1.00800000E+00  1.00800000E+00  1.60000000E+01  1.00800000E+00
  1.00800000E+00  1.60000000E+01  1.00800000E+00  1.00800000E+00  1.60000000E+01
  1.00800000E+00  1.00800000E+00  1.60000000E+01  1.00800000E+00  1.00800000E+00
  1.60000000E+01  1.00800000E+00  1.00800000E+00  1.60000000E+01  1.00800000E+00
  1.00800000E+00  1.60000000E+01  1.00800000E+00  1.00800000E+00  1.60000000E+01
  1.00800000E+00  1.00800000E+00  1.60000000E+01  1.00800000E+00  1.00800000E+00
  1.60000000E+01  1.00800000E+00  1.00800000E+00  1.60000000E+01  1.00800000E+00
  1.00800000E+00  1.60000000E+01  1.00800000E+00  1.00800000E+00  1.60000000E+01
  1.00800000E+00  1.00800000E+00  1.60000000E+01  1.00800000E+00  1.00800000E+00
  1.60000000E+01  1.00800000E+00  1.00800000E+00  1.60000000E+01  1.00800000E+00
  1.00800000E+00  1.60000000E+01  1.00800000E+00  1.00800000E+00  1.60000000E+01
  1.00800000E+00  1.00800000E+00  1.60000000E+01  1.00800000E+00  1.00800000E+00
  1.60000000E+01  1.00800000E+00  1.00800000E+00  1.60000000E+01  1.00800000E+00
  1.00800000E+00  1.60000000E+01  1.00800000E+00  1.00800000E+00  1.60000000E+01
  1.00800000E+00  1.00800000E+00  1.60000000E+01  1.00800000E+00  1.00800000E+00
  1.60000000E+01  1.00800000E+00  1.00800000E+00  1.60000000E+01  1.00800000E+00
  1.00800000E+00  1.60000000E+01  1.00800000E+00  1.00800000E+00  1.60000000E+01
  1.00800000E+00  1.00800000E+00  1.60000000E+01  1.00800000E+00  1.00800000E+00
  1.60000000E+01  1.00800000E+00  1.00800000E+00  1.60000000E+01  1.00800000E+00
  1.00800000E+00  1.60000000E+01  1.00800000E+00  1.00800000E+00  1.60000000E+01
  1.00800000E+00  1.00800000E+00  1.60000000E+01  1.00800000E+00  1.00800000E+00
  1.60000000E+01  1.00800000E+00  1.00800000E+00  1.60000000E+01  1.00800000E+00
  1.00800000E+00  1.60000000E+01  1.00800000E+00  1.00800000E+00  1.60000000E+01
  1.00800000E+00  1.00800000E+00  1.60000000E+01  1.00800000E+00  1.00800000E+00
  1.60000000E+01  1.00800000E+00  1.00800000E+00  1.60000000E+01  1.00800000E+00
  1.00800000E+00  1.60000000E+01  1.00800000E+00  1.00800000E+00  1.60000000E+01
  1.00800000E+00  1.00800000E+00  1.60000000E+01  1.00800000E+00  1.00800000E+00
  1.60000000E+01  1.00800000E+00  1.00800000E+00  1.60000000E+01  1.00800000E+00
  1.00800000E+00  1.60000000E+01  1.00800000E+00  1.00800000E+00  1.60000000E+01
  1.00800000E+00  1.00800000E+00  1.60000000E+01  1.00800000E+00  1.00800000E+00
  1.60000000E+01  1.00800000E+00  1.00800000E+00  1.60000000E+01  1.00800000E+00
  1.00800000E+00  1.60000000E+01  1.00800000E+00  1.00800000E+00  1.60000000E+01
  1.00800000E+00  1.00800000E+00  1.60000000E+01  1.00800000E+00  1.00800000E+00
  1.60000000E+01  1.00800000E+00  1.00800000E+00  1.60000000E+01  1.00800000E+00
  1.00800000E+00  1.60000000E+01  1.00800000E+00  1.00800000E+00  1.60000000E+01
  1.00800000E+00  1.00800000E+00  1.60000000E+01  1.00800000E+00  1.00800000E+00
  1.60000000E+01  1.00800000E+00  1.00800000E+00  1.60000000E+01  1.00800000E+00
  1.00800000E+00  1.60000000E+01  1.00800000E+00  1.00800000E+00  1.60000000E+01
  1.00800000E+00  1.00800000E+00  1.60000000E+01  1.00800000E+00  1.00800000E+00
  1.60000000E+01  1.00800000E+00  1.00800000E+00  1.60000000E+01  1.00800000E+00
  1.00800000E+00  1.60000000E+01  1.00800000E+00  1.00800000E+00  1.60000000E+01
  1.00800000E+00  1.00800000E+00  1.60000000E+01  1.00800000E+00  1.00800000E+00
  1.60000000E+01  1.00800000E+00  1.00800000E+00  1.60000000E+01  1.00800000E+00
  1.00800000E+00  1.60000000E+01  1.00800000E+00  1.00800000E+00  1.60000000E+01
  1.00800000E+00  1.00800000E+00  1.60000000E+01  1.00800000E+00  1.00800000E+00
  1.60000000E+01  1.00800000E+00  1.00800000E+00  1.60000000E+01  1.00800000E+00
  1.00800000E+00  1.60000000E+01  1.00800000E+00  1.00800000E+00  1.60000000E+01
  1.00800000E+00  1.00800000E+00  1.60000000E+01  1.00800000E+00  1.00800000E+00
  1.60000000E+01  1.00800000E+00  1.00800000E+00  1.60000000E+01  1.00800000E+00
  1.00800000E+00  1.60000000E+01  1.00800000E+00  1.00800000E+00  1.60000000E+01
  1.00800000E+00  1.00800000E+00  1.60000000E+01  1.00800000E+00  1.00800000E+00
  1.60000000E+01  1.00800000E+00  1.00800000E+00  1.60000000E+01  1.00800000E+00
  1.00800000E+00  1.60000000E+01  1.00800000E+00  1.00800000E+00  1.60000000E+01
  1.00800000E+00  1.00800000E+00  1.60000000E+01  1.00800000E+00  1.00800000E+00
  1.60000000E+01  1.00800000E+00  1.00800000E+00  1.60000000E+01  1.00800000E+00
  1.00800000E+00  1.60000000E+01  1.00800000E+00  1.00800000E+00  1.60000000E+01
  1.00800000E+00  1.00800000E+00  1.60000000E+01  1.00800000E+00  1.00800000E+00
  1.60000000E+01  1.00800000E+00  1.00800000E+00  1.60000000E+01  1.00800000E+00
  1.00800000E+00  1.60000000E+01  1.00800000E+00  1.00800000E+00  1.60000000E+01
  1.00800000E+00  1.00800000E+00  1.60000000E+01  1.00800000E+00  1.00800000E+00
  1.60000000E+01  1.00800000E+00  1.00800000E+00  1.60000000E+01  1.00800000E+00
  1.00800000E+00  1.60000000E+01  1.00800000E+00  1.00800000E+00  1.60000000E+01
  1.00800000E+00  1.00800000E+00  1.60000000E+01  1.00800000E+00  1.00800000E+00
  1.60000000E+01  1.00800000E+00  1.00800000E+00  1.60000000E+01  1.00800000E+00
  1.00800000E+00  1.60000000E+01  1.00800000E+00  1.00800000E+00  1.60000000E+01
  1.00800000E+00  1.00800000E+00  1.60000000E+01  1.00800000E+00  1.00800000E+00
  1.60000000E+01  1.00800000E+00  1.00800000E+00  1.60000000E+01  1.00800000E+00
  1.00800000E+00  1.60000000E+01  1.00800000E+00  1.00800000E+00  1.60000000E+01
  1.00800000E+00  1.00800000E+00  1.60000000E+01  1.00800000E+00  1.00800000E+00
  1.60000000E+01  1.00800000E+00  1.00800000E+00  1.60000000E+01  1.00800000E+00
  1.00800000E+00  1.60000000E+01  1.00800000E+00  1.00800000E+00  1.60000000E+01
  1.00800000E+00  1.00800000E+00  1.60000000E+01  1.00800000E+00  1.00800000E+00
  1.60000000E+01  1.00800000E+00  1.00800000E+00  1.60000000E+01  1.00800000E+00
  1.00800000E+00  1.60000000E+01  1.00800000E+00  1.00800000E+00  1.60000000E+01
  1.00800000E+00  1.00800000E+00  1.60000000E+01  1.00800000E+00  1.00800000E+00
  1.60000000E+01  1.00800000E+00  1.00800000E+00  1.60000000E+01  1.00800000E+00
  1.00800000E+00  1.60000000E+01  1.00800000E+00  1.00800000E+00  1.60000000E+01
  1.00800000E+00  1.00800000E+00  1.60000000E+01  1.00800000E+00  1.00800000E+00
  1.60000000E+01  1.00800000E+00  1.00800000E+00  1.60000000E+01  1.00800000E+00
  1.00800000E+00  1.60000000E+01  1.00800000E+00  1.00800000E+00  1.60000000E+01
  1.00800000E+00  1.00800000E+00  1.60000000E+01  1.00800000E+00  1.00800000E+00
  1.60000000E+01  1.00800000E+00  1.00800000E+00  1.60000000E+01  1.00800000E+00
  1.00800000E+00  1.60000000E+01  1.00800000E+00  1.00800000E+00  1.60000000E+01
  1.00800000E+00  1.00800000E+00  1.60000000E+01  1.00800000E+00  1.00800000E+00
  1.60000000E+01  1.00800000E+00  1.00800000E+00  1.60000000E+01  1.00800000E+00
  1.00800000E+00  1.60000000E+01  1.00800000E+00  1.00800000E+00  1.60000000E+01
  1.00800000E+00  1.00800000E+00  1.60000000E+01  1.00800000E+00  1.00800000E+00
  1.60000000E+01  1.00800000E+00  1.00800000E+00  1.60000000E+01  1.00800000E+00
  1.00800000E+00  1.60000000E+01  1.00800000E+00  1.00800000E+00  1.60000000E+01
  1.00800000E+00  1.00800000E+00  1.60000000E+01  1.00800000E+00  1.00800000E+00
  1.60000000E+01  1.00800000E+00  1.00800000E+00  1.60000000E+01  1.00800000E+00
  1.00800000E+00  1.60000000E+01  1.00800000E+00  1.00800000E+00  1.60000000E+01
  1.00800000E+00  1.00800000E+00  1.60000000E+01  1.00800000E+00  1.00800000E+00
  1.60000000E+01  1.00800000E+00  1.00800000E+00  1.60000000E+01  1.00800000E+00
  1.00800000E+00  1.60000000E+01  1.00800000E+00  1.00800000E+00  1.60000000E+01
  1.00800000E+00  1.00800000E+00  1.60000000E+01  1.00800000E+00  1.00800000E+00
  1.60000000E+01  1.00800000E+00  1.00800000E+00  1.60000000E+01  1.00800000E+00
  1.00800000E+00  1.60000000E+01  1.00800000E+00  1.00800000E+00  1.60000000E+01
  1.00800000E+00  1.00800000E+00  1.60000000E+01  1.00800000E+00  1.00800000E+00
  1.60000000E+01  1.00800000E+00  1.00800000E+00  1.60000000E+01  1.00800000E+00
  1.00800000E+00  1.60000000E+01  1.00800000E+00  1.00800000E+00  1.60000000E+01
  1.00800000E+00  1.00800000E+00  1.60000000E+01  1.00800000E+00  1.00800000E+00
  1.60000000E+01  1.00800000E+00  1.00800000E+00  1.60000000E+01  1.00800000E+00
  1.00800000E+00  1.60000000E+01  1.00800000E+00  1.00800000E+00  1.60000000E+01
  1.00800000E+00  1.00800000E+00  1.60000000E+01  1.00800000E+00  1.00800000E+00
  1.60000000E+01  1.00800000E+00  1.00800000E+00  1.60000000E+01  1.00800000E+00
  1.00800000E+00  1.60000000E+01  1.00800000E+00  1.00800000E+00  1.60000000E+01
  1.00800000E+00  1.00800000E+00  1.60000000E+01  1.00800000E+00  1.00800000E+00
  1.60000000E+01  1.00800000E+00  1.00800000E+00  1.60000000E+01  1.00800000E+00
  1.00800000E+00  1.60000000E+01  1.00800000E+00  1.00800000E+00  1.60000000E+01
  1.00800000E+00  1.00800000E+00  1.60000000E+01  1.00800000E+00  1.00800000E+00
  1.60000000E+01  1.00800000E+00  1.00800000E+00  1.60000000E+01  1.00800000E+00
  1.00800000E+00  1.60000000E+01  1.00800000E+00  1.00800000E+00  1.60000000E+01
  1.00800000E+00  1.00800000E+00  1.60000000E+01  1.00800000E+00  1.00800000E+00
  1.60000000E+01  1.00800000E+00  1.00800000E+00  1.60000000E+01  1.00800000E+00
  1.00800000E+00  1.60000000E+01  1.00800000E+00  1.00800000E+00  1.60000000E+01
  1.00800000E+00  1.00800000E+00  1.60000000E+01  1.00800000E+00  1.00800000E+00
  1.60000000E+01  1.00800000E+00  1.00800000E+00  1.60000000E+01  1.00800000E+00
  1.00800000E+00  1.60000000E+01  1.00800000E+00  1.00800000E+00  1.60000000E+01
  1.00800000E+00  1.00800000E+00  1.60000000E+01  1.00800000E+00  1.00800000E+00
  1.60000000E+01  1.00800000E+00  1.00800000E+00  1.60000000E+01  1.00800000E+00
  1.00800000E+00  1.60000000E+01  1.00800000E+00  1.00800000E+00  1.60000000E+01
  1.00800000E+00  1.00800000E+00  1.60000000E+01  1.00800000E+00  1.00800000E+00
  1.60000000E+01  1.00800000E+00  1.00800000E+00  1.60000000E+01  1.00800000E+00
  1.00800000E+00  1.60000000E+01  1.00800000E+00  1.00800000E+00  1.60000000E+01
  1.00800000E+00  1.00800000E+00  1.60000000E+01  1.00800000E+00  1.00800000E+00
  1.60000000E+01  1.00800000E+00  1.00800000E+00  1.60000000E+01  1.00800000E+00
  1.00800000E+00  1.60000000E+01  1.00800000E+00  1.00800000E+00  1.60000000E+01
  1.00800000E+00  1.00800000E+00  1.60000000E+01  1.00800000E+00  1.00800000E+00
  1.60000000E+01  1.00800000E+00  1.00800000E+00  1.60000000E+01  1.00800000E+00
  1.00800000E+00  1.60000000E+01  1.00800000E+00  1.00800000E+00  1.60000000E+01
  1.00800000E+00  1.00800000E+00  1.60000000E+01  1.00800000E+00  1.00800000E+00
  1.60000000E+01  1.00800000E+00  1.00800000E+00  1.60000000E+01  1.00800000E+00
  1.00800000E+00  1.60000000E+01  1.00800000E+00  1.00800000E+00  1.60000000E+01
  1.00800000E+00  1.00800000E+00  1.60000000E+01  1.00800000E+00  1.00800000E+00
  1.60000000E+01  1.00800000E+00  1.00800000E+00  1.60000000E+01  1.00800000E+00
  1.00800000E+00  1.60000000E+01  1.00800000E+00  1.00800000E+00  1.60000000E+01
  1.00800000E+00  1.00800000E+00  1.60000000E+01  1.00800000E+00  1.00800000E+00
  1.60000000E+01  1.00800000E+00  1.00800000E+00  1.60000000E+01  1.00800000E+00
  1.00800000E+00  1.60000000E+01  1.00800000E+00  1.00800000E+00  1.60000000E+01
  1.00800000E+00  1.00800000E+00  1.60000000E+01  1.00800000E+00  1.00800000E+00
  1.60000000E+01  1.00800000E+00  1.00800000E+00  1.60000000E+01  1.00800000E+00
  1.00800000E+00  1.60000000E+01  1.00800000E+00  1.00800000E+00  1.60000000E+01
  1.00800000E+00  1.00800000E+00  1.60000000E+01  1.00800000E+00  1.00800000E+00
  1.60000000E+01  1.00800000E+00  1.00800000E+00  1.60000000E+01  1.00800000E+00
  1.00800000E+00  1.60000000E+01  1.00800000E+00  1.00800000E+00  1.60000000E+01
  1.00800000E+00  1.00800000E+00  1.60000000E+01  1.00800000E+00  1.00800000E+00
  1.60000000E+01  1.00800000E+00  1.00800000E+00  1.60000000E+01  1.00800000E+00
  1.00800000E+00  1.60000000E+01  1.00800000E+00  1.00800000E+00  1.60000000E+01
  1.00800000E+00  1.00800000E+00  1.60000000E+01  1.00800000E+00  1.00800000E+00
  1.60000000E+01  1.00800000E+00  1.00800000E+00  1.60000000E+01  1.00800000E+00
  1.00800000E+00  1.60000000E+01  1.00800000E+00  1.00800000E+00  1.60000000E+01
  1.00800000E+00  1.00800000E+00  1.60000000E+01  1.00800000E+00  1.00800000E+00
  1.60000000E+01  1.00800000E+00  1.00800000E+00  1.60000000E+01  1.00800000E+00
  1.00800000E+00  1.60000000E+01  1.00800000E+00  1.00800000E+00  1.60000000E+01
  1.00800000E+00  1.00800000E+00  1.60000000E+01  1.00800000E+00  1.00800000E+00
  1.60000000E+01  1.00800000E+00  1.00800000E+00  1.60000000E+01  1.00800000E+00
  1.00800000E+00  1.60000000E+01  1.00800000E+00  1.00800000E+00  1.60000000E+01
  1.00800000E+00  1.00800000E+00  1.60000000E+01  1.00800000E+00  1.00800000E+00
  1.60000000E+01  1.00800000E+00  1.00800000E+00  1.60000000E+01  1.00800000E+00
  1.00800000E+00  1.60000000E+01  1.00800000E+00  1.00800000E+00  1.60000000E+01
  1.00800000E+00  1.00800000E+00  1.60000000E+01  1.00800000E+00  1.00800000E+00
  1.60000000E+01  1.00800000E+00  1.00800000E+00  1.60000000E+01  1.00800000E+00
  1.00800000E+00  1.60000000E+01  1.00800000E+00  1.00800000E+00  1.60000000E+01
  1.00800000E+00  1.00800000E+00  1.60000000E+01  1.00800000E+00  1.00800000E+00
  1.60000000E+01  1.00800000E+00  1.00800000E+00  1.60000000E+01  1.00800000E+00
  1.00800000E+00  1.60000000E+01  1.00800000E+00  1.00800000E+00  1.60000000E+01
  1.00800000E+00  1.00800000E+00  1.60000000E+01  1.00800000E+00  1.00800000E+00
  1.60000000E+01  1.00800000E+00  1.00800000E+00  1.60000000E+01  1.00800000E+00
  1.00800000E+00  1.60000000E+01  1.00800000E+00  1.00800000E+00  1.60000000E+01
  1.00800000E+00  1.00800000E+00  1.60000000E+01  1.00800000E+00  1.00800000E+00
  1.60000000E+01  1.00800000E+00  1.00800000E+00  1.60000000E+01  1.00800000E+00
  1.00800000E+00  1.60000000E+01  1.00800000E+00  1.00800000E+00  1.60000000E+01
  1.00800000E+00  1.00800000E+00  1.60000000E+01  1.00800000E+00  1.00800000E+00
  1.60000000E+01  1.00800000E+00  1.00800000E+00  1.60000000E+01  1.00800000E+00
  1.00800000E+00  1.60000000E+01  1.00800000E+00  1.00800000E+00  1.60000000E+01
  1.00800000E+00  1.00800000E+00  1.60000000E+01  1.00800000E+00  1.00800000E+00
  1.60000000E+01  1.00800000E+00  1.00800000E+00  1.60000000E+01  1.00800000E+00
  1.00800000E+00  1.60000000E+01  1.00800000E+00  1.00800000E+00  1.60000000E+01
  1.00800000E+00  1.00800000E+00  1.60000000E+01  1.00800000E+00  1.00800000E+00
  1.60000000E+01  1.00800000E+00  1.00800000E+00  1.60000000E+01  1.00800000E+00
  1.00800000E+00  1.60000000E+01  1.00800000E+00  1.00800000E+00  1.60000000E+01
  1.00800000E+00  1.00800000E+00  1.60000000E+01  1.00800000E+00  1.00800000E+00
  1.60000000E+01  1.00800000E+00  1.00800000E+00  1.60000000E+01  1.00800000E+00
  1.00800000E+00  1.60000000E+01  1.00800000E+00  1.00800000E+00  1.60000000E+01
  1.00800000E+00  1.00800000E+00  1.60000000E+01  1.00800000E+00  1.00800000E+00
  1.60000000E+01  1.00800000E+00  1.00800000E+00  1.60000000E+01  1.00800000E+00
  1.00800000E+00  1.60000000E+01  1.00800000E+00  1.00800000E+00  1.60000000E+01
  1.00800000E+00  1.00800000E+00  1.60000000E+01  1.00800000E+00  1.00800000E+00
  1.60000000E+01  1.00800000E+00  1.00800000E+00  1.60000000E+01  1.00800000E+00
  1.00800000E+00  1.60000000E+01  1.00800000E+00  1.00800000E+00  1.60000000E+01
  1.00800000E+00  1.00800000E+00  1.60000000E+01  1.00800000E+00  1.00800000E+00
  1.60000000E+01  1.00800000E+00  1.00800000E+00  1.60000000E+01  1.00800000E+00
  1.00800000E+00  1.60000000E+01  1.00800000E+00  1.00800000E+00  1.60000000E+01
  1.00800000E+00  1.00800000E+00  1.60000000E+01  1.00800000E+00  1.00800000E+00
  1.60000000E+01  1.00800000E+00  1.00800000E+00  1.60000000E+01  1.00800000E+00
  1.00800000E+00  1.60000000E+01  1.00800000E+00  1.00800000E+00  1.60000000E+01
  1.00800000E+00  1.00800000E+00  1.60000000E+01  1.00800000E+00  1.00800000E+00
  1.60000000E+01  1.00800000E+00  1.00800000E+00  1.60000000E+01  1.00800000E+00
  1.00800000E+00  1.60000000E+01  1.00800000E+00  1.00800000E+00  1.60000000E+01
  1.00800000E+00  1.00800000E+00  1.60000000E+01  1.00800000E+00  1.00800000E+00
  1.60000000E+01  1.00800000E+00  1.00800000E+00  1.60000000E+01  1.00800000E+00
  1.00800000E+00  1.60000000E+01  1.00800000E+00  1.00800000E+00  1.60000000E+01
  1.00800000E+00  1.00800000E+00  1.60000000E+01  1.00800000E+00  1.00800000E+00
  1.60000000E+01  1.00800000E+00  1.00800000E+00  1.60000000E+01  1.00800000E+00
  1.00800000E+00  1.60000000E+01  1.00800000E+00  1.00800000E+00  1.60000000E+01
  1.00800000E+00  1.00800000E+00  1.60000000E+01  1.00800000E+00  1.00800000E+00
  1.60000000E+01  1.00800000E+00  1.00800000E+00  1.60000000E+01  1.00800000E+00
  1.00800000E+00  1.60000000E+01  1.00800000E+00  1.00800000E+00  1.60000000E+01
  1.00800000E+00  1.00800000E+00  1.60000000E+01  1.00800000E+00  1.00800000E+00
  1.60000000E+01  1.00800000E+00  1.00800000E+00  1.60000000E+01  1.00800000E+00
  1.00800000E+00  1.60000000E+01  1.00800000E+00  1.00800000E+00  1.60000000E+01
  1.00800000E+00  1.00800000E+00  1.60000000E+01  1.00800000E+00  1.00800000E+00
  1.60000000E+01  1.00800000E+00  1.00800000E+00  1.60000000E+01  1.00800000E+00
  1.00800000E+00  1.60000000E+01  1.00800000E+00  1.00800000E+00  1.60000000E+01
  1.00800000E+00  1.00800000E+00  1.60000000E+01  1.00800000E+00  1.00800000E+00
  1.60000000E+01  1.00800000E+00  1.00800000E+00  1.60000000E+01  1.00800000E+00
  1.00800000E+00  1.60000000E+01  1.00800000E+00  1.00800000E+00  1.60000000E+01
  1.00800000E+00  1.00800000E+00  1.60000000E+01  1.00800000E+00  1.00800000E+00
  1.60000000E+01  1.00800000E+00  1.00800000E+00  1.60000000E+01  1.00800000E+00
  1.00800000E+00  1.60000000E+01  1.00800000E+00  1.00800000E+00  1.60000000E+01
  1.00800000E+00  1.00800000E+00  1.60000000E+01  1.00800000E+00  1.00800000E+00
  1.60000000E+01  1.00800000E+00  1.00800000E+00  1.60000000E+01  1.00800000E+00
  1.00800000E+00  1.60000000E+01  1.00800000E+00  1.00800000E+00  1.60000000E+01
  1.00800000E+00  1.00800000E+00  1.60000000E+01  1.00800000E+00  1.00800000E+00
  1.60000000E+01  1.00800000E+00  1.00800000E+00  1.60000000E+01  1.00800000E+00
  1.00800000E+00  1.60000000E+01  1.00800000E+00  1.00800000E+00  1.60000000E+01
  1.00800000E+00  1.00800000E+00  1.60000000E+01  1.00800000E+00  1.00800000E+00
  1.60000000E+01  1.00800000E+00  1.00800000E+00  1.60000000E+01  1.00800000E+00
  1.00800000E+00  1.60000000E+01  1.00800000E+00  1.00800000E+00  1.60000000E+01
  1.00800000E+00  1.00800000E+00  1.60000000E+01  1.00800000E+00  1.00800000E+00
  1.60000000E+01  1.00800000E+00  1.00800000E+00  1.60000000E+01  1.00800000E+00
  1.00800000E+00  1.60000000E+01  1.00800000E+00  1.00800000E+00  1.60000000E+01
  1.00800000E+00  1.00800000E+00  1.60000000E+01  1.00800000E+00  1.00800000E+00
  1.60000000E+01  1.00800000E+00  1.00800000E+00  1.60000000E+01  1.00800000E+00
  1.00800000E+00  1.60000000E+01  1.00800000E+00  1.00800000E+00  1.60000000E+01
  1.00800000E+00  1.00800000E+00  1.60000000E+01  1.00800000E+00  1.00800000E+00
  1.60000000E+01  1.00800000E+00  1.00800000E+00  1.60000000E+01  1.00800000E+00
  1.00800000E+00  1.60000000E+01  1.00800000E+00  1.00800000E+00  1.60000000E+01
  1.00800000E+00  1.00800000E+00  1.60000000E+01  1.00800000E+00  1.00800000E+00
  1.60000000E+01  1.00800000E+00  1.00800000E+00  1.60000000E+01  1.00800000E+00
  1.00800000E+00  1.60000000E+01  1.00800000E+00  1.00800000E+00  1.60000000E+01
  1.00800000E+00  1.00800000E+00  1.60000000E+01  1.00800000E+00  1.00800000E+00
  1.60000000E+01  1.00800000E+00  1.00800000E+00  1.60000000E+01  1.00800000E+00
  1.00800000E+00  1.60000000E+01  1.00800000E+00  1.00800000E+00  1.60000000E+01
  1.00800000E+00  1.00800000E+00  1.60000000E+01  1.00800000E+00  1.00800000E+00
  1.60000000E+01  1.00800000E+00  1.00800000E+00  1.60000000E+01  1.00800000E+00
  1.00800000E+00  1.60000000E+01  1.00800000E+00  1.00800000E+00  1.60000000E+01
  1.00800000E+00  1.00800000E+00  1.60000000E+01  1.00800000E+00  1.00800000E+00
  1.60000000E+01  1.00800000E+00  1.00800000E+00  1.60000000E+01  1.00800000E+00
  1.00800000E+00  1.60000000E+01  1.00800000E+00  1.00800000E+00  1.60000000E+01
  1.00800000E+00  1.00800000E+00  1.60000000E+01  1.00800000E+00  1.00800000E+00
  1.60000000E+01  1.00800000E+00  1.00800000E+00  1.60000000E+01  1.00800000E+00
  1.00800000E+00  1.60000000E+01  1.00800000E+00  1.00800000E+00  1.60000000E+01
  1.00800000E+00  1.00800000E+00  1.60000000E+01  1.00800000E+00  1.00800000E+00
  1.60000000E+01  1.00800000E+00  1.00800000E+00  1.60000000E+01  1.00800000E+00
  1.00800000E+00  1.60000000E+01  1.00800000E+00  1.00800000E+00  1.60000000E+01
  1.00800000E+00  1.00800000E+00  1.60000000E+01  1.00800000E+00  1.00800000E+00
  1.60000000E+01  1.00800000E+00  1.00800000E+00  1.60000000E+01  1.00800000E+00
  1.00800000E+00  1.60000000E+01  1.00800000E+00  1.00800000E+00  1.60000000E+01
  1.00800000E+00  1.00800000E+00  1.60000000E+01  1.00800000E+00  1.00800000E+00
  1.60000000E+01  1.00800000E+00  1.00800000E+00  1.60000000E+01  1.00800000E+00
  1.00800000E+00  1.60000000E+01  1.00800000E+00  1.00800000E+00  1.60000000E+01
  1.00800000E+00  1.00800000E+00  1.60000000E+01  1.00800000E+00  1.00800000E+00
  1.60000000E+01  1.00800000E+00  1.00800000E+00  1.60000000E+01  1.00800000E+00
  1.00800000E+00  1.60000000E+01  1.00800000E+00  1.00800000E+00  1.60000000E+01
  1.00800000E+00  1.00800000E+00  1.60000000E+01  1.00800000E+00  1.00800000E+00
  1.60000000E+01  1.00800000E+00  1.00800000E+00  1.60000000E+01  1.00800000E+00
  1.00800000E+00  1.60000000E+01  1.00800000E+00  1.00800000E+00  1.60000000E+01
  1.00800000E+00  1.00800000E+00  1.60000000E+01  1.00800000E+00  1.00800000E+00
  1.60000000E+01  1.00800000E+00  1.00800000E+00  1.60000000E+01  1.00800000E+00
  1.00800000E+00  1.60000000E+01  1.00800000E+00  1.00800000E+00  1.60000000E+01
  1.00800000E+00  1.00800000E+00  1.60000000E+01  1.00800000E+00  1.00800000E+00
  1.60000000E+01  1.00800000E+00  1.00800000E+00  1.60000000E+01  1.00800000E+00
  1.00800000E+00  1.60000000E+01  1.00800000E+00  1.00800000E+00  1.60000000E+01
  1.00800000E+00  1.00800000E+00  1.60000000E+01  1.00800000E+00  1.00800000E+00
  1.60000000E+01  1.00800000E+00  1.00800000E+00  1.60000000E+01  1.00800000E+00
  1.00800000E+00  1.60000000E+01  1.00800000E+00  1.00800000E+00  1.60000000E+01
  1.00800000E+00  1.00800000E+00  1.60000000E+01  1.00800000E+00  1.00800000E+00
  1.60000000E+01  1.00800000E+00  1.00800000E+00  1.60000000E+01  1.00800000E+00
  1.00800000E+00  1.60000000E+01  1.00800000E+00  1.00800000E+00  1.60000000E+01
  1.00800000E+00  1.00800000E+00  1.60000000E+01  1.00800000E+00  1.00800000E+00
  1.60000000E+01  1.00800000E+00  1.00800000E+00  1.60000000E+01  1.00800000E+00
  1.00800000E+00  1.60000000E+01  1.00800000E+00  1.00800000E+00  1.60000000E+01
  1.00800000E+00  1.00800000E+00  1.60000000E+01  1.00800000E+00  1.00800000E+00
  1.60000000E+01  1.00800000E+00  1.00800000E+00  1.60000000E+01  1.00800000E+00
  1.00800000E+00  1.60000000E+01  1.00800000E+00  1.00800000E+00  1.60000000E+01
  1.00800000E+00  1.00800000E+00  1.60000000E+01  1.00800000E+00  1.00800000E+00
  1.60000000E+01  1.00800000E+00  1.00800000E+00  1.60000000E+01  1.00800000E+00
  1.00800000E+00  1.60000000E+01  1.00800000E+00  1.00800000E+00  1.60000000E+01
  1.00800000E+00  1.00800000E+00  1.60000000E+01  1.00800000E+00  1.00800000E+00
  1.60000000E+01  1.00800000E+00  1.00800000E+00  1.60000000E+01  1.00800000E+00
  1.00800000E+00  1.60000000E+01  1.00800000E+00  1.00800000E+00  1.60000000E+01
  1.00800000E+00  1.00800000E+00  1.60000000E+01  1.00800000E+00  1.00800000E+00
  1.60000000E+01  1.00800000E+00  1.00800000E+00  1.60000000E+01  1.00800000E+00
  1.00800000E+00  1.60000000E+01  1.00800000E+00  1.00800000E+00  1.60000000E+01
  1.00800000E+00  1.00800000E+00  1.60000000E+01  1.00800000E+00  1.00800000E+00
  1.60000000E+01  1.00800000E+00  1.00800000E+00  1.60000000E+01  1.00800000E+00
  1.00800000E+00  1.60000000E+01  1.00800000E+00  1.00800000E+00  1.60000000E+01
  1.00800000E+00  1.00800000E+00  1.60000000E+01  1.00800000E+00  1.00800000E+00
  1.60000000E+01  1.00800000E+00  1.00800000E+00  1.60000000E+01  1.00800000E+00
  1.00800000E+00  1.60000000E+01  1.00800000E+00  1.00800000E+00  1.60000000E+01
  1.00800000E+00  1.00800000E+00  1.60000000E+01  1.00800000E+00  1.00800000E+00
  1.60000000E+01  1.00800000E+00  1.00800000E+00  1.60000000E+01  1.00800000E+00
  1.00800000E+00  1.60000000E+01  1.00800000E+00  1.00800000E+00  1.60000000E+01
  1.00800000E+00  1.00800000E+00  1.60000000E+01  1.00800000E+00  1.00800000E+00
  1.60000000E+01  1.00800000E+00  1.00800000E+00  1.60000000E+01  1.00800000E+00
  1.00800000E+00  1.60000000E+01  1.00800000E+00  1.00800000E+00  1.60000000E+01
  1.00800000E+00  1.00800000E+00  1.60000000E+01  1.00800000E+00  1.00800000E+00
  1.60000000E+01  1.00800000E+00  1.00800000E+00  1.60000000E+01  1.00800000E+00
  1.00800000E+00  1.60000000E+01  1.00800000E+00  1.00800000E+00  1.60000000E+01
  1.00800000E+00  1.00800000E+00  1.60000000E+01  1.00800000E+00  1.00800000E+00
  1.60000000E+01  1.00800000E+00  1.00800000E+00  1.60000000E+01  1.00800000E+00
  1.00800000E+00  1.60000000E+01  1.00800000E+00  1.00800000E+00  1.60000000E+01
  1.00800000E+00  1.00800000E+00  1.60000000E+01  1.00800000E+00  1.00800000E+00
  1.60000000E+01  1.00800000E+00  1.00800000E+00  1.60000000E+01  1.00800000E+00
  1.00800000E+00  1.60000000E+01  1.00800000E+00  1.00800000E+00  1.60000000E+01
  1.00800000E+00  1.00800000E+00  1.60000000E+01  1.00800000E+00  1.00800000E+00
  1.60000000E+01  1.00800000E+00  1.00800000E+00  1.60000000E+01  1.00800000E+00
  1.00800000E+00  1.60000000E+01  1.00800000E+00  1.00800000E+00  1.60000000E+01
  1.00800000E+00  1.00800000E+00  1.60000000E+01  1.00800000E+00  1.00800000E+00
  1.60000000E+01  1.00800000E+00  1.00800000E+00  1.60000000E+01  1.00800000E+00
  1.00800000E+00  1.60000000E+01  1.00800000E+00  1.00800000E+00  1.60000000E+01
  1.00800000E+00  1.00800000E+00  1.60000000E+01  1.00800000E+00  1.00800000E+00
  1.60000000E+01  1.00800000E+00  1.00800000E+00  1.60000000E+01  1.00800000E+00
  1.00800000E+00  1.60000000E+01  1.00800000E+00  1.00800000E+00  1.60000000E+01
  1.00800000E+00  1.00800000E+00  1.60000000E+01  1.00800000E+00  1.00800000E+00
  1.60000000E+01  1.00800000E+00  1.00800000E+00  1.60000000E+01  1.00800000E+00
  1.00800000E+00  1.60000000E+01  1.00800000E+00  1.00800000E+00  1.60000000E+01
  1.00800000E+00  1.00800000E+00  1.60000000E+01  1.00800000E+00  1.00800000E+00
  1.60000000E+01  1.00800000E+00  1.00800000E+00  1.60000000E+01  1.00800000E+00
  1.00800000E+00  1.60000000E+01  1.00800000E+00  1.00800000E+00  1.60000000E+01
  1.00800000E+00  1.00800000E+00  1.60000000E+01  1.00800000E+00  1.00800000E+00
  1.60000000E+01  1.00800000E+00  1.00800000E+00  1.60000000E+01  1.00800000E+00
  1.00800000E+00  1.60000000E+01  1.00800000E+00  1.00800000E+00  1.60000000E+01
  1.00800000E+00  1.00800000E+00  1.60000000E+01  1.00800000E+00  1.00800000E+00
  1.60000000E+01  1.00800000E+00  1.00800000E+00  1.60000000E+01  1.00800000E+00
  1.00800000E+00  1.60000000E+01  1.00800000E+00  1.00800000E+00  1.60000000E+01
  1.00800000E+00  1.00800000E+00  1.60000000E+01  1.00800000E+00  1.00800000E+00
  1.60000000E+01  1.00800000E+00  1.00800000E+00  1.60000000E+01  1.00800000E+00
  1.00800000E+00  1.60000000E+01  1.00800000E+00  1.00800000E+00  1.60000000E+01
  1.00800000E+00  1.00800000E+00  1.60000000E+01  1.00800000E+00  1.00800000E+00
  1.60000000E+01  1.00800000E+00  1.00800000E+00  1.60000000E+01  1.00800000E+00
  1.00800000E+00  1.60000000E+01  1.00800000E+00  1.00800000E+00  1.60000000E+01
  1.00800000E+00  1.00800000E+00  1.60000000E+01  1.00800000E+00  1.00800000E+00
  1.60000000E+01  1.00800000E+00  1.00800000E+00  1.60000000E+01  1.00800000E+00
  1.00800000E+00  1.60000000E+01  1.00800000E+00  1.00800000E+00  1.60000000E+01
  1.00800000E+00  1.00800000E+00  1.60000000E+01  1.00800000E+00  1.00800000E+00
  1.60000000E+01  1.00800000E+00  1.00800000E+00  1.60000000E+01  1.00800000E+00
  1.00800000E+00  1.60000000E+01  1.00800000E+00  1.00800000E+00  1.60000000E+01
  1.00800000E+00  1.00800000E+00  1.60000000E+01  1.00800000E+00  1.00800000E+00
  1.60000000E+01  1.00800000E+00  1.00800000E+00  1.60000000E+01  1.00800000E+00
  1.00800000E+00  1.60000000E+01  1.00800000E+00  1.00800000E+00  1.60000000E+01
  1.00800000E+00  1.00800000E+00  1.60000000E+01  1.00800000E+00  1.00800000E+00
  1.60000000E+01  1.00800000E+00  1.00800000E+00  1.60000000E+01  1.00800000E+00
  1.00800000E+00  1.60000000E+01  1.00800000E+00  1.00800000E+00  1.60000000E+01
  1.00800000E+00  1.00800000E+00  1.60000000E+01  1.00800000E+00  1.00800000E+00
  1.60000000E+01  1.00800000E+00  1.00800000E+00  1.60000000E+01  1.00800000E+00
  1.00800000E+00  1.60000000E+01  1.00800000E+00  1.00800000E+00  1.60000000E+01
  1.00800000E+00  1.00800000E+00  1.60000000E+01  1.00800000E+00  1.00800000E+00
  1.60000000E+01  1.00800000E+00  1.00800000E+00  1.60000000E+01  1.00800000E+00
  1.00800000E+00  1.60000000E+01  1.00800000E+00  1.00800000E+00  1.60000000E+01
  1.00800000E+00  1.00800000E+00  1.60000000E+01  1.00800000E+00  1.00800000E+00
  1.60000000E+01  1.00800000E+00  1.00800000E+00  1.60000000E+01  1.00800000E+00
  1.00800000E+00  1.60000000E+01  1.00800000E+00  1.00800000E+00  1.60000000E+01
  1.00800000E+00  1.00800000E+00  1.60000000E+01  1.00800000E+00  1.00800000E+00
  1.60000000E+01  1.00800000E+00  1.00800000E+00  1.60000000E+01  1.00800000E+00
  1.00800000E+00  1.60000000E+01  1.00800000E+00  1.00800000E+00  1.60000000E+01
  1.00800000E+00  1.00800000E+00  1.60000000E+01  1.00800000E+00  1.00800000E+00
  1.60000000E+01  1.00800000E+00  1.00800000E+00  1.60000000E+01  1.00800000E+00
  1.00800000E+00  1.60000000E+01  1.00800000E+00  1.00800000E+00  1.60000000E+01
  1.00800000E+00  1.00800000E+00  1.60000000E+01  1.00800000E+00  1.00800000E+00
  1.60000000E+01  1.00800000E+00  1.00800000E+00  1.60000000E+01  1.00800000E+00
  1.00800000E+00  1.60000000E+01  1.00800000E+00  1.00800000E+00  1.60000000E+01
  1.00800000E+00  1.00800000E+00  1.60000000E+01  1.00800000E+00  1.00800000E+00
  1.60000000E+01  1.00800000E+00  1.00800000E+00  1.60000000E+01  1.00800000E+00
  1.00800000E+00  1.60000000E+01  1.00800000E+00  1.00800000E+00  1.60000000E+01
  1.00800000E+00  1.00800000E+00  1.60000000E+01  1.00800000E+00  1.00800000E+00
  1.60000000E+01  1.00800000E+00  1.00800000E+00  1.60000000E+01  1.00800000E+00
  1.00800000E+00  1.60000000E+01  1.00800000E+00  1.00800000E+00  1.60000000E+01
  1.00800000E+00  1.00800000E+00  1.60000000E+01  1.00800000E+00  1.00800000E+00
  1.60000000E+01  1.00800000E+00  1.00800000E+00  1.60000000E+01  1.00800000E+00
  1.00800000E+00  1.60000000E+01  1.00800000E+00  1.00800000E+00  1.60000000E+01
  1.00800000E+00  1.00800000E+00  1.60000000E+01  1.00800000E+00  1.00800000E+00
  1.60000000E+01  1.00800000E+00  1.00800000E+00  1.60000000E+01  1.00800000E+00
  1.00800000E+00  1.60000000E+01  1.00800000E+00  1.00800000E+00  1.60000000E+01
  1.00800000E+00  1.00800000E+00  1.60000000E+01  1.00800000E+00  1.00800000E+00
  1.60000000E+01  1.00800000E+00  1.00800000E+00  1.60000000E+01  1.00800000E+00
  1.00800000E+00  1.60000000E+01  1.00800000E+00  1.00800000E+00  1.60000000E+01
  1.00800000E+00  1.00800000E+00  1.60000000E+01  1.00800000E+00  1.00800000E+00
  1.60000000E+01  1.00800000E+00  1.00800000E+00  1.60000000E+01  1.00800000E+00
  1.00800000E+00  1.60000000E+01  1.00800000E+00  1.00800000E+00  1.60000000E+01
  1.00800000E+00  1.00800000E+00  1.60000000E+01  1.00800000E+00  1.00800000E+00
  1.60000000E+01  1.00800000E+00  1.00800000E+00  1.60000000E+01  1.00800000E+00
  1.00800000E+00  1.60000000E+01  1.00800000E+00  1.00800000E+00  1.60000000E+01
  1.00800000E+00  1.00800000E+00  1.60000000E+01  1.00800000E+00  1.00800000E+00
  1.60000000E+01  1.00800000E+00  1.00800000E+00  1.60000000E+01  1.00800000E+00
  1.00800000E+00  1.60000000E+01  1.00800000E+00  1.00800000E+00  1.60000000E+01
  1.00800000E+00  1.00800000E+00  1.60000000E+01  1.00800000E+00  1.00800000E+00
  1.60000000E+01  1.00800000E+00  1.00800000E+00  1.60000000E+01  1.00800000E+00
  1.00800000E+00  1.60000000E+01  1.00800000E+00  1.00800000E+00  1.60000000E+01
  1.00800000E+00  1.00800000E+00  1.60000000E+01  1.00800000E+00  1.00800000E+00
  1.60000000E+01  1.00800000E+00  1.00800000E+00  1.60000000E+01  1.00800000E+00
  1.00800000E+00  1.60000000E+01  1.00800000E+00  1.00800000E+00  1.60000000E+01
  1.00800000E+00  1.00800000E+00  1.60000000E+01  1.00800000E+00  1.00800000E+00
  1.60000000E+01  1.00800000E+00  1.00800000E+00  1.60000000E+01  1.00800000E+00
  1.00800000E+00  1.60000000E+01  1.00800000E+00  1.00800000E+00  1.60000000E+01
  1.00800000E+00  1.00800000E+00  1.60000000E+01  1.00800000E+00  1.00800000E+00
  1.60000000E+01  1.00800000E+00  1.00800000E+00  1.60000000E+01  1.00800000E+00
  1.00800000E+00  1.60000000E+01  1.00800000E+00  1.00800000E+00  1.60000000E+01
  1.00800000E+00  1.00800000E+00  1.60000000E+01  1.00800000E+00  1.00800000E+00
  1.60000000E+01  1.00800000E+00  1.00800000E+00  1.60000000E+01  1.00800000E+00
  1.00800000E+00  1.60000000E+01  1.00800000E+00  1.00800000E+00  1.60000000E+01
  1.00800000E+00  1.00800000E+00  1.60000000E+01  1.00800000E+00  1.00800000E+00
  1.60000000E+01  1.00800000E+00  1.00800000E+00  1.60000000E+01  1.00800000E+00
  1.00800000E+00  1.60000000E+01  1.00800000E+00  1.00800000E+00  1.60000000E+01
  1.00800000E+00  1.00800000E+00  1.60000000E+01  1.00800000E+00  1.00800000E+00
  1.60000000E+01  1.00800000E+00  1.00800000E+00  1.60000000E+01  1.00800000E+00
  1.00800000E+00  1.60000000E+01  1.00800000E+00  1.00800000E+00  1.60000000E+01
  1.00800000E+00  1.00800000E+00  1.60000000E+01  1.00800000E+00  1.00800000E+00
  1.60000000E+01  1.00800000E+00  1.00800000E+00  1.60000000E+01  1.00800000E+00
  1.00800000E+00  1.60000000E+01  1.00800000E+00  1.00800000E+00  1.60000000E+01
  1.00800000E+00  1.00800000E+00  1.60000000E+01  1.00800000E+00  1.00800000E+00
  1.60000000E+01  1.00800000E+00  1.00800000E+00  1.60000000E+01  1.00800000E+00
  1.00800000E+00  1.60000000E+01  1.00800000E+00  1.00800000E+00  1.60000000E+01
  1.00800000E+00  1.00800000E+00  1.60000000E+01  1.00800000E+00  1.00800000E+00
  1.60000000E+01  1.00800000E+00  1.00800000E+00  1.60000000E+01  1.00800000E+00
  1.00800000E+00  1.60000000E+01  1.00800000E+00  1.00800000E+00  1.60000000E+01
  1.00800000E+00  1.00800000E+00  1.60000000E+01  1.00800000E+00  1.00800000E+00
  1.60000000E+01  1.00800000E+00  1.00800000E+00  1.60000000E+01  1.00800000E+00
  1.00800000E+00  1.60000000E+01  1.00800000E+00  1.00800000E+00  1.60000000E+01
  1.00800000E+00  1.00800000E+00  1.60000000E+01  1.00800000E+00  1.00800000E+00
  1.60000000E+01  1.00800000E+00  1.00800000E+00  1.60000000E+01  1.00800000E+00
  1.00800000E+00  1.60000000E+01  1.00800000E+00  1.00800000E+00  1.60000000E+01
  1.00800000E+00  1.00800000E+00  1.60000000E+01  1.00800000E+00  1.00800000E+00
  1.60000000E+01  1.00800000E+00  1.00800000E+00  1.60000000E+01  1.00800000E+00
  1.00800000E+00  1.60000000E+01  1.00800000E+00  1.00800000E+00  1.60000000E+01
  1.00800000E+00  1.00800000E+00  1.60000000E+01  1.00800000E+00  1.00800000E+00
  1.60000000E+01  1.00800000E+00  1.00800000E+00  1.60000000E+01  1.00800000E+00
  1.00800000E+00  1.60000000E+01  1.00800000E+00  1.00800000E+00  1.60000000E+01
  1.00800000E+00  1.00800000E+00  1.60000000E+01  1.00800000E+00  1.00800000E+00
  1.60000000E+01  1.00800000E+00  1.00800000E+00  1.60000000E+01  1.00800000E+00
  1.00800000E+00  1.60000000E+01  1.00800000E+00  1.00800000E+00  1.60000000E+01
  1.00800000E+00  1.00800000E+00  1.60000000E+01  1.00800000E+00  1.00800000E+00
  1.60000000E+01  1.00800000E+00  1.00800000E+00  1.60000000E+01  1.00800000E+00
  1.00800000E+00  1.60000000E+01  1.00800000E+00  1.00800000E+00  1.60000000E+01
  1.00800000E+00  1.00800000E+00  1.60000000E+01  1.00800000E+00  1.00800000E+00
  1.60000000E+01  1.00800000E+00  1.00800000E+00  1.60000000E+01  1.00800000E+00
  1.00800000E+00  1.60000000E+01  1.00800000E+00  1.00800000E+00  1.60000000E+01
  1.00800000E+00  1.00800000E+00  1.60000000E+01  1.00800000E+00  1.00800000E+00
  1.60000000E+01  1.00800000E+00  1.00800000E+00  1.60000000E+01  1.00800000E+00
  1.00800000E+00  1.60000000E+01  1.00800000E+00  1.00800000E+00  1.60000000E+01
  1.00800000E+00  1.00800000E+00  1.60000000E+01  1.00800000E+00  1.00800000E+00
  1.60000000E+01  1.00800000E+00  1.00800000E+00  1.60000000E+01  1.00800000E+00
  1.00800000E+00  1.60000000E+01  1.00800000E+00  1.00800000E+00  1.60000000E+01
  1.00800000E+00  1.00800000E+00  1.60000000E+01  1.00800000E+00  1.00800000E+00
  1.60000000E+01  1.00800000E+00  1.00800000E+00  1.60000000E+01  1.00800000E+00
  1.00800000E+00  1.60000000E+01  1.00800000E+00  1.00800000E+00  1.60000000E+01
  1.00800000E+00  1.00800000E+00  1.60000000E+01  1.00800000E+00  1.00800000E+00
  1.60000000E+01  1.00800000E+00  1.00800000E+00  1.60000000E+01  1.00800000E+00
  1.00800000E+00  1.60000000E+01  1.00800000E+00  1.00800000E+00  1.60000000E+01
  1.00800000E+00  1.00800000E+00  1.60000000E+01  1.00800000E+00  1.00800000E+00
  1.60000000E+01  1.00800000E+00  1.00800000E+00  1.60000000E+01  1.00800000E+00
  1.00800000E+00  1.60000000E+01  1.00800000E+00  1.00800000E+00  1.60000000E+01
  1.00800000E+00  1.00800000E+00  1.60000000E+01  1.00800000E+00  1.00800000E+00
  1.60000000E+01  1.00800000E+00  1.00800000E+00  1.60000000E+01  1.00800000E+00
  1.00800000E+00  1.60000000E+01  1.00800000E+00  1.00800000E+00  1.60000000E+01
  1.00800000E+00  1.00800000E+00  1.60000000E+01  1.00800000E+00  1.00800000E+00
  1.60000000E+01  1.00800000E+00  1.00800000E+00  1.60000000E+01  1.00800000E+00
  1.00800000E+00  1.60000000E+01  1.00800000E+00  1.00800000E+00  1.60000000E+01
  1.00800000E+00  1.00800000E+00  1.60000000E+01  1.00800000E+00  1.00800000E+00
  1.60000000E+01  1.00800000E+00  1.00800000E+00  1.60000000E+01  1.00800000E+00
  1.00800000E+00  1.60000000E+01  1.00800000E+00  1.00800000E+00  1.60000000E+01
  1.00800000E+00  1.00800000E+00  1.60000000E+01  1.00800000E+00  1.00800000E+00
  1.60000000E+01  1.00800000E+00  1.00800000E+00  1.60000000E+01  1.00800000E+00
  1.00800000E+00  1.60000000E+01  1.00800000E+00  1.00800000E+00  1.60000000E+01
  1.00800000E+00  1.00800000E+00  1.60000000E+01  1.00800000E+00  1.00800000E+00
  1.60000000E+01  1.00800000E+00  1.00800000E+00  1.60000000E+01  1.00800000E+00
  1.00800000E+00  1.60000000E+01  1.00800000E+00  1.00800000E+00  1.60000000E+01
  1.00800000E+00  1.00800000E+00  1.60000000E+01  1.00800000E+00  1.00800000E+00
  1.60000000E+01  1.00800000E+00  1.00800000E+00  1.60000000E+01  1.00800000E+00
  1.00800000E+00  1.60000000E+01  1.00800000E+00  1.00800000E+00  1.60000000E+01
  1.00800000E+00  1.00800000E+00  1.60000000E+01  1.00800000E+00  1.00800000E+00
  1.60000000E+01  1.00800000E+00  1.00800000E+00  1.60000000E+01  1.00800000E+00
  1.00800000E+00  1.60000000E+01  1.00800000E+00  1.00800000E+00  1.60000000E+01
  1.00800000E+00  1.00800000E+00  1.60000000E+01  1.00800000E+00  1.00800000E+00
  1.60000000E+01  1.00800000E+00  1.00800000E+00  1.60000000E+01  1.00800000E+00
  1.00800000E+00  1.60000000E+01  1.00800000E+00  1.00800000E+00  1.60000000E+01
  1.00800000E+00  1.00800000E+00  1.60000000E+01  1.00800000E+00  1.00800000E+00
  1.60000000E+01  1.00800000E+00  1.00800000E+00  1.60000000E+01  1.00800000E+00
  1.00800000E+00  1.60000000E+01  1.00800000E+00  1.00800000E+00  1.60000000E+01
  1.00800000E+00  1.00800000E+00  1.60000000E+01  1.00800000E+00  1.00800000E+00
  1.60000000E+01  1.00800000E+00  1.00800000E+00  1.60000000E+01  1.00800000E+00
  1.00800000E+00  1.60000000E+01  1.00800000E+00  1.00800000E+00  1.60000000E+01
  1.00800000E+00  1.00800000E+00  1.60000000E+01  1.00800000E+00  1.00800000E+00
  1.60000000E+01  1.00800000E+00  1.00800000E+00  1.60000000E+01  1.00800000E+00
  1.00800000E+00  1.60000000E+01  1.00800000E+00  1.00800000E+00  1.60000000E+01
  1.00800000E+00  1.00800000E+00  1.60000000E+01  1.00800000E+00  1.00800000E+00
  1.60000000E+01  1.00800000E+00  1.00800000E+00  1.60000000E+01  1.00800000E+00
  1.00800000E+00  1.60000000E+01  1.00800000E+00  1.00800000E+00  1.60000000E+01
  1.00800000E+00  1.00800000E+00  1.60000000E+01  1.00800000E+00  1.00800000E+00
  1.60000000E+01  1.00800000E+00  1.00800000E+00  1.60000000E+01  1.00800000E+00
  1.00800000E+00  1.60000000E+01  1.00800000E+00  1.00800000E+00  1.60000000E+01
  1.00800000E+00  1.00800000E+00  1.60000000E+01  1.00800000E+00  1.00800000E+00
  1.60000000E+01  1.00800000E+00  1.00800000E+00  1.60000000E+01  1.00800000E+00
  1.00800000E+00  1.60000000E+01  1.00800000E+00  1.00800000E+00  1.60000000E+01
  1.00800000E+00  1.00800000E+00  1.60000000E+01  1.00800000E+00  1.00800000E+00
  1.60000000E+01  1.00800000E+00  1.00800000E+00  1.60000000E+01  1.00800000E+00
  1.00800000E+00  1.60000000E+01  1.00800000E+00  1.00800000E+00  1.60000000E+01
  1.00800000E+00  1.00800000E+00  1.60000000E+01  1.00800000E+00  1.00800000E+00
  1.60000000E+01  1.00800000E+00  1.00800000E+00  1.60000000E+01  1.00800000E+00
  1.00800000E+00  1.60000000E+01  1.00800000E+00  1.00800000E+00  1.60000000E+01
  1.00800000E+00  1.00800000E+00  1.60000000E+01  1.00800000E+00  1.00800000E+00
  1.60000000E+01  1.00800000E+00  1.00800000E+00  1.60000000E+01  1.00800000E+00
  1.00800000E+00  1.60000000E+01  1.00800000E+00  1.00800000E+00  1.60000000E+01
  1.00800000E+00  1.00800000E+00  1.60000000E+01  1.00800000E+00  1.00800000E+00
  1.60000000E+01  1.00800000E+00  1.00800000E+00  1.60000000E+01  1.00800000E+00
  1.00800000E+00  1.60000000E+01  1.00800000E+00  1.00800000E+00  1.60000000E+01
  1.00800000E+00  1.00800000E+00  1.60000000E+01  1.00800000E+00  1.00800000E+00
  1.60000000E+01  1.00800000E+00  1.00800000E+00  1.60000000E+01  1.00800000E+00
  1.00800000E+00  1.60000000E+01  1.00800000E+00  1.00800000E+00  1.60000000E+01
  1.00800000E+00  1.00800000E+00  1.60000000E+01  1.00800000E+00  1.00800000E+00
  1.60000000E+01  1.00800000E+00  1.00800000E+00  1.60000000E+01  1.00800000E+00
  1.00800000E+00  1.60000000E+01  1.00800000E+00  1.00800000E+00  1.60000000E+01
  1.00800000E+00  1.00800000E+00  1.60000000E+01  1.00800000E+00  1.00800000E+00
  1.60000000E+01  1.00800000E+00  1.00800000E+00  1.60000000E+01  1.00800000E+00
  1.00800000E+00  1.60000000E+01  1.00800000E+00  1.00800000E+00  1.60000000E+01
  1.00800000E+00  1.00800000E+00  1.60000000E+01  1.00800000E+00  1.00800000E+00
  1.60000000E+01  1.00800000E+00  1.00800000E+00  1.60000000E+01  1.00800000E+00
  1.00800000E+00  1.60000000E+01  1.00800000E+00  1.00800000E+00  1.60000000E+01
  1.00800000E+00  1.00800000E+00  1.60000000E+01  1.00800000E+00  1.00800000E+00
  1.60000000E+01  1.00800000E+00  1.00800000E+00  1.60000000E+01  1.00800000E+00
  1.00800000E+00  1.60000000E+01  1.00800000E+00  1.00800000E+00  1.60000000E+01
  1.00800000E+00  1.00800000E+00  1.60000000E+01  1.00800000E+00  1.00800000E+00
  1.60000000E+01  1.00800000E+00  1.00800000E+00  1.60000000E+01  1.00800000E+00
  1.00800000E+00  1.60000000E+01  1.00800000E+00  1.00800000E+00  1.60000000E+01
  1.00800000E+00  1.00800000E+00  1.60000000E+01  1.00800000E+00  1.00800000E+00
  1.60000000E+01  1.00800000E+00  1.00800000E+00  1.60000000E+01  1.00800000E+00
  1.00800000E+00  1.60000000E+01  1.00800000E+00  1.00800000E+00  1.60000000E+01
  1.00800000E+00  1.00800000E+00  1.60000000E+01  1.00800000E+00  1.00800000E+00
  1.60000000E+01  1.00800000E+00  1.00800000E+00  1.60000000E+01  1.00800000E+00
  1.00800000E+00  1.60000000E+01  1.00800000E+00  1.00800000E+00  1.60000000E+01
  1.00800000E+00  1.00800000E+00  1.60000000E+01  1.00800000E+00  1.00800000E+00
  1.60000000E+01  1.00800000E+00  1.00800000E+00  1.60000000E+01  1.00800000E+00
  1.00800000E+00  1.60000000E+01  1.00800000E+00  1.00800000E+00  1.60000000E+01
  1.00800000E+00  1.00800000E+00  1.60000000E+01  1.00800000E+00  1.00800000E+00
  1.60000000E+01  1.00800000E+00  1.00800000E+00  1.60000000E+01  1.00800000E+00
  1.00800000E+00  1.60000000E+01  1.00800000E+00  1.00800000E+00  1.60000000E+01
  1.00800000E+00  1.00800000E+00  1.60000000E+01  1.00800000E+00  1.00800000E+00
  1.60000000E+01  1.00800000E+00  1.00800000E+00  1.60000000E+01  1.00800000E+00
  1.00800000E+00  1.60000000E+01  1.00800000E+00  1.00800000E+00  1.60000000E+01
  1.00800000E+00  1.00800000E+00  1.60000000E+01  1.00800000E+00  1.00800000E+00
  1.60000000E+01  1.00800000E+00  1.00800000E+00  1.60000000E+01  1.00800000E+00
  1.00800000E+00  1.60000000E+01  1.00800000E+00  1.00800000E+00  1.60000000E+01
  1.00800000E+00  1.00800000E+00  1.60000000E+01  1.00800000E+00  1.00800000E+00
  1.60000000E+01  1.00800000E+00  1.00800000E+00  1.60000000E+01  1.00800000E+00
  1.00800000E+00  1.60000000E+01  1.00800000E+00  1.00800000E+00  1.60000000E+01
  1.00800000E+00  1.00800000E+00  1.60000000E+01  1.00800000E+00  1.00800000E+00
  1.60000000E+01  1.00800000E+00  1.00800000E+00  1.60000000E+01  1.00800000E+00
  1.00800000E+00  1.60000000E+01  1.00800000E+00  1.00800000E+00  1.60000000E+01
  1.00800000E+00  1.00800000E+00  1.60000000E+01  1.00800000E+00  1.00800000E+00
  1.60000000E+01  1.00800000E+00  1.00800000E+00  1.60000000E+01  1.00800000E+00
  1.00800000E+00  1.60000000E+01  1.00800000E+00  1.00800000E+00  1.60000000E+01
  1.00800000E+00  1.00800000E+00  1.60000000E+01  1.00800000E+00  1.00800000E+00
  1.60000000E+01  1.00800000E+00  1.00800000E+00  1.60000000E+01  1.00800000E+00
  1.00800000E+00  1.60000000E+01  1.00800000E+00  1.00800000E+00  1.60000000E+01
  1.00800000E+00  1.00800000E+00  1.60000000E+01  1.00800000E+00  1.00800000E+00
  1.60000000E+01  1.00800000E+00  1.00800000E+00  1.60000000E+01  1.00800000E+00
  1.00800000E+00  1.60000000E+01  1.00800000E+00  1.00800000E+00  1.60000000E+01
  1.00800000E+00  1.00800000E+00  1.60000000E+01  1.00800000E+00  1.00800000E+00
  1.60000000E+01  1.00800000E+00  1.00800000E+00  1.60000000E+01  1.00800000E+00
  1.00800000E+00  1.60000000E+01  1.00800000E+00  1.00800000E+00  1.60000000E+01
  1.00800000E+00  1.00800000E+00  1.60000000E+01  1.00800000E+00  1.00800000E+00
  1.60000000E+01  1.00800000E+00  1.00800000E+00  1.60000000E+01  1.00800000E+00
  1.00800000E+00  1.60000000E+01  1.00800000E+00  1.00800000E+00  1.60000000E+01
  1.00800000E+00  1.00800000E+00  1.60000000E+01  1.00800000E+00  1.00800000E+00
  1.60000000E+01  1.00800000E+00  1.00800000E+00  1.60000000E+01  1.00800000E+00
  1.00800000E+00  1.60000000E+01  1.00800000E+00  1.00800000E+00  1.60000000E+01
  1.00800000E+00  1.00800000E+00  1.60000000E+01  1.00800000E+00  1.00800000E+00
  1.60000000E+01  1.00800000E+00  1.00800000E+00  1.60000000E+01  1.00800000E+00
  1.00800000E+00  1.60000000E+01  1.00800000E+00  1.00800000E+00  1.60000000E+01
  1.00800000E+00  1.00800000E+00  1.60000000E+01  1.00800000E+00  1.00800000E+00
  1.60000000E+01  1.00800000E+00  1.00800000E+00  1.60000000E+01  1.00800000E+00
  1.00800000E+00  1.60000000E+01  1.00800000E+00  1.00800000E+00  1.60000000E+01
  1.00800000E+00  1.00800000E+00  1.60000000E+01  1.00800000E+00  1.00800000E+00
  1.60000000E+01  1.00800000E+00  1.00800000E+00  1.60000000E+01  1.00800000E+00
  1.00800000E+00  1.60000000E+01  1.00800000E+00  1.00800000E+00  1.60000000E+01
  1.00800000E+00  1.00800000E+00  1.60000000E+01  1.00800000E+00  1.00800000E+00
  1.60000000E+01  1.00800000E+00  1.00800000E+00  1.60000000E+01  1.00800000E+00
  1.00800000E+00  1.60000000E+01  1.00800000E+00  1.00800000E+00  1.60000000E+01
  1.00800000E+00  1.00800000E+00  1.60000000E+01  1.00800000E+00  1.00800000E+00
  1.60000000E+01  1.00800000E+00  1.00800000E+00  1.60000000E+01  1.00800000E+00
  1.00800000E+00  1.60000000E+01  1.00800000E+00  1.00800000E+00  1.60000000E+01
  1.00800000E+00  1.00800000E+00  1.60000000E+01  1.00800000E+00  1.00800000E+00
  1.60000000E+01  1.00800000E+00  1.00800000E+00  1.60000000E+01  1.00800000E+00
  1.00800000E+00  1.60000000E+01  1.00800000E+00  1.00800000E+00  1.60000000E+01
  1.00800000E+00  1.00800000E+00  1.60000000E+01  1.00800000E+00  1.00800000E+00
  1.60000000E+01  1.00800000E+00  1.00800000E+00  1.60000000E+01  1.00800000E+00
  1.00800000E+00  1.60000000E+01  1.00800000E+00  1.00800000E+00  1.60000000E+01
  1.00800000E+00  1.00800000E+00  1.60000000E+01  1.00800000E+00  1.00800000E+00
  1.60000000E+01  1.00800000E+00  1.00800000E+00  1.60000000E+01  1.00800000E+00
  1.00800000E+00  1.60000000E+01  1.00800000E+00  1.00800000E+00  1.60000000E+01
  1.00800000E+00  1.00800000E+00  1.60000000E+01  1.00800000E+00  1.00800000E+00
  1.60000000E+01  1.00800000E+00  1.00800000E+00  1.60000000E+01  1.00800000E+00
  1.00800000E+00  1.60000000E+01  1.00800000E+00  1.00800000E+00  1.60000000E+01
  1.00800000E+00  1.00800000E+00  1.60000000E+01  1.00800000E+00  1.00800000E+00
  1.60000000E+01  1.00800000E+00  1.00800000E+00  1.60000000E+01  1.00800000E+00
  1.00800000E+00  1.60000000E+01  1.00800000E+00  1.00800000E+00  1.60000000E+01
  1.00800000E+00  1.00800000E+00  1.60000000E+01  1.00800000E+00  1.00800000E+00
  1.60000000E+01  1.00800000E+00  1.00800000E+00  1.60000000E+01  1.00800000E+00
  1.00800000E+00  1.60000000E+01  1.00800000E+00  1.00800000E+00  1.60000000E+01
  1.00800000E+00  1.00800000E+00  1.60000000E+01  1.00800000E+00  1.00800000E+00
  1.60000000E+01  1.00800000E+00  1.00800000E+00  1.60000000E+01  1.00800000E+00
  1.00800000E+00  1.60000000E+01  1.00800000E+00  1.00800000E+00  1.60000000E+01
  1.00800000E+00  1.00800000E+00  1.60000000E+01  1.00800000E+00  1.00800000E+00
  1.60000000E+01  1.00800000E+00  1.00800000E+00  1.60000000E+01  1.00800000E+00
  1.00800000E+00  1.60000000E+01  1.00800000E+00  1.00800000E+00  1.60000000E+01
  1.00800000E+00  1.00800000E+00  1.60000000E+01  1.00800000E+00  1.00800000E+00
  1.60000000E+01  1.00800000E+00  1.00800000E+00  1.60000000E+01  1.00800000E+00
  1.00800000E+00  1.60000000E+01  1.00800000E+00  1.00800000E+00  1.60000000E+01
  1.00800000E+00  1.00800000E+00  1.60000000E+01  1.00800000E+00  1.00800000E+00
  1.60000000E+01  1.00800000E+00  1.00800000E+00  1.60000000E+01  1.00800000E+00
  1.00800000E+00  1.60000000E+01  1.00800000E+00  1.00800000E+00  1.60000000E+01
  1.00800000E+00  1.00800000E+00  1.60000000E+01  1.00800000E+00  1.00800000E+00
  1.60000000E+01  1.00800000E+00  1.00800000E+00  1.60000000E+01  1.00800000E+00
  1.00800000E+00  1.60000000E+01  1.00800000E+00  1.00800000E+00  1.60000000E+01
  1.00800000E+00  1.00800000E+00  1.60000000E+01  1.00800000E+00  1.00800000E+00
  1.60000000E+01  1.00800000E+00  1.00800000E+00  1.60000000E+01  1.00800000E+00
  1.00800000E+00  1.60000000E+01  1.00800000E+00  1.00800000E+00  1.60000000E+01
  1.00800000E+00  1.00800000E+00  1.60000000E+01  1.00800000E+00  1.00800000E+00
  1.60000000E+01  1.00800000E+00  1.00800000E+00  1.60000000E+01  1.00800000E+00
  1.00800000E+00  1.60000000E+01  1.00800000E+00  1.00800000E+00  1.60000000E+01
  1.00800000E+00  1.00800000E+00  1.60000000E+01  1.00800000E+00  1.00800000E+00
  1.60000000E+01  1.00800000E+00  1.00800000E+00  1.60000000E+01  1.00800000E+00
  1.00800000E+00  1.60000000E+01  1.00800000E+00  1.00800000E+00  1.60000000E+01
  1.00800000E+00  1.00800000E+00  1.60000000E+01  1.00800000E+00  1.00800000E+00
  1.60000000E+01  1.00800000E+00  1.00800000E+00  1.60000000E+01  1.00800000E+00
  1.00800000E+00  1.60000000E+01  1.00800000E+00  1.00800000E+00  1.60000000E+01
  1.00800000E+00  1.00800000E+00  1.60000000E+01  1.00800000E+00  1.00800000E+00
  1.60000000E+01  1.00800000E+00  1.00800000E+00  1.60000000E+01  1.00800000E+00
  1.00800000E+00  1.60000000E+01  1.00800000E+00  1.00800000E+00  1.60000000E+01
  1.00800000E+00  1.00800000E+00  1.60000000E+01  1.00800000E+00  1.00800000E+00
  1.60000000E+01  1.00800000E+00  1.00800000E+00  1.60000000E+01  1.00800000E+00
  1.00800000E+00  1.60000000E+01  1.00800000E+00  1.00800000E+00  1.60000000E+01
  1.00800000E+00  1.00800000E+00  1.60000000E+01  1.00800000E+00  1.00800000E+00
  1.60000000E+01  1.00800000E+00  1.00800000E+00  1.60000000E+01  1.00800000E+00
  1.00800000E+00  1.60000000E+01  1.00800000E+00  1.00800000E+00  1.60000000E+01
  1.00800000E+00  1.00800000E+00  1.60000000E+01  1.00800000E+00  1.00800000E+00
  1.60000000E+01  1.00800000E+00  1.00800000E+00  1.60000000E+01  1.00800000E+00
  1.00800000E+00  1.60000000E+01  1.00800000E+00  1.00800000E+00  1.60000000E+01
  1.00800000E+00  1.00800000E+00  1.60000000E+01  1.00800000E+00  1.00800000E+00
  1.60000000E+01  1.00800000E+00  1.00800000E+00  1.60000000E+01  1.00800000E+00
  1.00800000E+00  1.60000000E+01  1.00800000E+00  1.00800000E+00  1.60000000E+01
  1.00800000E+00  1.00800000E+00  1.60000000E+01  1.00800000E+00  1.00800000E+00
  1.60000000E+01  1.00800000E+00  1.00800000E+00  1.60000000E+01  1.00800000E+00
  1.00800000E+00  1.60000000E+01  1.00800000E+00  1.00800000E+00  1.60000000E+01
  1.00800000E+00  1.00800000E+00  1.60000000E+01  1.00800000E+00  1.00800000E+00
  1.60000000E+01  1.00800000E+00  1.00800000E+00  1.60000000E+01  1.00800000E+00
  1.00800000E+00  1.60000000E+01  1.00800000E+00  1.00800000E+00  1.60000000E+01
  1.00800000E+00  1.00800000E+00  1.60000000E+01  1.00800000E+00  1.00800000E+00
  1.60000000E+01  1.00800000E+00  1.00800000E+00  1.60000000E+01  1.00800000E+00
  1.00800000E+00  1.60000000E+01  1.00800000E+00  1.00800000E+00  1.60000000E+01
  1.00800000E+00  1.00800000E+00  1.60000000E+01  1.00800000E+00  1.00800000E+00
  1.60000000E+01  1.00800000E+00  1.00800000E+00  1.60000000E+01  1.00800000E+00
  1.00800000E+00  1.60000000E+01  1.00800000E+00  1.00800000E+00  1.60000000E+01
  1.00800000E+00  1.00800000E+00  1.60000000E+01  1.00800000E+00  1.00800000E+00
  1.60000000E+01  1.00800000E+00  1.00800000E+00  1.60000000E+01  1.00800000E+00
  1.00800000E+00  1.60000000E+01  1.00800000E+00  1.00800000E+00  1.60000000E+01
  1.00800000E+00  1.00800000E+00  1.60000000E+01  1.00800000E+00  1.00800000E+00
  1.60000000E+01  1.00800000E+00  1.00800000E+00  1.60000000E+01  1.00800000E+00
  1.00800000E+00  1.60000000E+01  1.00800000E+00  1.00800000E+00  1.60000000E+01
  1.00800000E+00  1.00800000E+00  1.60000000E+01  1.00800000E+00  1.00800000E+00
  1.60000000E+01  1.00800000E+00  1.00800000E+00  1.60000000E+01  1.00800000E+00
  1.00800000E+00  1.60000000E+01  1.00800000E+00  1.00800000E+00  1.60000000E+01
  1.00800000E+00  1.00800000E+00  1.60000000E+01  1.00800000E+00  1.00800000E+00
  1.60000000E+01  1.00800000E+00  1.00800000E+00  1.60000000E+01  1.00800000E+00
  1.00800000E+00  1.60000000E+01  1.00800000E+00  1.00800000E+00  1.60000000E+01
  1.00800000E+00  1.00800000E+00  1.60000000E+01  1.00800000E+00  1.00800000E+00
  1.60000000E+01  1.00800000E+00  1.00800000E+00  1.60000000E+01  1.00800000E+00
  1.00800000E+00  1.60000000E+01  1.00800000E+00  1.00800000E+00  1.60000000E+01
  1.00800000E+00  1.00800000E+00  1.60000000E+01  1.00800000E+00  1.00800000E+00
  1.60000000E+01  1.00800000E+00  1.00800000E+00  1.60000000E+01  1.00800000E+00
  1.00800000E+00  1.60000000E+01  1.00800000E+00  1.00800000E+00  1.60000000E+01
  1.00800000E+00  1.00800000E+00  1.60000000E+01  1.00800000E+00  1.00800000E+00
  1.60000000E+01  1.00800000E+00  1.00800000E+00  1.60000000E+01  1.00800000E+00
  1.00800000E+00  1.60000000E+01  1.00800000E+00  1.00800000E+00  1.60000000E+01
  1.00800000E+00  1.00800000E+00  1.60000000E+01  1.00800000E+00  1.00800000E+00
  1.60000000E+01  1.00800000E+00  1.00800000E+00  1.60000000E+01  1.00800000E+00
  1.00800000E+00  1.60000000E+01  1.00800000E+00  1.00800000E+00  1.60000000E+01
  1.00800000E+00  1.00800000E+00  1.60000000E+01  1.00800000E+00  1.00800000E+00
  1.60000000E+01  1.00800000E+00  1.00800000E+00  1.60000000E+01  1.00800000E+00
  1.00800000E+00  1.60000000E+01  1.00800000E+00  1.00800000E+00  1.60000000E+01
  1.00800000E+00  1.00800000E+00  1.60000000E+01  1.00800000E+00  1.00800000E+00
  1.60000000E+01  1.00800000E+00  1.00800000E+00  1.60000000E+01  1.00800000E+00
  1.00800000E+00  1.60000000E+01  1.00800000E+00  1.00800000E+00  1.60000000E+01
  1.00800000E+00  1.00800000E+00  1.60000000E+01  1.00800000E+00  1.00800000E+00
  1.60000000E+01  1.00800000E+00  1.00800000E+00  1.60000000E+01  1.00800000E+00
  1.00800000E+00  1.60000000E+01  1.00800000E+00  1.00800000E+00  1.60000000E+01
  1.00800000E+00  1.00800000E+00  1.60000000E+01  1.00800000E+00  1.00800000E+00
  1.60000000E+01  1.00800000E+00  1.00800000E+00  1.60000000E+01  1.00800000E+00
  1.00800000E+00  1.60000000E+01  1.00800000E+00  1.00800000E+00  1.60000000E+01
  1.00800000E+00  1.00800000E+00  1.60000000E+01  1.00800000E+00  1.00800000E+00
  1.60000000E+01  1.00800000E+00  1.00800000E+00  1.60000000E+01  1.00800000E+00
  1.00800000E+00  1.60000000E+01  1.00800000E+00  1.00800000E+00  1.60000000E+01
  1.00800000E+00  1.00800000E+00  1.60000000E+01  1.00800000E+00  1.00800000E+00
  1.60000000E+01  1.00800000E+00  1.00800000E+00  1.60000000E+01  1.00800000E+00
  1.00800000E+00  1.60000000E+01  1.00800000E+00  1.00800000E+00  1.60000000E+01
  1.00800000E+00  1.00800000E+00  1.60000000E+01  1.00800000E+00  1.00800000E+00
  1.60000000E+01  1.00800000E+00  1.00800000E+00  1.60000000E+01  1.00800000E+00
  1.00800000E+00  1.60000000E+01  1.00800000E+00  1.00800000E+00  1.60000000E+01
  1.00800000E+00  1.00800000E+00  1.60000000E+01  1.00800000E+00  1.00800000E+00
  1.60000000E+01  1.00800000E+00  1.00800000E+00  1.60000000E+01  1.00800000E+00
  1.00800000E+00  1.60000000E+01  1.00800000E+00  1.00800000E+00  1.60000000E+01
  1.00800000E+00  1.00800000E+00  1.60000000E+01  1.00800000E+00  1.00800000E+00
  1.60000000E+01  1.00800000E+00  1.00800000E+00  1.60000000E+01  1.00800000E+00
  1.00800000E+00  1.60000000E+01  1.00800000E+00  1.00800000E+00  1.60000000E+01
  1.00800000E+00  1.00800000E+00  1.60000000E+01  1.00800000E+00  1.00800000E+00
  1.60000000E+01  1.00800000E+00  1.00800000E+00  1.60000000E+01  1.00800000E+00
  1.00800000E+00  1.60000000E+01  1.00800000E+00  1.00800000E+00  1.60000000E+01
  1.00800000E+00  1.00800000E+00  1.60000000E+01  1.00800000E+00  1.00800000E+00
  1.60000000E+01  1.00800000E+00  1.00800000E+00  1.60000000E+01  1.00800000E+00
  1.00800000E+00  1.60000000E+01  1.00800000E+00  1.00800000E+00  1.60000000E+01
  1.00800000E+00  1.00800000E+00  1.60000000E+01  1.00800000E+00  1.00800000E+00
  1.60000000E+01  1.00800000E+00  1.00800000E+00  1.60000000E+01  1.00800000E+00
  1.00800000E+00  1.60000000E+01  1.00800000E+00  1.00800000E+00  1.60000000E+01
  1.00800000E+00  1.00800000E+00  1.60000000E+01  1.00800000E+00  1.00800000E+00
  1.60000000E+01  1.00800000E+00  1.00800000E+00  1.60000000E+01  1.00800000E+00
  1.00800000E+00  1.60000000E+01  1.00800000E+00  1.00800000E+00  1.60000000E+01
  1.00800000E+00  1.00800000E+00  1.60000000E+01  1.00800000E+00  1.00800000E+00
  1.60000000E+01  1.00800000E+00  1.00800000E+00  1.60000000E+01  1.00800000E+00
  1.00800000E+00  1.60000000E+01  1.00800000E+00  1.00800000E+00  1.60000000E+01
  1.00800000E+00  1.00800000E+00  1.60000000E+01  1.00800000E+00  1.00800000E+00
  1.60000000E+01  1.00800000E+00  1.00800000E+00  1.60000000E+01  1.00800000E+00
  1.00800000E+00  1.60000000E+01  1.00800000E+00  1.00800000E+00  1.60000000E+01
  1.00800000E+00  1.00800000E+00  1.60000000E+01  1.00800000E+00  1.00800000E+00
  1.60000000E+01  1.00800000E+00  1.00800000E+00  1.60000000E+01  1.00800000E+00
  1.00800000E+00  1.60000000E+01  1.00800000E+00  1.00800000E+00  1.60000000E+01
  1.00800000E+00  1.00800000E+00  1.60000000E+01  1.00800000E+00  1.00800000E+00
  1.60000000E+01  1.00800000E+00  1.00800000E+00  1.60000000E+01  1.00800000E+00
  1.00800000E+00  1.60000000E+01  1.00800000E+00  1.00800000E+00  1.60000000E+01
  1.00800000E+00  1.00800000E+00  1.60000000E+01  1.00800000E+00  1.00800000E+00
  1.60000000E+01  1.00800000E+00  1.00800000E+00  1.60000000E+01  1.00800000E+00
  1.00800000E+00  1.60000000E+01  1.00800000E+00  1.00800000E+00  1.60000000E+01
  1.00800000E+00  1.00800000E+00  1.60000000E+01  1.00800000E+00  1.00800000E+00
  1.60000000E+01  1.00800000E+00  1.00800000E+00  1.60000000E+01  1.00800000E+00
  1.00800000E+00  1.60000000E+01  1.00800000E+00  1.00800000E+00  1.60000000E+01
  1.00800000E+00  1.00800000E+00  1.60000000E+01  1.00800000E+00  1.00800000E+00
  1.60000000E+01  1.00800000E+00  1.00800000E+00  1.60000000E+01  1.00800000E+00
  1.00800000E+00  1.60000000E+01  1.00800000E+00  1.00800000E+00  1.60000000E+01
  1.00800000E+00  1.00800000E+00  1.60000000E+01  1.00800000E+00  1.00800000E+00
  1.60000000E+01  1.00800000E+00  1.00800000E+00  1.60000000E+01  1.00800000E+00
  1.00800000E+00  1.60000000E+01  1.00800000E+00  1.00800000E+00  1.60000000E+01
  1.00800000E+00  1.00800000E+00  1.60000000E+01  1.00800000E+00  1.00800000E+00
  1.60000000E+01  1.00800000E+00  1.00800000E+00  1.60000000E+01  1.00800000E+00
  1.00800000E+00  1.60000000E+01  1.00800000E+00  1.00800000E+00  1.60000000E+01
  1.00800000E+00  1.00800000E+00  1.60000000E+01  1.00800000E+00  1.00800000E+00
  1.60000000E+01  1.00800000E+00  1.00800000E+00  1.60000000E+01  1.00800000E+00
  1.00800000E+00  1.60000000E+01  1.00800000E+00  1.00800000E+00  1.60000000E+01
  1.00800000E+00  1.00800000E+00  1.60000000E+01  1.00800000E+00  1.00800000E+00
  1.60000000E+01  1.00800000E+00  1.00800000E+00  1.60000000E+01  1.00800000E+00
  1.00800000E+00  1.60000000E+01  1.00800000E+00  1.00800000E+00  1.60000000E+01
  1.00800000E+00  1.00800000E+00  1.60000000E+01  1.00800000E+00  1.00800000E+00
  1.60000000E+01  1.00800000E+00  1.00800000E+00  1.60000000E+01  1.00800000E+00
  1.00800000E+00  1.60000000E+01  1.00800000E+00  1.00800000E+00  1.60000000E+01
  1.00800000E+00  1.00800000E+00  1.60000000E+01  1.00800000E+00  1.00800000E+00
  1.60000000E+01  1.00800000E+00  1.00800000E+00  1.60000000E+01  1.00800000E+00
  1.00800000E+00  1.60000000E+01  1.00800000E+00  1.00800000E+00  1.60000000E+01
  1.00800000E+00  1.00800000E+00  1.60000000E+01  1.00800000E+00  1.00800000E+00
  1.60000000E+01  1.00800000E+00  1.00800000E+00  1.60000000E+01  1.00800000E+00
  1.00800000E+00  1.60000000E+01  1.00800000E+00  1.00800000E+00  1.60000000E+01
  1.00800000E+00  1.00800000E+00  1.60000000E+01  1.00800000E+00  1.00800000E+00
  1.60000000E+01  1.00800000E+00  1.00800000E+00  1.60000000E+01  1.00800000E+00
  1.00800000E+00  1.60000000E+01  1.00800000E+00  1.00800000E+00  1.60000000E+01
  1.00800000E+00  1.00800000E+00  1.60000000E+01  1.00800000E+00  1.00800000E+00
  1.60000000E+01  1.00800000E+00  1.00800000E+00  1.60000000E+01  1.00800000E+00
  1.00800000E+00  1.60000000E+01  1.00800000E+00  1.00800000E+00  1.60000000E+01
  1.00800000E+00  1.00800000E+00  1.60000000E+01  1.00800000E+00  1.00800000E+00
  1.60000000E+01  1.00800000E+00  1.00800000E+00  1.60000000E+01  1.00800000E+00
  1.00800000E+00  1.60000000E+01  1.00800000E+00  1.00800000E+00  1.60000000E+01
  1.00800000E+00  1.00800000E+00  1.60000000E+01  1.00800000E+00  1.00800000E+00
  1.60000000E+01  1.00800000E+00  1.00800000E+00  1.60000000E+01  1.00800000E+00
  1.00800000E+00  1.60000000E+01  1.00800000E+00  1.00800000E+00  1.60000000E+01
  1.00800000E+00  1.00800000E+00  1.60000000E+01  1.00800000E+00  1.00800000E+00
  1.60000000E+01  1.00800000E+00  1.00800000E+00  1.60000000E+01  1.00800000E+00
  1.00800000E+00  1.60000000E+01  1.00800000E+00  1.00800000E+00  1.60000000E+01
  1.00800000E+00  1.00800000E+00  1.60000000E+01  1.00800000E+00  1.00800000E+00
  1.60000000E+01  1.00800000E+00  1.00800000E+00  1.60000000E+01  1.00800000E+00
  1.00800000E+00  1.60000000E+01  1.00800000E+00  1.00800000E+00  1.60000000E+01
  1.00800000E+00  1.00800000E+00  1.60000000E+01  1.00800000E+00  1.00800000E+00
  1.60000000E+01  1.00800000E+00  1.00800000E+00  1.60000000E+01  1.00800000E+00
  1.00800000E+00  1.60000000E+01  1.00800000E+00  1.00800000E+00  1.60000000E+01
  1.00800000E+00  1.00800000E+00  1.60000000E+01  1.00800000E+00  1.00800000E+00
  1.60000000E+01  1.00800000E+00  1.00800000E+00  1.60000000E+01  1.00800000E+00
  1.00800000E+00  1.60000000E+01  1.00800000E+00  1.00800000E+00  1.60000000E+01
  1.00800000E+00  1.00800000E+00  1.60000000E+01  1.00800000E+00  1.00800000E+00
  1.60000000E+01  1.00800000E+00  1.00800000E+00  1.60000000E+01  1.00800000E+00
  1.00800000E+00  1.60000000E+01  1.00800000E+00  1.00800000E+00  1.60000000E+01
  1.00800000E+00  1.00800000E+00  1.60000000E+01  1.00800000E+00  1.00800000E+00
  1.60000000E+01  1.00800000E+00  1.00800000E+00  1.60000000E+01  1.00800000E+00
  1.00800000E+00  1.60000000E+01  1.00800000E+00  1.00800000E+00  1.60000000E+01
  1.00800000E+00  1.00800000E+00  1.60000000E+01  1.00800000E+00  1.00800000E+00
  1.60000000E+01  1.00800000E+00  1.00800000E+00  1.60000000E+01  1.00800000E+00
  1.00800000E+00  1.60000000E+01  1.00800000E+00  1.00800000E+00  1.60000000E+01
  1.00800000E+00  1.00800000E+00  1.60000000E+01  1.00800000E+00  1.00800000E+00
  1.60000000E+01  1.00800000E+00  1.00800000E+00  1.60000000E+01  1.00800000E+00
  1.00800000E+00  1.60000000E+01  1.00800000E+00  1.00800000E+00  1.60000000E+01
  1.00800000E+00  1.00800000E+00  1.60000000E+01  1.00800000E+00  1.00800000E+00
  1.60000000E+01  1.00800000E+00  1.00800000E+00  1.60000000E+01  1.00800000E+00
  1.00800000E+00  1.60000000E+01  1.00800000E+00  1.00800000E+00  1.60000000E+01
  1.00800000E+00  1.00800000E+00  1.60000000E+01  1.00800000E+00  1.00800000E+00
  1.60000000E+01  1.00800000E+00  1.00800000E+00  1.60000000E+01  1.00800000E+00
  1.00800000E+00  1.60000000E+01  1.00800000E+00  1.00800000E+00  1.60000000E+01
  1.00800000E+00  1.00800000E+00  1.60000000E+01  1.00800000E+00  1.00800000E+00
  1.60000000E+01  1.00800000E+00  1.00800000E+00  1.60000000E+01  1.00800000E+00
  1.00800000E+00  1.60000000E+01  1.00800000E+00  1.00800000E+00  1.60000000E+01
  1.00800000E+00  1.00800000E+00  1.60000000E+01  1.00800000E+00  1.00800000E+00
  1.60000000E+01  1.00800000E+00  1.00800000E+00  1.60000000E+01  1.00800000E+00
  1.00800000E+00  1.60000000E+01  1.00800000E+00  1.00800000E+00  1.60000000E+01
  1.00800000E+00  1.00800000E+00  1.60000000E+01  1.00800000E+00  1.00800000E+00
  1.60000000E+01  1.00800000E+00  1.00800000E+00  1.60000000E+01  1.00800000E+00
  1.00800000E+00  1.60000000E+01  1.00800000E+00  1.00800000E+00  1.60000000E+01
  1.00800000E+00  1.00800000E+00  1.60000000E+01  1.00800000E+00  1.00800000E+00
  1.60000000E+01  1.00800000E+00  1.00800000E+00  1.60000000E+01  1.00800000E+00
  1.00800000E+00  1.60000000E+01  1.00800000E+00  1.00800000E+00  1.60000000E+01
  1.00800000E+00  1.00800000E+00  1.60000000E+01  1.00800000E+00  1.00800000E+00
  1.60000000E+01  1.00800000E+00  1.00800000E+00  1.60000000E+01  1.00800000E+00
  1.00800000E+00  1.60000000E+01  1.00800000E+00  1.00800000E+00  1.60000000E+01
  1.00800000E+00  1.00800000E+00  1.60000000E+01  1.00800000E+00  1.00800000E+00
  1.60000000E+01  1.00800000E+00  1.00800000E+00  1.60000000E+01  1.00800000E+00
  1.00800000E+00  1.60000000E+01  1.00800000E+00  1.00800000E+00  1.60000000E+01
  1.00800000E+00  1.00800000E+00  1.60000000E+01  1.00800000E+00  1.00800000E+00
  1.60000000E+01  1.00800000E+00  1.00800000E+00  1.60000000E+01  1.00800000E+00
  1.00800000E+00  1.60000000E+01  1.00800000E+00  1.00800000E+00  1.60000000E+01
  1.00800000E+00  1.00800000E+00  1.60000000E+01  1.00800000E+00  1.00800000E+00
  1.60000000E+01  1.00800000E+00  1.00800000E+00  1.60000000E+01  1.00800000E+00
  1.00800000E+00  1.60000000E+01  1.00800000E+00  1.00800000E+00  1.60000000E+01
  1.00800000E+00  1.00800000E+00  1.60000000E+01  1.00800000E+00  1.00800000E+00
  1.60000000E+01  1.00800000E+00  1.00800000E+00  1.60000000E+01  1.00800000E+00
  1.00800000E+00  1.60000000E+01  1.00800000E+00  1.00800000E+00  1.60000000E+01
  1.00800000E+00  1.00800000E+00  1.60000000E+01  1.00800000E+00  1.00800000E+00
  1.60000000E+01  1.00800000E+00  1.00800000E+00  1.60000000E+01  1.00800000E+00
  1.00800000E+00  1.60000000E+01  1.00800000E+00  1.00800000E+00  1.60000000E+01
  1.00800000E+00  1.00800000E+00  1.60000000E+01  1.00800000E+00  1.00800000E+00
  1.60000000E+01  1.00800000E+00  1.00800000E+00  1.60000000E+01  1.00800000E+00
  1.00800000E+00  1.60000000E+01  1.00800000E+00  1.00800000E+00  1.60000000E+01
  1.00800000E+00  1.00800000E+00  1.60000000E+01  1.00800000E+00  1.00800000E+00
  1.60000000E+01  1.00800000E+00  1.00800000E+00  1.60000000E+01  1.00800000E+00
  1.00800000E+00  1.60000000E+01  1.00800000E+00  1.00800000E+00  1.60000000E+01
  1.00800000E+00  1.00800000E+00  1.60000000E+01  1.00800000E+00  1.00800000E+00
  1.60000000E+01  1.00800000E+00  1.00800000E+00  1.60000000E+01  1.00800000E+00
  1.00800000E+00  1.60000000E+01  1.00800000E+00  1.00800000E+00  1.60000000E+01
  1.00800000E+00  1.00800000E+00  1.60000000E+01  1.00800000E+00  1.00800000E+00
  1.60000000E+01  1.00800000E+00  1.00800000E+00  1.60000000E+01  1.00800000E+00
  1.00800000E+00  1.60000000E+01  1.00800000E+00  1.00800000E+00  1.60000000E+01
  1.00800000E+00  1.00800000E+00  1.60000000E+01  1.00800000E+00  1.00800000E+00
  1.60000000E+01  1.00800000E+00  1.00800000E+00  1.60000000E+01  1.00800000E+00
  1.00800000E+00  1.60000000E+01  1.00800000E+00  1.00800000E+00  1.60000000E+01
  1.00800000E+00  1.00800000E+00  1.60000000E+01  1.00800000E+00  1.00800000E+00
  1.60000000E+01  1.00800000E+00  1.00800000E+00  1.60000000E+01  1.00800000E+00
  1.00800000E+00  1.60000000E+01  1.00800000E+00  1.00800000E+00  1.60000000E+01
  1.00800000E+00  1.00800000E+00  1.60000000E+01  1.00800000E+00  1.00800000E+00
  1.60000000E+01  1.00800000E+00  1.00800000E+00  1.60000000E+01  1.00800000E+00
  1.00800000E+00  1.60000000E+01  1.00800000E+00  1.00800000E+00  1.60000000E+01
  1.00800000E+00  1.00800000E+00  1.60000000E+01  1.00800000E+00  1.00800000E+00
  1.60000000E+01  1.00800000E+00  1.00800000E+00  1.60000000E+01  1.00800000E+00
  1.00800000E+00  1.60000000E+01  1.00800000E+00  1.00800000E+00  1.60000000E+01
  1.00800000E+00  1.00800000E+00  1.60000000E+01  1.00800000E+00  1.00800000E+00
  1.60000000E+01  1.00800000E+00  1.00800000E+00  1.60000000E+01  1.00800000E+00
  1.00800000E+00  1.60000000E+01  1.00800000E+00  1.00800000E+00  1.60000000E+01
  1.00800000E+00  1.00800000E+00  1.60000000E+01  1.00800000E+00  1.00800000E+00
  1.60000000E+01  1.00800000E+00  1.00800000E+00  1.60000000E+01  1.00800000E+00
  1.00800000E+00  1.60000000E+01  1.00800000E+00  1.00800000E+00  1.60000000E+01
  1.00800000E+00  1.00800000E+00  1.60000000E+01  1.00800000E+00  1.00800000E+00
  1.60000000E+01  1.00800000E+00  1.00800000E+00  1.60000000E+01  1.00800000E+00
  1.00800000E+00  1.60000000E+01  1.00800000E+00  1.00800000E+00  1.60000000E+01
  1.00800000E+00  1.00800000E+00  1.60000000E+01  1.00800000E+00  1.00800000E+00
  1.60000000E+01  1.00800000E+00  1.00800000E+00  1.60000000E+01  1.00800000E+00
  1.00800000E+00  1.60000000E+01  1.00800000E+00  1.00800000E+00  1.60000000E+01
  1.00800000E+00  1.00800000E+00  1.60000000E+01  1.00800000E+00  1.00800000E+00
  1.60000000E+01  1.00800000E+00  1.00800000E+00  1.60000000E+01  1.00800000E+00
  1.00800000E+00  1.60000000E+01  1.00800000E+00  1.00800000E+00  1.60000000E+01
  1.00800000E+00  1.00800000E+00  1.60000000E+01  1.00800000E+00  1.00800000E+00
  1.60000000E+01  1.00800000E+00  1.00800000E+00  1.60000000E+01  1.00800000E+00
  1.00800000E+00  1.60000000E+01  1.00800000E+00  1.00800000E+00  1.60000000E+01
  1.00800000E+00  1.00800000E+00  1.60000000E+01  1.00800000E+00  1.00800000E+00
  1.60000000E+01  1.00800000E+00  1.00800000E+00  1.60000000E+01  1.00800000E+00
  1.00800000E+00  1.60000000E+01  1.00800000E+00  1.00800000E+00  1.60000000E+01
  1.00800000E+00  1.00800000E+00  1.60000000E+01  1.00800000E+00  1.00800000E+00
  1.60000000E+01  1.00800000E+00  1.00800000E+00  1.60000000E+01  1.00800000E+00
  1.00800000E+00  1.60000000E+01  1.00800000E+00  1.00800000E+00  1.60000000E+01
  1.00800000E+00  1.00800000E+00  1.60000000E+01  1.00800000E+00  1.00800000E+00
  1.60000000E+01  1.00800000E+00  1.00800000E+00  1.60000000E+01  1.00800000E+00
  1.00800000E+00  1.60000000E+01  1.00800000E+00  1.00800000E+00  1.60000000E+01
  1.00800000E+00  1.00800000E+00  1.60000000E+01  1.00800000E+00  1.00800000E+00
  1.60000000E+01  1.00800000E+00  1.00800000E+00  1.60000000E+01  1.00800000E+00
  1.00800000E+00  1.60000000E+01  1.00800000E+00  1.00800000E+00  1.60000000E+01
  1.00800000E+00  1.00800000E+00  1.60000000E+01  1.00800000E+00  1.00800000E+00
  1.60000000E+01  1.00800000E+00  1.00800000E+00  1.60000000E+01  1.00800000E+00
  1.00800000E+00  1.60000000E+01  1.00800000E+00  1.00800000E+00  1.60000000E+01
  1.00800000E+00  1.00800000E+00  1.60000000E+01  1.00800000E+00  1.00800000E+00
  1.60000000E+01  1.00800000E+00  1.00800000E+00  1.60000000E+01  1.00800000E+00
  1.00800000E+00  1.60000000E+01  1.00800000E+00  1.00800000E+00  1.60000000E+01
  1.00800000E+00  1.00800000E+00  1.60000000E+01  1.00800000E+00  1.00800000E+00
  1.60000000E+01  1.00800000E+00  1.00800000E+00  1.60000000E+01  1.00800000E+00
  1.00800000E+00  1.60000000E+01  1.00800000E+00  1.00800000E+00  1.60000000E+01
  1.00800000E+00  1.00800000E+00  1.60000000E+01  1.00800000E+00  1.00800000E+00
  1.60000000E+01  1.00800000E+00  1.00800000E+00  1.60000000E+01  1.00800000E+00
  1.00800000E+00  1.60000000E+01  1.00800000E+00  1.00800000E+00  1.60000000E+01
  1.00800000E+00  1.00800000E+00  1.60000000E+01  1.00800000E+00  1.00800000E+00
  1.60000000E+01  1.00800000E+00  1.00800000E+00  1.60000000E+01  1.00800000E+00
  1.00800000E+00  1.60000000E+01  1.00800000E+00  1.00800000E+00  1.60000000E+01
  1.00800000E+00  1.00800000E+00  1.60000000E+01  1.00800000E+00  1.00800000E+00
  1.60000000E+01  1.00800000E+00  1.00800000E+00  1.60000000E+01  1.00800000E+00
  1.00800000E+00  1.60000000E+01  1.00800000E+00  1.00800000E+00  1.60000000E+01
  1.00800000E+00  1.00800000E+00  1.60000000E+01  1.00800000E+00  1.00800000E+00
  1.60000000E+01  1.00800000E+00  1.00800000E+00  1.60000000E+01  1.00800000E+00
  1.00800000E+00  1.60000000E+01  1.00800000E+00  1.00800000E+00  1.60000000E+01
  1.00800000E+00  1.00800000E+00  1.60000000E+01  1.00800000E+00  1.00800000E+00
  1.60000000E+01  1.00800000E+00  1.00800000E+00  1.60000000E+01  1.00800000E+00
  1.00800000E+00  1.60000000E+01  1.00800000E+00  1.00800000E+00  1.60000000E+01
  1.00800000E+00  1.00800000E+00  1.60000000E+01  1.00800000E+00  1.00800000E+00
  1.60000000E+01  1.00800000E+00  1.00800000E+00  1.60000000E+01  1.00800000E+00
  1.00800000E+00  1.60000000E+01  1.00800000E+00  1.00800000E+00  1.60000000E+01
  1.00800000E+00  1.00800000E+00  1.60000000E+01  1.00800000E+00  1.00800000E+00
  1.60000000E+01  1.00800000E+00  1.00800000E+00  1.60000000E+01  1.00800000E+00
  1.00800000E+00  1.60000000E+01  1.00800000E+00  1.00800000E+00  1.60000000E+01
  1.00800000E+00  1.00800000E+00  1.60000000E+01  1.00800000E+00  1.00800000E+00
  1.60000000E+01  1.00800000E+00  1.00800000E+00  1.60000000E+01  1.00800000E+00
  1.00800000E+00  1.60000000E+01  1.00800000E+00  1.00800000E+00  1.60000000E+01
  1.00800000E+00  1.00800000E+00  1.60000000E+01  1.00800000E+00  1.00800000E+00
  1.60000000E+01  1.00800000E+00  1.00800000E+00  1.60000000E+01  1.00800000E+00
  1.00800000E+00  1.60000000E+01  1.00800000E+00  1.00800000E+00  1.60000000E+01
  1.00800000E+00  1.00800000E+00  1.60000000E+01  1.00800000E+00  1.00800000E+00
  1.60000000E+01  1.00800000E+00  1.00800000E+00  1.60000000E+01  1.00800000E+00
  1.00800000E+00  1.60000000E+01  1.00800000E+00  1.00800000E+00  1.60000000E+01
  1.00800000E+00  1.00800000E+00  1.60000000E+01  1.00800000E+00  1.00800000E+00
  1.60000000E+01  1.00800000E+00  1.00800000E+00  1.60000000E+01  1.00800000E+00
  1.00800000E+00  1.60000000E+01  1.00800000E+00  1.00800000E+00  1.60000000E+01
  1.00800000E+00  1.00800000E+00  1.60000000E+01  1.00800000E+00  1.00800000E+00
  1.60000000E+01  1.00800000E+00  1.00800000E+00  1.60000000E+01  1.00800000E+00
  1.00800000E+00  1.60000000E+01  1.00800000E+00  1.00800000E+00  1.60000000E+01
  1.00800000E+00  1.00800000E+00  1.60000000E+01  1.00800000E+00  1.00800000E+00
  1.60000000E+01  1.00800000E+00  1.00800000E+00  1.60000000E+01  1.00800000E+00
  1.00800000E+00  1.60000000E+01  1.00800000E+00  1.00800000E+00  1.60000000E+01
  1.00800000E+00  1.00800000E+00  1.60000000E+01  1.00800000E+00  1.00800000E+00
  1.60000000E+01  1.00800000E+00  1.00800000E+00  1.60000000E+01  1.00800000E+00
  1.00800000E+00  1.60000000E+01  1.00800000E+00  1.00800000E+00  1.60000000E+01
  1.00800000E+00  1.00800000E+00  1.60000000E+01  1.00800000E+00  1.00800000E+00
  1.60000000E+01  1.00800000E+00  1.00800000E+00  1.60000000E+01  1.00800000E+00
  1.00800000E+00  1.60000000E+01  1.00800000E+00  1.00800000E+00  1.60000000E+01
  1.00800000E+00  1.00800000E+00  1.60000000E+01  1.00800000E+00  1.00800000E+00
  1.60000000E+01  1.00800000E+00  1.00800000E+00  1.60000000E+01  1.00800000E+00
  1.00800000E+00  1.60000000E+01  1.00800000E+00  1.00800000E+00  1.60000000E+01
  1.00800000E+00  1.00800000E+00  1.60000000E+01  1.00800000E+00  1.00800000E+00
  1.60000000E+01  1.00800000E+00  1.00800000E+00  1.60000000E+01  1.00800000E+00
  1.00800000E+00  1.60000000E+01  1.00800000E+00  1.00800000E+00  1.60000000E+01
  1.00800000E+00  1.00800000E+00  1.60000000E+01  1.00800000E+00  1.00800000E+00
  1.60000000E+01  1.00800000E+00  1.00800000E+00  1.60000000E+01  1.00800000E+00
  1.00800000E+00  1.60000000E+01  1.00800000E+00  1.00800000E+00  1.60000000E+01
  1.00800000E+00  1.00800000E+00  1.60000000E+01  1.00800000E+00  1.00800000E+00
  1.60000000E+01  1.00800000E+00  1.00800000E+00  1.60000000E+01  1.00800000E+00
  1.00800000E+00  1.60000000E+01  1.00800000E+00  1.00800000E+00  1.60000000E+01
  1.00800000E+00  1.00800000E+00  1.60000000E+01  1.00800000E+00  1.00800000E+00
  1.60000000E+01  1.00800000E+00  1.00800000E+00  1.60000000E+01  1.00800000E+00
  1.00800000E+00  1.60000000E+01  1.00800000E+00  1.00800000E+00  1.60000000E+01
  1.00800000E+00  1.00800000E+00  1.60000000E+01  1.00800000E+00  1.00800000E+00
  1.60000000E+01  1.00800000E+00  1.00800000E+00  1.60000000E+01  1.00800000E+00
  1.00800000E+00  1.60000000E+01  1.00800000E+00  1.00800000E+00  1.60000000E+01
  1.00800000E+00  1.00800000E+00  1.60000000E+01  1.00800000E+00  1.00800000E+00
  1.60000000E+01  1.00800000E+00  1.00800000E+00  1.60000000E+01  1.00800000E+00
  1.00800000E+00  1.60000000E+01  1.00800000E+00  1.00800000E+00  1.60000000E+01
  1.00800000E+00  1.00800000E+00  1.60000000E+01  1.00800000E+00  1.00800000E+00
  1.60000000E+01  1.00800000E+00  1.00800000E+00  1.60000000E+01  1.00800000E+00
  1.00800000E+00  1.60000000E+01  1.00800000E+00  1.00800000E+00  1.60000000E+01
  1.00800000E+00  1.00800000E+00  1.60000000E+01  1.00800000E+00  1.00800000E+00
  1.60000000E+01  1.00800000E+00  1.00800000E+00  1.60000000E+01  1.00800000E+00
  1.00800000E+00  1.60000000E+01  1.00800000E+00  1.00800000E+00  1.60000000E+01
  1.00800000E+00  1.00800000E+00  1.60000000E+01  1.00800000E+00  1.00800000E+00
  1.60000000E+01  1.00800000E+00  1.00800000E+00  1.60000000E+01  1.00800000E+00
  1.00800000E+00  1.60000000E+01  1.00800000E+00  1.00800000E+00  1.60000000E+01
  1.00800000E+00  1.00800000E+00  1.60000000E+01  1.00800000E+00  1.00800000E+00
  1.60000000E+01  1.00800000E+00  1.00800000E+00  1.60000000E+01  1.00800000E+00
  1.00800000E+00  1.60000000E+01  1.00800000E+00  1.00800000E+00  1.60000000E+01
  1.00800000E+00  1.00800000E+00  1.60000000E+01  1.00800000E+00  1.00800000E+00
  1.60000000E+01  1.00800000E+00  1.00800000E+00  1.60000000E+01  1.00800000E+00
  1.00800000E+00  1.60000000E+01  1.00800000E+00  1.00800000E+00  1.60000000E+01
  1.00800000E+00  1.00800000E+00  1.60000000E+01  1.00800000E+00  1.00800000E+00
  1.60000000E+01  1.00800000E+00  1.00800000E+00  1.60000000E+01  1.00800000E+00
  1.00800000E+00  1.60000000E+01  1.00800000E+00  1.00800000E+00  1.60000000E+01
  1.00800000E+00  1.00800000E+00  1.60000000E+01  1.00800000E+00  1.00800000E+00
  1.60000000E+01  1.00800000E+00  1.00800000E+00  1.60000000E+01  1.00800000E+00
  1.00800000E+00  1.60000000E+01  1.00800000E+00  1.00800000E+00  1.60000000E+01
  1.00800000E+00  1.00800000E+00  1.60000000E+01  1.00800000E+00  1.00800000E+00
  1.60000000E+01  1.00800000E+00  1.00800000E+00  1.60000000E+01  1.00800000E+00
  1.00800000E+00  1.60000000E+01  1.00800000E+00  1.00800000E+00  1.60000000E+01
  1.00800000E+00  1.00800000E+00  1.60000000E+01  1.00800000E+00  1.00800000E+00
  1.60000000E+01  1.00800000E+00  1.00800000E+00  1.60000000E+01  1.00800000E+00
  1.00800000E+00  1.60000000E+01  1.00800000E+00  1.00800000E+00  1.60000000E+01
  1.00800000E+00  1.00800000E+00  1.60000000E+01  1.00800000E+00  1.00800000E+00
  1.60000000E+01  1.00800000E+00  1.00800000E+00  1.60000000E+01  1.00800000E+00
  1.00800000E+00  1.60000000E+01  1.00800000E+00  1.00800000E+00  1.60000000E+01
  1.00800000E+00  1.00800000E+00  1.60000000E+01  1.00800000E+00  1.00800000E+00
  1.60000000E+01  1.00800000E+00  1.00800000E+00  1.60000000E+01  1.00800000E+00
  1.00800000E+00  1.60000000E+01  1.00800000E+00  1.00800000E+00  1.60000000E+01
  1.00800000E+00  1.00800000E+00  1.60000000E+01  1.00800000E+00  1.00800000E+00
  1.60000000E+01  1.00800000E+00  1.00800000E+00  1.60000000E+01  1.00800000E+00
  1.00800000E+00  1.60000000E+01  1.00800000E+00  1.00800000E+00  1.60000000E+01
  1.00800000E+00  1.00800000E+00  1.60000000E+01  1.00800000E+00  1.00800000E+00
  1.60000000E+01  1.00800000E+00  1.00800000E+00  1.60000000E+01  1.00800000E+00
  1.00800000E+00  1.60000000E+01  1.00800000E+00  1.00800000E+00  1.60000000E+01
  1.00800000E+00  1.00800000E+00  1.60000000E+01  1.00800000E+00  1.00800000E+00
  1.60000000E+01  1.00800000E+00  1.00800000E+00  1.60000000E+01  1.00800000E+00
  1.00800000E+00  1.60000000E+01  1.00800000E+00  1.00800000E+00  1.60000000E+01
  1.00800000E+00  1.00800000E+00  1.60000000E+01  1.00800000E+00  1.00800000E+00
  1.60000000E+01  1.00800000E+00  1.00800000E+00  1.60000000E+01  1.00800000E+00
  1.00800000E+00  1.60000000E+01  1.00800000E+00  1.00800000E+00  1.60000000E+01
  1.00800000E+00  1.00800000E+00  1.60000000E+01  1.00800000E+00  1.00800000E+00
  1.60000000E+01  1.00800000E+00  1.00800000E+00  1.60000000E+01  1.00800000E+00
  1.00800000E+00  1.60000000E+01  1.00800000E+00  1.00800000E+00  1.60000000E+01
  1.00800000E+00  1.00800000E+00  1.60000000E+01  1.00800000E+00  1.00800000E+00
  1.60000000E+01  1.00800000E+00  1.00800000E+00  1.60000000E+01  1.00800000E+00
  1.00800000E+00  1.60000000E+01  1.00800000E+00  1.00800000E+00  1.60000000E+01
  1.00800000E+00  1.00800000E+00  1.60000000E+01  1.00800000E+00  1.00800000E+00
  1.60000000E+01  1.00800000E+00  1.00800000E+00  1.60000000E+01  1.00800000E+00
  1.00800000E+00  1.60000000E+01  1.00800000E+00  1.00800000E+00  1.60000000E+01
  1.00800000E+00  1.00800000E+00  1.60000000E+01  1.00800000E+00  1.00800000E+00
  1.60000000E+01  1.00800000E+00  1.00800000E+00  1.60000000E+01  1.00800000E+00
  1.00800000E+00  1.60000000E+01  1.00800000E+00  1.00800000E+00  1.60000000E+01
  1.00800000E+00  1.00800000E+00  1.60000000E+01  1.00800000E+00  1.00800000E+00
  1.60000000E+01  1.00800000E+00  1.00800000E+00  1.60000000E+01  1.00800000E+00
  1.00800000E+00  1.60000000E+01  1.00800000E+00  1.00800000E+00  1.60000000E+01
  1.00800000E+00  1.00800000E+00  1.60000000E+01  1.00800000E+00  1.00800000E+00
  1.60000000E+01  1.00800000E+00  1.00800000E+00  1.60000000E+01  1.00800000E+00
  1.00800000E+00  1.60000000E+01  1.00800000E+00  1.00800000E+00  1.60000000E+01
  1.00800000E+00  1.00800000E+00  1.60000000E+01  1.00800000E+00  1.00800000E+00
  1.60000000E+01  1.00800000E+00  1.00800000E+00  1.60000000E+01  1.00800000E+00
  1.00800000E+00  1.60000000E+01  1.00800000E+00  1.00800000E+00  1.60000000E+01
  1.00800000E+00  1.00800000E+00  1.60000000E+01  1.00800000E+00  1.00800000E+00
  1.60000000E+01  1.00800000E+00  1.00800000E+00  1.60000000E+01  1.00800000E+00
  1.00800000E+00  1.60000000E+01  1.00800000E+00  1.00800000E+00  1.60000000E+01
  1.00800000E+00  1.00800000E+00  1.60000000E+01  1.00800000E+00  1.00800000E+00
  1.60000000E+01  1.00800000E+00  1.00800000E+00  1.60000000E+01  1.00800000E+00
  1.00800000E+00  1.60000000E+01  1.00800000E+00  1.00800000E+00  1.60000000E+01
  1.00800000E+00  1.00800000E+00  1.60000000E+01  1.00800000E+00  1.00800000E+00
  1.60000000E+01  1.00800000E+00  1.00800000E+00  1.60000000E+01  1.00800000E+00
  1.00800000E+00  1.60000000E+01  1.00800000E+00  1.00800000E+00  1.60000000E+01
  1.00800000E+00  1.00800000E+00  1.60000000E+01  1.00800000E+00  1.00800000E+00
  1.60000000E+01  1.00800000E+00  1.00800000E+00  1.60000000E+01  1.00800000E+00
  1.00800000E+00  1.60000000E+01  1.00800000E+00  1.00800000E+00  1.60000000E+01
  1.00800000E+00  1.00800000E+00  1.60000000E+01  1.00800000E+00  1.00800000E+00
  1.60000000E+01  1.00800000E+00  1.00800000E+00  1.60000000E+01  1.00800000E+00
  1.00800000E+00  1.60000000E+01  1.00800000E+00  1.00800000E+00  1.60000000E+01
  1.00800000E+00  1.00800000E+00  1.60000000E+01  1.00800000E+00  1.00800000E+00
  1.60000000E+01  1.00800000E+00  1.00800000E+00  1.60000000E+01  1.00800000E+00
  1.00800000E+00  1.60000000E+01  1.00800000E+00  1.00800000E+00  1.60000000E+01
  1.00800000E+00  1.00800000E+00  1.60000000E+01  1.00800000E+00  1.00800000E+00
  1.60000000E+01  1.00800000E+00  1.00800000E+00  1.60000000E+01  1.00800000E+00
  1.00800000E+00  1.60000000E+01  1.00800000E+00  1.00800000E+00  1.60000000E+01
  1.00800000E+00  1.00800000E+00  1.60000000E+01  1.00800000E+00  1.00800000E+00
  1.60000000E+01  1.00800000E+00  1.00800000E+00  1.60000000E+01  1.00800000E+00
  1.00800000E+00  1.60000000E+01  1.00800000E+00  1.00800000E+00  1.60000000E+01
  1.00800000E+00  1.00800000E+00  1.60000000E+01  1.00800000E+00  1.00800000E+00
  1.60000000E+01  1.00800000E+00  1.00800000E+00  1.60000000E+01  1.00800000E+00
  1.00800000E+00  1.60000000E+01  1.00800000E+00  1.00800000E+00  1.60000000E+01
  1.00800000E+00  1.00800000E+00  1.60000000E+01  1.00800000E+00  1.00800000E+00
  1.60000000E+01  1.00800000E+00  1.00800000E+00  1.60000000E+01  1.00800000E+00
  1.00800000E+00  1.60000000E+01  1.00800000E+00  1.00800000E+00  1.60000000E+01
  1.00800000E+00  1.00800000E+00  1.60000000E+01  1.00800000E+00  1.00800000E+00
  1.60000000E+01  1.00800000E+00  1.00800000E+00  1.60000000E+01  1.00800000E+00
  1.00800000E+00  1.60000000E+01  1.00800000E+00  1.00800000E+00  1.60000000E+01
  1.00800000E+00  1.00800000E+00  1.60000000E+01  1.00800000E+00  1.00800000E+00
  1.60000000E+01  1.00800000E+00  1.00800000E+00  1.60000000E+01  1.00800000E+00
  1.00800000E+00  1.60000000E+01  1.00800000E+00  1.00800000E+00  1.60000000E+01
  1.00800000E+00  1.00800000E+00  1.60000000E+01  1.00800000E+00  1.00800000E+00
  1.60000000E+01  1.00800000E+00  1.00800000E+00  1.60000000E+01  1.00800000E+00
  1.00800000E+00  1.60000000E+01  1.00800000E+00  1.00800000E+00  1.60000000E+01
  1.00800000E+00  1.00800000E+00  1.60000000E+01  1.00800000E+00  1.00800000E+00
  1.60000000E+01  1.00800000E+00  1.00800000E+00  1.60000000E+01  1.00800000E+00
  1.00800000E+00  1.60000000E+01  1.00800000E+00  1.00800000E+00  1.60000000E+01
  1.00800000E+00  1.00800000E+00  1.60000000E+01  1.00800000E+00  1.00800000E+00
  1.60000000E+01  1.00800000E+00  1.00800000E+00  1.60000000E+01  1.00800000E+00
  1.00800000E+00  1.60000000E+01  1.00800000E+00  1.00800000E+00  1.60000000E+01
  1.00800000E+00  1.00800000E+00  1.60000000E+01  1.00800000E+00  1.00800000E+00
  1.60000000E+01  1.00800000E+00  1.00800000E+00  1.60000000E+01  1.00800000E+00
  1.00800000E+00  1.60000000E+01  1.00800000E+00  1.00800000E+00  1.60000000E+01
  1.00800000E+00  1.00800000E+00  1.60000000E+01  1.00800000E+00  1.00800000E+00
  1.60000000E+01  1.00800000E+00  1.00800000E+00  1.60000000E+01  1.00800000E+00
  1.00800000E+00  1.60000000E+01  1.00800000E+00  1.00800000E+00  1.60000000E+01
  1.00800000E+00  1.00800000E+00  1.60000000E+01  1.00800000E+00  1.00800000E+00
  1.60000000E+01  1.00800000E+00  1.00800000E+00  1.60000000E+01  1.00800000E+00
  1.00800000E+00  1.60000000E+01  1.00800000E+00  1.00800000E+00  1.60000000E+01
  1.00800000E+00  1.00800000E+00  1.60000000E+01  1.00800000E+00  1.00800000E+00
  1.60000000E+01  1.00800000E+00  1.00800000E+00  1.60000000E+01  1.00800000E+00
  1.00800000E+00  1.60000000E+01  1.00800000E+00  1.00800000E+00  1.60000000E+01
  1.00800000E+00  1.00800000E+00  1.60000000E+01  1.00800000E+00  1.00800000E+00
  1.60000000E+01  1.00800000E+00  1.00800000E+00  1.60000000E+01  1.00800000E+00
  1.00800000E+00  1.60000000E+01  1.00800000E+00  1.00800000E+00  1.60000000E+01
  1.00800000E+00  1.00800000E+00  1.60000000E+01  1.00800000E+00  1.00800000E+00
  1.60000000E+01  1.00800000E+00  1.00800000E+00  1.60000000E+01  1.00800000E+00
  1.00800000E+00  1.60000000E+01  1.00800000E+00  1.00800000E+00  1.60000000E+01
  1.00800000E+00  1.00800000E+00  1.60000000E+01  1.00800000E+00  1.00800000E+00
  1.60000000E+01  1.00800000E+00  1.00800000E+00  1.60000000E+01  1.00800000E+00
  1.00800000E+00  1.60000000E+01  1.00800000E+00  1.00800000E+00  1.60000000E+01
  1.00800000E+00  1.00800000E+00  1.60000000E+01  1.00800000E+00  1.00800000E+00
  1.60000000E+01  1.00800000E+00  1.00800000E+00  1.60000000E+01  1.00800000E+00
  1.00800000E+00  1.60000000E+01  1.00800000E+00  1.00800000E+00  1.60000000E+01
  1.00800000E+00  1.00800000E+00  1.60000000E+01  1.00800000E+00  1.00800000E+00
  1.60000000E+01  1.00800000E+00  1.00800000E+00  1.60000000E+01  1.00800000E+00
  1.00800000E+00  1.60000000E+01  1.00800000E+00  1.00800000E+00  1.60000000E+01
  1.00800000E+00  1.00800000E+00  1.60000000E+01  1.00800000E+00  1.00800000E+00
  1.60000000E+01  1.00800000E+00  1.00800000E+00  1.60000000E+01  1.00800000E+00
  1.00800000E+00  1.60000000E+01  1.00800000E+00  1.00800000E+00  1.60000000E+01
  1.00800000E+00  1.00800000E+00  1.60000000E+01  1.00800000E+00  1.00800000E+00
  1.60000000E+01  1.00800000E+00  1.00800000E+00  1.60000000E+01  1.00800000E+00
  1.00800000E+00  1.60000000E+01  1.00800000E+00  1.00800000E+00  1.60000000E+01
  1.00800000E+00  1.00800000E+00  1.60000000E+01  1.00800000E+00  1.00800000E+00
  1.60000000E+01  1.00800000E+00  1.00800000E+00  1.60000000E+01  1.00800000E+00
  1.00800000E+00  1.60000000E+01  1.00800000E+00  1.00800000E+00  1.60000000E+01
  1.00800000E+00  1.00800000E+00  1.60000000E+01  1.00800000E+00  1.00800000E+00
  1.60000000E+01  1.00800000E+00  1.00800000E+00  1.60000000E+01  1.00800000E+00
  1.00800000E+00  1.60000000E+01  1.00800000E+00  1.00800000E+00  1.60000000E+01
  1.00800000E+00  1.00800000E+00  1.60000000E+01  1.00800000E+00  1.00800000E+00
  1.60000000E+01  1.00800000E+00  1.00800000E+00  1.60000000E+01  1.00800000E+00
  1.00800000E+00  1.60000000E+01  1.00800000E+00  1.00800000E+00  1.60000000E+01
  1.00800000E+00  1.00800000E+00  1.60000000E+01  1.00800000E+00  1.00800000E+00
  1.60000000E+01  1.00800000E+00  1.00800000E+00  1.60000000E+01  1.00800000E+00
  1.00800000E+00  1.60000000E+01  1.00800000E+00  1.00800000E+00  1.60000000E+01
  1.00800000E+00  1.00800000E+00  1.60000000E+01  1.00800000E+00  1.00800000E+00
  1.60000000E+01  1.00800000E+00  1.00800000E+00  1.60000000E+01  1.00800000E+00
  1.00800000E+00  1.60000000E+01  1.00800000E+00  1.00800000E+00  1.60000000E+01
  1.00800000E+00  1.00800000E+00  1.60000000E+01  1.00800000E+00  1.00800000E+00
  1.60000000E+01  1.00800000E+00  1.00800000E+00  1.60000000E+01  1.00800000E+00
  1.00800000E+00  1.60000000E+01  1.00800000E+00  1.00800000E+00  1.60000000E+01
  1.00800000E+00  1.00800000E+00  1.60000000E+01  1.00800000E+00  1.00800000E+00
  1.60000000E+01  1.00800000E+00  1.00800000E+00  1.60000000E+01  1.00800000E+00
  1.00800000E+00  1.60000000E+01  1.00800000E+00  1.00800000E+00  1.60000000E+01
  1.00800000E+00  1.00800000E+00  1.60000000E+01  1.00800000E+00  1.00800000E+00
  1.60000000E+01  1.00800000E+00  1.00800000E+00  1.60000000E+01  1.00800000E+00
  1.00800000E+00  1.60000000E+01  1.00800000E+00  1.00800000E+00  1.60000000E+01
  1.00800000E+00  1.00800000E+00  1.60000000E+01  1.00800000E+00  1.00800000E+00
  1.60000000E+01  1.00800000E+00  1.00800000E+00  1.60000000E+01  1.00800000E+00
  1.00800000E+00  1.60000000E+01  1.00800000E+00  1.00800000E+00  1.60000000E+01
  1.00800000E+00  1.00800000E+00  1.60000000E+01  1.00800000E+00  1.00800000E+00
  1.60000000E+01  1.00800000E+00  1.00800000E+00  1.60000000E+01  1.00800000E+00
  1.00800000E+00  1.60000000E+01  1.00800000E+00  1.00800000E+00  1.60000000E+01
  1.00800000E+00  1.00800000E+00  1.60000000E+01  1.00800000E+00  1.00800000E+00
  1.60000000E+01  1.00800000E+00  1.00800000E+00  1.60000000E+01  1.00800000E+00
  1.00800000E+00  1.60000000E+01  1.00800000E+00  1.00800000E+00  1.60000000E+01
  1.00800000E+00  1.00800000E+00  1.60000000E+01  1.00800000E+00  1.00800000E+00
  1.60000000E+01  1.00800000E+00  1.00800000E+00  1.60000000E+01  1.00800000E+00
  1.00800000E+00  1.60000000E+01  1.00800000E+00  1.00800000E+00  1.60000000E+01
  1.00800000E+00  1.00800000E+00  1.60000000E+01  1.00800000E+00  1.00800000E+00
  1.60000000E+01  1.00800000E+00  1.00800000E+00  1.60000000E+01  1.00800000E+00
  1.00800000E+00  1.60000000E+01  1.00800000E+00  1.00800000E+00  1.60000000E+01
  1.00800000E+00  1.00800000E+00  1.60000000E+01  1.00800000E+00  1.00800000E+00
  1.60000000E+01  1.00800000E+00  1.00800000E+00  1.60000000E+01  1.00800000E+00
  1.00800000E+00  1.60000000E+01  1.00800000E+00  1.00800000E+00  1.60000000E+01
  1.00800000E+00  1.00800000E+00  1.60000000E+01  1.00800000E+00  1.00800000E+00
  1.60000000E+01  1.00800000E+00  1.00800000E+00  1.60000000E+01  1.00800000E+00
  1.00800000E+00  1.60000000E+01  1.00800000E+00  1.00800000E+00  1.60000000E+01
  1.00800000E+00  1.00800000E+00  1.60000000E+01  1.00800000E+00  1.00800000E+00
  1.60000000E+01  1.00800000E+00  1.00800000E+00  1.60000000E+01  1.00800000E+00
  1.00800000E+00  1.60000000E+01  1.00800000E+00  1.00800000E+00  1.60000000E+01
  1.00800000E+00  1.00800000E+00  1.60000000E+01  1.00800000E+00  1.00800000E+00
  1.60000000E+01  1.00800000E+00  1.00800000E+00  1.60000000E+01  1.00800000E+00
  1.00800000E+00  1.60000000E+01  1.00800000E+00  1.00800000E+00  1.60000000E+01
  1.00800000E+00  1.00800000E+00  1.60000000E+01  1.00800000E+00  1.00800000E+00
  1.60000000E+01  1.00800000E+00  1.00800000E+00  1.60000000E+01  1.00800000E+00
  1.00800000E+00  1.60000000E+01  1.00800000E+00  1.00800000E+00  1.60000000E+01
  1.00800000E+00  1.00800000E+00  1.60000000E+01  1.00800000E+00  1.00800000E+00
  1.60000000E+01  1.00800000E+00  1.00800000E+00  1.60000000E+01  1.00800000E+00
  1.00800000E+00  1.60000000E+01  1.00800000E+00  1.00800000E+00  1.60000000E+01
  1.00800000E+00  1.00800000E+00  1.60000000E+01  1.00800000E+00  1.00800000E+00
  1.60000000E+01  1.00800000E+00  1.00800000E+00  1.60000000E+01  1.00800000E+00
  1.00800000E+00  1.60000000E+01  1.00800000E+00  1.00800000E+00  1.60000000E+01
  1.00800000E+00  1.00800000E+00  1.60000000E+01  1.00800000E+00  1.00800000E+00
  1.60000000E+01  1.00800000E+00  1.00800000E+00  1.60000000E+01  1.00800000E+00
  1.00800000E+00  1.60000000E+01  1.00800000E+00  1.00800000E+00  1.60000000E+01
  1.00800000E+00  1.00800000E+00  1.60000000E+01  1.00800000E+00  1.00800000E+00
  1.60000000E+01  1.00800000E+00  1.00800000E+00  1.60000000E+01  1.00800000E+00
  1.00800000E+00  1.60000000E+01  1.00800000E+00  1.00800000E+00  1.60000000E+01
  1.00800000E+00  1.00800000E+00  1.60000000E+01  1.00800000E+00  1.00800000E+00
  1.60000000E+01  1.00800000E+00  1.00800000E+00  1.60000000E+01  1.00800000E+00
  1.00800000E+00  1.60000000E+01  1.00800000E+00  1.00800000E+00  1.60000000E+01
  1.00800000E+00  1.00800000E+00  1.60000000E+01  1.00800000E+00  1.00800000E+00
  1.60000000E+01  1.00800000E+00  1.00800000E+00  1.60000000E+01  1.00800000E+00
  1.00800000E+00  1.60000000E+01  1.00800000E+00  1.00800000E+00  1.60000000E+01
  1.00800000E+00  1.00800000E+00  1.60000000E+01  1.00800000E+00  1.00800000E+00
  1.60000000E+01  1.00800000E+00  1.00800000E+00  1.60000000E+01  1.00800000E+00
  1.00800000E+00  1.60000000E+01  1.00800000E+00  1.00800000E+00  1.60000000E+01
  1.00800000E+00  1.00800000E+00  1.60000000E+01  1.00800000E+00  1.00800000E+00
  1.60000000E+01  1.00800000E+00  1.00800000E+00  1.60000000E+01  1.00800000E+00
  1.00800000E+00  1.60000000E+01  1.00800000E+00  1.00800000E+00  1.60000000E+01
  1.00800000E+00  1.00800000E+00  1.60000000E+01  1.00800000E+00  1.00800000E+00
  1.60000000E+01  1.00800000E+00  1.00800000E+00  1.60000000E+01  1.00800000E+00
  1.00800000E+00  1.60000000E+01  1.00800000E+00  1.00800000E+00  1.60000000E+01
  1.00800000E+00  1.00800000E+00  1.60000000E+01  1.00800000E+00  1.00800000E+00
  1.60000000E+01  1.00800000E+00  1.00800000E+00  1.60000000E+01  1.00800000E+00
  1.00800000E+00  1.60000000E+01  1.00800000E+00  1.00800000E+00  1.60000000E+01
  1.00800000E+00  1.00800000E+00  1.60000000E+01  1.00800000E+00  1.00800000E+00
  1.60000000E+01  1.00800000E+00  1.00800000E+00  1.60000000E+01  1.00800000E+00
  1.00800000E+00  1.60000000E+01  1.00800000E+00  1.00800000E+00  1.60000000E+01
  1.00800000E+00  1.00800000E+00  1.60000000E+01  1.00800000E+00  1.00800000E+00
  1.60000000E+01  1.00800000E+00  1.00800000E+00  1.60000000E+01  1.00800000E+00
  1.00800000E+00  1.60000000E+01  1.00800000E+00  1.00800000E+00  1.60000000E+01
  1.00800000E+00  1.00800000E+00  1.60000000E+01  1.00800000E+00  1.00800000E+00
  1.60000000E+01  1.00800000E+00  1.00800000E+00  1.60000000E+01  1.00800000E+00
  1.00800000E+00  1.60000000E+01  1.00800000E+00  1.00800000E+00  1.60000000E+01
  1.00800000E+00  1.00800000E+00  1.60000000E+01  1.00800000E+00  1.00800000E+00
  1.60000000E+01  1.00800000E+00  1.00800000E+00  1.60000000E+01  1.00800000E+00
  1.00800000E+00  1.60000000E+01  1.00800000E+00  1.00800000E+00  1.60000000E+01
  1.00800000E+00  1.00800000E+00  1.60000000E+01  1.00800000E+00  1.00800000E+00
  1.60000000E+01  1.00800000E+00  1.00800000E+00  1.60000000E+01  1.00800000E+00
  1.00800000E+00  1.60000000E+01  1.00800000E+00  1.00800000E+00  1.60000000E+01
  1.00800000E+00  1.00800000E+00  1.60000000E+01  1.00800000E+00  1.00800000E+00
  1.60000000E+01  1.00800000E+00  1.00800000E+00  1.60000000E+01  1.00800000E+00
  1.00800000E+00  1.60000000E+01  1.00800000E+00  1.00800000E+00  1.60000000E+01
  1.00800000E+00  1.00800000E+00  1.60000000E+01  1.00800000E+00  1.00800000E+00
  1.60000000E+01  1.00800000E+00  1.00800000E+00  1.60000000E+01  1.00800000E+00
  1.00800000E+00  1.60000000E+01  1.00800000E+00  1.00800000E+00  1.60000000E+01
  1.00800000E+00  1.00800000E+00  1.60000000E+01  1.00800000E+00  1.00800000E+00
  1.60000000E+01  1.00800000E+00  1.00800000E+00  1.60000000E+01  1.00800000E+00
  1.00800000E+00  1.60000000E+01  1.00800000E+00  1.00800000E+00  1.60000000E+01
  1.00800000E+00  1.00800000E+00  1.60000000E+01  1.00800000E+00  1.00800000E+00
  1.60000000E+01  1.00800000E+00  1.00800000E+00  1.60000000E+01  1.00800000E+00
  1.00800000E+00  1.60000000E+01  1.00800000E+00  1.00800000E+00  1.60000000E+01
  1.00800000E+00  1.00800000E+00  1.60000000E+01  1.00800000E+00  1.00800000E+00
  1.60000000E+01  1.00800000E+00  1.00800000E+00  1.60000000E+01  1.00800000E+00
  1.00800000E+00  1.60000000E+01  1.00800000E+00  1.00800000E+00  1.60000000E+01
  1.00800000E+00  1.00800000E+00  1.60000000E+01  1.00800000E+00  1.00800000E+00
  1.60000000E+01  1.00800000E+00  1.00800000E+00  1.60000000E+01  1.00800000E+00
  1.00800000E+00  1.60000000E+01  1.00800000E+00  1.00800000E+00  1.60000000E+01
  1.00800000E+00  1.00800000E+00  1.60000000E+01  1.00800000E+00  1.00800000E+00
  1.60000000E+01  1.00800000E+00  1.00800000E+00  1.60000000E+01  1.00800000E+00
  1.00800000E+00  1.60000000E+01  1.00800000E+00  1.00800000E+00  1.60000000E+01
  1.00800000E+00  1.00800000E+00  1.60000000E+01  1.00800000E+00  1.00800000E+00
  1.60000000E+01  1.00800000E+00  1.00800000E+00  1.60000000E+01  1.00800000E+00
  1.00800000E+00  1.60000000E+01  1.00800000E+00  1.00800000E+00  1.60000000E+01
  1.00800000E+00  1.00800000E+00  1.60000000E+01  1.00800000E+00  1.00800000E+00
  1.60000000E+01  1.00800000E+00  1.00800000E+00  1.60000000E+01  1.00800000E+00
  1.00800000E+00  1.60000000E+01  1.00800000E+00  1.00800000E+00  1.60000000E+01
  1.00800000E+00  1.00800000E+00  1.60000000E+01  1.00800000E+00  1.00800000E+00
  1.60000000E+01  1.00800000E+00  1.00800000E+00  1.60000000E+01  1.00800000E+00
  1.00800000E+00  1.60000000E+01  1.00800000E+00  1.00800000E+00  1.60000000E+01
  1.00800000E+00  1.00800000E+00  1.60000000E+01  1.00800000E+00  1.00800000E+00
  1.60000000E+01  1.00800000E+00  1.00800000E+00  1.60000000E+01  1.00800000E+00
  1.00800000E+00  1.60000000E+01  1.00800000E+00  1.00800000E+00  1.60000000E+01
  1.00800000E+00  1.00800000E+00  1.60000000E+01  1.00800000E+00  1.00800000E+00
  1.60000000E+01  1.00800000E+00  1.00800000E+00  1.60000000E+01  1.00800000E+00
  1.00800000E+00  1.60000000E+01  1.00800000E+00  1.00800000E+00  1.60000000E+01
  1.00800000E+00  1.00800000E+00  1.60000000E+01  1.00800000E+00  1.00800000E+00
  1.60000000E+01  1.00800000E+00  1.00800000E+00  1.60000000E+01  1.00800000E+00
  1.00800000E+00  1.60000000E+01  1.00800000E+00  1.00800000E+00  1.60000000E+01
  1.00800000E+00  1.00800000E+00  1.60000000E+01  1.00800000E+00  1.00800000E+00
  1.60000000E+01  1.00800000E+00  1.00800000E+00  1.60000000E+01  1.00800000E+00
  1.00800000E+00  1.60000000E+01  1.00800000E+00  1.00800000E+00  1.60000000E+01
  1.00800000E+00  1.00800000E+00  1.60000000E+01  1.00800000E+00  1.00800000E+00
  1.60000000E+01  1.00800000E+00  1.00800000E+00  1.60000000E+01  1.00800000E+00
  1.00800000E+00  1.60000000E+01  1.00800000E+00  1.00800000E+00  1.60000000E+01
  1.00800000E+00  1.00800000E+00  1.60000000E+01  1.00800000E+00  1.00800000E+00
  1.60000000E+01  1.00800000E+00  1.00800000E+00  1.60000000E+01  1.00800000E+00
  1.00800000E+00  1.60000000E+01  1.00800000E+00  1.00800000E+00  1.60000000E+01
  1.00800000E+00  1.00800000E+00  1.60000000E+01  1.00800000E+00  1.00800000E+00
  1.60000000E+01  1.00800000E+00  1.00800000E+00  1.60000000E+01  1.00800000E+00
  1.00800000E+00  1.60000000E+01  1.00800000E+00  1.00800000E+00  1.60000000E+01
  1.00800000E+00  1.00800000E+00  1.60000000E+01  1.00800000E+00  1.00800000E+00
  1.60000000E+01  1.00800000E+00  1.00800000E+00  1.60000000E+01  1.00800000E+00
  1.00800000E+00  1.60000000E+01  1.00800000E+00  1.00800000E+00  1.60000000E+01
  1.00800000E+00  1.00800000E+00  1.60000000E+01  1.00800000E+00  1.00800000E+00
  1.60000000E+01  1.00800000E+00  1.00800000E+00  1.60000000E+01  1.00800000E+00
  1.00800000E+00  1.60000000E+01  1.00800000E+00  1.00800000E+00  1.60000000E+01
  1.00800000E+00  1.00800000E+00  1.60000000E+01  1.00800000E+00  1.00800000E+00
  1.60000000E+01  1.00800000E+00  1.00800000E+00  1.60000000E+01  1.00800000E+00
  1.00800000E+00  1.60000000E+01  1.00800000E+00  1.00800000E+00  1.60000000E+01
  1.00800000E+00  1.00800000E+00  1.60000000E+01  1.00800000E+00  1.00800000E+00
  1.60000000E+01  1.00800000E+00  1.00800000E+00  1.60000000E+01  1.00800000E+00
  1.00800000E+00  1.60000000E+01  1.00800000E+00  1.00800000E+00  1.60000000E+01
  1.00800000E+00  1.00800000E+00  1.60000000E+01  1.00800000E+00  1.00800000E+00
  1.60000000E+01  1.00800000E+00  1.00800000E+00  1.60000000E+01  1.00800000E+00
  1.00800000E+00  1.60000000E+01  1.00800000E+00  1.00800000E+00  1.60000000E+01
  1.00800000E+00  1.00800000E+00  1.60000000E+01  1.00800000E+00  1.00800000E+00
  1.60000000E+01  1.00800000E+00  1.00800000E+00  1.60000000E+01  1.00800000E+00
  1.00800000E+00  1.60000000E+01  1.00800000E+00  1.00800000E+00  1.60000000E+01
  1.00800000E+00  1.00800000E+00  1.60000000E+01  1.00800000E+00  1.00800000E+00
  1.60000000E+01  1.00800000E+00  1.00800000E+00  1.60000000E+01  1.00800000E+00
  1.00800000E+00  1.60000000E+01  1.00800000E+00  1.00800000E+00  1.60000000E+01
  1.00800000E+00  1.00800000E+00  1.60000000E+01  1.00800000E+00  1.00800000E+00
  1.60000000E+01  1.00800000E+00  1.00800000E+00  1.60000000E+01  1.00800000E+00
  1.00800000E+00  1.60000000E+01  1.00800000E+00  1.00800000E+00  1.60000000E+01
  1.00800000E+00  1.00800000E+00  1.60000000E+01  1.00800000E+00  1.00800000E+00
  1.60000000E+01  1.00800000E+00  1.00800000E+00  1.60000000E+01  1.00800000E+00
  1.00800000E+00  1.60000000E+01  1.00800000E+00  1.00800000E+00  1.60000000E+01
  1.00800000E+00  1.00800000E+00  1.60000000E+01  1.00800000E+00  1.00800000E+00
  1.60000000E+01  1.00800000E+00  1.00800000E+00  1.60000000E+01  1.00800000E+00
  1.00800000E+00  1.60000000E+01  1.00800000E+00  1.00800000E+00  1.60000000E+01
  1.00800000E+00  1.00800000E+00  1.60000000E+01  1.00800000E+00  1.00800000E+00
  1.60000000E+01  1.00800000E+00  1.00800000E+00  1.60000000E+01  1.00800000E+00
  1.00800000E+00  1.60000000E+01  1.00800000E+00  1.00800000E+00  1.60000000E+01
  1.00800000E+00  1.00800000E+00  1.60000000E+01  1.00800000E+00  1.00800000E+00
  1.60000000E+01  1.00800000E+00  1.00800000E+00  1.60000000E+01  1.00800000E+00
  1.00800000E+00  1.60000000E+01  1.00800000E+00  1.00800000E+00  1.60000000E+01
  1.00800000E+00  1.00800000E+00  1.60000000E+01  1.00800000E+00  1.00800000E+00
  1.60000000E+01  1.00800000E+00  1.00800000E+00  1.60000000E+01  1.00800000E+00
  1.00800000E+00  1.60000000E+01  1.00800000E+00  1.00800000E+00  1.60000000E+01
  1.00800000E+00  1.00800000E+00  1.60000000E+01  1.00800000E+00  1.00800000E+00
  1.60000000E+01  1.00800000E+00  1.00800000E+00  1.60000000E+01  1.00800000E+00
  1.00800000E+00  1.60000000E+01  1.00800000E+00  1.00800000E+00  1.60000000E+01
  1.00800000E+00  1.00800000E+00  1.60000000E+01  1.00800000E+00  1.00800000E+00
  1.60000000E+01  1.00800000E+00  1.00800000E+00  1.60000000E+01  1.00800000E+00
  1.00800000E+00  1.60000000E+01  1.00800000E+00  1.00800000E+00  1.60000000E+01
  1.00800000E+00  1.00800000E+00  1.60000000E+01  1.00800000E+00  1.00800000E+00
  1.60000000E+01  1.00800000E+00  1.00800000E+00  1.60000000E+01  1.00800000E+00
  1.00800000E+00  1.60000000E+01  1.00800000E+00  1.00800000E+00  1.60000000E+01
  1.00800000E+00  1.00800000E+00  1.60000000E+01  1.00800000E+00  1.00800000E+00
  1.60000000E+01  1.00800000E+00  1.00800000E+00  1.60000000E+01  1.00800000E+00
  1.00800000E+00  1.60000000E+01  1.00800000E+00  1.00800000E+00  1.60000000E+01
  1.00800000E+00  1.00800000E+00  1.60000000E+01  1.00800000E+00  1.00800000E+00
  1.60000000E+01  1.00800000E+00  1.00800000E+00  1.60000000E+01  1.00800000E+00
  1.00800000E+00  1.60000000E+01  1.00800000E+00  1.00800000E+00  1.60000000E+01
  1.00800000E+00  1.00800000E+00  1.60000000E+01  1.00800000E+00  1.00800000E+00
  1.60000000E+01  1.00800000E+00  1.00800000E+00  1.60000000E+01  1.00800000E+00
  1.00800000E+00  1.60000000E+01  1.00800000E+00  1.00800000E+00  1.60000000E+01
  1.00800000E+00  1.00800000E+00  1.60000000E+01  1.00800000E+00  1.00800000E+00
  1.60000000E+01  1.00800000E+00  1.00800000E+00  1.60000000E+01  1.00800000E+00
  1.00800000E+00  1.60000000E+01  1.00800000E+00  1.00800000E+00  1.60000000E+01
  1.00800000E+00  1.00800000E+00  1.60000000E+01  1.00800000E+00  1.00800000E+00
  1.60000000E+01  1.00800000E+00  1.00800000E+00  1.60000000E+01  1.00800000E+00
  1.00800000E+00  1.60000000E+01  1.00800000E+00  1.00800000E+00  1.60000000E+01
  1.00800000E+00  1.00800000E+00  1.60000000E+01  1.00800000E+00  1.00800000E+00
  1.60000000E+01  1.00800000E+00  1.00800000E+00  1.60000000E+01  1.00800000E+00
  1.00800000E+00  1.60000000E+01  1.00800000E+00  1.00800000E+00  1.60000000E+01
  1.00800000E+00  1.00800000E+00  1.60000000E+01  1.00800000E+00  1.00800000E+00
  1.60000000E+01  1.00800000E+00  1.00800000E+00  1.60000000E+01  1.00800000E+00
  1.00800000E+00  1.60000000E+01  1.00800000E+00  1.00800000E+00  1.60000000E+01
  1.00800000E+00  1.00800000E+00  1.60000000E+01  1.00800000E+00  1.00800000E+00
  1.60000000E+01  1.00800000E+00  1.00800000E+00  1.60000000E+01  1.00800000E+00
  1.00800000E+00  1.60000000E+01  1.00800000E+00  1.00800000E+00  1.60000000E+01
  1.00800000E+00  1.00800000E+00  1.60000000E+01  1.00800000E+00  1.00800000E+00
  1.60000000E+01  1.00800000E+00  1.00800000E+00  1.60000000E+01  1.00800000E+00
  1.00800000E+00  1.60000000E+01  1.00800000E+00  1.00800000E+00  1.60000000E+01
  1.00800000E+00  1.00800000E+00  1.60000000E+01  1.00800000E+00  1.00800000E+00
  1.60000000E+01  1.00800000E+00  1.00800000E+00  1.60000000E+01  1.00800000E+00
  1.00800000E+00  1.60000000E+01  1.00800000E+00  1.00800000E+00  1.60000000E+01
  1.00800000E+00  1.00800000E+00  1.60000000E+01  1.00800000E+00  1.00800000E+00
  1.60000000E+01  1.00800000E+00  1.00800000E+00  1.60000000E+01  1.00800000E+00
  1.00800000E+00  1.60000000E+01  1.00800000E+00  1.00800000E+00  1.60000000E+01
  1.00800000E+00  1.00800000E+00  1.60000000E+01  1.00800000E+00  1.00800000E+00
  1.60000000E+01  1.00800000E+00  1.00800000E+00  1.60000000E+01  1.00800000E+00
  1.00800000E+00  1.60000000E+01  1.00800000E+00  1.00800000E+00  1.60000000E+01
  1.00800000E+00  1.00800000E+00  1.60000000E+01  1.00800000E+00  1.00800000E+00
  1.60000000E+01  1.00800000E+00  1.00800000E+00  1.60000000E+01  1.00800000E+00
  1.00800000E+00  1.60000000E+01  1.00800000E+00  1.00800000E+00  1.60000000E+01
  1.00800000E+00  1.00800000E+00  1.60000000E+01  1.00800000E+00  1.00800000E+00
  1.60000000E+01  1.00800000E+00  1.00800000E+00  1.60000000E+01  1.00800000E+00
  1.00800000E+00  1.60000000E+01  1.00800000E+00  1.00800000E+00  1.60000000E+01
  1.00800000E+00  1.00800000E+00  1.60000000E+01  1.00800000E+00  1.00800000E+00
  1.60000000E+01  1.00800000E+00  1.00800000E+00  1.60000000E+01  1.00800000E+00
  1.00800000E+00  1.60000000E+01  1.00800000E+00  1.00800000E+00  1.60000000E+01
  1.00800000E+00  1.00800000E+00  1.60000000E+01  1.00800000E+00  1.00800000E+00
  1.60000000E+01  1.00800000E+00  1.00800000E+00  1.60000000E+01  1.00800000E+00
  1.00800000E+00  1.60000000E+01  1.00800000E+00  1.00800000E+00  1.60000000E+01
  1.00800000E+00  1.00800000E+00  1.60000000E+01  1.00800000E+00  1.00800000E+00
  1.60000000E+01  1.00800000E+00  1.00800000E+00  1.60000000E+01  1.00800000E+00
  1.00800000E+00  1.60000000E+01  1.00800000E+00  1.00800000E+00  1.60000000E+01
  1.00800000E+00  1.00800000E+00  1.60000000E+01  1.00800000E+00  1.00800000E+00
  1.60000000E+01  1.00800000E+00  1.00800000E+00  1.60000000E+01  1.00800000E+00
  1.00800000E+00  1.60000000E+01  1.00800000E+00  1.00800000E+00  1.60000000E+01
  1.00800000E+00  1.00800000E+00  1.60000000E+01  1.00800000E+00  1.00800000E+00
  1.60000000E+01  1.00800000E+00  1.00800000E+00  1.60000000E+01  1.00800000E+00
  1.00800000E+00  1.60000000E+01  1.00800000E+00  1.00800000E+00  1.60000000E+01
  1.00800000E+00  1.00800000E+00  1.60000000E+01  1.00800000E+00  1.00800000E+00
  1.60000000E+01  1.00800000E+00  1.00800000E+00  1.60000000E+01  1.00800000E+00
  1.00800000E+00  1.60000000E+01  1.00800000E+00  1.00800000E+00  1.60000000E+01
  1.00800000E+00  1.00800000E+00  1.60000000E+01  1.00800000E+00  1.00800000E+00
  1.60000000E+01  1.00800000E+00  1.00800000E+00  1.60000000E+01  1.00800000E+00
  1.00800000E+00  1.60000000E+01  1.00800000E+00  1.00800000E+00  1.60000000E+01
  1.00800000E+00  1.00800000E+00  1.60000000E+01  1.00800000E+00  1.00800000E+00
  1.60000000E+01  1.00800000E+00  1.00800000E+00  1.60000000E+01  1.00800000E+00
  1.00800000E+00  1.60000000E+01  1.00800000E+00  1.00800000E+00  1.60000000E+01
  1.00800000E+00  1.00800000E+00  1.60000000E+01  1.00800000E+00  1.00800000E+00
  1.60000000E+01  1.00800000E+00  1.00800000E+00  1.60000000E+01  1.00800000E+00
  1.00800000E+00  1.60000000E+01  1.00800000E+00  1.00800000E+00  1.60000000E+01
  1.00800000E+00  1.00800000E+00  1.60000000E+01  1.00800000E+00  1.00800000E+00
  1.60000000E+01  1.00800000E+00  1.00800000E+00  1.60000000E+01  1.00800000E+00
  1.00800000E+00  1.60000000E+01  1.00800000E+00  1.00800000E+00  1.60000000E+01
  1.00800000E+00  1.00800000E+00  1.60000000E+01  1.00800000E+00  1.00800000E+00
  1.60000000E+01  1.00800000E+00  1.00800000E+00  1.60000000E+01  1.00800000E+00
  1.00800000E+00  1.60000000E+01  1.00800000E+00  1.00800000E+00  1.60000000E+01
  1.00800000E+00  1.00800000E+00  1.60000000E+01  1.00800000E+00  1.00800000E+00
  1.60000000E+01  1.00800000E+00  1.00800000E+00  1.60000000E+01  1.00800000E+00
  1.00800000E+00  1.60000000E+01  1.00800000E+00  1.00800000E+00  1.60000000E+01
  1.00800000E+00  1.00800000E+00  1.60000000E+01  1.00800000E+00  1.00800000E+00
  1.60000000E+01  1.00800000E+00  1.00800000E+00  1.60000000E+01  1.00800000E+00
  1.00800000E+00  1.60000000E+01  1.00800000E+00  1.00800000E+00  1.60000000E+01
  1.00800000E+00  1.00800000E+00  1.60000000E+01  1.00800000E+00  1.00800000E+00
  1.60000000E+01  1.00800000E+00  1.00800000E+00  1.60000000E+01  1.00800000E+00
  1.00800000E+00  1.60000000E+01  1.00800000E+00  1.00800000E+00  1.60000000E+01
  1.00800000E+00  1.00800000E+00  1.60000000E+01  1.00800000E+00  1.00800000E+00
  1.60000000E+01  1.00800000E+00  1.00800000E+00  1.60000000E+01  1.00800000E+00
  1.00800000E+00  1.60000000E+01  1.00800000E+00  1.00800000E+00  1.60000000E+01
  1.00800000E+00  1.00800000E+00  1.60000000E+01  1.00800000E+00  1.00800000E+00
  1.60000000E+01  1.00800000E+00  1.00800000E+00  1.60000000E+01  1.00800000E+00
  1.00800000E+00  1.60000000E+01  1.00800000E+00  1.00800000E+00  1.60000000E+01
  1.00800000E+00  1.00800000E+00  1.60000000E+01  1.00800000E+00  1.00800000E+00
  1.60000000E+01  1.00800000E+00  1.00800000E+00  1.60000000E+01  1.00800000E+00
  1.00800000E+00  1.60000000E+01  1.00800000E+00  1.00800000E+00  1.60000000E+01
  1.00800000E+00  1.00800000E+00  1.60000000E+01  1.00800000E+00  1.00800000E+00
  1.60000000E+01  1.00800000E+00  1.00800000E+00  1.60000000E+01  1.00800000E+00
  1.00800000E+00  1.60000000E+01  1.00800000E+00  1.00800000E+00  1.60000000E+01
  1.00800000E+00  1.00800000E+00  1.60000000E+01  1.00800000E+00  1.00800000E+00
  1.60000000E+01  1.00800000E+00  1.00800000E+00  1.60000000E+01  1.00800000E+00
  1.00800000E+00  1.60000000E+01  1.00800000E+00  1.00800000E+00  1.60000000E+01
  1.00800000E+00  1.00800000E+00  1.60000000E+01  1.00800000E+00  1.00800000E+00
  1.60000000E+01  1.00800000E+00  1.00800000E+00  1.60000000E+01  1.00800000E+00
  1.00800000E+00  1.60000000E+01  1.00800000E+00  1.00800000E+00  1.60000000E+01
  1.00800000E+00  1.00800000E+00  1.60000000E+01  1.00800000E+00  1.00800000E+00
  1.60000000E+01  1.00800000E+00  1.00800000E+00  1.60000000E+01  1.00800000E+00
  1.00800000E+00  1.60000000E+01  1.00800000E+00  1.00800000E+00  1.60000000E+01
  1.00800000E+00  1.00800000E+00  1.60000000E+01  1.00800000E+00  1.00800000E+00
  1.60000000E+01  1.00800000E+00  1.00800000E+00  1.60000000E+01  1.00800000E+00
  1.00800000E+00  1.60000000E+01  1.00800000E+00  1.00800000E+00  1.60000000E+01
  1.00800000E+00  1.00800000E+00  1.60000000E+01  1.00800000E+00  1.00800000E+00
  1.60000000E+01  1.00800000E+00  1.00800000E+00  1.60000000E+01  1.00800000E+00
  1.00800000E+00  1.60000000E+01  1.00800000E+00  1.00800000E+00  1.60000000E+01
  1.00800000E+00  1.00800000E+00  1.60000000E+01  1.00800000E+00  1.00800000E+00
  1.60000000E+01  1.00800000E+00  1.00800000E+00  1.60000000E+01  1.00800000E+00
  1.00800000E+00  1.60000000E+01  1.00800000E+00  1.00800000E+00  1.60000000E+01
  1.00800000E+00  1.00800000E+00  1.60000000E+01  1.00800000E+00  1.00800000E+00
  1.60000000E+01  1.00800000E+00  1.00800000E+00  1.60000000E+01  1.00800000E+00
  1.00800000E+00  1.60000000E+01  1.00800000E+00  1.00800000E+00  1.60000000E+01
  1.00800000E+00  1.00800000E+00  1.60000000E+01  1.00800000E+00  1.00800000E+00
  1.60000000E+01  1.00800000E+00  1.00800000E+00  1.60000000E+01  1.00800000E+00
  1.00800000E+00  1.60000000E+01  1.00800000E+00  1.00800000E+00  1.60000000E+01
  1.00800000E+00  1.00800000E+00  1.60000000E+01  1.00800000E+00  1.00800000E+00
  1.60000000E+01  1.00800000E+00  1.00800000E+00  1.60000000E+01  1.00800000E+00
  1.00800000E+00  1.60000000E+01  1.00800000E+00  1.00800000E+00  1.60000000E+01
  1.00800000E+00  1.00800000E+00  1.60000000E+01  1.00800000E+00  1.00800000E+00
  1.60000000E+01  1.00800000E+00  1.00800000E+00  1.60000000E+01  1.00800000E+00
  1.00800000E+00  1.60000000E+01  1.00800000E+00  1.00800000E+00  1.60000000E+01
  1.00800000E+00  1.00800000E+00  1.60000000E+01  1.00800000E+00  1.00800000E+00
  1.60000000E+01  1.00800000E+00  1.00800000E+00  1.60000000E+01  1.00800000E+00
  1.00800000E+00  1.60000000E+01  1.00800000E+00  1.00800000E+00  1.60000000E+01
  1.00800000E+00  1.00800000E+00  1.60000000E+01  1.00800000E+00  1.00800000E+00
  1.60000000E+01  1.00800000E+00  1.00800000E+00  1.60000000E+01  1.00800000E+00
  1.00800000E+00  1.60000000E+01  1.00800000E+00  1.00800000E+00  1.60000000E+01
  1.00800000E+00  1.00800000E+00  1.60000000E+01  1.00800000E+00  1.00800000E+00
  1.60000000E+01  1.00800000E+00  1.00800000E+00  1.60000000E+01  1.00800000E+00
  1.00800000E+00  1.60000000E+01  1.00800000E+00  1.00800000E+00  1.60000000E+01
  1.00800000E+00  1.00800000E+00  1.60000000E+01  1.00800000E+00  1.00800000E+00
  1.60000000E+01  1.00800000E+00  1.00800000E+00  1.60000000E+01  1.00800000E+00
  1.00800000E+00  1.60000000E+01  1.00800000E+00  1.00800000E+00  1.60000000E+01
  1.00800000E+00  1.00800000E+00  1.60000000E+01  1.00800000E+00  1.00800000E+00
  1.60000000E+01  1.00800000E+00  1.00800000E+00  1.60000000E+01  1.00800000E+00
  1.00800000E+00  1.60000000E+01  1.00800000E+00  1.00800000E+00  1.60000000E+01
  1.00800000E+00  1.00800000E+00  1.60000000E+01  1.00800000E+00  1.00800000E+00
  1.60000000E+01  1.00800000E+00  1.00800000E+00  1.60000000E+01  1.00800000E+00
  1.00800000E+00  1.60000000E+01  1.00800000E+00  1.00800000E+00  1.60000000E+01
  1.00800000E+00  1.00800000E+00  1.60000000E+01  1.00800000E+00  1.00800000E+00
  1.60000000E+01  1.00800000E+00  1.00800000E+00  1.60000000E+01  1.00800000E+00
  1.00800000E+00  1.60000000E+01  1.00800000E+00  1.00800000E+00  1.60000000E+01
  1.00800000E+00  1.00800000E+00  1.60000000E+01  1.00800000E+00  1.00800000E+00
  1.60000000E+01  1.00800000E+00  1.00800000E+00  1.60000000E+01  1.00800000E+00
  1.00800000E+00  1.60000000E+01  1.00800000E+00  1.00800000E+00  1.60000000E+01
  1.00800000E+00  1.00800000E+00  1.60000000E+01  1.00800000E+00  1.00800000E+00
  1.60000000E+01  1.00800000E+00  1.00800000E+00  1.60000000E+01  1.00800000E+00
  1.00800000E+00  1.60000000E+01  1.00800000E+00  1.00800000E+00  1.60000000E+01
  1.00800000E+00  1.00800000E+00  1.60000000E+01  1.00800000E+00  1.00800000E+00
  1.60000000E+01  1.00800000E+00  1.00800000E+00  1.60000000E+01  1.00800000E+00
  1.00800000E+00  1.60000000E+01  1.00800000E+00  1.00800000E+00  1.60000000E+01
  1.00800000E+00  1.00800000E+00  1.60000000E+01  1.00800000E+00  1.00800000E+00
  1.60000000E+01  1.00800000E+00  1.00800000E+00  1.60000000E+01  1.00800000E+00
  1.00800000E+00  1.60000000E+01  1.00800000E+00  1.00800000E+00  1.60000000E+01
  1.00800000E+00  1.00800000E+00  1.60000000E+01  1.00800000E+00  1.00800000E+00
  1.60000000E+01  1.00800000E+00  1.00800000E+00  1.60000000E+01  1.00800000E+00
  1.00800000E+00  1.60000000E+01  1.00800000E+00  1.00800000E+00  1.60000000E+01
  1.00800000E+00  1.00800000E+00  1.60000000E+01  1.00800000E+00  1.00800000E+00
  1.60000000E+01  1.00800000E+00  1.00800000E+00  1.60000000E+01  1.00800000E+00
  1.00800000E+00  1.60000000E+01  1.00800000E+00  1.00800000E+00  1.60000000E+01
  1.00800000E+00  1.00800000E+00  1.60000000E+01  1.00800000E+00  1.00800000E+00
  1.60000000E+01  1.00800000E+00  1.00800000E+00  1.60000000E+01  1.00800000E+00
  1.00800000E+00  1.60000000E+01  1.00800000E+00  1.00800000E+00  1.60000000E+01
  1.00800000E+00  1.00800000E+00  1.60000000E+01  1.00800000E+00  1.00800000E+00
  1.60000000E+01  1.00800000E+00  1.00800000E+00  1.60000000E+01  1.00800000E+00
  1.00800000E+00  1.60000000E+01  1.00800000E+00  1.00800000E+00  1.60000000E+01
  1.00800000E+00  1.00800000E+00  1.60000000E+01  1.00800000E+00  1.00800000E+00
  1.60000000E+01  1.00800000E+00  1.00800000E+00  1.60000000E+01  1.00800000E+00
  1.00800000E+00  1.60000000E+01  1.00800000E+00  1.00800000E+00  1.60000000E+01
  1.00800000E+00  1.00800000E+00  1.60000000E+01  1.00800000E+00  1.00800000E+00
  1.60000000E+01  1.00800000E+00  1.00800000E+00  1.60000000E+01  1.00800000E+00
  1.00800000E+00  1.60000000E+01  1.00800000E+00  1.00800000E+00  1.60000000E+01
  1.00800000E+00  1.00800000E+00  1.60000000E+01  1.00800000E+00  1.00800000E+00
  1.60000000E+01  1.00800000E+00  1.00800000E+00  1.60000000E+01  1.00800000E+00
  1.00800000E+00  1.60000000E+01  1.00800000E+00  1.00800000E+00  1.60000000E+01
  1.00800000E+00  1.00800000E+00  1.60000000E+01  1.00800000E+00  1.00800000E+00
  1.60000000E+01  1.00800000E+00  1.00800000E+00  1.60000000E+01  1.00800000E+00
  1.00800000E+00  1.60000000E+01  1.00800000E+00  1.00800000E+00  1.60000000E+01
  1.00800000E+00  1.00800000E+00  1.60000000E+01  1.00800000E+00  1.00800000E+00
  1.60000000E+01  1.00800000E+00  1.00800000E+00  1.60000000E+01  1.00800000E+00
  1.00800000E+00  1.60000000E+01  1.00800000E+00  1.00800000E+00  1.60000000E+01
  1.00800000E+00  1.00800000E+00  1.60000000E+01  1.00800000E+00  1.00800000E+00
  1.60000000E+01  1.00800000E+00  1.00800000E+00  1.60000000E+01  1.00800000E+00
  1.00800000E+00  1.60000000E+01  1.00800000E+00  1.00800000E+00  1.60000000E+01
  1.00800000E+00  1.00800000E+00  1.60000000E+01  1.00800000E+00  1.00800000E+00
  1.60000000E+01  1.00800000E+00  1.00800000E+00  1.60000000E+01  1.00800000E+00
  1.00800000E+00  1.60000000E+01  1.00800000E+00  1.00800000E+00  1.60000000E+01
  1.00800000E+00  1.00800000E+00  1.60000000E+01  1.00800000E+00  1.00800000E+00
  1.60000000E+01  1.00800000E+00  1.00800000E+00  1.60000000E+01  1.00800000E+00
  1.00800000E+00  1.60000000E+01  1.00800000E+00  1.00800000E+00  1.60000000E+01
  1.00800000E+00  1.00800000E+00  1.60000000E+01  1.00800000E+00  1.00800000E+00
  1.60000000E+01  1.00800000E+00  1.00800000E+00  1.60000000E+01  1.00800000E+00
  1.00800000E+00  1.60000000E+01  1.00800000E+00  1.00800000E+00  1.60000000E+01
  1.00800000E+00  1.00800000E+00  1.60000000E+01  1.00800000E+00  1.00800000E+00
  1.60000000E+01  1.00800000E+00  1.00800000E+00  1.60000000E+01  1.00800000E+00
  1.00800000E+00  1.60000000E+01  1.00800000E+00  1.00800000E+00  1.60000000E+01
  1.00800000E+00  1.00800000E+00  1.60000000E+01  1.00800000E+00  1.00800000E+00
  1.60000000E+01  1.00800000E+00  1.00800000E+00  1.60000000E+01  1.00800000E+00
  1.00800000E+00  1.60000000E+01  1.00800000E+00  1.00800000E+00  1.60000000E+01
  1.00800000E+00  1.00800000E+00  1.60000000E+01  1.00800000E+00  1.00800000E+00
  1.60000000E+01  1.00800000E+00  1.00800000E+00  1.60000000E+01  1.00800000E+00
  1.00800000E+00  1.60000000E+01  1.00800000E+00  1.00800000E+00  1.60000000E+01
  1.00800000E+00  1.00800000E+00  1.60000000E+01  1.00800000E+00  1.00800000E+00
  1.60000000E+01  1.00800000E+00  1.00800000E+00  1.60000000E+01  1.00800000E+00
  1.00800000E+00  1.60000000E+01  1.00800000E+00  1.00800000E+00  1.60000000E+01
  1.00800000E+00  1.00800000E+00  1.60000000E+01  1.00800000E+00  1.00800000E+00
  1.60000000E+01  1.00800000E+00  1.00800000E+00  1.60000000E+01  1.00800000E+00
  1.00800000E+00  1.60000000E+01  1.00800000E+00  1.00800000E+00  1.60000000E+01
  1.00800000E+00  1.00800000E+00  1.60000000E+01  1.00800000E+00  1.00800000E+00
  1.60000000E+01  1.00800000E+00  1.00800000E+00  1.60000000E+01  1.00800000E+00
  1.00800000E+00  1.60000000E+01  1.00800000E+00  1.00800000E+00  1.60000000E+01
  1.00800000E+00  1.00800000E+00  1.60000000E+01  1.00800000E+00  1.00800000E+00
  1.60000000E+01  1.00800000E+00  1.00800000E+00  1.60000000E+01  1.00800000E+00
  1.00800000E+00  1.60000000E+01  1.00800000E+00  1.00800000E+00  1.60000000E+01
  1.00800000E+00  1.00800000E+00  1.60000000E+01  1.00800000E+00  1.00800000E+00
  1.60000000E+01  1.00800000E+00  1.00800000E+00  1.60000000E+01  1.00800000E+00
  1.00800000E+00  1.60000000E+01  1.00800000E+00  1.00800000E+00  1.60000000E+01
  1.00800000E+00  1.00800000E+00  1.60000000E+01  1.00800000E+00  1.00800000E+00
  1.60000000E+01  1.00800000E+00  1.00800000E+00  1.60000000E+01  1.00800000E+00
  1.00800000E+00  1.60000000E+01  1.00800000E+00  1.00800000E+00  1.60000000E+01
  1.00800000E+00  1.00800000E+00  1.60000000E+01  1.00800000E+00  1.00800000E+00
  1.60000000E+01  1.00800000E+00  1.00800000E+00  1.60000000E+01  1.00800000E+00
  1.00800000E+00  1.60000000E+01  1.00800000E+00  1.00800000E+00  1.60000000E+01
  1.00800000E+00  1.00800000E+00  1.60000000E+01  1.00800000E+00  1.00800000E+00
  1.60000000E+01  1.00800000E+00  1.00800000E+00  1.60000000E+01  1.00800000E+00
  1.00800000E+00  1.60000000E+01  1.00800000E+00  1.00800000E+00  1.60000000E+01
  1.00800000E+00  1.00800000E+00  1.60000000E+01  1.00800000E+00  1.00800000E+00
  1.60000000E+01  1.00800000E+00  1.00800000E+00  1.60000000E+01  1.00800000E+00
  1.00800000E+00  1.60000000E+01  1.00800000E+00  1.00800000E+00  1.60000000E+01
  1.00800000E+00  1.00800000E+00  1.60000000E+01  1.00800000E+00  1.00800000E+00
  1.60000000E+01  1.00800000E+00  1.00800000E+00  1.60000000E+01  1.00800000E+00
  1.00800000E+00  1.60000000E+01  1.00800000E+00  1.00800000E+00  1.60000000E+01
  1.00800000E+00  1.00800000E+00  1.60000000E+01  1.00800000E+00  1.00800000E+00
  1.60000000E+01  1.00800000E+00  1.00800000E+00  1.60000000E+01  1.00800000E+00
  1.00800000E+00  1.60000000E+01  1.00800000E+00  1.00800000E+00  1.60000000E+01
  1.00800000E+00  1.00800000E+00  1.60000000E+01  1.00800000E+00  1.00800000E+00
  1.60000000E+01  1.00800000E+00  1.00800000E+00  1.60000000E+01  1.00800000E+00
  1.00800000E+00  1.60000000E+01  1.00800000E+00  1.00800000E+00  1.60000000E+01
  1.00800000E+00  1.00800000E+00  1.60000000E+01  1.00800000E+00  1.00800000E+00
  1.60000000E+01  1.00800000E+00  1.00800000E+00  1.60000000E+01  1.00800000E+00
  1.00800000E+00  1.60000000E+01  1.00800000E+00  1.00800000E+00  1.60000000E+01
  1.00800000E+00  1.00800000E+00  1.60000000E+01  1.00800000E+00  1.00800000E+00
  1.60000000E+01  1.00800000E+00  1.00800000E+00  1.60000000E+01  1.00800000E+00
  1.00800000E+00  1.60000000E+01  1.00800000E+00  1.00800000E+00  1.60000000E+01
  1.00800000E+00  1.00800000E+00  1.60000000E+01  1.00800000E+00  1.00800000E+00
  1.60000000E+01  1.00800000E+00  1.00800000E+00  1.60000000E+01  1.00800000E+00
  1.00800000E+00  1.60000000E+01  1.00800000E+00  1.00800000E+00  1.60000000E+01
  1.00800000E+00  1.00800000E+00  1.60000000E+01  1.00800000E+00  1.00800000E+00
  1.60000000E+01  1.00800000E+00  1.00800000E+00  1.60000000E+01  1.00800000E+00
  1.00800000E+00  1.60000000E+01  1.00800000E+00  1.00800000E+00  1.60000000E+01
  1.00800000E+00  1.00800000E+00  1.60000000E+01  1.00800000E+00  1.00800000E+00
  1.60000000E+01  1.00800000E+00  1.00800000E+00  1.60000000E+01  1.00800000E+00
  1.00800000E+00  1.60000000E+01  1.00800000E+00  1.00800000E+00  1.60000000E+01
  1.00800000E+00  1.00800000E+00  1.60000000E+01  1.00800000E+00  1.00800000E+00
  1.60000000E+01  1.00800000E+00  1.00800000E+00  1.60000000E+01  1.00800000E+00
  1.00800000E+00  1.60000000E+01  1.00800000E+00  1.00800000E+00  1.60000000E+01
  1.00800000E+00  1.00800000E+00  1.60000000E+01  1.00800000E+00  1.00800000E+00
  1.60000000E+01  1.00800000E+00  1.00800000E+00  1.60000000E+01  1.00800000E+00
  1.00800000E+00  1.60000000E+01  1.00800000E+00  1.00800000E+00  1.60000000E+01
  1.00800000E+00  1.00800000E+00  1.60000000E+01  1.00800000E+00  1.00800000E+00
  1.60000000E+01  1.00800000E+00  1.00800000E+00  1.60000000E+01  1.00800000E+00
  1.00800000E+00  1.60000000E+01  1.00800000E+00  1.00800000E+00  1.60000000E+01
  1.00800000E+00  1.00800000E+00  1.60000000E+01  1.00800000E+00  1.00800000E+00
  1.60000000E+01  1.00800000E+00  1.00800000E+00  1.60000000E+01  1.00800000E+00
  1.00800000E+00  1.60000000E+01  1.00800000E+00  1.00800000E+00  1.60000000E+01
  1.00800000E+00  1.00800000E+00  1.60000000E+01  1.00800000E+00  1.00800000E+00
  1.60000000E+01  1.00800000E+00  1.00800000E+00  1.60000000E+01  1.00800000E+00
  1.00800000E+00  1.60000000E+01  1.00800000E+00  1.00800000E+00  1.60000000E+01
  1.00800000E+00  1.00800000E+00  1.60000000E+01  1.00800000E+00  1.00800000E+00
  1.60000000E+01  1.00800000E+00  1.00800000E+00  1.60000000E+01  1.00800000E+00
  1.00800000E+00  1.60000000E+01  1.00800000E+00  1.00800000E+00  1.60000000E+01
  1.00800000E+00  1.00800000E+00  1.60000000E+01  1.00800000E+00  1.00800000E+00
  1.60000000E+01  1.00800000E+00  1.00800000E+00  1.60000000E+01  1.00800000E+00
  1.00800000E+00  1.60000000E+01  1.00800000E+00  1.00800000E+00  1.60000000E+01
  1.00800000E+00  1.00800000E+00  1.60000000E+01  1.00800000E+00  1.00800000E+00
  1.60000000E+01  1.00800000E+00  1.00800000E+00  1.60000000E+01  1.00800000E+00
  1.00800000E+00  1.60000000E+01  1.00800000E+00  1.00800000E+00  1.60000000E+01
  1.00800000E+00  1.00800000E+00  1.60000000E+01  1.00800000E+00  1.00800000E+00
  1.60000000E+01  1.00800000E+00  1.00800000E+00  1.60000000E+01  1.00800000E+00
  1.00800000E+00  1.60000000E+01  1.00800000E+00  1.00800000E+00  1.60000000E+01
  1.00800000E+00  1.00800000E+00  1.60000000E+01  1.00800000E+00  1.00800000E+00
  1.60000000E+01  1.00800000E+00  1.00800000E+00  1.60000000E+01  1.00800000E+00
  1.00800000E+00  1.60000000E+01  1.00800000E+00  1.00800000E+00  1.60000000E+01
  1.00800000E+00  1.00800000E+00  1.60000000E+01  1.00800000E+00  1.00800000E+00
  1.60000000E+01  1.00800000E+00  1.00800000E+00  1.60000000E+01  1.00800000E+00
  1.00800000E+00  1.60000000E+01  1.00800000E+00  1.00800000E+00  1.60000000E+01
  1.00800000E+00  1.00800000E+00  1.60000000E+01  1.00800000E+00  1.00800000E+00
  1.60000000E+01  1.00800000E+00  1.00800000E+00  1.60000000E+01  1.00800000E+00
  1.00800000E+00  1.60000000E+01  1.00800000E+00  1.00800000E+00  1.60000000E+01
  1.00800000E+00  1.00800000E+00  1.60000000E+01  1.00800000E+00  1.00800000E+00
  1.60000000E+01  1.00800000E+00  1.00800000E+00  1.60000000E+01  1.00800000E+00
  1.00800000E+00  1.60000000E+01  1.00800000E+00  1.00800000E+00  1.60000000E+01
  1.00800000E+00  1.00800000E+00  1.60000000E+01  1.00800000E+00  1.00800000E+00
  1.60000000E+01  1.00800000E+00  1.00800000E+00  1.60000000E+01  1.00800000E+00
  1.00800000E+00  1.60000000E+01  1.00800000E+00  1.00800000E+00  1.60000000E+01
  1.00800000E+00  1.00800000E+00  1.60000000E+01  1.00800000E+00  1.00800000E+00
  1.60000000E+01  1.00800000E+00  1.00800000E+00  1.60000000E+01  1.00800000E+00
  1.00800000E+00  1.60000000E+01  1.00800000E+00  1.00800000E+00  1.60000000E+01
  1.00800000E+00  1.00800000E+00  1.60000000E+01  1.00800000E+00  1.00800000E+00
  1.60000000E+01  1.00800000E+00  1.00800000E+00  1.60000000E+01  1.00800000E+00
  1.00800000E+00  1.60000000E+01  1.00800000E+00  1.00800000E+00  1.60000000E+01
  1.00800000E+00  1.00800000E+00  1.60000000E+01  1.00800000E+00  1.00800000E+00
  1.60000000E+01  1.00800000E+00  1.00800000E+00  1.60000000E+01  1.00800000E+00
  1.00800000E+00  1.60000000E+01  1.00800000E+00  1.00800000E+00  1.60000000E+01
  1.00800000E+00  1.00800000E+00  1.60000000E+01  1.00800000E+00  1.00800000E+00
  1.60000000E+01  1.00800000E+00  1.00800000E+00  1.60000000E+01  1.00800000E+00
  1.00800000E+00  1.60000000E+01  1.00800000E+00  1.00800000E+00  1.60000000E+01
  1.00800000E+00  1.00800000E+00  1.60000000E+01  1.00800000E+00  1.00800000E+00
  1.60000000E+01  1.00800000E+00  1.00800000E+00  1.60000000E+01  1.00800000E+00
  1.00800000E+00  1.60000000E+01  1.00800000E+00  1.00800000E+00  1.60000000E+01
  1.00800000E+00  1.00800000E+00  1.60000000E+01  1.00800000E+00  1.00800000E+00
  1.60000000E+01  1.00800000E+00  1.00800000E+00  1.60000000E+01  1.00800000E+00
  1.00800000E+00  1.60000000E+01  1.00800000E+00  1.00800000E+00  1.60000000E+01
  1.00800000E+00  1.00800000E+00  1.60000000E+01  1.00800000E+00  1.00800000E+00
  1.60000000E+01  1.00800000E+00  1.00800000E+00  1.60000000E+01  1.00800000E+00
  1.00800000E+00  1.60000000E+01  1.00800000E+00  1.00800000E+00  1.60000000E+01
  1.00800000E+00  1.00800000E+00  1.60000000E+01  1.00800000E+00  1.00800000E+00
  1.60000000E+01  1.00800000E+00  1.00800000E+00  1.60000000E+01  1.00800000E+00
  1.00800000E+00  1.60000000E+01  1.00800000E+00  1.00800000E+00  1.60000000E+01
  1.00800000E+00  1.00800000E+00  1.60000000E+01  1.00800000E+00  1.00800000E+00
  1.60000000E+01  1.00800000E+00  1.00800000E+00  1.60000000E+01  1.00800000E+00
  1.00800000E+00  1.60000000E+01  1.00800000E+00  1.00800000E+00  1.60000000E+01
  1.00800000E+00  1.00800000E+00  1.60000000E+01  1.00800000E+00  1.00800000E+00
  1.60000000E+01  1.00800000E+00  1.00800000E+00  1.60000000E+01  1.00800000E+00
  1.00800000E+00  1.60000000E+01  1.00800000E+00  1.00800000E+00  1.60000000E+01
  1.00800000E+00  1.00800000E+00  1.60000000E+01  1.00800000E+00  1.00800000E+00
  1.60000000E+01  1.00800000E+00  1.00800000E+00  1.60000000E+01  1.00800000E+00
  1.00800000E+00  1.60000000E+01  1.00800000E+00  1.00800000E+00  1.60000000E+01
  1.00800000E+00  1.00800000E+00  1.60000000E+01  1.00800000E+00  1.00800000E+00
  1.60000000E+01  1.00800000E+00  1.00800000E+00  1.60000000E+01  1.00800000E+00
  1.00800000E+00  1.60000000E+01  1.00800000E+00  1.00800000E+00  1.60000000E+01
  1.00800000E+00  1.00800000E+00  1.60000000E+01  1.00800000E+00  1.00800000E+00
  1.60000000E+01  1.00800000E+00  1.00800000E+00  1.60000000E+01  1.00800000E+00
  1.00800000E+00  1.60000000E+01  1.00800000E+00  1.00800000E+00  1.60000000E+01
  1.00800000E+00  1.00800000E+00  1.60000000E+01  1.00800000E+00  1.00800000E+00
  1.60000000E+01  1.00800000E+00  1.00800000E+00  1.60000000E+01  1.00800000E+00
  1.00800000E+00  1.60000000E+01  1.00800000E+00  1.00800000E+00  1.60000000E+01
  1.00800000E+00  1.00800000E+00  1.60000000E+01  1.00800000E+00  1.00800000E+00
  1.60000000E+01  1.00800000E+00  1.00800000E+00  1.60000000E+01  1.00800000E+00
  1.00800000E+00  1.60000000E+01  1.00800000E+00  1.00800000E+00  1.60000000E+01
  1.00800000E+00  1.00800000E+00  1.60000000E+01  1.00800000E+00  1.00800000E+00
  1.60000000E+01  1.00800000E+00  1.00800000E+00  1.60000000E+01  1.00800000E+00
  1.00800000E+00  1.60000000E+01  1.00800000E+00  1.00800000E+00  1.60000000E+01
  1.00800000E+00  1.00800000E+00  1.60000000E+01  1.00800000E+00  1.00800000E+00
  1.60000000E+01  1.00800000E+00  1.00800000E+00  1.60000000E+01  1.00800000E+00
  1.00800000E+00  1.60000000E+01  1.00800000E+00  1.00800000E+00  1.60000000E+01
  1.00800000E+00  1.00800000E+00  1.60000000E+01  1.00800000E+00  1.00800000E+00
  1.60000000E+01  1.00800000E+00  1.00800000E+00  1.60000000E+01  1.00800000E+00
  1.00800000E+00  1.60000000E+01  1.00800000E+00  1.00800000E+00  1.60000000E+01
  1.00800000E+00  1.00800000E+00  1.60000000E+01  1.00800000E+00  1.00800000E+00
  1.60000000E+01  1.00800000E+00  1.00800000E+00  1.60000000E+01  1.00800000E+00
  1.00800000E+00  1.60000000E+01  1.00800000E+00  1.00800000E+00  1.60000000E+01
  1.00800000E+00  1.00800000E+00  1.60000000E+01  1.00800000E+00  1.00800000E+00
  1.60000000E+01  1.00800000E+00  1.00800000E+00  1.60000000E+01  1.00800000E+00
  1.00800000E+00  1.60000000E+01  1.00800000E+00  1.00800000E+00  1.60000000E+01
  1.00800000E+00  1.00800000E+00  1.60000000E+01  1.00800000E+00  1.00800000E+00
  1.60000000E+01  1.00800000E+00  1.00800000E+00  1.60000000E+01  1.00800000E+00
  1.00800000E+00  1.60000000E+01  1.00800000E+00  1.00800000E+00  1.60000000E+01
  1.00800000E+00  1.00800000E+00  1.60000000E+01  1.00800000E+00  1.00800000E+00
  1.60000000E+01  1.00800000E+00  1.00800000E+00  1.60000000E+01  1.00800000E+00
  1.00800000E+00  1.60000000E+01  1.00800000E+00  1.00800000E+00  1.60000000E+01
  1.00800000E+00  1.00800000E+00  1.60000000E+01  1.00800000E+00  1.00800000E+00
  1.60000000E+01  1.00800000E+00  1.00800000E+00  1.60000000E+01  1.00800000E+00
  1.00800000E+00  1.60000000E+01  1.00800000E+00  1.00800000E+00  1.60000000E+01
  1.00800000E+00  1.00800000E+00  1.60000000E+01  1.00800000E+00  1.00800000E+00
  1.60000000E+01  1.00800000E+00  1.00800000E+00  1.60000000E+01  1.00800000E+00
  1.00800000E+00  1.60000000E+01  1.00800000E+00  1.00800000E+00  1.60000000E+01
  1.00800000E+00  1.00800000E+00  1.60000000E+01  1.00800000E+00  1.00800000E+00
  1.60000000E+01  1.00800000E+00  1.00800000E+00  1.60000000E+01  1.00800000E+00
  1.00800000E+00  1.60000000E+01  1.00800000E+00  1.00800000E+00  1.60000000E+01
  1.00800000E+00  1.00800000E+00  1.60000000E+01  1.00800000E+00  1.00800000E+00
  1.60000000E+01  1.00800000E+00  1.00800000E+00  1.60000000E+01  1.00800000E+00
  1.00800000E+00  1.60000000E+01  1.00800000E+00  1.00800000E+00  1.60000000E+01
  1.00800000E+00  1.00800000E+00  1.60000000E+01  1.00800000E+00  1.00800000E+00
  1.60000000E+01  1.00800000E+00  1.00800000E+00  1.60000000E+01  1.00800000E+00
  1.00800000E+00  1.60000000E+01  1.00800000E+00  1.00800000E+00  1.60000000E+01
  1.00800000E+00  1.00800000E+00  1.60000000E+01  1.00800000E+00  1.00800000E+00
  1.60000000E+01  1.00800000E+00  1.00800000E+00  1.60000000E+01  1.00800000E+00
  1.00800000E+00  1.60000000E+01  1.00800000E+00  1.00800000E+00  1.60000000E+01
  1.00800000E+00  1.00800000E+00  1.60000000E+01  1.00800000E+00  1.00800000E+00
  1.60000000E+01  1.00800000E+00  1.00800000E+00  1.60000000E+01  1.00800000E+00
  1.00800000E+00  1.60000000E+01  1.00800000E+00  1.00800000E+00  1.60000000E+01
  1.00800000E+00  1.00800000E+00  1.60000000E+01  1.00800000E+00  1.00800000E+00
  1.60000000E+01  1.00800000E+00  1.00800000E+00  1.60000000E+01  1.00800000E+00
  1.00800000E+00  1.60000000E+01  1.00800000E+00  1.00800000E+00  1.60000000E+01
  1.00800000E+00  1.00800000E+00  1.60000000E+01  1.00800000E+00  1.00800000E+00
  1.60000000E+01  1.00800000E+00  1.00800000E+00  1.60000000E+01  1.00800000E+00
  1.00800000E+00  1.60000000E+01  1.00800000E+00  1.00800000E+00  1.60000000E+01
  1.00800000E+00  1.00800000E+00  1.60000000E+01  1.00800000E+00  1.00800000E+00
  1.60000000E+01  1.00800000E+00  1.00800000E+00  1.60000000E+01  1.00800000E+00
  1.00800000E+00  1.60000000E+01  1.00800000E+00  1.00800000E+00  1.60000000E+01
  1.00800000E+00  1.00800000E+00  1.60000000E+01  1.00800000E+00  1.00800000E+00
  1.60000000E+01  1.00800000E+00  1.00800000E+00  1.60000000E+01  1.00800000E+00
  1.00800000E+00  1.60000000E+01  1.00800000E+00  1.00800000E+00  1.60000000E+01
  1.00800000E+00  1.00800000E+00  1.60000000E+01  1.00800000E+00  1.00800000E+00
  1.60000000E+01  1.00800000E+00  1.00800000E+00  1.60000000E+01  1.00800000E+00
  1.00800000E+00  1.60000000E+01  1.00800000E+00  1.00800000E+00  1.60000000E+01
  1.00800000E+00  1.00800000E+00  1.60000000E+01  1.00800000E+00  1.00800000E+00
  1.60000000E+01  1.00800000E+00  1.00800000E+00  1.60000000E+01  1.00800000E+00
  1.00800000E+00  1.60000000E+01  1.00800000E+00  1.00800000E+00  1.60000000E+01
  1.00800000E+00  1.00800000E+00  1.60000000E+01  1.00800000E+00  1.00800000E+00
  1.60000000E+01  1.00800000E+00  1.00800000E+00  1.60000000E+01  1.00800000E+00
  1.00800000E+00  1.60000000E+01  1.00800000E+00  1.00800000E+00  1.60000000E+01
  1.00800000E+00  1.00800000E+00  1.60000000E+01  1.00800000E+00  1.00800000E+00
  1.60000000E+01  1.00800000E+00  1.00800000E+00  1.60000000E+01  1.00800000E+00
  1.00800000E+00  1.60000000E+01  1.00800000E+00  1.00800000E+00  1.60000000E+01
  1.00800000E+00  1.00800000E+00  1.60000000E+01  1.00800000E+00  1.00800000E+00
  1.60000000E+01  1.00800000E+00  1.00800000E+00  1.60000000E+01  1.00800000E+00
  1.00800000E+00  1.60000000E+01  1.00800000E+00  1.00800000E+00  1.60000000E+01
  1.00800000E+00  1.00800000E+00  1.60000000E+01  1.00800000E+00  1.00800000E+00
  1.60000000E+01  1.00800000E+00  1.00800000E+00  1.60000000E+01  1.00800000E+00
  1.00800000E+00  1.60000000E+01  1.00800000E+00  1.00800000E+00  1.60000000E+01
  1.00800000E+00  1.00800000E+00  1.60000000E+01  1.00800000E+00  1.00800000E+00
  1.60000000E+01  1.00800000E+00  1.00800000E+00  1.60000000E+01  1.00800000E+00
  1.00800000E+00  1.60000000E+01  1.00800000E+00  1.00800000E+00  1.60000000E+01
  1.00800000E+00  1.00800000E+00  1.60000000E+01  1.00800000E+00  1.00800000E+00
  1.60000000E+01  1.00800000E+00  1.00800000E+00  1.60000000E+01  1.00800000E+00
  1.00800000E+00  1.60000000E+01  1.00800000E+00  1.00800000E+00  1.60000000E+01
  1.00800000E+00  1.00800000E+00  1.60000000E+01  1.00800000E+00  1.00800000E+00
  1.60000000E+01  1.00800000E+00  1.00800000E+00  1.60000000E+01  1.00800000E+00
  1.00800000E+00  1.60000000E+01  1.00800000E+00  1.00800000E+00  1.60000000E+01
  1.00800000E+00  1.00800000E+00  1.60000000E+01  1.00800000E+00  1.00800000E+00
  1.60000000E+01  1.00800000E+00  1.00800000E+00  1.60000000E+01  1.00800000E+00
  1.00800000E+00  1.60000000E+01  1.00800000E+00  1.00800000E+00  1.60000000E+01
  1.00800000E+00  1.00800000E+00  1.60000000E+01  1.00800000E+00  1.00800000E+00
  1.60000000E+01  1.00800000E+00  1.00800000E+00  1.60000000E+01  1.00800000E+00
  1.00800000E+00  1.60000000E+01  1.00800000E+00  1.00800000E+00  1.60000000E+01
  1.00800000E+00  1.00800000E+00  1.60000000E+01  1.00800000E+00  1.00800000E+00
  1.60000000E+01  1.00800000E+00  1.00800000E+00  1.60000000E+01  1.00800000E+00
  1.00800000E+00  1.60000000E+01  1.00800000E+00  1.00800000E+00  1.60000000E+01
  1.00800000E+00  1.00800000E+00  1.60000000E+01  1.00800000E+00  1.00800000E+00
  1.60000000E+01  1.00800000E+00  1.00800000E+00  1.60000000E+01  1.00800000E+00
  1.00800000E+00  1.60000000E+01  1.00800000E+00  1.00800000E+00  1.60000000E+01
  1.00800000E+00  1.00800000E+00  1.60000000E+01  1.00800000E+00  1.00800000E+00
  1.60000000E+01  1.00800000E+00  1.00800000E+00  1.60000000E+01  1.00800000E+00
  1.00800000E+00  1.60000000E+01  1.00800000E+00  1.00800000E+00  1.60000000E+01
  1.00800000E+00  1.00800000E+00  1.60000000E+01  1.00800000E+00  1.00800000E+00
  1.60000000E+01  1.00800000E+00  1.00800000E+00  1.60000000E+01  1.00800000E+00
  1.00800000E+00  1.60000000E+01  1.00800000E+00  1.00800000E+00  1.60000000E+01
  1.00800000E+00  1.00800000E+00  1.60000000E+01  1.00800000E+00  1.00800000E+00
  1.60000000E+01  1.00800000E+00  1.00800000E+00  1.60000000E+01  1.00800000E+00
  1.00800000E+00  1.60000000E+01  1.00800000E+00  1.00800000E+00  1.60000000E+01
  1.00800000E+00  1.00800000E+00  1.60000000E+01  1.00800000E+00  1.00800000E+00
  1.60000000E+01  1.00800000E+00  1.00800000E+00  1.60000000E+01  1.00800000E+00
  1.00800000E+00  1.60000000E+01  1.00800000E+00  1.00800000E+00  1.60000000E+01
  1.00800000E+00  1.00800000E+00  1.60000000E+01  1.00800000E+00  1.00800000E+00
  1.60000000E+01  1.00800000E+00  1.00800000E+00  1.60000000E+01  1.00800000E+00
  1.00800000E+00  1.60000000E+01  1.00800000E+00  1.00800000E+00  1.60000000E+01
  1.00800000E+00  1.00800000E+00  1.60000000E+01  1.00800000E+00  1.00800000E+00
  1.60000000E+01  1.00800000E+00  1.00800000E+00  1.60000000E+01  1.00800000E+00
  1.00800000E+00  1.60000000E+01  1.00800000E+00  1.00800000E+00  1.60000000E+01
  1.00800000E+00  1.00800000E+00  1.60000000E+01  1.00800000E+00  1.00800000E+00
  1.60000000E+01  1.00800000E+00  1.00800000E+00  1.60000000E+01  1.00800000E+00
  1.00800000E+00  1.60000000E+01  1.00800000E+00  1.00800000E+00  1.60000000E+01
  1.00800000E+00  1.00800000E+00  1.60000000E+01  1.00800000E+00  1.00800000E+00
  1.60000000E+01  1.00800000E+00  1.00800000E+00  1.60000000E+01  1.00800000E+00
  1.00800000E+00  1.60000000E+01  1.00800000E+00  1.00800000E+00  1.60000000E+01
  1.00800000E+00  1.00800000E+00  1.60000000E+01  1.00800000E+00  1.00800000E+00
  1.60000000E+01  1.00800000E+00  1.00800000E+00  1.60000000E+01  1.00800000E+00
  1.00800000E+00  1.60000000E+01  1.00800000E+00  1.00800000E+00  1.60000000E+01
  1.00800000E+00  1.00800000E+00  1.60000000E+01  1.00800000E+00  1.00800000E+00
  1.60000000E+01  1.00800000E+00  1.00800000E+00  1.60000000E+01  1.00800000E+00
  1.00800000E+00  1.60000000E+01  1.00800000E+00  1.00800000E+00  1.60000000E+01
  1.00800000E+00  1.00800000E+00  1.60000000E+01  1.00800000E+00  1.00800000E+00
  1.60000000E+01  1.00800000E+00  1.00800000E+00  1.60000000E+01  1.00800000E+00
  1.00800000E+00  1.60000000E+01  1.00800000E+00  1.00800000E+00  1.60000000E+01
  1.00800000E+00  1.00800000E+00  1.60000000E+01  1.00800000E+00  1.00800000E+00
  1.60000000E+01  1.00800000E+00  1.00800000E+00  1.60000000E+01  1.00800000E+00
  1.00800000E+00  1.60000000E+01  1.00800000E+00  1.00800000E+00  1.60000000E+01
  1.00800000E+00  1.00800000E+00  1.60000000E+01  1.00800000E+00  1.00800000E+00
  1.60000000E+01  1.00800000E+00  1.00800000E+00  1.60000000E+01  1.00800000E+00
  1.00800000E+00  1.60000000E+01  1.00800000E+00  1.00800000E+00  1.60000000E+01
  1.00800000E+00  1.00800000E+00  1.60000000E+01  1.00800000E+00  1.00800000E+00
  1.60000000E+01  1.00800000E+00  1.00800000E+00  1.60000000E+01  1.00800000E+00
  1.00800000E+00  1.60000000E+01  1.00800000E+00  1.00800000E+00  1.60000000E+01
  1.00800000E+00  1.00800000E+00  1.60000000E+01  1.00800000E+00  1.00800000E+00
  1.60000000E+01  1.00800000E+00  1.00800000E+00  1.60000000E+01  1.00800000E+00
  1.00800000E+00  1.60000000E+01  1.00800000E+00  1.00800000E+00  1.60000000E+01
  1.00800000E+00  1.00800000E+00  1.60000000E+01  1.00800000E+00  1.00800000E+00
  1.60000000E+01  1.00800000E+00  1.00800000E+00  1.60000000E+01  1.00800000E+00
  1.00800000E+00  1.60000000E+01  1.00800000E+00  1.00800000E+00  1.60000000E+01
  1.00800000E+00  1.00800000E+00  1.60000000E+01  1.00800000E+00  1.00800000E+00
  1.60000000E+01  1.00800000E+00  1.00800000E+00  1.60000000E+01  1.00800000E+00
  1.00800000E+00  1.60000000E+01  1.00800000E+00  1.00800000E+00  1.60000000E+01
  1.00800000E+00  1.00800000E+00  1.60000000E+01  1.00800000E+00  1.00800000E+00
  1.60000000E+01  1.00800000E+00  1.00800000E+00  1.60000000E+01  1.00800000E+00
  1.00800000E+00  1.60000000E+01  1.00800000E+00  1.00800000E+00  1.60000000E+01
  1.00800000E+00  1.00800000E+00  1.60000000E+01  1.00800000E+00  1.00800000E+00
  1.60000000E+01  1.00800000E+00  1.00800000E+00  1.60000000E+01  1.00800000E+00
  1.00800000E+00  1.60000000E+01  1.00800000E+00  1.00800000E+00  1.60000000E+01
  1.00800000E+00  1.00800000E+00  1.60000000E+01  1.00800000E+00  1.00800000E+00
  1.60000000E+01  1.00800000E+00  1.00800000E+00  1.60000000E+01  1.00800000E+00
  1.00800000E+00  1.60000000E+01  1.00800000E+00  1.00800000E+00  1.60000000E+01
  1.00800000E+00  1.00800000E+00  1.60000000E+01  1.00800000E+00  1.00800000E+00
  1.60000000E+01  1.00800000E+00  1.00800000E+00  1.60000000E+01  1.00800000E+00
  1.00800000E+00  1.60000000E+01  1.00800000E+00  1.00800000E+00  1.60000000E+01
  1.00800000E+00  1.00800000E+00  1.60000000E+01  1.00800000E+00  1.00800000E+00
  1.60000000E+01  1.00800000E+00  1.00800000E+00  1.60000000E+01  1.00800000E+00
  1.00800000E+00  1.60000000E+01  1.00800000E+00  1.00800000E+00  1.60000000E+01
  1.00800000E+00  1.00800000E+00  1.60000000E+01  1.00800000E+00  1.00800000E+00
  1.60000000E+01  1.00800000E+00  1.00800000E+00  1.60000000E+01  1.00800000E+00
  1.00800000E+00  1.60000000E+01  1.00800000E+00  1.00800000E+00  1.60000000E+01
  1.00800000E+00  1.00800000E+00  1.60000000E+01  1.00800000E+00  1.00800000E+00
  1.60000000E+01  1.00800000E+00  1.00800000E+00  1.60000000E+01  1.00800000E+00
  1.00800000E+00  1.60000000E+01  1.00800000E+00  1.00800000E+00  1.60000000E+01
  1.00800000E+00  1.00800000E+00  1.60000000E+01  1.00800000E+00  1.00800000E+00
  1.60000000E+01  1.00800000E+00  1.00800000E+00  1.60000000E+01  1.00800000E+00
  1.00800000E+00  1.60000000E+01  1.00800000E+00  1.00800000E+00  1.60000000E+01
  1.00800000E+00  1.00800000E+00  1.60000000E+01  1.00800000E+00  1.00800000E+00
  1.60000000E+01  1.00800000E+00  1.00800000E+00  1.60000000E+01  1.00800000E+00
  1.00800000E+00  1.60000000E+01  1.00800000E+00  1.00800000E+00  1.60000000E+01
  1.00800000E+00  1.00800000E+00  1.60000000E+01  1.00800000E+00  1.00800000E+00
  1.60000000E+01  1.00800000E+00  1.00800000E+00  1.60000000E+01  1.00800000E+00
  1.00800000E+00  1.60000000E+01  1.00800000E+00  1.00800000E+00  1.60000000E+01
  1.00800000E+00  1.00800000E+00  1.60000000E+01  1.00800000E+00  1.00800000E+00
  1.60000000E+01  1.00800000E+00  1.00800000E+00  1.60000000E+01  1.00800000E+00
  1.00800000E+00  1.60000000E+01  1.00800000E+00  1.00800000E+00  1.60000000E+01
  1.00800000E+00  1.00800000E+00  1.60000000E+01  1.00800000E+00  1.00800000E+00
  1.60000000E+01  1.00800000E+00  1.00800000E+00  1.60000000E+01  1.00800000E+00
  1.00800000E+00  1.60000000E+01  1.00800000E+00  1.00800000E+00  1.60000000E+01
  1.00800000E+00  1.00800000E+00  1.60000000E+01  1.00800000E+00  1.00800000E+00
  1.60000000E+01  1.00800000E+00  1.00800000E+00  1.60000000E+01  1.00800000E+00
  1.00800000E+00  1.60000000E+01  1.00800000E+00  1.00800000E+00  1.60000000E+01
  1.00800000E+00  1.00800000E+00  1.60000000E+01  1.00800000E+00  1.00800000E+00
  1.60000000E+01  1.00800000E+00  1.00800000E+00  1.60000000E+01  1.00800000E+00
  1.00800000E+00  1.60000000E+01  1.00800000E+00  1.00800000E+00  1.60000000E+01
  1.00800000E+00  1.00800000E+00  1.60000000E+01  1.00800000E+00  1.00800000E+00
  1.60000000E+01  1.00800000E+00  1.00800000E+00  1.60000000E+01  1.00800000E+00
  1.00800000E+00  1.60000000E+01  1.00800000E+00  1.00800000E+00  1.60000000E+01
  1.00800000E+00  1.00800000E+00  1.60000000E+01  1.00800000E+00  1.00800000E+00
  1.60000000E+01  1.00800000E+00  1.00800000E+00  1.60000000E+01  1.00800000E+00
  1.00800000E+00  1.60000000E+01  1.00800000E+00  1.00800000E+00  1.60000000E+01
  1.00800000E+00  1.00800000E+00  1.60000000E+01  1.00800000E+00  1.00800000E+00
  1.60000000E+01  1.00800000E+00  1.00800000E+00  1.60000000E+01  1.00800000E+00
  1.00800000E+00  1.60000000E+01  1.00800000E+00  1.00800000E+00  1.60000000E+01
  1.00800000E+00  1.00800000E+00  1.60000000E+01  1.00800000E+00  1.00800000E+00
  1.60000000E+01  1.00800000E+00  1.00800000E+00  1.60000000E+01  1.00800000E+00
  1.00800000E+00  1.60000000E+01  1.00800000E+00  1.00800000E+00  1.60000000E+01
  1.00800000E+00  1.00800000E+00  1.60000000E+01  1.00800000E+00  1.00800000E+00
  1.60000000E+01  1.00800000E+00  1.00800000E+00  1.60000000E+01  1.00800000E+00
  1.00800000E+00  1.60000000E+01  1.00800000E+00  1.00800000E+00  1.60000000E+01
  1.00800000E+00  1.00800000E+00  1.60000000E+01  1.00800000E+00  1.00800000E+00
  1.60000000E+01  1.00800000E+00  1.00800000E+00  1.60000000E+01  1.00800000E+00
  1.00800000E+00  1.60000000E+01  1.00800000E+00  1.00800000E+00  1.60000000E+01
  1.00800000E+00  1.00800000E+00  1.60000000E+01  1.00800000E+00  1.00800000E+00
  1.60000000E+01  1.00800000E+00  1.00800000E+00  1.60000000E+01  1.00800000E+00
  1.00800000E+00  1.60000000E+01  1.00800000E+00  1.00800000E+00  1.60000000E+01
  1.00800000E+00  1.00800000E+00  1.60000000E+01  1.00800000E+00  1.00800000E+00
  1.60000000E+01  1.00800000E+00  1.00800000E+00  1.60000000E+01  1.00800000E+00
  1.00800000E+00  1.60000000E+01  1.00800000E+00  1.00800000E+00  1.60000000E+01
  1.00800000E+00  1.00800000E+00  1.60000000E+01  1.00800000E+00  1.00800000E+00
  1.60000000E+01  1.00800000E+00  1.00800000E+00  1.60000000E+01  1.00800000E+00
  1.00800000E+00  1.60000000E+01  1.00800000E+00  1.00800000E+00  1.60000000E+01
  1.00800000E+00  1.00800000E+00  1.60000000E+01  1.00800000E+00  1.00800000E+00
  1.60000000E+01  1.00800000E+00  1.00800000E+00  1.60000000E+01  1.00800000E+00
  1.00800000E+00  1.60000000E+01  1.00800000E+00  1.00800000E+00  1.60000000E+01
  1.00800000E+00  1.00800000E+00  1.60000000E+01  1.00800000E+00  1.00800000E+00
  1.60000000E+01  1.00800000E+00  1.00800000E+00  1.60000000E+01  1.00800000E+00
  1.00800000E+00  1.60000000E+01  1.00800000E+00  1.00800000E+00  1.60000000E+01
  1.00800000E+00  1.00800000E+00  1.60000000E+01  1.00800000E+00  1.00800000E+00
  1.60000000E+01  1.00800000E+00  1.00800000E+00  1.60000000E+01  1.00800000E+00
  1.00800000E+00  1.60000000E+01  1.00800000E+00  1.00800000E+00  1.60000000E+01
  1.00800000E+00  1.00800000E+00  1.60000000E+01  1.00800000E+00  1.00800000E+00
  1.60000000E+01  1.00800000E+00  1.00800000E+00  1.60000000E+01  1.00800000E+00
  1.00800000E+00  1.60000000E+01  1.00800000E+00  1.00800000E+00  1.60000000E+01
  1.00800000E+00  1.00800000E+00  1.60000000E+01  1.00800000E+00  1.00800000E+00
  1.60000000E+01  1.00800000E+00  1.00800000E+00  1.60000000E+01  1.00800000E+00
  1.00800000E+00  1.60000000E+01  1.00800000E+00  1.00800000E+00  1.60000000E+01
  1.00800000E+00  1.00800000E+00  1.60000000E+01  1.00800000E+00  1.00800000E+00
  1.60000000E+01  1.00800000E+00  1.00800000E+00  1.60000000E+01  1.00800000E+00
  1.00800000E+00  1.60000000E+01  1.00800000E+00  1.00800000E+00  1.60000000E+01
  1.00800000E+00  1.00800000E+00  1.60000000E+01  1.00800000E+00  1.00800000E+00
  1.60000000E+01  1.00800000E+00  1.00800000E+00  1.60000000E+01  1.00800000E+00
  1.00800000E+00  1.60000000E+01  1.00800000E+00  1.00800000E+00  1.60000000E+01
  1.00800000E+00  1.00800000E+00  1.60000000E+01  1.00800000E+00  1.00800000E+00
  1.60000000E+01  1.00800000E+00  1.00800000E+00  1.60000000E+01  1.00800000E+00
  1.00800000E+00  1.60000000E+01  1.00800000E+00  1.00800000E+00  1.60000000E+01
  1.00800000E+00  1.00800000E+00  1.60000000E+01  1.00800000E+00  1.00800000E+00
  1.60000000E+01  1.00800000E+00  1.00800000E+00  1.60000000E+01  1.00800000E+00
  1.00800000E+00  1.60000000E+01  1.00800000E+00  1.00800000E+00  1.60000000E+01
  1.00800000E+00  1.00800000E+00  1.60000000E+01  1.00800000E+00  1.00800000E+00
  1.60000000E+01  1.00800000E+00  1.00800000E+00  1.60000000E+01  1.00800000E+00
  1.00800000E+00  1.60000000E+01  1.00800000E+00  1.00800000E+00  1.60000000E+01
  1.00800000E+00  1.00800000E+00  1.60000000E+01  1.00800000E+00  1.00800000E+00
  1.60000000E+01  1.00800000E+00  1.00800000E+00  1.60000000E+01  1.00800000E+00
  1.00800000E+00  1.60000000E+01  1.00800000E+00  1.00800000E+00  1.60000000E+01
  1.00800000E+00  1.00800000E+00  1.60000000E+01  1.00800000E+00  1.00800000E+00
  1.60000000E+01  1.00800000E+00  1.00800000E+00  1.60000000E+01  1.00800000E+00
  1.00800000E+00  1.60000000E+01  1.00800000E+00  1.00800000E+00  1.60000000E+01
  1.00800000E+00  1.00800000E+00  1.60000000E+01  1.00800000E+00  1.00800000E+00
  1.60000000E+01  1.00800000E+00  1.00800000E+00  1.60000000E+01  1.00800000E+00
  1.00800000E+00  1.60000000E+01  1.00800000E+00  1.00800000E+00  1.60000000E+01
  1.00800000E+00  1.00800000E+00  1.60000000E+01  1.00800000E+00  1.00800000E+00
  1.60000000E+01  1.00800000E+00  1.00800000E+00  1.60000000E+01  1.00800000E+00
  1.00800000E+00  1.60000000E+01  1.00800000E+00  1.00800000E+00  1.60000000E+01
  1.00800000E+00  1.00800000E+00  1.60000000E+01  1.00800000E+00  1.00800000E+00
  1.60000000E+01  1.00800000E+00  1.00800000E+00  1.60000000E+01  1.00800000E+00
  1.00800000E+00  1.60000000E+01  1.00800000E+00  1.00800000E+00  1.60000000E+01
  1.00800000E+00  1.00800000E+00  1.60000000E+01  1.00800000E+00  1.00800000E+00
  1.60000000E+01  1.00800000E+00  1.00800000E+00  1.60000000E+01  1.00800000E+00
  1.00800000E+00  1.60000000E+01  1.00800000E+00  1.00800000E+00  1.60000000E+01
  1.00800000E+00  1.00800000E+00  1.60000000E+01  1.00800000E+00  1.00800000E+00
  1.60000000E+01  1.00800000E+00  1.00800000E+00  1.60000000E+01  1.00800000E+00
  1.00800000E+00  1.60000000E+01  1.00800000E+00  1.00800000E+00  1.60000000E+01
  1.00800000E+00  1.00800000E+00  1.60000000E+01  1.00800000E+00  1.00800000E+00
  1.60000000E+01  1.00800000E+00  1.00800000E+00  1.60000000E+01  1.00800000E+00
  1.00800000E+00  1.60000000E+01  1.00800000E+00  1.00800000E+00  1.60000000E+01
  1.00800000E+00  1.00800000E+00  1.60000000E+01  1.00800000E+00  1.00800000E+00
  1.60000000E+01  1.00800000E+00  1.00800000E+00  1.60000000E+01  1.00800000E+00
  1.00800000E+00  1.60000000E+01  1.00800000E+00  1.00800000E+00  1.60000000E+01
  1.00800000E+00  1.00800000E+00  1.60000000E+01  1.00800000E+00  1.00800000E+00
  1.60000000E+01  1.00800000E+00  1.00800000E+00  1.60000000E+01  1.00800000E+00
  1.00800000E+00  1.60000000E+01  1.00800000E+00  1.00800000E+00  1.60000000E+01
  1.00800000E+00  1.00800000E+00  1.60000000E+01  1.00800000E+00  1.00800000E+00
  1.60000000E+01  1.00800000E+00  1.00800000E+00  1.60000000E+01  1.00800000E+00
  1.00800000E+00  1.60000000E+01  1.00800000E+00  1.00800000E+00  1.60000000E+01
  1.00800000E+00  1.00800000E+00  1.60000000E+01  1.00800000E+00  1.00800000E+00
  1.60000000E+01  1.00800000E+00  1.00800000E+00  1.60000000E+01  1.00800000E+00
  1.00800000E+00  1.60000000E+01  1.00800000E+00  1.00800000E+00  1.60000000E+01
  1.00800000E+00  1.00800000E+00  1.60000000E+01  1.00800000E+00  1.00800000E+00
  1.60000000E+01  1.00800000E+00  1.00800000E+00  1.60000000E+01  1.00800000E+00
  1.00800000E+00  1.60000000E+01  1.00800000E+00  1.00800000E+00  1.60000000E+01
  1.00800000E+00  1.00800000E+00  1.60000000E+01  1.00800000E+00  1.00800000E+00
  1.60000000E+01  1.00800000E+00  1.00800000E+00  1.60000000E+01  1.00800000E+00
  1.00800000E+00  1.60000000E+01  1.00800000E+00  1.00800000E+00  1.60000000E+01
  1.00800000E+00  1.00800000E+00  1.60000000E+01  1.00800000E+00  1.00800000E+00
  1.60000000E+01  1.00800000E+00  1.00800000E+00  1.60000000E+01  1.00800000E+00
  1.00800000E+00  1.60000000E+01  1.00800000E+00  1.00800000E+00  1.60000000E+01
  1.00800000E+00  1.00800000E+00  1.60000000E+01  1.00800000E+00  1.00800000E+00
  1.60000000E+01  1.00800000E+00  1.00800000E+00  1.60000000E+01  1.00800000E+00
  1.00800000E+00  1.60000000E+01  1.00800000E+00  1.00800000E+00  1.60000000E+01
  1.00800000E+00  1.00800000E+00  1.60000000E+01  1.00800000E+00  1.00800000E+00
  1.60000000E+01  1.00800000E+00  1.00800000E+00  1.60000000E+01  1.00800000E+00
  1.00800000E+00  1.60000000E+01  1.00800000E+00  1.00800000E+00  1.60000000E+01
  1.00800000E+00  1.00800000E+00  1.60000000E+01  1.00800000E+00  1.00800000E+00
  1.60000000E+01  1.00800000E+00  1.00800000E+00  1.60000000E+01  1.00800000E+00
  1.00800000E+00  1.60000000E+01  1.00800000E+00  1.00800000E+00  1.60000000E+01
  1.00800000E+00  1.00800000E+00  1.60000000E+01  1.00800000E+00  1.00800000E+00
  1.60000000E+01  1.00800000E+00  1.00800000E+00  1.60000000E+01  1.00800000E+00
  1.00800000E+00  1.60000000E+01  1.00800000E+00  1.00800000E+00  1.60000000E+01
  1.00800000E+00  1.00800000E+00  1.60000000E+01  1.00800000E+00  1.00800000E+00
  1.60000000E+01  1.00800000E+00  1.00800000E+00  1.60000000E+01  1.00800000E+00
  1.00800000E+00  1.60000000E+01  1.00800000E+00  1.00800000E+00  1.60000000E+01
  1.00800000E+00  1.00800000E+00  1.60000000E+01  1.00800000E+00  1.00800000E+00
  1.60000000E+01  1.00800000E+00  1.00800000E+00  1.60000000E+01  1.00800000E+00
  1.00800000E+00  1.60000000E+01  1.00800000E+00  1.00800000E+00  1.60000000E+01
  1.00800000E+00  1.00800000E+00  1.60000000E+01  1.00800000E+00  1.00800000E+00
  1.60000000E+01  1.00800000E+00  1.00800000E+00  1.60000000E+01  1.00800000E+00
  1.00800000E+00  1.60000000E+01  1.00800000E+00  1.00800000E+00  1.60000000E+01
  1.00800000E+00  1.00800000E+00  1.60000000E+01  1.00800000E+00  1.00800000E+00
  1.60000000E+01  1.00800000E+00  1.00800000E+00  1.60000000E+01  1.00800000E+00
  1.00800000E+00  1.60000000E+01  1.00800000E+00  1.00800000E+00  1.60000000E+01
  1.00800000E+00  1.00800000E+00  1.60000000E+01  1.00800000E+00  1.00800000E+00
  1.60000000E+01  1.00800000E+00  1.00800000E+00  1.60000000E+01  1.00800000E+00
  1.00800000E+00  1.60000000E+01  1.00800000E+00  1.00800000E+00  1.60000000E+01
  1.00800000E+00  1.00800000E+00  1.60000000E+01  1.00800000E+00  1.00800000E+00
  1.60000000E+01  1.00800000E+00  1.00800000E+00  1.60000000E+01  1.00800000E+00
  1.00800000E+00  1.60000000E+01  1.00800000E+00  1.00800000E+00  1.60000000E+01
  1.00800000E+00  1.00800000E+00  1.60000000E+01  1.00800000E+00  1.00800000E+00
  1.60000000E+01  1.00800000E+00  1.00800000E+00  1.60000000E+01  1.00800000E+00
  1.00800000E+00  1.60000000E+01  1.00800000E+00  1.00800000E+00  1.60000000E+01
  1.00800000E+00  1.00800000E+00  1.60000000E+01  1.00800000E+00  1.00800000E+00
  1.60000000E+01  1.00800000E+00  1.00800000E+00  1.60000000E+01  1.00800000E+00
  1.00800000E+00  1.60000000E+01  1.00800000E+00  1.00800000E+00  1.60000000E+01
  1.00800000E+00  1.00800000E+00  1.60000000E+01  1.00800000E+00  1.00800000E+00
  1.60000000E+01  1.00800000E+00  1.00800000E+00  1.60000000E+01  1.00800000E+00
  1.00800000E+00  1.60000000E+01  1.00800000E+00  1.00800000E+00  1.60000000E+01
  1.00800000E+00  1.00800000E+00  1.60000000E+01  1.00800000E+00  1.00800000E+00
  1.60000000E+01  1.00800000E+00  1.00800000E+00  1.60000000E+01  1.00800000E+00
  1.00800000E+00  1.60000000E+01  1.00800000E+00  1.00800000E+00  1.60000000E+01
  1.00800000E+00  1.00800000E+00  1.60000000E+01  1.00800000E+00  1.00800000E+00
  1.60000000E+01  1.00800000E+00  1.00800000E+00  1.60000000E+01  1.00800000E+00
  1.00800000E+00  1.60000000E+01  1.00800000E+00  1.00800000E+00  1.60000000E+01
  1.00800000E+00  1.00800000E+00  1.60000000E+01  1.00800000E+00  1.00800000E+00
  1.60000000E+01  1.00800000E+00  1.00800000E+00  1.60000000E+01  1.00800000E+00
  1.00800000E+00  1.60000000E+01  1.00800000E+00  1.00800000E+00  1.60000000E+01
  1.00800000E+00  1.00800000E+00  1.60000000E+01  1.00800000E+00  1.00800000E+00
  1.60000000E+01  1.00800000E+00  1.00800000E+00  1.60000000E+01  1.00800000E+00
  1.00800000E+00  1.60000000E+01  1.00800000E+00  1.00800000E+00  1.60000000E+01
  1.00800000E+00  1.00800000E+00  1.60000000E+01  1.00800000E+00  1.00800000E+00
  1.60000000E+01  1.00800000E+00  1.00800000E+00  1.60000000E+01  1.00800000E+00
  1.00800000E+00  1.60000000E+01  1.00800000E+00  1.00800000E+00  1.60000000E+01
  1.00800000E+00  1.00800000E+00  1.60000000E+01  1.00800000E+00  1.00800000E+00
  1.60000000E+01  1.00800000E+00  1.00800000E+00  1.60000000E+01  1.00800000E+00
  1.00800000E+00  1.60000000E+01  1.00800000E+00  1.00800000E+00  1.60000000E+01
  1.00800000E+00  1.00800000E+00  1.60000000E+01  1.00800000E+00  1.00800000E+00
  1.60000000E+01  1.00800000E+00  1.00800000E+00  1.60000000E+01  1.00800000E+00
  1.00800000E+00  1.60000000E+01  1.00800000E+00  1.00800000E+00  1.60000000E+01
  1.00800000E+00  1.00800000E+00  1.60000000E+01  1.00800000E+00  1.00800000E+00
  1.60000000E+01  1.00800000E+00  1.00800000E+00  1.60000000E+01  1.00800000E+00
  1.00800000E+00  1.60000000E+01  1.00800000E+00  1.00800000E+00  1.60000000E+01
  1.00800000E+00  1.00800000E+00  1.60000000E+01  1.00800000E+00  1.00800000E+00
  1.60000000E+01  1.00800000E+00  1.00800000E+00  1.60000000E+01  1.00800000E+00
  1.00800000E+00  1.60000000E+01  1.00800000E+00  1.00800000E+00  1.60000000E+01
  1.00800000E+00  1.00800000E+00  1.60000000E+01  1.00800000E+00  1.00800000E+00
  1.60000000E+01  1.00800000E+00  1.00800000E+00  1.60000000E+01  1.00800000E+00
  1.00800000E+00  1.60000000E+01  1.00800000E+00  1.00800000E+00  1.60000000E+01
  1.00800000E+00  1.00800000E+00  1.60000000E+01  1.00800000E+00  1.00800000E+00
  1.60000000E+01  1.00800000E+00  1.00800000E+00  1.60000000E+01  1.00800000E+00
  1.00800000E+00  1.60000000E+01  1.00800000E+00  1.00800000E+00  1.60000000E+01
  1.00800000E+00  1.00800000E+00  1.60000000E+01  1.00800000E+00  1.00800000E+00
  1.60000000E+01  1.00800000E+00  1.00800000E+00  1.60000000E+01  1.00800000E+00
  1.00800000E+00  1.60000000E+01  1.00800000E+00  1.00800000E+00  1.60000000E+01
  1.00800000E+00  1.00800000E+00  1.60000000E+01  1.00800000E+00  1.00800000E+00
  1.60000000E+01  1.00800000E+00  1.00800000E+00  1.60000000E+01  1.00800000E+00
  1.00800000E+00  1.60000000E+01  1.00800000E+00  1.00800000E+00  1.60000000E+01
  1.00800000E+00  1.00800000E+00  1.60000000E+01  1.00800000E+00  1.00800000E+00
  1.60000000E+01  1.00800000E+00  1.00800000E+00  1.60000000E+01  1.00800000E+00
  1.00800000E+00  1.60000000E+01  1.00800000E+00  1.00800000E+00  1.60000000E+01
  1.00800000E+00  1.00800000E+00  1.60000000E+01  1.00800000E+00  1.00800000E+00
  1.60000000E+01  1.00800000E+00  1.00800000E+00  1.60000000E+01  1.00800000E+00
  1.00800000E+00  1.60000000E+01  1.00800000E+00  1.00800000E+00  1.60000000E+01
  1.00800000E+00  1.00800000E+00  1.60000000E+01  1.00800000E+00  1.00800000E+00
  1.60000000E+01  1.00800000E+00  1.00800000E+00  1.60000000E+01  1.00800000E+00
  1.00800000E+00  1.60000000E+01  1.00800000E+00  1.00800000E+00  1.60000000E+01
  1.00800000E+00  1.00800000E+00  1.60000000E+01  1.00800000E+00  1.00800000E+00
  1.60000000E+01  1.00800000E+00  1.00800000E+00  1.60000000E+01  1.00800000E+00
  1.00800000E+00  1.60000000E+01  1.00800000E+00  1.00800000E+00  1.60000000E+01
  1.00800000E+00  1.00800000E+00  1.60000000E+01  1.00800000E+00  1.00800000E+00
  1.60000000E+01  1.00800000E+00  1.00800000E+00  1.60000000E+01  1.00800000E+00
  1.00800000E+00  1.60000000E+01  1.00800000E+00  1.00800000E+00  1.60000000E+01
  1.00800000E+00  1.00800000E+00  1.60000000E+01  1.00800000E+00  1.00800000E+00
  1.60000000E+01  1.00800000E+00  1.00800000E+00  1.60000000E+01  1.00800000E+00
  1.00800000E+00  1.60000000E+01  1.00800000E+00  1.00800000E+00  1.60000000E+01
  1.00800000E+00  1.00800000E+00  1.60000000E+01  1.00800000E+00  1.00800000E+00
  1.60000000E+01  1.00800000E+00  1.00800000E+00  1.60000000E+01  1.00800000E+00
  1.00800000E+00  1.60000000E+01  1.00800000E+00  1.00800000E+00  1.60000000E+01
  1.00800000E+00  1.00800000E+00  1.60000000E+01  1.00800000E+00  1.00800000E+00
  1.60000000E+01  1.00800000E+00  1.00800000E+00  1.60000000E+01  1.00800000E+00
  1.00800000E+00  1.60000000E+01  1.00800000E+00  1.00800000E+00  1.60000000E+01
  1.00800000E+00  1.00800000E+00  1.60000000E+01  1.00800000E+00  1.00800000E+00
  1.60000000E+01  1.00800000E+00  1.00800000E+00  1.60000000E+01  1.00800000E+00
  1.00800000E+00  1.60000000E+01  1.00800000E+00  1.00800000E+00  1.60000000E+01
  1.00800000E+00  1.00800000E+00  1.60000000E+01  1.00800000E+00  1.00800000E+00
  1.60000000E+01  1.00800000E+00  1.00800000E+00  1.60000000E+01  1.00800000E+00
  1.00800000E+00  1.60000000E+01  1.00800000E+00  1.00800000E+00  1.60000000E+01
  1.00800000E+00  1.00800000E+00  1.60000000E+01  1.00800000E+00  1.00800000E+00
  1.60000000E+01  1.00800000E+00  1.00800000E+00  1.60000000E+01  1.00800000E+00
  1.00800000E+00  1.60000000E+01  1.00800000E+00  1.00800000E+00  1.60000000E+01
  1.00800000E+00  1.00800000E+00  1.60000000E+01  1.00800000E+00  1.00800000E+00
  1.60000000E+01  1.00800000E+00  1.00800000E+00  1.60000000E+01  1.00800000E+00
  1.00800000E+00  1.60000000E+01  1.00800000E+00  1.00800000E+00  1.60000000E+01
  1.00800000E+00  1.00800000E+00  1.60000000E+01  1.00800000E+00  1.00800000E+00
  1.60000000E+01  1.00800000E+00  1.00800000E+00  1.60000000E+01  1.00800000E+00
  1.00800000E+00  1.60000000E+01  1.00800000E+00  1.00800000E+00  1.60000000E+01
  1.00800000E+00  1.00800000E+00  1.60000000E+01  1.00800000E+00  1.00800000E+00
  1.60000000E+01  1.00800000E+00  1.00800000E+00  1.60000000E+01  1.00800000E+00
  1.00800000E+00  1.60000000E+01  1.00800000E+00  1.00800000E+00  1.60000000E+01
  1.00800000E+00  1.00800000E+00  1.60000000E+01  1.00800000E+00  1.00800000E+00
  1.60000000E+01  1.00800000E+00  1.00800000E+00  1.60000000E+01  1.00800000E+00
  1.00800000E+00  1.60000000E+01  1.00800000E+00  1.00800000E+00  1.60000000E+01
  1.00800000E+00  1.00800000E+00  1.60000000E+01  1.00800000E+00  1.00800000E+00
  1.60000000E+01  1.00800000E+00  1.00800000E+00  1.60000000E+01  1.00800000E+00
  1.00800000E+00  1.60000000E+01  1.00800000E+00  1.00800000E+00  1.60000000E+01
  1.00800000E+00  1.00800000E+00  1.60000000E+01  1.00800000E+00  1.00800000E+00
  1.60000000E+01  1.00800000E+00  1.00800000E+00  1.60000000E+01  1.00800000E+00
  1.00800000E+00  1.60000000E+01  1.00800000E+00  1.00800000E+00  1.60000000E+01
  1.00800000E+00  1.00800000E+00  1.60000000E+01  1.00800000E+00  1.00800000E+00
  1.60000000E+01  1.00800000E+00  1.00800000E+00  1.60000000E+01  1.00800000E+00
  1.00800000E+00  1.60000000E+01  1.00800000E+00  1.00800000E+00  1.60000000E+01
  1.00800000E+00  1.00800000E+00  1.60000000E+01  1.00800000E+00  1.00800000E+00
  1.60000000E+01  1.00800000E+00  1.00800000E+00  1.60000000E+01  1.00800000E+00
  1.00800000E+00  1.60000000E+01  1.00800000E+00  1.00800000E+00  1.60000000E+01
  1.00800000E+00  1.00800000E+00  1.60000000E+01  1.00800000E+00  1.00800000E+00
  1.60000000E+01  1.00800000E+00  1.00800000E+00  1.60000000E+01  1.00800000E+00
  1.00800000E+00  1.60000000E+01  1.00800000E+00  1.00800000E+00  1.60000000E+01
  1.00800000E+00  1.00800000E+00  1.60000000E+01  1.00800000E+00  1.00800000E+00
  1.60000000E+01  1.00800000E+00  1.00800000E+00  1.60000000E+01  1.00800000E+00
  1.00800000E+00  1.60000000E+01  1.00800000E+00  1.00800000E+00  1.60000000E+01
  1.00800000E+00  1.00800000E+00  1.60000000E+01  1.00800000E+00  1.00800000E+00
  1.60000000E+01  1.00800000E+00  1.00800000E+00  1.60000000E+01  1.00800000E+00
  1.00800000E+00  1.60000000E+01  1.00800000E+00  1.00800000E+00  1.60000000E+01
  1.00800000E+00  1.00800000E+00  1.60000000E+01  1.00800000E+00  1.00800000E+00
  1.60000000E+01  1.00800000E+00  1.00800000E+00  1.60000000E+01  1.00800000E+00
  1.00800000E+00  1.60000000E+01  1.00800000E+00  1.00800000E+00  1.60000000E+01
  1.00800000E+00  1.00800000E+00  1.60000000E+01  1.00800000E+00  1.00800000E+00
  1.60000000E+01  1.00800000E+00  1.00800000E+00  1.60000000E+01  1.00800000E+00
  1.00800000E+00  1.60000000E+01  1.00800000E+00  1.00800000E+00  1.60000000E+01
  1.00800000E+00  1.00800000E+00  1.60000000E+01  1.00800000E+00  1.00800000E+00
  1.60000000E+01  1.00800000E+00  1.00800000E+00  1.60000000E+01  1.00800000E+00
  1.00800000E+00  1.60000000E+01  1.00800000E+00  1.00800000E+00  1.60000000E+01
  1.00800000E+00  1.00800000E+00  1.60000000E+01  1.00800000E+00  1.00800000E+00
  1.60000000E+01  1.00800000E+00  1.00800000E+00  1.60000000E+01  1.00800000E+00
  1.00800000E+00  1.60000000E+01  1.00800000E+00  1.00800000E+00  1.60000000E+01
  1.00800000E+00  1.00800000E+00  1.60000000E+01  1.00800000E+00  1.00800000E+00
  1.60000000E+01  1.00800000E+00  1.00800000E+00  1.60000000E+01  1.00800000E+00
  1.00800000E+00  1.60000000E+01  1.00800000E+00  1.00800000E+00  1.60000000E+01
  1.00800000E+00  1.00800000E+00  1.60000000E+01  1.00800000E+00  1.00800000E+00
  1.60000000E+01  1.00800000E+00  1.00800000E+00  1.60000000E+01  1.00800000E+00
  1.00800000E+00  1.60000000E+01  1.00800000E+00  1.00800000E+00  1.60000000E+01
  1.00800000E+00  1.00800000E+00  1.60000000E+01  1.00800000E+00  1.00800000E+00
  1.60000000E+01  1.00800000E+00  1.00800000E+00  1.60000000E+01  1.00800000E+00
  1.00800000E+00  1.60000000E+01  1.00800000E+00  1.00800000E+00  1.60000000E+01
  1.00800000E+00  1.00800000E+00  1.60000000E+01  1.00800000E+00  1.00800000E+00
  1.60000000E+01  1.00800000E+00  1.00800000E+00  1.60000000E+01  1.00800000E+00
  1.00800000E+00  1.60000000E+01  1.00800000E+00  1.00800000E+00  1.60000000E+01
  1.00800000E+00  1.00800000E+00  1.60000000E+01  1.00800000E+00  1.00800000E+00
  1.60000000E+01  1.00800000E+00  1.00800000E+00  1.60000000E+01  1.00800000E+00
  1.00800000E+00  1.60000000E+01  1.00800000E+00  1.00800000E+00  1.60000000E+01
  1.00800000E+00  1.00800000E+00  1.60000000E+01  1.00800000E+00  1.00800000E+00
  1.60000000E+01  1.00800000E+00  1.00800000E+00  1.60000000E+01  1.00800000E+00
  1.00800000E+00  1.60000000E+01  1.00800000E+00  1.00800000E+00  1.60000000E+01
  1.00800000E+00  1.00800000E+00  1.60000000E+01  1.00800000E+00  1.00800000E+00
  1.60000000E+01  1.00800000E+00  1.00800000E+00  1.60000000E+01  1.00800000E+00
  1.00800000E+00  1.60000000E+01  1.00800000E+00  1.00800000E+00  1.60000000E+01
  1.00800000E+00  1.00800000E+00  1.60000000E+01  1.00800000E+00  1.00800000E+00
  1.60000000E+01  1.00800000E+00  1.00800000E+00  1.60000000E+01  1.00800000E+00
  1.00800000E+00  1.60000000E+01  1.00800000E+00  1.00800000E+00  1.60000000E+01
  1.00800000E+00  1.00800000E+00  1.60000000E+01  1.00800000E+00  1.00800000E+00
  1.60000000E+01  1.00800000E+00  1.00800000E+00  1.60000000E+01  1.00800000E+00
  1.00800000E+00  1.60000000E+01  1.00800000E+00  1.00800000E+00  1.60000000E+01
  1.00800000E+00  1.00800000E+00  1.60000000E+01  1.00800000E+00  1.00800000E+00
  1.60000000E+01  1.00800000E+00  1.00800000E+00  1.60000000E+01  1.00800000E+00
  1.00800000E+00  1.60000000E+01  1.00800000E+00  1.00800000E+00  1.60000000E+01
  1.00800000E+00  1.00800000E+00  1.60000000E+01  1.00800000E+00  1.00800000E+00
  1.60000000E+01  1.00800000E+00  1.00800000E+00  1.60000000E+01  1.00800000E+00
  1.00800000E+00  1.60000000E+01  1.00800000E+00  1.00800000E+00  1.60000000E+01
  1.00800000E+00  1.00800000E+00  1.60000000E+01  1.00800000E+00  1.00800000E+00
  1.60000000E+01  1.00800000E+00  1.00800000E+00  1.60000000E+01  1.00800000E+00
  1.00800000E+00  1.60000000E+01  1.00800000E+00  1.00800000E+00  1.60000000E+01
  1.00800000E+00  1.00800000E+00  1.60000000E+01  1.00800000E+00  1.00800000E+00
  1.60000000E+01  1.00800000E+00  1.00800000E+00  1.60000000E+01  1.00800000E+00
  1.00800000E+00  1.60000000E+01  1.00800000E+00  1.00800000E+00  1.60000000E+01
  1.00800000E+00  1.00800000E+00  1.60000000E+01  1.00800000E+00  1.00800000E+00
  1.60000000E+01  1.00800000E+00  1.00800000E+00  1.60000000E+01  1.00800000E+00
  1.00800000E+00  1.60000000E+01  1.00800000E+00  1.00800000E+00  1.60000000E+01
  1.00800000E+00  1.00800000E+00  1.60000000E+01  1.00800000E+00  1.00800000E+00
  1.60000000E+01  1.00800000E+00  1.00800000E+00  1.60000000E+01  1.00800000E+00
  1.00800000E+00  1.60000000E+01  1.00800000E+00  1.00800000E+00  1.60000000E+01
  1.00800000E+00  1.00800000E+00  1.60000000E+01  1.00800000E+00  1.00800000E+00
  1.60000000E+01  1.00800000E+00  1.00800000E+00  1.60000000E+01  1.00800000E+00
  1.00800000E+00  1.60000000E+01  1.00800000E+00  1.00800000E+00  1.60000000E+01
  1.00800000E+00  1.00800000E+00  1.60000000E+01  1.00800000E+00  1.00800000E+00
  1.60000000E+01  1.00800000E+00  1.00800000E+00  1.60000000E+01  1.00800000E+00
  1.00800000E+00  1.60000000E+01  1.00800000E+00  1.00800000E+00  1.60000000E+01
  1.00800000E+00  1.00800000E+00  1.60000000E+01  1.00800000E+00  1.00800000E+00
  1.60000000E+01  1.00800000E+00  1.00800000E+00  1.60000000E+01  1.00800000E+00
  1.00800000E+00  1.60000000E+01  1.00800000E+00  1.00800000E+00  1.60000000E+01
  1.00800000E+00  1.00800000E+00  1.60000000E+01  1.00800000E+00  1.00800000E+00
  1.60000000E+01  1.00800000E+00  1.00800000E+00  1.60000000E+01  1.00800000E+00
  1.00800000E+00  1.60000000E+01  1.00800000E+00  1.00800000E+00  1.60000000E+01
  1.00800000E+00  1.00800000E+00  1.60000000E+01  1.00800000E+00  1.00800000E+00
  1.60000000E+01  1.00800000E+00  1.00800000E+00  1.60000000E+01  1.00800000E+00
  1.00800000E+00  1.60000000E+01  1.00800000E+00  1.00800000E+00  1.60000000E+01
  1.00800000E+00  1.00800000E+00  1.60000000E+01  1.00800000E+00  1.00800000E+00
  1.60000000E+01  1.00800000E+00  1.00800000E+00  1.60000000E+01  1.00800000E+00
  1.00800000E+00  1.60000000E+01  1.00800000E+00  1.00800000E+00  1.60000000E+01
  1.00800000E+00  1.00800000E+00  1.60000000E+01  1.00800000E+00  1.00800000E+00
  1.60000000E+01  1.00800000E+00  1.00800000E+00  1.60000000E+01  1.00800000E+00
  1.00800000E+00  1.60000000E+01  1.00800000E+00  1.00800000E+00  1.60000000E+01
  1.00800000E+00  1.00800000E+00  1.60000000E+01  1.00800000E+00  1.00800000E+00
  1.60000000E+01  1.00800000E+00  1.00800000E+00  1.60000000E+01  1.00800000E+00
  1.00800000E+00  1.60000000E+01  1.00800000E+00  1.00800000E+00  1.60000000E+01
  1.00800000E+00  1.00800000E+00  1.60000000E+01  1.00800000E+00  1.00800000E+00
  1.60000000E+01  1.00800000E+00  1.00800000E+00  1.60000000E+01  1.00800000E+00
  1.00800000E+00  1.60000000E+01  1.00800000E+00  1.00800000E+00  1.60000000E+01
  1.00800000E+00  1.00800000E+00  1.60000000E+01  1.00800000E+00  1.00800000E+00
  1.60000000E+01  1.00800000E+00  1.00800000E+00  1.60000000E+01  1.00800000E+00
  1.00800000E+00  1.60000000E+01  1.00800000E+00  1.00800000E+00  1.60000000E+01
  1.00800000E+00  1.00800000E+00  1.60000000E+01  1.00800000E+00  1.00800000E+00
  1.60000000E+01  1.00800000E+00  1.00800000E+00  1.60000000E+01  1.00800000E+00
  1.00800000E+00  1.60000000E+01  1.00800000E+00  1.00800000E+00  1.60000000E+01
  1.00800000E+00  1.00800000E+00  1.60000000E+01  1.00800000E+00  1.00800000E+00
  1.60000000E+01  1.00800000E+00  1.00800000E+00  1.60000000E+01  1.00800000E+00
  1.00800000E+00  1.60000000E+01  1.00800000E+00  1.00800000E+00  1.60000000E+01
  1.00800000E+00  1.00800000E+00  1.60000000E+01  1.00800000E+00  1.00800000E+00
  1.60000000E+01  1.00800000E+00  1.00800000E+00  1.60000000E+01  1.00800000E+00
  1.00800000E+00  1.60000000E+01  1.00800000E+00  1.00800000E+00  1.60000000E+01
  1.00800000E+00  1.00800000E+00  1.60000000E+01  1.00800000E+00  1.00800000E+00
  1.60000000E+01  1.00800000E+00  1.00800000E+00  1.60000000E+01  1.00800000E+00
  1.00800000E+00  1.60000000E+01  1.00800000E+00  1.00800000E+00  1.60000000E+01
  1.00800000E+00  1.00800000E+00  1.60000000E+01  1.00800000E+00  1.00800000E+00
  1.60000000E+01  1.00800000E+00  1.00800000E+00  1.60000000E+01  1.00800000E+00
  1.00800000E+00  1.60000000E+01  1.00800000E+00  1.00800000E+00  1.60000000E+01
  1.00800000E+00  1.00800000E+00  1.60000000E+01  1.00800000E+00  1.00800000E+00
  1.60000000E+01  1.00800000E+00  1.00800000E+00  1.60000000E+01  1.00800000E+00
  1.00800000E+00  1.60000000E+01  1.00800000E+00  1.00800000E+00  1.60000000E+01
  1.00800000E+00  1.00800000E+00  1.60000000E+01  1.00800000E+00  1.00800000E+00
  1.60000000E+01  1.00800000E+00  1.00800000E+00  1.60000000E+01  1.00800000E+00
  1.00800000E+00  1.60000000E+01  1.00800000E+00  1.00800000E+00  1.60000000E+01
  1.00800000E+00  1.00800000E+00  1.60000000E+01  1.00800000E+00  1.00800000E+00
  1.60000000E+01  1.00800000E+00  1.00800000E+00  1.60000000E+01  1.00800000E+00
  1.00800000E+00  1.60000000E+01  1.00800000E+00  1.00800000E+00  1.60000000E+01
  1.00800000E+00  1.00800000E+00  1.60000000E+01  1.00800000E+00  1.00800000E+00
  1.60000000E+01  1.00800000E+00  1.00800000E+00  1.60000000E+01  1.00800000E+00
  1.00800000E+00  1.60000000E+01  1.00800000E+00  1.00800000E+00  1.60000000E+01
  1.00800000E+00  1.00800000E+00  1.60000000E+01  1.00800000E+00  1.00800000E+00
  1.60000000E+01  1.00800000E+00  1.00800000E+00  1.60000000E+01  1.00800000E+00
  1.00800000E+00  1.60000000E+01  1.00800000E+00  1.00800000E+00  1.60000000E+01
  1.00800000E+00  1.00800000E+00  1.60000000E+01  1.00800000E+00  1.00800000E+00
  1.60000000E+01  1.00800000E+00  1.00800000E+00  1.60000000E+01  1.00800000E+00
  1.00800000E+00  1.60000000E+01  1.00800000E+00  1.00800000E+00  1.60000000E+01
  1.00800000E+00  1.00800000E+00  1.60000000E+01  1.00800000E+00  1.00800000E+00
  1.60000000E+01  1.00800000E+00  1.00800000E+00  1.60000000E+01  1.00800000E+00
  1.00800000E+00  1.60000000E+01  1.00800000E+00  1.00800000E+00  1.60000000E+01
  1.00800000E+00  1.00800000E+00  1.60000000E+01  1.00800000E+00  1.00800000E+00
  1.60000000E+01  1.00800000E+00  1.00800000E+00  1.60000000E+01  1.00800000E+00
  1.00800000E+00  1.60000000E+01  1.00800000E+00  1.00800000E+00  1.60000000E+01
  1.00800000E+00  1.00800000E+00  1.60000000E+01  1.00800000E+00  1.00800000E+00
  1.60000000E+01  1.00800000E+00  1.00800000E+00  1.60000000E+01  1.00800000E+00
  1.00800000E+00  1.60000000E+01  1.00800000E+00  1.00800000E+00  1.60000000E+01
  1.00800000E+00  1.00800000E+00  1.60000000E+01  1.00800000E+00  1.00800000E+00
  1.60000000E+01  1.00800000E+00  1.00800000E+00  1.60000000E+01  1.00800000E+00
  1.00800000E+00  1.60000000E+01  1.00800000E+00  1.00800000E+00  1.60000000E+01
  1.00800000E+00  1.00800000E+00  1.60000000E+01  1.00800000E+00  1.00800000E+00
  1.60000000E+01  1.00800000E+00  1.00800000E+00  1.60000000E+01  1.00800000E+00
  1.00800000E+00  1.60000000E+01  1.00800000E+00  1.00800000E+00  1.60000000E+01
  1.00800000E+00  1.00800000E+00  1.60000000E+01  1.00800000E+00  1.00800000E+00
  1.60000000E+01  1.00800000E+00  1.00800000E+00  1.60000000E+01  1.00800000E+00
  1.00800000E+00  1.60000000E+01  1.00800000E+00  1.00800000E+00  1.60000000E+01
  1.00800000E+00  1.00800000E+00  1.60000000E+01  1.00800000E+00  1.00800000E+00
  1.60000000E+01  1.00800000E+00  1.00800000E+00  1.60000000E+01  1.00800000E+00
  1.00800000E+00  1.60000000E+01  1.00800000E+00  1.00800000E+00  1.60000000E+01
  1.00800000E+00  1.00800000E+00  1.60000000E+01  1.00800000E+00  1.00800000E+00
  1.60000000E+01  1.00800000E+00  1.00800000E+00  1.60000000E+01  1.00800000E+00
  1.00800000E+00  1.60000000E+01  1.00800000E+00  1.00800000E+00  1.60000000E+01
  1.00800000E+00  1.00800000E+00  1.60000000E+01  1.00800000E+00  1.00800000E+00
  1.60000000E+01  1.00800000E+00  1.00800000E+00  1.60000000E+01  1.00800000E+00
  1.00800000E+00  1.60000000E+01  1.00800000E+00  1.00800000E+00  1.60000000E+01
  1.00800000E+00  1.00800000E+00  1.60000000E+01  1.00800000E+00  1.00800000E+00
  1.60000000E+01  1.00800000E+00  1.00800000E+00  1.60000000E+01  1.00800000E+00
  1.00800000E+00  1.60000000E+01  1.00800000E+00  1.00800000E+00  1.60000000E+01
  1.00800000E+00  1.00800000E+00  1.60000000E+01  1.00800000E+00  1.00800000E+00
  1.60000000E+01  1.00800000E+00  1.00800000E+00  1.60000000E+01  1.00800000E+00
  1.00800000E+00  1.60000000E+01  1.00800000E+00  1.00800000E+00  1.60000000E+01
  1.00800000E+00  1.00800000E+00  1.60000000E+01  1.00800000E+00  1.00800000E+00
  1.60000000E+01  1.00800000E+00  1.00800000E+00  1.60000000E+01  1.00800000E+00
  1.00800000E+00  1.60000000E+01  1.00800000E+00  1.00800000E+00  1.60000000E+01
  1.00800000E+00  1.00800000E+00  1.60000000E+01  1.00800000E+00  1.00800000E+00
  1.60000000E+01  1.00800000E+00  1.00800000E+00  1.60000000E+01  1.00800000E+00
  1.00800000E+00  1.60000000E+01  1.00800000E+00  1.00800000E+00  1.60000000E+01
  1.00800000E+00  1.00800000E+00  1.60000000E+01  1.00800000E+00  1.00800000E+00
  1.60000000E+01  1.00800000E+00  1.00800000E+00  1.60000000E+01  1.00800000E+00
  1.00800000E+00  1.60000000E+01  1.00800000E+00  1.00800000E+00  1.60000000E+01
  1.00800000E+00  1.00800000E+00  1.60000000E+01  1.00800000E+00  1.00800000E+00
  1.60000000E+01  1.00800000E+00  1.00800000E+00  1.60000000E+01  1.00800000E+00
  1.00800000E+00  1.60000000E+01  1.00800000E+00  1.00800000E+00  1.60000000E+01
  1.00800000E+00  1.00800000E+00  1.60000000E+01  1.00800000E+00  1.00800000E+00
  1.60000000E+01  1.00800000E+00  1.00800000E+00  1.60000000E+01  1.00800000E+00
  1.00800000E+00  1.60000000E+01  1.00800000E+00  1.00800000E+00  1.60000000E+01
  1.00800000E+00  1.00800000E+00  1.60000000E+01  1.00800000E+00  1.00800000E+00
  1.60000000E+01  1.00800000E+00  1.00800000E+00  1.60000000E+01  1.00800000E+00
  1.00800000E+00  1.60000000E+01  1.00800000E+00  1.00800000E+00  1.60000000E+01
  1.00800000E+00  1.00800000E+00  1.60000000E+01  1.00800000E+00  1.00800000E+00
  1.60000000E+01  1.00800000E+00  1.00800000E+00  1.60000000E+01  1.00800000E+00
  1.00800000E+00  1.60000000E+01  1.00800000E+00  1.00800000E+00  1.60000000E+01
  1.00800000E+00  1.00800000E+00  1.60000000E+01  1.00800000E+00  1.00800000E+00
  1.60000000E+01  1.00800000E+00  1.00800000E+00  1.60000000E+01  1.00800000E+00
  1.00800000E+00  1.60000000E+01  1.00800000E+00  1.00800000E+00  1.60000000E+01
  1.00800000E+00  1.00800000E+00  1.60000000E+01  1.00800000E+00  1.00800000E+00
  1.60000000E+01  1.00800000E+00  1.00800000E+00  1.60000000E+01  1.00800000E+00
  1.00800000E+00  1.60000000E+01  1.00800000E+00  1.00800000E+00  1.60000000E+01
  1.00800000E+00  1.00800000E+00  1.60000000E+01  1.00800000E+00  1.00800000E+00
  1.60000000E+01  1.00800000E+00  1.00800000E+00  1.60000000E+01  1.00800000E+00
  1.00800000E+00  1.60000000E+01  1.00800000E+00  1.00800000E+00  1.60000000E+01
  1.00800000E+00  1.00800000E+00  1.60000000E+01  1.00800000E+00  1.00800000E+00
  1.60000000E+01  1.00800000E+00  1.00800000E+00  1.60000000E+01  1.00800000E+00
  1.00800000E+00  1.60000000E+01  1.00800000E+00  1.00800000E+00  1.60000000E+01
  1.00800000E+00  1.00800000E+00  1.60000000E+01  1.00800000E+00  1.00800000E+00
  1.60000000E+01  1.00800000E+00  1.00800000E+00  1.60000000E+01  1.00800000E+00
  1.00800000E+00  1.60000000E+01  1.00800000E+00  1.00800000E+00  1.60000000E+01
  1.00800000E+00  1.00800000E+00  1.60000000E+01  1.00800000E+00  1.00800000E+00
  1.60000000E+01  1.00800000E+00  1.00800000E+00  1.60000000E+01  1.00800000E+00
  1.00800000E+00  1.60000000E+01  1.00800000E+00  1.00800000E+00  1.60000000E+01
  1.00800000E+00  1.00800000E+00  1.60000000E+01  1.00800000E+00  1.00800000E+00
  1.60000000E+01  1.00800000E+00  1.00800000E+00  1.60000000E+01  1.00800000E+00
  1.00800000E+00  1.60000000E+01  1.00800000E+00  1.00800000E+00  1.60000000E+01
  1.00800000E+00  1.00800000E+00  1.60000000E+01  1.00800000E+00  1.00800000E+00
  1.60000000E+01  1.00800000E+00  1.00800000E+00  1.60000000E+01  1.00800000E+00
  1.00800000E+00  1.60000000E+01  1.00800000E+00  1.00800000E+00  1.60000000E+01
  1.00800000E+00  1.00800000E+00  1.60000000E+01  1.00800000E+00  1.00800000E+00
  1.60000000E+01  1.00800000E+00  1.00800000E+00  1.60000000E+01  1.00800000E+00
  1.00800000E+00  1.60000000E+01  1.00800000E+00  1.00800000E+00  1.60000000E+01
  1.00800000E+00  1.00800000E+00  1.60000000E+01  1.00800000E+00  1.00800000E+00
  1.60000000E+01  1.00800000E+00  1.00800000E+00  1.60000000E+01  1.00800000E+00
  1.00800000E+00  1.60000000E+01  1.00800000E+00  1.00800000E+00  1.60000000E+01
  1.00800000E+00  1.00800000E+00  1.60000000E+01  1.00800000E+00  1.00800000E+00
  1.60000000E+01  1.00800000E+00  1.00800000E+00  1.60000000E+01  1.00800000E+00
  1.00800000E+00  1.60000000E+01  1.00800000E+00  1.00800000E+00  1.60000000E+01
  1.00800000E+00  1.00800000E+00  1.60000000E+01  1.00800000E+00  1.00800000E+00
  1.60000000E+01  1.00800000E+00  1.00800000E+00  1.60000000E+01  1.00800000E+00
  1.00800000E+00  1.60000000E+01  1.00800000E+00  1.00800000E+00  1.60000000E+01
  1.00800000E+00  1.00800000E+00  1.60000000E+01  1.00800000E+00  1.00800000E+00
  1.60000000E+01  1.00800000E+00  1.00800000E+00  1.60000000E+01  1.00800000E+00
  1.00800000E+00  1.60000000E+01  1.00800000E+00  1.00800000E+00  1.60000000E+01
  1.00800000E+00  1.00800000E+00  1.60000000E+01  1.00800000E+00  1.00800000E+00
  1.60000000E+01  1.00800000E+00  1.00800000E+00  1.60000000E+01  1.00800000E+00
  1.00800000E+00  1.60000000E+01  1.00800000E+00  1.00800000E+00  1.60000000E+01
  1.00800000E+00  1.00800000E+00  1.60000000E+01  1.00800000E+00  1.00800000E+00
  1.60000000E+01  1.00800000E+00  1.00800000E+00  1.60000000E+01  1.00800000E+00
  1.00800000E+00  1.60000000E+01  1.00800000E+00  1.00800000E+00  1.60000000E+01
  1.00800000E+00  1.00800000E+00  1.60000000E+01  1.00800000E+00  1.00800000E+00
  1.60000000E+01  1.00800000E+00  1.00800000E+00  1.60000000E+01  1.00800000E+00
  1.00800000E+00  1.60000000E+01  1.00800000E+00  1.00800000E+00  1.60000000E+01
  1.00800000E+00  1.00800000E+00  1.60000000E+01  1.00800000E+00  1.00800000E+00
  1.60000000E+01  1.00800000E+00  1.00800000E+00  1.60000000E+01  1.00800000E+00
  1.00800000E+00  1.60000000E+01  1.00800000E+00  1.00800000E+00  1.60000000E+01
  1.00800000E+00  1.00800000E+00  1.60000000E+01  1.00800000E+00  1.00800000E+00
  1.60000000E+01  1.00800000E+00  1.00800000E+00  1.60000000E+01  1.00800000E+00
  1.00800000E+00  1.60000000E+01  1.00800000E+00  1.00800000E+00  1.60000000E+01
  1.00800000E+00  1.00800000E+00  1.60000000E+01  1.00800000E+00  1.00800000E+00
  1.60000000E+01  1.00800000E+00  1.00800000E+00  1.60000000E+01  1.00800000E+00
  1.00800000E+00  1.60000000E+01  1.00800000E+00  1.00800000E+00  1.60000000E+01
  1.00800000E+00  1.00800000E+00  1.60000000E+01  1.00800000E+00  1.00800000E+00
  1.60000000E+01  1.00800000E+00  1.00800000E+00  1.60000000E+01  1.00800000E+00
  1.00800000E+00  1.60000000E+01  1.00800000E+00  1.00800000E+00  1.60000000E+01
  1.00800000E+00  1.00800000E+00  1.60000000E+01  1.00800000E+00  1.00800000E+00
  1.60000000E+01  1.00800000E+00  1.00800000E+00  1.60000000E+01  1.00800000E+00
  1.00800000E+00  1.60000000E+01  1.00800000E+00  1.00800000E+00  1.60000000E+01
  1.00800000E+00  1.00800000E+00  1.60000000E+01  1.00800000E+00  1.00800000E+00
  1.60000000E+01  1.00800000E+00  1.00800000E+00  1.60000000E+01  1.00800000E+00
  1.00800000E+00  1.60000000E+01  1.00800000E+00  1.00800000E+00  1.60000000E+01
  1.00800000E+00  1.00800000E+00  1.60000000E+01  1.00800000E+00  1.00800000E+00
  1.60000000E+01  1.00800000E+00  1.00800000E+00  1.60000000E+01  1.00800000E+00
  1.00800000E+00  1.60000000E+01  1.00800000E+00  1.00800000E+00  1.60000000E+01
  1.00800000E+00  1.00800000E+00  1.60000000E+01  1.00800000E+00  1.00800000E+00
  1.60000000E+01  1.00800000E+00  1.00800000E+00  1.60000000E+01  1.00800000E+00
  1.00800000E+00  1.60000000E+01  1.00800000E+00  1.00800000E+00  1.60000000E+01
  1.00800000E+00  1.00800000E+00  1.60000000E+01  1.00800000E+00  1.00800000E+00
  1.60000000E+01  1.00800000E+00  1.00800000E+00  1.60000000E+01  1.00800000E+00
  1.00800000E+00  1.60000000E+01  1.00800000E+00  1.00800000E+00  1.60000000E+01
  1.00800000E+00  1.00800000E+00  1.60000000E+01  1.00800000E+00  1.00800000E+00
  1.60000000E+01  1.00800000E+00  1.00800000E+00  1.60000000E+01  1.00800000E+00
  1.00800000E+00  1.60000000E+01  1.00800000E+00  1.00800000E+00  1.60000000E+01
  1.00800000E+00  1.00800000E+00  1.60000000E+01  1.00800000E+00  1.00800000E+00
  1.60000000E+01  1.00800000E+00  1.00800000E+00  1.60000000E+01  1.00800000E+00
  1.00800000E+00  1.60000000E+01  1.00800000E+00  1.00800000E+00  1.60000000E+01
  1.00800000E+00  1.00800000E+00  1.60000000E+01  1.00800000E+00  1.00800000E+00
  1.60000000E+01  1.00800000E+00  1.00800000E+00  1.60000000E+01  1.00800000E+00
  1.00800000E+00  1.60000000E+01  1.00800000E+00  1.00800000E+00  1.60000000E+01
  1.00800000E+00  1.00800000E+00  1.60000000E+01  1.00800000E+00  1.00800000E+00
  1.60000000E+01  1.00800000E+00  1.00800000E+00  1.60000000E+01  1.00800000E+00
  1.00800000E+00  1.60000000E+01  1.00800000E+00  1.00800000E+00  1.60000000E+01
  1.00800000E+00  1.00800000E+00  1.60000000E+01  1.00800000E+00  1.00800000E+00
  1.60000000E+01  1.00800000E+00  1.00800000E+00  1.60000000E+01  1.00800000E+00
  1.00800000E+00  1.60000000E+01  1.00800000E+00  1.00800000E+00  1.60000000E+01
  1.00800000E+00  1.00800000E+00  1.60000000E+01  1.00800000E+00  1.00800000E+00
  1.60000000E+01  1.00800000E+00  1.00800000E+00  1.60000000E+01  1.00800000E+00
  1.00800000E+00  1.60000000E+01  1.00800000E+00  1.00800000E+00  1.60000000E+01
  1.00800000E+00  1.00800000E+00  1.60000000E+01  1.00800000E+00  1.00800000E+00
  1.60000000E+01  1.00800000E+00  1.00800000E+00  1.60000000E+01  1.00800000E+00
  1.00800000E+00  1.60000000E+01  1.00800000E+00  1.00800000E+00  1.60000000E+01
  1.00800000E+00  1.00800000E+00  1.60000000E+01  1.00800000E+00  1.00800000E+00
  1.60000000E+01  1.00800000E+00  1.00800000E+00  1.60000000E+01  1.00800000E+00
  1.00800000E+00  1.60000000E+01  1.00800000E+00  1.00800000E+00  1.60000000E+01
  1.00800000E+00  1.00800000E+00  1.60000000E+01  1.00800000E+00  1.00800000E+00
  1.60000000E+01  1.00800000E+00  1.00800000E+00  1.60000000E+01  1.00800000E+00
  1.00800000E+00  1.60000000E+01  1.00800000E+00  1.00800000E+00  1.60000000E+01
  1.00800000E+00  1.00800000E+00  1.60000000E+01  1.00800000E+00  1.00800000E+00
  1.60000000E+01  1.00800000E+00  1.00800000E+00  1.60000000E+01  1.00800000E+00
  1.00800000E+00  1.60000000E+01  1.00800000E+00  1.00800000E+00  1.60000000E+01
  1.00800000E+00  1.00800000E+00  1.60000000E+01  1.00800000E+00  1.00800000E+00
  1.60000000E+01  1.00800000E+00  1.00800000E+00  1.60000000E+01  1.00800000E+00
  1.00800000E+00  1.60000000E+01  1.00800000E+00  1.00800000E+00  1.60000000E+01
  1.00800000E+00  1.00800000E+00  1.60000000E+01  1.00800000E+00  1.00800000E+00
  1.60000000E+01  1.00800000E+00  1.00800000E+00  1.60000000E+01  1.00800000E+00
  1.00800000E+00  1.60000000E+01  1.00800000E+00  1.00800000E+00  1.60000000E+01
  1.00800000E+00  1.00800000E+00  1.60000000E+01  1.00800000E+00  1.00800000E+00
  1.60000000E+01  1.00800000E+00  1.00800000E+00  1.60000000E+01  1.00800000E+00
  1.00800000E+00  1.60000000E+01  1.00800000E+00  1.00800000E+00  1.60000000E+01
  1.00800000E+00  1.00800000E+00  1.60000000E+01  1.00800000E+00  1.00800000E+00
  1.60000000E+01  1.00800000E+00  1.00800000E+00  1.60000000E+01  1.00800000E+00
  1.00800000E+00  1.60000000E+01  1.00800000E+00  1.00800000E+00  1.60000000E+01
  1.00800000E+00  1.00800000E+00  1.60000000E+01  1.00800000E+00  1.00800000E+00
  1.60000000E+01  1.00800000E+00  1.00800000E+00  1.60000000E+01  1.00800000E+00
  1.00800000E+00  1.60000000E+01  1.00800000E+00  1.00800000E+00  1.60000000E+01
  1.00800000E+00  1.00800000E+00  1.60000000E+01  1.00800000E+00  1.00800000E+00
  1.60000000E+01  1.00800000E+00  1.00800000E+00  1.60000000E+01  1.00800000E+00
  1.00800000E+00  1.60000000E+01  1.00800000E+00  1.00800000E+00  1.60000000E+01
  1.00800000E+00  1.00800000E+00  1.60000000E+01  1.00800000E+00  1.00800000E+00
  1.60000000E+01  1.00800000E+00  1.00800000E+00  1.60000000E+01  1.00800000E+00
  1.00800000E+00  1.60000000E+01  1.00800000E+00  1.00800000E+00  1.60000000E+01
  1.00800000E+00  1.00800000E+00  1.60000000E+01  1.00800000E+00  1.00800000E+00
  1.60000000E+01  1.00800000E+00  1.00800000E+00  1.60000000E+01  1.00800000E+00
  1.00800000E+00  1.60000000E+01  1.00800000E+00  1.00800000E+00  1.60000000E+01
  1.00800000E+00  1.00800000E+00  1.60000000E+01  1.00800000E+00  1.00800000E+00
  1.60000000E+01  1.00800000E+00  1.00800000E+00  1.60000000E+01  1.00800000E+00
  1.00800000E+00  1.60000000E+01  1.00800000E+00  1.00800000E+00  1.60000000E+01
  1.00800000E+00  1.00800000E+00  1.60000000E+01  1.00800000E+00  1.00800000E+00
  1.60000000E+01  1.00800000E+00  1.00800000E+00  1.60000000E+01  1.00800000E+00
  1.00800000E+00  1.60000000E+01  1.00800000E+00  1.00800000E+00  1.60000000E+01
  1.00800000E+00  1.00800000E+00  1.60000000E+01  1.00800000E+00  1.00800000E+00
  1.60000000E+01  1.00800000E+00  1.00800000E+00  1.60000000E+01  1.00800000E+00
  1.00800000E+00  1.60000000E+01  1.00800000E+00  1.00800000E+00  1.60000000E+01
  1.00800000E+00  1.00800000E+00  1.60000000E+01  1.00800000E+00  1.00800000E+00
  1.60000000E+01  1.00800000E+00  1.00800000E+00  1.60000000E+01  1.00800000E+00
  1.00800000E+00  1.60000000E+01  1.00800000E+00  1.00800000E+00  1.60000000E+01
  1.00800000E+00  1.00800000E+00  1.60000000E+01  1.00800000E+00  1.00800000E+00
  1.60000000E+01  1.00800000E+00  1.00800000E+00  1.60000000E+01  1.00800000E+00
  1.00800000E+00  1.60000000E+01  1.00800000E+00  1.00800000E+00  1.60000000E+01
  1.00800000E+00  1.00800000E+00  1.60000000E+01  1.00800000E+00  1.00800000E+00
  1.60000000E+01  1.00800000E+00  1.00800000E+00  1.60000000E+01  1.00800000E+00
  1.00800000E+00  1.60000000E+01  1.00800000E+00  1.00800000E+00  1.60000000E+01
  1.00800000E+00  1.00800000E+00  1.60000000E+01  1.00800000E+00  1.00800000E+00
  1.60000000E+01  1.00800000E+00  1.00800000E+00  1.60000000E+01  1.00800000E+00
  1.00800000E+00  1.60000000E+01  1.00800000E+00  1.00800000E+00  1.60000000E+01
  1.00800000E+00  1.00800000E+00  1.60000000E+01  1.00800000E+00  1.00800000E+00
  1.60000000E+01  1.00800000E+00  1.00800000E+00  1.60000000E+01  1.00800000E+00
  1.00800000E+00  1.60000000E+01  1.00800000E+00  1.00800000E+00  1.60000000E+01
  1.00800000E+00  1.00800000E+00  1.60000000E+01  1.00800000E+00  1.00800000E+00
  1.60000000E+01  1.00800000E+00  1.00800000E+00  1.60000000E+01  1.00800000E+00
  1.00800000E+00  1.60000000E+01  1.00800000E+00  1.00800000E+00  1.60000000E+01
  1.00800000E+00  1.00800000E+00  1.60000000E+01  1.00800000E+00  1.00800000E+00
  1.60000000E+01  1.00800000E+00  1.00800000E+00  1.60000000E+01  1.00800000E+00
  1.00800000E+00  1.60000000E+01  1.00800000E+00  1.00800000E+00  1.60000000E+01
  1.00800000E+00  1.00800000E+00  1.60000000E+01  1.00800000E+00  1.00800000E+00
  1.60000000E+01  1.00800000E+00  1.00800000E+00  1.60000000E+01  1.00800000E+00
  1.00800000E+00  1.60000000E+01  1.00800000E+00  1.00800000E+00  1.60000000E+01
  1.00800000E+00  1.00800000E+00  1.60000000E+01  1.00800000E+00  1.00800000E+00
  1.60000000E+01  1.00800000E+00  1.00800000E+00  1.60000000E+01  1.00800000E+00
  1.00800000E+00  1.60000000E+01  1.00800000E+00  1.00800000E+00  1.60000000E+01
  1.00800000E+00  1.00800000E+00  1.60000000E+01  1.00800000E+00  1.00800000E+00
  1.60000000E+01  1.00800000E+00  1.00800000E+00  1.60000000E+01  1.00800000E+00
  1.00800000E+00  1.60000000E+01  1.00800000E+00  1.00800000E+00  1.60000000E+01
  1.00800000E+00  1.00800000E+00  1.60000000E+01  1.00800000E+00  1.00800000E+00
  1.60000000E+01  1.00800000E+00  1.00800000E+00  1.60000000E+01  1.00800000E+00
  1.00800000E+00  1.60000000E+01  1.00800000E+00  1.00800000E+00  1.60000000E+01
  1.00800000E+00  1.00800000E+00  1.60000000E+01  1.00800000E+00  1.00800000E+00
  1.60000000E+01  1.00800000E+00  1.00800000E+00  1.60000000E+01  1.00800000E+00
  1.00800000E+00  1.60000000E+01  1.00800000E+00  1.00800000E+00  1.60000000E+01
  1.00800000E+00  1.00800000E+00  1.60000000E+01  1.00800000E+00  1.00800000E+00
  1.60000000E+01  1.00800000E+00  1.00800000E+00  1.60000000E+01  1.00800000E+00
  1.00800000E+00  1.60000000E+01  1.00800000E+00  1.00800000E+00  1.60000000E+01
  1.00800000E+00  1.00800000E+00  1.60000000E+01  1.00800000E+00  1.00800000E+00
  1.60000000E+01  1.00800000E+00  1.00800000E+00  1.60000000E+01  1.00800000E+00
  1.00800000E+00  1.60000000E+01  1.00800000E+00  1.00800000E+00  1.60000000E+01
  1.00800000E+00  1.00800000E+00  1.60000000E+01  1.00800000E+00  1.00800000E+00
  1.60000000E+01  1.00800000E+00  1.00800000E+00  1.60000000E+01  1.00800000E+00
  1.00800000E+00  1.60000000E+01  1.00800000E+00  1.00800000E+00  1.60000000E+01
  1.00800000E+00  1.00800000E+00  1.60000000E+01  1.00800000E+00  1.00800000E+00
  1.60000000E+01  1.00800000E+00  1.00800000E+00  1.60000000E+01  1.00800000E+00
  1.00800000E+00  1.60000000E+01  1.00800000E+00  1.00800000E+00  1.60000000E+01
  1.00800000E+00  1.00800000E+00  1.60000000E+01  1.00800000E+00  1.00800000E+00
  1.60000000E+01  1.00800000E+00  1.00800000E+00  1.60000000E+01  1.00800000E+00
  1.00800000E+00  1.60000000E+01  1.00800000E+00  1.00800000E+00  1.60000000E+01
  1.00800000E+00  1.00800000E+00  1.60000000E+01  1.00800000E+00  1.00800000E+00
  1.60000000E+01  1.00800000E+00  1.00800000E+00  1.60000000E+01  1.00800000E+00
  1.00800000E+00  1.60000000E+01  1.00800000E+00  1.00800000E+00  1.60000000E+01
  1.00800000E+00  1.00800000E+00  1.60000000E+01  1.00800000E+00  1.00800000E+00
  1.60000000E+01  1.00800000E+00  1.00800000E+00  1.60000000E+01  1.00800000E+00
  1.00800000E+00  1.60000000E+01  1.00800000E+00  1.00800000E+00  1.60000000E+01
  1.00800000E+00  1.00800000E+00  1.60000000E+01  1.00800000E+00  1.00800000E+00
  1.60000000E+01  1.00800000E+00  1.00800000E+00  1.60000000E+01  1.00800000E+00
  1.00800000E+00  1.60000000E+01  1.00800000E+00  1.00800000E+00  1.60000000E+01
  1.00800000E+00  1.00800000E+00  1.60000000E+01  1.00800000E+00  1.00800000E+00
  1.60000000E+01  1.00800000E+00  1.00800000E+00  1.60000000E+01  1.00800000E+00
  1.00800000E+00  1.60000000E+01  1.00800000E+00  1.00800000E+00  1.60000000E+01
  1.00800000E+00  1.00800000E+00  1.60000000E+01  1.00800000E+00  1.00800000E+00
  1.60000000E+01  1.00800000E+00  1.00800000E+00  1.60000000E+01  1.00800000E+00
  1.00800000E+00  1.60000000E+01  1.00800000E+00  1.00800000E+00  1.60000000E+01
  1.00800000E+00  1.00800000E+00  1.60000000E+01  1.00800000E+00  1.00800000E+00
  1.60000000E+01  1.00800000E+00  1.00800000E+00  1.60000000E+01  1.00800000E+00
  1.00800000E+00  1.60000000E+01  1.00800000E+00  1.00800000E+00  1.60000000E+01
  1.00800000E+00  1.00800000E+00  1.60000000E+01  1.00800000E+00  1.00800000E+00
  1.60000000E+01  1.00800000E+00  1.00800000E+00  1.60000000E+01  1.00800000E+00
  1.00800000E+00  1.60000000E+01  1.00800000E+00  1.00800000E+00  1.60000000E+01
  1.00800000E+00  1.00800000E+00  1.60000000E+01  1.00800000E+00  1.00800000E+00
  1.60000000E+01  1.00800000E+00  1.00800000E+00  1.60000000E+01  1.00800000E+00
  1.00800000E+00  1.60000000E+01  1.00800000E+00  1.00800000E+00  1.60000000E+01
  1.00800000E+00  1.00800000E+00  1.60000000E+01  1.00800000E+00  1.00800000E+00
  1.60000000E+01  1.00800000E+00  1.00800000E+00  1.60000000E+01  1.00800000E+00
  1.00800000E+00  1.60000000E+01  1.00800000E+00  1.00800000E+00  1.60000000E+01
  1.00800000E+00  1.00800000E+00  1.60000000E+01  1.00800000E+00  1.00800000E+00
  1.60000000E+01  1.00800000E+00  1.00800000E+00  1.60000000E+01  1.00800000E+00
  1.00800000E+00  1.60000000E+01  1.00800000E+00  1.00800000E+00  1.60000000E+01
  1.00800000E+00  1.00800000E+00  1.60000000E+01  1.00800000E+00  1.00800000E+00
  1.60000000E+01  1.00800000E+00  1.00800000E+00  1.60000000E+01  1.00800000E+00
  1.00800000E+00  1.60000000E+01  1.00800000E+00  1.00800000E+00  1.60000000E+01
  1.00800000E+00  1.00800000E+00  1.60000000E+01  1.00800000E+00  1.00800000E+00
  1.60000000E+01  1.00800000E+00  1.00800000E+00  1.60000000E+01  1.00800000E+00
  1.00800000E+00  1.60000000E+01  1.00800000E+00  1.00800000E+00  1.60000000E+01
  1.00800000E+00  1.00800000E+00  1.60000000E+01  1.00800000E+00  1.00800000E+00
  1.60000000E+01  1.00800000E+00  1.00800000E+00  1.60000000E+01  1.00800000E+00
  1.00800000E+00  1.60000000E+01  1.00800000E+00  1.00800000E+00  1.60000000E+01
  1.00800000E+00  1.00800000E+00  1.60000000E+01  1.00800000E+00  1.00800000E+00
  1.60000000E+01  1.00800000E+00  1.00800000E+00  1.60000000E+01  1.00800000E+00
  1.00800000E+00  1.60000000E+01  1.00800000E+00  1.00800000E+00  1.60000000E+01
  1.00800000E+00  1.00800000E+00  1.60000000E+01  1.00800000E+00  1.00800000E+00
  1.60000000E+01  1.00800000E+00  1.00800000E+00  1.60000000E+01  1.00800000E+00
  1.00800000E+00  1.60000000E+01  1.00800000E+00  1.00800000E+00  1.60000000E+01
  1.00800000E+00  1.00800000E+00  1.60000000E+01  1.00800000E+00  1.00800000E+00
  1.60000000E+01  1.00800000E+00  1.00800000E+00  1.60000000E+01  1.00800000E+00
  1.00800000E+00  1.60000000E+01  1.00800000E+00  1.00800000E+00  1.60000000E+01
  1.00800000E+00  1.00800000E+00  1.60000000E+01  1.00800000E+00  1.00800000E+00
  1.60000000E+01  1.00800000E+00  1.00800000E+00  1.60000000E+01  1.00800000E+00
  1.00800000E+00  1.60000000E+01  1.00800000E+00  1.00800000E+00  1.60000000E+01
  1.00800000E+00  1.00800000E+00  1.60000000E+01  1.00800000E+00  1.00800000E+00
  1.60000000E+01  1.00800000E+00  1.00800000E+00  1.60000000E+01  1.00800000E+00
  1.00800000E+00  1.60000000E+01  1.00800000E+00  1.00800000E+00  1.60000000E+01
  1.00800000E+00  1.00800000E+00  1.60000000E+01  1.00800000E+00  1.00800000E+00
  1.60000000E+01  1.00800000E+00  1.00800000E+00  1.60000000E+01  1.00800000E+00
  1.00800000E+00  1.60000000E+01  1.00800000E+00  1.00800000E+00  1.60000000E+01
  1.00800000E+00  1.00800000E+00  1.60000000E+01  1.00800000E+00  1.00800000E+00
  1.60000000E+01  1.00800000E+00  1.00800000E+00  1.60000000E+01  1.00800000E+00
  1.00800000E+00  1.60000000E+01  1.00800000E+00  1.00800000E+00  1.60000000E+01
  1.00800000E+00  1.00800000E+00  1.60000000E+01  1.00800000E+00  1.00800000E+00
  1.60000000E+01  1.00800000E+00  1.00800000E+00  1.60000000E+01  1.00800000E+00
  1.00800000E+00  1.60000000E+01  1.00800000E+00  1.00800000E+00  1.60000000E+01
  1.00800000E+00  1.00800000E+00  1.60000000E+01  1.00800000E+00  1.00800000E+00
  1.60000000E+01  1.00800000E+00  1.00800000E+00  1.60000000E+01  1.00800000E+00
  1.00800000E+00  1.60000000E+01  1.00800000E+00  1.00800000E+00  1.60000000E+01
  1.00800000E+00  1.00800000E+00  1.60000000E+01  1.00800000E+00  1.00800000E+00
  1.60000000E+01  1.00800000E+00  1.00800000E+00  1.60000000E+01  1.00800000E+00
  1.00800000E+00  1.60000000E+01  1.00800000E+00  1.00800000E+00  1.60000000E+01
  1.00800000E+00  1.00800000E+00  1.60000000E+01  1.00800000E+00  1.00800000E+00
  1.60000000E+01  1.00800000E+00  1.00800000E+00  1.60000000E+01  1.00800000E+00
  1.00800000E+00  1.60000000E+01  1.00800000E+00  1.00800000E+00  1.60000000E+01
  1.00800000E+00  1.00800000E+00  1.60000000E+01  1.00800000E+00  1.00800000E+00
  1.60000000E+01  1.00800000E+00  1.00800000E+00  1.60000000E+01  1.00800000E+00
  1.00800000E+00  1.60000000E+01  1.00800000E+00  1.00800000E+00  1.60000000E+01
  1.00800000E+00  1.00800000E+00  1.60000000E+01  1.00800000E+00  1.00800000E+00
  1.60000000E+01  1.00800000E+00  1.00800000E+00  1.60000000E+01  1.00800000E+00
  1.00800000E+00  1.60000000E+01  1.00800000E+00  1.00800000E+00  1.60000000E+01
  1.00800000E+00  1.00800000E+00  1.60000000E+01  1.00800000E+00  1.00800000E+00
  1.60000000E+01  1.00800000E+00  1.00800000E+00  1.60000000E+01  1.00800000E+00
  1.00800000E+00  1.60000000E+01  1.00800000E+00  1.00800000E+00  1.60000000E+01
  1.00800000E+00  1.00800000E+00  1.60000000E+01  1.00800000E+00  1.00800000E+00
  1.60000000E+01  1.00800000E+00  1.00800000E+00  1.60000000E+01  1.00800000E+00
  1.00800000E+00  1.60000000E+01  1.00800000E+00  1.00800000E+00  1.60000000E+01
  1.00800000E+00  1.00800000E+00  1.60000000E+01  1.00800000E+00  1.00800000E+00
  1.60000000E+01  1.00800000E+00  1.00800000E+00  1.60000000E+01  1.00800000E+00
  1.00800000E+00  1.60000000E+01  1.00800000E+00  1.00800000E+00  1.60000000E+01
  1.00800000E+00  1.00800000E+00  1.60000000E+01  1.00800000E+00  1.00800000E+00
  1.60000000E+01  1.00800000E+00  1.00800000E+00  1.60000000E+01  1.00800000E+00
  1.00800000E+00  1.60000000E+01  1.00800000E+00  1.00800000E+00  1.60000000E+01
  1.00800000E+00  1.00800000E+00  1.60000000E+01  1.00800000E+00  1.00800000E+00
  1.60000000E+01  1.00800000E+00  1.00800000E+00  1.60000000E+01  1.00800000E+00
  1.00800000E+00  1.60000000E+01  1.00800000E+00  1.00800000E+00  1.60000000E+01
  1.00800000E+00  1.00800000E+00  1.60000000E+01  1.00800000E+00  1.00800000E+00
  1.60000000E+01  1.00800000E+00  1.00800000E+00  1.60000000E+01  1.00800000E+00
  1.00800000E+00  1.60000000E+01  1.00800000E+00  1.00800000E+00  1.60000000E+01
  1.00800000E+00  1.00800000E+00  1.60000000E+01  1.00800000E+00  1.00800000E+00
  1.60000000E+01  1.00800000E+00  1.00800000E+00  1.60000000E+01  1.00800000E+00
  1.00800000E+00  1.60000000E+01  1.00800000E+00  1.00800000E+00  1.60000000E+01
  1.00800000E+00  1.00800000E+00  1.60000000E+01  1.00800000E+00  1.00800000E+00
  1.60000000E+01  1.00800000E+00  1.00800000E+00  1.60000000E+01  1.00800000E+00
  1.00800000E+00  1.60000000E+01  1.00800000E+00  1.00800000E+00  1.60000000E+01
  1.00800000E+00  1.00800000E+00  1.60000000E+01  1.00800000E+00  1.00800000E+00
  1.60000000E+01  1.00800000E+00  1.00800000E+00  1.60000000E+01  1.00800000E+00
  1.00800000E+00  1.60000000E+01  1.00800000E+00  1.00800000E+00  1.60000000E+01
  1.00800000E+00  1.00800000E+00  1.60000000E+01  1.00800000E+00  1.00800000E+00
  1.60000000E+01  1.00800000E+00  1.00800000E+00  1.60000000E+01  1.00800000E+00
  1.00800000E+00  1.60000000E+01  1.00800000E+00  1.00800000E+00  1.60000000E+01
  1.00800000E+00  1.00800000E+00  1.60000000E+01  1.00800000E+00  1.00800000E+00
  1.60000000E+01  1.00800000E+00  1.00800000E+00  1.60000000E+01  1.00800000E+00
  1.00800000E+00  1.60000000E+01  1.00800000E+00  1.00800000E+00  1.60000000E+01
  1.00800000E+00  1.00800000E+00  1.60000000E+01  1.00800000E+00  1.00800000E+00
  1.60000000E+01  1.00800000E+00  1.00800000E+00  1.60000000E+01  1.00800000E+00
  1.00800000E+00  1.60000000E+01  1.00800000E+00  1.00800000E+00  1.60000000E+01
  1.00800000E+00  1.00800000E+00  1.60000000E+01  1.00800000E+00  1.00800000E+00
  1.60000000E+01  1.00800000E+00  1.00800000E+00  1.60000000E+01  1.00800000E+00
  1.00800000E+00  1.60000000E+01  1.00800000E+00  1.00800000E+00  1.60000000E+01
  1.00800000E+00  1.00800000E+00  1.60000000E+01  1.00800000E+00  1.00800000E+00
  1.60000000E+01  1.00800000E+00  1.00800000E+00  1.60000000E+01  1.00800000E+00
  1.00800000E+00  1.60000000E+01  1.00800000E+00  1.00800000E+00  1.60000000E+01
  1.00800000E+00  1.00800000E+00  1.60000000E+01  1.00800000E+00  1.00800000E+00
  1.60000000E+01  1.00800000E+00  1.00800000E+00  1.60000000E+01  1.00800000E+00
  1.00800000E+00  1.60000000E+01  1.00800000E+00  1.00800000E+00  1.60000000E+01
  1.00800000E+00  1.00800000E+00  1.60000000E+01  1.00800000E+00  1.00800000E+00
  1.60000000E+01  1.00800000E+00  1.00800000E+00  1.60000000E+01  1.00800000E+00
  1.00800000E+00  1.60000000E+01  1.00800000E+00  1.00800000E+00  1.60000000E+01
  1.00800000E+00  1.00800000E+00  1.60000000E+01  1.00800000E+00  1.00800000E+00
  1.60000000E+01  1.00800000E+00  1.00800000E+00  1.60000000E+01  1.00800000E+00
  1.00800000E+00  1.60000000E+01  1.00800000E+00  1.00800000E+00  1.60000000E+01
  1.00800000E+00  1.00800000E+00  1.60000000E+01  1.00800000E+00  1.00800000E+00
  1.60000000E+01  1.00800000E+00  1.00800000E+00  1.60000000E+01  1.00800000E+00
  1.00800000E+00  1.60000000E+01  1.00800000E+00  1.00800000E+00  1.60000000E+01
  1.00800000E+00  1.00800000E+00  1.60000000E+01  1.00800000E+00  1.00800000E+00
  1.60000000E+01  1.00800000E+00  1.00800000E+00  1.60000000E+01  1.00800000E+00
  1.00800000E+00  1.60000000E+01  1.00800000E+00  1.00800000E+00  1.60000000E+01
  1.00800000E+00  1.00800000E+00  1.60000000E+01  1.00800000E+00  1.00800000E+00
  1.60000000E+01  1.00800000E+00  1.00800000E+00  1.60000000E+01  1.00800000E+00
  1.00800000E+00  1.60000000E+01  1.00800000E+00  1.00800000E+00  1.60000000E+01
  1.00800000E+00  1.00800000E+00  1.60000000E+01  1.00800000E+00  1.00800000E+00
  1.60000000E+01  1.00800000E+00  1.00800000E+00  1.60000000E+01  1.00800000E+00
  1.00800000E+00  1.60000000E+01  1.00800000E+00  1.00800000E+00  1.60000000E+01
  1.00800000E+00  1.00800000E+00  1.60000000E+01  1.00800000E+00  1.00800000E+00
  1.60000000E+01  1.00800000E+00  1.00800000E+00  1.60000000E+01  1.00800000E+00
  1.00800000E+00  1.60000000E+01  1.00800000E+00  1.00800000E+00  1.60000000E+01
  1.00800000E+00  1.00800000E+00  1.60000000E+01  1.00800000E+00  1.00800000E+00
  1.60000000E+01  1.00800000E+00  1.00800000E+00  1.60000000E+01  1.00800000E+00
  1.00800000E+00  1.60000000E+01  1.00800000E+00  1.00800000E+00  1.60000000E+01
  1.00800000E+00  1.00800000E+00  1.60000000E+01  1.00800000E+00  1.00800000E+00
  1.60000000E+01  1.00800000E+00  1.00800000E+00  1.60000000E+01  1.00800000E+00
  1.00800000E+00  1.60000000E+01  1.00800000E+00  1.00800000E+00  1.60000000E+01
  1.00800000E+00  1.00800000E+00  1.60000000E+01  1.00800000E+00  1.00800000E+00
  1.60000000E+01  1.00800000E+00  1.00800000E+00  1.60000000E+01  1.00800000E+00
  1.00800000E+00  1.60000000E+01  1.00800000E+00  1.00800000E+00  1.60000000E+01
  1.00800000E+00  1.00800000E+00  1.60000000E+01  1.00800000E+00  1.00800000E+00
  1.60000000E+01  1.00800000E+00  1.00800000E+00  1.60000000E+01  1.00800000E+00
  1.00800000E+00  1.60000000E+01  1.00800000E+00  1.00800000E+00  1.60000000E+01
  1.00800000E+00  1.00800000E+00  1.60000000E+01  1.00800000E+00  1.00800000E+00
  1.60000000E+01  1.00800000E+00  1.00800000E+00  1.60000000E+01  1.00800000E+00
  1.00800000E+00  1.60000000E+01  1.00800000E+00  1.00800000E+00  1.60000000E+01
  1.00800000E+00  1.00800000E+00  1.60000000E+01  1.00800000E+00  1.00800000E+00
  1.60000000E+01  1.00800000E+00  1.00800000E+00  1.60000000E+01  1.00800000E+00
  1.00800000E+00  1.60000000E+01  1.00800000E+00  1.00800000E+00  1.60000000E+01
  1.00800000E+00  1.00800000E+00  1.60000000E+01  1.00800000E+00  1.00800000E+00
  1.60000000E+01  1.00800000E+00  1.00800000E+00  1.60000000E+01  1.00800000E+00
  1.00800000E+00  1.60000000E+01  1.00800000E+00  1.00800000E+00  1.60000000E+01
  1.00800000E+00  1.00800000E+00  1.60000000E+01  1.00800000E+00  1.00800000E+00
  1.60000000E+01  1.00800000E+00  1.00800000E+00  1.60000000E+01  1.00800000E+00
  1.00800000E+00  1.60000000E+01  1.00800000E+00  1.00800000E+00  1.60000000E+01
  1.00800000E+00  1.00800000E+00  1.60000000E+01  1.00800000E+00  1.00800000E+00
  1.60000000E+01  1.00800000E+00  1.00800000E+00  1.60000000E+01  1.00800000E+00
  1.00800000E+00  1.60000000E+01  1.00800000E+00  1.00800000E+00  1.60000000E+01
  1.00800000E+00  1.00800000E+00  1.60000000E+01  1.00800000E+00  1.00800000E+00
  1.60000000E+01  1.00800000E+00  1.00800000E+00  1.60000000E+01  1.00800000E+00
  1.00800000E+00  1.60000000E+01  1.00800000E+00  1.00800000E+00  1.60000000E+01
  1.00800000E+00  1.00800000E+00  1.60000000E+01  1.00800000E+00  1.00800000E+00
  1.60000000E+01  1.00800000E+00  1.00800000E+00  1.60000000E+01  1.00800000E+00
  1.00800000E+00  1.60000000E+01  1.00800000E+00  1.00800000E+00  1.60000000E+01
  1.00800000E+00  1.00800000E+00  1.60000000E+01  1.00800000E+00  1.00800000E+00
  1.60000000E+01  1.00800000E+00  1.00800000E+00  1.60000000E+01  1.00800000E+00
  1.00800000E+00  1.60000000E+01  1.00800000E+00  1.00800000E+00  1.60000000E+01
  1.00800000E+00  1.00800000E+00  1.60000000E+01  1.00800000E+00  1.00800000E+00
  1.60000000E+01  1.00800000E+00  1.00800000E+00  1.60000000E+01  1.00800000E+00
  1.00800000E+00  1.60000000E+01  1.00800000E+00  1.00800000E+00  1.60000000E+01
  1.00800000E+00  1.00800000E+00  1.60000000E+01  1.00800000E+00  1.00800000E+00
  1.60000000E+01  1.00800000E+00  1.00800000E+00  1.60000000E+01  1.00800000E+00
  1.00800000E+00  1.60000000E+01  1.00800000E+00  1.00800000E+00  1.60000000E+01
  1.00800000E+00  1.00800000E+00  1.60000000E+01  1.00800000E+00  1.00800000E+00
  1.60000000E+01  1.00800000E+00  1.00800000E+00  1.60000000E+01  1.00800000E+00
  1.00800000E+00  1.60000000E+01  1.00800000E+00  1.00800000E+00  1.60000000E+01
  1.00800000E+00  1.00800000E+00  1.60000000E+01  1.00800000E+00  1.00800000E+00
  1.60000000E+01  1.00800000E+00  1.00800000E+00  1.60000000E+01  1.00800000E+00
  1.00800000E+00  1.60000000E+01  1.00800000E+00  1.00800000E+00  1.60000000E+01
  1.00800000E+00  1.00800000E+00  1.60000000E+01  1.00800000E+00  1.00800000E+00
  1.60000000E+01  1.00800000E+00  1.00800000E+00  1.60000000E+01  1.00800000E+00
  1.00800000E+00  1.60000000E+01  1.00800000E+00  1.00800000E+00  1.60000000E+01
  1.00800000E+00  1.00800000E+00  1.60000000E+01  1.00800000E+00  1.00800000E+00
  1.60000000E+01  1.00800000E+00  1.00800000E+00  1.60000000E+01  1.00800000E+00
  1.00800000E+00  1.60000000E+01  1.00800000E+00  1.00800000E+00  1.60000000E+01
  1.00800000E+00  1.00800000E+00  1.60000000E+01  1.00800000E+00  1.00800000E+00
  1.60000000E+01  1.00800000E+00  1.00800000E+00  1.60000000E+01  1.00800000E+00
  1.00800000E+00  1.60000000E+01  1.00800000E+00  1.00800000E+00  1.60000000E+01
  1.00800000E+00  1.00800000E+00  1.60000000E+01  1.00800000E+00  1.00800000E+00
  1.60000000E+01  1.00800000E+00  1.00800000E+00  1.60000000E+01  1.00800000E+00
  1.00800000E+00  1.60000000E+01  1.00800000E+00  1.00800000E+00  1.60000000E+01
  1.00800000E+00  1.00800000E+00  1.60000000E+01  1.00800000E+00  1.00800000E+00
  1.60000000E+01  1.00800000E+00  1.00800000E+00  1.60000000E+01  1.00800000E+00
  1.00800000E+00  1.60000000E+01  1.00800000E+00  1.00800000E+00  1.60000000E+01
  1.00800000E+00  1.00800000E+00  1.60000000E+01  1.00800000E+00  1.00800000E+00
  1.60000000E+01  1.00800000E+00  1.00800000E+00  1.60000000E+01  1.00800000E+00
  1.00800000E+00  1.60000000E+01  1.00800000E+00  1.00800000E+00  1.60000000E+01
  1.00800000E+00  1.00800000E+00  1.60000000E+01  1.00800000E+00  1.00800000E+00
  1.60000000E+01  1.00800000E+00  1.00800000E+00  1.60000000E+01  1.00800000E+00
  1.00800000E+00  1.60000000E+01  1.00800000E+00  1.00800000E+00  1.60000000E+01
  1.00800000E+00  1.00800000E+00  1.60000000E+01  1.00800000E+00  1.00800000E+00
  1.60000000E+01  1.00800000E+00  1.00800000E+00  1.60000000E+01  1.00800000E+00
  1.00800000E+00  1.60000000E+01  1.00800000E+00  1.00800000E+00  1.60000000E+01
  1.00800000E+00  1.00800000E+00  1.60000000E+01  1.00800000E+00  1.00800000E+00
  1.60000000E+01  1.00800000E+00  1.00800000E+00  1.60000000E+01  1.00800000E+00
  1.00800000E+00  1.60000000E+01  1.00800000E+00  1.00800000E+00  1.60000000E+01
  1.00800000E+00  1.00800000E+00  1.60000000E+01  1.00800000E+00  1.00800000E+00
  1.60000000E+01  1.00800000E+00  1.00800000E+00  1.60000000E+01  1.00800000E+00
  1.00800000E+00  1.60000000E+01  1.00800000E+00  1.00800000E+00  1.60000000E+01
  1.00800000E+00  1.00800000E+00  1.60000000E+01  1.00800000E+00  1.00800000E+00
  1.60000000E+01  1.00800000E+00  1.00800000E+00  1.60000000E+01  1.00800000E+00
  1.00800000E+00  1.60000000E+01  1.00800000E+00  1.00800000E+00  1.60000000E+01
  1.00800000E+00  1.00800000E+00  1.60000000E+01  1.00800000E+00  1.00800000E+00
  1.60000000E+01  1.00800000E+00  1.00800000E+00  1.60000000E+01  1.00800000E+00
  1.00800000E+00  1.60000000E+01  1.00800000E+00  1.00800000E+00  1.60000000E+01
  1.00800000E+00  1.00800000E+00  1.60000000E+01  1.00800000E+00  1.00800000E+00
  1.60000000E+01  1.00800000E+00  1.00800000E+00  1.60000000E+01  1.00800000E+00
  1.00800000E+00  1.60000000E+01  1.00800000E+00  1.00800000E+00  1.60000000E+01
  1.00800000E+00  1.00800000E+00  1.60000000E+01  1.00800000E+00  1.00800000E+00
  1.60000000E+01  1.00800000E+00  1.00800000E+00  1.60000000E+01  1.00800000E+00
  1.00800000E+00  1.60000000E+01  1.00800000E+00  1.00800000E+00  1.60000000E+01
  1.00800000E+00  1.00800000E+00  1.60000000E+01  1.00800000E+00  1.00800000E+00
  1.60000000E+01  1.00800000E+00  1.00800000E+00  1.60000000E+01  1.00800000E+00
  1.00800000E+00  1.60000000E+01  1.00800000E+00  1.00800000E+00  1.60000000E+01
  1.00800000E+00  1.00800000E+00  1.60000000E+01  1.00800000E+00  1.00800000E+00
  1.60000000E+01  1.00800000E+00  1.00800000E+00  1.60000000E+01  1.00800000E+00
  1.00800000E+00  1.60000000E+01  1.00800000E+00  1.00800000E+00  1.60000000E+01
  1.00800000E+00  1.00800000E+00  1.60000000E+01  1.00800000E+00  1.00800000E+00
  1.60000000E+01  1.00800000E+00  1.00800000E+00  1.60000000E+01  1.00800000E+00
  1.00800000E+00  1.60000000E+01  1.00800000E+00  1.00800000E+00  1.60000000E+01
  1.00800000E+00  1.00800000E+00  1.60000000E+01  1.00800000E+00  1.00800000E+00
  1.60000000E+01  1.00800000E+00  1.00800000E+00  1.60000000E+01  1.00800000E+00
  1.00800000E+00  1.60000000E+01  1.00800000E+00  1.00800000E+00  1.60000000E+01
  1.00800000E+00  1.00800000E+00  1.60000000E+01  1.00800000E+00  1.00800000E+00
  1.60000000E+01  1.00800000E+00  1.00800000E+00  1.60000000E+01  1.00800000E+00
  1.00800000E+00  1.60000000E+01  1.00800000E+00  1.00800000E+00  1.60000000E+01
  1.00800000E+00  1.00800000E+00  1.60000000E+01  1.00800000E+00  1.00800000E+00
  1.60000000E+01  1.00800000E+00  1.00800000E+00  1.60000000E+01  1.00800000E+00
  1.00800000E+00  1.60000000E+01  1.00800000E+00  1.00800000E+00  1.60000000E+01
  1.00800000E+00  1.00800000E+00  1.60000000E+01  1.00800000E+00  1.00800000E+00
  1.60000000E+01  1.00800000E+00  1.00800000E+00  1.60000000E+01  1.00800000E+00
  1.00800000E+00  1.60000000E+01  1.00800000E+00  1.00800000E+00  1.60000000E+01
  1.00800000E+00  1.00800000E+00  1.60000000E+01  1.00800000E+00  1.00800000E+00
  1.60000000E+01  1.00800000E+00  1.00800000E+00  1.60000000E+01  1.00800000E+00
  1.00800000E+00  1.60000000E+01  1.00800000E+00  1.00800000E+00  1.60000000E+01
  1.00800000E+00  1.00800000E+00  1.60000000E+01  1.00800000E+00  1.00800000E+00
  1.60000000E+01  1.00800000E+00  1.00800000E+00  1.60000000E+01  1.00800000E+00
  1.00800000E+00  1.60000000E+01  1.00800000E+00  1.00800000E+00  1.60000000E+01
  1.00800000E+00  1.00800000E+00  1.60000000E+01  1.00800000E+00  1.00800000E+00
  1.60000000E+01  1.00800000E+00  1.00800000E+00  1.60000000E+01  1.00800000E+00
  1.00800000E+00  1.60000000E+01  1.00800000E+00  1.00800000E+00  1.60000000E+01
  1.00800000E+00  1.00800000E+00  1.60000000E+01  1.00800000E+00  1.00800000E+00
  1.60000000E+01  1.00800000E+00  1.00800000E+00  1.60000000E+01  1.00800000E+00
  1.00800000E+00  1.60000000E+01  1.00800000E+00  1.00800000E+00  1.60000000E+01
  1.00800000E+00  1.00800000E+00  1.60000000E+01  1.00800000E+00  1.00800000E+00
  1.60000000E+01  1.00800000E+00  1.00800000E+00  1.60000000E+01  1.00800000E+00
  1.00800000E+00  1.60000000E+01  1.00800000E+00  1.00800000E+00  1.60000000E+01
  1.00800000E+00  1.00800000E+00  1.60000000E+01  1.00800000E+00  1.00800000E+00
  1.60000000E+01  1.00800000E+00  1.00800000E+00  1.60000000E+01  1.00800000E+00
  1.00800000E+00  1.60000000E+01  1.00800000E+00  1.00800000E+00  1.60000000E+01
  1.00800000E+00  1.00800000E+00  1.60000000E+01  1.00800000E+00  1.00800000E+00
  1.60000000E+01  1.00800000E+00  1.00800000E+00  1.60000000E+01  1.00800000E+00
  1.00800000E+00  1.60000000E+01  1.00800000E+00  1.00800000E+00  1.60000000E+01
  1.00800000E+00  1.00800000E+00  1.60000000E+01  1.00800000E+00  1.00800000E+00
  1.60000000E+01  1.00800000E+00  1.00800000E+00  1.60000000E+01  1.00800000E+00
  1.00800000E+00  1.60000000E+01  1.00800000E+00  1.00800000E+00  1.60000000E+01
  1.00800000E+00  1.00800000E+00  1.60000000E+01  1.00800000E+00  1.00800000E+00
  1.60000000E+01  1.00800000E+00  1.00800000E+00  1.60000000E+01  1.00800000E+00
  1.00800000E+00  1.60000000E+01  1.00800000E+00  1.00800000E+00  1.60000000E+01
  1.00800000E+00  1.00800000E+00  1.60000000E+01  1.00800000E+00  1.00800000E+00
  1.60000000E+01  1.00800000E+00  1.00800000E+00  1.60000000E+01  1.00800000E+00
  1.00800000E+00  1.60000000E+01  1.00800000E+00  1.00800000E+00  1.60000000E+01
  1.00800000E+00  1.00800000E+00  1.60000000E+01  1.00800000E+00  1.00800000E+00
  1.60000000E+01  1.00800000E+00  1.00800000E+00  1.60000000E+01  1.00800000E+00
  1.00800000E+00  1.60000000E+01  1.00800000E+00  1.00800000E+00  1.60000000E+01
  1.00800000E+00  1.00800000E+00  1.60000000E+01  1.00800000E+00  1.00800000E+00
  1.60000000E+01  1.00800000E+00  1.00800000E+00  1.60000000E+01  1.00800000E+00
  1.00800000E+00  1.60000000E+01  1.00800000E+00  1.00800000E+00  1.60000000E+01
  1.00800000E+00  1.00800000E+00  1.60000000E+01  1.00800000E+00  1.00800000E+00
  1.60000000E+01  1.00800000E+00  1.00800000E+00  1.60000000E+01  1.00800000E+00
  1.00800000E+00  1.60000000E+01  1.00800000E+00  1.00800000E+00  1.60000000E+01
  1.00800000E+00  1.00800000E+00  1.60000000E+01  1.00800000E+00  1.00800000E+00
  1.60000000E+01  1.00800000E+00  1.00800000E+00  1.60000000E+01  1.00800000E+00
  1.00800000E+00  1.60000000E+01  1.00800000E+00  1.00800000E+00  1.60000000E+01
  1.00800000E+00  1.00800000E+00  1.60000000E+01  1.00800000E+00  1.00800000E+00
  1.60000000E+01  1.00800000E+00  1.00800000E+00  1.60000000E+01  1.00800000E+00
  1.00800000E+00  1.60000000E+01  1.00800000E+00  1.00800000E+00  1.60000000E+01
  1.00800000E+00  1.00800000E+00  1.60000000E+01  1.00800000E+00  1.00800000E+00
  1.60000000E+01  1.00800000E+00  1.00800000E+00  1.60000000E+01  1.00800000E+00
  1.00800000E+00  1.60000000E+01  1.00800000E+00  1.00800000E+00  1.60000000E+01
  1.00800000E+00  1.00800000E+00  1.60000000E+01  1.00800000E+00  1.00800000E+00
  1.60000000E+01  1.00800000E+00  1.00800000E+00  1.60000000E+01  1.00800000E+00
  1.00800000E+00  1.60000000E+01  1.00800000E+00  1.00800000E+00  1.60000000E+01
  1.00800000E+00  1.00800000E+00  1.60000000E+01  1.00800000E+00  1.00800000E+00
  1.60000000E+01  1.00800000E+00  1.00800000E+00  1.60000000E+01  1.00800000E+00
  1.00800000E+00  1.60000000E+01  1.00800000E+00  1.00800000E+00  1.60000000E+01
  1.00800000E+00  1.00800000E+00  1.60000000E+01  1.00800000E+00  1.00800000E+00
  1.60000000E+01  1.00800000E+00  1.00800000E+00  1.60000000E+01  1.00800000E+00
  1.00800000E+00  1.60000000E+01  1.00800000E+00  1.00800000E+00  1.60000000E+01
  1.00800000E+00  1.00800000E+00  1.60000000E+01  1.00800000E+00  1.00800000E+00
  1.60000000E+01  1.00800000E+00  1.00800000E+00  1.60000000E+01  1.00800000E+00
  1.00800000E+00  1.60000000E+01  1.00800000E+00  1.00800000E+00  1.60000000E+01
  1.00800000E+00  1.00800000E+00  1.60000000E+01  1.00800000E+00  1.00800000E+00
  1.60000000E+01  1.00800000E+00  1.00800000E+00  1.60000000E+01  1.00800000E+00
  1.00800000E+00  1.60000000E+01  1.00800000E+00  1.00800000E+00  1.60000000E+01
  1.00800000E+00  1.00800000E+00  1.60000000E+01  1.00800000E+00  1.00800000E+00
  1.60000000E+01  1.00800000E+00  1.00800000E+00  1.60000000E+01  1.00800000E+00
  1.00800000E+00  1.60000000E+01  1.00800000E+00  1.00800000E+00  1.60000000E+01
  1.00800000E+00  1.00800000E+00  1.60000000E+01  1.00800000E+00  1.00800000E+00
  1.60000000E+01  1.00800000E+00  1.00800000E+00  1.60000000E+01  1.00800000E+00
  1.00800000E+00  1.60000000E+01  1.00800000E+00  1.00800000E+00  1.60000000E+01
  1.00800000E+00  1.00800000E+00  1.60000000E+01  1.00800000E+00  1.00800000E+00
  1.60000000E+01  1.00800000E+00  1.00800000E+00  1.60000000E+01  1.00800000E+00
  1.00800000E+00  1.60000000E+01  1.00800000E+00  1.00800000E+00  1.60000000E+01
  1.00800000E+00  1.00800000E+00  1.60000000E+01  1.00800000E+00  1.00800000E+00
  1.60000000E+01  1.00800000E+00  1.00800000E+00  1.60000000E+01  1.00800000E+00
  1.00800000E+00  1.60000000E+01  1.00800000E+00  1.00800000E+00  1.60000000E+01
  1.00800000E+00  1.00800000E+00  1.60000000E+01  1.00800000E+00  1.00800000E+00
  1.60000000E+01  1.00800000E+00  1.00800000E+00  1.60000000E+01  1.00800000E+00
  1.00800000E+00  1.60000000E+01  1.00800000E+00  1.00800000E+00  1.60000000E+01
  1.00800000E+00  1.00800000E+00  1.60000000E+01  1.00800000E+00  1.00800000E+00
  1.60000000E+01  1.00800000E+00  1.00800000E+00  1.60000000E+01  1.00800000E+00
  1.00800000E+00  1.60000000E+01  1.00800000E+00  1.00800000E+00  1.60000000E+01
  1.00800000E+00  1.00800000E+00  1.60000000E+01  1.00800000E+00  1.00800000E+00
  1.60000000E+01  1.00800000E+00  1.00800000E+00  1.60000000E+01  1.00800000E+00
  1.00800000E+00  1.60000000E+01  1.00800000E+00  1.00800000E+00  1.60000000E+01
  1.00800000E+00  1.00800000E+00  1.60000000E+01  1.00800000E+00  1.00800000E+00
  1.60000000E+01  1.00800000E+00  1.00800000E+00  1.60000000E+01  1.00800000E+00
  1.00800000E+00  1.60000000E+01  1.00800000E+00  1.00800000E+00  1.60000000E+01
  1.00800000E+00  1.00800000E+00  1.60000000E+01  1.00800000E+00  1.00800000E+00
  1.60000000E+01  1.00800000E+00  1.00800000E+00  1.60000000E+01  1.00800000E+00
  1.00800000E+00  1.60000000E+01  1.00800000E+00  1.00800000E+00  1.60000000E+01
  1.00800000E+00  1.00800000E+00  1.60000000E+01  1.00800000E+00  1.00800000E+00
  1.60000000E+01  1.00800000E+00  1.00800000E+00  1.60000000E+01  1.00800000E+00
  1.00800000E+00  1.60000000E+01  1.00800000E+00  1.00800000E+00  1.60000000E+01
  1.00800000E+00  1.00800000E+00  1.60000000E+01  1.00800000E+00  1.00800000E+00
  1.60000000E+01  1.00800000E+00  1.00800000E+00  1.60000000E+01  1.00800000E+00
  1.00800000E+00  1.60000000E+01  1.00800000E+00  1.00800000E+00  1.60000000E+01
  1.00800000E+00  1.00800000E+00  1.60000000E+01  1.00800000E+00  1.00800000E+00
  1.60000000E+01  1.00800000E+00  1.00800000E+00  1.60000000E+01  1.00800000E+00
  1.00800000E+00  1.60000000E+01  1.00800000E+00  1.00800000E+00  1.60000000E+01
  1.00800000E+00  1.00800000E+00  1.60000000E+01  1.00800000E+00  1.00800000E+00
  1.60000000E+01  1.00800000E+00  1.00800000E+00  1.60000000E+01  1.00800000E+00
  1.00800000E+00  1.60000000E+01  1.00800000E+00  1.00800000E+00  1.60000000E+01
  1.00800000E+00  1.00800000E+00  1.60000000E+01  1.00800000E+00  1.00800000E+00
  1.60000000E+01  1.00800000E+00  1.00800000E+00  1.60000000E+01  1.00800000E+00
  1.00800000E+00  1.60000000E+01  1.00800000E+00  1.00800000E+00  1.60000000E+01
  1.00800000E+00  1.00800000E+00  1.60000000E+01  1.00800000E+00  1.00800000E+00
  1.60000000E+01  1.00800000E+00  1.00800000E+00  1.60000000E+01  1.00800000E+00
  1.00800000E+00  1.60000000E+01  1.00800000E+00  1.00800000E+00  1.60000000E+01
  1.00800000E+00  1.00800000E+00  1.60000000E+01  1.00800000E+00  1.00800000E+00
  1.60000000E+01  1.00800000E+00  1.00800000E+00  1.60000000E+01  1.00800000E+00
  1.00800000E+00  1.60000000E+01  1.00800000E+00  1.00800000E+00  1.60000000E+01
  1.00800000E+00  1.00800000E+00  1.60000000E+01  1.00800000E+00  1.00800000E+00
  1.60000000E+01  1.00800000E+00  1.00800000E+00  1.60000000E+01  1.00800000E+00
  1.00800000E+00  1.60000000E+01  1.00800000E+00  1.00800000E+00  1.60000000E+01
  1.00800000E+00  1.00800000E+00  1.60000000E+01  1.00800000E+00  1.00800000E+00
  1.60000000E+01  1.00800000E+00  1.00800000E+00  1.60000000E+01  1.00800000E+00
  1.00800000E+00  1.60000000E+01  1.00800000E+00  1.00800000E+00  1.60000000E+01
  1.00800000E+00  1.00800000E+00  1.60000000E+01  1.00800000E+00  1.00800000E+00
  1.60000000E+01  1.00800000E+00  1.00800000E+00  1.60000000E+01  1.00800000E+00
  1.00800000E+00  1.60000000E+01  1.00800000E+00  1.00800000E+00  1.60000000E+01
  1.00800000E+00  1.00800000E+00  1.60000000E+01  1.00800000E+00  1.00800000E+00
  1.60000000E+01  1.00800000E+00  1.00800000E+00  1.60000000E+01  1.00800000E+00
  1.00800000E+00  1.60000000E+01  1.00800000E+00  1.00800000E+00  1.60000000E+01
  1.00800000E+00  1.00800000E+00  1.60000000E+01  1.00800000E+00  1.00800000E+00
  1.60000000E+01  1.00800000E+00  1.00800000E+00  1.60000000E+01  1.00800000E+00
  1.00800000E+00  1.60000000E+01  1.00800000E+00  1.00800000E+00  1.60000000E+01
  1.00800000E+00  1.00800000E+00  1.60000000E+01  1.00800000E+00  1.00800000E+00
  1.60000000E+01  1.00800000E+00  1.00800000E+00  1.60000000E+01  1.00800000E+00
  1.00800000E+00  1.60000000E+01  1.00800000E+00  1.00800000E+00  1.60000000E+01
  1.00800000E+00  1.00800000E+00  1.60000000E+01  1.00800000E+00  1.00800000E+00
  1.60000000E+01  1.00800000E+00  1.00800000E+00  1.60000000E+01  1.00800000E+00
  1.00800000E+00  1.60000000E+01  1.00800000E+00  1.00800000E+00  1.60000000E+01
  1.00800000E+00  1.00800000E+00  1.60000000E+01  1.00800000E+00  1.00800000E+00
  1.60000000E+01  1.00800000E+00  1.00800000E+00  1.60000000E+01  1.00800000E+00
  1.00800000E+00  1.60000000E+01  1.00800000E+00  1.00800000E+00  1.60000000E+01
  1.00800000E+00  1.00800000E+00  1.60000000E+01  1.00800000E+00  1.00800000E+00
  1.60000000E+01  1.00800000E+00  1.00800000E+00  1.60000000E+01  1.00800000E+00
  1.00800000E+00  1.60000000E+01  1.00800000E+00  1.00800000E+00  1.60000000E+01
  1.00800000E+00  1.00800000E+00  1.60000000E+01  1.00800000E+00  1.00800000E+00
  1.60000000E+01  1.00800000E+00  1.00800000E+00  1.60000000E+01  1.00800000E+00
  1.00800000E+00  1.60000000E+01  1.00800000E+00  1.00800000E+00  1.60000000E+01
  1.00800000E+00  1.00800000E+00  1.60000000E+01  1.00800000E+00  1.00800000E+00
  1.60000000E+01  1.00800000E+00  1.00800000E+00  1.60000000E+01  1.00800000E+00
  1.00800000E+00  1.60000000E+01  1.00800000E+00  1.00800000E+00  1.60000000E+01
  1.00800000E+00  1.00800000E+00  1.60000000E+01  1.00800000E+00  1.00800000E+00
  1.60000000E+01  1.00800000E+00  1.00800000E+00  1.60000000E+01  1.00800000E+00
  1.00800000E+00  1.60000000E+01  1.00800000E+00  1.00800000E+00  1.60000000E+01
  1.00800000E+00  1.00800000E+00  1.60000000E+01  1.00800000E+00  1.00800000E+00
  1.60000000E+01  1.00800000E+00  1.00800000E+00  1.60000000E+01  1.00800000E+00
  1.00800000E+00  1.60000000E+01  1.00800000E+00  1.00800000E+00  1.60000000E+01
  1.00800000E+00  1.00800000E+00  1.60000000E+01  1.00800000E+00  1.00800000E+00
  1.60000000E+01  1.00800000E+00  1.00800000E+00  1.60000000E+01  1.00800000E+00
  1.00800000E+00  1.60000000E+01  1.00800000E+00  1.00800000E+00  1.60000000E+01
  1.00800000E+00  1.00800000E+00  1.60000000E+01  1.00800000E+00  1.00800000E+00
  1.60000000E+01  1.00800000E+00  1.00800000E+00  1.60000000E+01  1.00800000E+00
  1.00800000E+00  1.60000000E+01  1.00800000E+00  1.00800000E+00  1.60000000E+01
  1.00800000E+00  1.00800000E+00  1.60000000E+01  1.00800000E+00  1.00800000E+00
  1.60000000E+01  1.00800000E+00  1.00800000E+00  1.60000000E+01  1.00800000E+00
  1.00800000E+00  1.60000000E+01  1.00800000E+00  1.00800000E+00  1.60000000E+01
  1.00800000E+00  1.00800000E+00  1.60000000E+01  1.00800000E+00  1.00800000E+00
  1.60000000E+01  1.00800000E+00  1.00800000E+00  1.60000000E+01  1.00800000E+00
  1.00800000E+00  1.60000000E+01  1.00800000E+00  1.00800000E+00  1.60000000E+01
  1.00800000E+00  1.00800000E+00  1.60000000E+01  1.00800000E+00  1.00800000E+00
  1.60000000E+01  1.00800000E+00  1.00800000E+00  1.60000000E+01  1.00800000E+00
  1.00800000E+00  1.60000000E+01  1.00800000E+00  1.00800000E+00  1.60000000E+01
  1.00800000E+00  1.00800000E+00  1.60000000E+01  1.00800000E+00  1.00800000E+00
  1.60000000E+01  1.00800000E+00  1.00800000E+00  1.60000000E+01  1.00800000E+00
  1.00800000E+00  1.60000000E+01  1.00800000E+00  1.00800000E+00  1.60000000E+01
  1.00800000E+00  1.00800000E+00  1.60000000E+01  1.00800000E+00  1.00800000E+00
  1.60000000E+01  1.00800000E+00  1.00800000E+00  1.60000000E+01  1.00800000E+00
  1.00800000E+00  1.60000000E+01  1.00800000E+00  1.00800000E+00  1.60000000E+01
  1.00800000E+00  1.00800000E+00  1.60000000E+01  1.00800000E+00  1.00800000E+00
  1.60000000E+01  1.00800000E+00  1.00800000E+00  1.60000000E+01  1.00800000E+00
  1.00800000E+00  1.60000000E+01  1.00800000E+00  1.00800000E+00  1.60000000E+01
  1.00800000E+00  1.00800000E+00  1.60000000E+01  1.00800000E+00  1.00800000E+00
  1.60000000E+01  1.00800000E+00  1.00800000E+00  1.60000000E+01  1.00800000E+00
  1.00800000E+00  1.60000000E+01  1.00800000E+00  1.00800000E+00  1.60000000E+01
  1.00800000E+00  1.00800000E+00  1.60000000E+01  1.00800000E+00  1.00800000E+00
  1.60000000E+01  1.00800000E+00  1.00800000E+00  1.60000000E+01  1.00800000E+00
  1.00800000E+00  1.60000000E+01  1.00800000E+00  1.00800000E+00  1.60000000E+01
  1.00800000E+00  1.00800000E+00  1.60000000E+01  1.00800000E+00  1.00800000E+00
  1.60000000E+01  1.00800000E+00  1.00800000E+00  1.60000000E+01  1.00800000E+00
  1.00800000E+00  1.60000000E+01  1.00800000E+00  1.00800000E+00  1.60000000E+01
  1.00800000E+00  1.00800000E+00  1.60000000E+01  1.00800000E+00  1.00800000E+00
  1.60000000E+01  1.00800000E+00  1.00800000E+00  1.60000000E+01  1.00800000E+00
  1.00800000E+00  1.60000000E+01  1.00800000E+00  1.00800000E+00  1.60000000E+01
  1.00800000E+00  1.00800000E+00  1.60000000E+01  1.00800000E+00  1.00800000E+00
  1.60000000E+01  1.00800000E+00  1.00800000E+00  1.60000000E+01  1.00800000E+00
  1.00800000E+00  1.60000000E+01  1.00800000E+00  1.00800000E+00  1.60000000E+01
  1.00800000E+00  1.00800000E+00  1.60000000E+01  1.00800000E+00  1.00800000E+00
  1.60000000E+01  1.00800000E+00  1.00800000E+00  1.60000000E+01  1.00800000E+00
  1.00800000E+00  1.60000000E+01  1.00800000E+00  1.00800000E+00  1.60000000E+01
  1.00800000E+00  1.00800000E+00  1.60000000E+01  1.00800000E+00  1.00800000E+00
  1.60000000E+01  1.00800000E+00  1.00800000E+00  1.60000000E+01  1.00800000E+00
  1.00800000E+00  1.60000000E+01  1.00800000E+00  1.00800000E+00  1.60000000E+01
  1.00800000E+00  1.00800000E+00  1.60000000E+01  1.00800000E+00  1.00800000E+00
  1.60000000E+01  1.00800000E+00  1.00800000E+00  1.60000000E+01  1.00800000E+00
  1.00800000E+00  1.60000000E+01  1.00800000E+00  1.00800000E+00  1.60000000E+01
  1.00800000E+00  1.00800000E+00  1.60000000E+01  1.00800000E+00  1.00800000E+00
  1.60000000E+01  1.00800000E+00  1.00800000E+00  1.60000000E+01  1.00800000E+00
  1.00800000E+00  1.60000000E+01  1.00800000E+00  1.00800000E+00  1.60000000E+01
  1.00800000E+00  1.00800000E+00  1.60000000E+01  1.00800000E+00  1.00800000E+00
  1.60000000E+01  1.00800000E+00  1.00800000E+00  1.60000000E+01  1.00800000E+00
  1.00800000E+00  1.60000000E+01  1.00800000E+00  1.00800000E+00  1.60000000E+01
  1.00800000E+00  1.00800000E+00  1.60000000E+01  1.00800000E+00  1.00800000E+00
  1.60000000E+01  1.00800000E+00  1.00800000E+00  1.60000000E+01  1.00800000E+00
  1.00800000E+00  1.60000000E+01  1.00800000E+00  1.00800000E+00  1.60000000E+01
  1.00800000E+00  1.00800000E+00  1.60000000E+01  1.00800000E+00  1.00800000E+00
  1.60000000E+01  1.00800000E+00  1.00800000E+00  1.60000000E+01  1.00800000E+00
  1.00800000E+00  1.60000000E+01  1.00800000E+00  1.00800000E+00  1.60000000E+01
  1.00800000E+00  1.00800000E+00  1.60000000E+01  1.00800000E+00  1.00800000E+00
  1.60000000E+01  1.00800000E+00  1.00800000E+00  1.60000000E+01  1.00800000E+00
  1.00800000E+00  1.60000000E+01  1.00800000E+00  1.00800000E+00  1.60000000E+01
  1.00800000E+00  1.00800000E+00  1.60000000E+01  1.00800000E+00  1.00800000E+00
  1.60000000E+01  1.00800000E+00  1.00800000E+00  1.60000000E+01  1.00800000E+00
  1.00800000E+00  1.60000000E+01  1.00800000E+00  1.00800000E+00  1.60000000E+01
  1.00800000E+00  1.00800000E+00  1.60000000E+01  1.00800000E+00  1.00800000E+00
  1.60000000E+01  1.00800000E+00  1.00800000E+00  1.60000000E+01  1.00800000E+00
  1.00800000E+00  1.60000000E+01  1.00800000E+00  1.00800000E+00  1.60000000E+01
  1.00800000E+00  1.00800000E+00  1.60000000E+01  1.00800000E+00  1.00800000E+00
  1.60000000E+01  1.00800000E+00  1.00800000E+00  1.60000000E+01  1.00800000E+00
  1.00800000E+00  1.60000000E+01  1.00800000E+00  1.00800000E+00  1.60000000E+01
  1.00800000E+00  1.00800000E+00  1.60000000E+01  1.00800000E+00  1.00800000E+00
  1.60000000E+01  1.00800000E+00  1.00800000E+00  1.60000000E+01  1.00800000E+00
  1.00800000E+00  1.60000000E+01  1.00800000E+00  1.00800000E+00  1.60000000E+01
  1.00800000E+00  1.00800000E+00  1.60000000E+01  1.00800000E+00  1.00800000E+00
  1.60000000E+01  1.00800000E+00  1.00800000E+00  1.60000000E+01  1.00800000E+00
  1.00800000E+00  1.60000000E+01  1.00800000E+00  1.00800000E+00  1.60000000E+01
  1.00800000E+00  1.00800000E+00  1.60000000E+01  1.00800000E+00  1.00800000E+00
  1.60000000E+01  1.00800000E+00  1.00800000E+00  1.60000000E+01  1.00800000E+00
  1.00800000E+00  1.60000000E+01  1.00800000E+00  1.00800000E+00  1.60000000E+01
  1.00800000E+00  1.00800000E+00  1.60000000E+01  1.00800000E+00  1.00800000E+00
  1.60000000E+01  1.00800000E+00  1.00800000E+00  1.60000000E+01  1.00800000E+00
  1.00800000E+00  1.60000000E+01  1.00800000E+00  1.00800000E+00  1.60000000E+01
  1.00800000E+00  1.00800000E+00  1.60000000E+01  1.00800000E+00  1.00800000E+00
  1.60000000E+01  1.00800000E+00  1.00800000E+00  1.60000000E+01  1.00800000E+00
  1.00800000E+00  1.60000000E+01  1.00800000E+00  1.00800000E+00  1.60000000E+01
  1.00800000E+00  1.00800000E+00  1.60000000E+01  1.00800000E+00  1.00800000E+00
  1.60000000E+01  1.00800000E+00  1.00800000E+00  1.60000000E+01  1.00800000E+00
  1.00800000E+00  1.60000000E+01  1.00800000E+00  1.00800000E+00  1.60000000E+01
  1.00800000E+00  1.00800000E+00  1.60000000E+01  1.00800000E+00  1.00800000E+00
  1.60000000E+01  1.00800000E+00  1.00800000E+00  1.60000000E+01  1.00800000E+00
  1.00800000E+00  1.60000000E+01  1.00800000E+00  1.00800000E+00  1.60000000E+01
  1.00800000E+00  1.00800000E+00  1.60000000E+01  1.00800000E+00  1.00800000E+00
  1.60000000E+01  1.00800000E+00  1.00800000E+00  1.60000000E+01  1.00800000E+00
  1.00800000E+00  1.60000000E+01  1.00800000E+00  1.00800000E+00  1.60000000E+01
  1.00800000E+00  1.00800000E+00  1.60000000E+01  1.00800000E+00  1.00800000E+00
  1.60000000E+01  1.00800000E+00  1.00800000E+00  1.60000000E+01  1.00800000E+00
  1.00800000E+00  1.60000000E+01  1.00800000E+00  1.00800000E+00  1.60000000E+01
  1.00800000E+00  1.00800000E+00  1.60000000E+01  1.00800000E+00  1.00800000E+00
  1.60000000E+01  1.00800000E+00  1.00800000E+00  1.60000000E+01  1.00800000E+00
  1.00800000E+00  1.60000000E+01  1.00800000E+00  1.00800000E+00  1.60000000E+01
  1.00800000E+00  1.00800000E+00  1.60000000E+01  1.00800000E+00  1.00800000E+00
  1.60000000E+01  1.00800000E+00  1.00800000E+00  1.60000000E+01  1.00800000E+00
  1.00800000E+00  1.60000000E+01  1.00800000E+00  1.00800000E+00  1.60000000E+01
  1.00800000E+00  1.00800000E+00  1.60000000E+01  1.00800000E+00  1.00800000E+00
  1.60000000E+01  1.00800000E+00  1.00800000E+00  1.60000000E+01  1.00800000E+00
  1.00800000E+00  1.60000000E+01  1.00800000E+00  1.00800000E+00  1.60000000E+01
  1.00800000E+00  1.00800000E+00  1.60000000E+01  1.00800000E+00  1.00800000E+00
  1.60000000E+01  1.00800000E+00  1.00800000E+00  1.60000000E+01  1.00800000E+00
  1.00800000E+00  1.60000000E+01  1.00800000E+00  1.00800000E+00  1.60000000E+01
  1.00800000E+00  1.00800000E+00  1.60000000E+01  1.00800000E+00  1.00800000E+00
  1.60000000E+01  1.00800000E+00  1.00800000E+00  1.60000000E+01  1.00800000E+00
  1.00800000E+00  1.60000000E+01  1.00800000E+00  1.00800000E+00  1.60000000E+01
  1.00800000E+00  1.00800000E+00  1.60000000E+01  1.00800000E+00  1.00800000E+00
  1.60000000E+01  1.00800000E+00  1.00800000E+00  1.60000000E+01  1.00800000E+00
  1.00800000E+00  1.60000000E+01  1.00800000E+00  1.00800000E+00  1.60000000E+01
  1.00800000E+00  1.00800000E+00  1.60000000E+01  1.00800000E+00  1.00800000E+00
  1.60000000E+01  1.00800000E+00  1.00800000E+00  1.60000000E+01  1.00800000E+00
  1.00800000E+00  1.60000000E+01  1.00800000E+00  1.00800000E+00  1.60000000E+01
  1.00800000E+00  1.00800000E+00  1.60000000E+01  1.00800000E+00  1.00800000E+00
  1.60000000E+01  1.00800000E+00  1.00800000E+00  1.60000000E+01  1.00800000E+00
  1.00800000E+00  1.60000000E+01  1.00800000E+00  1.00800000E+00  1.60000000E+01
  1.00800000E+00  1.00800000E+00  1.60000000E+01  1.00800000E+00  1.00800000E+00
  1.60000000E+01  1.00800000E+00  1.00800000E+00  1.60000000E+01  1.00800000E+00
  1.00800000E+00  1.60000000E+01  1.00800000E+00  1.00800000E+00  1.60000000E+01
  1.00800000E+00  1.00800000E+00  1.60000000E+01  1.00800000E+00  1.00800000E+00
  1.60000000E+01  1.00800000E+00  1.00800000E+00  1.60000000E+01  1.00800000E+00
  1.00800000E+00  1.60000000E+01  1.00800000E+00  1.00800000E+00  1.60000000E+01
  1.00800000E+00  1.00800000E+00  1.60000000E+01  1.00800000E+00  1.00800000E+00
  1.60000000E+01  1.00800000E+00  1.00800000E+00  1.60000000E+01  1.00800000E+00
  1.00800000E+00  1.60000000E+01  1.00800000E+00  1.00800000E+00  1.60000000E+01
  1.00800000E+00  1.00800000E+00  1.60000000E+01  1.00800000E+00  1.00800000E+00
  1.60000000E+01  1.00800000E+00  1.00800000E+00  1.60000000E+01  1.00800000E+00
  1.00800000E+00  1.60000000E+01  1.00800000E+00  1.00800000E+00  1.60000000E+01
  1.00800000E+00  1.00800000E+00  1.60000000E+01  1.00800000E+00  1.00800000E+00
  1.60000000E+01  1.00800000E+00  1.00800000E+00  1.60000000E+01  1.00800000E+00
  1.00800000E+00  1.60000000E+01  1.00800000E+00  1.00800000E+00  1.60000000E+01
  1.00800000E+00  1.00800000E+00  1.60000000E+01  1.00800000E+00  1.00800000E+00
  1.60000000E+01  1.00800000E+00  1.00800000E+00  1.60000000E+01  1.00800000E+00
  1.00800000E+00  1.60000000E+01  1.00800000E+00  1.00800000E+00  1.60000000E+01
  1.00800000E+00  1.00800000E+00  1.60000000E+01  1.00800000E+00  1.00800000E+00
  1.60000000E+01  1.00800000E+00  1.00800000E+00  1.60000000E+01  1.00800000E+00
  1.00800000E+00  1.60000000E+01  1.00800000E+00  1.00800000E+00  1.60000000E+01
  1.00800000E+00  1.00800000E+00  1.60000000E+01  1.00800000E+00  1.00800000E+00
  1.60000000E+01  1.00800000E+00  1.00800000E+00  1.60000000E+01  1.00800000E+00
  1.00800000E+00  1.60000000E+01  1.00800000E+00  1.00800000E+00  1.60000000E+01
  1.00800000E+00  1.00800000E+00  1.60000000E+01  1.00800000E+00  1.00800000E+00
  1.60000000E+01  1.00800000E+00  1.00800000E+00  1.60000000E+01  1.00800000E+00
  1.00800000E+00  1.60000000E+01  1.00800000E+00  1.00800000E+00  1.60000000E+01
  1.00800000E+00  1.00800000E+00  1.60000000E+01  1.00800000E+00  1.00800000E+00
  1.60000000E+01  1.00800000E+00  1.00800000E+00  1.60000000E+01  1.00800000E+00
  1.00800000E+00  1.60000000E+01  1.00800000E+00  1.00800000E+00  1.60000000E+01
  1.00800000E+00  1.00800000E+00  1.60000000E+01  1.00800000E+00  1.00800000E+00
  1.60000000E+01  1.00800000E+00  1.00800000E+00  1.60000000E+01  1.00800000E+00
  1.00800000E+00  1.60000000E+01  1.00800000E+00  1.00800000E+00  1.60000000E+01
  1.00800000E+00  1.00800000E+00  1.60000000E+01  1.00800000E+00  1.00800000E+00
  1.60000000E+01  1.00800000E+00  1.00800000E+00  1.60000000E+01  1.00800000E+00
  1.00800000E+00  1.60000000E+01  1.00800000E+00  1.00800000E+00  1.60000000E+01
  1.00800000E+00  1.00800000E+00  1.60000000E+01  1.00800000E+00  1.00800000E+00
  1.60000000E+01  1.00800000E+00  1.00800000E+00  1.60000000E+01  1.00800000E+00
  1.00800000E+00  1.60000000E+01  1.00800000E+00  1.00800000E+00  1.60000000E+01
  1.00800000E+00  1.00800000E+00  1.60000000E+01  1.00800000E+00  1.00800000E+00
  1.60000000E+01  1.00800000E+00  1.00800000E+00  1.60000000E+01  1.00800000E+00
  1.00800000E+00  1.60000000E+01  1.00800000E+00  1.00800000E+00  1.60000000E+01
  1.00800000E+00  1.00800000E+00  1.60000000E+01  1.00800000E+00  1.00800000E+00
  1.60000000E+01  1.00800000E+00  1.00800000E+00  1.60000000E+01  1.00800000E+00
  1.00800000E+00  1.60000000E+01  1.00800000E+00  1.00800000E+00  1.60000000E+01
  1.00800000E+00  1.00800000E+00  1.60000000E+01  1.00800000E+00  1.00800000E+00
  1.60000000E+01  1.00800000E+00  1.00800000E+00  1.60000000E+01  1.00800000E+00
  1.00800000E+00  1.60000000E+01  1.00800000E+00  1.00800000E+00  1.60000000E+01
  1.00800000E+00  1.00800000E+00  1.60000000E+01  1.00800000E+00  1.00800000E+00
  1.60000000E+01  1.00800000E+00  1.00800000E+00  1.60000000E+01  1.00800000E+00
  1.00800000E+00  1.60000000E+01  1.00800000E+00  1.00800000E+00  1.60000000E+01
  1.00800000E+00  1.00800000E+00  1.60000000E+01  1.00800000E+00  1.00800000E+00
  1.60000000E+01  1.00800000E+00  1.00800000E+00  1.60000000E+01  1.00800000E+00
  1.00800000E+00  1.60000000E+01  1.00800000E+00  1.00800000E+00  1.60000000E+01
  1.00800000E+00  1.00800000E+00  1.60000000E+01  1.00800000E+00  1.00800000E+00
  1.60000000E+01  1.00800000E+00  1.00800000E+00  1.60000000E+01  1.00800000E+00
  1.00800000E+00  1.60000000E+01  1.00800000E+00  1.00800000E+00  1.60000000E+01
  1.00800000E+00  1.00800000E+00  1.60000000E+01  1.00800000E+00  1.00800000E+00
  1.60000000E+01  1.00800000E+00  1.00800000E+00  1.60000000E+01  1.00800000E+00
  1.00800000E+00  1.60000000E+01  1.00800000E+00  1.00800000E+00  1.60000000E+01
  1.00800000E+00  1.00800000E+00  1.60000000E+01  1.00800000E+00  1.00800000E+00
  1.60000000E+01  1.00800000E+00  1.00800000E+00  1.60000000E+01  1.00800000E+00
  1.00800000E+00  1.60000000E+01  1.00800000E+00  1.00800000E+00  1.60000000E+01
  1.00800000E+00  1.00800000E+00  1.60000000E+01  1.00800000E+00  1.00800000E+00
  1.60000000E+01  1.00800000E+00  1.00800000E+00  1.60000000E+01  1.00800000E+00
  1.00800000E+00  1.60000000E+01  1.00800000E+00  1.00800000E+00  1.60000000E+01
  1.00800000E+00  1.00800000E+00  1.60000000E+01  1.00800000E+00  1.00800000E+00
  1.60000000E+01  1.00800000E+00  1.00800000E+00  1.60000000E+01  1.00800000E+00
  1.00800000E+00  1.60000000E+01  1.00800000E+00  1.00800000E+00  1.60000000E+01
  1.00800000E+00  1.00800000E+00  1.60000000E+01  1.00800000E+00  1.00800000E+00
  1.60000000E+01  1.00800000E+00  1.00800000E+00  1.60000000E+01  1.00800000E+00
  1.00800000E+00  1.60000000E+01  1.00800000E+00  1.00800000E+00  1.60000000E+01
  1.00800000E+00  1.00800000E+00  1.60000000E+01  1.00800000E+00  1.00800000E+00
  1.60000000E+01  1.00800000E+00  1.00800000E+00  1.60000000E+01  1.00800000E+00
  1.00800000E+00  1.60000000E+01  1.00800000E+00  1.00800000E+00  1.60000000E+01
  1.00800000E+00  1.00800000E+00  1.60000000E+01  1.00800000E+00  1.00800000E+00
  1.60000000E+01  1.00800000E+00  1.00800000E+00  1.60000000E+01  1.00800000E+00
  1.00800000E+00  1.60000000E+01  1.00800000E+00  1.00800000E+00  1.60000000E+01
  1.00800000E+00  1.00800000E+00  1.60000000E+01  1.00800000E+00  1.00800000E+00
  1.60000000E+01  1.00800000E+00  1.00800000E+00  1.60000000E+01  1.00800000E+00
  1.00800000E+00  1.60000000E+01  1.00800000E+00  1.00800000E+00  1.60000000E+01
  1.00800000E+00  1.00800000E+00  1.60000000E+01  1.00800000E+00  1.00800000E+00
  1.60000000E+01  1.00800000E+00  1.00800000E+00  1.60000000E+01  1.00800000E+00
  1.00800000E+00  1.60000000E+01  1.00800000E+00  1.00800000E+00  1.60000000E+01
  1.00800000E+00  1.00800000E+00  1.60000000E+01  1.00800000E+00  1.00800000E+00
  1.60000000E+01  1.00800000E+00  1.00800000E+00  1.60000000E+01  1.00800000E+00
  1.00800000E+00  1.60000000E+01  1.00800000E+00  1.00800000E+00  1.60000000E+01
  1.00800000E+00  1.00800000E+00  1.60000000E+01  1.00800000E+00  1.00800000E+00
  1.60000000E+01  1.00800000E+00  1.00800000E+00  1.60000000E+01  1.00800000E+00
  1.00800000E+00  1.60000000E+01  1.00800000E+00  1.00800000E+00  1.60000000E+01
  1.00800000E+00  1.00800000E+00  1.60000000E+01  1.00800000E+00  1.00800000E+00
  1.60000000E+01  1.00800000E+00  1.00800000E+00  1.60000000E+01  1.00800000E+00
  1.00800000E+00  1.60000000E+01  1.00800000E+00  1.00800000E+00  1.60000000E+01
  1.00800000E+00  1.00800000E+00  1.60000000E+01  1.00800000E+00  1.00800000E+00
  1.60000000E+01  1.00800000E+00  1.00800000E+00  1.60000000E+01  1.00800000E+00
  1.00800000E+00  1.60000000E+01  1.00800000E+00  1.00800000E+00  1.60000000E+01
  1.00800000E+00  1.00800000E+00  1.60000000E+01  1.00800000E+00  1.00800000E+00
  1.60000000E+01  1.00800000E+00  1.00800000E+00  1.60000000E+01  1.00800000E+00
  1.00800000E+00  1.60000000E+01  1.00800000E+00  1.00800000E+00  1.60000000E+01
  1.00800000E+00  1.00800000E+00  1.60000000E+01  1.00800000E+00  1.00800000E+00
  1.60000000E+01  1.00800000E+00  1.00800000E+00  1.60000000E+01  1.00800000E+00
  1.00800000E+00  1.60000000E+01  1.00800000E+00  1.00800000E+00  1.60000000E+01
  1.00800000E+00  1.00800000E+00  1.60000000E+01  1.00800000E+00  1.00800000E+00
  1.60000000E+01  1.00800000E+00  1.00800000E+00  1.60000000E+01  1.00800000E+00
  1.00800000E+00  1.60000000E+01  1.00800000E+00  1.00800000E+00  1.60000000E+01
  1.00800000E+00  1.00800000E+00  1.60000000E+01  1.00800000E+00  1.00800000E+00
  1.60000000E+01  1.00800000E+00  1.00800000E+00  1.60000000E+01  1.00800000E+00
  1.00800000E+00  1.60000000E+01  1.00800000E+00  1.00800000E+00  1.60000000E+01
  1.00800000E+00  1.00800000E+00  1.60000000E+01  1.00800000E+00  1.00800000E+00
  1.60000000E+01  1.00800000E+00  1.00800000E+00  1.60000000E+01  1.00800000E+00
  1.00800000E+00  1.60000000E+01  1.00800000E+00  1.00800000E+00  1.60000000E+01
  1.00800000E+00  1.00800000E+00  1.60000000E+01  1.00800000E+00  1.00800000E+00
  1.60000000E+01  1.00800000E+00  1.00800000E+00  1.60000000E+01  1.00800000E+00
  1.00800000E+00  1.60000000E+01  1.00800000E+00  1.00800000E+00  1.60000000E+01
  1.00800000E+00  1.00800000E+00  1.60000000E+01  1.00800000E+00  1.00800000E+00
  1.60000000E+01  1.00800000E+00  1.00800000E+00  1.60000000E+01  1.00800000E+00
  1.00800000E+00  1.60000000E+01  1.00800000E+00  1.00800000E+00  1.60000000E+01
  1.00800000E+00  1.00800000E+00  1.60000000E+01  1.00800000E+00  1.00800000E+00
  1.60000000E+01  1.00800000E+00  1.00800000E+00  1.60000000E+01  1.00800000E+00
  1.00800000E+00  1.60000000E+01  1.00800000E+00  1.00800000E+00  1.60000000E+01
  1.00800000E+00  1.00800000E+00  1.60000000E+01  1.00800000E+00  1.00800000E+00
  1.60000000E+01  1.00800000E+00  1.00800000E+00  1.60000000E+01  1.00800000E+00
  1.00800000E+00  1.60000000E+01  1.00800000E+00  1.00800000E+00  1.60000000E+01
  1.00800000E+00  1.00800000E+00  1.60000000E+01  1.00800000E+00  1.00800000E+00
  1.60000000E+01  1.00800000E+00  1.00800000E+00  1.60000000E+01  1.00800000E+00
  1.00800000E+00  1.60000000E+01  1.00800000E+00  1.00800000E+00  1.60000000E+01
  1.00800000E+00  1.00800000E+00  1.60000000E+01  1.00800000E+00  1.00800000E+00
  1.60000000E+01  1.00800000E+00  1.00800000E+00  1.60000000E+01  1.00800000E+00
  1.00800000E+00  1.60000000E+01  1.00800000E+00  1.00800000E+00  1.60000000E+01
  1.00800000E+00  1.00800000E+00  1.60000000E+01  1.00800000E+00  1.00800000E+00
  1.60000000E+01  1.00800000E+00  1.00800000E+00  1.60000000E+01  1.00800000E+00
  1.00800000E+00  1.60000000E+01  1.00800000E+00  1.00800000E+00  1.60000000E+01
  1.00800000E+00  1.00800000E+00  1.60000000E+01  1.00800000E+00  1.00800000E+00
  1.60000000E+01  1.00800000E+00  1.00800000E+00  1.60000000E+01  1.00800000E+00
  1.00800000E+00  1.60000000E+01  1.00800000E+00  1.00800000E+00  1.60000000E+01
  1.00800000E+00  1.00800000E+00  1.60000000E+01  1.00800000E+00  1.00800000E+00
  1.60000000E+01  1.00800000E+00  1.00800000E+00  1.60000000E+01  1.00800000E+00
  1.00800000E+00  1.60000000E+01  1.00800000E+00  1.00800000E+00  1.60000000E+01
  1.00800000E+00  1.00800000E+00  1.60000000E+01  1.00800000E+00  1.00800000E+00
  1.60000000E+01  1.00800000E+00  1.00800000E+00  1.60000000E+01  1.00800000E+00
  1.00800000E+00  1.60000000E+01  1.00800000E+00  1.00800000E+00  1.60000000E+01
  1.00800000E+00  1.00800000E+00  1.60000000E+01  1.00800000E+00  1.00800000E+00
  1.60000000E+01  1.00800000E+00  1.00800000E+00  1.60000000E+01  1.00800000E+00
  1.00800000E+00  1.60000000E+01  1.00800000E+00  1.00800000E+00  1.60000000E+01
  1.00800000E+00  1.00800000E+00  1.60000000E+01  1.00800000E+00  1.00800000E+00
  1.60000000E+01  1.00800000E+00  1.00800000E+00  1.60000000E+01  1.00800000E+00
  1.00800000E+00  1.60000000E+01  1.00800000E+00  1.00800000E+00  1.60000000E+01
  1.00800000E+00  1.00800000E+00  1.60000000E+01  1.00800000E+00  1.00800000E+00
  1.60000000E+01  1.00800000E+00  1.00800000E+00  1.60000000E+01  1.00800000E+00
  1.00800000E+00  1.60000000E+01  1.00800000E+00  1.00800000E+00  1.60000000E+01
  1.00800000E+00  1.00800000E+00  1.60000000E+01  1.00800000E+00  1.00800000E+00
  1.60000000E+01  1.00800000E+00  1.00800000E+00  1.60000000E+01  1.00800000E+00
  1.00800000E+00  1.60000000E+01  1.00800000E+00  1.00800000E+00  1.60000000E+01
  1.00800000E+00  1.00800000E+00  1.60000000E+01  1.00800000E+00  1.00800000E+00
  1.60000000E+01  1.00800000E+00  1.00800000E+00  1.60000000E+01  1.00800000E+00
  1.00800000E+00  1.60000000E+01  1.00800000E+00  1.00800000E+00  1.60000000E+01
  1.00800000E+00  1.00800000E+00  1.60000000E+01  1.00800000E+00  1.00800000E+00
  1.60000000E+01  1.00800000E+00  1.00800000E+00  1.60000000E+01  1.00800000E+00
  1.00800000E+00  1.60000000E+01  1.00800000E+00  1.00800000E+00  1.60000000E+01
  1.00800000E+00  1.00800000E+00  1.60000000E+01  1.00800000E+00  1.00800000E+00
  1.60000000E+01  1.00800000E+00  1.00800000E+00  1.60000000E+01  1.00800000E+00
  1.00800000E+00  1.60000000E+01  1.00800000E+00  1.00800000E+00  1.60000000E+01
  1.00800000E+00  1.00800000E+00  1.60000000E+01  1.00800000E+00  1.00800000E+00
  1.60000000E+01  1.00800000E+00  1.00800000E+00  1.60000000E+01  1.00800000E+00
  1.00800000E+00  1.60000000E+01  1.00800000E+00  1.00800000E+00  1.60000000E+01
  1.00800000E+00  1.00800000E+00  1.60000000E+01  1.00800000E+00  1.00800000E+00
  1.60000000E+01  1.00800000E+00  1.00800000E+00  1.60000000E+01  1.00800000E+00
  1.00800000E+00  1.60000000E+01  1.00800000E+00  1.00800000E+00  1.60000000E+01
  1.00800000E+00  1.00800000E+00  1.60000000E+01  1.00800000E+00  1.00800000E+00
  1.60000000E+01  1.00800000E+00  1.00800000E+00  1.60000000E+01  1.00800000E+00
  1.00800000E+00  1.60000000E+01  1.00800000E+00  1.00800000E+00  1.60000000E+01
  1.00800000E+00  1.00800000E+00  1.60000000E+01  1.00800000E+00  1.00800000E+00
  1.60000000E+01  1.00800000E+00  1.00800000E+00  1.60000000E+01  1.00800000E+00
  1.00800000E+00  1.60000000E+01  1.00800000E+00  1.00800000E+00  1.60000000E+01
  1.00800000E+00  1.00800000E+00  1.60000000E+01  1.00800000E+00  1.00800000E+00
  1.60000000E+01  1.00800000E+00  1.00800000E+00  1.60000000E+01  1.00800000E+00
  1.00800000E+00  1.60000000E+01  1.00800000E+00  1.00800000E+00  1.60000000E+01
  1.00800000E+00  1.00800000E+00  1.60000000E+01  1.00800000E+00  1.00800000E+00
  1.60000000E+01  1.00800000E+00  1.00800000E+00  1.60000000E+01  1.00800000E+00
  1.00800000E+00  1.60000000E+01  1.00800000E+00  1.00800000E+00  1.60000000E+01
  1.00800000E+00  1.00800000E+00  1.60000000E+01  1.00800000E+00  1.00800000E+00
  1.60000000E+01  1.00800000E+00  1.00800000E+00  1.60000000E+01  1.00800000E+00
  1.00800000E+00  1.60000000E+01  1.00800000E+00  1.00800000E+00  1.60000000E+01
  1.00800000E+00  1.00800000E+00  1.60000000E+01  1.00800000E+00  1.00800000E+00
  1.60000000E+01  1.00800000E+00  1.00800000E+00  1.60000000E+01  1.00800000E+00
  1.00800000E+00  1.60000000E+01  1.00800000E+00  1.00800000E+00  1.60000000E+01
  1.00800000E+00  1.00800000E+00  1.60000000E+01  1.00800000E+00  1.00800000E+00
  1.60000000E+01  1.00800000E+00  1.00800000E+00  1.60000000E+01  1.00800000E+00
  1.00800000E+00  1.60000000E+01  1.00800000E+00  1.00800000E+00  1.60000000E+01
  1.00800000E+00  1.00800000E+00  1.60000000E+01  1.00800000E+00  1.00800000E+00
  1.60000000E+01  1.00800000E+00  1.00800000E+00  1.60000000E+01  1.00800000E+00
  1.00800000E+00  1.60000000E+01  1.00800000E+00  1.00800000E+00  1.60000000E+01
  1.00800000E+00  1.00800000E+00  1.60000000E+01  1.00800000E+00  1.00800000E+00
  1.60000000E+01  1.00800000E+00  1.00800000E+00  1.60000000E+01  1.00800000E+00
  1.00800000E+00  1.60000000E+01  1.00800000E+00  1.00800000E+00  1.60000000E+01
  1.00800000E+00  1.00800000E+00  1.60000000E+01  1.00800000E+00  1.00800000E+00
  1.60000000E+01  1.00800000E+00  1.00800000E+00  1.60000000E+01  1.00800000E+00
  1.00800000E+00  1.60000000E+01  1.00800000E+00  1.00800000E+00  1.60000000E+01
  1.00800000E+00  1.00800000E+00  1.60000000E+01  1.00800000E+00  1.00800000E+00
  1.60000000E+01  1.00800000E+00  1.00800000E+00  1.60000000E+01  1.00800000E+00
  1.00800000E+00  1.60000000E+01  1.00800000E+00  1.00800000E+00  1.60000000E+01
  1.00800000E+00  1.00800000E+00  1.60000000E+01  1.00800000E+00  1.00800000E+00
  1.60000000E+01  1.00800000E+00  1.00800000E+00  1.60000000E+01  1.00800000E+00
  1.00800000E+00  1.60000000E+01  1.00800000E+00  1.00800000E+00  1.60000000E+01
  1.00800000E+00  1.00800000E+00  1.60000000E+01  1.00800000E+00  1.00800000E+00
  1.60000000E+01  1.00800000E+00  1.00800000E+00  1.60000000E+01  1.00800000E+00
  1.00800000E+00  1.60000000E+01  1.00800000E+00  1.00800000E+00  1.60000000E+01
  1.00800000E+00  1.00800000E+00  1.60000000E+01  1.00800000E+00  1.00800000E+00
  1.60000000E+01  1.00800000E+00  1.00800000E+00  1.60000000E+01  1.00800000E+00
  1.00800000E+00  1.60000000E+01  1.00800000E+00  1.00800000E+00  1.60000000E+01
  1.00800000E+00  1.00800000E+00  1.60000000E+01  1.00800000E+00  1.00800000E+00
  1.60000000E+01  1.00800000E+00  1.00800000E+00  1.60000000E+01  1.00800000E+00
  1.00800000E+00  1.60000000E+01  1.00800000E+00  1.00800000E+00  1.60000000E+01
  1.00800000E+00  1.00800000E+00  1.60000000E+01  1.00800000E+00  1.00800000E+00
  1.60000000E+01  1.00800000E+00  1.00800000E+00  1.60000000E+01  1.00800000E+00
  1.00800000E+00  1.60000000E+01  1.00800000E+00  1.00800000E+00  1.60000000E+01
  1.00800000E+00  1.00800000E+00  1.60000000E+01  1.00800000E+00  1.00800000E+00
  1.60000000E+01  1.00800000E+00  1.00800000E+00  1.60000000E+01  1.00800000E+00
  1.00800000E+00  1.60000000E+01  1.00800000E+00  1.00800000E+00  1.60000000E+01
  1.00800000E+00  1.00800000E+00  1.60000000E+01  1.00800000E+00  1.00800000E+00
  1.60000000E+01  1.00800000E+00  1.00800000E+00  1.60000000E+01  1.00800000E+00
  1.00800000E+00  1.60000000E+01  1.00800000E+00  1.00800000E+00  1.60000000E+01
  1.00800000E+00  1.00800000E+00  1.60000000E+01  1.00800000E+00  1.00800000E+00
  1.60000000E+01  1.00800000E+00  1.00800000E+00  1.60000000E+01  1.00800000E+00
  1.00800000E+00  1.60000000E+01  1.00800000E+00  1.00800000E+00  1.60000000E+01
  1.00800000E+00  1.00800000E+00  1.60000000E+01  1.00800000E+00  1.00800000E+00
  1.60000000E+01  1.00800000E+00  1.00800000E+00  1.60000000E+01  1.00800000E+00
  1.00800000E+00  1.60000000E+01  1.00800000E+00  1.00800000E+00  1.60000000E+01
  1.00800000E+00  1.00800000E+00  1.60000000E+01  1.00800000E+00  1.00800000E+00
  1.60000000E+01  1.00800000E+00  1.00800000E+00  1.60000000E+01  1.00800000E+00
  1.00800000E+00  1.60000000E+01  1.00800000E+00  1.00800000E+00  1.60000000E+01
  1.00800000E+00  1.00800000E+00  1.60000000E+01  1.00800000E+00  1.00800000E+00
  1.60000000E+01  1.00800000E+00  1.00800000E+00  1.60000000E+01  1.00800000E+00
  1.00800000E+00  1.60000000E+01  1.00800000E+00  1.00800000E+00  1.60000000E+01
  1.00800000E+00  1.00800000E+00  1.60000000E+01  1.00800000E+00  1.00800000E+00
  1.60000000E+01  1.00800000E+00  1.00800000E+00  1.60000000E+01  1.00800000E+00
  1.00800000E+00  1.60000000E+01  1.00800000E+00  1.00800000E+00  1.60000000E+01
  1.00800000E+00  1.00800000E+00  1.60000000E+01  1.00800000E+00  1.00800000E+00
  1.60000000E+01  1.00800000E+00  1.00800000E+00  1.60000000E+01  1.00800000E+00
  1.00800000E+00  1.60000000E+01  1.00800000E+00  1.00800000E+00  1.60000000E+01
  1.00800000E+00  1.00800000E+00  1.60000000E+01  1.00800000E+00  1.00800000E+00
  1.60000000E+01  1.00800000E+00  1.00800000E+00  1.60000000E+01  1.00800000E+00
  1.00800000E+00  1.60000000E+01  1.00800000E+00  1.00800000E+00  1.60000000E+01
  1.00800000E+00  1.00800000E+00  1.60000000E+01  1.00800000E+00  1.00800000E+00
  1.60000000E+01  1.00800000E+00  1.00800000E+00  1.60000000E+01  1.00800000E+00
  1.00800000E+00  1.60000000E+01  1.00800000E+00  1.00800000E+00  1.60000000E+01
  1.00800000E+00  1.00800000E+00  1.60000000E+01  1.00800000E+00  1.00800000E+00
  1.60000000E+01  1.00800000E+00  1.00800000E+00  1.60000000E+01  1.00800000E+00
  1.00800000E+00  1.60000000E+01  1.00800000E+00  1.00800000E+00  1.60000000E+01
  1.00800000E+00  1.00800000E+00  1.60000000E+01  1.00800000E+00  1.00800000E+00
  1.60000000E+01  1.00800000E+00  1.00800000E+00  1.60000000E+01  1.00800000E+00
  1.00800000E+00  1.60000000E+01  1.00800000E+00  1.00800000E+00  1.60000000E+01
  1.00800000E+00  1.00800000E+00  1.60000000E+01  1.00800000E+00  1.00800000E+00
  1.60000000E+01  1.00800000E+00  1.00800000E+00  1.60000000E+01  1.00800000E+00
  1.00800000E+00  1.60000000E+01  1.00800000E+00  1.00800000E+00  1.60000000E+01
  1.00800000E+00  1.00800000E+00  1.60000000E+01  1.00800000E+00  1.00800000E+00
  1.60000000E+01  1.00800000E+00  1.00800000E+00  1.60000000E+01  1.00800000E+00
  1.00800000E+00  1.60000000E+01  1.00800000E+00  1.00800000E+00  1.60000000E+01
  1.00800000E+00  1.00800000E+00  1.60000000E+01  1.00800000E+00  1.00800000E+00
  1.60000000E+01  1.00800000E+00  1.00800000E+00  1.60000000E+01  1.00800000E+00
  1.00800000E+00  1.60000000E+01  1.00800000E+00  1.00800000E+00  1.60000000E+01
  1.00800000E+00  1.00800000E+00  1.60000000E+01  1.00800000E+00  1.00800000E+00
  1.60000000E+01  1.00800000E+00  1.00800000E+00  1.60000000E+01  1.00800000E+00
  1.00800000E+00  1.60000000E+01  1.00800000E+00  1.00800000E+00  1.60000000E+01
  1.00800000E+00  1.00800000E+00  1.60000000E+01  1.00800000E+00  1.00800000E+00
  1.60000000E+01  1.00800000E+00  1.00800000E+00  1.60000000E+01  1.00800000E+00
  1.00800000E+00  1.60000000E+01  1.00800000E+00  1.00800000E+00  1.60000000E+01
  1.00800000E+00  1.00800000E+00  1.60000000E+01  1.00800000E+00  1.00800000E+00
  1.60000000E+01  1.00800000E+00  1.00800000E+00  1.60000000E+01  1.00800000E+00
  1.00800000E+00  1.60000000E+01  1.00800000E+00  1.00800000E+00  1.60000000E+01
  1.00800000E+00  1.00800000E+00  1.60000000E+01  1.00800000E+00  1.00800000E+00
  1.60000000E+01  1.00800000E+00  1.00800000E+00  1.60000000E+01  1.00800000E+00
  1.00800000E+00  1.60000000E+01  1.00800000E+00  1.00800000E+00  1.60000000E+01
  1.00800000E+00  1.00800000E+00  1.60000000E+01  1.00800000E+00  1.00800000E+00
  1.60000000E+01  1.00800000E+00  1.00800000E+00  1.60000000E+01  1.00800000E+00
  1.00800000E+00  1.60000000E+01  1.00800000E+00  1.00800000E+00  1.60000000E+01
  1.00800000E+00  1.00800000E+00  1.60000000E+01  1.00800000E+00  1.00800000E+00
  1.60000000E+01  1.00800000E+00  1.00800000E+00  1.60000000E+01  1.00800000E+00
  1.00800000E+00  1.60000000E+01  1.00800000E+00  1.00800000E+00  1.60000000E+01
  1.00800000E+00  1.00800000E+00  1.60000000E+01  1.00800000E+00  1.00800000E+00
  1.60000000E+01  1.00800000E+00  1.00800000E+00  1.60000000E+01  1.00800000E+00
  1.00800000E+00  1.60000000E+01  1.00800000E+00  1.00800000E+00  1.60000000E+01
  1.00800000E+00  1.00800000E+00  1.60000000E+01  1.00800000E+00  1.00800000E+00
  1.60000000E+01  1.00800000E+00  1.00800000E+00  1.60000000E+01  1.00800000E+00
  1.00800000E+00  1.60000000E+01  1.00800000E+00  1.00800000E+00  1.60000000E+01
  1.00800000E+00  1.00800000E+00  1.60000000E+01  1.00800000E+00  1.00800000E+00
  1.60000000E+01  1.00800000E+00  1.00800000E+00  1.60000000E+01  1.00800000E+00
  1.00800000E+00  1.60000000E+01  1.00800000E+00  1.00800000E+00  1.60000000E+01
  1.00800000E+00  1.00800000E+00  1.60000000E+01  1.00800000E+00  1.00800000E+00
  1.60000000E+01  1.00800000E+00  1.00800000E+00  1.60000000E+01  1.00800000E+00
  1.00800000E+00  1.60000000E+01  1.00800000E+00  1.00800000E+00  1.60000000E+01
  1.00800000E+00  1.00800000E+00  1.60000000E+01  1.00800000E+00  1.00800000E+00
  1.60000000E+01  1.00800000E+00  1.00800000E+00  1.60000000E+01  1.00800000E+00
  1.00800000E+00  1.60000000E+01  1.00800000E+00  1.00800000E+00  1.60000000E+01
  1.00800000E+00  1.00800000E+00  1.60000000E+01  1.00800000E+00  1.00800000E+00
  1.60000000E+01  1.00800000E+00  1.00800000E+00  1.60000000E+01  1.00800000E+00
  1.00800000E+00  1.60000000E+01  1.00800000E+00  1.00800000E+00  1.60000000E+01
  1.00800000E+00  1.00800000E+00  1.60000000E+01  1.00800000E+00  1.00800000E+00
  1.60000000E+01  1.00800000E+00  1.00800000E+00  1.60000000E+01  1.00800000E+00
  1.00800000E+00  1.60000000E+01  1.00800000E+00  1.00800000E+00  1.60000000E+01
  1.00800000E+00  1.00800000E+00  1.60000000E+01  1.00800000E+00  1.00800000E+00
  1.60000000E+01  1.00800000E+00  1.00800000E+00  1.60000000E+01  1.00800000E+00
  1.00800000E+00  1.60000000E+01  1.00800000E+00  1.00800000E+00  1.60000000E+01
  1.00800000E+00  1.00800000E+00  1.60000000E+01  1.00800000E+00  1.00800000E+00
  1.60000000E+01  1.00800000E+00  1.00800000E+00  1.60000000E+01  1.00800000E+00
  1.00800000E+00  1.60000000E+01  1.00800000E+00  1.00800000E+00  1.60000000E+01
  1.00800000E+00  1.00800000E+00  1.60000000E+01  1.00800000E+00  1.00800000E+00
  1.60000000E+01  1.00800000E+00  1.00800000E+00  1.60000000E+01  1.00800000E+00
  1.00800000E+00  1.60000000E+01  1.00800000E+00  1.00800000E+00  1.60000000E+01
  1.00800000E+00  1.00800000E+00  1.60000000E+01  1.00800000E+00  1.00800000E+00
  1.60000000E+01  1.00800000E+00  1.00800000E+00  1.60000000E+01  1.00800000E+00
  1.00800000E+00  1.60000000E+01  1.00800000E+00  1.00800000E+00  1.60000000E+01
  1.00800000E+00  1.00800000E+00  1.60000000E+01  1.00800000E+00  1.00800000E+00
  1.60000000E+01  1.00800000E+00  1.00800000E+00  1.60000000E+01  1.00800000E+00
  1.00800000E+00  1.60000000E+01  1.00800000E+00  1.00800000E+00  1.60000000E+01
  1.00800000E+00  1.00800000E+00  1.60000000E+01  1.00800000E+00  1.00800000E+00
  1.60000000E+01  1.00800000E+00  1.00800000E+00  1.60000000E+01  1.00800000E+00
  1.00800000E+00  1.60000000E+01  1.00800000E+00  1.00800000E+00  1.60000000E+01
  1.00800000E+00  1.00800000E+00  1.60000000E+01  1.00800000E+00  1.00800000E+00
  1.60000000E+01  1.00800000E+00  1.00800000E+00  1.60000000E+01  1.00800000E+00
  1.00800000E+00  1.60000000E+01  1.00800000E+00  1.00800000E+00  1.60000000E+01
  1.00800000E+00  1.00800000E+00  1.60000000E+01  1.00800000E+00  1.00800000E+00
  1.60000000E+01  1.00800000E+00  1.00800000E+00  1.60000000E+01  1.00800000E+00
  1.00800000E+00  1.60000000E+01  1.00800000E+00  1.00800000E+00  1.60000000E+01
  1.00800000E+00  1.00800000E+00  1.60000000E+01  1.00800000E+00  1.00800000E+00
  1.60000000E+01  1.00800000E+00  1.00800000E+00  1.60000000E+01  1.00800000E+00
  1.00800000E+00  1.60000000E+01  1.00800000E+00  1.00800000E+00  1.60000000E+01
  1.00800000E+00  1.00800000E+00  1.60000000E+01  1.00800000E+00  1.00800000E+00
  1.60000000E+01  1.00800000E+00  1.00800000E+00  1.60000000E+01  1.00800000E+00
  1.00800000E+00  1.60000000E+01  1.00800000E+00  1.00800000E+00  1.60000000E+01
  1.00800000E+00  1.00800000E+00  1.60000000E+01  1.00800000E+00  1.00800000E+00
  1.60000000E+01  1.00800000E+00  1.00800000E+00  1.60000000E+01  1.00800000E+00
  1.00800000E+00  1.60000000E+01  1.00800000E+00  1.00800000E+00  1.60000000E+01
  1.00800000E+00  1.00800000E+00  1.60000000E+01  1.00800000E+00  1.00800000E+00
  1.60000000E+01  1.00800000E+00  1.00800000E+00  1.60000000E+01  1.00800000E+00
  1.00800000E+00  1.60000000E+01  1.00800000E+00  1.00800000E+00  1.60000000E+01
  1.00800000E+00  1.00800000E+00  1.60000000E+01  1.00800000E+00  1.00800000E+00
  1.60000000E+01  1.00800000E+00  1.00800000E+00  1.60000000E+01  1.00800000E+00
  1.00800000E+00  1.60000000E+01  1.00800000E+00  1.00800000E+00  1.60000000E+01
  1.00800000E+00  1.00800000E+00  1.60000000E+01  1.00800000E+00  1.00800000E+00
  1.60000000E+01  1.00800000E+00  1.00800000E+00  1.60000000E+01  1.00800000E+00
  1.00800000E+00  1.60000000E+01  1.00800000E+00  1.00800000E+00  1.60000000E+01
  1.00800000E+00  1.00800000E+00  1.60000000E+01  1.00800000E+00  1.00800000E+00
  1.60000000E+01  1.00800000E+00  1.00800000E+00  1.60000000E+01  1.00800000E+00
  1.00800000E+00  1.60000000E+01  1.00800000E+00  1.00800000E+00  1.60000000E+01
  1.00800000E+00  1.00800000E+00  1.60000000E+01  1.00800000E+00  1.00800000E+00
  1.60000000E+01  1.00800000E+00  1.00800000E+00  1.60000000E+01  1.00800000E+00
  1.00800000E+00  1.60000000E+01  1.00800000E+00  1.00800000E+00  1.60000000E+01
  1.00800000E+00  1.00800000E+00  1.60000000E+01  1.00800000E+00  1.00800000E+00
  1.60000000E+01  1.00800000E+00  1.00800000E+00  1.60000000E+01  1.00800000E+00
  1.00800000E+00  1.60000000E+01  1.00800000E+00  1.00800000E+00  1.60000000E+01
  1.00800000E+00  1.00800000E+00  1.60000000E+01  1.00800000E+00  1.00800000E+00
  1.60000000E+01  1.00800000E+00  1.00800000E+00  1.60000000E+01  1.00800000E+00
  1.00800000E+00  1.60000000E+01  1.00800000E+00  1.00800000E+00  1.60000000E+01
  1.00800000E+00  1.00800000E+00  1.60000000E+01  1.00800000E+00  1.00800000E+00
  1.60000000E+01  1.00800000E+00  1.00800000E+00  1.60000000E+01  1.00800000E+00
  1.00800000E+00  1.60000000E+01  1.00800000E+00  1.00800000E+00  1.60000000E+01
  1.00800000E+00  1.00800000E+00  1.60000000E+01  1.00800000E+00  1.00800000E+00
  1.60000000E+01  1.00800000E+00  1.00800000E+00  1.60000000E+01  1.00800000E+00
  1.00800000E+00  1.60000000E+01  1.00800000E+00  1.00800000E+00  1.60000000E+01
  1.00800000E+00  1.00800000E+00  1.60000000E+01  1.00800000E+00  1.00800000E+00
  1.60000000E+01  1.00800000E+00  1.00800000E+00  1.60000000E+01  1.00800000E+00
  1.00800000E+00  1.60000000E+01  1.00800000E+00  1.00800000E+00  1.60000000E+01
  1.00800000E+00  1.00800000E+00  1.60000000E+01  1.00800000E+00  1.00800000E+00
  1.60000000E+01  1.00800000E+00  1.00800000E+00  1.60000000E+01  1.00800000E+00
  1.00800000E+00  1.60000000E+01  1.00800000E+00  1.00800000E+00  1.60000000E+01
  1.00800000E+00  1.00800000E+00  1.60000000E+01  1.00800000E+00  1.00800000E+00
  1.60000000E+01  1.00800000E+00  1.00800000E+00  1.60000000E+01  1.00800000E+00
  1.00800000E+00  1.60000000E+01  1.00800000E+00  1.00800000E+00  1.60000000E+01
  1.00800000E+00  1.00800000E+00  1.60000000E+01  1.00800000E+00  1.00800000E+00
  1.60000000E+01  1.00800000E+00  1.00800000E+00  1.60000000E+01  1.00800000E+00
  1.00800000E+00  1.60000000E+01  1.00800000E+00  1.00800000E+00  1.60000000E+01
  1.00800000E+00  1.00800000E+00  1.60000000E+01  1.00800000E+00  1.00800000E+00
  1.60000000E+01  1.00800000E+00  1.00800000E+00  1.60000000E+01  1.00800000E+00
  1.00800000E+00  1.60000000E+01  1.00800000E+00  1.00800000E+00  1.60000000E+01
  1.00800000E+00  1.00800000E+00  1.60000000E+01  1.00800000E+00  1.00800000E+00
  1.60000000E+01  1.00800000E+00  1.00800000E+00  1.60000000E+01  1.00800000E+00
  1.00800000E+00  1.60000000E+01  1.00800000E+00  1.00800000E+00  1.60000000E+01
  1.00800000E+00  1.00800000E+00  1.60000000E+01  1.00800000E+00  1.00800000E+00
  1.60000000E+01  1.00800000E+00  1.00800000E+00  1.60000000E+01  1.00800000E+00
  1.00800000E+00  1.60000000E+01  1.00800000E+00  1.00800000E+00  1.60000000E+01
  1.00800000E+00  1.00800000E+00  1.60000000E+01  1.00800000E+00  1.00800000E+00
  1.60000000E+01  1.00800000E+00  1.00800000E+00  1.60000000E+01  1.00800000E+00
  1.00800000E+00  1.60000000E+01  1.00800000E+00  1.00800000E+00  1.60000000E+01
  1.00800000E+00  1.00800000E+00  1.60000000E+01  1.00800000E+00  1.00800000E+00
  1.60000000E+01  1.00800000E+00  1.00800000E+00  1.60000000E+01  1.00800000E+00
  1.00800000E+00  1.60000000E+01  1.00800000E+00  1.00800000E+00  1.60000000E+01
  1.00800000E+00  1.00800000E+00  1.60000000E+01  1.00800000E+00  1.00800000E+00
  1.60000000E+01  1.00800000E+00  1.00800000E+00  1.60000000E+01  1.00800000E+00
  1.00800000E+00  1.60000000E+01  1.00800000E+00  1.00800000E+00  1.60000000E+01
  1.00800000E+00  1.00800000E+00  1.60000000E+01  1.00800000E+00  1.00800000E+00
  1.60000000E+01  1.00800000E+00  1.00800000E+00  1.60000000E+01  1.00800000E+00
  1.00800000E+00  1.60000000E+01  1.00800000E+00  1.00800000E+00  1.60000000E+01
  1.00800000E+00  1.00800000E+00  1.60000000E+01  1.00800000E+00  1.00800000E+00
  1.60000000E+01  1.00800000E+00  1.00800000E+00  1.60000000E+01  1.00800000E+00
  1.00800000E+00  1.60000000E+01  1.00800000E+00  1.00800000E+00  1.60000000E+01
  1.00800000E+00  1.00800000E+00  1.60000000E+01  1.00800000E+00  1.00800000E+00
  1.60000000E+01  1.00800000E+00  1.00800000E+00  1.60000000E+01  1.00800000E+00
  1.00800000E+00  1.60000000E+01  1.00800000E+00  1.00800000E+00  1.60000000E+01
  1.00800000E+00  1.00800000E+00  1.60000000E+01  1.00800000E+00  1.00800000E+00
  1.60000000E+01  1.00800000E+00  1.00800000E+00  1.60000000E+01  1.00800000E+00
  1.00800000E+00  1.60000000E+01  1.00800000E+00  1.00800000E+00  1.60000000E+01
  1.00800000E+00  1.00800000E+00  1.60000000E+01  1.00800000E+00  1.00800000E+00
  1.60000000E+01  1.00800000E+00  1.00800000E+00  1.60000000E+01  1.00800000E+00
  1.00800000E+00  1.60000000E+01  1.00800000E+00  1.00800000E+00  1.60000000E+01
  1.00800000E+00  1.00800000E+00  1.60000000E+01  1.00800000E+00  1.00800000E+00
  1.60000000E+01  1.00800000E+00  1.00800000E+00  1.60000000E+01  1.00800000E+00
  1.00800000E+00  1.60000000E+01  1.00800000E+00  1.00800000E+00  1.60000000E+01
  1.00800000E+00  1.00800000E+00  1.60000000E+01  1.00800000E+00  1.00800000E+00
  1.60000000E+01  1.00800000E+00  1.00800000E+00  1.60000000E+01  1.00800000E+00
  1.00800000E+00  1.60000000E+01  1.00800000E+00  1.00800000E+00  1.60000000E+01
  1.00800000E+00  1.00800000E+00  1.60000000E+01  1.00800000E+00  1.00800000E+00
  1.60000000E+01  1.00800000E+00  1.00800000E+00  1.60000000E+01  1.00800000E+00
  1.00800000E+00  1.60000000E+01  1.00800000E+00  1.00800000E+00  1.60000000E+01
  1.00800000E+00  1.00800000E+00  1.60000000E+01  1.00800000E+00  1.00800000E+00
  1.60000000E+01  1.00800000E+00  1.00800000E+00  1.60000000E+01  1.00800000E+00
  1.00800000E+00  1.60000000E+01  1.00800000E+00  1.00800000E+00  1.60000000E+01
  1.00800000E+00  1.00800000E+00  1.60000000E+01  1.00800000E+00  1.00800000E+00
  1.60000000E+01  1.00800000E+00  1.00800000E+00  1.60000000E+01  1.00800000E+00
  1.00800000E+00  1.60000000E+01  1.00800000E+00  1.00800000E+00  1.60000000E+01
  1.00800000E+00  1.00800000E+00  1.60000000E+01  1.00800000E+00  1.00800000E+00
  1.60000000E+01  1.00800000E+00  1.00800000E+00  1.60000000E+01  1.00800000E+00
  1.00800000E+00  1.60000000E+01  1.00800000E+00  1.00800000E+00  1.60000000E+01
  1.00800000E+00  1.00800000E+00  1.60000000E+01  1.00800000E+00  1.00800000E+00
  1.60000000E+01  1.00800000E+00  1.00800000E+00  1.60000000E+01  1.00800000E+00
  1.00800000E+00  1.60000000E+01  1.00800000E+00  1.00800000E+00  1.60000000E+01
  1.00800000E+00  1.00800000E+00  1.60000000E+01  1.00800000E+00  1.00800000E+00
  1.60000000E+01  1.00800000E+00  1.00800000E+00  1.60000000E+01  1.00800000E+00
  1.00800000E+00  1.60000000E+01  1.00800000E+00  1.00800000E+00  1.60000000E+01
  1.00800000E+00  1.00800000E+00  1.60000000E+01  1.00800000E+00  1.00800000E+00
  1.60000000E+01  1.00800000E+00  1.00800000E+00  1.60000000E+01  1.00800000E+00
  1.00800000E+00  1.60000000E+01  1.00800000E+00  1.00800000E+00  1.60000000E+01
  1.00800000E+00  1.00800000E+00  1.60000000E+01  1.00800000E+00  1.00800000E+00
  1.60000000E+01  1.00800000E+00  1.00800000E+00  1.60000000E+01  1.00800000E+00
  1.00800000E+00  1.60000000E+01  1.00800000E+00  1.00800000E+00  1.60000000E+01
  1.00800000E+00  1.00800000E+00  1.60000000E+01  1.00800000E+00  1.00800000E+00
  1.60000000E+01  1.00800000E+00  1.00800000E+00  1.60000000E+01  1.00800000E+00
  1.00800000E+00  1.60000000E+01  1.00800000E+00  1.00800000E+00  1.60000000E+01
  1.00800000E+00  1.00800000E+00  1.60000000E+01  1.00800000E+00  1.00800000E+00
  1.60000000E+01  1.00800000E+00  1.00800000E+00  1.60000000E+01  1.00800000E+00
  1.00800000E+00  1.60000000E+01  1.00800000E+00  1.00800000E+00  1.60000000E+01
  1.00800000E+00  1.00800000E+00  1.60000000E+01  1.00800000E+00  1.00800000E+00
  1.60000000E+01  1.00800000E+00  1.00800000E+00  1.60000000E+01  1.00800000E+00
  1.00800000E+00  1.60000000E+01  1.00800000E+00  1.00800000E+00  1.60000000E+01
  1.00800000E+00  1.00800000E+00  1.60000000E+01  1.00800000E+00  1.00800000E+00
  1.60000000E+01  1.00800000E+00  1.00800000E+00  1.60000000E+01  1.00800000E+00
  1.00800000E+00  1.60000000E+01  1.00800000E+00  1.00800000E+00  1.60000000E+01
  1.00800000E+00  1.00800000E+00  1.60000000E+01  1.00800000E+00  1.00800000E+00
  1.60000000E+01  1.00800000E+00  1.00800000E+00  1.60000000E+01  1.00800000E+00
  1.00800000E+00  1.60000000E+01  1.00800000E+00  1.00800000E+00  1.60000000E+01
  1.00800000E+00  1.00800000E+00  1.60000000E+01  1.00800000E+00  1.00800000E+00
  1.60000000E+01  1.00800000E+00  1.00800000E+00  1.60000000E+01  1.00800000E+00
  1.00800000E+00  1.60000000E+01  1.00800000E+00  1.00800000E+00  1.60000000E+01
  1.00800000E+00  1.00800000E+00  1.60000000E+01  1.00800000E+00  1.00800000E+00
  1.60000000E+01  1.00800000E+00  1.00800000E+00  1.60000000E+01  1.00800000E+00
  1.00800000E+00  1.60000000E+01  1.00800000E+00  1.00800000E+00  1.60000000E+01
  1.00800000E+00  1.00800000E+00  1.60000000E+01  1.00800000E+00  1.00800000E+00
  1.60000000E+01  1.00800000E+00  1.00800000E+00  1.60000000E+01  1.00800000E+00
  1.00800000E+00  1.60000000E+01  1.00800000E+00  1.00800000E+00  1.60000000E+01
  1.00800000E+00  1.00800000E+00  1.60000000E+01  1.00800000E+00  1.00800000E+00
  1.60000000E+01  1.00800000E+00  1.00800000E+00  1.60000000E+01  1.00800000E+00
  1.00800000E+00  1.60000000E+01  1.00800000E+00  1.00800000E+00  1.60000000E+01
  1.00800000E+00  1.00800000E+00  1.60000000E+01  1.00800000E+00  1.00800000E+00
  1.60000000E+01  1.00800000E+00  1.00800000E+00  1.60000000E+01  1.00800000E+00
  1.00800000E+00  1.60000000E+01  1.00800000E+00  1.00800000E+00  1.60000000E+01
  1.00800000E+00  1.00800000E+00  1.60000000E+01  1.00800000E+00  1.00800000E+00
  1.60000000E+01  1.00800000E+00  1.00800000E+00  1.60000000E+01  1.00800000E+00
  1.00800000E+00  1.60000000E+01  1.00800000E+00  1.00800000E+00  1.60000000E+01
  1.00800000E+00  1.00800000E+00  1.60000000E+01  1.00800000E+00  1.00800000E+00
  1.60000000E+01  1.00800000E+00  1.00800000E+00  1.60000000E+01  1.00800000E+00
  1.00800000E+00  1.60000000E+01  1.00800000E+00  1.00800000E+00  1.60000000E+01
  1.00800000E+00  1.00800000E+00  1.60000000E+01  1.00800000E+00  1.00800000E+00
  1.60000000E+01  1.00800000E+00  1.00800000E+00  1.60000000E+01  1.00800000E+00
  1.00800000E+00  1.60000000E+01  1.00800000E+00  1.00800000E+00  1.60000000E+01
  1.00800000E+00  1.00800000E+00  1.60000000E+01  1.00800000E+00  1.00800000E+00
  1.60000000E+01  1.00800000E+00  1.00800000E+00  1.60000000E+01  1.00800000E+00
  1.00800000E+00  1.60000000E+01  1.00800000E+00  1.00800000E+00  1.60000000E+01
  1.00800000E+00  1.00800000E+00  1.60000000E+01  1.00800000E+00  1.00800000E+00
  1.60000000E+01  1.00800000E+00  1.00800000E+00  1.60000000E+01  1.00800000E+00
  1.00800000E+00  1.60000000E+01  1.00800000E+00  1.00800000E+00  1.60000000E+01
  1.00800000E+00  1.00800000E+00  1.60000000E+01  1.00800000E+00  1.00800000E+00
  1.60000000E+01  1.00800000E+00  1.00800000E+00  1.60000000E+01  1.00800000E+00
  1.00800000E+00  1.60000000E+01  1.00800000E+00  1.00800000E+00  1.60000000E+01
  1.00800000E+00  1.00800000E+00  1.60000000E+01  1.00800000E+00  1.00800000E+00
  1.60000000E+01  1.00800000E+00  1.00800000E+00  1.60000000E+01  1.00800000E+00
  1.00800000E+00  1.60000000E+01  1.00800000E+00  1.00800000E+00  1.60000000E+01
  1.00800000E+00  1.00800000E+00  1.60000000E+01  1.00800000E+00  1.00800000E+00
  1.60000000E+01  1.00800000E+00  1.00800000E+00  1.60000000E+01  1.00800000E+00
  1.00800000E+00  1.60000000E+01  1.00800000E+00  1.00800000E+00  1.60000000E+01
  1.00800000E+00  1.00800000E+00  1.60000000E+01  1.00800000E+00  1.00800000E+00
  1.60000000E+01  1.00800000E+00  1.00800000E+00  1.60000000E+01  1.00800000E+00
  1.00800000E+00  1.60000000E+01  1.00800000E+00  1.00800000E+00  1.60000000E+01
  1.00800000E+00  1.00800000E+00  1.60000000E+01  1.00800000E+00  1.00800000E+00
  1.60000000E+01  1.00800000E+00  1.00800000E+00  1.60000000E+01  1.00800000E+00
  1.00800000E+00  1.60000000E+01  1.00800000E+00  1.00800000E+00  1.60000000E+01
  1.00800000E+00  1.00800000E+00  1.60000000E+01  1.00800000E+00  1.00800000E+00
  1.60000000E+01  1.00800000E+00  1.00800000E+00  1.60000000E+01  1.00800000E+00
  1.00800000E+00  1.60000000E+01  1.00800000E+00  1.00800000E+00  1.60000000E+01
  1.00800000E+00  1.00800000E+00  1.60000000E+01  1.00800000E+00  1.00800000E+00
  1.60000000E+01  1.00800000E+00  1.00800000E+00  1.60000000E+01  1.00800000E+00
  1.00800000E+00  1.60000000E+01  1.00800000E+00  1.00800000E+00  1.60000000E+01
  1.00800000E+00  1.00800000E+00  1.60000000E+01  1.00800000E+00  1.00800000E+00
  1.60000000E+01  1.00800000E+00  1.00800000E+00  1.60000000E+01  1.00800000E+00
  1.00800000E+00  1.60000000E+01  1.00800000E+00  1.00800000E+00  1.60000000E+01
  1.00800000E+00  1.00800000E+00  1.60000000E+01  1.00800000E+00  1.00800000E+00
  1.60000000E+01  1.00800000E+00  1.00800000E+00  1.60000000E+01  1.00800000E+00
  1.00800000E+00  1.60000000E+01  1.00800000E+00  1.00800000E+00  1.60000000E+01
  1.00800000E+00  1.00800000E+00  1.60000000E+01  1.00800000E+00  1.00800000E+00
  1.60000000E+01  1.00800000E+00  1.00800000E+00  1.60000000E+01  1.00800000E+00
  1.00800000E+00  1.60000000E+01  1.00800000E+00  1.00800000E+00  1.60000000E+01
  1.00800000E+00  1.00800000E+00  1.60000000E+01  1.00800000E+00  1.00800000E+00
  1.60000000E+01  1.00800000E+00  1.00800000E+00  1.60000000E+01  1.00800000E+00
  1.00800000E+00  1.60000000E+01  1.00800000E+00  1.00800000E+00  1.60000000E+01
  1.00800000E+00  1.00800000E+00  1.60000000E+01  1.00800000E+00  1.00800000E+00
  1.60000000E+01  1.00800000E+00  1.00800000E+00  1.60000000E+01  1.00800000E+00
  1.00800000E+00  1.60000000E+01  1.00800000E+00  1.00800000E+00  1.60000000E+01
  1.00800000E+00  1.00800000E+00  1.60000000E+01  1.00800000E+00  1.00800000E+00
  1.60000000E+01  1.00800000E+00  1.00800000E+00  1.60000000E+01  1.00800000E+00
  1.00800000E+00  1.60000000E+01  1.00800000E+00  1.00800000E+00  1.60000000E+01
  1.00800000E+00  1.00800000E+00  1.60000000E+01  1.00800000E+00  1.00800000E+00
  1.60000000E+01  1.00800000E+00  1.00800000E+00  1.60000000E+01  1.00800000E+00
  1.00800000E+00  1.60000000E+01  1.00800000E+00  1.00800000E+00  1.60000000E+01
  1.00800000E+00  1.00800000E+00  1.60000000E+01  1.00800000E+00  1.00800000E+00
  1.60000000E+01  1.00800000E+00  1.00800000E+00  1.60000000E+01  1.00800000E+00
  1.00800000E+00  1.60000000E+01  1.00800000E+00  1.00800000E+00  1.60000000E+01
  1.00800000E+00  1.00800000E+00  1.60000000E+01  1.00800000E+00  1.00800000E+00
  1.60000000E+01  1.00800000E+00  1.00800000E+00  1.60000000E+01  1.00800000E+00
  1.00800000E+00  1.60000000E+01  1.00800000E+00  1.00800000E+00  1.60000000E+01
  1.00800000E+00  1.00800000E+00  1.60000000E+01  1.00800000E+00  1.00800000E+00
  1.60000000E+01  1.00800000E+00  1.00800000E+00  1.60000000E+01  1.00800000E+00
  1.00800000E+00  1.60000000E+01  1.00800000E+00  1.00800000E+00  1.60000000E+01
  1.00800000E+00  1.00800000E+00  1.60000000E+01  1.00800000E+00  1.00800000E+00
  1.60000000E+01  1.00800000E+00  1.00800000E+00  1.60000000E+01  1.00800000E+00
  1.00800000E+00  1.60000000E+01  1.00800000E+00  1.00800000E+00  1.60000000E+01
  1.00800000E+00  1.00800000E+00  1.60000000E+01  1.00800000E+00  1.00800000E+00
  1.60000000E+01  1.00800000E+00  1.00800000E+00  1.60000000E+01  1.00800000E+00
  1.00800000E+00  1.60000000E+01  1.00800000E+00  1.00800000E+00  1.60000000E+01
  1.00800000E+00  1.00800000E+00  1.60000000E+01  1.00800000E+00  1.00800000E+00
  1.60000000E+01  1.00800000E+00  1.00800000E+00  1.60000000E+01  1.00800000E+00
  1.00800000E+00  1.60000000E+01  1.00800000E+00  1.00800000E+00  1.60000000E+01
  1.00800000E+00  1.00800000E+00  1.60000000E+01  1.00800000E+00  1.00800000E+00
  1.60000000E+01  1.00800000E+00  1.00800000E+00  1.60000000E+01  1.00800000E+00
  1.00800000E+00  1.60000000E+01  1.00800000E+00  1.00800000E+00  1.60000000E+01
  1.00800000E+00  1.00800000E+00  1.60000000E+01  1.00800000E+00  1.00800000E+00
  1.60000000E+01  1.00800000E+00  1.00800000E+00  1.60000000E+01  1.00800000E+00
  1.00800000E+00  1.60000000E+01  1.00800000E+00  1.00800000E+00  1.60000000E+01
  1.00800000E+00  1.00800000E+00  1.60000000E+01  1.00800000E+00  1.00800000E+00
  1.60000000E+01  1.00800000E+00  1.00800000E+00  1.60000000E+01  1.00800000E+00
  1.00800000E+00  1.60000000E+01  1.00800000E+00  1.00800000E+00  1.60000000E+01
  1.00800000E+00  1.00800000E+00  1.60000000E+01  1.00800000E+00  1.00800000E+00
  1.60000000E+01  1.00800000E+00  1.00800000E+00  1.60000000E+01  1.00800000E+00
  1.00800000E+00  1.60000000E+01  1.00800000E+00  1.00800000E+00  1.60000000E+01
  1.00800000E+00  1.00800000E+00  1.60000000E+01  1.00800000E+00  1.00800000E+00
  1.60000000E+01  1.00800000E+00  1.00800000E+00  1.60000000E+01  1.00800000E+00
  1.00800000E+00  1.60000000E+01  1.00800000E+00  1.00800000E+00  1.60000000E+01
  1.00800000E+00  1.00800000E+00  1.60000000E+01  1.00800000E+00  1.00800000E+00
  1.60000000E+01  1.00800000E+00  1.00800000E+00  1.60000000E+01  1.00800000E+00
  1.00800000E+00  1.60000000E+01  1.00800000E+00  1.00800000E+00  1.60000000E+01
  1.00800000E+00  1.00800000E+00  1.60000000E+01  1.00800000E+00  1.00800000E+00
  1.60000000E+01  1.00800000E+00  1.00800000E+00  1.60000000E+01  1.00800000E+00
  1.00800000E+00  1.60000000E+01  1.00800000E+00  1.00800000E+00  1.60000000E+01
  1.00800000E+00  1.00800000E+00  1.60000000E+01  1.00800000E+00  1.00800000E+00
  1.60000000E+01  1.00800000E+00  1.00800000E+00  1.60000000E+01  1.00800000E+00
  1.00800000E+00  1.60000000E+01  1.00800000E+00  1.00800000E+00  1.60000000E+01
  1.00800000E+00  1.00800000E+00  1.60000000E+01  1.00800000E+00  1.00800000E+00
  1.60000000E+01  1.00800000E+00  1.00800000E+00  1.60000000E+01  1.00800000E+00
  1.00800000E+00  1.60000000E+01  1.00800000E+00  1.00800000E+00  1.60000000E+01
  1.00800000E+00  1.00800000E+00  1.60000000E+01  1.00800000E+00  1.00800000E+00
  1.60000000E+01  1.00800000E+00  1.00800000E+00  1.60000000E+01  1.00800000E+00
  1.00800000E+00  1.60000000E+01  1.00800000E+00  1.00800000E+00  1.60000000E+01
  1.00800000E+00  1.00800000E+00  1.60000000E+01  1.00800000E+00  1.00800000E+00
  1.60000000E+01  1.00800000E+00  1.00800000E+00  1.60000000E+01  1.00800000E+00
  1.00800000E+00  1.60000000E+01  1.00800000E+00  1.00800000E+00  1.60000000E+01
  1.00800000E+00  1.00800000E+00  1.60000000E+01  1.00800000E+00  1.00800000E+00
  1.60000000E+01  1.00800000E+00  1.00800000E+00  1.60000000E+01  1.00800000E+00
  1.00800000E+00  1.60000000E+01  1.00800000E+00  1.00800000E+00  1.60000000E+01
  1.00800000E+00  1.00800000E+00  1.60000000E+01  1.00800000E+00  1.00800000E+00
  1.60000000E+01  1.00800000E+00  1.00800000E+00  1.60000000E+01  1.00800000E+00
  1.00800000E+00  1.60000000E+01  1.00800000E+00  1.00800000E+00  1.60000000E+01
  1.00800000E+00  1.00800000E+00  1.60000000E+01  1.00800000E+00  1.00800000E+00
  1.60000000E+01  1.00800000E+00  1.00800000E+00  1.60000000E+01  1.00800000E+00
  1.00800000E+00  1.60000000E+01  1.00800000E+00  1.00800000E+00  1.60000000E+01
  1.00800000E+00  1.00800000E+00  1.60000000E+01  1.00800000E+00  1.00800000E+00
  1.60000000E+01  1.00800000E+00  1.00800000E+00  1.60000000E+01  1.00800000E+00
  1.00800000E+00  1.60000000E+01  1.00800000E+00  1.00800000E+00  1.60000000E+01
  1.00800000E+00  1.00800000E+00  1.60000000E+01  1.00800000E+00  1.00800000E+00
  1.60000000E+01  1.00800000E+00  1.00800000E+00  1.60000000E+01  1.00800000E+00
  1.00800000E+00  1.60000000E+01  1.00800000E+00  1.00800000E+00  1.60000000E+01
  1.00800000E+00  1.00800000E+00  1.60000000E+01  1.00800000E+00  1.00800000E+00
  1.60000000E+01  1.00800000E+00  1.00800000E+00  1.60000000E+01  1.00800000E+00
  1.00800000E+00  1.60000000E+01  1.00800000E+00  1.00800000E+00  1.60000000E+01
  1.00800000E+00  1.00800000E+00  1.60000000E+01  1.00800000E+00  1.00800000E+00
  1.60000000E+01  1.00800000E+00  1.00800000E+00  1.60000000E+01  1.00800000E+00
  1.00800000E+00  1.60000000E+01  1.00800000E+00  1.00800000E+00  1.60000000E+01
  1.00800000E+00  1.00800000E+00  1.60000000E+01  1.00800000E+00  1.00800000E+00
  1.60000000E+01  1.00800000E+00  1.00800000E+00  1.60000000E+01  1.00800000E+00
  1.00800000E+00  1.60000000E+01  1.00800000E+00  1.00800000E+00  1.60000000E+01
  1.00800000E+00  1.00800000E+00  1.60000000E+01  1.00800000E+00  1.00800000E+00
  1.60000000E+01  1.00800000E+00  1.00800000E+00  1.60000000E+01  1.00800000E+00
  1.00800000E+00  1.60000000E+01  1.00800000E+00  1.00800000E+00  1.60000000E+01
  1.00800000E+00  1.00800000E+00  1.60000000E+01  1.00800000E+00  1.00800000E+00
  1.60000000E+01  1.00800000E+00  1.00800000E+00  1.60000000E+01  1.00800000E+00
  1.00800000E+00  1.60000000E+01  1.00800000E+00  1.00800000E+00  1.60000000E+01
  1.00800000E+00  1.00800000E+00  1.60000000E+01  1.00800000E+00  1.00800000E+00
  1.60000000E+01  1.00800000E+00  1.00800000E+00  1.60000000E+01  1.00800000E+00
  1.00800000E+00  1.60000000E+01  1.00800000E+00  1.00800000E+00  1.60000000E+01
  1.00800000E+00  1.00800000E+00  1.60000000E+01  1.00800000E+00  1.00800000E+00
  1.60000000E+01  1.00800000E+00  1.00800000E+00  1.60000000E+01  1.00800000E+00
  1.00800000E+00  1.60000000E+01  1.00800000E+00  1.00800000E+00  1.60000000E+01
  1.00800000E+00  1.00800000E+00  1.60000000E+01  1.00800000E+00  1.00800000E+00
  1.60000000E+01  1.00800000E+00  1.00800000E+00  1.60000000E+01  1.00800000E+00
  1.00800000E+00  1.60000000E+01  1.00800000E+00  1.00800000E+00  1.60000000E+01
  1.00800000E+00  1.00800000E+00  1.60000000E+01  1.00800000E+00  1.00800000E+00
  1.60000000E+01  1.00800000E+00  1.00800000E+00  1.60000000E+01  1.00800000E+00
  1.00800000E+00  1.60000000E+01  1.00800000E+00  1.00800000E+00  1.60000000E+01
  1.00800000E+00  1.00800000E+00  1.60000000E+01  1.00800000E+00  1.00800000E+00
  1.60000000E+01  1.00800000E+00  1.00800000E+00  1.60000000E+01  1.00800000E+00
  1.00800000E+00  1.60000000E+01  1.00800000E+00  1.00800000E+00  1.60000000E+01
  1.00800000E+00  1.00800000E+00  1.60000000E+01  1.00800000E+00  1.00800000E+00
  1.60000000E+01  1.00800000E+00  1.00800000E+00  1.60000000E+01  1.00800000E+00
  1.00800000E+00  1.60000000E+01  1.00800000E+00  1.00800000E+00  1.60000000E+01
  1.00800000E+00  1.00800000E+00  1.60000000E+01  1.00800000E+00  1.00800000E+00
  1.60000000E+01  1.00800000E+00  1.00800000E+00  1.60000000E+01  1.00800000E+00
  1.00800000E+00  1.60000000E+01  1.00800000E+00  1.00800000E+00  1.60000000E+01
  1.00800000E+00  1.00800000E+00  1.60000000E+01  1.00800000E+00  1.00800000E+00
  1.60000000E+01  1.00800000E+00  1.00800000E+00  1.60000000E+01  1.00800000E+00
  1.00800000E+00  1.60000000E+01  1.00800000E+00  1.00800000E+00  1.60000000E+01
  1.00800000E+00  1.00800000E+00  1.60000000E+01  1.00800000E+00  1.00800000E+00
  1.60000000E+01  1.00800000E+00  1.00800000E+00  1.60000000E+01  1.00800000E+00
  1.00800000E+00  1.60000000E+01  1.00800000E+00  1.00800000E+00  1.60000000E+01
  1.00800000E+00  1.00800000E+00  1.60000000E+01  1.00800000E+00  1.00800000E+00
  1.60000000E+01  1.00800000E+00  1.00800000E+00  1.60000000E+01  1.00800000E+00
  1.00800000E+00  1.60000000E+01  1.00800000E+00  1.00800000E+00  1.60000000E+01
  1.00800000E+00  1.00800000E+00  1.60000000E+01  1.00800000E+00  1.00800000E+00
  1.60000000E+01  1.00800000E+00  1.00800000E+00  1.60000000E+01  1.00800000E+00
  1.00800000E+00  1.60000000E+01  1.00800000E+00  1.00800000E+00  1.60000000E+01
  1.00800000E+00  1.00800000E+00  1.60000000E+01  1.00800000E+00  1.00800000E+00
  1.60000000E+01  1.00800000E+00  1.00800000E+00  1.60000000E+01  1.00800000E+00
  1.00800000E+00  1.60000000E+01  1.00800000E+00  1.00800000E+00  1.60000000E+01
  1.00800000E+00  1.00800000E+00  1.60000000E+01  1.00800000E+00  1.00800000E+00
  1.60000000E+01  1.00800000E+00  1.00800000E+00  1.60000000E+01  1.00800000E+00
  1.00800000E+00  1.60000000E+01  1.00800000E+00  1.00800000E+00  1.60000000E+01
  1.00800000E+00  1.00800000E+00  1.60000000E+01  1.00800000E+00  1.00800000E+00
  1.60000000E+01  1.00800000E+00  1.00800000E+00  1.60000000E+01  1.00800000E+00
  1.00800000E+00  1.60000000E+01  1.00800000E+00  1.00800000E+00  1.60000000E+01
  1.00800000E+00  1.00800000E+00  1.60000000E+01  1.00800000E+00  1.00800000E+00
  1.60000000E+01  1.00800000E+00  1.00800000E+00  1.60000000E+01  1.00800000E+00
  1.00800000E+00  1.60000000E+01  1.00800000E+00  1.00800000E+00  1.60000000E+01
  1.00800000E+00  1.00800000E+00  1.60000000E+01  1.00800000E+00  1.00800000E+00
  1.60000000E+01  1.00800000E+00  1.00800000E+00  1.60000000E+01  1.00800000E+00
  1.00800000E+00  1.60000000E+01  1.00800000E+00  1.00800000E+00  1.60000000E+01
  1.00800000E+00  1.00800000E+00  1.60000000E+01  1.00800000E+00  1.00800000E+00
  1.60000000E+01  1.00800000E+00  1.00800000E+00  1.60000000E+01  1.00800000E+00
  1.00800000E+00  1.60000000E+01  1.00800000E+00  1.00800000E+00  1.60000000E+01
  1.00800000E+00  1.00800000E+00  1.60000000E+01  1.00800000E+00  1.00800000E+00
  1.60000000E+01  1.00800000E+00  1.00800000E+00  1.60000000E+01  1.00800000E+00
  1.00800000E+00  1.60000000E+01  1.00800000E+00  1.00800000E+00  1.60000000E+01
  1.00800000E+00  1.00800000E+00  1.60000000E+01  1.00800000E+00  1.00800000E+00
  1.60000000E+01  1.00800000E+00  1.00800000E+00  1.60000000E+01  1.00800000E+00
  1.00800000E+00  1.60000000E+01  1.00800000E+00  1.00800000E+00  1.60000000E+01
  1.00800000E+00  1.00800000E+00  1.60000000E+01  1.00800000E+00  1.00800000E+00
  1.60000000E+01  1.00800000E+00  1.00800000E+00  1.60000000E+01  1.00800000E+00
  1.00800000E+00  1.60000000E+01  1.00800000E+00  1.00800000E+00  1.60000000E+01
  1.00800000E+00  1.00800000E+00  1.60000000E+01  1.00800000E+00  1.00800000E+00
  1.60000000E+01  1.00800000E+00  1.00800000E+00  1.60000000E+01  1.00800000E+00
  1.00800000E+00  1.60000000E+01  1.00800000E+00  1.00800000E+00  1.60000000E+01
  1.00800000E+00  1.00800000E+00  1.60000000E+01  1.00800000E+00  1.00800000E+00
  1.60000000E+01  1.00800000E+00  1.00800000E+00  1.60000000E+01  1.00800000E+00
  1.00800000E+00  1.60000000E+01  1.00800000E+00  1.00800000E+00  1.60000000E+01
  1.00800000E+00  1.00800000E+00  1.60000000E+01  1.00800000E+00  1.00800000E+00
  1.60000000E+01  1.00800000E+00  1.00800000E+00  1.60000000E+01  1.00800000E+00
  1.00800000E+00  1.60000000E+01  1.00800000E+00  1.00800000E+00  1.60000000E+01
  1.00800000E+00  1.00800000E+00  1.60000000E+01  1.00800000E+00  1.00800000E+00
  1.60000000E+01  1.00800000E+00  1.00800000E+00  1.60000000E+01  1.00800000E+00
  1.00800000E+00  1.60000000E+01  1.00800000E+00  1.00800000E+00  1.60000000E+01
  1.00800000E+00  1.00800000E+00  1.60000000E+01  1.00800000E+00  1.00800000E+00
  1.60000000E+01  1.00800000E+00  1.00800000E+00  1.60000000E+01  1.00800000E+00
  1.00800000E+00  1.60000000E+01  1.00800000E+00  1.00800000E+00  1.60000000E+01
  1.00800000E+00  1.00800000E+00  1.60000000E+01  1.00800000E+00  1.00800000E+00
  1.60000000E+01  1.00800000E+00  1.00800000E+00  1.60000000E+01  1.00800000E+00
  1.00800000E+00  1.60000000E+01  1.00800000E+00  1.00800000E+00  1.60000000E+01
  1.00800000E+00  1.00800000E+00  1.60000000E+01  1.00800000E+00  1.00800000E+00
  1.60000000E+01  1.00800000E+00  1.00800000E+00  1.60000000E+01  1.00800000E+00
  1.00800000E+00  1.60000000E+01  1.00800000E+00  1.00800000E+00  1.60000000E+01
  1.00800000E+00  1.00800000E+00  1.60000000E+01  1.00800000E+00  1.00800000E+00
  1.60000000E+01  1.00800000E+00  1.00800000E+00  1.60000000E+01  1.00800000E+00
  1.00800000E+00  1.60000000E+01  1.00800000E+00  1.00800000E+00  1.60000000E+01
  1.00800000E+00  1.00800000E+00  1.60000000E+01  1.00800000E+00  1.00800000E+00
  1.60000000E+01  1.00800000E+00  1.00800000E+00  1.60000000E+01  1.00800000E+00
  1.00800000E+00  1.60000000E+01  1.00800000E+00  1.00800000E+00  1.60000000E+01
  1.00800000E+00  1.00800000E+00  1.60000000E+01  1.00800000E+00  1.00800000E+00
  1.60000000E+01  1.00800000E+00  1.00800000E+00  1.60000000E+01  1.00800000E+00
  1.00800000E+00  1.60000000E+01  1.00800000E+00  1.00800000E+00  1.60000000E+01
  1.00800000E+00  1.00800000E+00  1.60000000E+01  1.00800000E+00  1.00800000E+00
  1.60000000E+01  1.00800000E+00  1.00800000E+00  1.60000000E+01  1.00800000E+00
  1.00800000E+00  1.60000000E+01  1.00800000E+00  1.00800000E+00  1.60000000E+01
  1.00800000E+00  1.00800000E+00  1.60000000E+01  1.00800000E+00  1.00800000E+00
  1.60000000E+01  1.00800000E+00  1.00800000E+00  1.60000000E+01  1.00800000E+00
  1.00800000E+00  1.60000000E+01  1.00800000E+00  1.00800000E+00  1.60000000E+01
  1.00800000E+00  1.00800000E+00  1.60000000E+01  1.00800000E+00  1.00800000E+00
  1.60000000E+01  1.00800000E+00  1.00800000E+00  1.60000000E+01  1.00800000E+00
  1.00800000E+00  1.60000000E+01  1.00800000E+00  1.00800000E+00  1.60000000E+01
  1.00800000E+00  1.00800000E+00  1.60000000E+01  1.00800000E+00  1.00800000E+00
  1.60000000E+01  1.00800000E+00  1.00800000E+00  1.60000000E+01  1.00800000E+00
  1.00800000E+00  1.60000000E+01  1.00800000E+00  1.00800000E+00  1.60000000E+01
  1.00800000E+00  1.00800000E+00  1.60000000E+01  1.00800000E+00  1.00800000E+00
  1.60000000E+01  1.00800000E+00  1.00800000E+00  1.60000000E+01  1.00800000E+00
  1.00800000E+00  1.60000000E+01  1.00800000E+00  1.00800000E+00  1.60000000E+01
  1.00800000E+00  1.00800000E+00  1.60000000E+01  1.00800000E+00  1.00800000E+00
  1.60000000E+01  1.00800000E+00  1.00800000E+00  1.60000000E+01  1.00800000E+00
  1.00800000E+00  1.60000000E+01  1.00800000E+00  1.00800000E+00  1.60000000E+01
  1.00800000E+00  1.00800000E+00  1.60000000E+01  1.00800000E+00  1.00800000E+00
  1.60000000E+01  1.00800000E+00  1.00800000E+00  1.60000000E+01  1.00800000E+00
  1.00800000E+00  1.60000000E+01  1.00800000E+00  1.00800000E+00  1.60000000E+01
  1.00800000E+00  1.00800000E+00  1.60000000E+01  1.00800000E+00  1.00800000E+00
  1.60000000E+01  1.00800000E+00  1.00800000E+00  1.60000000E+01  1.00800000E+00
  1.00800000E+00  1.60000000E+01  1.00800000E+00  1.00800000E+00  1.60000000E+01
  1.00800000E+00  1.00800000E+00  1.60000000E+01  1.00800000E+00  1.00800000E+00
  1.60000000E+01  1.00800000E+00  1.00800000E+00  1.60000000E+01  1.00800000E+00
  1.00800000E+00  1.60000000E+01  1.00800000E+00  1.00800000E+00  1.60000000E+01
  1.00800000E+00  1.00800000E+00  1.60000000E+01  1.00800000E+00  1.00800000E+00
  1.60000000E+01  1.00800000E+00  1.00800000E+00  1.60000000E+01  1.00800000E+00
  1.00800000E+00  1.60000000E+01  1.00800000E+00  1.00800000E+00  1.60000000E+01
  1.00800000E+00  1.00800000E+00  1.60000000E+01  1.00800000E+00  1.00800000E+00
  1.60000000E+01  1.00800000E+00  1.00800000E+00  1.60000000E+01  1.00800000E+00
  1.00800000E+00  1.60000000E+01  1.00800000E+00  1.00800000E+00  1.60000000E+01
  1.00800000E+00  1.00800000E+00  1.60000000E+01  1.00800000E+00  1.00800000E+00
  1.60000000E+01  1.00800000E+00  1.00800000E+00  1.60000000E+01  1.00800000E+00
  1.00800000E+00  1.60000000E+01  1.00800000E+00  1.00800000E+00  1.60000000E+01
  1.00800000E+00  1.00800000E+00  1.60000000E+01  1.00800000E+00  1.00800000E+00
  1.60000000E+01  1.00800000E+00  1.00800000E+00  1.60000000E+01  1.00800000E+00
  1.00800000E+00  1.60000000E+01  1.00800000E+00  1.00800000E+00  1.60000000E+01
  1.00800000E+00  1.00800000E+00  1.60000000E+01  1.00800000E+00  1.00800000E+00
  1.60000000E+01  1.00800000E+00  1.00800000E+00  1.60000000E+01  1.00800000E+00
  1.00800000E+00  1.60000000E+01  1.00800000E+00  1.00800000E+00  1.60000000E+01
  1.00800000E+00  1.00800000E+00  1.60000000E+01  1.00800000E+00  1.00800000E+00
  1.60000000E+01  1.00800000E+00  1.00800000E+00  1.60000000E+01  1.00800000E+00
  1.00800000E+00  1.60000000E+01  1.00800000E+00  1.00800000E+00  1.60000000E+01
  1.00800000E+00  1.00800000E+00  1.60000000E+01  1.00800000E+00  1.00800000E+00
  1.60000000E+01  1.00800000E+00  1.00800000E+00  1.60000000E+01  1.00800000E+00
  1.00800000E+00  1.60000000E+01  1.00800000E+00  1.00800000E+00  1.60000000E+01
  1.00800000E+00  1.00800000E+00  1.60000000E+01  1.00800000E+00  1.00800000E+00
  1.60000000E+01  1.00800000E+00  1.00800000E+00  1.60000000E+01  1.00800000E+00
  1.00800000E+00  1.60000000E+01  1.00800000E+00  1.00800000E+00  1.60000000E+01
  1.00800000E+00  1.00800000E+00  1.60000000E+01  1.00800000E+00  1.00800000E+00
  1.60000000E+01  1.00800000E+00  1.00800000E+00  1.60000000E+01  1.00800000E+00
  1.00800000E+00  1.60000000E+01  1.00800000E+00  1.00800000E+00  1.60000000E+01
  1.00800000E+00  1.00800000E+00  1.60000000E+01  1.00800000E+00  1.00800000E+00
  1.60000000E+01  1.00800000E+00  1.00800000E+00  1.60000000E+01  1.00800000E+00
  1.00800000E+00  1.60000000E+01  1.00800000E+00  1.00800000E+00  1.60000000E+01
  1.00800000E+00  1.00800000E+00  1.60000000E+01  1.00800000E+00  1.00800000E+00
  1.60000000E+01  1.00800000E+00  1.00800000E+00  1.60000000E+01  1.00800000E+00
  1.00800000E+00  1.60000000E+01  1.00800000E+00  1.00800000E+00  1.60000000E+01
  1.00800000E+00  1.00800000E+00  1.60000000E+01  1.00800000E+00  1.00800000E+00
  1.60000000E+01  1.00800000E+00  1.00800000E+00  1.60000000E+01  1.00800000E+00
  1.00800000E+00  1.60000000E+01  1.00800000E+00  1.00800000E+00  1.60000000E+01
  1.00800000E+00  1.00800000E+00  1.60000000E+01  1.00800000E+00  1.00800000E+00
  1.60000000E+01  1.00800000E+00  1.00800000E+00  1.60000000E+01  1.00800000E+00
  1.00800000E+00  1.60000000E+01  1.00800000E+00  1.00800000E+00  1.60000000E+01
  1.00800000E+00  1.00800000E+00  1.60000000E+01  1.00800000E+00  1.00800000E+00
  1.60000000E+01  1.00800000E+00  1.00800000E+00  1.60000000E+01  1.00800000E+00
  1.00800000E+00  1.60000000E+01  1.00800000E+00  1.00800000E+00  1.60000000E+01
  1.00800000E+00  1.00800000E+00  1.60000000E+01  1.00800000E+00  1.00800000E+00
  1.60000000E+01  1.00800000E+00  1.00800000E+00  1.60000000E+01  1.00800000E+00
  1.00800000E+00  1.60000000E+01  1.00800000E+00  1.00800000E+00  1.60000000E+01
  1.00800000E+00  1.00800000E+00  1.60000000E+01  1.00800000E+00  1.00800000E+00
  1.60000000E+01  1.00800000E+00  1.00800000E+00  1.60000000E+01  1.00800000E+00
  1.00800000E+00  1.60000000E+01  1.00800000E+00  1.00800000E+00  1.60000000E+01
  1.00800000E+00  1.00800000E+00  1.60000000E+01  1.00800000E+00  1.00800000E+00
  1.60000000E+01  1.00800000E+00  1.00800000E+00  1.60000000E+01  1.00800000E+00
  1.00800000E+00  1.60000000E+01  1.00800000E+00  1.00800000E+00  1.60000000E+01
  1.00800000E+00  1.00800000E+00  1.60000000E+01  1.00800000E+00  1.00800000E+00
  1.60000000E+01  1.00800000E+00  1.00800000E+00  1.60000000E+01  1.00800000E+00
  1.00800000E+00  1.60000000E+01  1.00800000E+00  1.00800000E+00  1.60000000E+01
  1.00800000E+00  1.00800000E+00  1.60000000E+01  1.00800000E+00  1.00800000E+00
  1.60000000E+01  1.00800000E+00  1.00800000E+00  1.60000000E+01  1.00800000E+00
  1.00800000E+00  1.60000000E+01  1.00800000E+00  1.00800000E+00  1.60000000E+01
  1.00800000E+00  1.00800000E+00  1.60000000E+01  1.00800000E+00  1.00800000E+00
  1.60000000E+01  1.00800000E+00  1.00800000E+00  1.60000000E+01  1.00800000E+00
  1.00800000E+00  1.60000000E+01  1.00800000E+00  1.00800000E+00  1.60000000E+01
  1.00800000E+00  1.00800000E+00  1.60000000E+01  1.00800000E+00  1.00800000E+00
  1.60000000E+01  1.00800000E+00  1.00800000E+00  1.60000000E+01  1.00800000E+00
  1.00800000E+00  1.60000000E+01  1.00800000E+00  1.00800000E+00  1.60000000E+01
  1.00800000E+00  1.00800000E+00  1.60000000E+01  1.00800000E+00  1.00800000E+00
  1.60000000E+01  1.00800000E+00  1.00800000E+00  1.60000000E+01  1.00800000E+00
  1.00800000E+00  1.60000000E+01  1.00800000E+00  1.00800000E+00  1.60000000E+01
  1.00800000E+00  1.00800000E+00  1.60000000E+01  1.00800000E+00  1.00800000E+00
  1.60000000E+01  1.00800000E+00  1.00800000E+00  1.60000000E+01  1.00800000E+00
  1.00800000E+00  1.60000000E+01  1.00800000E+00  1.00800000E+00  1.60000000E+01
  1.00800000E+00  1.00800000E+00  1.60000000E+01  1.00800000E+00  1.00800000E+00
  1.60000000E+01  1.00800000E+00  1.00800000E+00  1.60000000E+01  1.00800000E+00
  1.00800000E+00  1.60000000E+01  1.00800000E+00  1.00800000E+00  1.60000000E+01
  1.00800000E+00  1.00800000E+00  1.60000000E+01  1.00800000E+00  1.00800000E+00
  1.60000000E+01  1.00800000E+00  1.00800000E+00  1.60000000E+01  1.00800000E+00
  1.00800000E+00  1.60000000E+01  1.00800000E+00  1.00800000E+00  1.60000000E+01
  1.00800000E+00  1.00800000E+00  1.60000000E+01  1.00800000E+00  1.00800000E+00
  1.60000000E+01  1.00800000E+00  1.00800000E+00  1.60000000E+01  1.00800000E+00
  1.00800000E+00  1.60000000E+01  1.00800000E+00  1.00800000E+00  1.60000000E+01
  1.00800000E+00  1.00800000E+00  1.60000000E+01  1.00800000E+00  1.00800000E+00
  1.60000000E+01  1.00800000E+00  1.00800000E+00  1.60000000E+01  1.00800000E+00
  1.00800000E+00  1.60000000E+01  1.00800000E+00  1.00800000E+00  1.60000000E+01
  1.00800000E+00  1.00800000E+00  1.60000000E+01  1.00800000E+00  1.00800000E+00
  1.60000000E+01  1.00800000E+00  1.00800000E+00  1.60000000E+01  1.00800000E+00
  1.00800000E+00  1.60000000E+01  1.00800000E+00  1.00800000E+00  1.60000000E+01
  1.00800000E+00  1.00800000E+00  1.60000000E+01  1.00800000E+00  1.00800000E+00
  1.60000000E+01  1.00800000E+00  1.00800000E+00  1.60000000E+01  1.00800000E+00
  1.00800000E+00  1.60000000E+01  1.00800000E+00  1.00800000E+00  1.60000000E+01
  1.00800000E+00  1.00800000E+00  1.60000000E+01  1.00800000E+00  1.00800000E+00
  1.60000000E+01  1.00800000E+00  1.00800000E+00  1.60000000E+01  1.00800000E+00
  1.00800000E+00  1.60000000E+01  1.00800000E+00  1.00800000E+00  1.60000000E+01
  1.00800000E+00  1.00800000E+00  1.60000000E+01  1.00800000E+00  1.00800000E+00
  1.60000000E+01  1.00800000E+00  1.00800000E+00  1.60000000E+01  1.00800000E+00
  1.00800000E+00  1.60000000E+01  1.00800000E+00  1.00800000E+00  1.60000000E+01
  1.00800000E+00  1.00800000E+00  1.60000000E+01  1.00800000E+00  1.00800000E+00
  1.60000000E+01  1.00800000E+00  1.00800000E+00  1.60000000E+01  1.00800000E+00
  1.00800000E+00  1.60000000E+01  1.00800000E+00  1.00800000E+00  1.60000000E+01
  1.00800000E+00  1.00800000E+00  1.60000000E+01  1.00800000E+00  1.00800000E+00
  1.60000000E+01  1.00800000E+00  1.00800000E+00  1.60000000E+01  1.00800000E+00
  1.00800000E+00  1.60000000E+01  1.00800000E+00  1.00800000E+00  1.60000000E+01
  1.00800000E+00  1.00800000E+00  1.60000000E+01  1.00800000E+00  1.00800000E+00
  1.60000000E+01  1.00800000E+00  1.00800000E+00  1.60000000E+01  1.00800000E+00
  1.00800000E+00  1.60000000E+01  1.00800000E+00  1.00800000E+00  1.60000000E+01
  1.00800000E+00  1.00800000E+00  1.60000000E+01  1.00800000E+00  1.00800000E+00
  1.60000000E+01  1.00800000E+00  1.00800000E+00  1.60000000E+01  1.00800000E+00
  1.00800000E+00  1.60000000E+01  1.00800000E+00  1.00800000E+00  1.60000000E+01
  1.00800000E+00  1.00800000E+00  1.60000000E+01  1.00800000E+00  1.00800000E+00
  1.60000000E+01  1.00800000E+00  1.00800000E+00  1.60000000E+01  1.00800000E+00
  1.00800000E+00  1.60000000E+01  1.00800000E+00  1.00800000E+00  1.60000000E+01
  1.00800000E+00  1.00800000E+00  1.60000000E+01  1.00800000E+00  1.00800000E+00
  1.60000000E+01  1.00800000E+00  1.00800000E+00  1.60000000E+01  1.00800000E+00
  1.00800000E+00  1.60000000E+01  1.00800000E+00  1.00800000E+00  1.60000000E+01
  1.00800000E+00  1.00800000E+00  1.60000000E+01  1.00800000E+00  1.00800000E+00
  1.60000000E+01  1.00800000E+00  1.00800000E+00  1.60000000E+01  1.00800000E+00
  1.00800000E+00  1.60000000E+01  1.00800000E+00  1.00800000E+00  1.60000000E+01
  1.00800000E+00  1.00800000E+00  1.60000000E+01  1.00800000E+00  1.00800000E+00
  1.60000000E+01  1.00800000E+00  1.00800000E+00  1.60000000E+01  1.00800000E+00
  1.00800000E+00  1.60000000E+01  1.00800000E+00  1.00800000E+00  1.60000000E+01
  1.00800000E+00  1.00800000E+00  1.60000000E+01  1.00800000E+00  1.00800000E+00
  1.60000000E+01  1.00800000E+00  1.00800000E+00  1.60000000E+01  1.00800000E+00
  1.00800000E+00  1.60000000E+01  1.00800000E+00  1.00800000E+00  1.60000000E+01
  1.00800000E+00  1.00800000E+00  1.60000000E+01  1.00800000E+00  1.00800000E+00
  1.60000000E+01  1.00800000E+00  1.00800000E+00  1.60000000E+01  1.00800000E+00
  1.00800000E+00  1.60000000E+01  1.00800000E+00  1.00800000E+00  1.60000000E+01
  1.00800000E+00  1.00800000E+00  1.60000000E+01  1.00800000E+00  1.00800000E+00
  1.60000000E+01  1.00800000E+00  1.00800000E+00  1.60000000E+01  1.00800000E+00
  1.00800000E+00  1.60000000E+01  1.00800000E+00  1.00800000E+00  1.60000000E+01
  1.00800000E+00  1.00800000E+00  1.60000000E+01  1.00800000E+00  1.00800000E+00
  1.60000000E+01  1.00800000E+00  1.00800000E+00  1.60000000E+01  1.00800000E+00
  1.00800000E+00  1.60000000E+01  1.00800000E+00  1.00800000E+00  1.60000000E+01
  1.00800000E+00  1.00800000E+00  1.60000000E+01  1.00800000E+00  1.00800000E+00
  1.60000000E+01  1.00800000E+00  1.00800000E+00  1.60000000E+01  1.00800000E+00
  1.00800000E+00  1.60000000E+01  1.00800000E+00  1.00800000E+00  1.60000000E+01
  1.00800000E+00  1.00800000E+00  1.60000000E+01  1.00800000E+00  1.00800000E+00
  1.60000000E+01  1.00800000E+00  1.00800000E+00  1.60000000E+01  1.00800000E+00
  1.00800000E+00  1.60000000E+01  1.00800000E+00  1.00800000E+00  1.60000000E+01
  1.00800000E+00  1.00800000E+00  1.60000000E+01  1.00800000E+00  1.00800000E+00
  1.60000000E+01  1.00800000E+00  1.00800000E+00  1.60000000E+01  1.00800000E+00
  1.00800000E+00  1.60000000E+01  1.00800000E+00  1.00800000E+00  1.60000000E+01
  1.00800000E+00  1.00800000E+00  1.60000000E+01  1.00800000E+00  1.00800000E+00
  1.60000000E+01  1.00800000E+00  1.00800000E+00  1.60000000E+01  1.00800000E+00
  1.00800000E+00  1.60000000E+01  1.00800000E+00  1.00800000E+00  1.60000000E+01
  1.00800000E+00  1.00800000E+00  1.60000000E+01  1.00800000E+00  1.00800000E+00
  1.60000000E+01  1.00800000E+00  1.00800000E+00  1.60000000E+01  1.00800000E+00
  1.00800000E+00  1.60000000E+01  1.00800000E+00  1.00800000E+00  1.60000000E+01
  1.00800000E+00  1.00800000E+00  1.60000000E+01  1.00800000E+00  1.00800000E+00
  1.60000000E+01  1.00800000E+00  1.00800000E+00  1.60000000E+01  1.00800000E+00
  1.00800000E+00  1.60000000E+01  1.00800000E+00  1.00800000E+00  1.60000000E+01
  1.00800000E+00  1.00800000E+00  1.60000000E+01  1.00800000E+00  1.00800000E+00
  1.60000000E+01  1.00800000E+00  1.00800000E+00  1.60000000E+01  1.00800000E+00
  1.00800000E+00  1.60000000E+01  1.00800000E+00  1.00800000E+00  1.60000000E+01
  1.00800000E+00  1.00800000E+00  1.60000000E+01  1.00800000E+00  1.00800000E+00
  1.60000000E+01  1.00800000E+00  1.00800000E+00  1.60000000E+01  1.00800000E+00
  1.00800000E+00  1.60000000E+01  1.00800000E+00  1.00800000E+00  1.60000000E+01
  1.00800000E+00  1.00800000E+00  1.60000000E+01  1.00800000E+00  1.00800000E+00
  1.60000000E+01  1.00800000E+00  1.00800000E+00  1.60000000E+01  1.00800000E+00
  1.00800000E+00  1.60000000E+01  1.00800000E+00  1.00800000E+00  1.60000000E+01
  1.00800000E+00  1.00800000E+00  1.60000000E+01  1.00800000E+00  1.00800000E+00
  1.60000000E+01  1.00800000E+00  1.00800000E+00  1.60000000E+01  1.00800000E+00
  1.00800000E+00  1.60000000E+01  1.00800000E+00  1.00800000E+00  1.60000000E+01
  1.00800000E+00  1.00800000E+00  1.60000000E+01  1.00800000E+00  1.00800000E+00
  1.60000000E+01  1.00800000E+00  1.00800000E+00  1.60000000E+01  1.00800000E+00
  1.00800000E+00  1.60000000E+01  1.00800000E+00  1.00800000E+00  1.60000000E+01
  1.00800000E+00  1.00800000E+00  1.60000000E+01  1.00800000E+00  1.00800000E+00
  1.60000000E+01  1.00800000E+00  1.00800000E+00  1.60000000E+01  1.00800000E+00
  1.00800000E+00  1.60000000E+01  1.00800000E+00  1.00800000E+00  1.60000000E+01
  1.00800000E+00  1.00800000E+00  1.60000000E+01  1.00800000E+00  1.00800000E+00
  1.60000000E+01  1.00800000E+00  1.00800000E+00  1.60000000E+01  1.00800000E+00
  1.00800000E+00  1.60000000E+01  1.00800000E+00  1.00800000E+00  1.60000000E+01
  1.00800000E+00  1.00800000E+00  1.60000000E+01  1.00800000E+00  1.00800000E+00
  1.60000000E+01  1.00800000E+00  1.00800000E+00  1.60000000E+01  1.00800000E+00
  1.00800000E+00  1.60000000E+01  1.00800000E+00  1.00800000E+00  1.60000000E+01
  1.00800000E+00  1.00800000E+00  1.60000000E+01  1.00800000E+00  1.00800000E+00
  1.60000000E+01  1.00800000E+00  1.00800000E+00  1.60000000E+01  1.00800000E+00
  1.00800000E+00  1.60000000E+01  1.00800000E+00  1.00800000E+00  1.60000000E+01
  1.00800000E+00  1.00800000E+00  1.60000000E+01  1.00800000E+00  1.00800000E+00
  1.60000000E+01  1.00800000E+00  1.00800000E+00  1.60000000E+01  1.00800000E+00
  1.00800000E+00  1.60000000E+01  1.00800000E+00  1.00800000E+00  1.60000000E+01
  1.00800000E+00  1.00800000E+00  1.60000000E+01  1.00800000E+00  1.00800000E+00
  1.60000000E+01  1.00800000E+00  1.00800000E+00  1.60000000E+01  1.00800000E+00
  1.00800000E+00  1.60000000E+01  1.00800000E+00  1.00800000E+00  1.60000000E+01
  1.00800000E+00  1.00800000E+00  1.60000000E+01  1.00800000E+00  1.00800000E+00
  1.60000000E+01  1.00800000E+00  1.00800000E+00  1.60000000E+01  1.00800000E+00
  1.00800000E+00  1.60000000E+01  1.00800000E+00  1.00800000E+00  1.60000000E+01
  1.00800000E+00  1.00800000E+00  1.60000000E+01  1.00800000E+00  1.00800000E+00
  1.60000000E+01  1.00800000E+00  1.00800000E+00  1.60000000E+01  1.00800000E+00
  1.00800000E+00  1.60000000E+01  1.00800000E+00  1.00800000E+00  1.60000000E+01
  1.00800000E+00  1.00800000E+00  1.60000000E+01  1.00800000E+00  1.00800000E+00
  1.60000000E+01  1.00800000E+00  1.00800000E+00  1.60000000E+01  1.00800000E+00
  1.00800000E+00  1.60000000E+01  1.00800000E+00  1.00800000E+00  1.60000000E+01
  1.00800000E+00  1.00800000E+00  1.60000000E+01  1.00800000E+00  1.00800000E+00
  1.60000000E+01  1.00800000E+00  1.00800000E+00  1.60000000E+01  1.00800000E+00
  1.00800000E+00  1.60000000E+01  1.00800000E+00  1.00800000E+00  1.60000000E+01
  1.00800000E+00  1.00800000E+00  1.60000000E+01  1.00800000E+00  1.00800000E+00
  1.60000000E+01  1.00800000E+00  1.00800000E+00  1.60000000E+01  1.00800000E+00
  1.00800000E+00  1.60000000E+01  1.00800000E+00  1.00800000E+00  1.60000000E+01
  1.00800000E+00  1.00800000E+00  1.60000000E+01  1.00800000E+00  1.00800000E+00
  1.60000000E+01  1.00800000E+00  1.00800000E+00  1.60000000E+01  1.00800000E+00
  1.00800000E+00  1.60000000E+01  1.00800000E+00  1.00800000E+00  1.60000000E+01
  1.00800000E+00  1.00800000E+00  1.60000000E+01  1.00800000E+00  1.00800000E+00
  1.60000000E+01  1.00800000E+00  1.00800000E+00  1.60000000E+01  1.00800000E+00
  1.00800000E+00  1.60000000E+01  1.00800000E+00  1.00800000E+00  1.60000000E+01
  1.00800000E+00  1.00800000E+00  1.60000000E+01  1.00800000E+00  1.00800000E+00
  1.60000000E+01  1.00800000E+00  1.00800000E+00  1.60000000E+01  1.00800000E+00
  1.00800000E+00  1.60000000E+01  1.00800000E+00  1.00800000E+00  1.60000000E+01
  1.00800000E+00  1.00800000E+00  1.60000000E+01  1.00800000E+00  1.00800000E+00
  1.60000000E+01  1.00800000E+00  1.00800000E+00  1.60000000E+01  1.00800000E+00
  1.00800000E+00  1.60000000E+01  1.00800000E+00  1.00800000E+00  1.60000000E+01
  1.00800000E+00  1.00800000E+00  1.60000000E+01  1.00800000E+00  1.00800000E+00
  1.60000000E+01  1.00800000E+00  1.00800000E+00  1.60000000E+01  1.00800000E+00
  1.00800000E+00  1.60000000E+01  1.00800000E+00  1.00800000E+00  1.60000000E+01
  1.00800000E+00  1.00800000E+00  1.60000000E+01  1.00800000E+00  1.00800000E+00
  1.60000000E+01  1.00800000E+00  1.00800000E+00  1.60000000E+01  1.00800000E+00
  1.00800000E+00  1.60000000E+01  1.00800000E+00  1.00800000E+00  1.60000000E+01
  1.00800000E+00  1.00800000E+00  1.60000000E+01  1.00800000E+00  1.00800000E+00
  1.60000000E+01  1.00800000E+00  1.00800000E+00  1.60000000E+01  1.00800000E+00
  1.00800000E+00  1.60000000E+01  1.00800000E+00  1.00800000E+00  1.60000000E+01
  1.00800000E+00  1.00800000E+00  1.60000000E+01  1.00800000E+00  1.00800000E+00
  1.60000000E+01  1.00800000E+00  1.00800000E+00  1.60000000E+01  1.00800000E+00
  1.00800000E+00  1.60000000E+01  1.00800000E+00  1.00800000E+00  1.60000000E+01
  1.00800000E+00  1.00800000E+00  1.60000000E+01  1.00800000E+00  1.00800000E+00
  1.60000000E+01  1.00800000E+00  1.00800000E+00  1.60000000E+01  1.00800000E+00
  1.00800000E+00  1.60000000E+01  1.00800000E+00  1.00800000E+00  1.60000000E+01
  1.00800000E+00  1.00800000E+00  1.60000000E+01  1.00800000E+00  1.00800000E+00
  1.60000000E+01  1.00800000E+00  1.00800000E+00  1.60000000E+01  1.00800000E+00
  1.00800000E+00  1.60000000E+01  1.00800000E+00  1.00800000E+00  1.60000000E+01
  1.00800000E+00  1.00800000E+00  1.60000000E+01  1.00800000E+00  1.00800000E+00
  1.60000000E+01  1.00800000E+00  1.00800000E+00  1.60000000E+01  1.00800000E+00
  1.00800000E+00  1.60000000E+01  1.00800000E+00  1.00800000E+00  1.60000000E+01
  1.00800000E+00  1.00800000E+00  1.60000000E+01  1.00800000E+00  1.00800000E+00
  1.60000000E+01  1.00800000E+00  1.00800000E+00  1.60000000E+01  1.00800000E+00
  1.00800000E+00  1.60000000E+01  1.00800000E+00  1.00800000E+00  1.60000000E+01
  1.00800000E+00  1.00800000E+00  1.60000000E+01  1.00800000E+00  1.00800000E+00
  1.60000000E+01  1.00800000E+00  1.00800000E+00  1.60000000E+01  1.00800000E+00
  1.00800000E+00  1.60000000E+01  1.00800000E+00  1.00800000E+00  1.60000000E+01
  1.00800000E+00  1.00800000E+00  1.60000000E+01  1.00800000E+00  1.00800000E+00
  1.60000000E+01  1.00800000E+00  1.00800000E+00  1.60000000E+01  1.00800000E+00
  1.00800000E+00  1.60000000E+01  1.00800000E+00  1.00800000E+00  1.60000000E+01
  1.00800000E+00  1.00800000E+00  1.60000000E+01  1.00800000E+00  1.00800000E+00
  1.60000000E+01  1.00800000E+00  1.00800000E+00  1.60000000E+01  1.00800000E+00
  1.00800000E+00  1.60000000E+01  1.00800000E+00  1.00800000E+00  1.60000000E+01
  1.00800000E+00  1.00800000E+00  1.60000000E+01  1.00800000E+00  1.00800000E+00
  1.60000000E+01  1.00800000E+00  1.00800000E+00  1.60000000E+01  1.00800000E+00
  1.00800000E+00  1.60000000E+01  1.00800000E+00  1.00800000E+00  1.60000000E+01
  1.00800000E+00  1.00800000E+00  1.60000000E+01  1.00800000E+00  1.00800000E+00
  1.60000000E+01  1.00800000E+00  1.00800000E+00  1.60000000E+01  1.00800000E+00
  1.00800000E+00  1.60000000E+01  1.00800000E+00  1.00800000E+00  1.60000000E+01
  1.00800000E+00  1.00800000E+00  1.60000000E+01  1.00800000E+00  1.00800000E+00
  1.60000000E+01  1.00800000E+00  1.00800000E+00  1.60000000E+01  1.00800000E+00
  1.00800000E+00  1.60000000E+01  1.00800000E+00  1.00800000E+00  1.60000000E+01
  1.00800000E+00  1.00800000E+00  1.60000000E+01  1.00800000E+00  1.00800000E+00
  1.60000000E+01  1.00800000E+00  1.00800000E+00  1.60000000E+01  1.00800000E+00
  1.00800000E+00  1.60000000E+01  1.00800000E+00  1.00800000E+00  1.60000000E+01
  1.00800000E+00  1.00800000E+00  1.60000000E+01  1.00800000E+00  1.00800000E+00
  1.60000000E+01  1.00800000E+00  1.00800000E+00  1.60000000E+01  1.00800000E+00
  1.00800000E+00  1.60000000E+01  1.00800000E+00  1.00800000E+00  1.60000000E+01
  1.00800000E+00  1.00800000E+00  1.60000000E+01  1.00800000E+00  1.00800000E+00
  1.60000000E+01  1.00800000E+00  1.00800000E+00  1.60000000E+01  1.00800000E+00
  1.00800000E+00  1.60000000E+01  1.00800000E+00  1.00800000E+00  1.60000000E+01
  1.00800000E+00  1.00800000E+00  1.60000000E+01  1.00800000E+00  1.00800000E+00
  1.60000000E+01  1.00800000E+00  1.00800000E+00  1.60000000E+01  1.00800000E+00
  1.00800000E+00  1.60000000E+01  1.00800000E+00  1.00800000E+00  1.60000000E+01
  1.00800000E+00  1.00800000E+00  1.60000000E+01  1.00800000E+00  1.00800000E+00
  1.60000000E+01  1.00800000E+00  1.00800000E+00  1.60000000E+01  1.00800000E+00
  1.00800000E+00  1.60000000E+01  1.00800000E+00  1.00800000E+00  1.60000000E+01
  1.00800000E+00  1.00800000E+00  1.60000000E+01  1.00800000E+00  1.00800000E+00
  1.60000000E+01  1.00800000E+00  1.00800000E+00  1.60000000E+01  1.00800000E+00
  1.00800000E+00  1.60000000E+01  1.00800000E+00  1.00800000E+00  1.60000000E+01
  1.00800000E+00  1.00800000E+00  1.60000000E+01  1.00800000E+00  1.00800000E+00
  1.60000000E+01  1.00800000E+00  1.00800000E+00  1.60000000E+01  1.00800000E+00
  1.00800000E+00  1.60000000E+01  1.00800000E+00  1.00800000E+00  1.60000000E+01
  1.00800000E+00  1.00800000E+00  1.60000000E+01  1.00800000E+00  1.00800000E+00
  1.60000000E+01  1.00800000E+00  1.00800000E+00  1.60000000E+01  1.00800000E+00
  1.00800000E+00  1.60000000E+01  1.00800000E+00  1.00800000E+00  1.60000000E+01
  1.00800000E+00  1.00800000E+00  1.60000000E+01  1.00800000E+00  1.00800000E+00
  1.60000000E+01  1.00800000E+00  1.00800000E+00  1.60000000E+01  1.00800000E+00
  1.00800000E+00  1.60000000E+01  1.00800000E+00  1.00800000E+00  1.60000000E+01
  1.00800000E+00  1.00800000E+00  1.60000000E+01  1.00800000E+00  1.00800000E+00
  1.60000000E+01  1.00800000E+00  1.00800000E+00  1.60000000E+01  1.00800000E+00
  1.00800000E+00  1.60000000E+01  1.00800000E+00  1.00800000E+00  1.60000000E+01
  1.00800000E+00  1.00800000E+00  1.60000000E+01  1.00800000E+00  1.00800000E+00
  1.60000000E+01  1.00800000E+00  1.00800000E+00  1.60000000E+01  1.00800000E+00
  1.00800000E+00  1.60000000E+01  1.00800000E+00  1.00800000E+00  1.60000000E+01
  1.00800000E+00  1.00800000E+00  1.60000000E+01  1.00800000E+00  1.00800000E+00
  1.60000000E+01  1.00800000E+00  1.00800000E+00  1.60000000E+01  1.00800000E+00
  1.00800000E+00  1.60000000E+01  1.00800000E+00  1.00800000E+00  1.60000000E+01
  1.00800000E+00  1.00800000E+00  1.60000000E+01  1.00800000E+00  1.00800000E+00
  1.60000000E+01  1.00800000E+00  1.00800000E+00  1.60000000E+01  1.00800000E+00
  1.00800000E+00  1.60000000E+01  1.00800000E+00  1.00800000E+00  1.60000000E+01
  1.00800000E+00  1.00800000E+00  1.60000000E+01  1.00800000E+00  1.00800000E+00
  1.60000000E+01  1.00800000E+00  1.00800000E+00  1.60000000E+01  1.00800000E+00
  1.00800000E+00  1.60000000E+01  1.00800000E+00  1.00800000E+00  1.60000000E+01
  1.00800000E+00  1.00800000E+00  1.60000000E+01  1.00800000E+00  1.00800000E+00
  1.60000000E+01  1.00800000E+00  1.00800000E+00  1.60000000E+01  1.00800000E+00
  1.00800000E+00  1.60000000E+01  1.00800000E+00  1.00800000E+00  1.60000000E+01
  1.00800000E+00  1.00800000E+00  1.60000000E+01  1.00800000E+00  1.00800000E+00
  1.60000000E+01  1.00800000E+00  1.00800000E+00  1.60000000E+01  1.00800000E+00
  1.00800000E+00  1.60000000E+01  1.00800000E+00  1.00800000E+00  1.60000000E+01
  1.00800000E+00  1.00800000E+00  1.60000000E+01  1.00800000E+00  1.00800000E+00
  1.60000000E+01  1.00800000E+00  1.00800000E+00  1.60000000E+01  1.00800000E+00
  1.00800000E+00  1.60000000E+01  1.00800000E+00  1.00800000E+00  1.60000000E+01
  1.00800000E+00  1.00800000E+00  1.60000000E+01  1.00800000E+00  1.00800000E+00
  1.60000000E+01  1.00800000E+00  1.00800000E+00  1.60000000E+01  1.00800000E+00
  1.00800000E+00  1.60000000E+01  1.00800000E+00  1.00800000E+00  1.60000000E+01
  1.00800000E+00  1.00800000E+00  1.60000000E+01  1.00800000E+00  1.00800000E+00
  1.60000000E+01  1.00800000E+00  1.00800000E+00  1.60000000E+01  1.00800000E+00
  1.00800000E+00  1.60000000E+01  1.00800000E+00  1.00800000E+00  1.60000000E+01
  1.00800000E+00  1.00800000E+00  1.60000000E+01  1.00800000E+00  1.00800000E+00
  1.60000000E+01  1.00800000E+00  1.00800000E+00  1.60000000E+01  1.00800000E+00
  1.00800000E+00  1.60000000E+01  1.00800000E+00  1.00800000E+00  1.60000000E+01
  1.00800000E+00  1.00800000E+00  1.60000000E+01  1.00800000E+00  1.00800000E+00
  1.60000000E+01  1.00800000E+00  1.00800000E+00  1.60000000E+01  1.00800000E+00
  1.00800000E+00  1.60000000E+01  1.00800000E+00  1.00800000E+00  1.60000000E+01
  1.00800000E+00  1.00800000E+00  1.60000000E+01  1.00800000E+00  1.00800000E+00
  1.60000000E+01  1.00800000E+00  1.00800000E+00  1.60000000E+01  1.00800000E+00
  1.00800000E+00  1.60000000E+01  1.00800000E+00  1.00800000E+00  1.60000000E+01
  1.00800000E+00  1.00800000E+00  1.60000000E+01  1.00800000E+00  1.00800000E+00
  1.60000000E+01  1.00800000E+00  1.00800000E+00  1.60000000E+01  1.00800000E+00
  1.00800000E+00  1.60000000E+01  1.00800000E+00  1.00800000E+00  1.60000000E+01
  1.00800000E+00  1.00800000E+00  1.60000000E+01  1.00800000E+00  1.00800000E+00
  1.60000000E+01  1.00800000E+00  1.00800000E+00  1.60000000E+01  1.00800000E+00
  1.00800000E+00  1.60000000E+01  1.00800000E+00  1.00800000E+00  1.60000000E+01
  1.00800000E+00  1.00800000E+00  1.60000000E+01  1.00800000E+00  1.00800000E+00
  1.60000000E+01  1.00800000E+00  1.00800000E+00  1.60000000E+01  1.00800000E+00
  1.00800000E+00  1.60000000E+01  1.00800000E+00  1.00800000E+00  1.60000000E+01
  1.00800000E+00  1.00800000E+00  1.60000000E+01  1.00800000E+00  1.00800000E+00
  1.60000000E+01  1.00800000E+00  1.00800000E+00  1.60000000E+01  1.00800000E+00
  1.00800000E+00  1.60000000E+01  1.00800000E+00  1.00800000E+00  1.60000000E+01
  1.00800000E+00  1.00800000E+00  1.60000000E+01  1.00800000E+00  1.00800000E+00
  1.60000000E+01  1.00800000E+00  1.00800000E+00  1.60000000E+01  1.00800000E+00
  1.00800000E+00  1.60000000E+01  1.00800000E+00  1.00800000E+00  1.60000000E+01
  1.00800000E+00  1.00800000E+00  1.60000000E+01  1.00800000E+00  1.00800000E+00
  1.60000000E+01  1.00800000E+00  1.00800000E+00  1.60000000E+01  1.00800000E+00
  1.00800000E+00  1.60000000E+01  1.00800000E+00  1.00800000E+00  1.60000000E+01
  1.00800000E+00  1.00800000E+00  1.60000000E+01  1.00800000E+00  1.00800000E+00
  1.60000000E+01  1.00800000E+00  1.00800000E+00  1.60000000E+01  1.00800000E+00
  1.00800000E+00  1.60000000E+01  1.00800000E+00  1.00800000E+00  1.60000000E+01
  1.00800000E+00  1.00800000E+00  1.60000000E+01  1.00800000E+00  1.00800000E+00
  1.60000000E+01  1.00800000E+00  1.00800000E+00  1.60000000E+01  1.00800000E+00
  1.00800000E+00  1.60000000E+01  1.00800000E+00  1.00800000E+00  1.60000000E+01
  1.00800000E+00  1.00800000E+00  1.60000000E+01  1.00800000E+00  1.00800000E+00
  1.60000000E+01  1.00800000E+00  1.00800000E+00  1.60000000E+01  1.00800000E+00
  1.00800000E+00  1.60000000E+01  1.00800000E+00  1.00800000E+00  1.60000000E+01
  1.00800000E+00  1.00800000E+00  1.60000000E+01  1.00800000E+00  1.00800000E+00
  1.60000000E+01  1.00800000E+00  1.00800000E+00  1.60000000E+01  1.00800000E+00
  1.00800000E+00  1.60000000E+01  1.00800000E+00  1.00800000E+00  1.60000000E+01
  1.00800000E+00  1.00800000E+00  1.60000000E+01  1.00800000E+00  1.00800000E+00
  1.60000000E+01  1.00800000E+00  1.00800000E+00  1.60000000E+01  1.00800000E+00
  1.00800000E+00  1.60000000E+01  1.00800000E+00  1.00800000E+00  1.60000000E+01
  1.00800000E+00  1.00800000E+00  1.60000000E+01  1.00800000E+00  1.00800000E+00
  1.60000000E+01  1.00800000E+00  1.00800000E+00  1.60000000E+01  1.00800000E+00
  1.00800000E+00  1.60000000E+01  1.00800000E+00  1.00800000E+00  1.60000000E+01
  1.00800000E+00  1.00800000E+00  1.60000000E+01  1.00800000E+00  1.00800000E+00
  1.60000000E+01  1.00800000E+00  1.00800000E+00  1.60000000E+01  1.00800000E+00
  1.00800000E+00  1.60000000E+01  1.00800000E+00  1.00800000E+00  1.60000000E+01
  1.00800000E+00  1.00800000E+00  1.60000000E+01  1.00800000E+00  1.00800000E+00
  1.60000000E+01  1.00800000E+00  1.00800000E+00  1.60000000E+01  1.00800000E+00
  1.00800000E+00  1.60000000E+01  1.00800000E+00  1.00800000E+00  1.60000000E+01
  1.00800000E+00  1.00800000E+00  1.60000000E+01  1.00800000E+00  1.00800000E+00
  1.60000000E+01  1.00800000E+00  1.00800000E+00  1.60000000E+01  1.00800000E+00
  1.00800000E+00  1.60000000E+01  1.00800000E+00  1.00800000E+00  1.60000000E+01
  1.00800000E+00  1.00800000E+00  1.60000000E+01  1.00800000E+00  1.00800000E+00
  1.60000000E+01  1.00800000E+00  1.00800000E+00  1.60000000E+01  1.00800000E+00
  1.00800000E+00  1.60000000E+01  1.00800000E+00  1.00800000E+00  1.60000000E+01
  1.00800000E+00  1.00800000E+00  1.60000000E+01  1.00800000E+00  1.00800000E+00
  1.60000000E+01  1.00800000E+00  1.00800000E+00  1.60000000E+01  1.00800000E+00
  1.00800000E+00  1.60000000E+01  1.00800000E+00  1.00800000E+00  1.60000000E+01
  1.00800000E+00  1.00800000E+00  1.60000000E+01  1.00800000E+00  1.00800000E+00
  1.60000000E+01  1.00800000E+00  1.00800000E+00  1.60000000E+01  1.00800000E+00
  1.00800000E+00  1.60000000E+01  1.00800000E+00  1.00800000E+00  1.60000000E+01
  1.00800000E+00  1.00800000E+00  1.60000000E+01  1.00800000E+00  1.00800000E+00
  1.60000000E+01  1.00800000E+00  1.00800000E+00  1.60000000E+01  1.00800000E+00
  1.00800000E+00  1.60000000E+01  1.00800000E+00  1.00800000E+00  1.60000000E+01
  1.00800000E+00  1.00800000E+00  1.60000000E+01  1.00800000E+00  1.00800000E+00
  1.60000000E+01  1.00800000E+00  1.00800000E+00  1.60000000E+01  1.00800000E+00
  1.00800000E+00  1.60000000E+01  1.00800000E+00  1.00800000E+00  1.60000000E+01
  1.00800000E+00  1.00800000E+00  1.60000000E+01  1.00800000E+00  1.00800000E+00
  1.60000000E+01  1.00800000E+00  1.00800000E+00  1.60000000E+01  1.00800000E+00
  1.00800000E+00  1.60000000E+01  1.00800000E+00  1.00800000E+00  1.60000000E+01
  1.00800000E+00  1.00800000E+00  1.60000000E+01  1.00800000E+00  1.00800000E+00
  1.60000000E+01  1.00800000E+00  1.00800000E+00  1.60000000E+01  1.00800000E+00
  1.00800000E+00  1.60000000E+01  1.00800000E+00  1.00800000E+00  1.60000000E+01
  1.00800000E+00  1.00800000E+00  1.60000000E+01  1.00800000E+00  1.00800000E+00
  1.60000000E+01  1.00800000E+00  1.00800000E+00  1.60000000E+01  1.00800000E+00
  1.00800000E+00  1.60000000E+01  1.00800000E+00  1.00800000E+00  1.60000000E+01
  1.00800000E+00  1.00800000E+00  1.60000000E+01  1.00800000E+00  1.00800000E+00
  1.60000000E+01  1.00800000E+00  1.00800000E+00  1.60000000E+01  1.00800000E+00
  1.00800000E+00  1.60000000E+01  1.00800000E+00  1.00800000E+00  1.60000000E+01
  1.00800000E+00  1.00800000E+00  1.60000000E+01  1.00800000E+00  1.00800000E+00
  1.60000000E+01  1.00800000E+00  1.00800000E+00  1.60000000E+01  1.00800000E+00
  1.00800000E+00  1.60000000E+01  1.00800000E+00  1.00800000E+00  1.60000000E+01
  1.00800000E+00  1.00800000E+00  1.60000000E+01  1.00800000E+00  1.00800000E+00
  1.60000000E+01  1.00800000E+00  1.00800000E+00  1.60000000E+01  1.00800000E+00
  1.00800000E+00  1.60000000E+01  1.00800000E+00  1.00800000E+00  1.60000000E+01
  1.00800000E+00  1.00800000E+00  1.60000000E+01  1.00800000E+00  1.00800000E+00
  1.60000000E+01  1.00800000E+00  1.00800000E+00  1.60000000E+01  1.00800000E+00
  1.00800000E+00  1.60000000E+01  1.00800000E+00  1.00800000E+00  1.60000000E+01
  1.00800000E+00  1.00800000E+00  1.60000000E+01  1.00800000E+00  1.00800000E+00
  1.60000000E+01  1.00800000E+00  1.00800000E+00  1.60000000E+01  1.00800000E+00
  1.00800000E+00  1.60000000E+01  1.00800000E+00  1.00800000E+00  1.60000000E+01
  1.00800000E+00  1.00800000E+00  1.60000000E+01  1.00800000E+00  1.00800000E+00
  1.60000000E+01  1.00800000E+00  1.00800000E+00  1.60000000E+01  1.00800000E+00
  1.00800000E+00  1.60000000E+01  1.00800000E+00  1.00800000E+00  1.60000000E+01
  1.00800000E+00  1.00800000E+00  1.60000000E+01  1.00800000E+00  1.00800000E+00
  1.60000000E+01  1.00800000E+00  1.00800000E+00  1.60000000E+01  1.00800000E+00
  1.00800000E+00  1.60000000E+01  1.00800000E+00  1.00800000E+00  1.60000000E+01
  1.00800000E+00  1.00800000E+00  1.60000000E+01  1.00800000E+00  1.00800000E+00
  1.60000000E+01  1.00800000E+00  1.00800000E+00  1.60000000E+01  1.00800000E+00
  1.00800000E+00  1.60000000E+01  1.00800000E+00  1.00800000E+00  1.60000000E+01
  1.00800000E+00  1.00800000E+00  1.60000000E+01  1.00800000E+00  1.00800000E+00
  1.60000000E+01  1.00800000E+00  1.00800000E+00  1.60000000E+01  1.00800000E+00
  1.00800000E+00  1.60000000E+01  1.00800000E+00  1.00800000E+00  1.60000000E+01
  1.00800000E+00  1.00800000E+00  1.60000000E+01  1.00800000E+00  1.00800000E+00
  1.60000000E+01  1.00800000E+00  1.00800000E+00  1.60000000E+01  1.00800000E+00
  1.00800000E+00  1.60000000E+01  1.00800000E+00  1.00800000E+00  1.60000000E+01
  1.00800000E+00  1.00800000E+00  1.60000000E+01  1.00800000E+00  1.00800000E+00
  1.60000000E+01  1.00800000E+00  1.00800000E+00  1.60000000E+01  1.00800000E+00
  1.00800000E+00  1.60000000E+01  1.00800000E+00  1.00800000E+00  1.60000000E+01
  1.00800000E+00  1.00800000E+00  1.60000000E+01  1.00800000E+00  1.00800000E+00
  1.60000000E+01  1.00800000E+00  1.00800000E+00  1.60000000E+01  1.00800000E+00
  1.00800000E+00  1.60000000E+01  1.00800000E+00  1.00800000E+00  1.60000000E+01
  1.00800000E+00  1.00800000E+00  1.60000000E+01  1.00800000E+00  1.00800000E+00
  1.60000000E+01  1.00800000E+00  1.00800000E+00  1.60000000E+01  1.00800000E+00
  1.00800000E+00  1.60000000E+01  1.00800000E+00  1.00800000E+00  1.60000000E+01
  1.00800000E+00  1.00800000E+00  1.60000000E+01  1.00800000E+00  1.00800000E+00
  1.60000000E+01  1.00800000E+00  1.00800000E+00  1.60000000E+01  1.00800000E+00
  1.00800000E+00  1.60000000E+01  1.00800000E+00  1.00800000E+00  1.60000000E+01
  1.00800000E+00  1.00800000E+00  1.60000000E+01  1.00800000E+00  1.00800000E+00
  1.60000000E+01  1.00800000E+00  1.00800000E+00  1.60000000E+01  1.00800000E+00
  1.00800000E+00  1.60000000E+01  1.00800000E+00  1.00800000E+00  1.60000000E+01
  1.00800000E+00  1.00800000E+00  1.60000000E+01  1.00800000E+00  1.00800000E+00
  1.60000000E+01  1.00800000E+00  1.00800000E+00  1.60000000E+01  1.00800000E+00
  1.00800000E+00  1.60000000E+01  1.00800000E+00  1.00800000E+00  1.60000000E+01
  1.00800000E+00  1.00800000E+00  1.60000000E+01  1.00800000E+00  1.00800000E+00
  1.60000000E+01  1.00800000E+00  1.00800000E+00  1.60000000E+01  1.00800000E+00
  1.00800000E+00  1.60000000E+01  1.00800000E+00  1.00800000E+00  1.60000000E+01
  1.00800000E+00  1.00800000E+00  1.60000000E+01  1.00800000E+00  1.00800000E+00
  1.60000000E+01  1.00800000E+00  1.00800000E+00  1.60000000E+01  1.00800000E+00
  1.00800000E+00  1.60000000E+01  1.00800000E+00  1.00800000E+00  1.60000000E+01
  1.00800000E+00  1.00800000E+00  1.60000000E+01  1.00800000E+00  1.00800000E+00
  1.60000000E+01  1.00800000E+00  1.00800000E+00  1.60000000E+01  1.00800000E+00
  1.00800000E+00  1.60000000E+01  1.00800000E+00  1.00800000E+00  1.60000000E+01
  1.00800000E+00  1.00800000E+00  1.60000000E+01  1.00800000E+00  1.00800000E+00
  1.60000000E+01  1.00800000E+00  1.00800000E+00  1.60000000E+01  1.00800000E+00
  1.00800000E+00  1.60000000E+01  1.00800000E+00  1.00800000E+00  1.60000000E+01
  1.00800000E+00  1.00800000E+00  1.60000000E+01  1.00800000E+00  1.00800000E+00
  1.60000000E+01  1.00800000E+00  1.00800000E+00  1.60000000E+01  1.00800000E+00
  1.00800000E+00  1.60000000E+01  1.00800000E+00  1.00800000E+00  1.60000000E+01
  1.00800000E+00  1.00800000E+00  1.60000000E+01  1.00800000E+00  1.00800000E+00
  1.60000000E+01  1.00800000E+00  1.00800000E+00  1.60000000E+01  1.00800000E+00
  1.00800000E+00  1.60000000E+01  1.00800000E+00  1.00800000E+00  1.60000000E+01
  1.00800000E+00  1.00800000E+00  1.60000000E+01  1.00800000E+00  1.00800000E+00
  1.60000000E+01  1.00800000E+00  1.00800000E+00  1.60000000E+01  1.00800000E+00
  1.00800000E+00  1.60000000E+01  1.00800000E+00  1.00800000E+00  1.60000000E+01
  1.00800000E+00  1.00800000E+00  1.60000000E+01  1.00800000E+00  1.00800000E+00
  1.60000000E+01  1.00800000E+00  1.00800000E+00  1.60000000E+01  1.00800000E+00
  1.00800000E+00  1.60000000E+01  1.00800000E+00  1.00800000E+00  1.60000000E+01
  1.00800000E+00  1.00800000E+00  1.60000000E+01  1.00800000E+00  1.00800000E+00
  1.60000000E+01  1.00800000E+00  1.00800000E+00  1.60000000E+01  1.00800000E+00
  1.00800000E+00  1.60000000E+01  1.00800000E+00  1.00800000E+00  1.60000000E+01
  1.00800000E+00  1.00800000E+00  1.60000000E+01  1.00800000E+00  1.00800000E+00
  1.60000000E+01  1.00800000E+00  1.00800000E+00  1.60000000E+01  1.00800000E+00
  1.00800000E+00  1.60000000E+01  1.00800000E+00  1.00800000E+00  1.60000000E+01
  1.00800000E+00  1.00800000E+00  1.60000000E+01  1.00800000E+00  1.00800000E+00
  1.60000000E+01  1.00800000E+00  1.00800000E+00  1.60000000E+01  1.00800000E+00
  1.00800000E+00  1.60000000E+01  1.00800000E+00  1.00800000E+00  1.60000000E+01
  1.00800000E+00  1.00800000E+00  1.60000000E+01  1.00800000E+00  1.00800000E+00
  1.60000000E+01  1.00800000E+00  1.00800000E+00  1.60000000E+01  1.00800000E+00
  1.00800000E+00  1.60000000E+01  1.00800000E+00  1.00800000E+00  1.60000000E+01
  1.00800000E+00  1.00800000E+00  1.60000000E+01  1.00800000E+00  1.00800000E+00
  1.60000000E+01  1.00800000E+00  1.00800000E+00  1.60000000E+01  1.00800000E+00
  1.00800000E+00  1.60000000E+01  1.00800000E+00  1.00800000E+00  1.60000000E+01
  1.00800000E+00  1.00800000E+00  1.60000000E+01  1.00800000E+00  1.00800000E+00
  1.60000000E+01  1.00800000E+00  1.00800000E+00  1.60000000E+01  1.00800000E+00
  1.00800000E+00  1.60000000E+01  1.00800000E+00  1.00800000E+00  1.60000000E+01
  1.00800000E+00  1.00800000E+00  1.60000000E+01  1.00800000E+00  1.00800000E+00
  1.60000000E+01  1.00800000E+00  1.00800000E+00  1.60000000E+01  1.00800000E+00
  1.00800000E+00  1.60000000E+01  1.00800000E+00  1.00800000E+00  1.60000000E+01
  1.00800000E+00  1.00800000E+00  1.60000000E+01  1.00800000E+00  1.00800000E+00
  1.60000000E+01  1.00800000E+00  1.00800000E+00  1.60000000E+01  1.00800000E+00
  1.00800000E+00  1.60000000E+01  1.00800000E+00  1.00800000E+00  1.60000000E+01
  1.00800000E+00  1.00800000E+00  1.60000000E+01  1.00800000E+00  1.00800000E+00
  1.60000000E+01  1.00800000E+00  1.00800000E+00  1.60000000E+01  1.00800000E+00
  1.00800000E+00  1.60000000E+01  1.00800000E+00  1.00800000E+00  1.60000000E+01
  1.00800000E+00  1.00800000E+00  1.60000000E+01  1.00800000E+00  1.00800000E+00
  1.60000000E+01  1.00800000E+00  1.00800000E+00  1.60000000E+01  1.00800000E+00
  1.00800000E+00  1.60000000E+01  1.00800000E+00  1.00800000E+00  1.60000000E+01
  1.00800000E+00  1.00800000E+00  1.60000000E+01  1.00800000E+00  1.00800000E+00
  1.60000000E+01  1.00800000E+00  1.00800000E+00  1.60000000E+01  1.00800000E+00
  1.00800000E+00  1.60000000E+01  1.00800000E+00  1.00800000E+00  1.60000000E+01
  1.00800000E+00  1.00800000E+00  1.60000000E+01  1.00800000E+00  1.00800000E+00
  1.60000000E+01  1.00800000E+00  1.00800000E+00  1.60000000E+01  1.00800000E+00
  1.00800000E+00  1.60000000E+01  1.00800000E+00  1.00800000E+00  1.60000000E+01
  1.00800000E+00  1.00800000E+00  1.60000000E+01  1.00800000E+00  1.00800000E+00
  1.60000000E+01  1.00800000E+00  1.00800000E+00  1.60000000E+01  1.00800000E+00
  1.00800000E+00  1.60000000E+01  1.00800000E+00  1.00800000E+00  1.60000000E+01
  1.00800000E+00  1.00800000E+00  1.60000000E+01  1.00800000E+00  1.00800000E+00
  1.60000000E+01  1.00800000E+00  1.00800000E+00  1.60000000E+01  1.00800000E+00
  1.00800000E+00  1.60000000E+01  1.00800000E+00  1.00800000E+00  1.60000000E+01
  1.00800000E+00  1.00800000E+00  1.60000000E+01  1.00800000E+00  1.00800000E+00
  1.60000000E+01  1.00800000E+00  1.00800000E+00  1.60000000E+01  1.00800000E+00
  1.00800000E+00  1.60000000E+01  1.00800000E+00  1.00800000E+00  1.60000000E+01
  1.00800000E+00  1.00800000E+00  1.60000000E+01  1.00800000E+00  1.00800000E+00
  1.60000000E+01  1.00800000E+00  1.00800000E+00  1.60000000E+01  1.00800000E+00
  1.00800000E+00  1.60000000E+01  1.00800000E+00  1.00800000E+00  1.60000000E+01
  1.00800000E+00  1.00800000E+00  1.60000000E+01  1.00800000E+00  1.00800000E+00
  1.60000000E+01  1.00800000E+00  1.00800000E+00  1.60000000E+01  1.00800000E+00
  1.00800000E+00  1.60000000E+01  1.00800000E+00  1.00800000E+00  1.60000000E+01
  1.00800000E+00  1.00800000E+00  1.60000000E+01  1.00800000E+00  1.00800000E+00
  1.60000000E+01  1.00800000E+00  1.00800000E+00  1.60000000E+01  1.00800000E+00
  1.00800000E+00  1.60000000E+01  1.00800000E+00  1.00800000E+00  1.60000000E+01
  1.00800000E+00  1.00800000E+00  1.60000000E+01  1.00800000E+00  1.00800000E+00
  1.60000000E+01  1.00800000E+00  1.00800000E+00  1.60000000E+01  1.00800000E+00
  1.00800000E+00  1.60000000E+01  1.00800000E+00  1.00800000E+00  1.60000000E+01
  1.00800000E+00  1.00800000E+00  1.60000000E+01  1.00800000E+00  1.00800000E+00
  1.60000000E+01  1.00800000E+00  1.00800000E+00  1.60000000E+01  1.00800000E+00
  1.00800000E+00  1.60000000E+01  1.00800000E+00  1.00800000E+00  1.60000000E+01
  1.00800000E+00  1.00800000E+00  1.60000000E+01  1.00800000E+00  1.00800000E+00
  1.60000000E+01  1.00800000E+00  1.00800000E+00  1.60000000E+01  1.00800000E+00
  1.00800000E+00  1.60000000E+01  1.00800000E+00  1.00800000E+00  1.60000000E+01
  1.00800000E+00  1.00800000E+00  1.60000000E+01  1.00800000E+00  1.00800000E+00
  1.60000000E+01  1.00800000E+00  1.00800000E+00  1.60000000E+01  1.00800000E+00
  1.00800000E+00  1.60000000E+01  1.00800000E+00  1.00800000E+00  1.60000000E+01
  1.00800000E+00  1.00800000E+00  1.60000000E+01  1.00800000E+00  1.00800000E+00
  1.60000000E+01  1.00800000E+00  1.00800000E+00  1.60000000E+01  1.00800000E+00
  1.00800000E+00  1.60000000E+01  1.00800000E+00  1.00800000E+00  1.60000000E+01
  1.00800000E+00  1.00800000E+00  1.60000000E+01  1.00800000E+00  1.00800000E+00
  1.60000000E+01  1.00800000E+00  1.00800000E+00  1.60000000E+01  1.00800000E+00
  1.00800000E+00  1.60000000E+01  1.00800000E+00  1.00800000E+00  1.60000000E+01
  1.00800000E+00  1.00800000E+00  1.60000000E+01  1.00800000E+00  1.00800000E+00
  1.60000000E+01  1.00800000E+00  1.00800000E+00  1.60000000E+01  1.00800000E+00
  1.00800000E+00  1.60000000E+01  1.00800000E+00  1.00800000E+00  1.60000000E+01
  1.00800000E+00  1.00800000E+00  1.60000000E+01  1.00800000E+00  1.00800000E+00
  1.60000000E+01  1.00800000E+00  1.00800000E+00  1.60000000E+01  1.00800000E+00
  1.00800000E+00  1.60000000E+01  1.00800000E+00  1.00800000E+00  1.60000000E+01
  1.00800000E+00  1.00800000E+00  1.60000000E+01  1.00800000E+00  1.00800000E+00
  1.60000000E+01  1.00800000E+00  1.00800000E+00  1.60000000E+01  1.00800000E+00
  1.00800000E+00  1.60000000E+01  1.00800000E+00  1.00800000E+00  1.60000000E+01
  1.00800000E+00  1.00800000E+00  1.60000000E+01  1.00800000E+00  1.00800000E+00
  1.60000000E+01  1.00800000E+00  1.00800000E+00  1.60000000E+01  1.00800000E+00
  1.00800000E+00  1.60000000E+01  1.00800000E+00  1.00800000E+00  1.60000000E+01
  1.00800000E+00  1.00800000E+00  1.60000000E+01  1.00800000E+00  1.00800000E+00
  1.60000000E+01  1.00800000E+00  1.00800000E+00  1.60000000E+01  1.00800000E+00
  1.00800000E+00  1.60000000E+01  1.00800000E+00  1.00800000E+00  1.60000000E+01
  1.00800000E+00  1.00800000E+00  1.60000000E+01  1.00800000E+00  1.00800000E+00
  1.60000000E+01  1.00800000E+00  1.00800000E+00  1.60000000E+01  1.00800000E+00
  1.00800000E+00  1.60000000E+01  1.00800000E+00  1.00800000E+00  1.60000000E+01
  1.00800000E+00  1.00800000E+00  1.60000000E+01  1.00800000E+00  1.00800000E+00
  1.60000000E+01  1.00800000E+00  1.00800000E+00  1.60000000E+01  1.00800000E+00
  1.00800000E+00  1.60000000E+01  1.00800000E+00  1.00800000E+00  1.60000000E+01
  1.00800000E+00  1.00800000E+00  1.60000000E+01  1.00800000E+00  1.00800000E+00
  1.60000000E+01  1.00800000E+00  1.00800000E+00  1.60000000E+01  1.00800000E+00
  1.00800000E+00  1.60000000E+01  1.00800000E+00  1.00800000E+00  1.60000000E+01
  1.00800000E+00  1.00800000E+00  1.60000000E+01  1.00800000E+00  1.00800000E+00
  1.60000000E+01  1.00800000E+00  1.00800000E+00  1.60000000E+01  1.00800000E+00
  1.00800000E+00  1.60000000E+01  1.00800000E+00  1.00800000E+00  1.60000000E+01
  1.00800000E+00  1.00800000E+00  1.60000000E+01  1.00800000E+00  1.00800000E+00
  1.60000000E+01  1.00800000E+00  1.00800000E+00  1.60000000E+01  1.00800000E+00
  1.00800000E+00  1.60000000E+01  1.00800000E+00  1.00800000E+00  1.60000000E+01
  1.00800000E+00  1.00800000E+00  1.60000000E+01  1.00800000E+00  1.00800000E+00
  1.60000000E+01  1.00800000E+00  1.00800000E+00  1.60000000E+01  1.00800000E+00
  1.00800000E+00  1.60000000E+01  1.00800000E+00  1.00800000E+00  1.60000000E+01
  1.00800000E+00  1.00800000E+00  1.60000000E+01  1.00800000E+00  1.00800000E+00
  1.60000000E+01  1.00800000E+00  1.00800000E+00  1.60000000E+01  1.00800000E+00
  1.00800000E+00  1.60000000E+01  1.00800000E+00  1.00800000E+00  1.60000000E+01
  1.00800000E+00  1.00800000E+00  1.60000000E+01  1.00800000E+00  1.00800000E+00
  1.60000000E+01  1.00800000E+00  1.00800000E+00  1.60000000E+01  1.00800000E+00
  1.00800000E+00  1.60000000E+01  1.00800000E+00  1.00800000E+00  1.60000000E+01
  1.00800000E+00  1.00800000E+00  1.60000000E+01  1.00800000E+00  1.00800000E+00
  1.60000000E+01  1.00800000E+00  1.00800000E+00  1.60000000E+01  1.00800000E+00
  1.00800000E+00  1.60000000E+01  1.00800000E+00  1.00800000E+00  1.60000000E+01
  1.00800000E+00  1.00800000E+00  1.60000000E+01  1.00800000E+00  1.00800000E+00
  1.60000000E+01  1.00800000E+00  1.00800000E+00  1.60000000E+01  1.00800000E+00
  1.00800000E+00  1.60000000E+01  1.00800000E+00  1.00800000E+00  1.60000000E+01
  1.00800000E+00  1.00800000E+00  1.60000000E+01  1.00800000E+00  1.00800000E+00
  1.60000000E+01  1.00800000E+00  1.00800000E+00  1.60000000E+01  1.00800000E+00
  1.00800000E+00  1.60000000E+01  1.00800000E+00  1.00800000E+00  1.60000000E+01
  1.00800000E+00  1.00800000E+00  1.60000000E+01  1.00800000E+00  1.00800000E+00
  1.60000000E+01  1.00800000E+00  1.00800000E+00  1.60000000E+01  1.00800000E+00
  1.00800000E+00  1.60000000E+01  1.00800000E+00  1.00800000E+00  1.60000000E+01
  1.00800000E+00  1.00800000E+00  1.60000000E+01  1.00800000E+00  1.00800000E+00
  1.60000000E+01  1.00800000E+00  1.00800000E+00  1.60000000E+01  1.00800000E+00
  1.00800000E+00  1.60000000E+01  1.00800000E+00  1.00800000E+00  1.60000000E+01
  1.00800000E+00  1.00800000E+00  1.60000000E+01  1.00800000E+00  1.00800000E+00
  1.60000000E+01  1.00800000E+00  1.00800000E+00  1.60000000E+01  1.00800000E+00
  1.00800000E+00  1.60000000E+01  1.00800000E+00  1.00800000E+00  1.60000000E+01
  1.00800000E+00  1.00800000E+00  1.60000000E+01  1.00800000E+00  1.00800000E+00
  1.60000000E+01  1.00800000E+00  1.00800000E+00  1.60000000E+01  1.00800000E+00
  1.00800000E+00  1.60000000E+01  1.00800000E+00  1.00800000E+00  1.60000000E+01
  1.00800000E+00  1.00800000E+00  1.60000000E+01  1.00800000E+00  1.00800000E+00
  1.60000000E+01  1.00800000E+00  1.00800000E+00  1.60000000E+01  1.00800000E+00
  1.00800000E+00  1.60000000E+01  1.00800000E+00  1.00800000E+00  1.60000000E+01
  1.00800000E+00  1.00800000E+00  1.60000000E+01  1.00800000E+00  1.00800000E+00
  1.60000000E+01  1.00800000E+00  1.00800000E+00  1.60000000E+01  1.00800000E+00
  1.00800000E+00  1.60000000E+01  1.00800000E+00  1.00800000E+00  1.60000000E+01
  1.00800000E+00  1.00800000E+00  1.60000000E+01  1.00800000E+00  1.00800000E+00
  1.60000000E+01  1.00800000E+00  1.00800000E+00  1.60000000E+01  1.00800000E+00
  1.00800000E+00  1.60000000E+01  1.00800000E+00  1.00800000E+00  1.60000000E+01
  1.00800000E+00  1.00800000E+00  1.60000000E+01  1.00800000E+00  1.00800000E+00
  1.60000000E+01  1.00800000E+00  1.00800000E+00  1.60000000E+01  1.00800000E+00
  1.00800000E+00  1.60000000E+01  1.00800000E+00  1.00800000E+00  1.60000000E+01
  1.00800000E+00  1.00800000E+00  1.60000000E+01  1.00800000E+00  1.00800000E+00
  1.60000000E+01  1.00800000E+00  1.00800000E+00  1.60000000E+01  1.00800000E+00
  1.00800000E+00  1.60000000E+01  1.00800000E+00  1.00800000E+00  1.60000000E+01
  1.00800000E+00  1.00800000E+00  1.60000000E+01  1.00800000E+00  1.00800000E+00
  1.60000000E+01  1.00800000E+00  1.00800000E+00  1.60000000E+01  1.00800000E+00
  1.00800000E+00  1.60000000E+01  1.00800000E+00  1.00800000E+00  1.60000000E+01
  1.00800000E+00  1.00800000E+00  1.60000000E+01  1.00800000E+00  1.00800000E+00
  1.60000000E+01  1.00800000E+00  1.00800000E+00  1.60000000E+01  1.00800000E+00
  1.00800000E+00  1.60000000E+01  1.00800000E+00  1.00800000E+00  1.60000000E+01
  1.00800000E+00  1.00800000E+00  1.60000000E+01  1.00800000E+00  1.00800000E+00
  1.60000000E+01  1.00800000E+00  1.00800000E+00  1.60000000E+01  1.00800000E+00
  1.00800000E+00  1.60000000E+01  1.00800000E+00  1.00800000E+00  1.60000000E+01
  1.00800000E+00  1.00800000E+00  1.60000000E+01  1.00800000E+00  1.00800000E+00
  1.60000000E+01  1.00800000E+00  1.00800000E+00  1.60000000E+01  1.00800000E+00
  1.00800000E+00  1.60000000E+01  1.00800000E+00  1.00800000E+00  1.60000000E+01
  1.00800000E+00  1.00800000E+00  1.60000000E+01  1.00800000E+00  1.00800000E+00
  1.60000000E+01  1.00800000E+00  1.00800000E+00  1.60000000E+01  1.00800000E+00
  1.00800000E+00  1.60000000E+01  1.00800000E+00  1.00800000E+00  1.60000000E+01
  1.00800000E+00  1.00800000E+00  1.60000000E+01  1.00800000E+00  1.00800000E+00
  1.60000000E+01  1.00800000E+00  1.00800000E+00  1.60000000E+01  1.00800000E+00
  1.00800000E+00  1.60000000E+01  1.00800000E+00  1.00800000E+00  1.60000000E+01
  1.00800000E+00  1.00800000E+00  1.60000000E+01  1.00800000E+00  1.00800000E+00
  1.60000000E+01  1.00800000E+00  1.00800000E+00  1.60000000E+01  1.00800000E+00
  1.00800000E+00  1.60000000E+01  1.00800000E+00  1.00800000E+00  1.60000000E+01
  1.00800000E+00  1.00800000E+00  1.60000000E+01  1.00800000E+00  1.00800000E+00
  1.60000000E+01  1.00800000E+00  1.00800000E+00  1.60000000E+01  1.00800000E+00
  1.00800000E+00  1.60000000E+01  1.00800000E+00  1.00800000E+00  1.60000000E+01
  1.00800000E+00  1.00800000E+00  1.60000000E+01  1.00800000E+00  1.00800000E+00
  1.60000000E+01  1.00800000E+00  1.00800000E+00  1.60000000E+01  1.00800000E+00
  1.00800000E+00  1.60000000E+01  1.00800000E+00  1.00800000E+00  1.60000000E+01
  1.00800000E+00  1.00800000E+00  1.60000000E+01  1.00800000E+00  1.00800000E+00
  1.60000000E+01  1.00800000E+00  1.00800000E+00  1.60000000E+01  1.00800000E+00
  1.00800000E+00  1.60000000E+01  1.00800000E+00  1.00800000E+00  1.60000000E+01
  1.00800000E+00  1.00800000E+00  1.60000000E+01  1.00800000E+00  1.00800000E+00
  1.60000000E+01  1.00800000E+00  1.00800000E+00  1.60000000E+01  1.00800000E+00
  1.00800000E+00  1.60000000E+01  1.00800000E+00  1.00800000E+00  1.60000000E+01
  1.00800000E+00  1.00800000E+00  1.60000000E+01  1.00800000E+00  1.00800000E+00
  1.60000000E+01  1.00800000E+00  1.00800000E+00  1.60000000E+01  1.00800000E+00
  1.00800000E+00  1.60000000E+01  1.00800000E+00  1.00800000E+00  1.60000000E+01
  1.00800000E+00  1.00800000E+00  1.60000000E+01  1.00800000E+00  1.00800000E+00
  1.60000000E+01  1.00800000E+00  1.00800000E+00  1.60000000E+01  1.00800000E+00
  1.00800000E+00  1.60000000E+01  1.00800000E+00  1.00800000E+00  1.60000000E+01
  1.00800000E+00  1.00800000E+00  1.60000000E+01  1.00800000E+00  1.00800000E+00
  1.60000000E+01  1.00800000E+00  1.00800000E+00  1.60000000E+01  1.00800000E+00
  1.00800000E+00  1.60000000E+01  1.00800000E+00  1.00800000E+00  1.60000000E+01
  1.00800000E+00  1.00800000E+00  1.60000000E+01  1.00800000E+00  1.00800000E+00
  1.60000000E+01  1.00800000E+00  1.00800000E+00  1.60000000E+01  1.00800000E+00
  1.00800000E+00  1.60000000E+01  1.00800000E+00  1.00800000E+00  1.60000000E+01
  1.00800000E+00  1.00800000E+00  1.60000000E+01  1.00800000E+00  1.00800000E+00
  1.60000000E+01  1.00800000E+00  1.00800000E+00  1.60000000E+01  1.00800000E+00
  1.00800000E+00  1.60000000E+01  1.00800000E+00  1.00800000E+00  1.60000000E+01
  1.00800000E+00  1.00800000E+00  1.60000000E+01  1.00800000E+00  1.00800000E+00
  1.60000000E+01  1.00800000E+00  1.00800000E+00  1.60000000E+01  1.00800000E+00
  1.00800000E+00  1.60000000E+01  1.00800000E+00  1.00800000E+00  1.60000000E+01
  1.00800000E+00  1.00800000E+00  1.60000000E+01  1.00800000E+00  1.00800000E+00
  1.60000000E+01  1.00800000E+00  1.00800000E+00  1.60000000E+01  1.00800000E+00
  1.00800000E+00  1.60000000E+01  1.00800000E+00  1.00800000E+00  1.60000000E+01
  1.00800000E+00  1.00800000E+00  1.60000000E+01  1.00800000E+00  1.00800000E+00
  1.60000000E+01  1.00800000E+00  1.00800000E+00  1.60000000E+01  1.00800000E+00
  1.00800000E+00  1.60000000E+01  1.00800000E+00  1.00800000E+00  1.60000000E+01
  1.00800000E+00  1.00800000E+00  1.60000000E+01  1.00800000E+00  1.00800000E+00
  1.60000000E+01  1.00800000E+00  1.00800000E+00  1.60000000E+01  1.00800000E+00
  1.00800000E+00  1.60000000E+01  1.00800000E+00  1.00800000E+00  1.60000000E+01
  1.00800000E+00  1.00800000E+00  1.60000000E+01  1.00800000E+00  1.00800000E+00
  1.60000000E+01  1.00800000E+00  1.00800000E+00  1.60000000E+01  1.00800000E+00
  1.00800000E+00  1.60000000E+01  1.00800000E+00  1.00800000E+00  1.60000000E+01
  1.00800000E+00  1.00800000E+00  1.60000000E+01  1.00800000E+00  1.00800000E+00
  1.60000000E+01  1.00800000E+00  1.00800000E+00  1.60000000E+01  1.00800000E+00
  1.00800000E+00  1.60000000E+01  1.00800000E+00  1.00800000E+00  1.60000000E+01
  1.00800000E+00  1.00800000E+00  1.60000000E+01  1.00800000E+00  1.00800000E+00
  1.60000000E+01  1.00800000E+00  1.00800000E+00  1.60000000E+01  1.00800000E+00
  1.00800000E+00  1.60000000E+01  1.00800000E+00  1.00800000E+00  1.60000000E+01
  1.00800000E+00  1.00800000E+00  1.60000000E+01  1.00800000E+00  1.00800000E+00
  1.60000000E+01  1.00800000E+00  1.00800000E+00  1.60000000E+01  1.00800000E+00
  1.00800000E+00  1.60000000E+01  1.00800000E+00  1.00800000E+00  1.60000000E+01
  1.00800000E+00  1.00800000E+00  1.60000000E+01  1.00800000E+00  1.00800000E+00
  1.60000000E+01  1.00800000E+00  1.00800000E+00  1.60000000E+01  1.00800000E+00
  1.00800000E+00  1.60000000E+01  1.00800000E+00  1.00800000E+00  1.60000000E+01
  1.00800000E+00  1.00800000E+00  1.60000000E+01  1.00800000E+00  1.00800000E+00
  1.60000000E+01  1.00800000E+00  1.00800000E+00  1.60000000E+01  1.00800000E+00
  1.00800000E+00  1.60000000E+01  1.00800000E+00  1.00800000E+00  1.60000000E+01
  1.00800000E+00  1.00800000E+00  1.60000000E+01  1.00800000E+00  1.00800000E+00
  1.60000000E+01  1.00800000E+00  1.00800000E+00  1.60000000E+01  1.00800000E+00
  1.00800000E+00  1.60000000E+01  1.00800000E+00  1.00800000E+00  1.60000000E+01
  1.00800000E+00  1.00800000E+00  1.60000000E+01  1.00800000E+00  1.00800000E+00
  1.60000000E+01  1.00800000E+00  1.00800000E+00  1.60000000E+01  1.00800000E+00
  1.00800000E+00  1.60000000E+01  1.00800000E+00  1.00800000E+00  1.60000000E+01
  1.00800000E+00  1.00800000E+00  1.60000000E+01  1.00800000E+00  1.00800000E+00
  1.60000000E+01  1.00800000E+00  1.00800000E+00  1.60000000E+01  1.00800000E+00
  1.00800000E+00  1.60000000E+01  1.00800000E+00  1.00800000E+00  1.60000000E+01
  1.00800000E+00  1.00800000E+00  1.60000000E+01  1.00800000E+00  1.00800000E+00
  1.60000000E+01  1.00800000E+00  1.00800000E+00  1.60000000E+01  1.00800000E+00
  1.00800000E+00  1.60000000E+01  1.00800000E+00  1.00800000E+00  1.60000000E+01
  1.00800000E+00  1.00800000E+00  1.60000000E+01  1.00800000E+00  1.00800000E+00
  1.60000000E+01  1.00800000E+00  1.00800000E+00  1.60000000E+01  1.00800000E+00
  1.00800000E+00  1.60000000E+01  1.00800000E+00  1.00800000E+00  1.60000000E+01
  1.00800000E+00  1.00800000E+00  1.60000000E+01  1.00800000E+00  1.00800000E+00
  1.60000000E+01  1.00800000E+00  1.00800000E+00  1.60000000E+01  1.00800000E+00
  1.00800000E+00  1.60000000E+01  1.00800000E+00  1.00800000E+00  1.60000000E+01
  1.00800000E+00  1.00800000E+00  1.60000000E+01  1.00800000E+00  1.00800000E+00
  1.60000000E+01  1.00800000E+00  1.00800000E+00  1.60000000E+01  1.00800000E+00
  1.00800000E+00  1.60000000E+01  1.00800000E+00  1.00800000E+00  1.60000000E+01
  1.00800000E+00  1.00800000E+00  1.60000000E+01  1.00800000E+00  1.00800000E+00
  1.60000000E+01  1.00800000E+00  1.00800000E+00  1.60000000E+01  1.00800000E+00
  1.00800000E+00  1.60000000E+01  1.00800000E+00  1.00800000E+00  1.60000000E+01
  1.00800000E+00  1.00800000E+00  1.60000000E+01  1.00800000E+00  1.00800000E+00
  1.60000000E+01  1.00800000E+00  1.00800000E+00  1.60000000E+01  1.00800000E+00
  1.00800000E+00  1.60000000E+01  1.00800000E+00  1.00800000E+00  1.60000000E+01
  1.00800000E+00  1.00800000E+00  1.60000000E+01  1.00800000E+00  1.00800000E+00
  1.60000000E+01  1.00800000E+00  1.00800000E+00  1.60000000E+01  1.00800000E+00
  1.00800000E+00  1.60000000E+01  1.00800000E+00  1.00800000E+00  1.60000000E+01
  1.00800000E+00  1.00800000E+00  1.60000000E+01  1.00800000E+00  1.00800000E+00
  1.60000000E+01  1.00800000E+00  1.00800000E+00  1.60000000E+01  1.00800000E+00
  1.00800000E+00  1.60000000E+01  1.00800000E+00  1.00800000E+00  1.60000000E+01
  1.00800000E+00  1.00800000E+00  1.60000000E+01  1.00800000E+00  1.00800000E+00
  1.60000000E+01  1.00800000E+00  1.00800000E+00  1.60000000E+01  1.00800000E+00
  1.00800000E+00  1.60000000E+01  1.00800000E+00  1.00800000E+00  1.60000000E+01
  1.00800000E+00  1.00800000E+00  1.60000000E+01  1.00800000E+00  1.00800000E+00
  1.60000000E+01  1.00800000E+00  1.00800000E+00  1.60000000E+01  1.00800000E+00
  1.00800000E+00  1.60000000E+01  1.00800000E+00  1.00800000E+00  1.60000000E+01
  1.00800000E+00  1.00800000E+00  1.60000000E+01  1.00800000E+00  1.00800000E+00
  1.60000000E+01  1.00800000E+00  1.00800000E+00  1.60000000E+01  1.00800000E+00
  1.00800000E+00  1.60000000E+01  1.00800000E+00  1.00800000E+00  1.60000000E+01
  1.00800000E+00  1.00800000E+00  1.60000000E+01  1.00800000E+00  1.00800000E+00
  1.60000000E+01  1.00800000E+00  1.00800000E+00  1.60000000E+01  1.00800000E+00
  1.00800000E+00  1.60000000E+01  1.00800000E+00  1.00800000E+00  1.60000000E+01
  1.00800000E+00  1.00800000E+00  1.60000000E+01  1.00800000E+00  1.00800000E+00
  1.60000000E+01  1.00800000E+00  1.00800000E+00  1.60000000E+01  1.00800000E+00
  1.00800000E+00  1.60000000E+01  1.00800000E+00  1.00800000E+00  1.60000000E+01
  1.00800000E+00  1.00800000E+00  1.60000000E+01  1.00800000E+00  1.00800000E+00
  1.60000000E+01  1.00800000E+00  1.00800000E+00  1.60000000E+01  1.00800000E+00
  1.00800000E+00  1.60000000E+01  1.00800000E+00  1.00800000E+00  1.60000000E+01
  1.00800000E+00  1.00800000E+00  1.60000000E+01  1.00800000E+00  1.00800000E+00
  1.60000000E+01  1.00800000E+00  1.00800000E+00  1.60000000E+01  1.00800000E+00
  1.00800000E+00  1.60000000E+01  1.00800000E+00  1.00800000E+00  1.60000000E+01
  1.00800000E+00  1.00800000E+00  1.60000000E+01  1.00800000E+00  1.00800000E+00
  1.60000000E+01  1.00800000E+00  1.00800000E+00  1.60000000E+01  1.00800000E+00
  1.00800000E+00  1.60000000E+01  1.00800000E+00  1.00800000E+00  1.60000000E+01
  1.00800000E+00  1.00800000E+00  1.60000000E+01  1.00800000E+00  1.00800000E+00
  1.60000000E+01  1.00800000E+00  1.00800000E+00  1.60000000E+01  1.00800000E+00
  1.00800000E+00  1.60000000E+01  1.00800000E+00  1.00800000E+00  1.60000000E+01
  1.00800000E+00  1.00800000E+00  1.60000000E+01  1.00800000E+00  1.00800000E+00
  1.60000000E+01  1.00800000E+00  1.00800000E+00  1.60000000E+01  1.00800000E+00
  1.00800000E+00  1.60000000E+01  1.00800000E+00  1.00800000E+00  1.60000000E+01
  1.00800000E+00  1.00800000E+00  1.60000000E+01  1.00800000E+00  1.00800000E+00
  1.60000000E+01  1.00800000E+00  1.00800000E+00  1.60000000E+01  1.00800000E+00
  1.00800000E+00  1.60000000E+01  1.00800000E+00  1.00800000E+00  1.60000000E+01
  1.00800000E+00  1.00800000E+00  1.60000000E+01  1.00800000E+00  1.00800000E+00
  1.60000000E+01  1.00800000E+00  1.00800000E+00  1.60000000E+01  1.00800000E+00
  1.00800000E+00  1.60000000E+01  1.00800000E+00  1.00800000E+00  1.60000000E+01
  1.00800000E+00  1.00800000E+00  1.60000000E+01  1.00800000E+00  1.00800000E+00
  1.60000000E+01  1.00800000E+00  1.00800000E+00  1.60000000E+01  1.00800000E+00
  1.00800000E+00  1.60000000E+01  1.00800000E+00  1.00800000E+00  1.60000000E+01
  1.00800000E+00  1.00800000E+00  1.60000000E+01  1.00800000E+00  1.00800000E+00
  1.60000000E+01  1.00800000E+00  1.00800000E+00  1.60000000E+01  1.00800000E+00
  1.00800000E+00  1.60000000E+01  1.00800000E+00  1.00800000E+00  1.60000000E+01
  1.00800000E+00  1.00800000E+00  1.60000000E+01  1.00800000E+00  1.00800000E+00
  1.60000000E+01  1.00800000E+00  1.00800000E+00  1.60000000E+01  1.00800000E+00
  1.00800000E+00  1.60000000E+01  1.00800000E+00  1.00800000E+00  1.60000000E+01
  1.00800000E+00  1.00800000E+00  1.60000000E+01  1.00800000E+00  1.00800000E+00
  1.60000000E+01  1.00800000E+00  1.00800000E+00  1.60000000E+01  1.00800000E+00
  1.00800000E+00  1.60000000E+01  1.00800000E+00  1.00800000E+00  1.60000000E+01
  1.00800000E+00  1.00800000E+00  1.60000000E+01  1.00800000E+00  1.00800000E+00
  1.60000000E+01  1.00800000E+00  1.00800000E+00  1.60000000E+01  1.00800000E+00
  1.00800000E+00  1.60000000E+01  1.00800000E+00  1.00800000E+00  1.60000000E+01
  1.00800000E+00  1.00800000E+00  1.60000000E+01  1.00800000E+00  1.00800000E+00
  1.60000000E+01  1.00800000E+00  1.00800000E+00  1.60000000E+01  1.00800000E+00
  1.00800000E+00  1.60000000E+01  1.00800000E+00  1.00800000E+00  1.60000000E+01
  1.00800000E+00  1.00800000E+00  1.60000000E+01  1.00800000E+00  1.00800000E+00
  1.60000000E+01  1.00800000E+00  1.00800000E+00  1.60000000E+01  1.00800000E+00
  1.00800000E+00  1.60000000E+01  1.00800000E+00  1.00800000E+00  1.60000000E+01
  1.00800000E+00  1.00800000E+00  1.60000000E+01  1.00800000E+00  1.00800000E+00
  1.60000000E+01  1.00800000E+00  1.00800000E+00  1.60000000E+01  1.00800000E+00
  1.00800000E+00  1.60000000E+01  1.00800000E+00  1.00800000E+00  1.60000000E+01
  1.00800000E+00  1.00800000E+00  1.60000000E+01  1.00800000E+00  1.00800000E+00
  1.60000000E+01  1.00800000E+00  1.00800000E+00  1.60000000E+01  1.00800000E+00
  1.00800000E+00  1.60000000E+01  1.00800000E+00  1.00800000E+00  1.60000000E+01
  1.00800000E+00  1.00800000E+00  1.60000000E+01  1.00800000E+00  1.00800000E+00
  1.60000000E+01  1.00800000E+00  1.00800000E+00  1.60000000E+01  1.00800000E+00
  1.00800000E+00  1.60000000E+01  1.00800000E+00  1.00800000E+00  1.60000000E+01
  1.00800000E+00  1.00800000E+00  1.60000000E+01  1.00800000E+00  1.00800000E+00
  1.60000000E+01  1.00800000E+00  1.00800000E+00  1.60000000E+01  1.00800000E+00
  1.00800000E+00  1.60000000E+01  1.00800000E+00  1.00800000E+00  1.60000000E+01
  1.00800000E+00  1.00800000E+00  1.60000000E+01  1.00800000E+00  1.00800000E+00
  1.60000000E+01  1.00800000E+00  1.00800000E+00  1.60000000E+01  1.00800000E+00
  1.00800000E+00  1.60000000E+01  1.00800000E+00  1.00800000E+00  1.60000000E+01
  1.00800000E+00  1.00800000E+00  1.60000000E+01  1.00800000E+00  1.00800000E+00
  1.60000000E+01  1.00800000E+00  1.00800000E+00  1.60000000E+01  1.00800000E+00
  1.00800000E+00  1.60000000E+01  1.00800000E+00  1.00800000E+00  1.60000000E+01
  1.00800000E+00  1.00800000E+00  1.60000000E+01  1.00800000E+00  1.00800000E+00
  1.60000000E+01  1.00800000E+00  1.00800000E+00  1.60000000E+01  1.00800000E+00
  1.00800000E+00  1.60000000E+01  1.00800000E+00  1.00800000E+00  1.60000000E+01
  1.00800000E+00  1.00800000E+00  1.60000000E+01  1.00800000E+00  1.00800000E+00
  1.60000000E+01  1.00800000E+00  1.00800000E+00  1.60000000E+01  1.00800000E+00
  1.00800000E+00  1.60000000E+01  1.00800000E+00  1.00800000E+00  1.60000000E+01
  1.00800000E+00  1.00800000E+00  1.60000000E+01  1.00800000E+00  1.00800000E+00
  1.60000000E+01  1.00800000E+00  1.00800000E+00  1.60000000E+01  1.00800000E+00
  1.00800000E+00  1.60000000E+01  1.00800000E+00  1.00800000E+00  1.60000000E+01
  1.00800000E+00  1.00800000E+00  1.60000000E+01  1.00800000E+00  1.00800000E+00
  1.60000000E+01  1.00800000E+00  1.00800000E+00  1.60000000E+01  1.00800000E+00
  1.00800000E+00  1.60000000E+01  1.00800000E+00  1.00800000E+00  1.60000000E+01
  1.00800000E+00  1.00800000E+00  1.60000000E+01  1.00800000E+00  1.00800000E+00
  1.60000000E+01  1.00800000E+00  1.00800000E+00  1.60000000E+01  1.00800000E+00
  1.00800000E+00  1.60000000E+01  1.00800000E+00  1.00800000E+00  1.60000000E+01
  1.00800000E+00  1.00800000E+00  1.60000000E+01  1.00800000E+00  1.00800000E+00
  1.60000000E+01  1.00800000E+00  1.00800000E+00  1.60000000E+01  1.00800000E+00
  1.00800000E+00  1.60000000E+01  1.00800000E+00  1.00800000E+00  1.60000000E+01
  1.00800000E+00  1.00800000E+00  1.60000000E+01  1.00800000E+00  1.00800000E+00
  1.60000000E+01  1.00800000E+00  1.00800000E+00  1.60000000E+01  1.00800000E+00
  1.00800000E+00  1.60000000E+01  1.00800000E+00  1.00800000E+00  1.60000000E+01
  1.00800000E+00  1.00800000E+00  1.60000000E+01  1.00800000E+00  1.00800000E+00
  1.60000000E+01  1.00800000E+00  1.00800000E+00  1.60000000E+01  1.00800000E+00
  1.00800000E+00  1.60000000E+01  1.00800000E+00  1.00800000E+00  1.60000000E+01
  1.00800000E+00  1.00800000E+00  1.60000000E+01  1.00800000E+00  1.00800000E+00
  1.60000000E+01  1.00800000E+00  1.00800000E+00  1.60000000E+01  1.00800000E+00
  1.00800000E+00  1.60000000E+01  1.00800000E+00  1.00800000E+00  1.60000000E+01
  1.00800000E+00  1.00800000E+00  1.60000000E+01  1.00800000E+00  1.00800000E+00
  1.60000000E+01  1.00800000E+00  1.00800000E+00  1.60000000E+01  1.00800000E+00
  1.00800000E+00  1.60000000E+01  1.00800000E+00  1.00800000E+00  1.60000000E+01
  1.00800000E+00  1.00800000E+00  1.60000000E+01  1.00800000E+00  1.00800000E+00
  1.60000000E+01  1.00800000E+00  1.00800000E+00  1.60000000E+01  1.00800000E+00
  1.00800000E+00  1.60000000E+01  1.00800000E+00  1.00800000E+00  1.60000000E+01
  1.00800000E+00  1.00800000E+00  1.60000000E+01  1.00800000E+00  1.00800000E+00
  1.60000000E+01  1.00800000E+00  1.00800000E+00  1.60000000E+01  1.00800000E+00
  1.00800000E+00  1.60000000E+01  1.00800000E+00  1.00800000E+00  1.60000000E+01
  1.00800000E+00  1.00800000E+00  1.60000000E+01  1.00800000E+00  1.00800000E+00
  1.60000000E+01  1.00800000E+00  1.00800000E+00  1.60000000E+01  1.00800000E+00
  1.00800000E+00  1.60000000E+01  1.00800000E+00  1.00800000E+00  1.60000000E+01
  1.00800000E+00  1.00800000E+00  1.60000000E+01  1.00800000E+00  1.00800000E+00
  1.60000000E+01  1.00800000E+00  1.00800000E+00  1.60000000E+01  1.00800000E+00
  1.00800000E+00  1.60000000E+01  1.00800000E+00  1.00800000E+00  1.60000000E+01
  1.00800000E+00  1.00800000E+00  1.60000000E+01  1.00800000E+00  1.00800000E+00
  1.60000000E+01  1.00800000E+00  1.00800000E+00  1.60000000E+01  1.00800000E+00
  1.00800000E+00  1.60000000E+01  1.00800000E+00  1.00800000E+00  1.60000000E+01
  1.00800000E+00  1.00800000E+00  1.60000000E+01  1.00800000E+00  1.00800000E+00
  1.60000000E+01  1.00800000E+00  1.00800000E+00  1.60000000E+01  1.00800000E+00
  1.00800000E+00  1.60000000E+01  1.00800000E+00  1.00800000E+00  1.60000000E+01
  1.00800000E+00  1.00800000E+00  1.60000000E+01  1.00800000E+00  1.00800000E+00
  1.60000000E+01  1.00800000E+00  1.00800000E+00  1.60000000E+01  1.00800000E+00
  1.00800000E+00  1.60000000E+01  1.00800000E+00  1.00800000E+00  1.60000000E+01
  1.00800000E+00  1.00800000E+00  1.60000000E+01  1.00800000E+00  1.00800000E+00
  1.60000000E+01  1.00800000E+00  1.00800000E+00  1.60000000E+01  1.00800000E+00
  1.00800000E+00  1.60000000E+01  1.00800000E+00  1.00800000E+00  1.60000000E+01
  1.00800000E+00  1.00800000E+00  1.60000000E+01  1.00800000E+00  1.00800000E+00
  1.60000000E+01  1.00800000E+00  1.00800000E+00  1.60000000E+01  1.00800000E+00
  1.00800000E+00  1.60000000E+01  1.00800000E+00  1.00800000E+00  1.60000000E+01
  1.00800000E+00  1.00800000E+00  1.60000000E+01  1.00800000E+00  1.00800000E+00
  1.60000000E+01  1.00800000E+00  1.00800000E+00  1.60000000E+01  1.00800000E+00
  1.00800000E+00  1.60000000E+01  1.00800000E+00  1.00800000E+00  1.60000000E+01
  1.00800000E+00  1.00800000E+00  1.60000000E+01  1.00800000E+00  1.00800000E+00
  1.60000000E+01  1.00800000E+00  1.00800000E+00  1.60000000E+01  1.00800000E+00
  1.00800000E+00  1.60000000E+01  1.00800000E+00  1.00800000E+00  1.60000000E+01
  1.00800000E+00  1.00800000E+00  1.60000000E+01  1.00800000E+00  1.00800000E+00
  1.60000000E+01  1.00800000E+00  1.00800000E+00  1.60000000E+01  1.00800000E+00
  1.00800000E+00  1.60000000E+01  1.00800000E+00  1.00800000E+00  1.60000000E+01
  1.00800000E+00  1.00800000E+00  1.60000000E+01  1.00800000E+00  1.00800000E+00
  1.60000000E+01  1.00800000E+00  1.00800000E+00  1.60000000E+01  1.00800000E+00
  1.00800000E+00  1.60000000E+01  1.00800000E+00  1.00800000E+00  1.60000000E+01
  1.00800000E+00  1.00800000E+00  1.60000000E+01  1.00800000E+00  1.00800000E+00
  1.60000000E+01  1.00800000E+00  1.00800000E+00  1.60000000E+01  1.00800000E+00
  1.00800000E+00  1.60000000E+01  1.00800000E+00  1.00800000E+00  1.60000000E+01
  1.00800000E+00  1.00800000E+00  1.60000000E+01  1.00800000E+00  1.00800000E+00
  1.60000000E+01  1.00800000E+00  1.00800000E+00  1.60000000E+01  1.00800000E+00
  1.00800000E+00  1.60000000E+01  1.00800000E+00  1.00800000E+00  1.60000000E+01
  1.00800000E+00  1.00800000E+00  1.60000000E+01  1.00800000E+00  1.00800000E+00
  1.60000000E+01  1.00800000E+00  1.00800000E+00  1.60000000E+01  1.00800000E+00
  1.00800000E+00  1.60000000E+01  1.00800000E+00  1.00800000E+00  1.60000000E+01
  1.00800000E+00  1.00800000E+00  1.60000000E+01  1.00800000E+00  1.00800000E+00
  1.60000000E+01  1.00800000E+00  1.00800000E+00  1.60000000E+01  1.00800000E+00
  1.00800000E+00  1.60000000E+01  1.00800000E+00  1.00800000E+00  1.60000000E+01
  1.00800000E+00  1.00800000E+00  1.60000000E+01  1.00800000E+00  1.00800000E+00
  1.60000000E+01  1.00800000E+00  1.00800000E+00  1.60000000E+01  1.00800000E+00
  1.00800000E+00  1.60000000E+01  1.00800000E+00  1.00800000E+00  1.60000000E+01
  1.00800000E+00  1.00800000E+00  1.60000000E+01  1.00800000E+00  1.00800000E+00
  1.60000000E+01  1.00800000E+00  1.00800000E+00  1.60000000E+01  1.00800000E+00
  1.00800000E+00  1.60000000E+01  1.00800000E+00  1.00800000E+00  1.60000000E+01
  1.00800000E+00  1.00800000E+00  1.60000000E+01  1.00800000E+00  1.00800000E+00
  1.60000000E+01  1.00800000E+00  1.00800000E+00  1.60000000E+01  1.00800000E+00
  1.00800000E+00  1.60000000E+01  1.00800000E+00  1.00800000E+00  1.60000000E+01
  1.00800000E+00  1.00800000E+00  1.60000000E+01  1.00800000E+00  1.00800000E+00
  1.60000000E+01  1.00800000E+00  1.00800000E+00  1.60000000E+01  1.00800000E+00
  1.00800000E+00  1.60000000E+01  1.00800000E+00  1.00800000E+00  1.60000000E+01
  1.00800000E+00  1.00800000E+00  1.60000000E+01  1.00800000E+00  1.00800000E+00
  1.60000000E+01  1.00800000E+00  1.00800000E+00  1.60000000E+01  1.00800000E+00
  1.00800000E+00  1.60000000E+01  1.00800000E+00  1.00800000E+00  1.60000000E+01
  1.00800000E+00  1.00800000E+00  1.60000000E+01  1.00800000E+00  1.00800000E+00
  1.60000000E+01  1.00800000E+00  1.00800000E+00  1.60000000E+01  1.00800000E+00
  1.00800000E+00  1.60000000E+01  1.00800000E+00  1.00800000E+00  1.60000000E+01
  1.00800000E+00  1.00800000E+00  1.60000000E+01  1.00800000E+00  1.00800000E+00
  1.60000000E+01  1.00800000E+00  1.00800000E+00  1.60000000E+01  1.00800000E+00
  1.00800000E+00  1.60000000E+01  1.00800000E+00  1.00800000E+00  1.60000000E+01
  1.00800000E+00  1.00800000E+00  1.60000000E+01  1.00800000E+00  1.00800000E+00
  1.60000000E+01  1.00800000E+00  1.00800000E+00  1.60000000E+01  1.00800000E+00
  1.00800000E+00  1.60000000E+01  1.00800000E+00  1.00800000E+00  1.60000000E+01
  1.00800000E+00  1.00800000E+00  1.60000000E+01  1.00800000E+00  1.00800000E+00
  1.60000000E+01  1.00800000E+00  1.00800000E+00  1.60000000E+01  1.00800000E+00
  1.00800000E+00  1.60000000E+01  1.00800000E+00  1.00800000E+00  1.60000000E+01
  1.00800000E+00  1.00800000E+00  1.60000000E+01  1.00800000E+00  1.00800000E+00
  1.60000000E+01  1.00800000E+00  1.00800000E+00  1.60000000E+01  1.00800000E+00
  1.00800000E+00  1.60000000E+01  1.00800000E+00  1.00800000E+00  1.60000000E+01
  1.00800000E+00  1.00800000E+00  1.60000000E+01  1.00800000E+00  1.00800000E+00
  1.60000000E+01  1.00800000E+00  1.00800000E+00  1.60000000E+01  1.00800000E+00
  1.00800000E+00  1.60000000E+01  1.00800000E+00  1.00800000E+00  1.60000000E+01
  1.00800000E+00  1.00800000E+00  1.60000000E+01  1.00800000E+00  1.00800000E+00
  1.60000000E+01  1.00800000E+00  1.00800000E+00  1.60000000E+01  1.00800000E+00
  1.00800000E+00  1.60000000E+01  1.00800000E+00  1.00800000E+00  1.60000000E+01
  1.00800000E+00  1.00800000E+00  1.60000000E+01  1.00800000E+00  1.00800000E+00
  1.60000000E+01  1.00800000E+00  1.00800000E+00  1.60000000E+01  1.00800000E+00
  1.00800000E+00  1.60000000E+01  1.00800000E+00  1.00800000E+00  1.60000000E+01
  1.00800000E+00  1.00800000E+00  1.60000000E+01  1.00800000E+00  1.00800000E+00
  1.60000000E+01  1.00800000E+00  1.00800000E+00  1.60000000E+01  1.00800000E+00
  1.00800000E+00  1.60000000E+01  1.00800000E+00  1.00800000E+00  1.60000000E+01
  1.00800000E+00  1.00800000E+00  1.60000000E+01  1.00800000E+00  1.00800000E+00
  1.60000000E+01  1.00800000E+00  1.00800000E+00  1.60000000E+01  1.00800000E+00
  1.00800000E+00  1.60000000E+01  1.00800000E+00  1.00800000E+00  1.60000000E+01
  1.00800000E+00  1.00800000E+00  1.60000000E+01  1.00800000E+00  1.00800000E+00
  1.60000000E+01  1.00800000E+00  1.00800000E+00  1.60000000E+01  1.00800000E+00
  1.00800000E+00  1.60000000E+01  1.00800000E+00  1.00800000E+00  1.60000000E+01
  1.00800000E+00  1.00800000E+00  1.60000000E+01  1.00800000E+00  1.00800000E+00
  1.60000000E+01  1.00800000E+00  1.00800000E+00  1.60000000E+01  1.00800000E+00
  1.00800000E+00  1.60000000E+01  1.00800000E+00  1.00800000E+00  1.60000000E+01
  1.00800000E+00  1.00800000E+00  1.60000000E+01  1.00800000E+00  1.00800000E+00
  1.60000000E+01  1.00800000E+00  1.00800000E+00  1.60000000E+01  1.00800000E+00
  1.00800000E+00  1.60000000E+01  1.00800000E+00  1.00800000E+00  1.60000000E+01
  1.00800000E+00  1.00800000E+00  1.60000000E+01  1.00800000E+00  1.00800000E+00
  1.60000000E+01  1.00800000E+00  1.00800000E+00  1.60000000E+01  1.00800000E+00
  1.00800000E+00  1.60000000E+01  1.00800000E+00  1.00800000E+00  1.60000000E+01
  1.00800000E+00  1.00800000E+00  1.60000000E+01  1.00800000E+00  1.00800000E+00
  1.60000000E+01  1.00800000E+00  1.00800000E+00  1.60000000E+01  1.00800000E+00
  1.00800000E+00  1.60000000E+01  1.00800000E+00  1.00800000E+00  1.60000000E+01
  1.00800000E+00  1.00800000E+00  1.60000000E+01  1.00800000E+00  1.00800000E+00
  1.60000000E+01  1.00800000E+00  1.00800000E+00  1.60000000E+01  1.00800000E+00
  1.00800000E+00  1.60000000E+01  1.00800000E+00  1.00800000E+00  1.60000000E+01
  1.00800000E+00  1.00800000E+00  1.60000000E+01  1.00800000E+00  1.00800000E+00
  1.60000000E+01  1.00800000E+00  1.00800000E+00  1.60000000E+01  1.00800000E+00
  1.00800000E+00  1.60000000E+01  1.00800000E+00  1.00800000E+00  1.60000000E+01
  1.00800000E+00  1.00800000E+00  1.60000000E+01  1.00800000E+00  1.00800000E+00
  1.60000000E+01  1.00800000E+00  1.00800000E+00  1.60000000E+01  1.00800000E+00
  1.00800000E+00  1.60000000E+01  1.00800000E+00  1.00800000E+00  1.60000000E+01
  1.00800000E+00  1.00800000E+00  1.60000000E+01  1.00800000E+00  1.00800000E+00
  1.60000000E+01  1.00800000E+00  1.00800000E+00  1.60000000E+01  1.00800000E+00
  1.00800000E+00  1.60000000E+01  1.00800000E+00  1.00800000E+00  1.60000000E+01
  1.00800000E+00  1.00800000E+00  1.60000000E+01  1.00800000E+00  1.00800000E+00
  1.60000000E+01  1.00800000E+00  1.00800000E+00  1.60000000E+01  1.00800000E+00
  1.00800000E+00  1.60000000E+01  1.00800000E+00  1.00800000E+00  1.60000000E+01
  1.00800000E+00  1.00800000E+00  1.60000000E+01  1.00800000E+00  1.00800000E+00
  1.60000000E+01  1.00800000E+00  1.00800000E+00  1.60000000E+01  1.00800000E+00
  1.00800000E+00  1.60000000E+01  1.00800000E+00  1.00800000E+00  1.60000000E+01
  1.00800000E+00  1.00800000E+00  1.60000000E+01  1.00800000E+00  1.00800000E+00
  1.60000000E+01  1.00800000E+00  1.00800000E+00  1.60000000E+01  1.00800000E+00
  1.00800000E+00  1.60000000E+01  1.00800000E+00  1.00800000E+00  1.60000000E+01
  1.00800000E+00  1.00800000E+00  1.60000000E+01  1.00800000E+00  1.00800000E+00
  1.60000000E+01  1.00800000E+00  1.00800000E+00  1.60000000E+01  1.00800000E+00
  1.00800000E+00  1.60000000E+01  1.00800000E+00  1.00800000E+00  1.60000000E+01
  1.00800000E+00  1.00800000E+00  1.60000000E+01  1.00800000E+00  1.00800000E+00
  1.60000000E+01  1.00800000E+00  1.00800000E+00  1.60000000E+01  1.00800000E+00
  1.00800000E+00  1.60000000E+01  1.00800000E+00  1.00800000E+00  1.60000000E+01
  1.00800000E+00  1.00800000E+00  1.60000000E+01  1.00800000E+00  1.00800000E+00
  1.60000000E+01  1.00800000E+00  1.00800000E+00  1.60000000E+01  1.00800000E+00
  1.00800000E+00  1.60000000E+01  1.00800000E+00  1.00800000E+00  1.60000000E+01
  1.00800000E+00  1.00800000E+00  1.60000000E+01  1.00800000E+00  1.00800000E+00
  1.60000000E+01  1.00800000E+00  1.00800000E+00  1.60000000E+01  1.00800000E+00
  1.00800000E+00  1.60000000E+01  1.00800000E+00  1.00800000E+00  1.60000000E+01
  1.00800000E+00  1.00800000E+00  1.60000000E+01  1.00800000E+00  1.00800000E+00
  1.60000000E+01  1.00800000E+00  1.00800000E+00  1.60000000E+01  1.00800000E+00
  1.00800000E+00  1.60000000E+01  1.00800000E+00  1.00800000E+00  1.60000000E+01
  1.00800000E+00  1.00800000E+00  1.60000000E+01  1.00800000E+00  1.00800000E+00
  1.60000000E+01  1.00800000E+00  1.00800000E+00  1.60000000E+01  1.00800000E+00
  1.00800000E+00  1.60000000E+01  1.00800000E+00  1.00800000E+00  1.60000000E+01
  1.00800000E+00  1.00800000E+00  1.60000000E+01  1.00800000E+00  1.00800000E+00
  1.60000000E+01  1.00800000E+00  1.00800000E+00  1.60000000E+01  1.00800000E+00
  1.00800000E+00  1.60000000E+01  1.00800000E+00  1.00800000E+00  1.60000000E+01
  1.00800000E+00  1.00800000E+00  1.60000000E+01  1.00800000E+00  1.00800000E+00
  1.60000000E+01  1.00800000E+00  1.00800000E+00  1.60000000E+01  1.00800000E+00
  1.00800000E+00  1.60000000E+01  1.00800000E+00  1.00800000E+00  1.60000000E+01
  1.00800000E+00  1.00800000E+00  1.60000000E+01  1.00800000E+00  1.00800000E+00
  1.60000000E+01  1.00800000E+00  1.00800000E+00  1.60000000E+01  1.00800000E+00
  1.00800000E+00  1.60000000E+01  1.00800000E+00  1.00800000E+00  1.60000000E+01
  1.00800000E+00  1.00800000E+00  1.60000000E+01  1.00800000E+00  1.00800000E+00
  1.60000000E+01  1.00800000E+00  1.00800000E+00  1.60000000E+01  1.00800000E+00
  1.00800000E+00  1.60000000E+01  1.00800000E+00  1.00800000E+00  1.60000000E+01
  1.00800000E+00  1.00800000E+00  1.60000000E+01  1.00800000E+00  1.00800000E+00
  1.60000000E+01  1.00800000E+00  1.00800000E+00  1.60000000E+01  1.00800000E+00
  1.00800000E+00  1.60000000E+01  1.00800000E+00  1.00800000E+00  1.60000000E+01
  1.00800000E+00  1.00800000E+00  1.60000000E+01  1.00800000E+00  1.00800000E+00
  1.60000000E+01  1.00800000E+00  1.00800000E+00  1.60000000E+01  1.00800000E+00
  1.00800000E+00  1.60000000E+01  1.00800000E+00  1.00800000E+00  1.60000000E+01
  1.00800000E+00  1.00800000E+00  1.60000000E+01  1.00800000E+00  1.00800000E+00
  1.60000000E+01  1.00800000E+00  1.00800000E+00  1.60000000E+01  1.00800000E+00
  1.00800000E+00  1.60000000E+01  1.00800000E+00  1.00800000E+00  1.60000000E+01
  1.00800000E+00  1.00800000E+00  1.60000000E+01  1.00800000E+00  1.00800000E+00
  1.60000000E+01  1.00800000E+00  1.00800000E+00  1.60000000E+01  1.00800000E+00
  1.00800000E+00  1.60000000E+01  1.00800000E+00  1.00800000E+00  1.60000000E+01
  1.00800000E+00  1.00800000E+00  1.60000000E+01  1.00800000E+00  1.00800000E+00
  1.60000000E+01  1.00800000E+00  1.00800000E+00  1.60000000E+01  1.00800000E+00
  1.00800000E+00  1.60000000E+01  1.00800000E+00  1.00800000E+00  1.60000000E+01
  1.00800000E+00  1.00800000E+00  1.60000000E+01  1.00800000E+00  1.00800000E+00
  1.60000000E+01  1.00800000E+00  1.00800000E+00  1.60000000E+01  1.00800000E+00
  1.00800000E+00  1.60000000E+01  1.00800000E+00  1.00800000E+00  1.60000000E+01
  1.00800000E+00  1.00800000E+00  1.60000000E+01  1.00800000E+00  1.00800000E+00
  1.60000000E+01  1.00800000E+00  1.00800000E+00  1.60000000E+01  1.00800000E+00
  1.00800000E+00  1.60000000E+01  1.00800000E+00  1.00800000E+00  1.60000000E+01
  1.00800000E+00  1.00800000E+00  1.60000000E+01  1.00800000E+00  1.00800000E+00
  1.60000000E+01  1.00800000E+00  1.00800000E+00  1.60000000E+01  1.00800000E+00
  1.00800000E+00  1.60000000E+01  1.00800000E+00  1.00800000E+00  1.60000000E+01
  1.00800000E+00  1.00800000E+00  1.60000000E+01  1.00800000E+00  1.00800000E+00
  1.60000000E+01  1.00800000E+00  1.00800000E+00  1.60000000E+01  1.00800000E+00
  1.00800000E+00  1.60000000E+01  1.00800000E+00  1.00800000E+00  1.60000000E+01
  1.00800000E+00  1.00800000E+00  1.60000000E+01  1.00800000E+00  1.00800000E+00
  1.60000000E+01  1.00800000E+00  1.00800000E+00  1.60000000E+01  1.00800000E+00
  1.00800000E+00  1.60000000E+01  1.00800000E+00  1.00800000E+00  1.60000000E+01
  1.00800000E+00  1.00800000E+00  1.60000000E+01  1.00800000E+00  1.00800000E+00
  1.60000000E+01  1.00800000E+00  1.00800000E+00  1.60000000E+01  1.00800000E+00
  1.00800000E+00  1.60000000E+01  1.00800000E+00  1.00800000E+00  1.60000000E+01
  1.00800000E+00  1.00800000E+00  1.60000000E+01  1.00800000E+00  1.00800000E+00
  1.60000000E+01  1.00800000E+00  1.00800000E+00  1.60000000E+01  1.00800000E+00
  1.00800000E+00  1.60000000E+01  1.00800000E+00  1.00800000E+00  1.60000000E+01
  1.00800000E+00  1.00800000E+00  1.60000000E+01  1.00800000E+00  1.00800000E+00
  1.60000000E+01  1.00800000E+00  1.00800000E+00  1.60000000E+01  1.00800000E+00
  1.00800000E+00  1.60000000E+01  1.00800000E+00  1.00800000E+00  1.60000000E+01
  1.00800000E+00  1.00800000E+00  1.60000000E+01  1.00800000E+00  1.00800000E+00
  1.60000000E+01  1.00800000E+00  1.00800000E+00  1.60000000E+01  1.00800000E+00
  1.00800000E+00  1.60000000E+01  1.00800000E+00  1.00800000E+00  1.60000000E+01
  1.00800000E+00  1.00800000E+00  1.60000000E+01  1.00800000E+00  1.00800000E+00
  1.60000000E+01  1.00800000E+00  1.00800000E+00  1.60000000E+01  1.00800000E+00
  1.00800000E+00  1.60000000E+01  1.00800000E+00  1.00800000E+00  1.60000000E+01
  1.00800000E+00  1.00800000E+00  1.60000000E+01  1.00800000E+00  1.00800000E+00
  1.60000000E+01  1.00800000E+00  1.00800000E+00  1.60000000E+01  1.00800000E+00
  1.00800000E+00  1.60000000E+01  1.00800000E+00  1.00800000E+00  1.60000000E+01
  1.00800000E+00  1.00800000E+00  1.60000000E+01  1.00800000E+00  1.00800000E+00
  1.60000000E+01  1.00800000E+00  1.00800000E+00  1.60000000E+01  1.00800000E+00
  1.00800000E+00  1.60000000E+01  1.00800000E+00  1.00800000E+00  1.60000000E+01
  1.00800000E+00  1.00800000E+00  1.60000000E+01  1.00800000E+00  1.00800000E+00
  1.60000000E+01  1.00800000E+00  1.00800000E+00  1.60000000E+01  1.00800000E+00
  1.00800000E+00  1.60000000E+01  1.00800000E+00  1.00800000E+00  1.60000000E+01
  1.00800000E+00  1.00800000E+00  1.60000000E+01  1.00800000E+00  1.00800000E+00
  1.60000000E+01  1.00800000E+00  1.00800000E+00  1.60000000E+01  1.00800000E+00
  1.00800000E+00  1.60000000E+01  1.00800000E+00  1.00800000E+00  1.60000000E+01
  1.00800000E+00  1.00800000E+00  1.60000000E+01  1.00800000E+00  1.00800000E+00
  1.60000000E+01  1.00800000E+00  1.00800000E+00  1.60000000E+01  1.00800000E+00
  1.00800000E+00  1.60000000E+01  1.00800000E+00  1.00800000E+00  1.60000000E+01
  1.00800000E+00  1.00800000E+00  1.60000000E+01  1.00800000E+00  1.00800000E+00
  1.60000000E+01  1.00800000E+00  1.00800000E+00  1.60000000E+01  1.00800000E+00
  1.00800000E+00  1.60000000E+01  1.00800000E+00  1.00800000E+00  1.60000000E+01
  1.00800000E+00  1.00800000E+00  1.60000000E+01  1.00800000E+00  1.00800000E+00
  1.60000000E+01  1.00800000E+00  1.00800000E+00  1.60000000E+01  1.00800000E+00
  1.00800000E+00  1.60000000E+01  1.00800000E+00  1.00800000E+00  1.60000000E+01
  1.00800000E+00  1.00800000E+00  1.60000000E+01  1.00800000E+00  1.00800000E+00
  1.60000000E+01  1.00800000E+00  1.00800000E+00  1.60000000E+01  1.00800000E+00
  1.00800000E+00  1.60000000E+01  1.00800000E+00  1.00800000E+00  1.60000000E+01
  1.00800000E+00  1.00800000E+00  1.60000000E+01  1.00800000E+00  1.00800000E+00
  1.60000000E+01  1.00800000E+00  1.00800000E+00  1.60000000E+01  1.00800000E+00
  1.00800000E+00  1.60000000E+01  1.00800000E+00  1.00800000E+00  1.60000000E+01
  1.00800000E+00  1.00800000E+00  1.60000000E+01  1.00800000E+00  1.00800000E+00
  1.60000000E+01  1.00800000E+00  1.00800000E+00  1.60000000E+01  1.00800000E+00
  1.00800000E+00  1.60000000E+01  1.00800000E+00  1.00800000E+00  1.60000000E+01
  1.00800000E+00  1.00800000E+00  1.60000000E+01  1.00800000E+00  1.00800000E+00
  1.60000000E+01  1.00800000E+00  1.00800000E+00  1.60000000E+01  1.00800000E+00
  1.00800000E+00  1.60000000E+01  1.00800000E+00  1.00800000E+00  1.60000000E+01
  1.00800000E+00  1.00800000E+00  1.60000000E+01  1.00800000E+00  1.00800000E+00
  1.60000000E+01  1.00800000E+00  1.00800000E+00  1.60000000E+01  1.00800000E+00
  1.00800000E+00  1.60000000E+01  1.00800000E+00  1.00800000E+00  1.60000000E+01
  1.00800000E+00  1.00800000E+00  1.60000000E+01  1.00800000E+00  1.00800000E+00
  1.60000000E+01  1.00800000E+00  1.00800000E+00  1.60000000E+01  1.00800000E+00
  1.00800000E+00  1.60000000E+01  1.00800000E+00  1.00800000E+00  1.60000000E+01
  1.00800000E+00  1.00800000E+00  1.60000000E+01  1.00800000E+00  1.00800000E+00
  1.60000000E+01  1.00800000E+00  1.00800000E+00  1.60000000E+01  1.00800000E+00
  1.00800000E+00  1.60000000E+01  1.00800000E+00  1.00800000E+00  1.60000000E+01
  1.00800000E+00  1.00800000E+00  1.60000000E+01  1.00800000E+00  1.00800000E+00
  1.60000000E+01  1.00800000E+00  1.00800000E+00  1.60000000E+01  1.00800000E+00
  1.00800000E+00  1.60000000E+01  1.00800000E+00  1.00800000E+00  1.60000000E+01
  1.00800000E+00  1.00800000E+00  1.60000000E+01  1.00800000E+00  1.00800000E+00
  1.60000000E+01  1.00800000E+00  1.00800000E+00  1.60000000E+01  1.00800000E+00
  1.00800000E+00  1.60000000E+01  1.00800000E+00  1.00800000E+00  1.60000000E+01
  1.00800000E+00  1.00800000E+00  1.60000000E+01  1.00800000E+00  1.00800000E+00
  1.60000000E+01  1.00800000E+00  1.00800000E+00  1.60000000E+01  1.00800000E+00
  1.00800000E+00  1.60000000E+01  1.00800000E+00  1.00800000E+00  1.60000000E+01
  1.00800000E+00  1.00800000E+00  1.60000000E+01  1.00800000E+00  1.00800000E+00
  1.60000000E+01  1.00800000E+00  1.00800000E+00  1.60000000E+01  1.00800000E+00
  1.00800000E+00  1.60000000E+01  1.00800000E+00  1.00800000E+00  1.60000000E+01
  1.00800000E+00  1.00800000E+00  1.60000000E+01  1.00800000E+00  1.00800000E+00
  1.60000000E+01  1.00800000E+00  1.00800000E+00  1.60000000E+01  1.00800000E+00
  1.00800000E+00  1.60000000E+01  1.00800000E+00  1.00800000E+00  1.60000000E+01
  1.00800000E+00  1.00800000E+00  1.60000000E+01  1.00800000E+00  1.00800000E+00
  1.60000000E+01  1.00800000E+00  1.00800000E+00  1.60000000E+01  1.00800000E+00
  1.00800000E+00  1.60000000E+01  1.00800000E+00  1.00800000E+00  1.60000000E+01
  1.00800000E+00  1.00800000E+00  1.60000000E+01  1.00800000E+00  1.00800000E+00
  1.60000000E+01  1.00800000E+00  1.00800000E+00  1.60000000E+01  1.00800000E+00
  1.00800000E+00  1.60000000E+01  1.00800000E+00  1.00800000E+00  1.60000000E+01
  1.00800000E+00  1.00800000E+00  1.60000000E+01  1.00800000E+00  1.00800000E+00
  1.60000000E+01  1.00800000E+00  1.00800000E+00  1.60000000E+01  1.00800000E+00
  1.00800000E+00  1.60000000E+01  1.00800000E+00  1.00800000E+00  1.60000000E+01
  1.00800000E+00  1.00800000E+00  1.60000000E+01  1.00800000E+00  1.00800000E+00
  1.60000000E+01  1.00800000E+00  1.00800000E+00  1.60000000E+01  1.00800000E+00
  1.00800000E+00  1.60000000E+01  1.00800000E+00  1.00800000E+00  1.60000000E+01
  1.00800000E+00  1.00800000E+00  1.60000000E+01  1.00800000E+00  1.00800000E+00
  1.60000000E+01  1.00800000E+00  1.00800000E+00  1.60000000E+01  1.00800000E+00
  1.00800000E+00  1.60000000E+01  1.00800000E+00  1.00800000E+00  1.60000000E+01
  1.00800000E+00  1.00800000E+00  1.60000000E+01  1.00800000E+00  1.00800000E+00
  1.60000000E+01  1.00800000E+00  1.00800000E+00  1.60000000E+01  1.00800000E+00
  1.00800000E+00  1.60000000E+01  1.00800000E+00  1.00800000E+00  1.60000000E+01
  1.00800000E+00  1.00800000E+00  1.60000000E+01  1.00800000E+00  1.00800000E+00
  1.60000000E+01  1.00800000E+00  1.00800000E+00  1.60000000E+01  1.00800000E+00
  1.00800000E+00  1.60000000E+01  1.00800000E+00  1.00800000E+00  1.60000000E+01
  1.00800000E+00  1.00800000E+00  1.60000000E+01  1.00800000E+00  1.00800000E+00
  1.60000000E+01  1.00800000E+00  1.00800000E+00  1.60000000E+01  1.00800000E+00
  1.00800000E+00  1.60000000E+01  1.00800000E+00  1.00800000E+00  1.60000000E+01
  1.00800000E+00  1.00800000E+00  1.60000000E+01  1.00800000E+00  1.00800000E+00
  1.60000000E+01  1.00800000E+00  1.00800000E+00  1.60000000E+01  1.00800000E+00
  1.00800000E+00  1.60000000E+01  1.00800000E+00  1.00800000E+00  1.60000000E+01
  1.00800000E+00  1.00800000E+00  1.60000000E+01  1.00800000E+00  1.00800000E+00
  1.60000000E+01  1.00800000E+00  1.00800000E+00  1.60000000E+01  1.00800000E+00
  1.00800000E+00  1.60000000E+01  1.00800000E+00  1.00800000E+00  1.60000000E+01
  1.00800000E+00  1.00800000E+00  1.60000000E+01  1.00800000E+00  1.00800000E+00
  1.60000000E+01  1.00800000E+00  1.00800000E+00  1.60000000E+01  1.00800000E+00
  1.00800000E+00  1.60000000E+01  1.00800000E+00  1.00800000E+00  1.60000000E+01
  1.00800000E+00  1.00800000E+00  1.60000000E+01  1.00800000E+00  1.00800000E+00
  1.60000000E+01  1.00800000E+00  1.00800000E+00  1.60000000E+01  1.00800000E+00
  1.00800000E+00  1.60000000E+01  1.00800000E+00  1.00800000E+00  1.60000000E+01
  1.00800000E+00  1.00800000E+00  1.60000000E+01  1.00800000E+00  1.00800000E+00
  1.60000000E+01  1.00800000E+00  1.00800000E+00  1.60000000E+01  1.00800000E+00
  1.00800000E+00  1.60000000E+01  1.00800000E+00  1.00800000E+00  1.60000000E+01
  1.00800000E+00  1.00800000E+00  1.60000000E+01  1.00800000E+00  1.00800000E+00
  1.60000000E+01  1.00800000E+00  1.00800000E+00  1.60000000E+01  1.00800000E+00
  1.00800000E+00  1.60000000E+01  1.00800000E+00  1.00800000E+00  1.60000000E+01
  1.00800000E+00  1.00800000E+00  1.60000000E+01  1.00800000E+00  1.00800000E+00
  1.60000000E+01  1.00800000E+00  1.00800000E+00  1.60000000E+01  1.00800000E+00
  1.00800000E+00  1.60000000E+01  1.00800000E+00  1.00800000E+00  1.60000000E+01
  1.00800000E+00  1.00800000E+00  1.60000000E+01  1.00800000E+00  1.00800000E+00
  1.60000000E+01  1.00800000E+00  1.00800000E+00  1.60000000E+01  1.00800000E+00
  1.00800000E+00  1.60000000E+01  1.00800000E+00  1.00800000E+00  1.60000000E+01
  1.00800000E+00  1.00800000E+00  1.60000000E+01  1.00800000E+00  1.00800000E+00
  1.60000000E+01  1.00800000E+00  1.00800000E+00  1.60000000E+01  1.00800000E+00
  1.00800000E+00  1.60000000E+01  1.00800000E+00  1.00800000E+00  1.60000000E+01
  1.00800000E+00  1.00800000E+00  1.60000000E+01  1.00800000E+00  1.00800000E+00
  1.60000000E+01  1.00800000E+00  1.00800000E+00  1.60000000E+01  1.00800000E+00
  1.00800000E+00  1.60000000E+01  1.00800000E+00  1.00800000E+00  1.60000000E+01
  1.00800000E+00  1.00800000E+00  1.60000000E+01  1.00800000E+00  1.00800000E+00
  1.60000000E+01  1.00800000E+00  1.00800000E+00  1.60000000E+01  1.00800000E+00
  1.00800000E+00  1.60000000E+01  1.00800000E+00  1.00800000E+00  1.60000000E+01
  1.00800000E+00  1.00800000E+00  1.60000000E+01  1.00800000E+00  1.00800000E+00
  1.60000000E+01  1.00800000E+00  1.00800000E+00  1.60000000E+01  1.00800000E+00
  1.00800000E+00  1.60000000E+01  1.00800000E+00  1.00800000E+00  1.60000000E+01
  1.00800000E+00  1.00800000E+00  1.60000000E+01  1.00800000E+00  1.00800000E+00
  1.60000000E+01  1.00800000E+00  1.00800000E+00  1.60000000E+01  1.00800000E+00
  1.00800000E+00  1.60000000E+01  1.00800000E+00  1.00800000E+00  1.60000000E+01
  1.00800000E+00  1.00800000E+00  1.60000000E+01  1.00800000E+00  1.00800000E+00
  1.60000000E+01  1.00800000E+00  1.00800000E+00  1.60000000E+01  1.00800000E+00
  1.00800000E+00  1.60000000E+01  1.00800000E+00  1.00800000E+00  1.60000000E+01
  1.00800000E+00  1.00800000E+00  1.60000000E+01  1.00800000E+00  1.00800000E+00
  1.60000000E+01  1.00800000E+00  1.00800000E+00  1.60000000E+01  1.00800000E+00
  1.00800000E+00  1.60000000E+01  1.00800000E+00  1.00800000E+00  1.60000000E+01
  1.00800000E+00  1.00800000E+00  1.60000000E+01  1.00800000E+00  1.00800000E+00
  1.60000000E+01  1.00800000E+00  1.00800000E+00  1.60000000E+01  1.00800000E+00
  1.00800000E+00  1.60000000E+01  1.00800000E+00  1.00800000E+00  1.60000000E+01
  1.00800000E+00  1.00800000E+00  1.60000000E+01  1.00800000E+00  1.00800000E+00
  1.60000000E+01  1.00800000E+00  1.00800000E+00  1.60000000E+01  1.00800000E+00
  1.00800000E+00  1.60000000E+01  1.00800000E+00  1.00800000E+00  1.60000000E+01
  1.00800000E+00  1.00800000E+00  1.60000000E+01  1.00800000E+00  1.00800000E+00
  1.60000000E+01  1.00800000E+00  1.00800000E+00  1.60000000E+01  1.00800000E+00
  1.00800000E+00  1.60000000E+01  1.00800000E+00  1.00800000E+00  1.60000000E+01
  1.00800000E+00  1.00800000E+00  1.60000000E+01  1.00800000E+00  1.00800000E+00
  1.60000000E+01  1.00800000E+00  1.00800000E+00  1.60000000E+01  1.00800000E+00
  1.00800000E+00  1.60000000E+01  1.00800000E+00  1.00800000E+00  1.60000000E+01
  1.00800000E+00  1.00800000E+00  1.60000000E+01  1.00800000E+00  1.00800000E+00
  1.60000000E+01  1.00800000E+00  1.00800000E+00  1.60000000E+01  1.00800000E+00
  1.00800000E+00  1.60000000E+01  1.00800000E+00  1.00800000E+00  1.60000000E+01
  1.00800000E+00  1.00800000E+00  1.60000000E+01  1.00800000E+00  1.00800000E+00
  1.60000000E+01  1.00800000E+00  1.00800000E+00  1.60000000E+01  1.00800000E+00
  1.00800000E+00  1.60000000E+01  1.00800000E+00  1.00800000E+00  1.60000000E+01
  1.00800000E+00  1.00800000E+00  1.60000000E+01  1.00800000E+00  1.00800000E+00
  1.60000000E+01  1.00800000E+00  1.00800000E+00  1.60000000E+01  1.00800000E+00
  1.00800000E+00  1.60000000E+01  1.00800000E+00  1.00800000E+00  1.60000000E+01
  1.00800000E+00  1.00800000E+00  1.60000000E+01  1.00800000E+00  1.00800000E+00
  1.60000000E+01  1.00800000E+00  1.00800000E+00  1.60000000E+01  1.00800000E+00
  1.00800000E+00  1.60000000E+01  1.00800000E+00  1.00800000E+00  1.60000000E+01
  1.00800000E+00  1.00800000E+00  1.60000000E+01  1.00800000E+00  1.00800000E+00
  1.60000000E+01  1.00800000E+00  1.00800000E+00  1.60000000E+01  1.00800000E+00
  1.00800000E+00  1.60000000E+01  1.00800000E+00  1.00800000E+00  1.60000000E+01
  1.00800000E+00  1.00800000E+00  1.60000000E+01  1.00800000E+00  1.00800000E+00
  1.60000000E+01  1.00800000E+00  1.00800000E+00  1.60000000E+01  1.00800000E+00
  1.00800000E+00  1.60000000E+01  1.00800000E+00  1.00800000E+00  1.60000000E+01
  1.00800000E+00  1.00800000E+00  1.60000000E+01  1.00800000E+00  1.00800000E+00
  1.60000000E+01  1.00800000E+00  1.00800000E+00  1.60000000E+01  1.00800000E+00
  1.00800000E+00  1.60000000E+01  1.00800000E+00  1.00800000E+00  1.60000000E+01
  1.00800000E+00  1.00800000E+00  1.60000000E+01  1.00800000E+00  1.00800000E+00
  1.60000000E+01  1.00800000E+00  1.00800000E+00  1.60000000E+01  1.00800000E+00
  1.00800000E+00  1.60000000E+01  1.00800000E+00  1.00800000E+00  1.60000000E+01
  1.00800000E+00  1.00800000E+00  1.60000000E+01  1.00800000E+00  1.00800000E+00
  1.60000000E+01  1.00800000E+00  1.00800000E+00  1.60000000E+01  1.00800000E+00
  1.00800000E+00  1.60000000E+01  1.00800000E+00  1.00800000E+00  1.60000000E+01
  1.00800000E+00  1.00800000E+00  1.60000000E+01  1.00800000E+00  1.00800000E+00
  1.60000000E+01  1.00800000E+00  1.00800000E+00  1.60000000E+01  1.00800000E+00
  1.00800000E+00  1.60000000E+01  1.00800000E+00  1.00800000E+00  1.60000000E+01
  1.00800000E+00  1.00800000E+00  1.60000000E+01  1.00800000E+00  1.00800000E+00
  1.60000000E+01  1.00800000E+00  1.00800000E+00  1.60000000E+01  1.00800000E+00
  1.00800000E+00  1.60000000E+01  1.00800000E+00  1.00800000E+00  1.60000000E+01
  1.00800000E+00  1.00800000E+00  1.60000000E+01  1.00800000E+00  1.00800000E+00
  1.60000000E+01  1.00800000E+00  1.00800000E+00  1.60000000E+01  1.00800000E+00
  1.00800000E+00  1.60000000E+01  1.00800000E+00  1.00800000E+00  1.60000000E+01
  1.00800000E+00  1.00800000E+00  1.60000000E+01  1.00800000E+00  1.00800000E+00
  1.60000000E+01  1.00800000E+00  1.00800000E+00  1.60000000E+01  1.00800000E+00
  1.00800000E+00  1.60000000E+01  1.00800000E+00  1.00800000E+00  1.60000000E+01
  1.00800000E+00  1.00800000E+00  1.60000000E+01  1.00800000E+00  1.00800000E+00
  1.60000000E+01  1.00800000E+00  1.00800000E+00  1.60000000E+01  1.00800000E+00
  1.00800000E+00  1.60000000E+01  1.00800000E+00  1.00800000E+00  1.60000000E+01
  1.00800000E+00  1.00800000E+00  1.60000000E+01  1.00800000E+00  1.00800000E+00
  1.60000000E+01  1.00800000E+00  1.00800000E+00  1.60000000E+01  1.00800000E+00
  1.00800000E+00  1.60000000E+01  1.00800000E+00  1.00800000E+00  1.60000000E+01
  1.00800000E+00  1.00800000E+00  1.60000000E+01  1.00800000E+00  1.00800000E+00
  1.60000000E+01  1.00800000E+00  1.00800000E+00  1.60000000E+01  1.00800000E+00
  1.00800000E+00  1.60000000E+01  1.00800000E+00  1.00800000E+00  1.60000000E+01
  1.00800000E+00  1.00800000E+00  1.60000000E+01  1.00800000E+00  1.00800000E+00
  1.60000000E+01  1.00800000E+00  1.00800000E+00  1.60000000E+01  1.00800000E+00
  1.00800000E+00  1.60000000E+01  1.00800000E+00  1.00800000E+00  1.60000000E+01
  1.00800000E+00  1.00800000E+00  1.60000000E+01  1.00800000E+00  1.00800000E+00
  1.60000000E+01  1.00800000E+00  1.00800000E+00  1.60000000E+01  1.00800000E+00
  1.00800000E+00  1.60000000E+01  1.00800000E+00  1.00800000E+00  1.60000000E+01
  1.00800000E+00  1.00800000E+00  1.60000000E+01  1.00800000E+00  1.00800000E+00
  1.60000000E+01  1.00800000E+00  1.00800000E+00  1.60000000E+01  1.00800000E+00
  1.00800000E+00  1.60000000E+01  1.00800000E+00  1.00800000E+00  1.60000000E+01
  1.00800000E+00  1.00800000E+00  1.60000000E+01  1.00800000E+00  1.00800000E+00
  1.60000000E+01  1.00800000E+00  1.00800000E+00  1.60000000E+01  1.00800000E+00
  1.00800000E+00  1.60000000E+01  1.00800000E+00  1.00800000E+00  1.60000000E+01
  1.00800000E+00  1.00800000E+00  1.60000000E+01  1.00800000E+00  1.00800000E+00
  1.60000000E+01  1.00800000E+00  1.00800000E+00  1.60000000E+01  1.00800000E+00
  1.00800000E+00  1.60000000E+01  1.00800000E+00  1.00800000E+00  1.60000000E+01
  1.00800000E+00  1.00800000E+00  1.60000000E+01  1.00800000E+00  1.00800000E+00
  1.60000000E+01  1.00800000E+00  1.00800000E+00  1.60000000E+01  1.00800000E+00
  1.00800000E+00  1.60000000E+01  1.00800000E+00  1.00800000E+00  1.60000000E+01
  1.00800000E+00  1.00800000E+00  1.60000000E+01  1.00800000E+00  1.00800000E+00
  1.60000000E+01  1.00800000E+00  1.00800000E+00  1.60000000E+01  1.00800000E+00
  1.00800000E+00  1.60000000E+01  1.00800000E+00  1.00800000E+00  1.60000000E+01
  1.00800000E+00  1.00800000E+00  1.60000000E+01  1.00800000E+00  1.00800000E+00
  1.60000000E+01  1.00800000E+00  1.00800000E+00  1.60000000E+01  1.00800000E+00
  1.00800000E+00  1.60000000E+01  1.00800000E+00  1.00800000E+00  1.60000000E+01
  1.00800000E+00  1.00800000E+00  1.60000000E+01  1.00800000E+00  1.00800000E+00
  1.60000000E+01  1.00800000E+00  1.00800000E+00  1.60000000E+01  1.00800000E+00
  1.00800000E+00  1.60000000E+01  1.00800000E+00  1.00800000E+00  1.60000000E+01
  1.00800000E+00  1.00800000E+00  1.60000000E+01  1.00800000E+00  1.00800000E+00
  1.60000000E+01  1.00800000E+00  1.00800000E+00  1.60000000E+01  1.00800000E+00
  1.00800000E+00  1.60000000E+01  1.00800000E+00  1.00800000E+00  1.60000000E+01
  1.00800000E+00  1.00800000E+00  1.60000000E+01  1.00800000E+00  1.00800000E+00
  1.60000000E+01  1.00800000E+00  1.00800000E+00  1.60000000E+01  1.00800000E+00
  1.00800000E+00  1.60000000E+01  1.00800000E+00  1.00800000E+00  1.60000000E+01
  1.00800000E+00  1.00800000E+00  1.60000000E+01  1.00800000E+00  1.00800000E+00
  1.60000000E+01  1.00800000E+00  1.00800000E+00  1.60000000E+01  1.00800000E+00
  1.00800000E+00  1.60000000E+01  1.00800000E+00  1.00800000E+00  1.60000000E+01
  1.00800000E+00  1.00800000E+00  1.60000000E+01  1.00800000E+00  1.00800000E+00
  1.60000000E+01  1.00800000E+00  1.00800000E+00  1.60000000E+01  1.00800000E+00
  1.00800000E+00  1.60000000E+01  1.00800000E+00  1.00800000E+00  1.60000000E+01
  1.00800000E+00  1.00800000E+00  1.60000000E+01  1.00800000E+00  1.00800000E+00
  1.60000000E+01  1.00800000E+00  1.00800000E+00  1.60000000E+01  1.00800000E+00
  1.00800000E+00  1.60000000E+01  1.00800000E+00  1.00800000E+00  1.60000000E+01
  1.00800000E+00  1.00800000E+00  1.60000000E+01  1.00800000E+00  1.00800000E+00
  1.60000000E+01  1.00800000E+00  1.00800000E+00  1.60000000E+01  1.00800000E+00
  1.00800000E+00  1.60000000E+01  1.00800000E+00  1.00800000E+00  1.60000000E+01
  1.00800000E+00  1.00800000E+00  1.60000000E+01  1.00800000E+00  1.00800000E+00
  1.60000000E+01  1.00800000E+00  1.00800000E+00  1.60000000E+01  1.00800000E+00
  1.00800000E+00  1.60000000E+01  1.00800000E+00  1.00800000E+00  1.60000000E+01
  1.00800000E+00  1.00800000E+00  1.60000000E+01  1.00800000E+00  1.00800000E+00
  1.60000000E+01  1.00800000E+00  1.00800000E+00  1.60000000E+01  1.00800000E+00
  1.00800000E+00  1.60000000E+01  1.00800000E+00  1.00800000E+00  1.60000000E+01
  1.00800000E+00  1.00800000E+00  1.60000000E+01  1.00800000E+00  1.00800000E+00
  1.60000000E+01  1.00800000E+00  1.00800000E+00  1.60000000E+01  1.00800000E+00
  1.00800000E+00  1.60000000E+01  1.00800000E+00  1.00800000E+00  1.60000000E+01
  1.00800000E+00  1.00800000E+00  1.60000000E+01  1.00800000E+00  1.00800000E+00
  1.60000000E+01  1.00800000E+00  1.00800000E+00  1.60000000E+01  1.00800000E+00
  1.00800000E+00  1.60000000E+01  1.00800000E+00  1.00800000E+00  1.60000000E+01
  1.00800000E+00  1.00800000E+00  1.60000000E+01  1.00800000E+00  1.00800000E+00
  1.60000000E+01  1.00800000E+00  1.00800000E+00  1.60000000E+01  1.00800000E+00
  1.00800000E+00  1.60000000E+01  1.00800000E+00  1.00800000E+00  1.60000000E+01
  1.00800000E+00  1.00800000E+00  1.60000000E+01  1.00800000E+00  1.00800000E+00
  1.60000000E+01  1.00800000E+00  1.00800000E+00  1.60000000E+01  1.00800000E+00
  1.00800000E+00  1.60000000E+01  1.00800000E+00  1.00800000E+00  1.60000000E+01
  1.00800000E+00  1.00800000E+00  1.60000000E+01  1.00800000E+00  1.00800000E+00
  1.60000000E+01  1.00800000E+00  1.00800000E+00  1.60000000E+01  1.00800000E+00
  1.00800000E+00  1.60000000E+01  1.00800000E+00  1.00800000E+00  1.60000000E+01
  1.00800000E+00  1.00800000E+00  1.60000000E+01  1.00800000E+00  1.00800000E+00
  1.60000000E+01  1.00800000E+00  1.00800000E+00  1.60000000E+01  1.00800000E+00
  1.00800000E+00  1.60000000E+01  1.00800000E+00  1.00800000E+00  1.60000000E+01
  1.00800000E+00  1.00800000E+00  1.60000000E+01  1.00800000E+00  1.00800000E+00
  1.60000000E+01  1.00800000E+00  1.00800000E+00  1.60000000E+01  1.00800000E+00
  1.00800000E+00  1.60000000E+01  1.00800000E+00  1.00800000E+00  1.60000000E+01
  1.00800000E+00  1.00800000E+00  1.60000000E+01  1.00800000E+00  1.00800000E+00
  1.60000000E+01  1.00800000E+00  1.00800000E+00  1.60000000E+01  1.00800000E+00
  1.00800000E+00  1.60000000E+01  1.00800000E+00  1.00800000E+00  1.60000000E+01
  1.00800000E+00  1.00800000E+00  1.60000000E+01  1.00800000E+00  1.00800000E+00
  1.60000000E+01  1.00800000E+00  1.00800000E+00  1.60000000E+01  1.00800000E+00
  1.00800000E+00  1.60000000E+01  1.00800000E+00  1.00800000E+00  1.60000000E+01
  1.00800000E+00  1.00800000E+00  1.60000000E+01  1.00800000E+00  1.00800000E+00
  1.60000000E+01  1.00800000E+00  1.00800000E+00  1.60000000E+01  1.00800000E+00
  1.00800000E+00  1.60000000E+01  1.00800000E+00  1.00800000E+00  1.60000000E+01
  1.00800000E+00  1.00800000E+00  1.60000000E+01  1.00800000E+00  1.00800000E+00
  1.60000000E+01  1.00800000E+00  1.00800000E+00  1.60000000E+01  1.00800000E+00
  1.00800000E+00  1.60000000E+01  1.00800000E+00  1.00800000E+00  1.60000000E+01
  1.00800000E+00  1.00800000E+00  1.60000000E+01  1.00800000E+00  1.00800000E+00
  1.60000000E+01  1.00800000E+00  1.00800000E+00  1.60000000E+01  1.00800000E+00
  1.00800000E+00  1.60000000E+01  1.00800000E+00  1.00800000E+00  1.60000000E+01
  1.00800000E+00  1.00800000E+00  1.60000000E+01  1.00800000E+00  1.00800000E+00
  1.60000000E+01  1.00800000E+00  1.00800000E+00  1.60000000E+01  1.00800000E+00
  1.00800000E+00  1.60000000E+01  1.00800000E+00  1.00800000E+00  1.60000000E+01
  1.00800000E+00  1.00800000E+00  1.60000000E+01  1.00800000E+00  1.00800000E+00
  1.60000000E+01  1.00800000E+00  1.00800000E+00  1.60000000E+01  1.00800000E+00
  1.00800000E+00  1.60000000E+01  1.00800000E+00  1.00800000E+00  1.60000000E+01
  1.00800000E+00  1.00800000E+00  1.60000000E+01  1.00800000E+00  1.00800000E+00
  1.60000000E+01  1.00800000E+00  1.00800000E+00  1.60000000E+01  1.00800000E+00
  1.00800000E+00  1.60000000E+01  1.00800000E+00  1.00800000E+00  1.60000000E+01
  1.00800000E+00  1.00800000E+00  1.60000000E+01  1.00800000E+00  1.00800000E+00
  1.60000000E+01  1.00800000E+00  1.00800000E+00  1.60000000E+01  1.00800000E+00
  1.00800000E+00  1.60000000E+01  1.00800000E+00  1.00800000E+00  1.60000000E+01
  1.00800000E+00  1.00800000E+00  1.60000000E+01  1.00800000E+00  1.00800000E+00
  1.60000000E+01  1.00800000E+00  1.00800000E+00  1.60000000E+01  1.00800000E+00
  1.00800000E+00  1.60000000E+01  1.00800000E+00  1.00800000E+00  1.60000000E+01
  1.00800000E+00  1.00800000E+00  1.60000000E+01  1.00800000E+00  1.00800000E+00
  1.60000000E+01  1.00800000E+00  1.00800000E+00  1.60000000E+01  1.00800000E+00
  1.00800000E+00  1.60000000E+01  1.00800000E+00  1.00800000E+00  1.60000000E+01
  1.00800000E+00  1.00800000E+00  1.60000000E+01  1.00800000E+00  1.00800000E+00
  1.60000000E+01  1.00800000E+00  1.00800000E+00  1.60000000E+01  1.00800000E+00
  1.00800000E+00  1.60000000E+01  1.00800000E+00  1.00800000E+00  1.60000000E+01
  1.00800000E+00  1.00800000E+00  1.60000000E+01  1.00800000E+00  1.00800000E+00
  1.60000000E+01  1.00800000E+00  1.00800000E+00  1.60000000E+01  1.00800000E+00
  1.00800000E+00  1.60000000E+01  1.00800000E+00  1.00800000E+00  1.60000000E+01
  1.00800000E+00  1.00800000E+00  1.60000000E+01  1.00800000E+00  1.00800000E+00
  1.60000000E+01  1.00800000E+00  1.00800000E+00  1.60000000E+01  1.00800000E+00
  1.00800000E+00  1.60000000E+01  1.00800000E+00  1.00800000E+00  1.60000000E+01
  1.00800000E+00  1.00800000E+00  1.60000000E+01  1.00800000E+00  1.00800000E+00
  1.60000000E+01  1.00800000E+00  1.00800000E+00  1.60000000E+01  1.00800000E+00
  1.00800000E+00  1.60000000E+01  1.00800000E+00  1.00800000E+00  1.60000000E+01
  1.00800000E+00  1.00800000E+00  1.60000000E+01  1.00800000E+00  1.00800000E+00
  1.60000000E+01  1.00800000E+00  1.00800000E+00  1.60000000E+01  1.00800000E+00
  1.00800000E+00  1.60000000E+01  1.00800000E+00  1.00800000E+00  1.60000000E+01
  1.00800000E+00  1.00800000E+00  1.60000000E+01  1.00800000E+00  1.00800000E+00
  1.60000000E+01  1.00800000E+00  1.00800000E+00  1.60000000E+01  1.00800000E+00
  1.00800000E+00  1.60000000E+01  1.00800000E+00  1.00800000E+00  1.60000000E+01
  1.00800000E+00  1.00800000E+00  1.60000000E+01  1.00800000E+00  1.00800000E+00
  1.60000000E+01  1.00800000E+00  1.00800000E+00  1.60000000E+01  1.00800000E+00
  1.00800000E+00  1.60000000E+01  1.00800000E+00  1.00800000E+00  1.60000000E+01
  1.00800000E+00  1.00800000E+00  1.60000000E+01  1.00800000E+00  1.00800000E+00
  1.60000000E+01  1.00800000E+00  1.00800000E+00  1.60000000E+01  1.00800000E+00
  1.00800000E+00  1.60000000E+01  1.00800000E+00  1.00800000E+00  1.60000000E+01
  1.00800000E+00  1.00800000E+00  1.60000000E+01  1.00800000E+00  1.00800000E+00
  1.60000000E+01  1.00800000E+00  1.00800000E+00  1.60000000E+01  1.00800000E+00
  1.00800000E+00  1.60000000E+01  1.00800000E+00  1.00800000E+00  1.60000000E+01
  1.00800000E+00  1.00800000E+00  1.60000000E+01  1.00800000E+00  1.00800000E+00
  1.60000000E+01  1.00800000E+00  1.00800000E+00  1.60000000E+01  1.00800000E+00
  1.00800000E+00  1.60000000E+01  1.00800000E+00  1.00800000E+00  1.60000000E+01
  1.00800000E+00  1.00800000E+00  1.60000000E+01  1.00800000E+00  1.00800000E+00
  1.60000000E+01  1.00800000E+00  1.00800000E+00  1.60000000E+01  1.00800000E+00
  1.00800000E+00  1.60000000E+01  1.00800000E+00  1.00800000E+00  1.60000000E+01
  1.00800000E+00  1.00800000E+00  1.60000000E+01  1.00800000E+00  1.00800000E+00
  1.60000000E+01  1.00800000E+00  1.00800000E+00  1.60000000E+01  1.00800000E+00
  1.00800000E+00  1.60000000E+01  1.00800000E+00  1.00800000E+00  1.60000000E+01
  1.00800000E+00  1.00800000E+00  1.60000000E+01  1.00800000E+00  1.00800000E+00
  1.60000000E+01  1.00800000E+00  1.00800000E+00  1.60000000E+01  1.00800000E+00
  1.00800000E+00  1.60000000E+01  1.00800000E+00  1.00800000E+00  1.60000000E+01
  1.00800000E+00  1.00800000E+00  1.60000000E+01  1.00800000E+00  1.00800000E+00
  1.60000000E+01  1.00800000E+00  1.00800000E+00  1.60000000E+01  1.00800000E+00
  1.00800000E+00  1.60000000E+01  1.00800000E+00  1.00800000E+00  1.60000000E+01
  1.00800000E+00  1.00800000E+00  1.60000000E+01  1.00800000E+00  1.00800000E+00
  1.60000000E+01  1.00800000E+00  1.00800000E+00  1.60000000E+01  1.00800000E+00
  1.00800000E+00  1.60000000E+01  1.00800000E+00  1.00800000E+00  1.60000000E+01
  1.00800000E+00  1.00800000E+00  1.60000000E+01  1.00800000E+00  1.00800000E+00
  1.60000000E+01  1.00800000E+00  1.00800000E+00  1.60000000E+01  1.00800000E+00
  1.00800000E+00  1.60000000E+01  1.00800000E+00  1.00800000E+00  1.60000000E+01
  1.00800000E+00  1.00800000E+00  1.60000000E+01  1.00800000E+00  1.00800000E+00
  1.60000000E+01  1.00800000E+00  1.00800000E+00  1.60000000E+01  1.00800000E+00
  1.00800000E+00  1.60000000E+01  1.00800000E+00  1.00800000E+00  1.60000000E+01
  1.00800000E+00  1.00800000E+00  1.60000000E+01  1.00800000E+00  1.00800000E+00
  1.60000000E+01  1.00800000E+00  1.00800000E+00  1.60000000E+01  1.00800000E+00
  1.00800000E+00  1.60000000E+01  1.00800000E+00  1.00800000E+00  1.60000000E+01
  1.00800000E+00  1.00800000E+00  1.60000000E+01  1.00800000E+00  1.00800000E+00
  1.60000000E+01  1.00800000E+00  1.00800000E+00  1.60000000E+01  1.00800000E+00
  1.00800000E+00  1.60000000E+01  1.00800000E+00  1.00800000E+00  1.60000000E+01
  1.00800000E+00  1.00800000E+00  1.60000000E+01  1.00800000E+00  1.00800000E+00
  1.60000000E+01  1.00800000E+00  1.00800000E+00  1.60000000E+01  1.00800000E+00
  1.00800000E+00  1.60000000E+01  1.00800000E+00  1.00800000E+00  1.60000000E+01
  1.00800000E+00  1.00800000E+00  1.60000000E+01  1.00800000E+00  1.00800000E+00
  1.60000000E+01  1.00800000E+00  1.00800000E+00  1.60000000E+01  1.00800000E+00
  1.00800000E+00  1.60000000E+01  1.00800000E+00  1.00800000E+00  1.60000000E+01
  1.00800000E+00  1.00800000E+00  1.60000000E+01  1.00800000E+00  1.00800000E+00
  1.60000000E+01  1.00800000E+00  1.00800000E+00  1.60000000E+01  1.00800000E+00
  1.00800000E+00  1.60000000E+01  1.00800000E+00  1.00800000E+00  1.60000000E+01
  1.00800000E+00  1.00800000E+00  1.60000000E+01  1.00800000E+00  1.00800000E+00
  1.60000000E+01  1.00800000E+00  1.00800000E+00  1.60000000E+01  1.00800000E+00
  1.00800000E+00  1.60000000E+01  1.00800000E+00  1.00800000E+00  1.60000000E+01
  1.00800000E+00  1.00800000E+00  1.60000000E+01  1.00800000E+00  1.00800000E+00
  1.60000000E+01  1.00800000E+00  1.00800000E+00  1.60000000E+01  1.00800000E+00
  1.00800000E+00  1.60000000E+01  1.00800000E+00  1.00800000E+00  1.60000000E+01
  1.00800000E+00  1.00800000E+00  1.60000000E+01  1.00800000E+00  1.00800000E+00
  1.60000000E+01  1.00800000E+00  1.00800000E+00  1.60000000E+01  1.00800000E+00
  1.00800000E+00  1.60000000E+01  1.00800000E+00  1.00800000E+00  1.60000000E+01
  1.00800000E+00  1.00800000E+00  1.60000000E+01  1.00800000E+00  1.00800000E+00
  1.60000000E+01  1.00800000E+00  1.00800000E+00  1.60000000E+01  1.00800000E+00
  1.00800000E+00  1.60000000E+01  1.00800000E+00  1.00800000E+00  1.60000000E+01
  1.00800000E+00  1.00800000E+00  1.60000000E+01  1.00800000E+00  1.00800000E+00
  1.60000000E+01  1.00800000E+00  1.00800000E+00  1.60000000E+01  1.00800000E+00
  1.00800000E+00  1.60000000E+01  1.00800000E+00  1.00800000E+00  1.60000000E+01
  1.00800000E+00  1.00800000E+00  1.60000000E+01  1.00800000E+00  1.00800000E+00
  1.60000000E+01  1.00800000E+00  1.00800000E+00  1.60000000E+01  1.00800000E+00
  1.00800000E+00  1.60000000E+01  1.00800000E+00  1.00800000E+00  1.60000000E+01
  1.00800000E+00  1.00800000E+00  1.60000000E+01  1.00800000E+00  1.00800000E+00
  1.60000000E+01  1.00800000E+00  1.00800000E+00  1.60000000E+01  1.00800000E+00
  1.00800000E+00  1.60000000E+01  1.00800000E+00  1.00800000E+00  1.60000000E+01
  1.00800000E+00  1.00800000E+00  1.60000000E+01  1.00800000E+00  1.00800000E+00
  1.60000000E+01  1.00800000E+00  1.00800000E+00  1.60000000E+01  1.00800000E+00
  1.00800000E+00  1.60000000E+01  1.00800000E+00  1.00800000E+00  1.60000000E+01
  1.00800000E+00  1.00800000E+00  1.60000000E+01  1.00800000E+00  1.00800000E+00
  1.60000000E+01  1.00800000E+00  1.00800000E+00  1.60000000E+01  1.00800000E+00
  1.00800000E+00  1.60000000E+01  1.00800000E+00  1.00800000E+00  1.60000000E+01
  1.00800000E+00  1.00800000E+00  1.60000000E+01  1.00800000E+00  1.00800000E+00
  1.60000000E+01  1.00800000E+00  1.00800000E+00  1.60000000E+01  1.00800000E+00
  1.00800000E+00  1.60000000E+01  1.00800000E+00  1.00800000E+00  1.60000000E+01
  1.00800000E+00  1.00800000E+00  1.60000000E+01  1.00800000E+00  1.00800000E+00
  1.60000000E+01  1.00800000E+00  1.00800000E+00  1.60000000E+01  1.00800000E+00
  1.00800000E+00  1.60000000E+01  1.00800000E+00  1.00800000E+00  1.60000000E+01
  1.00800000E+00  1.00800000E+00  1.60000000E+01  1.00800000E+00  1.00800000E+00
  1.60000000E+01  1.00800000E+00  1.00800000E+00  1.60000000E+01  1.00800000E+00
  1.00800000E+00  1.60000000E+01  1.00800000E+00  1.00800000E+00  1.60000000E+01
  1.00800000E+00  1.00800000E+00  1.60000000E+01  1.00800000E+00  1.00800000E+00
  1.60000000E+01  1.00800000E+00  1.00800000E+00  1.60000000E+01  1.00800000E+00
  1.00800000E+00  1.60000000E+01  1.00800000E+00  1.00800000E+00  1.60000000E+01
  1.00800000E+00  1.00800000E+00  1.60000000E+01  1.00800000E+00  1.00800000E+00
  1.60000000E+01  1.00800000E+00  1.00800000E+00  1.60000000E+01  1.00800000E+00
  1.00800000E+00  1.60000000E+01  1.00800000E+00  1.00800000E+00  1.60000000E+01
  1.00800000E+00  1.00800000E+00  1.60000000E+01  1.00800000E+00  1.00800000E+00
  1.60000000E+01  1.00800000E+00  1.00800000E+00  1.60000000E+01  1.00800000E+00
  1.00800000E+00  1.60000000E+01  1.00800000E+00  1.00800000E+00  1.60000000E+01
  1.00800000E+00  1.00800000E+00  1.60000000E+01  1.00800000E+00  1.00800000E+00
  1.60000000E+01  1.00800000E+00  1.00800000E+00  1.60000000E+01  1.00800000E+00
  1.00800000E+00  1.60000000E+01  1.00800000E+00  1.00800000E+00  1.60000000E+01
  1.00800000E+00  1.00800000E+00  1.60000000E+01  1.00800000E+00  1.00800000E+00
  1.60000000E+01  1.00800000E+00  1.00800000E+00  1.60000000E+01  1.00800000E+00
  1.00800000E+00  1.60000000E+01  1.00800000E+00  1.00800000E+00  1.60000000E+01
  1.00800000E+00  1.00800000E+00  1.60000000E+01  1.00800000E+00  1.00800000E+00
  1.60000000E+01  1.00800000E+00  1.00800000E+00  1.60000000E+01  1.00800000E+00
  1.00800000E+00  1.60000000E+01  1.00800000E+00  1.00800000E+00  1.60000000E+01
  1.00800000E+00  1.00800000E+00  1.60000000E+01  1.00800000E+00  1.00800000E+00
  1.60000000E+01  1.00800000E+00  1.00800000E+00  1.60000000E+01  1.00800000E+00
  1.00800000E+00  1.60000000E+01  1.00800000E+00  1.00800000E+00  1.60000000E+01
  1.00800000E+00  1.00800000E+00  1.60000000E+01  1.00800000E+00  1.00800000E+00
  1.60000000E+01  1.00800000E+00  1.00800000E+00  1.60000000E+01  1.00800000E+00
  1.00800000E+00  1.60000000E+01  1.00800000E+00  1.00800000E+00  1.60000000E+01
  1.00800000E+00  1.00800000E+00  1.60000000E+01  1.00800000E+00  1.00800000E+00
  1.60000000E+01  1.00800000E+00  1.00800000E+00  1.60000000E+01  1.00800000E+00
  1.00800000E+00  1.60000000E+01  1.00800000E+00  1.00800000E+00  1.60000000E+01
  1.00800000E+00  1.00800000E+00  1.60000000E+01  1.00800000E+00  1.00800000E+00
  1.60000000E+01  1.00800000E+00  1.00800000E+00  1.60000000E+01  1.00800000E+00
  1.00800000E+00  1.60000000E+01  1.00800000E+00  1.00800000E+00  1.60000000E+01
  1.00800000E+00  1.00800000E+00  1.60000000E+01  1.00800000E+00  1.00800000E+00
  1.60000000E+01  1.00800000E+00  1.00800000E+00  1.60000000E+01  1.00800000E+00
  1.00800000E+00  1.60000000E+01  1.00800000E+00  1.00800000E+00  1.60000000E+01
  1.00800000E+00  1.00800000E+00  1.60000000E+01  1.00800000E+00  1.00800000E+00
  1.60000000E+01  1.00800000E+00  1.00800000E+00  1.60000000E+01  1.00800000E+00
  1.00800000E+00  1.60000000E+01  1.00800000E+00  1.00800000E+00  1.60000000E+01
  1.00800000E+00  1.00800000E+00  1.60000000E+01  1.00800000E+00  1.00800000E+00
  1.60000000E+01  1.00800000E+00  1.00800000E+00  1.60000000E+01  1.00800000E+00
  1.00800000E+00  1.60000000E+01  1.00800000E+00  1.00800000E+00  1.60000000E+01
  1.00800000E+00  1.00800000E+00  1.60000000E+01  1.00800000E+00  1.00800000E+00
  1.60000000E+01  1.00800000E+00  1.00800000E+00  1.60000000E+01  1.00800000E+00
  1.00800000E+00  1.60000000E+01  1.00800000E+00  1.00800000E+00  1.60000000E+01
  1.00800000E+00  1.00800000E+00  1.60000000E+01  1.00800000E+00  1.00800000E+00
  1.60000000E+01  1.00800000E+00  1.00800000E+00  1.60000000E+01  1.00800000E+00
  1.00800000E+00  1.60000000E+01  1.00800000E+00  1.00800000E+00  1.60000000E+01
  1.00800000E+00  1.00800000E+00  1.60000000E+01  1.00800000E+00  1.00800000E+00
  1.60000000E+01  1.00800000E+00  1.00800000E+00  1.60000000E+01  1.00800000E+00
  1.00800000E+00  1.60000000E+01  1.00800000E+00  1.00800000E+00  1.60000000E+01
  1.00800000E+00  1.00800000E+00  1.60000000E+01  1.00800000E+00  1.00800000E+00
  1.60000000E+01  1.00800000E+00  1.00800000E+00  1.60000000E+01  1.00800000E+00
  1.00800000E+00  1.60000000E+01  1.00800000E+00  1.00800000E+00  1.60000000E+01
  1.00800000E+00  1.00800000E+00  1.60000000E+01  1.00800000E+00  1.00800000E+00
  1.60000000E+01  1.00800000E+00  1.00800000E+00  1.60000000E+01  1.00800000E+00
  1.00800000E+00  1.60000000E+01  1.00800000E+00  1.00800000E+00  1.60000000E+01
  1.00800000E+00  1.00800000E+00  1.60000000E+01  1.00800000E+00  1.00800000E+00
  1.60000000E+01  1.00800000E+00  1.00800000E+00  1.60000000E+01  1.00800000E+00
  1.00800000E+00  1.60000000E+01  1.00800000E+00  1.00800000E+00  1.60000000E+01
  1.00800000E+00  1.00800000E+00  1.60000000E+01  1.00800000E+00  1.00800000E+00
  1.60000000E+01  1.00800000E+00  1.00800000E+00  1.60000000E+01  1.00800000E+00
  1.00800000E+00  1.60000000E+01  1.00800000E+00  1.00800000E+00  1.60000000E+01
  1.00800000E+00  1.00800000E+00  1.60000000E+01  1.00800000E+00  1.00800000E+00
  1.60000000E+01  1.00800000E+00  1.00800000E+00  1.60000000E+01  1.00800000E+00
  1.00800000E+00  1.60000000E+01  1.00800000E+00  1.00800000E+00  1.60000000E+01
  1.00800000E+00  1.00800000E+00  1.60000000E+01  1.00800000E+00  1.00800000E+00
  1.60000000E+01  1.00800000E+00  1.00800000E+00  1.60000000E+01  1.00800000E+00
  1.00800000E+00  1.60000000E+01  1.00800000E+00  1.00800000E+00  1.60000000E+01
  1.00800000E+00  1.00800000E+00  1.60000000E+01  1.00800000E+00  1.00800000E+00
  1.60000000E+01  1.00800000E+00  1.00800000E+00  1.60000000E+01  1.00800000E+00
  1.00800000E+00  1.60000000E+01  1.00800000E+00  1.00800000E+00  1.60000000E+01
  1.00800000E+00  1.00800000E+00  1.60000000E+01  1.00800000E+00  1.00800000E+00
  1.60000000E+01  1.00800000E+00  1.00800000E+00  1.60000000E+01  1.00800000E+00
  1.00800000E+00  1.60000000E+01  1.00800000E+00  1.00800000E+00  1.60000000E+01
  1.00800000E+00  1.00800000E+00  1.60000000E+01  1.00800000E+00  1.00800000E+00
  1.60000000E+01  1.00800000E+00  1.00800000E+00  1.60000000E+01  1.00800000E+00
  1.00800000E+00  1.60000000E+01  1.00800000E+00  1.00800000E+00  1.60000000E+01
  1.00800000E+00  1.00800000E+00  1.60000000E+01  1.00800000E+00  1.00800000E+00
  1.60000000E+01  1.00800000E+00  1.00800000E+00  1.60000000E+01  1.00800000E+00
  1.00800000E+00  1.60000000E+01  1.00800000E+00  1.00800000E+00  1.60000000E+01
  1.00800000E+00  1.00800000E+00  1.60000000E+01  1.00800000E+00  1.00800000E+00
  1.60000000E+01  1.00800000E+00  1.00800000E+00  1.60000000E+01  1.00800000E+00
  1.00800000E+00  1.60000000E+01  1.00800000E+00  1.00800000E+00  1.60000000E+01
  1.00800000E+00  1.00800000E+00  1.60000000E+01  1.00800000E+00  1.00800000E+00
  1.60000000E+01  1.00800000E+00  1.00800000E+00  1.60000000E+01  1.00800000E+00
  1.00800000E+00  1.60000000E+01  1.00800000E+00  1.00800000E+00  1.60000000E+01
  1.00800000E+00  1.00800000E+00  1.60000000E+01  1.00800000E+00  1.00800000E+00
  1.60000000E+01  1.00800000E+00  1.00800000E+00  1.60000000E+01  1.00800000E+00
  1.00800000E+00  1.60000000E+01  1.00800000E+00  1.00800000E+00  1.60000000E+01
  1.00800000E+00  1.00800000E+00  1.60000000E+01  1.00800000E+00  1.00800000E+00
  1.60000000E+01  1.00800000E+00  1.00800000E+00  1.60000000E+01  1.00800000E+00
  1.00800000E+00  1.60000000E+01  1.00800000E+00  1.00800000E+00  1.60000000E+01
  1.00800000E+00  1.00800000E+00  1.60000000E+01  1.00800000E+00  1.00800000E+00
  1.60000000E+01  1.00800000E+00  1.00800000E+00  1.60000000E+01  1.00800000E+00
  1.00800000E+00  1.60000000E+01  1.00800000E+00  1.00800000E+00  1.60000000E+01
  1.00800000E+00  1.00800000E+00  1.60000000E+01  1.00800000E+00  1.00800000E+00
  1.60000000E+01  1.00800000E+00  1.00800000E+00  1.60000000E+01  1.00800000E+00
  1.00800000E+00  1.60000000E+01  1.00800000E+00  1.00800000E+00  1.60000000E+01
  1.00800000E+00  1.00800000E+00  1.60000000E+01  1.00800000E+00  1.00800000E+00
  1.60000000E+01  1.00800000E+00  1.00800000E+00  1.60000000E+01  1.00800000E+00
  1.00800000E+00  1.60000000E+01  1.00800000E+00  1.00800000E+00  1.60000000E+01
  1.00800000E+00  1.00800000E+00  1.60000000E+01  1.00800000E+00  1.00800000E+00
  1.60000000E+01  1.00800000E+00  1.00800000E+00  1.60000000E+01  1.00800000E+00
  1.00800000E+00  1.60000000E+01  1.00800000E+00  1.00800000E+00  1.60000000E+01
  1.00800000E+00  1.00800000E+00  1.60000000E+01  1.00800000E+00  1.00800000E+00
  1.60000000E+01  1.00800000E+00  1.00800000E+00  1.60000000E+01  1.00800000E+00
  1.00800000E+00  1.60000000E+01  1.00800000E+00  1.00800000E+00  1.60000000E+01
  1.00800000E+00  1.00800000E+00  1.60000000E+01  1.00800000E+00  1.00800000E+00
  1.60000000E+01  1.00800000E+00  1.00800000E+00  1.60000000E+01  1.00800000E+00
  1.00800000E+00  1.60000000E+01  1.00800000E+00  1.00800000E+00  1.60000000E+01
  1.00800000E+00  1.00800000E+00  1.60000000E+01  1.00800000E+00  1.00800000E+00
  1.60000000E+01  1.00800000E+00  1.00800000E+00  1.60000000E+01  1.00800000E+00
  1.00800000E+00  1.60000000E+01  1.00800000E+00  1.00800000E+00  1.60000000E+01
  1.00800000E+00  1.00800000E+00  1.60000000E+01  1.00800000E+00  1.00800000E+00
  1.60000000E+01  1.00800000E+00  1.00800000E+00  1.60000000E+01  1.00800000E+00
  1.00800000E+00  1.60000000E+01  1.00800000E+00  1.00800000E+00  1.60000000E+01
  1.00800000E+00  1.00800000E+00  1.60000000E+01  1.00800000E+00  1.00800000E+00
  1.60000000E+01  1.00800000E+00  1.00800000E+00  1.60000000E+01  1.00800000E+00
  1.00800000E+00  1.60000000E+01  1.00800000E+00  1.00800000E+00  1.60000000E+01
  1.00800000E+00  1.00800000E+00  1.60000000E+01  1.00800000E+00  1.00800000E+00
  1.60000000E+01  1.00800000E+00  1.00800000E+00  1.60000000E+01  1.00800000E+00
  1.00800000E+00  1.60000000E+01  1.00800000E+00  1.00800000E+00  1.60000000E+01
  1.00800000E+00  1.00800000E+00  1.60000000E+01  1.00800000E+00  1.00800000E+00
  1.60000000E+01  1.00800000E+00  1.00800000E+00  1.60000000E+01  1.00800000E+00
  1.00800000E+00  1.60000000E+01  1.00800000E+00  1.00800000E+00  1.60000000E+01
  1.00800000E+00  1.00800000E+00  1.60000000E+01  1.00800000E+00  1.00800000E+00
  1.60000000E+01  1.00800000E+00  1.00800000E+00  1.60000000E+01  1.00800000E+00
  1.00800000E+00  1.60000000E+01  1.00800000E+00  1.00800000E+00  1.60000000E+01
  1.00800000E+00  1.00800000E+00  1.60000000E+01  1.00800000E+00  1.00800000E+00
  1.60000000E+01  1.00800000E+00  1.00800000E+00  1.60000000E+01  1.00800000E+00
  1.00800000E+00  1.60000000E+01  1.00800000E+00  1.00800000E+00  1.60000000E+01
  1.00800000E+00  1.00800000E+00  1.60000000E+01  1.00800000E+00  1.00800000E+00
  1.60000000E+01  1.00800000E+00  1.00800000E+00  1.60000000E+01  1.00800000E+00
  1.00800000E+00  1.60000000E+01  1.00800000E+00  1.00800000E+00  1.60000000E+01
  1.00800000E+00  1.00800000E+00  1.60000000E+01  1.00800000E+00  1.00800000E+00
  1.60000000E+01  1.00800000E+00  1.00800000E+00  1.60000000E+01  1.00800000E+00
  1.00800000E+00  1.60000000E+01  1.00800000E+00  1.00800000E+00  1.60000000E+01
  1.00800000E+00  1.00800000E+00  1.60000000E+01  1.00800000E+00  1.00800000E+00
  1.60000000E+01  1.00800000E+00  1.00800000E+00  1.60000000E+01  1.00800000E+00
  1.00800000E+00  1.60000000E+01  1.00800000E+00  1.00800000E+00  1.60000000E+01
  1.00800000E+00  1.00800000E+00  1.60000000E+01  1.00800000E+00  1.00800000E+00
  1.60000000E+01  1.00800000E+00  1.00800000E+00  1.60000000E+01  1.00800000E+00
  1.00800000E+00  1.60000000E+01  1.00800000E+00  1.00800000E+00  1.60000000E+01
  1.00800000E+00  1.00800000E+00  1.60000000E+01  1.00800000E+00  1.00800000E+00
  1.60000000E+01  1.00800000E+00  1.00800000E+00  1.60000000E+01  1.00800000E+00
  1.00800000E+00  1.60000000E+01  1.00800000E+00  1.00800000E+00  1.60000000E+01
  1.00800000E+00  1.00800000E+00  1.60000000E+01  1.00800000E+00  1.00800000E+00
  1.60000000E+01  1.00800000E+00  1.00800000E+00  1.60000000E+01  1.00800000E+00
  1.00800000E+00  1.60000000E+01  1.00800000E+00  1.00800000E+00  1.60000000E+01
  1.00800000E+00  1.00800000E+00  1.60000000E+01  1.00800000E+00  1.00800000E+00
  1.60000000E+01  1.00800000E+00  1.00800000E+00  1.60000000E+01  1.00800000E+00
  1.00800000E+00  1.60000000E+01  1.00800000E+00  1.00800000E+00  1.60000000E+01
  1.00800000E+00  1.00800000E+00  1.60000000E+01  1.00800000E+00  1.00800000E+00
  1.60000000E+01  1.00800000E+00  1.00800000E+00  1.60000000E+01  1.00800000E+00
  1.00800000E+00  1.60000000E+01  1.00800000E+00  1.00800000E+00  1.60000000E+01
  1.00800000E+00  1.00800000E+00  1.60000000E+01  1.00800000E+00  1.00800000E+00
  1.60000000E+01  1.00800000E+00  1.00800000E+00  1.60000000E+01  1.00800000E+00
  1.00800000E+00  1.60000000E+01  1.00800000E+00  1.00800000E+00  1.60000000E+01
  1.00800000E+00  1.00800000E+00  1.60000000E+01  1.00800000E+00  1.00800000E+00
  1.60000000E+01  1.00800000E+00  1.00800000E+00  1.60000000E+01  1.00800000E+00
  1.00800000E+00  1.60000000E+01  1.00800000E+00  1.00800000E+00  1.60000000E+01
  1.00800000E+00  1.00800000E+00  1.60000000E+01  1.00800000E+00  1.00800000E+00
  1.60000000E+01  1.00800000E+00  1.00800000E+00  1.60000000E+01  1.00800000E+00
  1.00800000E+00  1.60000000E+01  1.00800000E+00  1.00800000E+00  1.60000000E+01
  1.00800000E+00  1.00800000E+00  1.60000000E+01  1.00800000E+00  1.00800000E+00
  1.60000000E+01  1.00800000E+00  1.00800000E+00  1.60000000E+01  1.00800000E+00
  1.00800000E+00  1.60000000E+01  1.00800000E+00  1.00800000E+00  1.60000000E+01
  1.00800000E+00  1.00800000E+00  1.60000000E+01  1.00800000E+00  1.00800000E+00
  1.60000000E+01  1.00800000E+00  1.00800000E+00  1.60000000E+01  1.00800000E+00
  1.00800000E+00  1.60000000E+01  1.00800000E+00  1.00800000E+00  1.60000000E+01
  1.00800000E+00  1.00800000E+00  1.60000000E+01  1.00800000E+00  1.00800000E+00
  1.60000000E+01  1.00800000E+00  1.00800000E+00  1.60000000E+01  1.00800000E+00
  1.00800000E+00  1.60000000E+01  1.00800000E+00  1.00800000E+00  1.60000000E+01
  1.00800000E+00  1.00800000E+00  1.60000000E+01  1.00800000E+00  1.00800000E+00
  1.60000000E+01  1.00800000E+00  1.00800000E+00  1.60000000E+01  1.00800000E+00
  1.00800000E+00  1.60000000E+01  1.00800000E+00  1.00800000E+00  1.60000000E+01
  1.00800000E+00  1.00800000E+00  1.60000000E+01  1.00800000E+00  1.00800000E+00
  1.60000000E+01  1.00800000E+00  1.00800000E+00  1.60000000E+01  1.00800000E+00
  1.00800000E+00  1.60000000E+01  1.00800000E+00  1.00800000E+00  1.60000000E+01
  1.00800000E+00  1.00800000E+00  1.60000000E+01  1.00800000E+00  1.00800000E+00
  1.60000000E+01  1.00800000E+00  1.00800000E+00  1.60000000E+01  1.00800000E+00
  1.00800000E+00  1.60000000E+01  1.00800000E+00  1.00800000E+00  1.60000000E+01
  1.00800000E+00  1.00800000E+00  1.60000000E+01  1.00800000E+00  1.00800000E+00
  1.60000000E+01  1.00800000E+00  1.00800000E+00  1.60000000E+01  1.00800000E+00
  1.00800000E+00  1.60000000E+01  1.00800000E+00  1.00800000E+00  1.60000000E+01
  1.00800000E+00  1.00800000E+00  1.60000000E+01  1.00800000E+00  1.00800000E+00
  1.60000000E+01  1.00800000E+00  1.00800000E+00  1.60000000E+01  1.00800000E+00
  1.00800000E+00  1.60000000E+01  1.00800000E+00  1.00800000E+00  1.60000000E+01
  1.00800000E+00  1.00800000E+00  1.60000000E+01  1.00800000E+00  1.00800000E+00
  1.60000000E+01  1.00800000E+00  1.00800000E+00  1.60000000E+01  1.00800000E+00
  1.00800000E+00  1.60000000E+01  1.00800000E+00  1.00800000E+00  1.60000000E+01
  1.00800000E+00  1.00800000E+00  1.60000000E+01  1.00800000E+00  1.00800000E+00
  1.60000000E+01  1.00800000E+00  1.00800000E+00  1.60000000E+01  1.00800000E+00
  1.00800000E+00  1.60000000E+01  1.00800000E+00  1.00800000E+00  1.60000000E+01
  1.00800000E+00  1.00800000E+00  1.60000000E+01  1.00800000E+00  1.00800000E+00
  1.60000000E+01  1.00800000E+00  1.00800000E+00  1.60000000E+01  1.00800000E+00
  1.00800000E+00  1.60000000E+01  1.00800000E+00  1.00800000E+00  1.60000000E+01
  1.00800000E+00  1.00800000E+00  1.60000000E+01  1.00800000E+00  1.00800000E+00
  1.60000000E+01  1.00800000E+00  1.00800000E+00  1.60000000E+01  1.00800000E+00
  1.00800000E+00  1.60000000E+01  1.00800000E+00  1.00800000E+00  1.60000000E+01
  1.00800000E+00  1.00800000E+00  1.60000000E+01  1.00800000E+00  1.00800000E+00
  1.60000000E+01  1.00800000E+00  1.00800000E+00  1.60000000E+01  1.00800000E+00
  1.00800000E+00  1.60000000E+01  1.00800000E+00  1.00800000E+00  1.60000000E+01
  1.00800000E+00  1.00800000E+00  1.60000000E+01  1.00800000E+00  1.00800000E+00
  1.60000000E+01  1.00800000E+00  1.00800000E+00  1.60000000E+01  1.00800000E+00
  1.00800000E+00  1.60000000E+01  1.00800000E+00  1.00800000E+00  1.60000000E+01
  1.00800000E+00  1.00800000E+00  1.60000000E+01  1.00800000E+00  1.00800000E+00
  1.60000000E+01  1.00800000E+00  1.00800000E+00  1.60000000E+01  1.00800000E+00
  1.00800000E+00  1.60000000E+01  1.00800000E+00  1.00800000E+00  1.60000000E+01
  1.00800000E+00  1.00800000E+00  1.60000000E+01  1.00800000E+00  1.00800000E+00
  1.60000000E+01  1.00800000E+00  1.00800000E+00  1.60000000E+01  1.00800000E+00
  1.00800000E+00  1.60000000E+01  1.00800000E+00  1.00800000E+00  1.60000000E+01
  1.00800000E+00  1.00800000E+00  1.60000000E+01  1.00800000E+00  1.00800000E+00
  1.60000000E+01  1.00800000E+00  1.00800000E+00  1.60000000E+01  1.00800000E+00
  1.00800000E+00  1.60000000E+01  1.00800000E+00  1.00800000E+00  1.60000000E+01
  1.00800000E+00  1.00800000E+00  1.60000000E+01  1.00800000E+00  1.00800000E+00
  1.60000000E+01  1.00800000E+00  1.00800000E+00  1.60000000E+01  1.00800000E+00
  1.00800000E+00  1.60000000E+01  1.00800000E+00  1.00800000E+00  1.60000000E+01
  1.00800000E+00  1.00800000E+00  1.60000000E+01  1.00800000E+00  1.00800000E+00
  1.60000000E+01  1.00800000E+00  1.00800000E+00  1.60000000E+01  1.00800000E+00
  1.00800000E+00  1.60000000E+01  1.00800000E+00  1.00800000E+00  1.60000000E+01
  1.00800000E+00  1.00800000E+00  1.60000000E+01  1.00800000E+00  1.00800000E+00
  1.60000000E+01  1.00800000E+00  1.00800000E+00  1.60000000E+01  1.00800000E+00
  1.00800000E+00  1.60000000E+01  1.00800000E+00  1.00800000E+00  1.60000000E+01
  1.00800000E+00  1.00800000E+00  1.60000000E+01  1.00800000E+00  1.00800000E+00
  1.60000000E+01  1.00800000E+00  1.00800000E+00  1.60000000E+01  1.00800000E+00
  1.00800000E+00  1.60000000E+01  1.00800000E+00  1.00800000E+00  1.60000000E+01
  1.00800000E+00  1.00800000E+00  1.60000000E+01  1.00800000E+00  1.00800000E+00
  1.60000000E+01  1.00800000E+00  1.00800000E+00  1.60000000E+01  1.00800000E+00
  1.00800000E+00  1.60000000E+01  1.00800000E+00  1.00800000E+00  1.60000000E+01
  1.00800000E+00  1.00800000E+00  1.60000000E+01  1.00800000E+00  1.00800000E+00
  1.60000000E+01  1.00800000E+00  1.00800000E+00  1.60000000E+01  1.00800000E+00
  1.00800000E+00  1.60000000E+01  1.00800000E+00  1.00800000E+00  1.60000000E+01
  1.00800000E+00  1.00800000E+00  1.60000000E+01  1.00800000E+00  1.00800000E+00
  1.60000000E+01  1.00800000E+00  1.00800000E+00  1.60000000E+01  1.00800000E+00
  1.00800000E+00  1.60000000E+01  1.00800000E+00  1.00800000E+00  1.60000000E+01
  1.00800000E+00  1.00800000E+00  1.60000000E+01  1.00800000E+00  1.00800000E+00
  1.60000000E+01  1.00800000E+00  1.00800000E+00  1.60000000E+01  1.00800000E+00
  1.00800000E+00  1.60000000E+01  1.00800000E+00  1.00800000E+00  1.60000000E+01
  1.00800000E+00  1.00800000E+00  1.60000000E+01  1.00800000E+00  1.00800000E+00
  1.60000000E+01  1.00800000E+00  1.00800000E+00  1.60000000E+01  1.00800000E+00
  1.00800000E+00  1.60000000E+01  1.00800000E+00  1.00800000E+00  1.60000000E+01
  1.00800000E+00  1.00800000E+00  1.60000000E+01  1.00800000E+00  1.00800000E+00
  1.60000000E+01  1.00800000E+00  1.00800000E+00  1.60000000E+01  1.00800000E+00
  1.00800000E+00  1.60000000E+01  1.00800000E+00  1.00800000E+00  1.60000000E+01
  1.00800000E+00  1.00800000E+00  1.60000000E+01  1.00800000E+00  1.00800000E+00
  1.60000000E+01  1.00800000E+00  1.00800000E+00  1.60000000E+01  1.00800000E+00
  1.00800000E+00  1.60000000E+01  1.00800000E+00  1.00800000E+00  1.60000000E+01
  1.00800000E+00  1.00800000E+00  1.60000000E+01  1.00800000E+00  1.00800000E+00
  1.60000000E+01  1.00800000E+00  1.00800000E+00  1.60000000E+01  1.00800000E+00
  1.00800000E+00  1.60000000E+01  1.00800000E+00  1.00800000E+00  1.60000000E+01
  1.00800000E+00  1.00800000E+00  1.60000000E+01  1.00800000E+00  1.00800000E+00
  1.60000000E+01  1.00800000E+00  1.00800000E+00  1.60000000E+01  1.00800000E+00
  1.00800000E+00  1.60000000E+01  1.00800000E+00  1.00800000E+00  1.60000000E+01
  1.00800000E+00  1.00800000E+00  1.60000000E+01  1.00800000E+00  1.00800000E+00
  1.60000000E+01  1.00800000E+00  1.00800000E+00  1.60000000E+01  1.00800000E+00
  1.00800000E+00  1.60000000E+01  1.00800000E+00  1.00800000E+00  1.60000000E+01
  1.00800000E+00  1.00800000E+00  1.60000000E+01  1.00800000E+00  1.00800000E+00
  1.60000000E+01  1.00800000E+00  1.00800000E+00  1.60000000E+01  1.00800000E+00
  1.00800000E+00  1.60000000E+01  1.00800000E+00  1.00800000E+00  1.60000000E+01
  1.00800000E+00  1.00800000E+00  1.60000000E+01  1.00800000E+00  1.00800000E+00
  1.60000000E+01  1.00800000E+00  1.00800000E+00  1.60000000E+01  1.00800000E+00
  1.00800000E+00  1.60000000E+01  1.00800000E+00  1.00800000E+00  1.60000000E+01
  1.00800000E+00  1.00800000E+00  1.60000000E+01  1.00800000E+00  1.00800000E+00
  1.60000000E+01  1.00800000E+00  1.00800000E+00  1.60000000E+01  1.00800000E+00
  1.00800000E+00  1.60000000E+01  1.00800000E+00  1.00800000E+00  1.60000000E+01
  1.00800000E+00  1.00800000E+00  1.60000000E+01  1.00800000E+00  1.00800000E+00
  1.60000000E+01  1.00800000E+00  1.00800000E+00  1.60000000E+01  1.00800000E+00
  1.00800000E+00  1.60000000E+01  1.00800000E+00  1.00800000E+00  1.60000000E+01
  1.00800000E+00  1.00800000E+00  1.60000000E+01  1.00800000E+00  1.00800000E+00
  1.60000000E+01  1.00800000E+00  1.00800000E+00  1.60000000E+01  1.00800000E+00
  1.00800000E+00  1.60000000E+01  1.00800000E+00  1.00800000E+00  1.60000000E+01
  1.00800000E+00  1.00800000E+00  1.60000000E+01  1.00800000E+00  1.00800000E+00
  1.60000000E+01  1.00800000E+00  1.00800000E+00  1.60000000E+01  1.00800000E+00
  1.00800000E+00  1.60000000E+01  1.00800000E+00  1.00800000E+00  1.60000000E+01
  1.00800000E+00  1.00800000E+00  1.60000000E+01  1.00800000E+00  1.00800000E+00
  1.60000000E+01  1.00800000E+00  1.00800000E+00  1.60000000E+01  1.00800000E+00
  1.00800000E+00  1.60000000E+01  1.00800000E+00  1.00800000E+00  1.60000000E+01
  1.00800000E+00  1.00800000E+00  1.60000000E+01  1.00800000E+00  1.00800000E+00
  1.60000000E+01  1.00800000E+00  1.00800000E+00  1.60000000E+01  1.00800000E+00
  1.00800000E+00  1.60000000E+01  1.00800000E+00  1.00800000E+00  1.60000000E+01
  1.00800000E+00  1.00800000E+00  1.60000000E+01  1.00800000E+00  1.00800000E+00
  1.60000000E+01  1.00800000E+00  1.00800000E+00  1.60000000E+01  1.00800000E+00
  1.00800000E+00  1.60000000E+01  1.00800000E+00  1.00800000E+00  1.60000000E+01
  1.00800000E+00  1.00800000E+00  1.60000000E+01  1.00800000E+00  1.00800000E+00
  1.60000000E+01  1.00800000E+00  1.00800000E+00  1.60000000E+01  1.00800000E+00
  1.00800000E+00  1.60000000E+01  1.00800000E+00  1.00800000E+00  1.60000000E+01
  1.00800000E+00  1.00800000E+00  1.60000000E+01  1.00800000E+00  1.00800000E+00
  1.60000000E+01  1.00800000E+00  1.00800000E+00  1.60000000E+01  1.00800000E+00
  1.00800000E+00  1.60000000E+01  1.00800000E+00  1.00800000E+00  1.60000000E+01
  1.00800000E+00  1.00800000E+00  1.60000000E+01  1.00800000E+00  1.00800000E+00
  1.60000000E+01  1.00800000E+00  1.00800000E+00  1.60000000E+01  1.00800000E+00
  1.00800000E+00  1.60000000E+01  1.00800000E+00  1.00800000E+00  1.60000000E+01
  1.00800000E+00  1.00800000E+00  1.60000000E+01  1.00800000E+00  1.00800000E+00
  1.60000000E+01  1.00800000E+00  1.00800000E+00  1.60000000E+01  1.00800000E+00
  1.00800000E+00  1.60000000E+01  1.00800000E+00  1.00800000E+00  1.60000000E+01
  1.00800000E+00  1.00800000E+00  1.60000000E+01  1.00800000E+00  1.00800000E+00
  1.60000000E+01  1.00800000E+00  1.00800000E+00  1.60000000E+01  1.00800000E+00
  1.00800000E+00  1.60000000E+01  1.00800000E+00  1.00800000E+00  1.60000000E+01
  1.00800000E+00  1.00800000E+00  1.60000000E+01  1.00800000E+00  1.00800000E+00
  1.60000000E+01  1.00800000E+00  1.00800000E+00  1.60000000E+01  1.00800000E+00
  1.00800000E+00  1.60000000E+01  1.00800000E+00  1.00800000E+00  1.60000000E+01
  1.00800000E+00  1.00800000E+00  1.60000000E+01  1.00800000E+00  1.00800000E+00
  1.60000000E+01  1.00800000E+00  1.00800000E+00  1.60000000E+01  1.00800000E+00
  1.00800000E+00  1.60000000E+01  1.00800000E+00  1.00800000E+00  1.60000000E+01
  1.00800000E+00  1.00800000E+00  1.60000000E+01  1.00800000E+00  1.00800000E+00
  1.60000000E+01  1.00800000E+00  1.00800000E+00  1.60000000E+01  1.00800000E+00
  1.00800000E+00  1.60000000E+01  1.00800000E+00  1.00800000E+00  1.60000000E+01
  1.00800000E+00  1.00800000E+00  1.60000000E+01  1.00800000E+00  1.00800000E+00
  1.60000000E+01  1.00800000E+00  1.00800000E+00  1.60000000E+01  1.00800000E+00
  1.00800000E+00  1.60000000E+01  1.00800000E+00  1.00800000E+00  1.60000000E+01
  1.00800000E+00  1.00800000E+00  1.60000000E+01  1.00800000E+00  1.00800000E+00
  1.60000000E+01  1.00800000E+00  1.00800000E+00  1.60000000E+01  1.00800000E+00
  1.00800000E+00  1.60000000E+01  1.00800000E+00  1.00800000E+00  1.60000000E+01
  1.00800000E+00  1.00800000E+00  1.60000000E+01  1.00800000E+00  1.00800000E+00
  1.60000000E+01  1.00800000E+00  1.00800000E+00  1.60000000E+01  1.00800000E+00
  1.00800000E+00  1.60000000E+01  1.00800000E+00  1.00800000E+00  1.60000000E+01
  1.00800000E+00  1.00800000E+00  1.60000000E+01  1.00800000E+00  1.00800000E+00
  1.60000000E+01  1.00800000E+00  1.00800000E+00  1.60000000E+01  1.00800000E+00
  1.00800000E+00  1.60000000E+01  1.00800000E+00  1.00800000E+00  1.60000000E+01
  1.00800000E+00  1.00800000E+00  1.60000000E+01  1.00800000E+00  1.00800000E+00
  1.60000000E+01  1.00800000E+00  1.00800000E+00  1.60000000E+01  1.00800000E+00
  1.00800000E+00  1.60000000E+01  1.00800000E+00  1.00800000E+00  1.60000000E+01
  1.00800000E+00  1.00800000E+00  1.60000000E+01  1.00800000E+00  1.00800000E+00
  1.60000000E+01  1.00800000E+00  1.00800000E+00  1.60000000E+01  1.00800000E+00
  1.00800000E+00  1.60000000E+01  1.00800000E+00  1.00800000E+00  1.60000000E+01
  1.00800000E+00  1.00800000E+00  1.60000000E+01  1.00800000E+00  1.00800000E+00
  1.60000000E+01  1.00800000E+00  1.00800000E+00  1.60000000E+01  1.00800000E+00
  1.00800000E+00  1.60000000E+01  1.00800000E+00  1.00800000E+00  1.60000000E+01
  1.00800000E+00  1.00800000E+00  1.60000000E+01  1.00800000E+00  1.00800000E+00
  1.60000000E+01  1.00800000E+00  1.00800000E+00  1.60000000E+01  1.00800000E+00
  1.00800000E+00  1.60000000E+01  1.00800000E+00  1.00800000E+00  1.60000000E+01
  1.00800000E+00  1.00800000E+00  1.60000000E+01  1.00800000E+00  1.00800000E+00
  1.60000000E+01  1.00800000E+00  1.00800000E+00  1.60000000E+01  1.00800000E+00
  1.00800000E+00  1.60000000E+01  1.00800000E+00  1.00800000E+00  1.60000000E+01
  1.00800000E+00  1.00800000E+00  1.60000000E+01  1.00800000E+00  1.00800000E+00
  1.60000000E+01  1.00800000E+00  1.00800000E+00  1.60000000E+01  1.00800000E+00
  1.00800000E+00  1.60000000E+01  1.00800000E+00  1.00800000E+00  1.60000000E+01
  1.00800000E+00  1.00800000E+00  1.60000000E+01  1.00800000E+00  1.00800000E+00
  1.60000000E+01  1.00800000E+00  1.00800000E+00  1.60000000E+01  1.00800000E+00
  1.00800000E+00  1.60000000E+01  1.00800000E+00  1.00800000E+00  1.60000000E+01
  1.00800000E+00  1.00800000E+00  1.60000000E+01  1.00800000E+00  1.00800000E+00
  1.60000000E+01  1.00800000E+00  1.00800000E+00  1.60000000E+01  1.00800000E+00
  1.00800000E+00  1.60000000E+01  1.00800000E+00  1.00800000E+00  1.60000000E+01
  1.00800000E+00  1.00800000E+00  1.60000000E+01  1.00800000E+00  1.00800000E+00
  1.60000000E+01  1.00800000E+00  1.00800000E+00  1.60000000E+01  1.00800000E+00
  1.00800000E+00  1.60000000E+01  1.00800000E+00  1.00800000E+00  1.60000000E+01
  1.00800000E+00  1.00800000E+00  1.60000000E+01  1.00800000E+00  1.00800000E+00
  1.60000000E+01  1.00800000E+00  1.00800000E+00  1.60000000E+01  1.00800000E+00
  1.00800000E+00  1.60000000E+01  1.00800000E+00  1.00800000E+00  1.60000000E+01
  1.00800000E+00  1.00800000E+00  1.60000000E+01  1.00800000E+00  1.00800000E+00
  1.60000000E+01  1.00800000E+00  1.00800000E+00  1.60000000E+01  1.00800000E+00
  1.00800000E+00  1.60000000E+01  1.00800000E+00  1.00800000E+00  1.60000000E+01
  1.00800000E+00  1.00800000E+00  1.60000000E+01  1.00800000E+00  1.00800000E+00
  1.60000000E+01  1.00800000E+00  1.00800000E+00  1.60000000E+01  1.00800000E+00
  1.00800000E+00  1.60000000E+01  1.00800000E+00  1.00800000E+00  1.60000000E+01
  1.00800000E+00  1.00800000E+00  1.60000000E+01  1.00800000E+00  1.00800000E+00
  1.60000000E+01  1.00800000E+00  1.00800000E+00  1.60000000E+01  1.00800000E+00
  1.00800000E+00  1.60000000E+01  1.00800000E+00  1.00800000E+00  1.60000000E+01
  1.00800000E+00  1.00800000E+00  1.60000000E+01  1.00800000E+00  1.00800000E+00
  1.60000000E+01  1.00800000E+00  1.00800000E+00  1.60000000E+01  1.00800000E+00
  1.00800000E+00  1.60000000E+01  1.00800000E+00  1.00800000E+00  1.60000000E+01
  1.00800000E+00  1.00800000E+00  1.60000000E+01  1.00800000E+00  1.00800000E+00
  1.60000000E+01  1.00800000E+00  1.00800000E+00  1.60000000E+01  1.00800000E+00
  1.00800000E+00  1.60000000E+01  1.00800000E+00  1.00800000E+00  1.60000000E+01
  1.00800000E+00  1.00800000E+00  1.60000000E+01  1.00800000E+00  1.00800000E+00
  1.60000000E+01  1.00800000E+00  1.00800000E+00  1.60000000E+01  1.00800000E+00
  1.00800000E+00  1.60000000E+01  1.00800000E+00  1.00800000E+00  1.60000000E+01
  1.00800000E+00  1.00800000E+00  1.60000000E+01  1.00800000E+00  1.00800000E+00
  1.60000000E+01  1.00800000E+00  1.00800000E+00  1.60000000E+01  1.00800000E+00
  1.00800000E+00  1.60000000E+01  1.00800000E+00  1.00800000E+00  1.60000000E+01
  1.00800000E+00  1.00800000E+00  1.60000000E+01  1.00800000E+00  1.00800000E+00
  1.60000000E+01  1.00800000E+00  1.00800000E+00  1.60000000E+01  1.00800000E+00
  1.00800000E+00  1.60000000E+01  1.00800000E+00  1.00800000E+00  1.60000000E+01
  1.00800000E+00  1.00800000E+00  1.60000000E+01  1.00800000E+00  1.00800000E+00
  1.60000000E+01  1.00800000E+00  1.00800000E+00  1.60000000E+01  1.00800000E+00
  1.00800000E+00  1.60000000E+01  1.00800000E+00  1.00800000E+00  1.60000000E+01
  1.00800000E+00  1.00800000E+00  1.60000000E+01  1.00800000E+00  1.00800000E+00
  1.60000000E+01  1.00800000E+00  1.00800000E+00  1.60000000E+01  1.00800000E+00
  1.00800000E+00  1.60000000E+01  1.00800000E+00  1.00800000E+00  1.60000000E+01
  1.00800000E+00  1.00800000E+00  1.60000000E+01  1.00800000E+00  1.00800000E+00
  1.60000000E+01  1.00800000E+00  1.00800000E+00  1.60000000E+01  1.00800000E+00
  1.00800000E+00  1.60000000E+01  1.00800000E+00  1.00800000E+00  1.60000000E+01
  1.00800000E+00  1.00800000E+00  1.60000000E+01  1.00800000E+00  1.00800000E+00
  1.60000000E+01  1.00800000E+00  1.00800000E+00  1.60000000E+01  1.00800000E+00
  1.00800000E+00  1.60000000E+01  1.00800000E+00  1.00800000E+00  1.60000000E+01
  1.00800000E+00  1.00800000E+00  1.60000000E+01  1.00800000E+00  1.00800000E+00
  1.60000000E+01  1.00800000E+00  1.00800000E+00  1.60000000E+01  1.00800000E+00
  1.00800000E+00  1.60000000E+01  1.00800000E+00  1.00800000E+00  1.60000000E+01
  1.00800000E+00  1.00800000E+00  1.60000000E+01  1.00800000E+00  1.00800000E+00
  1.60000000E+01  1.00800000E+00  1.00800000E+00  1.60000000E+01  1.00800000E+00
  1.00800000E+00  1.60000000E+01  1.00800000E+00  1.00800000E+00  1.60000000E+01
  1.00800000E+00  1.00800000E+00  1.60000000E+01  1.00800000E+00  1.00800000E+00
  1.60000000E+01  1.00800000E+00  1.00800000E+00  1.60000000E+01  1.00800000E+00
  1.00800000E+00  1.60000000E+01  1.00800000E+00  1.00800000E+00  1.60000000E+01
  1.00800000E+00  1.00800000E+00  1.60000000E+01  1.00800000E+00  1.00800000E+00
  1.60000000E+01  1.00800000E+00  1.00800000E+00  1.60000000E+01  1.00800000E+00
  1.00800000E+00  1.60000000E+01  1.00800000E+00  1.00800000E+00  1.60000000E+01
  1.00800000E+00  1.00800000E+00  1.60000000E+01  1.00800000E+00  1.00800000E+00
  1.60000000E+01  1.00800000E+00  1.00800000E+00  1.60000000E+01  1.00800000E+00
  1.00800000E+00  1.60000000E+01  1.00800000E+00  1.00800000E+00  1.60000000E+01
  1.00800000E+00  1.00800000E+00  1.60000000E+01  1.00800000E+00  1.00800000E+00
  1.60000000E+01  1.00800000E+00  1.00800000E+00  1.60000000E+01  1.00800000E+00
  1.00800000E+00  1.60000000E+01  1.00800000E+00  1.00800000E+00  1.60000000E+01
  1.00800000E+00  1.00800000E+00  1.60000000E+01  1.00800000E+00  1.00800000E+00
  1.60000000E+01  1.00800000E+00  1.00800000E+00  1.60000000E+01  1.00800000E+00
  1.00800000E+00  1.60000000E+01  1.00800000E+00  1.00800000E+00  1.60000000E+01
  1.00800000E+00  1.00800000E+00  1.60000000E+01  1.00800000E+00  1.00800000E+00
  1.60000000E+01  1.00800000E+00  1.00800000E+00  1.60000000E+01  1.00800000E+00
  1.00800000E+00  1.60000000E+01  1.00800000E+00  1.00800000E+00  1.60000000E+01
  1.00800000E+00  1.00800000E+00  1.60000000E+01  1.00800000E+00  1.00800000E+00
  1.60000000E+01  1.00800000E+00  1.00800000E+00  1.60000000E+01  1.00800000E+00
  1.00800000E+00  1.60000000E+01  1.00800000E+00  1.00800000E+00  1.60000000E+01
  1.00800000E+00  1.00800000E+00  1.60000000E+01  1.00800000E+00  1.00800000E+00
  1.60000000E+01  1.00800000E+00  1.00800000E+00  1.60000000E+01  1.00800000E+00
  1.00800000E+00  1.60000000E+01  1.00800000E+00  1.00800000E+00  1.60000000E+01
  1.00800000E+00  1.00800000E+00  1.60000000E+01  1.00800000E+00  1.00800000E+00
  1.60000000E+01  1.00800000E+00  1.00800000E+00  1.60000000E+01  1.00800000E+00
  1.00800000E+00  1.60000000E+01  1.00800000E+00  1.00800000E+00  1.60000000E+01
  1.00800000E+00  1.00800000E+00  1.60000000E+01  1.00800000E+00  1.00800000E+00
  1.60000000E+01  1.00800000E+00  1.00800000E+00  1.60000000E+01  1.00800000E+00
  1.00800000E+00  1.60000000E+01  1.00800000E+00  1.00800000E+00  1.60000000E+01
  1.00800000E+00  1.00800000E+00  1.60000000E+01  1.00800000E+00  1.00800000E+00
  1.60000000E+01  1.00800000E+00  1.00800000E+00  1.60000000E+01  1.00800000E+00
  1.00800000E+00  1.60000000E+01  1.00800000E+00  1.00800000E+00  1.60000000E+01
  1.00800000E+00  1.00800000E+00  1.60000000E+01  1.00800000E+00  1.00800000E+00
  1.60000000E+01  1.00800000E+00  1.00800000E+00  1.60000000E+01  1.00800000E+00
  1.00800000E+00  1.60000000E+01  1.00800000E+00  1.00800000E+00  1.60000000E+01
  1.00800000E+00  1.00800000E+00  1.60000000E+01  1.00800000E+00  1.00800000E+00
  1.60000000E+01  1.00800000E+00  1.00800000E+00  1.60000000E+01  1.00800000E+00
  1.00800000E+00  1.60000000E+01  1.00800000E+00  1.00800000E+00  1.60000000E+01
  1.00800000E+00  1.00800000E+00  1.60000000E+01  1.00800000E+00  1.00800000E+00
  1.60000000E+01  1.00800000E+00  1.00800000E+00  1.60000000E+01  1.00800000E+00
  1.00800000E+00  1.60000000E+01  1.00800000E+00  1.00800000E+00  1.60000000E+01
  1.00800000E+00  1.00800000E+00  1.60000000E+01  1.00800000E+00  1.00800000E+00
  1.60000000E+01  1.00800000E+00  1.00800000E+00  1.60000000E+01  1.00800000E+00
  1.00800000E+00  1.60000000E+01  1.00800000E+00  1.00800000E+00  1.60000000E+01
  1.00800000E+00  1.00800000E+00  1.60000000E+01  1.00800000E+00  1.00800000E+00
  1.60000000E+01  1.00800000E+00  1.00800000E+00  1.60000000E+01  1.00800000E+00
  1.00800000E+00  1.60000000E+01  1.00800000E+00  1.00800000E+00  1.60000000E+01
  1.00800000E+00  1.00800000E+00  1.60000000E+01  1.00800000E+00  1.00800000E+00
  1.60000000E+01  1.00800000E+00  1.00800000E+00  1.60000000E+01  1.00800000E+00
  1.00800000E+00  1.60000000E+01  1.00800000E+00  1.00800000E+00  1.60000000E+01
  1.00800000E+00  1.00800000E+00  1.60000000E+01  1.00800000E+00  1.00800000E+00
  1.60000000E+01  1.00800000E+00  1.00800000E+00  1.60000000E+01  1.00800000E+00
  1.00800000E+00  1.60000000E+01  1.00800000E+00  1.00800000E+00  1.60000000E+01
  1.00800000E+00  1.00800000E+00  1.60000000E+01  1.00800000E+00  1.00800000E+00
  1.60000000E+01  1.00800000E+00  1.00800000E+00  1.60000000E+01  1.00800000E+00
  1.00800000E+00  1.60000000E+01  1.00800000E+00  1.00800000E+00  1.60000000E+01
  1.00800000E+00  1.00800000E+00  1.60000000E+01  1.00800000E+00  1.00800000E+00
  1.60000000E+01  1.00800000E+00  1.00800000E+00  1.60000000E+01  1.00800000E+00
  1.00800000E+00  1.60000000E+01  1.00800000E+00  1.00800000E+00  1.60000000E+01
  1.00800000E+00  1.00800000E+00  1.60000000E+01  1.00800000E+00  1.00800000E+00
  1.60000000E+01  1.00800000E+00  1.00800000E+00  1.60000000E+01  1.00800000E+00
  1.00800000E+00  1.60000000E+01  1.00800000E+00  1.00800000E+00  1.60000000E+01
  1.00800000E+00  1.00800000E+00  1.60000000E+01  1.00800000E+00  1.00800000E+00
  1.60000000E+01  1.00800000E+00  1.00800000E+00  1.60000000E+01  1.00800000E+00
  1.00800000E+00  1.60000000E+01  1.00800000E+00  1.00800000E+00  1.60000000E+01
  1.00800000E+00  1.00800000E+00  1.60000000E+01  1.00800000E+00  1.00800000E+00
  1.60000000E+01  1.00800000E+00  1.00800000E+00  1.60000000E+01  1.00800000E+00
  1.00800000E+00  1.60000000E+01  1.00800000E+00  1.00800000E+00  1.60000000E+01
  1.00800000E+00  1.00800000E+00  1.60000000E+01  1.00800000E+00  1.00800000E+00
  1.60000000E+01  1.00800000E+00  1.00800000E+00  1.60000000E+01  1.00800000E+00
  1.00800000E+00  1.60000000E+01  1.00800000E+00  1.00800000E+00  1.60000000E+01
  1.00800000E+00  1.00800000E+00  1.60000000E+01  1.00800000E+00  1.00800000E+00
  1.60000000E+01  1.00800000E+00  1.00800000E+00  1.60000000E+01  1.00800000E+00
  1.00800000E+00  1.60000000E+01  1.00800000E+00  1.00800000E+00  1.60000000E+01
  1.00800000E+00  1.00800000E+00  1.60000000E+01  1.00800000E+00  1.00800000E+00
  1.60000000E+01  1.00800000E+00  1.00800000E+00  1.60000000E+01  1.00800000E+00
  1.00800000E+00  1.60000000E+01  1.00800000E+00  1.00800000E+00  1.60000000E+01
  1.00800000E+00  1.00800000E+00  1.60000000E+01  1.00800000E+00  1.00800000E+00
  1.60000000E+01  1.00800000E+00  1.00800000E+00  1.60000000E+01  1.00800000E+00
  1.00800000E+00  1.60000000E+01  1.00800000E+00  1.00800000E+00  1.60000000E+01
  1.00800000E+00  1.00800000E+00  1.60000000E+01  1.00800000E+00  1.00800000E+00
  1.60000000E+01  1.00800000E+00  1.00800000E+00  1.60000000E+01  1.00800000E+00
  1.00800000E+00  1.60000000E+01  1.00800000E+00  1.00800000E+00  1.60000000E+01
  1.00800000E+00  1.00800000E+00  1.60000000E+01  1.00800000E+00  1.00800000E+00
  1.60000000E+01  1.00800000E+00  1.00800000E+00  1.60000000E+01  1.00800000E+00
  1.00800000E+00  1.60000000E+01  1.00800000E+00  1.00800000E+00  1.60000000E+01
  1.00800000E+00  1.00800000E+00  1.60000000E+01  1.00800000E+00  1.00800000E+00
  1.60000000E+01  1.00800000E+00  1.00800000E+00  1.60000000E+01  1.00800000E+00
  1.00800000E+00  1.60000000E+01  1.00800000E+00  1.00800000E+00  1.60000000E+01
  1.00800000E+00  1.00800000E+00  1.60000000E+01  1.00800000E+00  1.00800000E+00
  1.60000000E+01  1.00800000E+00  1.00800000E+00  1.60000000E+01  1.00800000E+00
  1.00800000E+00  1.60000000E+01  1.00800000E+00  1.00800000E+00  1.60000000E+01
  1.00800000E+00  1.00800000E+00  1.60000000E+01  1.00800000E+00  1.00800000E+00
  1.60000000E+01  1.00800000E+00  1.00800000E+00  1.60000000E+01  1.00800000E+00
  1.00800000E+00  1.60000000E+01  1.00800000E+00  1.00800000E+00  1.60000000E+01
  1.00800000E+00  1.00800000E+00  1.60000000E+01  1.00800000E+00  1.00800000E+00
  1.60000000E+01  1.00800000E+00  1.00800000E+00  1.60000000E+01  1.00800000E+00
  1.00800000E+00  1.60000000E+01  1.00800000E+00  1.00800000E+00  1.60000000E+01
  1.00800000E+00  1.00800000E+00  1.60000000E+01  1.00800000E+00  1.00800000E+00
  1.60000000E+01  1.00800000E+00  1.00800000E+00  1.60000000E+01  1.00800000E+00
  1.00800000E+00  1.60000000E+01  1.00800000E+00  1.00800000E+00  1.60000000E+01
  1.00800000E+00  1.00800000E+00  1.60000000E+01  1.00800000E+00  1.00800000E+00
  1.60000000E+01  1.00800000E+00  1.00800000E+00  1.60000000E+01  1.00800000E+00
  1.00800000E+00  1.60000000E+01  1.00800000E+00  1.00800000E+00  1.60000000E+01
  1.00800000E+00  1.00800000E+00  1.60000000E+01  1.00800000E+00  1.00800000E+00
  1.60000000E+01  1.00800000E+00  1.00800000E+00  1.60000000E+01  1.00800000E+00
  1.00800000E+00  1.60000000E+01  1.00800000E+00  1.00800000E+00  1.60000000E+01
  1.00800000E+00  1.00800000E+00  1.60000000E+01  1.00800000E+00  1.00800000E+00
  1.60000000E+01  1.00800000E+00  1.00800000E+00  1.60000000E+01  1.00800000E+00
  1.00800000E+00  1.60000000E+01  1.00800000E+00  1.00800000E+00  1.60000000E+01
  1.00800000E+00  1.00800000E+00  1.60000000E+01  1.00800000E+00  1.00800000E+00
  1.60000000E+01  1.00800000E+00  1.00800000E+00  1.60000000E+01  1.00800000E+00
  1.00800000E+00  1.60000000E+01  1.00800000E+00  1.00800000E+00  1.60000000E+01
  1.00800000E+00  1.00800000E+00  1.60000000E+01  1.00800000E+00  1.00800000E+00
  1.60000000E+01  1.00800000E+00  1.00800000E+00  1.60000000E+01  1.00800000E+00
  1.00800000E+00  1.60000000E+01  1.00800000E+00  1.00800000E+00  1.60000000E+01
  1.00800000E+00  1.00800000E+00  1.60000000E+01  1.00800000E+00  1.00800000E+00
  1.60000000E+01  1.00800000E+00  1.00800000E+00  1.60000000E+01  1.00800000E+00
  1.00800000E+00  1.60000000E+01  1.00800000E+00  1.00800000E+00  1.60000000E+01
  1.00800000E+00  1.00800000E+00  1.60000000E+01  1.00800000E+00  1.00800000E+00
  1.60000000E+01  1.00800000E+00  1.00800000E+00  1.60000000E+01  1.00800000E+00
  1.00800000E+00  1.60000000E+01  1.00800000E+00  1.00800000E+00  1.60000000E+01
  1.00800000E+00  1.00800000E+00  1.60000000E+01  1.00800000E+00  1.00800000E+00
  1.60000000E+01  1.00800000E+00  1.00800000E+00  1.60000000E+01  1.00800000E+00
  1.00800000E+00  1.60000000E+01  1.00800000E+00  1.00800000E+00  1.60000000E+01
  1.00800000E+00  1.00800000E+00  1.60000000E+01  1.00800000E+00  1.00800000E+00
  1.60000000E+01  1.00800000E+00  1.00800000E+00  1.60000000E+01  1.00800000E+00
  1.00800000E+00  1.60000000E+01  1.00800000E+00  1.00800000E+00  1.60000000E+01
  1.00800000E+00  1.00800000E+00  1.60000000E+01  1.00800000E+00  1.00800000E+00
  1.60000000E+01  1.00800000E+00  1.00800000E+00  1.60000000E+01  1.00800000E+00
  1.00800000E+00  1.60000000E+01  1.00800000E+00  1.00800000E+00  1.60000000E+01
  1.00800000E+00  1.00800000E+00  1.60000000E+01  1.00800000E+00  1.00800000E+00
  1.60000000E+01  1.00800000E+00  1.00800000E+00  1.60000000E+01  1.00800000E+00
  1.00800000E+00  1.60000000E+01  1.00800000E+00  1.00800000E+00  1.60000000E+01
  1.00800000E+00  1.00800000E+00  1.60000000E+01  1.00800000E+00  1.00800000E+00
  1.60000000E+01  1.00800000E+00  1.00800000E+00  1.60000000E+01  1.00800000E+00
  1.00800000E+00  1.60000000E+01  1.00800000E+00  1.00800000E+00  1.60000000E+01
  1.00800000E+00  1.00800000E+00  1.60000000E+01  1.00800000E+00  1.00800000E+00
  1.60000000E+01  1.00800000E+00  1.00800000E+00  1.60000000E+01  1.00800000E+00
  1.00800000E+00  1.60000000E+01  1.00800000E+00  1.00800000E+00  1.60000000E+01
  1.00800000E+00  1.00800000E+00  1.60000000E+01  1.00800000E+00  1.00800000E+00
  1.60000000E+01  1.00800000E+00  1.00800000E+00  1.60000000E+01  1.00800000E+00
  1.00800000E+00  1.60000000E+01  1.00800000E+00  1.00800000E+00  1.60000000E+01
  1.00800000E+00  1.00800000E+00  1.60000000E+01  1.00800000E+00  1.00800000E+00
  1.60000000E+01  1.00800000E+00  1.00800000E+00  1.60000000E+01  1.00800000E+00
  1.00800000E+00  1.60000000E+01  1.00800000E+00  1.00800000E+00  1.60000000E+01
  1.00800000E+00  1.00800000E+00  1.60000000E+01  1.00800000E+00  1.00800000E+00
  1.60000000E+01  1.00800000E+00  1.00800000E+00  1.60000000E+01  1.00800000E+00
  1.00800000E+00  1.60000000E+01  1.00800000E+00  1.00800000E+00  1.60000000E+01
  1.00800000E+00  1.00800000E+00  1.60000000E+01  1.00800000E+00  1.00800000E+00
  1.60000000E+01  1.00800000E+00  1.00800000E+00  1.60000000E+01  1.00800000E+00
  1.00800000E+00  1.60000000E+01  1.00800000E+00  1.00800000E+00  1.60000000E+01
  1.00800000E+00  1.00800000E+00  1.60000000E+01  1.00800000E+00  1.00800000E+00
  1.60000000E+01  1.00800000E+00  1.00800000E+00  1.60000000E+01  1.00800000E+00
  1.00800000E+00  1.60000000E+01  1.00800000E+00  1.00800000E+00  1.60000000E+01
  1.00800000E+00  1.00800000E+00  1.60000000E+01  1.00800000E+00  1.00800000E+00
  1.60000000E+01  1.00800000E+00  1.00800000E+00  1.60000000E+01  1.00800000E+00
  1.00800000E+00  1.60000000E+01  1.00800000E+00  1.00800000E+00  1.60000000E+01
  1.00800000E+00  1.00800000E+00  1.60000000E+01  1.00800000E+00  1.00800000E+00
  1.60000000E+01  1.00800000E+00  1.00800000E+00  1.60000000E+01  1.00800000E+00
  1.00800000E+00  1.60000000E+01  1.00800000E+00  1.00800000E+00  1.60000000E+01
  1.00800000E+00  1.00800000E+00  1.60000000E+01  1.00800000E+00  1.00800000E+00
  1.60000000E+01  1.00800000E+00  1.00800000E+00  1.60000000E+01  1.00800000E+00
  1.00800000E+00  1.60000000E+01  1.00800000E+00  1.00800000E+00  1.60000000E+01
  1.00800000E+00  1.00800000E+00  1.60000000E+01  1.00800000E+00  1.00800000E+00
  1.60000000E+01  1.00800000E+00  1.00800000E+00  1.60000000E+01  1.00800000E+00
  1.00800000E+00  1.60000000E+01  1.00800000E+00  1.00800000E+00  1.60000000E+01
  1.00800000E+00  1.00800000E+00  1.60000000E+01  1.00800000E+00  1.00800000E+00
  1.60000000E+01  1.00800000E+00  1.00800000E+00  1.60000000E+01  1.00800000E+00
  1.00800000E+00  1.60000000E+01  1.00800000E+00  1.00800000E+00  1.60000000E+01
  1.00800000E+00  1.00800000E+00  1.60000000E+01  1.00800000E+00  1.00800000E+00
  1.60000000E+01  1.00800000E+00  1.00800000E+00  1.60000000E+01  1.00800000E+00
  1.00800000E+00  1.60000000E+01  1.00800000E+00  1.00800000E+00  1.60000000E+01
  1.00800000E+00  1.00800000E+00  1.60000000E+01  1.00800000E+00  1.00800000E+00
  1.60000000E+01  1.00800000E+00  1.00800000E+00  1.60000000E+01  1.00800000E+00
  1.00800000E+00  1.60000000E+01  1.00800000E+00  1.00800000E+00  1.60000000E+01
  1.00800000E+00  1.00800000E+00  1.60000000E+01  1.00800000E+00  1.00800000E+00
  1.60000000E+01  1.00800000E+00  1.00800000E+00  1.60000000E+01  1.00800000E+00
  1.00800000E+00  1.60000000E+01  1.00800000E+00  1.00800000E+00  1.60000000E+01
  1.00800000E+00  1.00800000E+00  1.60000000E+01  1.00800000E+00  1.00800000E+00
  1.60000000E+01  1.00800000E+00  1.00800000E+00  1.60000000E+01  1.00800000E+00
  1.00800000E+00  1.60000000E+01  1.00800000E+00  1.00800000E+00  1.60000000E+01
  1.00800000E+00  1.00800000E+00  1.60000000E+01  1.00800000E+00  1.00800000E+00
  1.60000000E+01  1.00800000E+00  1.00800000E+00  1.60000000E+01  1.00800000E+00
  1.00800000E+00  1.60000000E+01  1.00800000E+00  1.00800000E+00  1.60000000E+01
  1.00800000E+00  1.00800000E+00  1.60000000E+01  1.00800000E+00  1.00800000E+00
  1.60000000E+01  1.00800000E+00  1.00800000E+00  1.60000000E+01  1.00800000E+00
  1.00800000E+00  1.60000000E+01  1.00800000E+00  1.00800000E+00  1.60000000E+01
  1.00800000E+00  1.00800000E+00  1.60000000E+01  1.00800000E+00  1.00800000E+00
  1.60000000E+01  1.00800000E+00  1.00800000E+00  1.60000000E+01  1.00800000E+00
  1.00800000E+00  1.60000000E+01  1.00800000E+00  1.00800000E+00  1.60000000E+01
  1.00800000E+00  1.00800000E+00  1.60000000E+01  1.00800000E+00  1.00800000E+00
  1.60000000E+01  1.00800000E+00  1.00800000E+00  1.60000000E+01  1.00800000E+00
  1.00800000E+00  1.60000000E+01  1.00800000E+00  1.00800000E+00  1.60000000E+01
  1.00800000E+00  1.00800000E+00  1.60000000E+01  1.00800000E+00  1.00800000E+00
  1.60000000E+01  1.00800000E+00  1.00800000E+00  1.60000000E+01  1.00800000E+00
  1.00800000E+00  1.60000000E+01  1.00800000E+00  1.00800000E+00  1.60000000E+01
  1.00800000E+00  1.00800000E+00  1.60000000E+01  1.00800000E+00  1.00800000E+00
  1.60000000E+01  1.00800000E+00  1.00800000E+00  1.60000000E+01  1.00800000E+00
  1.00800000E+00  1.60000000E+01  1.00800000E+00  1.00800000E+00  1.60000000E+01
  1.00800000E+00  1.00800000E+00  1.60000000E+01  1.00800000E+00  1.00800000E+00
  1.60000000E+01  1.00800000E+00  1.00800000E+00  1.60000000E+01  1.00800000E+00
  1.00800000E+00  1.60000000E+01  1.00800000E+00  1.00800000E+00  1.60000000E+01
  1.00800000E+00  1.00800000E+00  1.60000000E+01  1.00800000E+00  1.00800000E+00
  1.60000000E+01  1.00800000E+00  1.00800000E+00  1.60000000E+01  1.00800000E+00
  1.00800000E+00  1.60000000E+01  1.00800000E+00  1.00800000E+00  1.60000000E+01
  1.00800000E+00  1.00800000E+00  1.60000000E+01  1.00800000E+00  1.00800000E+00
  1.60000000E+01  1.00800000E+00  1.00800000E+00  1.60000000E+01  1.00800000E+00
  1.00800000E+00  1.60000000E+01  1.00800000E+00  1.00800000E+00  1.60000000E+01
  1.00800000E+00  1.00800000E+00  1.60000000E+01  1.00800000E+00  1.00800000E+00
  1.60000000E+01  1.00800000E+00  1.00800000E+00  1.60000000E+01  1.00800000E+00
  1.00800000E+00  1.60000000E+01  1.00800000E+00  1.00800000E+00  1.60000000E+01
  1.00800000E+00  1.00800000E+00  1.60000000E+01  1.00800000E+00  1.00800000E+00
  1.60000000E+01  1.00800000E+00  1.00800000E+00  1.60000000E+01  1.00800000E+00
  1.00800000E+00  1.60000000E+01  1.00800000E+00  1.00800000E+00  1.60000000E+01
  1.00800000E+00  1.00800000E+00  1.60000000E+01  1.00800000E+00  1.00800000E+00
  1.60000000E+01  1.00800000E+00  1.00800000E+00  1.60000000E+01  1.00800000E+00
  1.00800000E+00  1.60000000E+01  1.00800000E+00  1.00800000E+00  1.60000000E+01
  1.00800000E+00  1.00800000E+00  1.60000000E+01  1.00800000E+00  1.00800000E+00
  1.60000000E+01  1.00800000E+00  1.00800000E+00  1.60000000E+01  1.00800000E+00
  1.00800000E+00  1.60000000E+01  1.00800000E+00  1.00800000E+00  1.60000000E+01
  1.00800000E+00  1.00800000E+00  1.60000000E+01  1.00800000E+00  1.00800000E+00
  1.60000000E+01  1.00800000E+00  1.00800000E+00  1.60000000E+01  1.00800000E+00
  1.00800000E+00  1.60000000E+01  1.00800000E+00  1.00800000E+00  1.60000000E+01
  1.00800000E+00  1.00800000E+00  1.60000000E+01  1.00800000E+00  1.00800000E+00
  1.60000000E+01  1.00800000E+00  1.00800000E+00  1.60000000E+01  1.00800000E+00
  1.00800000E+00  1.60000000E+01  1.00800000E+00  1.00800000E+00  1.60000000E+01
  1.00800000E+00  1.00800000E+00  1.60000000E+01  1.00800000E+00  1.00800000E+00
  1.60000000E+01  1.00800000E+00  1.00800000E+00  1.60000000E+01  1.00800000E+00
  1.00800000E+00  1.60000000E+01  1.00800000E+00  1.00800000E+00  1.60000000E+01
  1.00800000E+00  1.00800000E+00  1.60000000E+01  1.00800000E+00  1.00800000E+00
  1.60000000E+01  1.00800000E+00  1.00800000E+00  1.60000000E+01  1.00800000E+00
  1.00800000E+00  1.60000000E+01  1.00800000E+00  1.00800000E+00  1.60000000E+01
  1.00800000E+00  1.00800000E+00  1.60000000E+01  1.00800000E+00  1.00800000E+00
  1.60000000E+01  1.00800000E+00  1.00800000E+00  1.60000000E+01  1.00800000E+00
  1.00800000E+00  1.60000000E+01  1.00800000E+00  1.00800000E+00  1.60000000E+01
  1.00800000E+00  1.00800000E+00  1.60000000E+01  1.00800000E+00  1.00800000E+00
  1.60000000E+01  1.00800000E+00  1.00800000E+00  1.60000000E+01  1.00800000E+00
  1.00800000E+00  1.60000000E+01  1.00800000E+00  1.00800000E+00  1.60000000E+01
  1.00800000E+00  1.00800000E+00  1.60000000E+01  1.00800000E+00  1.00800000E+00
  1.60000000E+01  1.00800000E+00  1.00800000E+00  1.60000000E+01  1.00800000E+00
  1.00800000E+00  1.60000000E+01  1.00800000E+00  1.00800000E+00  1.60000000E+01
  1.00800000E+00  1.00800000E+00  1.60000000E+01  1.00800000E+00  1.00800000E+00
  1.60000000E+01  1.00800000E+00  1.00800000E+00  1.60000000E+01  1.00800000E+00
  1.00800000E+00  1.60000000E+01  1.00800000E+00  1.00800000E+00  1.60000000E+01
  1.00800000E+00  1.00800000E+00  1.60000000E+01  1.00800000E+00  1.00800000E+00
  1.60000000E+01  1.00800000E+00  1.00800000E+00  1.60000000E+01  1.00800000E+00
  1.00800000E+00  1.60000000E+01  1.00800000E+00  1.00800000E+00  1.60000000E+01
  1.00800000E+00  1.00800000E+00  1.60000000E+01  1.00800000E+00  1.00800000E+00
  1.60000000E+01  1.00800000E+00  1.00800000E+00  1.60000000E+01  1.00800000E+00
  1.00800000E+00  1.60000000E+01  1.00800000E+00  1.00800000E+00  1.60000000E+01
  1.00800000E+00  1.00800000E+00  1.60000000E+01  1.00800000E+00  1.00800000E+00
  1.60000000E+01  1.00800000E+00  1.00800000E+00  1.60000000E+01  1.00800000E+00
  1.00800000E+00  1.60000000E+01  1.00800000E+00  1.00800000E+00  1.60000000E+01
  1.00800000E+00  1.00800000E+00  1.60000000E+01  1.00800000E+00  1.00800000E+00
  1.60000000E+01  1.00800000E+00  1.00800000E+00  1.60000000E+01  1.00800000E+00
  1.00800000E+00  1.60000000E+01  1.00800000E+00  1.00800000E+00  1.60000000E+01
  1.00800000E+00  1.00800000E+00  1.60000000E+01  1.00800000E+00  1.00800000E+00
  1.60000000E+01  1.00800000E+00  1.00800000E+00  1.60000000E+01  1.00800000E+00
  1.00800000E+00  1.60000000E+01  1.00800000E+00  1.00800000E+00  1.60000000E+01
  1.00800000E+00  1.00800000E+00  1.60000000E+01  1.00800000E+00  1.00800000E+00
  1.60000000E+01  1.00800000E+00  1.00800000E+00  1.60000000E+01  1.00800000E+00
  1.00800000E+00  1.60000000E+01  1.00800000E+00  1.00800000E+00  1.60000000E+01
  1.00800000E+00  1.00800000E+00  1.60000000E+01  1.00800000E+00  1.00800000E+00
  1.60000000E+01  1.00800000E+00  1.00800000E+00  1.60000000E+01  1.00800000E+00
  1.00800000E+00  1.60000000E+01  1.00800000E+00  1.00800000E+00  1.60000000E+01
  1.00800000E+00  1.00800000E+00  1.60000000E+01  1.00800000E+00  1.00800000E+00
  1.60000000E+01  1.00800000E+00  1.00800000E+00  1.60000000E+01  1.00800000E+00
  1.00800000E+00  1.60000000E+01  1.00800000E+00  1.00800000E+00  1.60000000E+01
  1.00800000E+00  1.00800000E+00  1.60000000E+01  1.00800000E+00  1.00800000E+00
  1.60000000E+01  1.00800000E+00  1.00800000E+00  1.60000000E+01  1.00800000E+00
  1.00800000E+00  1.60000000E+01  1.00800000E+00  1.00800000E+00  1.60000000E+01
  1.00800000E+00  1.00800000E+00  1.60000000E+01  1.00800000E+00  1.00800000E+00
  1.60000000E+01  1.00800000E+00  1.00800000E+00  1.60000000E+01  1.00800000E+00
  1.00800000E+00  1.60000000E+01  1.00800000E+00  1.00800000E+00  1.60000000E+01
  1.00800000E+00  1.00800000E+00  1.60000000E+01  1.00800000E+00  1.00800000E+00
  1.60000000E+01  1.00800000E+00  1.00800000E+00  1.60000000E+01  1.00800000E+00
  1.00800000E+00  1.60000000E+01  1.00800000E+00  1.00800000E+00  1.60000000E+01
  1.00800000E+00  1.00800000E+00  1.60000000E+01  1.00800000E+00  1.00800000E+00
  1.60000000E+01  1.00800000E+00  1.00800000E+00  1.60000000E+01  1.00800000E+00
  1.00800000E+00  1.60000000E+01  1.00800000E+00  1.00800000E+00  1.60000000E+01
  1.00800000E+00  1.00800000E+00  1.60000000E+01  1.00800000E+00  1.00800000E+00
  1.60000000E+01  1.00800000E+00  1.00800000E+00  1.60000000E+01  1.00800000E+00
  1.00800000E+00  1.60000000E+01  1.00800000E+00  1.00800000E+00  1.60000000E+01
  1.00800000E+00  1.00800000E+00  1.60000000E+01  1.00800000E+00  1.00800000E+00
  1.60000000E+01  1.00800000E+00  1.00800000E+00  1.60000000E+01  1.00800000E+00
  1.00800000E+00  1.60000000E+01  1.00800000E+00  1.00800000E+00  1.60000000E+01
  1.00800000E+00  1.00800000E+00  1.60000000E+01  1.00800000E+00  1.00800000E+00
  1.60000000E+01  1.00800000E+00  1.00800000E+00  1.60000000E+01  1.00800000E+00
  1.00800000E+00  1.60000000E+01  1.00800000E+00  1.00800000E+00  1.60000000E+01
  1.00800000E+00  1.00800000E+00  1.60000000E+01  1.00800000E+00  1.00800000E+00
  1.60000000E+01  1.00800000E+00  1.00800000E+00  1.60000000E+01  1.00800000E+00
  1.00800000E+00  1.60000000E+01  1.00800000E+00  1.00800000E+00  1.60000000E+01
  1.00800000E+00  1.00800000E+00  1.60000000E+01  1.00800000E+00  1.00800000E+00
  1.60000000E+01  1.00800000E+00  1.00800000E+00  1.60000000E+01  1.00800000E+00
  1.00800000E+00  1.60000000E+01  1.00800000E+00  1.00800000E+00  1.60000000E+01
  1.00800000E+00  1.00800000E+00  1.60000000E+01  1.00800000E+00  1.00800000E+00
  1.60000000E+01  1.00800000E+00  1.00800000E+00  1.60000000E+01  1.00800000E+00
  1.00800000E+00  1.60000000E+01  1.00800000E+00  1.00800000E+00  1.60000000E+01
  1.00800000E+00  1.00800000E+00  1.60000000E+01  1.00800000E+00  1.00800000E+00
  1.60000000E+01  1.00800000E+00  1.00800000E+00  1.60000000E+01  1.00800000E+00
  1.00800000E+00  1.60000000E+01  1.00800000E+00  1.00800000E+00  1.60000000E+01
  1.00800000E+00  1.00800000E+00  1.60000000E+01  1.00800000E+00  1.00800000E+00
  1.60000000E+01  1.00800000E+00  1.00800000E+00  1.60000000E+01  1.00800000E+00
  1.00800000E+00  1.60000000E+01  1.00800000E+00  1.00800000E+00  1.60000000E+01
  1.00800000E+00  1.00800000E+00  1.60000000E+01  1.00800000E+00  1.00800000E+00
  1.60000000E+01  1.00800000E+00  1.00800000E+00  1.60000000E+01  1.00800000E+00
  1.00800000E+00  1.60000000E+01  1.00800000E+00  1.00800000E+00  1.60000000E+01
  1.00800000E+00  1.00800000E+00  1.60000000E+01  1.00800000E+00  1.00800000E+00
  1.60000000E+01  1.00800000E+00  1.00800000E+00  1.60000000E+01  1.00800000E+00
  1.00800000E+00  1.60000000E+01  1.00800000E+00  1.00800000E+00  1.60000000E+01
  1.00800000E+00  1.00800000E+00  1.60000000E+01  1.00800000E+00  1.00800000E+00
  1.60000000E+01  1.00800000E+00  1.00800000E+00  1.60000000E+01  1.00800000E+00
  1.00800000E+00  1.60000000E+01  1.00800000E+00  1.00800000E+00  1.60000000E+01
  1.00800000E+00  1.00800000E+00  1.60000000E+01  1.00800000E+00  1.00800000E+00
  1.60000000E+01  1.00800000E+00  1.00800000E+00  1.60000000E+01  1.00800000E+00
  1.00800000E+00  1.60000000E+01  1.00800000E+00  1.00800000E+00  1.60000000E+01
  1.00800000E+00  1.00800000E+00  1.60000000E+01  1.00800000E+00  1.00800000E+00
  1.60000000E+01  1.00800000E+00  1.00800000E+00  1.60000000E+01  1.00800000E+00
  1.00800000E+00  1.60000000E+01  1.00800000E+00  1.00800000E+00  1.60000000E+01
  1.00800000E+00  1.00800000E+00  1.60000000E+01  1.00800000E+00  1.00800000E+00
  1.60000000E+01  1.00800000E+00  1.00800000E+00  1.60000000E+01  1.00800000E+00
  1.00800000E+00  1.60000000E+01  1.00800000E+00  1.00800000E+00  1.60000000E+01
  1.00800000E+00  1.00800000E+00  1.60000000E+01  1.00800000E+00  1.00800000E+00
  1.60000000E+01  1.00800000E+00  1.00800000E+00  1.60000000E+01  1.00800000E+00
  1.00800000E+00  1.60000000E+01  1.00800000E+00  1.00800000E+00  1.60000000E+01
  1.00800000E+00  1.00800000E+00  1.60000000E+01  1.00800000E+00  1.00800000E+00
  1.60000000E+01  1.00800000E+00  1.00800000E+00  1.60000000E+01  1.00800000E+00
  1.00800000E+00  1.60000000E+01  1.00800000E+00  1.00800000E+00  1.60000000E+01
  1.00800000E+00  1.00800000E+00  1.60000000E+01  1.00800000E+00  1.00800000E+00
  1.60000000E+01  1.00800000E+00  1.00800000E+00  1.60000000E+01  1.00800000E+00
  1.00800000E+00  1.60000000E+01  1.00800000E+00  1.00800000E+00  1.60000000E+01
  1.00800000E+00  1.00800000E+00  1.60000000E+01  1.00800000E+00  1.00800000E+00
  1.60000000E+01  1.00800000E+00  1.00800000E+00  1.60000000E+01  1.00800000E+00
  1.00800000E+00  1.60000000E+01  1.00800000E+00  1.00800000E+00  1.60000000E+01
  1.00800000E+00  1.00800000E+00  1.60000000E+01  1.00800000E+00  1.00800000E+00
  1.60000000E+01  1.00800000E+00  1.00800000E+00  1.60000000E+01  1.00800000E+00
  1.00800000E+00  1.60000000E+01  1.00800000E+00  1.00800000E+00  1.60000000E+01
  1.00800000E+00  1.00800000E+00  1.60000000E+01  1.00800000E+00  1.00800000E+00
  1.60000000E+01  1.00800000E+00  1.00800000E+00  1.60000000E+01  1.00800000E+00
  1.00800000E+00  1.60000000E+01  1.00800000E+00  1.00800000E+00  1.60000000E+01
  1.00800000E+00  1.00800000E+00  1.60000000E+01  1.00800000E+00  1.00800000E+00
  1.60000000E+01  1.00800000E+00  1.00800000E+00  1.60000000E+01  1.00800000E+00
  1.00800000E+00  1.60000000E+01  1.00800000E+00  1.00800000E+00  1.60000000E+01
  1.00800000E+00  1.00800000E+00  1.60000000E+01  1.00800000E+00  1.00800000E+00
  1.60000000E+01  1.00800000E+00  1.00800000E+00  1.60000000E+01  1.00800000E+00
  1.00800000E+00  1.60000000E+01  1.00800000E+00  1.00800000E+00  1.60000000E+01
  1.00800000E+00  1.00800000E+00  1.60000000E+01  1.00800000E+00  1.00800000E+00
  1.60000000E+01  1.00800000E+00  1.00800000E+00  1.60000000E+01  1.00800000E+00
  1.00800000E+00  1.60000000E+01  1.00800000E+00  1.00800000E+00  1.60000000E+01
  1.00800000E+00  1.00800000E+00  1.60000000E+01  1.00800000E+00  1.00800000E+00
  1.60000000E+01  1.00800000E+00  1.00800000E+00  1.60000000E+01  1.00800000E+00
  1.00800000E+00  1.60000000E+01  1.00800000E+00  1.00800000E+00  1.60000000E+01
  1.00800000E+00  1.00800000E+00  1.60000000E+01  1.00800000E+00  1.00800000E+00
  1.60000000E+01  1.00800000E+00  1.00800000E+00  1.60000000E+01  1.00800000E+00
  1.00800000E+00  1.60000000E+01  1.00800000E+00  1.00800000E+00  1.60000000E+01
  1.00800000E+00  1.00800000E+00  1.60000000E+01  1.00800000E+00  1.00800000E+00
  1.60000000E+01  1.00800000E+00  1.00800000E+00  1.60000000E+01  1.00800000E+00
  1.00800000E+00  1.60000000E+01  1.00800000E+00  1.00800000E+00  1.60000000E+01
  1.00800000E+00  1.00800000E+00  1.60000000E+01  1.00800000E+00  1.00800000E+00
  1.60000000E+01  1.00800000E+00  1.00800000E+00  1.60000000E+01  1.00800000E+00
  1.00800000E+00  1.60000000E+01  1.00800000E+00  1.00800000E+00  1.60000000E+01
  1.00800000E+00  1.00800000E+00  1.60000000E+01  1.00800000E+00  1.00800000E+00
  1.60000000E+01  1.00800000E+00  1.00800000E+00  1.60000000E+01  1.00800000E+00
  1.00800000E+00  1.60000000E+01  1.00800000E+00  1.00800000E+00  1.60000000E+01
  1.00800000E+00  1.00800000E+00  1.60000000E+01  1.00800000E+00  1.00800000E+00
  1.60000000E+01  1.00800000E+00  1.00800000E+00  1.60000000E+01  1.00800000E+00
  1.00800000E+00  1.60000000E+01  1.00800000E+00  1.00800000E+00  1.60000000E+01
  1.00800000E+00  1.00800000E+00  1.60000000E+01  1.00800000E+00  1.00800000E+00
  1.60000000E+01  1.00800000E+00  1.00800000E+00  1.60000000E+01  1.00800000E+00
  1.00800000E+00  1.60000000E+01  1.00800000E+00  1.00800000E+00  1.60000000E+01
  1.00800000E+00  1.00800000E+00  1.60000000E+01  1.00800000E+00  1.00800000E+00
  1.60000000E+01  1.00800000E+00  1.00800000E+00  1.60000000E+01  1.00800000E+00
  1.00800000E+00  1.60000000E+01  1.00800000E+00  1.00800000E+00  1.60000000E+01
  1.00800000E+00  1.00800000E+00  1.60000000E+01  1.00800000E+00  1.00800000E+00
  1.60000000E+01  1.00800000E+00  1.00800000E+00  1.60000000E+01  1.00800000E+00
  1.00800000E+00  1.60000000E+01  1.00800000E+00  1.00800000E+00  1.60000000E+01
  1.00800000E+00  1.00800000E+00  1.60000000E+01  1.00800000E+00  1.00800000E+00
  1.60000000E+01  1.00800000E+00  1.00800000E+00  1.60000000E+01  1.00800000E+00
  1.00800000E+00  1.60000000E+01  1.00800000E+00  1.00800000E+00  1.60000000E+01
  1.00800000E+00  1.00800000E+00  1.60000000E+01  1.00800000E+00  1.00800000E+00
  1.60000000E+01  1.00800000E+00  1.00800000E+00  1.60000000E+01  1.00800000E+00
  1.00800000E+00  1.60000000E+01  1.00800000E+00  1.00800000E+00  1.60000000E+01
  1.00800000E+00  1.00800000E+00  1.60000000E+01  1.00800000E+00  1.00800000E+00
  1.60000000E+01  1.00800000E+00  1.00800000E+00  1.60000000E+01  1.00800000E+00
  1.00800000E+00  1.60000000E+01  1.00800000E+00  1.00800000E+00  1.60000000E+01
  1.00800000E+00  1.00800000E+00  1.60000000E+01  1.00800000E+00  1.00800000E+00
  1.60000000E+01  1.00800000E+00  1.00800000E+00  1.60000000E+01  1.00800000E+00
  1.00800000E+00  1.60000000E+01  1.00800000E+00  1.00800000E+00  1.60000000E+01
  1.00800000E+00  1.00800000E+00  1.60000000E+01  1.00800000E+00  1.00800000E+00
  1.60000000E+01  1.00800000E+00  1.00800000E+00  1.60000000E+01  1.00800000E+00
  1.00800000E+00  1.60000000E+01  1.00800000E+00  1.00800000E+00  1.60000000E+01
  1.00800000E+00  1.00800000E+00  1.60000000E+01  1.00800000E+00  1.00800000E+00
  1.60000000E+01  1.00800000E+00  1.00800000E+00  1.60000000E+01  1.00800000E+00
  1.00800000E+00  1.60000000E+01  1.00800000E+00  1.00800000E+00  1.60000000E+01
  1.00800000E+00  1.00800000E+00  1.60000000E+01  1.00800000E+00  1.00800000E+00
  1.60000000E+01  1.00800000E+00  1.00800000E+00  1.60000000E+01  1.00800000E+00
  1.00800000E+00  1.60000000E+01  1.00800000E+00  1.00800000E+00  1.60000000E+01
  1.00800000E+00  1.00800000E+00  1.60000000E+01  1.00800000E+00  1.00800000E+00
  1.60000000E+01  1.00800000E+00  1.00800000E+00  1.60000000E+01  1.00800000E+00
  1.00800000E+00  1.60000000E+01  1.00800000E+00  1.00800000E+00  1.60000000E+01
  1.00800000E+00  1.00800000E+00  1.60000000E+01  1.00800000E+00  1.00800000E+00
  1.60000000E+01  1.00800000E+00  1.00800000E+00  1.60000000E+01  1.00800000E+00
  1.00800000E+00  1.60000000E+01  1.00800000E+00  1.00800000E+00  1.60000000E+01
  1.00800000E+00  1.00800000E+00  1.60000000E+01  1.00800000E+00  1.00800000E+00
  1.60000000E+01  1.00800000E+00  1.00800000E+00  1.60000000E+01  1.00800000E+00
  1.00800000E+00  1.60000000E+01  1.00800000E+00  1.00800000E+00  1.60000000E+01
  1.00800000E+00  1.00800000E+00  1.60000000E+01  1.00800000E+00  1.00800000E+00
  1.60000000E+01  1.00800000E+00  1.00800000E+00  1.60000000E+01  1.00800000E+00
  1.00800000E+00  1.60000000E+01  1.00800000E+00  1.00800000E+00  1.60000000E+01
  1.00800000E+00  1.00800000E+00  1.60000000E+01  1.00800000E+00  1.00800000E+00
  1.60000000E+01  1.00800000E+00  1.00800000E+00  1.60000000E+01  1.00800000E+00
  1.00800000E+00  1.60000000E+01  1.00800000E+00  1.00800000E+00  1.60000000E+01
  1.00800000E+00  1.00800000E+00  1.60000000E+01  1.00800000E+00  1.00800000E+00
  1.60000000E+01  1.00800000E+00  1.00800000E+00  1.60000000E+01  1.00800000E+00
  1.00800000E+00  1.60000000E+01  1.00800000E+00  1.00800000E+00  1.60000000E+01
  1.00800000E+00  1.00800000E+00  1.60000000E+01  1.00800000E+00  1.00800000E+00
  1.60000000E+01  1.00800000E+00  1.00800000E+00  1.60000000E+01  1.00800000E+00
  1.00800000E+00  1.60000000E+01  1.00800000E+00  1.00800000E+00  1.60000000E+01
  1.00800000E+00  1.00800000E+00  1.60000000E+01  1.00800000E+00  1.00800000E+00
  1.60000000E+01  1.00800000E+00  1.00800000E+00  1.60000000E+01  1.00800000E+00
  1.00800000E+00  1.60000000E+01  1.00800000E+00  1.00800000E+00  1.60000000E+01
  1.00800000E+00  1.00800000E+00  1.60000000E+01  1.00800000E+00  1.00800000E+00
  1.60000000E+01  1.00800000E+00  1.00800000E+00  1.60000000E+01  1.00800000E+00
  1.00800000E+00  1.60000000E+01  1.00800000E+00  1.00800000E+00  1.60000000E+01
  1.00800000E+00  1.00800000E+00  1.60000000E+01  1.00800000E+00  1.00800000E+00
  1.60000000E+01  1.00800000E+00  1.00800000E+00  1.60000000E+01  1.00800000E+00
  1.00800000E+00  1.60000000E+01  1.00800000E+00  1.00800000E+00  1.60000000E+01
  1.00800000E+00  1.00800000E+00  1.60000000E+01  1.00800000E+00  1.00800000E+00
  1.60000000E+01  1.00800000E+00  1.00800000E+00  1.60000000E+01  1.00800000E+00
  1.00800000E+00  1.60000000E+01  1.00800000E+00  1.00800000E+00  1.60000000E+01
  1.00800000E+00  1.00800000E+00  1.60000000E+01  1.00800000E+00  1.00800000E+00
  1.60000000E+01  1.00800000E+00  1.00800000E+00  1.60000000E+01  1.00800000E+00
  1.00800000E+00  1.60000000E+01  1.00800000E+00  1.00800000E+00  1.60000000E+01
  1.00800000E+00  1.00800000E+00  1.60000000E+01  1.00800000E+00  1.00800000E+00
  1.60000000E+01  1.00800000E+00  1.00800000E+00  1.60000000E+01  1.00800000E+00
  1.00800000E+00  1.60000000E+01  1.00800000E+00  1.00800000E+00  1.60000000E+01
  1.00800000E+00  1.00800000E+00  1.60000000E+01  1.00800000E+00  1.00800000E+00
  1.60000000E+01  1.00800000E+00  1.00800000E+00  1.60000000E+01  1.00800000E+00
  1.00800000E+00  1.60000000E+01  1.00800000E+00  1.00800000E+00  1.60000000E+01
  1.00800000E+00  1.00800000E+00  1.60000000E+01  1.00800000E+00  1.00800000E+00
  1.60000000E+01  1.00800000E+00  1.00800000E+00  1.60000000E+01  1.00800000E+00
  1.00800000E+00  1.60000000E+01  1.00800000E+00  1.00800000E+00  1.60000000E+01
  1.00800000E+00  1.00800000E+00  1.60000000E+01  1.00800000E+00  1.00800000E+00
  1.60000000E+01  1.00800000E+00  1.00800000E+00  1.60000000E+01  1.00800000E+00
  1.00800000E+00  1.60000000E+01  1.00800000E+00  1.00800000E+00  1.60000000E+01
  1.00800000E+00  1.00800000E+00  1.60000000E+01  1.00800000E+00  1.00800000E+00
  1.60000000E+01  1.00800000E+00  1.00800000E+00  1.60000000E+01  1.00800000E+00
  1.00800000E+00  1.60000000E+01  1.00800000E+00  1.00800000E+00  1.60000000E+01
  1.00800000E+00  1.00800000E+00  1.60000000E+01  1.00800000E+00  1.00800000E+00
  1.60000000E+01  1.00800000E+00  1.00800000E+00  1.60000000E+01  1.00800000E+00
  1.00800000E+00  1.60000000E+01  1.00800000E+00  1.00800000E+00  1.60000000E+01
  1.00800000E+00  1.00800000E+00  1.60000000E+01  1.00800000E+00  1.00800000E+00
  1.60000000E+01  1.00800000E+00  1.00800000E+00  1.60000000E+01  1.00800000E+00
  1.00800000E+00  1.60000000E+01  1.00800000E+00  1.00800000E+00  1.60000000E+01
  1.00800000E+00  1.00800000E+00  1.60000000E+01  1.00800000E+00  1.00800000E+00
  1.60000000E+01  1.00800000E+00  1.00800000E+00  1.60000000E+01  1.00800000E+00
  1.00800000E+00  1.60000000E+01  1.00800000E+00  1.00800000E+00  1.60000000E+01
  1.00800000E+00  1.00800000E+00  1.60000000E+01  1.00800000E+00  1.00800000E+00
  1.60000000E+01  1.00800000E+00  1.00800000E+00  1.60000000E+01  1.00800000E+00
  1.00800000E+00  1.60000000E+01  1.00800000E+00  1.00800000E+00  1.60000000E+01
  1.00800000E+00  1.00800000E+00  1.60000000E+01  1.00800000E+00  1.00800000E+00
  1.60000000E+01  1.00800000E+00  1.00800000E+00  1.60000000E+01  1.00800000E+00
  1.00800000E+00  1.60000000E+01  1.00800000E+00  1.00800000E+00  1.60000000E+01
  1.00800000E+00  1.00800000E+00  1.60000000E+01  1.00800000E+00  1.00800000E+00
  1.60000000E+01  1.00800000E+00  1.00800000E+00  1.60000000E+01  1.00800000E+00
  1.00800000E+00  1.60000000E+01  1.00800000E+00  1.00800000E+00  1.60000000E+01
  1.00800000E+00  1.00800000E+00  1.60000000E+01  1.00800000E+00  1.00800000E+00
  1.60000000E+01  1.00800000E+00  1.00800000E+00  1.60000000E+01  1.00800000E+00
  1.00800000E+00  1.60000000E+01  1.00800000E+00  1.00800000E+00  1.60000000E+01
  1.00800000E+00  1.00800000E+00  1.60000000E+01  1.00800000E+00  1.00800000E+00
  1.60000000E+01  1.00800000E+00  1.00800000E+00  1.60000000E+01  1.00800000E+00
  1.00800000E+00  1.60000000E+01  1.00800000E+00  1.00800000E+00  1.60000000E+01
  1.00800000E+00  1.00800000E+00  1.60000000E+01  1.00800000E+00  1.00800000E+00
  1.60000000E+01  1.00800000E+00  1.00800000E+00  1.60000000E+01  1.00800000E+00
  1.00800000E+00  1.60000000E+01  1.00800000E+00  1.00800000E+00  1.60000000E+01
  1.00800000E+00  1.00800000E+00  1.60000000E+01  1.00800000E+00  1.00800000E+00
  1.60000000E+01  1.00800000E+00  1.00800000E+00  1.60000000E+01  1.00800000E+00
  1.00800000E+00  1.60000000E+01  1.00800000E+00  1.00800000E+00  1.60000000E+01
  1.00800000E+00  1.00800000E+00  1.60000000E+01  1.00800000E+00  1.00800000E+00
  1.60000000E+01  1.00800000E+00  1.00800000E+00  1.60000000E+01  1.00800000E+00
  1.00800000E+00  1.60000000E+01  1.00800000E+00  1.00800000E+00  1.60000000E+01
  1.00800000E+00  1.00800000E+00  1.60000000E+01  1.00800000E+00  1.00800000E+00
  1.60000000E+01  1.00800000E+00  1.00800000E+00  1.60000000E+01  1.00800000E+00
  1.00800000E+00  1.60000000E+01  1.00800000E+00  1.00800000E+00  1.60000000E+01
  1.00800000E+00  1.00800000E+00  1.60000000E+01  1.00800000E+00  1.00800000E+00
  1.60000000E+01  1.00800000E+00  1.00800000E+00  1.60000000E+01  1.00800000E+00
  1.00800000E+00  1.60000000E+01  1.00800000E+00  1.00800000E+00  1.60000000E+01
  1.00800000E+00  1.00800000E+00  1.60000000E+01  1.00800000E+00  1.00800000E+00
  1.60000000E+01  1.00800000E+00  1.00800000E+00  1.60000000E+01  1.00800000E+00
  1.00800000E+00  1.60000000E+01  1.00800000E+00  1.00800000E+00  1.60000000E+01
  1.00800000E+00  1.00800000E+00  1.60000000E+01  1.00800000E+00  1.00800000E+00
  1.60000000E+01  1.00800000E+00  1.00800000E+00  1.60000000E+01  1.00800000E+00
  1.00800000E+00  1.60000000E+01  1.00800000E+00  1.00800000E+00  1.60000000E+01
  1.00800000E+00  1.00800000E+00  1.60000000E+01  1.00800000E+00  1.00800000E+00
  1.60000000E+01  1.00800000E+00  1.00800000E+00  1.60000000E+01  1.00800000E+00
  1.00800000E+00  1.60000000E+01  1.00800000E+00  1.00800000E+00  1.60000000E+01
  1.00800000E+00  1.00800000E+00  1.60000000E+01  1.00800000E+00  1.00800000E+00
  1.60000000E+01  1.00800000E+00  1.00800000E+00  1.60000000E+01  1.00800000E+00
  1.00800000E+00  1.60000000E+01  1.00800000E+00  1.00800000E+00  1.60000000E+01
  1.00800000E+00  1.00800000E+00  1.60000000E+01  1.00800000E+00  1.00800000E+00
  1.60000000E+01  1.00800000E+00  1.00800000E+00  1.60000000E+01  1.00800000E+00
  1.00800000E+00  1.60000000E+01  1.00800000E+00  1.00800000E+00  1.60000000E+01
  1.00800000E+00  1.00800000E+00  1.60000000E+01  1.00800000E+00  1.00800000E+00
  1.60000000E+01  1.00800000E+00  1.00800000E+00  1.60000000E+01  1.00800000E+00
  1.00800000E+00  1.60000000E+01  1.00800000E+00  1.00800000E+00  1.60000000E+01
  1.00800000E+00  1.00800000E+00  1.60000000E+01  1.00800000E+00  1.00800000E+00
  1.60000000E+01  1.00800000E+00  1.00800000E+00  1.60000000E+01  1.00800000E+00
  1.00800000E+00  1.60000000E+01  1.00800000E+00  1.00800000E+00  1.60000000E+01
  1.00800000E+00  1.00800000E+00  1.60000000E+01  1.00800000E+00  1.00800000E+00
  1.60000000E+01  1.00800000E+00  1.00800000E+00  1.60000000E+01  1.00800000E+00
  1.00800000E+00  1.60000000E+01  1.00800000E+00  1.00800000E+00  1.60000000E+01
  1.00800000E+00  1.00800000E+00  1.60000000E+01  1.00800000E+00  1.00800000E+00
  1.60000000E+01  1.00800000E+00  1.00800000E+00  1.60000000E+01  1.00800000E+00
  1.00800000E+00  1.60000000E+01  1.00800000E+00  1.00800000E+00  1.60000000E+01
  1.00800000E+00  1.00800000E+00  1.60000000E+01  1.00800000E+00  1.00800000E+00
  1.60000000E+01  1.00800000E+00  1.00800000E+00  1.60000000E+01  1.00800000E+00
  1.00800000E+00  1.60000000E+01  1.00800000E+00  1.00800000E+00  1.60000000E+01
  1.00800000E+00  1.00800000E+00  1.60000000E+01  1.00800000E+00  1.00800000E+00
  1.60000000E+01  1.00800000E+00  1.00800000E+00  1.60000000E+01  1.00800000E+00
  1.00800000E+00  1.60000000E+01  1.00800000E+00  1.00800000E+00  1.60000000E+01
  1.00800000E+00  1.00800000E+00  1.60000000E+01  1.00800000E+00  1.00800000E+00
  1.60000000E+01  1.00800000E+00  1.00800000E+00  1.60000000E+01  1.00800000E+00
  1.00800000E+00  1.60000000E+01  1.00800000E+00  1.00800000E+00  1.60000000E+01
  1.00800000E+00  1.00800000E+00  1.60000000E+01  1.00800000E+00  1.00800000E+00
  1.60000000E+01  1.00800000E+00  1.00800000E+00  1.60000000E+01  1.00800000E+00
  1.00800000E+00  1.60000000E+01  1.00800000E+00  1.00800000E+00  1.60000000E+01
  1.00800000E+00  1.00800000E+00  1.60000000E+01  1.00800000E+00  1.00800000E+00
  1.60000000E+01  1.00800000E+00  1.00800000E+00  1.60000000E+01  1.00800000E+00
  1.00800000E+00  1.60000000E+01  1.00800000E+00  1.00800000E+00  1.60000000E+01
  1.00800000E+00  1.00800000E+00  1.60000000E+01  1.00800000E+00  1.00800000E+00
  1.60000000E+01  1.00800000E+00  1.00800000E+00  1.60000000E+01  1.00800000E+00
  1.00800000E+00  1.60000000E+01  1.00800000E+00  1.00800000E+00  1.60000000E+01
  1.00800000E+00  1.00800000E+00  1.60000000E+01  1.00800000E+00  1.00800000E+00
  1.60000000E+01  1.00800000E+00  1.00800000E+00  1.60000000E+01  1.00800000E+00
  1.00800000E+00  1.60000000E+01  1.00800000E+00  1.00800000E+00  1.60000000E+01
  1.00800000E+00  1.00800000E+00  1.60000000E+01  1.00800000E+00  1.00800000E+00
  1.60000000E+01  1.00800000E+00  1.00800000E+00  1.60000000E+01  1.00800000E+00
  1.00800000E+00  1.60000000E+01  1.00800000E+00  1.00800000E+00  1.60000000E+01
  1.00800000E+00  1.00800000E+00  1.60000000E+01  1.00800000E+00  1.00800000E+00
  1.60000000E+01  1.00800000E+00  1.00800000E+00  1.60000000E+01  1.00800000E+00
  1.00800000E+00  1.60000000E+01  1.00800000E+00  1.00800000E+00  1.60000000E+01
  1.00800000E+00  1.00800000E+00  1.60000000E+01  1.00800000E+00  1.00800000E+00
  1.60000000E+01  1.00800000E+00  1.00800000E+00  1.60000000E+01  1.00800000E+00
  1.00800000E+00  1.60000000E+01  1.00800000E+00  1.00800000E+00  1.60000000E+01
  1.00800000E+00  1.00800000E+00  1.60000000E+01  1.00800000E+00  1.00800000E+00
  1.60000000E+01  1.00800000E+00  1.00800000E+00  1.60000000E+01  1.00800000E+00
  1.00800000E+00  1.60000000E+01  1.00800000E+00  1.00800000E+00  1.60000000E+01
  1.00800000E+00  1.00800000E+00  1.60000000E+01  1.00800000E+00  1.00800000E+00
  1.60000000E+01  1.00800000E+00  1.00800000E+00  1.60000000E+01  1.00800000E+00
  1.00800000E+00  1.60000000E+01  1.00800000E+00  1.00800000E+00  1.60000000E+01
  1.00800000E+00  1.00800000E+00  1.60000000E+01  1.00800000E+00  1.00800000E+00
  1.60000000E+01  1.00800000E+00  1.00800000E+00  1.60000000E+01  1.00800000E+00
  1.00800000E+00  1.60000000E+01  1.00800000E+00  1.00800000E+00  1.60000000E+01
  1.00800000E+00  1.00800000E+00  1.60000000E+01  1.00800000E+00  1.00800000E+00
  1.60000000E+01  1.00800000E+00  1.00800000E+00  1.60000000E+01  1.00800000E+00
  1.00800000E+00  1.60000000E+01  1.00800000E+00  1.00800000E+00  1.60000000E+01
  1.00800000E+00  1.00800000E+00  1.60000000E+01  1.00800000E+00  1.00800000E+00
  1.60000000E+01  1.00800000E+00  1.00800000E+00  1.60000000E+01  1.00800000E+00
  1.00800000E+00  1.60000000E+01  1.00800000E+00  1.00800000E+00  1.60000000E+01
  1.00800000E+00  1.00800000E+00  1.60000000E+01  1.00800000E+00  1.00800000E+00
  1.60000000E+01  1.00800000E+00  1.00800000E+00  1.60000000E+01  1.00800000E+00
  1.00800000E+00  1.60000000E+01  1.00800000E+00  1.00800000E+00  1.60000000E+01
  1.00800000E+00  1.00800000E+00  1.60000000E+01  1.00800000E+00  1.00800000E+00
  1.60000000E+01  1.00800000E+00  1.00800000E+00  1.60000000E+01  1.00800000E+00
  1.00800000E+00  1.60000000E+01  1.00800000E+00  1.00800000E+00  1.60000000E+01
  1.00800000E+00  1.00800000E+00  1.60000000E+01  1.00800000E+00  1.00800000E+00
  1.60000000E+01  1.00800000E+00  1.00800000E+00  1.60000000E+01  1.00800000E+00
  1.00800000E+00  1.60000000E+01  1.00800000E+00  1.00800000E+00  1.60000000E+01
  1.00800000E+00  1.00800000E+00  1.60000000E+01  1.00800000E+00  1.00800000E+00
  1.60000000E+01  1.00800000E+00  1.00800000E+00  1.60000000E+01  1.00800000E+00
  1.00800000E+00  1.60000000E+01  1.00800000E+00  1.00800000E+00  1.60000000E+01
  1.00800000E+00  1.00800000E+00  1.60000000E+01  1.00800000E+00  1.00800000E+00
  1.60000000E+01  1.00800000E+00  1.00800000E+00  1.60000000E+01  1.00800000E+00
  1.00800000E+00  1.60000000E+01  1.00800000E+00  1.00800000E+00  1.60000000E+01
  1.00800000E+00  1.00800000E+00  1.60000000E+01  1.00800000E+00  1.00800000E+00
  1.60000000E+01  1.00800000E+00  1.00800000E+00  1.60000000E+01  1.00800000E+00
  1.00800000E+00  1.60000000E+01  1.00800000E+00  1.00800000E+00  1.60000000E+01
  1.00800000E+00  1.00800000E+00  1.60000000E+01  1.00800000E+00  1.00800000E+00
  1.60000000E+01  1.00800000E+00  1.00800000E+00  1.60000000E+01  1.00800000E+00
  1.00800000E+00  1.60000000E+01  1.00800000E+00  1.00800000E+00  1.60000000E+01
  1.00800000E+00  1.00800000E+00  1.60000000E+01  1.00800000E+00  1.00800000E+00
  1.60000000E+01  1.00800000E+00  1.00800000E+00  1.60000000E+01  1.00800000E+00
  1.00800000E+00  1.60000000E+01  1.00800000E+00  1.00800000E+00  1.60000000E+01
  1.00800000E+00  1.00800000E+00  1.60000000E+01  1.00800000E+00  1.00800000E+00
  1.60000000E+01  1.00800000E+00  1.00800000E+00  1.60000000E+01  1.00800000E+00
  1.00800000E+00  1.60000000E+01  1.00800000E+00  1.00800000E+00  1.60000000E+01
  1.00800000E+00  1.00800000E+00  1.60000000E+01  1.00800000E+00  1.00800000E+00
  1.60000000E+01  1.00800000E+00  1.00800000E+00  1.60000000E+01  1.00800000E+00
  1.00800000E+00  1.60000000E+01  1.00800000E+00  1.00800000E+00  1.60000000E+01
  1.00800000E+00  1.00800000E+00  1.60000000E+01  1.00800000E+00  1.00800000E+00
  1.60000000E+01  1.00800000E+00  1.00800000E+00  1.60000000E+01  1.00800000E+00
  1.00800000E+00  1.60000000E+01  1.00800000E+00  1.00800000E+00  1.60000000E+01
  1.00800000E+00  1.00800000E+00  1.60000000E+01  1.00800000E+00  1.00800000E+00
  1.60000000E+01  1.00800000E+00  1.00800000E+00  1.60000000E+01  1.00800000E+00
  1.00800000E+00  1.60000000E+01  1.00800000E+00  1.00800000E+00  1.60000000E+01
  1.00800000E+00  1.00800000E+00  1.60000000E+01  1.00800000E+00  1.00800000E+00
  1.60000000E+01  1.00800000E+00  1.00800000E+00  1.60000000E+01  1.00800000E+00
  1.00800000E+00  1.60000000E+01  1.00800000E+00  1.00800000E+00  1.60000000E+01
  1.00800000E+00  1.00800000E+00  1.60000000E+01  1.00800000E+00  1.00800000E+00
  1.60000000E+01  1.00800000E+00  1.00800000E+00  1.60000000E+01  1.00800000E+00
  1.00800000E+00  1.60000000E+01  1.00800000E+00  1.00800000E+00  1.60000000E+01
  1.00800000E+00  1.00800000E+00  1.60000000E+01  1.00800000E+00  1.00800000E+00
  1.60000000E+01  1.00800000E+00  1.00800000E+00  1.60000000E+01  1.00800000E+00
  1.00800000E+00  1.60000000E+01  1.00800000E+00  1.00800000E+00  1.60000000E+01
  1.00800000E+00  1.00800000E+00  1.60000000E+01  1.00800000E+00  1.00800000E+00
  1.60000000E+01  1.00800000E+00  1.00800000E+00  1.60000000E+01  1.00800000E+00
  1.00800000E+00  1.60000000E+01  1.00800000E+00  1.00800000E+00  1.60000000E+01
  1.00800000E+00  1.00800000E+00  1.60000000E+01  1.00800000E+00  1.00800000E+00
  1.60000000E+01  1.00800000E+00  1.00800000E+00  1.60000000E+01  1.00800000E+00
  1.00800000E+00  1.60000000E+01  1.00800000E+00  1.00800000E+00  1.60000000E+01
  1.00800000E+00  1.00800000E+00  1.60000000E+01  1.00800000E+00  1.00800000E+00
  1.60000000E+01  1.00800000E+00  1.00800000E+00  1.60000000E+01  1.00800000E+00
  1.00800000E+00  1.60000000E+01  1.00800000E+00  1.00800000E+00  1.60000000E+01
  1.00800000E+00  1.00800000E+00  1.60000000E+01  1.00800000E+00  1.00800000E+00
  1.60000000E+01  1.00800000E+00  1.00800000E+00  1.60000000E+01  1.00800000E+00
  1.00800000E+00  1.60000000E+01  1.00800000E+00  1.00800000E+00  1.60000000E+01
  1.00800000E+00  1.00800000E+00  1.60000000E+01  1.00800000E+00  1.00800000E+00
  1.60000000E+01  1.00800000E+00  1.00800000E+00  1.60000000E+01  1.00800000E+00
  1.00800000E+00  1.60000000E+01  1.00800000E+00  1.00800000E+00  1.60000000E+01
  1.00800000E+00  1.00800000E+00  1.60000000E+01  1.00800000E+00  1.00800000E+00
  1.60000000E+01  1.00800000E+00  1.00800000E+00  1.60000000E+01  1.00800000E+00
  1.00800000E+00  1.60000000E+01  1.00800000E+00  1.00800000E+00  1.60000000E+01
  1.00800000E+00  1.00800000E+00  1.60000000E+01  1.00800000E+00  1.00800000E+00
  1.60000000E+01  1.00800000E+00  1.00800000E+00  1.60000000E+01  1.00800000E+00
  1.00800000E+00  1.60000000E+01  1.00800000E+00  1.00800000E+00  1.60000000E+01
  1.00800000E+00  1.00800000E+00  1.60000000E+01  1.00800000E+00  1.00800000E+00
  1.60000000E+01  1.00800000E+00  1.00800000E+00  1.60000000E+01  1.00800000E+00
  1.00800000E+00  1.60000000E+01  1.00800000E+00  1.00800000E+00  1.60000000E+01
  1.00800000E+00  1.00800000E+00  1.60000000E+01  1.00800000E+00  1.00800000E+00
  1.60000000E+01  1.00800000E+00  1.00800000E+00  1.60000000E+01  1.00800000E+00
  1.00800000E+00  1.60000000E+01  1.00800000E+00  1.00800000E+00  1.60000000E+01
  1.00800000E+00  1.00800000E+00  1.60000000E+01  1.00800000E+00  1.00800000E+00
  1.60000000E+01  1.00800000E+00  1.00800000E+00  1.60000000E+01  1.00800000E+00
  1.00800000E+00  1.60000000E+01  1.00800000E+00  1.00800000E+00  1.60000000E+01
  1.00800000E+00  1.00800000E+00  1.60000000E+01  1.00800000E+00  1.00800000E+00
  1.60000000E+01  1.00800000E+00  1.00800000E+00  1.60000000E+01  1.00800000E+00
  1.00800000E+00  1.60000000E+01  1.00800000E+00  1.00800000E+00  1.60000000E+01
  1.00800000E+00  1.00800000E+00  1.60000000E+01  1.00800000E+00  1.00800000E+00
  1.60000000E+01  1.00800000E+00  1.00800000E+00  1.60000000E+01  1.00800000E+00
  1.00800000E+00  1.60000000E+01  1.00800000E+00  1.00800000E+00  1.60000000E+01
  1.00800000E+00  1.00800000E+00  1.60000000E+01  1.00800000E+00  1.00800000E+00
  1.60000000E+01  1.00800000E+00  1.00800000E+00  1.60000000E+01  1.00800000E+00
  1.00800000E+00  1.60000000E+01  1.00800000E+00  1.00800000E+00  1.60000000E+01
  1.00800000E+00  1.00800000E+00  1.60000000E+01  1.00800000E+00  1.00800000E+00
  1.60000000E+01  1.00800000E+00  1.00800000E+00  1.60000000E+01  1.00800000E+00
  1.00800000E+00  1.60000000E+01  1.00800000E+00  1.00800000E+00  1.60000000E+01
  1.00800000E+00  1.00800000E+00  1.60000000E+01  1.00800000E+00  1.00800000E+00
  1.60000000E+01  1.00800000E+00  1.00800000E+00  1.60000000E+01  1.00800000E+00
  1.00800000E+00  1.60000000E+01  1.00800000E+00  1.00800000E+00  1.60000000E+01
  1.00800000E+00  1.00800000E+00  1.60000000E+01  1.00800000E+00  1.00800000E+00
  1.60000000E+01  1.00800000E+00  1.00800000E+00  1.60000000E+01  1.00800000E+00
  1.00800000E+00  1.60000000E+01  1.00800000E+00  1.00800000E+00  1.60000000E+01
  1.00800000E+00  1.00800000E+00  1.60000000E+01  1.00800000E+00  1.00800000E+00
  1.60000000E+01  1.00800000E+00  1.00800000E+00  1.60000000E+01  1.00800000E+00
  1.00800000E+00  1.60000000E+01  1.00800000E+00  1.00800000E+00  1.60000000E+01
  1.00800000E+00  1.00800000E+00  1.60000000E+01  1.00800000E+00  1.00800000E+00
  1.60000000E+01  1.00800000E+00  1.00800000E+00  1.60000000E+01  1.00800000E+00
  1.00800000E+00  1.60000000E+01  1.00800000E+00  1.00800000E+00  1.60000000E+01
  1.00800000E+00  1.00800000E+00  1.60000000E+01  1.00800000E+00  1.00800000E+00
  1.60000000E+01  1.00800000E+00  1.00800000E+00  1.60000000E+01  1.00800000E+00
  1.00800000E+00  1.60000000E+01  1.00800000E+00  1.00800000E+00  1.60000000E+01
  1.00800000E+00  1.00800000E+00  1.60000000E+01  1.00800000E+00  1.00800000E+00
  1.60000000E+01  1.00800000E+00  1.00800000E+00  1.60000000E+01  1.00800000E+00
  1.00800000E+00  1.60000000E+01  1.00800000E+00  1.00800000E+00  1.60000000E+01
  1.00800000E+00  1.00800000E+00  1.60000000E+01  1.00800000E+00  1.00800000E+00
  1.60000000E+01  1.00800000E+00  1.00800000E+00  1.60000000E+01  1.00800000E+00
  1.00800000E+00  1.60000000E+01  1.00800000E+00  1.00800000E+00  1.60000000E+01
  1.00800000E+00  1.00800000E+00  1.60000000E+01  1.00800000E+00  1.00800000E+00
  1.60000000E+01  1.00800000E+00  1.00800000E+00  1.60000000E+01  1.00800000E+00
  1.00800000E+00  1.60000000E+01  1.00800000E+00  1.00800000E+00  1.60000000E+01
  1.00800000E+00  1.00800000E+00  1.60000000E+01  1.00800000E+00  1.00800000E+00
  1.60000000E+01  1.00800000E+00  1.00800000E+00  1.60000000E+01  1.00800000E+00
  1.00800000E+00  1.60000000E+01  1.00800000E+00  1.00800000E+00  1.60000000E+01
  1.00800000E+00  1.00800000E+00  1.60000000E+01  1.00800000E+00  1.00800000E+00
  1.60000000E+01  1.00800000E+00  1.00800000E+00  1.60000000E+01  1.00800000E+00
  1.00800000E+00  1.60000000E+01  1.00800000E+00  1.00800000E+00  1.60000000E+01
  1.00800000E+00  1.00800000E+00  1.60000000E+01  1.00800000E+00  1.00800000E+00
  1.60000000E+01  1.00800000E+00  1.00800000E+00  1.60000000E+01  1.00800000E+00
  1.00800000E+00  1.60000000E+01  1.00800000E+00  1.00800000E+00  1.60000000E+01
  1.00800000E+00  1.00800000E+00  1.60000000E+01  1.00800000E+00  1.00800000E+00
  1.60000000E+01  1.00800000E+00  1.00800000E+00  1.60000000E+01  1.00800000E+00
  1.00800000E+00  1.60000000E+01  1.00800000E+00  1.00800000E+00  1.60000000E+01
  1.00800000E+00  1.00800000E+00  1.60000000E+01  1.00800000E+00  1.00800000E+00
  1.60000000E+01  1.00800000E+00  1.00800000E+00  1.60000000E+01  1.00800000E+00
  1.00800000E+00  1.60000000E+01  1.00800000E+00  1.00800000E+00  1.60000000E+01
  1.00800000E+00  1.00800000E+00  1.60000000E+01  1.00800000E+00  1.00800000E+00
  1.60000000E+01  1.00800000E+00  1.00800000E+00  1.60000000E+01  1.00800000E+00
  1.00800000E+00  1.60000000E+01  1.00800000E+00  1.00800000E+00  1.60000000E+01
  1.00800000E+00  1.00800000E+00  1.60000000E+01  1.00800000E+00  1.00800000E+00
  1.60000000E+01  1.00800000E+00  1.00800000E+00  1.60000000E+01  1.00800000E+00
  1.00800000E+00  1.60000000E+01  1.00800000E+00  1.00800000E+00  1.60000000E+01
  1.00800000E+00  1.00800000E+00  1.60000000E+01  1.00800000E+00  1.00800000E+00
  1.60000000E+01  1.00800000E+00  1.00800000E+00  1.60000000E+01  1.00800000E+00
  1.00800000E+00  1.60000000E+01  1.00800000E+00  1.00800000E+00  1.60000000E+01
  1.00800000E+00  1.00800000E+00  1.60000000E+01  1.00800000E+00  1.00800000E+00
  1.60000000E+01  1.00800000E+00  1.00800000E+00  1.60000000E+01  1.00800000E+00
  1.00800000E+00  1.60000000E+01  1.00800000E+00  1.00800000E+00  1.60000000E+01
  1.00800000E+00  1.00800000E+00  1.60000000E+01  1.00800000E+00  1.00800000E+00
  1.60000000E+01  1.00800000E+00  1.00800000E+00  1.60000000E+01  1.00800000E+00
  1.00800000E+00  1.60000000E+01  1.00800000E+00  1.00800000E+00  1.60000000E+01
  1.00800000E+00  1.00800000E+00  1.60000000E+01  1.00800000E+00  1.00800000E+00
  1.60000000E+01  1.00800000E+00  1.00800000E+00  1.60000000E+01  1.00800000E+00
  1.00800000E+00  1.60000000E+01  1.00800000E+00  1.00800000E+00  1.60000000E+01
  1.00800000E+00  1.00800000E+00  1.60000000E+01  1.00800000E+00  1.00800000E+00
  1.60000000E+01  1.00800000E+00  1.00800000E+00  1.60000000E+01  1.00800000E+00
  1.00800000E+00  1.60000000E+01  1.00800000E+00  1.00800000E+00  1.60000000E+01
  1.00800000E+00  1.00800000E+00  1.60000000E+01  1.00800000E+00  1.00800000E+00
  1.60000000E+01  1.00800000E+00  1.00800000E+00  1.60000000E+01  1.00800000E+00
  1.00800000E+00  1.60000000E+01  1.00800000E+00  1.00800000E+00  1.60000000E+01
  1.00800000E+00  1.00800000E+00  1.60000000E+01  1.00800000E+00  1.00800000E+00
  1.60000000E+01  1.00800000E+00  1.00800000E+00  1.60000000E+01  1.00800000E+00
  1.00800000E+00  1.60000000E+01  1.00800000E+00  1.00800000E+00  1.60000000E+01
  1.00800000E+00  1.00800000E+00  1.60000000E+01  1.00800000E+00  1.00800000E+00
  1.60000000E+01  1.00800000E+00  1.00800000E+00  1.60000000E+01  1.00800000E+00
  1.00800000E+00  1.60000000E+01  1.00800000E+00  1.00800000E+00  1.60000000E+01
  1.00800000E+00  1.00800000E+00  1.60000000E+01  1.00800000E+00  1.00800000E+00
  1.60000000E+01  1.00800000E+00  1.00800000E+00  1.60000000E+01  1.00800000E+00
  1.00800000E+00  1.60000000E+01  1.00800000E+00  1.00800000E+00  1.60000000E+01
  1.00800000E+00  1.00800000E+00  1.60000000E+01  1.00800000E+00  1.00800000E+00
  1.60000000E+01  1.00800000E+00  1.00800000E+00  1.60000000E+01  1.00800000E+00
  1.00800000E+00  1.60000000E+01  1.00800000E+00  1.00800000E+00  1.60000000E+01
  1.00800000E+00  1.00800000E+00  1.60000000E+01  1.00800000E+00  1.00800000E+00
  1.60000000E+01  1.00800000E+00  1.00800000E+00  1.60000000E+01  1.00800000E+00
  1.00800000E+00  1.60000000E+01  1.00800000E+00  1.00800000E+00  1.60000000E+01
  1.00800000E+00  1.00800000E+00  1.60000000E+01  1.00800000E+00  1.00800000E+00
  1.60000000E+01  1.00800000E+00  1.00800000E+00  1.60000000E+01  1.00800000E+00
  1.00800000E+00  1.60000000E+01  1.00800000E+00  1.00800000E+00  1.60000000E+01
  1.00800000E+00  1.00800000E+00  1.60000000E+01  1.00800000E+00  1.00800000E+00
  1.60000000E+01  1.00800000E+00  1.00800000E+00  1.60000000E+01  1.00800000E+00
  1.00800000E+00  1.60000000E+01  1.00800000E+00  1.00800000E+00  1.60000000E+01
  1.00800000E+00  1.00800000E+00  1.60000000E+01  1.00800000E+00  1.00800000E+00
  1.60000000E+01  1.00800000E+00  1.00800000E+00  1.60000000E+01  1.00800000E+00
  1.00800000E+00  1.60000000E+01  1.00800000E+00  1.00800000E+00  1.60000000E+01
  1.00800000E+00  1.00800000E+00  1.60000000E+01  1.00800000E+00  1.00800000E+00
  1.60000000E+01  1.00800000E+00  1.00800000E+00  1.60000000E+01  1.00800000E+00
  1.00800000E+00  1.60000000E+01  1.00800000E+00  1.00800000E+00  1.60000000E+01
  1.00800000E+00  1.00800000E+00  1.60000000E+01  1.00800000E+00  1.00800000E+00
  1.60000000E+01  1.00800000E+00  1.00800000E+00  1.60000000E+01  1.00800000E+00
  1.00800000E+00  1.60000000E+01  1.00800000E+00  1.00800000E+00  1.60000000E+01
  1.00800000E+00  1.00800000E+00  1.60000000E+01  1.00800000E+00  1.00800000E+00
  1.60000000E+01  1.00800000E+00  1.00800000E+00  1.60000000E+01  1.00800000E+00
  1.00800000E+00  1.60000000E+01  1.00800000E+00  1.00800000E+00  1.60000000E+01
  1.00800000E+00  1.00800000E+00  1.60000000E+01  1.00800000E+00  1.00800000E+00
  1.60000000E+01  1.00800000E+00  1.00800000E+00  1.60000000E+01  1.00800000E+00
  1.00800000E+00  1.60000000E+01  1.00800000E+00  1.00800000E+00  1.60000000E+01
  1.00800000E+00  1.00800000E+00  1.60000000E+01  1.00800000E+00  1.00800000E+00
  1.60000000E+01  1.00800000E+00  1.00800000E+00  1.60000000E+01  1.00800000E+00
  1.00800000E+00  1.60000000E+01  1.00800000E+00  1.00800000E+00  1.60000000E+01
  1.00800000E+00  1.00800000E+00  1.60000000E+01  1.00800000E+00  1.00800000E+00
  1.60000000E+01  1.00800000E+00  1.00800000E+00  1.60000000E+01  1.00800000E+00
  1.00800000E+00  1.60000000E+01  1.00800000E+00  1.00800000E+00  1.60000000E+01
  1.00800000E+00  1.00800000E+00  1.60000000E+01  1.00800000E+00  1.00800000E+00
  1.60000000E+01  1.00800000E+00  1.00800000E+00  1.60000000E+01  1.00800000E+00
  1.00800000E+00  1.60000000E+01  1.00800000E+00  1.00800000E+00  1.60000000E+01
  1.00800000E+00  1.00800000E+00  1.60000000E+01  1.00800000E+00  1.00800000E+00
  1.60000000E+01  1.00800000E+00  1.00800000E+00  1.60000000E+01  1.00800000E+00
  1.00800000E+00  1.60000000E+01  1.00800000E+00  1.00800000E+00  1.60000000E+01
  1.00800000E+00  1.00800000E+00  1.60000000E+01  1.00800000E+00  1.00800000E+00
  1.60000000E+01  1.00800000E+00  1.00800000E+00  1.60000000E+01  1.00800000E+00
  1.00800000E+00  1.60000000E+01  1.00800000E+00  1.00800000E+00  1.60000000E+01
  1.00800000E+00  1.00800000E+00  1.60000000E+01  1.00800000E+00  1.00800000E+00
  1.60000000E+01  1.00800000E+00  1.00800000E+00  1.60000000E+01  1.00800000E+00
  1.00800000E+00  1.60000000E+01  1.00800000E+00  1.00800000E+00  1.60000000E+01
  1.00800000E+00  1.00800000E+00  1.60000000E+01  1.00800000E+00  1.00800000E+00
  1.60000000E+01  1.00800000E+00  1.00800000E+00  1.60000000E+01  1.00800000E+00
  1.00800000E+00  1.60000000E+01  1.00800000E+00  1.00800000E+00  1.60000000E+01
  1.00800000E+00  1.00800000E+00  1.60000000E+01  1.00800000E+00  1.00800000E+00
  1.60000000E+01  1.00800000E+00  1.00800000E+00  1.60000000E+01  1.00800000E+00
  1.00800000E+00  1.60000000E+01  1.00800000E+00  1.00800000E+00  1.60000000E+01
  1.00800000E+00  1.00800000E+00  1.60000000E+01  1.00800000E+00  1.00800000E+00
  1.60000000E+01  1.00800000E+00  1.00800000E+00  1.60000000E+01  1.00800000E+00
  1.00800000E+00  1.60000000E+01  1.00800000E+00  1.00800000E+00  1.60000000E+01
  1.00800000E+00  1.00800000E+00  1.60000000E+01  1.00800000E+00  1.00800000E+00
  1.60000000E+01  1.00800000E+00  1.00800000E+00  1.60000000E+01  1.00800000E+00
  1.00800000E+00  1.60000000E+01  1.00800000E+00  1.00800000E+00  1.60000000E+01
  1.00800000E+00  1.00800000E+00  1.60000000E+01  1.00800000E+00  1.00800000E+00
  1.60000000E+01  1.00800000E+00  1.00800000E+00  1.60000000E+01  1.00800000E+00
  1.00800000E+00  1.60000000E+01  1.00800000E+00  1.00800000E+00  1.60000000E+01
  1.00800000E+00  1.00800000E+00  1.60000000E+01  1.00800000E+00  1.00800000E+00
  1.60000000E+01  1.00800000E+00  1.00800000E+00  1.60000000E+01  1.00800000E+00
  1.00800000E+00  1.60000000E+01  1.00800000E+00  1.00800000E+00  1.60000000E+01
  1.00800000E+00  1.00800000E+00  1.60000000E+01  1.00800000E+00  1.00800000E+00
  1.60000000E+01  1.00800000E+00  1.00800000E+00  1.60000000E+01  1.00800000E+00
  1.00800000E+00  1.60000000E+01  1.00800000E+00  1.00800000E+00  1.60000000E+01
  1.00800000E+00  1.00800000E+00  1.60000000E+01  1.00800000E+00  1.00800000E+00
  1.60000000E+01  1.00800000E+00  1.00800000E+00  1.60000000E+01  1.00800000E+00
  1.00800000E+00  1.60000000E+01  1.00800000E+00  1.00800000E+00  1.60000000E+01
  1.00800000E+00  1.00800000E+00  1.60000000E+01  1.00800000E+00  1.00800000E+00
  1.60000000E+01  1.00800000E+00  1.00800000E+00  1.60000000E+01  1.00800000E+00
  1.00800000E+00  1.60000000E+01  1.00800000E+00  1.00800000E+00  1.60000000E+01
  1.00800000E+00  1.00800000E+00  1.60000000E+01  1.00800000E+00  1.00800000E+00
  1.60000000E+01  1.00800000E+00  1.00800000E+00  1.60000000E+01  1.00800000E+00
  1.00800000E+00  1.60000000E+01  1.00800000E+00  1.00800000E+00  1.60000000E+01
  1.00800000E+00  1.00800000E+00  1.60000000E+01  1.00800000E+00  1.00800000E+00
  1.60000000E+01  1.00800000E+00  1.00800000E+00  1.60000000E+01  1.00800000E+00
  1.00800000E+00  1.60000000E+01  1.00800000E+00  1.00800000E+00  1.60000000E+01
  1.00800000E+00  1.00800000E+00  1.60000000E+01  1.00800000E+00  1.00800000E+00
  1.60000000E+01  1.00800000E+00  1.00800000E+00  1.60000000E+01  1.00800000E+00
  1.00800000E+00  1.60000000E+01  1.00800000E+00  1.00800000E+00  1.60000000E+01
  1.00800000E+00  1.00800000E+00  1.60000000E+01  1.00800000E+00  1.00800000E+00
  1.60000000E+01  1.00800000E+00  1.00800000E+00  1.60000000E+01  1.00800000E+00
  1.00800000E+00  1.60000000E+01  1.00800000E+00  1.00800000E+00  1.60000000E+01
  1.00800000E+00  1.00800000E+00  1.60000000E+01  1.00800000E+00  1.00800000E+00
  1.60000000E+01  1.00800000E+00  1.00800000E+00  1.60000000E+01  1.00800000E+00
  1.00800000E+00  1.60000000E+01  1.00800000E+00  1.00800000E+00  1.60000000E+01
  1.00800000E+00  1.00800000E+00  1.60000000E+01  1.00800000E+00  1.00800000E+00
  1.60000000E+01  1.00800000E+00  1.00800000E+00  1.60000000E+01  1.00800000E+00
  1.00800000E+00  1.60000000E+01  1.00800000E+00  1.00800000E+00  1.60000000E+01
  1.00800000E+00  1.00800000E+00  1.60000000E+01  1.00800000E+00  1.00800000E+00
  1.60000000E+01  1.00800000E+00  1.00800000E+00  1.60000000E+01  1.00800000E+00
  1.00800000E+00  1.60000000E+01  1.00800000E+00  1.00800000E+00  1.60000000E+01
  1.00800000E+00  1.00800000E+00  1.60000000E+01  1.00800000E+00  1.00800000E+00
  1.60000000E+01  1.00800000E+00  1.00800000E+00  1.60000000E+01  1.00800000E+00
  1.00800000E+00  1.60000000E+01  1.00800000E+00  1.00800000E+00  1.60000000E+01
  1.00800000E+00  1.00800000E+00  1.60000000E+01  1.00800000E+00  1.00800000E+00
  1.60000000E+01  1.00800000E+00  1.00800000E+00  1.60000000E+01  1.00800000E+00
  1.00800000E+00  1.60000000E+01  1.00800000E+00  1.00800000E+00  1.60000000E+01
  1.00800000E+00  1.00800000E+00  1.60000000E+01  1.00800000E+00  1.00800000E+00
  1.60000000E+01  1.00800000E+00  1.00800000E+00  1.60000000E+01  1.00800000E+00
  1.00800000E+00  1.60000000E+01  1.00800000E+00  1.00800000E+00  1.60000000E+01
  1.00800000E+00  1.00800000E+00  1.60000000E+01  1.00800000E+00  1.00800000E+00
  1.60000000E+01  1.00800000E+00  1.00800000E+00  1.60000000E+01  1.00800000E+00
  1.00800000E+00  1.60000000E+01  1.00800000E+00  1.00800000E+00  1.60000000E+01
  1.00800000E+00  1.00800000E+00  1.60000000E+01  1.00800000E+00  1.00800000E+00
  1.60000000E+01  1.00800000E+00  1.00800000E+00  1.60000000E+01  1.00800000E+00
  1.00800000E+00  1.60000000E+01  1.00800000E+00  1.00800000E+00  1.60000000E+01
  1.00800000E+00  1.00800000E+00  1.60000000E+01  1.00800000E+00  1.00800000E+00
  1.60000000E+01  1.00800000E+00  1.00800000E+00  1.60000000E+01  1.00800000E+00
  1.00800000E+00  1.60000000E+01  1.00800000E+00  1.00800000E+00  1.60000000E+01
  1.00800000E+00  1.00800000E+00  1.60000000E+01  1.00800000E+00  1.00800000E+00
  1.60000000E+01  1.00800000E+00  1.00800000E+00  1.60000000E+01  1.00800000E+00
  1.00800000E+00  1.60000000E+01  1.00800000E+00  1.00800000E+00  1.60000000E+01
  1.00800000E+00  1.00800000E+00  1.60000000E+01  1.00800000E+00  1.00800000E+00
  1.60000000E+01  1.00800000E+00  1.00800000E+00  1.60000000E+01  1.00800000E+00
  1.00800000E+00  1.60000000E+01  1.00800000E+00  1.00800000E+00  1.60000000E+01
  1.00800000E+00  1.00800000E+00  1.60000000E+01  1.00800000E+00  1.00800000E+00
  1.60000000E+01  1.00800000E+00  1.00800000E+00  1.60000000E+01  1.00800000E+00
  1.00800000E+00  1.60000000E+01  1.00800000E+00  1.00800000E+00  1.60000000E+01
  1.00800000E+00  1.00800000E+00  1.60000000E+01  1.00800000E+00  1.00800000E+00
  1.60000000E+01  1.00800000E+00  1.00800000E+00  1.60000000E+01  1.00800000E+00
  1.00800000E+00  1.60000000E+01  1.00800000E+00  1.00800000E+00  1.60000000E+01
  1.00800000E+00  1.00800000E+00  1.60000000E+01  1.00800000E+00  1.00800000E+00
  1.60000000E+01  1.00800000E+00  1.00800000E+00  1.60000000E+01  1.00800000E+00
  1.00800000E+00  1.60000000E+01  1.00800000E+00  1.00800000E+00  1.60000000E+01
  1.00800000E+00  1.00800000E+00  1.60000000E+01  1.00800000E+00  1.00800000E+00
  1.60000000E+01  1.00800000E+00  1.00800000E+00  1.60000000E+01  1.00800000E+00
  1.00800000E+00  1.60000000E+01  1.00800000E+00  1.00800000E+00  1.60000000E+01
  1.00800000E+00  1.00800000E+00  1.60000000E+01  1.00800000E+00  1.00800000E+00
  1.60000000E+01  1.00800000E+00  1.00800000E+00  1.60000000E+01  1.00800000E+00
  1.00800000E+00  1.60000000E+01  1.00800000E+00  1.00800000E+00  1.60000000E+01
  1.00800000E+00  1.00800000E+00  1.60000000E+01  1.00800000E+00  1.00800000E+00
  1.60000000E+01  1.00800000E+00  1.00800000E+00  1.60000000E+01  1.00800000E+00
  1.00800000E+00  1.60000000E+01  1.00800000E+00  1.00800000E+00  1.60000000E+01
  1.00800000E+00  1.00800000E+00  1.60000000E+01  1.00800000E+00  1.00800000E+00
  1.60000000E+01  1.00800000E+00  1.00800000E+00  1.60000000E+01  1.00800000E+00
  1.00800000E+00  1.60000000E+01  1.00800000E+00  1.00800000E+00  1.60000000E+01
  1.00800000E+00  1.00800000E+00  1.60000000E+01  1.00800000E+00  1.00800000E+00
  1.60000000E+01  1.00800000E+00  1.00800000E+00  1.60000000E+01  1.00800000E+00
  1.00800000E+00  1.60000000E+01  1.00800000E+00  1.00800000E+00  1.60000000E+01
  1.00800000E+00  1.00800000E+00  1.60000000E+01  1.00800000E+00  1.00800000E+00
  1.60000000E+01  1.00800000E+00  1.00800000E+00  1.60000000E+01  1.00800000E+00
  1.00800000E+00  1.60000000E+01  1.00800000E+00  1.00800000E+00  1.60000000E+01
  1.00800000E+00  1.00800000E+00  1.60000000E+01  1.00800000E+00  1.00800000E+00
  1.60000000E+01  1.00800000E+00  1.00800000E+00  1.60000000E+01  1.00800000E+00
  1.00800000E+00  1.60000000E+01  1.00800000E+00  1.00800000E+00  1.60000000E+01
  1.00800000E+00  1.00800000E+00  1.60000000E+01  1.00800000E+00  1.00800000E+00
  1.60000000E+01  1.00800000E+00  1.00800000E+00  1.60000000E+01  1.00800000E+00
  1.00800000E+00  1.60000000E+01  1.00800000E+00  1.00800000E+00  1.60000000E+01
  1.00800000E+00  1.00800000E+00  1.60000000E+01  1.00800000E+00  1.00800000E+00
  1.60000000E+01  1.00800000E+00  1.00800000E+00  1.60000000E+01  1.00800000E+00
  1.00800000E+00  1.60000000E+01  1.00800000E+00  1.00800000E+00  1.60000000E+01
  1.00800000E+00  1.00800000E+00  1.60000000E+01  1.00800000E+00  1.00800000E+00
  1.60000000E+01  1.00800000E+00  1.00800000E+00  1.60000000E+01  1.00800000E+00
  1.00800000E+00  1.60000000E+01  1.00800000E+00  1.00800000E+00  1.60000000E+01
  1.00800000E+00  1.00800000E+00  1.60000000E+01  1.00800000E+00  1.00800000E+00
  1.60000000E+01  1.00800000E+00  1.00800000E+00  1.60000000E+01  1.00800000E+00
  1.00800000E+00  1.60000000E+01  1.00800000E+00  1.00800000E+00  1.60000000E+01
  1.00800000E+00  1.00800000E+00  1.60000000E+01  1.00800000E+00  1.00800000E+00
  1.60000000E+01  1.00800000E+00  1.00800000E+00  1.60000000E+01  1.00800000E+00
  1.00800000E+00  1.60000000E+01  1.00800000E+00  1.00800000E+00  1.60000000E+01
  1.00800000E+00  1.00800000E+00  1.60000000E+01  1.00800000E+00  1.00800000E+00
  1.60000000E+01  1.00800000E+00  1.00800000E+00  1.60000000E+01  1.00800000E+00
  1.00800000E+00  1.60000000E+01  1.00800000E+00  1.00800000E+00  1.60000000E+01
  1.00800000E+00  1.00800000E+00  1.60000000E+01  1.00800000E+00  1.00800000E+00
  1.60000000E+01  1.00800000E+00  1.00800000E+00  1.60000000E+01  1.00800000E+00
  1.00800000E+00  1.60000000E+01  1.00800000E+00  1.00800000E+00  1.60000000E+01
  1.00800000E+00  1.00800000E+00  1.60000000E+01  1.00800000E+00  1.00800000E+00
  1.60000000E+01  1.00800000E+00  1.00800000E+00  1.60000000E+01  1.00800000E+00
  1.00800000E+00  1.60000000E+01  1.00800000E+00  1.00800000E+00  1.60000000E+01
  1.00800000E+00  1.00800000E+00  1.60000000E+01  1.00800000E+00  1.00800000E+00
  1.60000000E+01  1.00800000E+00  1.00800000E+00  1.60000000E+01  1.00800000E+00
  1.00800000E+00  1.60000000E+01  1.00800000E+00  1.00800000E+00  1.60000000E+01
  1.00800000E+00  1.00800000E+00  1.60000000E+01  1.00800000E+00  1.00800000E+00
  1.60000000E+01  1.00800000E+00  1.00800000E+00  1.60000000E+01  1.00800000E+00
  1.00800000E+00  1.60000000E+01  1.00800000E+00  1.00800000E+00  1.60000000E+01
  1.00800000E+00  1.00800000E+00  1.60000000E+01  1.00800000E+00  1.00800000E+00
  1.60000000E+01  1.00800000E+00  1.00800000E+00  1.60000000E+01  1.00800000E+00
  1.00800000E+00  1.60000000E+01  1.00800000E+00  1.00800000E+00  1.60000000E+01
  1.00800000E+00  1.00800000E+00  1.60000000E+01  1.00800000E+00  1.00800000E+00
  1.60000000E+01  1.00800000E+00  1.00800000E+00  1.60000000E+01  1.00800000E+00
  1.00800000E+00  1.60000000E+01  1.00800000E+00  1.00800000E+00  1.60000000E+01
  1.00800000E+00  1.00800000E+00  1.60000000E+01  1.00800000E+00  1.00800000E+00
  1.60000000E+01  1.00800000E+00  1.00800000E+00  1.60000000E+01  1.00800000E+00
  1.00800000E+00  1.60000000E+01  1.00800000E+00  1.00800000E+00  1.60000000E+01
  1.00800000E+00  1.00800000E+00  1.60000000E+01  1.00800000E+00  1.00800000E+00
  1.60000000E+01  1.00800000E+00  1.00800000E+00  1.60000000E+01  1.00800000E+00
  1.00800000E+00  1.60000000E+01  1.00800000E+00  1.00800000E+00  1.60000000E+01
  1.00800000E+00  1.00800000E+00  1.60000000E+01  1.00800000E+00  1.00800000E+00
  1.60000000E+01  1.00800000E+00  1.00800000E+00  1.60000000E+01  1.00800000E+00
  1.00800000E+00  1.60000000E+01  1.00800000E+00  1.00800000E+00  1.60000000E+01
  1.00800000E+00  1.00800000E+00  1.60000000E+01  1.00800000E+00  1.00800000E+00
  1.60000000E+01  1.00800000E+00  1.00800000E+00  1.60000000E+01  1.00800000E+00
  1.00800000E+00  1.60000000E+01  1.00800000E+00  1.00800000E+00  1.60000000E+01
  1.00800000E+00  1.00800000E+00  1.60000000E+01  1.00800000E+00  1.00800000E+00
  1.60000000E+01  1.00800000E+00  1.00800000E+00  1.60000000E+01  1.00800000E+00
  1.00800000E+00  1.60000000E+01  1.00800000E+00  1.00800000E+00  1.60000000E+01
  1.00800000E+00  1.00800000E+00  1.60000000E+01  1.00800000E+00  1.00800000E+00
  1.60000000E+01  1.00800000E+00  1.00800000E+00  1.60000000E+01  1.00800000E+00
  1.00800000E+00  1.60000000E+01  1.00800000E+00  1.00800000E+00  1.60000000E+01
  1.00800000E+00  1.00800000E+00  1.60000000E+01  1.00800000E+00  1.00800000E+00
  1.60000000E+01  1.00800000E+00  1.00800000E+00  1.60000000E+01  1.00800000E+00
  1.00800000E+00  1.60000000E+01  1.00800000E+00  1.00800000E+00  1.60000000E+01
  1.00800000E+00  1.00800000E+00  1.60000000E+01  1.00800000E+00  1.00800000E+00
  1.60000000E+01  1.00800000E+00  1.00800000E+00  1.60000000E+01  1.00800000E+00
  1.00800000E+00  1.60000000E+01  1.00800000E+00  1.00800000E+00  1.60000000E+01
  1.00800000E+00  1.00800000E+00  1.60000000E+01  1.00800000E+00  1.00800000E+00
  1.60000000E+01  1.00800000E+00  1.00800000E+00  1.60000000E+01  1.00800000E+00
  1.00800000E+00  1.60000000E+01  1.00800000E+00  1.00800000E+00  1.60000000E+01
  1.00800000E+00  1.00800000E+00  1.60000000E+01  1.00800000E+00  1.00800000E+00
  1.60000000E+01  1.00800000E+00  1.00800000E+00  1.60000000E+01  1.00800000E+00
  1.00800000E+00  1.60000000E+01  1.00800000E+00  1.00800000E+00  1.60000000E+01
  1.00800000E+00  1.00800000E+00  1.60000000E+01  1.00800000E+00  1.00800000E+00
  1.60000000E+01  1.00800000E+00  1.00800000E+00  1.60000000E+01  1.00800000E+00
  1.00800000E+00  1.60000000E+01  1.00800000E+00  1.00800000E+00  1.60000000E+01
  1.00800000E+00  1.00800000E+00  1.60000000E+01  1.00800000E+00  1.00800000E+00
  1.60000000E+01  1.00800000E+00  1.00800000E+00  1.60000000E+01  1.00800000E+00
  1.00800000E+00  1.60000000E+01  1.00800000E+00  1.00800000E+00  1.60000000E+01
  1.00800000E+00  1.00800000E+00  1.60000000E+01  1.00800000E+00  1.00800000E+00
  1.60000000E+01  1.00800000E+00  1.00800000E+00  1.60000000E+01  1.00800000E+00
  1.00800000E+00  1.60000000E+01  1.00800000E+00  1.00800000E+00  1.60000000E+01
  1.00800000E+00  1.00800000E+00  1.60000000E+01  1.00800000E+00  1.00800000E+00
  1.60000000E+01  1.00800000E+00  1.00800000E+00  1.60000000E+01  1.00800000E+00
  1.00800000E+00  1.60000000E+01  1.00800000E+00  1.00800000E+00  1.60000000E+01
  1.00800000E+00  1.00800000E+00  1.60000000E+01  1.00800000E+00  1.00800000E+00
  1.60000000E+01  1.00800000E+00  1.00800000E+00  1.60000000E+01  1.00800000E+00
  1.00800000E+00  1.60000000E+01  1.00800000E+00  1.00800000E+00  1.60000000E+01
  1.00800000E+00  1.00800000E+00  1.60000000E+01  1.00800000E+00  1.00800000E+00
  1.60000000E+01  1.00800000E+00  1.00800000E+00  1.60000000E+01  1.00800000E+00
  1.00800000E+00  1.60000000E+01  1.00800000E+00  1.00800000E+00  1.60000000E+01
  1.00800000E+00  1.00800000E+00  1.60000000E+01  1.00800000E+00  1.00800000E+00
  1.60000000E+01  1.00800000E+00  1.00800000E+00  1.60000000E+01  1.00800000E+00
  1.00800000E+00  1.60000000E+01  1.00800000E+00  1.00800000E+00  1.60000000E+01
  1.00800000E+00  1.00800000E+00  1.60000000E+01  1.00800000E+00  1.00800000E+00
  1.60000000E+01  1.00800000E+00  1.00800000E+00  1.60000000E+01  1.00800000E+00
  1.00800000E+00  1.60000000E+01  1.00800000E+00  1.00800000E+00  1.60000000E+01
  1.00800000E+00  1.00800000E+00  1.60000000E+01  1.00800000E+00  1.00800000E+00
  1.60000000E+01  1.00800000E+00  1.00800000E+00  1.60000000E+01  1.00800000E+00
  1.00800000E+00  1.60000000E+01  1.00800000E+00  1.00800000E+00  1.60000000E+01
  1.00800000E+00  1.00800000E+00  1.60000000E+01  1.00800000E+00  1.00800000E+00
  1.60000000E+01  1.00800000E+00  1.00800000E+00  1.60000000E+01  1.00800000E+00
  1.00800000E+00  1.60000000E+01  1.00800000E+00  1.00800000E+00  1.60000000E+01
  1.00800000E+00  1.00800000E+00  1.60000000E+01  1.00800000E+00  1.00800000E+00
  1.60000000E+01  1.00800000E+00  1.00800000E+00  1.60000000E+01  1.00800000E+00
  1.00800000E+00  1.60000000E+01  1.00800000E+00  1.00800000E+00  1.60000000E+01
  1.00800000E+00  1.00800000E+00  1.60000000E+01  1.00800000E+00  1.00800000E+00
  1.60000000E+01  1.00800000E+00  1.00800000E+00  1.60000000E+01  1.00800000E+00
  1.00800000E+00  1.60000000E+01  1.00800000E+00  1.00800000E+00  1.60000000E+01
  1.00800000E+00  1.00800000E+00  1.60000000E+01  1.00800000E+00  1.00800000E+00
  1.60000000E+01  1.00800000E+00  1.00800000E+00  1.60000000E+01  1.00800000E+00
  1.00800000E+00  1.60000000E+01  1.00800000E+00  1.00800000E+00  1.60000000E+01
  1.00800000E+00  1.00800000E+00  1.60000000E+01  1.00800000E+00  1.00800000E+00
  1.60000000E+01  1.00800000E+00  1.00800000E+00  1.60000000E+01  1.00800000E+00
  1.00800000E+00  1.60000000E+01  1.00800000E+00  1.00800000E+00  1.60000000E+01
  1.00800000E+00  1.00800000E+00  1.60000000E+01  1.00800000E+00  1.00800000E+00
  1.60000000E+01  1.00800000E+00  1.00800000E+00  1.60000000E+01  1.00800000E+00
  1.00800000E+00  1.60000000E+01  1.00800000E+00  1.00800000E+00  1.60000000E+01
  1.00800000E+00  1.00800000E+00  1.60000000E+01  1.00800000E+00  1.00800000E+00
  1.60000000E+01  1.00800000E+00  1.00800000E+00  1.60000000E+01  1.00800000E+00
  1.00800000E+00  1.60000000E+01  1.00800000E+00  1.00800000E+00  1.60000000E+01
  1.00800000E+00  1.00800000E+00  1.60000000E+01  1.00800000E+00  1.00800000E+00
  1.60000000E+01  1.00800000E+00  1.00800000E+00  1.60000000E+01  1.00800000E+00
  1.00800000E+00  1.60000000E+01  1.00800000E+00  1.00800000E+00  1.60000000E+01
  1.00800000E+00  1.00800000E+00  1.60000000E+01  1.00800000E+00  1.00800000E+00
  1.60000000E+01  1.00800000E+00  1.00800000E+00  1.60000000E+01  1.00800000E+00
  1.00800000E+00  1.60000000E+01  1.00800000E+00  1.00800000E+00  1.60000000E+01
  1.00800000E+00  1.00800000E+00  1.60000000E+01  1.00800000E+00  1.00800000E+00
  1.60000000E+01  1.00800000E+00  1.00800000E+00  1.60000000E+01  1.00800000E+00
  1.00800000E+00  1.60000000E+01  1.00800000E+00  1.00800000E+00  1.60000000E+01
  1.00800000E+00  1.00800000E+00  1.60000000E+01  1.00800000E+00  1.00800000E+00
  1.60000000E+01  1.00800000E+00  1.00800000E+00  1.60000000E+01  1.00800000E+00
  1.00800000E+00  1.60000000E+01  1.00800000E+00  1.00800000E+00  1.60000000E+01
  1.00800000E+00  1.00800000E+00  1.60000000E+01  1.00800000E+00  1.00800000E+00
  1.60000000E+01  1.00800000E+00  1.00800000E+00  1.60000000E+01  1.00800000E+00
  1.00800000E+00  1.60000000E+01  1.00800000E+00  1.00800000E+00  1.60000000E+01
  1.00800000E+00  1.00800000E+00  1.60000000E+01  1.00800000E+00  1.00800000E+00
  1.60000000E+01  1.00800000E+00  1.00800000E+00  1.60000000E+01  1.00800000E+00
  1.00800000E+00  1.60000000E+01  1.00800000E+00  1.00800000E+00  1.60000000E+01
  1.00800000E+00  1.00800000E+00  1.60000000E+01  1.00800000E+00  1.00800000E+00
  1.60000000E+01  1.00800000E+00  1.00800000E+00  1.60000000E+01  1.00800000E+00
  1.00800000E+00  1.60000000E+01  1.00800000E+00  1.00800000E+00  1.60000000E+01
  1.00800000E+00  1.00800000E+00  1.60000000E+01  1.00800000E+00  1.00800000E+00
  1.60000000E+01  1.00800000E+00  1.00800000E+00  1.60000000E+01  1.00800000E+00
  1.00800000E+00  1.60000000E+01  1.00800000E+00  1.00800000E+00  1.60000000E+01
  1.00800000E+00  1.00800000E+00  1.60000000E+01  1.00800000E+00  1.00800000E+00
  1.60000000E+01  1.00800000E+00  1.00800000E+00  1.60000000E+01  1.00800000E+00
  1.00800000E+00  1.60000000E+01  1.00800000E+00  1.00800000E+00  1.60000000E+01
  1.00800000E+00  1.00800000E+00  1.60000000E+01  1.00800000E+00  1.00800000E+00
  1.60000000E+01  1.00800000E+00  1.00800000E+00  1.60000000E+01  1.00800000E+00
  1.00800000E+00  1.60000000E+01  1.00800000E+00  1.00800000E+00  1.60000000E+01
  1.00800000E+00  1.00800000E+00  1.60000000E+01  1.00800000E+00  1.00800000E+00
  1.60000000E+01  1.00800000E+00  1.00800000E+00  1.60000000E+01  1.00800000E+00
  1.00800000E+00  1.60000000E+01  1.00800000E+00  1.00800000E+00  1.60000000E+01
  1.00800000E+00  1.00800000E+00  1.60000000E+01  1.00800000E+00  1.00800000E+00
  1.60000000E+01  1.00800000E+00  1.00800000E+00  1.60000000E+01  1.00800000E+00
  1.00800000E+00  1.60000000E+01  1.00800000E+00  1.00800000E+00  1.60000000E+01
  1.00800000E+00  1.00800000E+00  1.60000000E+01  1.00800000E+00  1.00800000E+00
  1.60000000E+01  1.00800000E+00  1.00800000E+00  1.60000000E+01  1.00800000E+00
  1.00800000E+00  1.60000000E+01  1.00800000E+00  1.00800000E+00  1.60000000E+01
  1.00800000E+00  1.00800000E+00  1.60000000E+01  1.00800000E+00  1.00800000E+00
  1.60000000E+01  1.00800000E+00  1.00800000E+00  1.60000000E+01  1.00800000E+00
  1.00800000E+00  1.60000000E+01  1.00800000E+00  1.00800000E+00  1.60000000E+01
  1.00800000E+00  1.00800000E+00  1.60000000E+01  1.00800000E+00  1.00800000E+00
  1.60000000E+01  1.00800000E+00  1.00800000E+00  1.60000000E+01  1.00800000E+00
  1.00800000E+00  1.60000000E+01  1.00800000E+00  1.00800000E+00  1.60000000E+01
  1.00800000E+00  1.00800000E+00  1.60000000E+01  1.00800000E+00  1.00800000E+00
  1.60000000E+01  1.00800000E+00  1.00800000E+00  1.60000000E+01  1.00800000E+00
  1.00800000E+00  1.60000000E+01  1.00800000E+00  1.00800000E+00  1.60000000E+01
  1.00800000E+00  1.00800000E+00  1.60000000E+01  1.00800000E+00  1.00800000E+00
  1.60000000E+01  1.00800000E+00  1.00800000E+00  1.60000000E+01  1.00800000E+00
  1.00800000E+00  1.60000000E+01  1.00800000E+00  1.00800000E+00  1.60000000E+01
  1.00800000E+00  1.00800000E+00  1.60000000E+01  1.00800000E+00  1.00800000E+00
  1.60000000E+01  1.00800000E+00  1.00800000E+00  1.60000000E+01  1.00800000E+00
  1.00800000E+00  1.60000000E+01  1.00800000E+00  1.00800000E+00  1.60000000E+01
  1.00800000E+00  1.00800000E+00  1.60000000E+01  1.00800000E+00  1.00800000E+00
  1.60000000E+01  1.00800000E+00  1.00800000E+00  1.60000000E+01  1.00800000E+00
  1.00800000E+00  1.60000000E+01  1.00800000E+00  1.00800000E+00  1.60000000E+01
  1.00800000E+00  1.00800000E+00  1.60000000E+01  1.00800000E+00  1.00800000E+00
  1.60000000E+01  1.00800000E+00  1.00800000E+00  1.60000000E+01  1.00800000E+00
  1.00800000E+00  1.60000000E+01  1.00800000E+00  1.00800000E+00  1.60000000E+01
  1.00800000E+00  1.00800000E+00  1.60000000E+01  1.00800000E+00  1.00800000E+00
  1.60000000E+01  1.00800000E+00  1.00800000E+00  1.60000000E+01  1.00800000E+00
  1.00800000E+00  1.60000000E+01  1.00800000E+00  1.00800000E+00  1.60000000E+01
  1.00800000E+00  1.00800000E+00  1.60000000E+01  1.00800000E+00  1.00800000E+00
  1.60000000E+01  1.00800000E+00  1.00800000E+00  1.60000000E+01  1.00800000E+00
  1.00800000E+00  1.60000000E+01  1.00800000E+00  1.00800000E+00  1.60000000E+01
  1.00800000E+00  1.00800000E+00  1.60000000E+01  1.00800000E+00  1.00800000E+00
  1.60000000E+01  1.00800000E+00  1.00800000E+00  1.60000000E+01  1.00800000E+00
  1.00800000E+00  1.60000000E+01  1.00800000E+00  1.00800000E+00  1.60000000E+01
  1.00800000E+00  1.00800000E+00  1.60000000E+01  1.00800000E+00  1.00800000E+00
  1.60000000E+01  1.00800000E+00  1.00800000E+00  1.60000000E+01  1.00800000E+00
  1.00800000E+00  1.60000000E+01  1.00800000E+00  1.00800000E+00  1.60000000E+01
  1.00800000E+00  1.00800000E+00  1.60000000E+01  1.00800000E+00  1.00800000E+00
  1.60000000E+01  1.00800000E+00  1.00800000E+00  1.60000000E+01  1.00800000E+00
  1.00800000E+00  1.60000000E+01  1.00800000E+00  1.00800000E+00  1.60000000E+01
  1.00800000E+00  1.00800000E+00  1.60000000E+01  1.00800000E+00  1.00800000E+00
  1.60000000E+01  1.00800000E+00  1.00800000E+00  1.60000000E+01  1.00800000E+00
  1.00800000E+00  1.60000000E+01  1.00800000E+00  1.00800000E+00  1.60000000E+01
  1.00800000E+00  1.00800000E+00  1.60000000E+01  1.00800000E+00  1.00800000E+00
  1.60000000E+01  1.00800000E+00  1.00800000E+00  1.60000000E+01  1.00800000E+00
  1.00800000E+00  1.60000000E+01  1.00800000E+00  1.00800000E+00  1.60000000E+01
  1.00800000E+00  1.00800000E+00  1.60000000E+01  1.00800000E+00  1.00800000E+00
  1.60000000E+01  1.00800000E+00  1.00800000E+00  1.60000000E+01  1.00800000E+00
  1.00800000E+00  1.60000000E+01  1.00800000E+00  1.00800000E+00  1.60000000E+01
  1.00800000E+00  1.00800000E+00  1.60000000E+01  1.00800000E+00  1.00800000E+00
  1.60000000E+01  1.00800000E+00  1.00800000E+00  1.60000000E+01  1.00800000E+00
  1.00800000E+00  1.60000000E+01  1.00800000E+00  1.00800000E+00  1.60000000E+01
  1.00800000E+00  1.00800000E+00  1.60000000E+01  1.00800000E+00  1.00800000E+00
  1.60000000E+01  1.00800000E+00  1.00800000E+00  1.60000000E+01  1.00800000E+00
  1.00800000E+00  1.60000000E+01  1.00800000E+00  1.00800000E+00  1.60000000E+01
  1.00800000E+00  1.00800000E+00  1.60000000E+01  1.00800000E+00  1.00800000E+00
  1.60000000E+01  1.00800000E+00  1.00800000E+00  1.60000000E+01  1.00800000E+00
  1.00800000E+00  1.60000000E+01  1.00800000E+00  1.00800000E+00  1.60000000E+01
  1.00800000E+00  1.00800000E+00  1.60000000E+01  1.00800000E+00  1.00800000E+00
  1.60000000E+01  1.00800000E+00  1.00800000E+00  1.60000000E+01  1.00800000E+00
  1.00800000E+00  1.60000000E+01  1.00800000E+00  1.00800000E+00  1.60000000E+01
  1.00800000E+00  1.00800000E+00  1.60000000E+01  1.00800000E+00  1.00800000E+00
  1.60000000E+01  1.00800000E+00  1.00800000E+00  1.60000000E+01  1.00800000E+00
  1.00800000E+00  1.60000000E+01  1.00800000E+00  1.00800000E+00  1.60000000E+01
  1.00800000E+00  1.00800000E+00  1.60000000E+01  1.00800000E+00  1.00800000E+00
  1.60000000E+01  1.00800000E+00  1.00800000E+00  1.60000000E+01  1.00800000E+00
  1.00800000E+00  1.60000000E+01  1.00800000E+00  1.00800000E+00  1.60000000E+01
  1.00800000E+00  1.00800000E+00  1.60000000E+01  1.00800000E+00  1.00800000E+00
  1.60000000E+01  1.00800000E+00  1.00800000E+00  1.60000000E+01  1.00800000E+00
  1.00800000E+00  1.60000000E+01  1.00800000E+00  1.00800000E+00  1.60000000E+01
  1.00800000E+00  1.00800000E+00  1.60000000E+01  1.00800000E+00  1.00800000E+00
  1.60000000E+01  1.00800000E+00  1.00800000E+00  1.60000000E+01  1.00800000E+00
  1.00800000E+00  1.60000000E+01  1.00800000E+00  1.00800000E+00  1.60000000E+01
  1.00800000E+00  1.00800000E+00  1.60000000E+01  1.00800000E+00  1.00800000E+00
  1.60000000E+01  1.00800000E+00  1.00800000E+00  1.60000000E+01  1.00800000E+00
  1.00800000E+00  1.60000000E+01  1.00800000E+00  1.00800000E+00  1.60000000E+01
  1.00800000E+00  1.00800000E+00  1.60000000E+01  1.00800000E+00  1.00800000E+00
  1.60000000E+01  1.00800000E+00  1.00800000E+00  1.60000000E+01  1.00800000E+00
  1.00800000E+00  1.60000000E+01  1.00800000E+00  1.00800000E+00  1.60000000E+01
  1.00800000E+00  1.00800000E+00  1.60000000E+01  1.00800000E+00  1.00800000E+00
  1.60000000E+01  1.00800000E+00  1.00800000E+00  1.60000000E+01  1.00800000E+00
  1.00800000E+00  1.60000000E+01  1.00800000E+00  1.00800000E+00  1.60000000E+01
  1.00800000E+00  1.00800000E+00  1.60000000E+01  1.00800000E+00  1.00800000E+00
  1.60000000E+01  1.00800000E+00  1.00800000E+00  1.60000000E+01  1.00800000E+00
  1.00800000E+00  1.60000000E+01  1.00800000E+00  1.00800000E+00  1.60000000E+01
  1.00800000E+00  1.00800000E+00  1.60000000E+01  1.00800000E+00  1.00800000E+00
  1.60000000E+01  1.00800000E+00  1.00800000E+00  1.60000000E+01  1.00800000E+00
  1.00800000E+00  1.60000000E+01  1.00800000E+00  1.00800000E+00  1.60000000E+01
  1.00800000E+00  1.00800000E+00  1.60000000E+01  1.00800000E+00  1.00800000E+00
  1.60000000E+01  1.00800000E+00  1.00800000E+00  1.60000000E+01  1.00800000E+00
  1.00800000E+00  1.60000000E+01  1.00800000E+00  1.00800000E+00  1.60000000E+01
  1.00800000E+00  1.00800000E+00  1.60000000E+01  1.00800000E+00  1.00800000E+00
  1.60000000E+01  1.00800000E+00  1.00800000E+00  1.60000000E+01  1.00800000E+00
  1.00800000E+00  1.60000000E+01  1.00800000E+00  1.00800000E+00  1.60000000E+01
  1.00800000E+00  1.00800000E+00  1.60000000E+01  1.00800000E+00  1.00800000E+00
  1.60000000E+01  1.00800000E+00  1.00800000E+00  1.60000000E+01  1.00800000E+00
  1.00800000E+00  1.60000000E+01  1.00800000E+00  1.00800000E+00  1.60000000E+01
  1.00800000E+00  1.00800000E+00  1.60000000E+01  1.00800000E+00  1.00800000E+00
  1.60000000E+01  1.00800000E+00  1.00800000E+00  1.60000000E+01  1.00800000E+00
  1.00800000E+00  1.60000000E+01  1.00800000E+00  1.00800000E+00  1.60000000E+01
  1.00800000E+00  1.00800000E+00  1.60000000E+01  1.00800000E+00  1.00800000E+00
  1.60000000E+01  1.00800000E+00  1.00800000E+00  1.60000000E+01  1.00800000E+00
  1.00800000E+00  1.60000000E+01  1.00800000E+00  1.00800000E+00  1.60000000E+01
  1.00800000E+00  1.00800000E+00  1.60000000E+01  1.00800000E+00  1.00800000E+00
  1.60000000E+01  1.00800000E+00  1.00800000E+00  1.60000000E+01  1.00800000E+00
  1.00800000E+00  1.60000000E+01  1.00800000E+00  1.00800000E+00  1.60000000E+01
  1.00800000E+00  1.00800000E+00  1.60000000E+01  1.00800000E+00  1.00800000E+00
  1.60000000E+01  1.00800000E+00  1.00800000E+00  1.60000000E+01  1.00800000E+00
  1.00800000E+00  1.60000000E+01  1.00800000E+00  1.00800000E+00  1.60000000E+01
  1.00800000E+00  1.00800000E+00  1.60000000E+01  1.00800000E+00  1.00800000E+00
  1.60000000E+01  1.00800000E+00  1.00800000E+00  1.60000000E+01  1.00800000E+00
  1.00800000E+00  1.60000000E+01  1.00800000E+00  1.00800000E+00  1.60000000E+01
  1.00800000E+00  1.00800000E+00  1.60000000E+01  1.00800000E+00  1.00800000E+00
  1.60000000E+01  1.00800000E+00  1.00800000E+00  1.60000000E+01  1.00800000E+00
  1.00800000E+00  1.60000000E+01  1.00800000E+00  1.00800000E+00  1.60000000E+01
  1.00800000E+00  1.00800000E+00  1.60000000E+01  1.00800000E+00  1.00800000E+00
  1.60000000E+01  1.00800000E+00  1.00800000E+00  1.60000000E+01  1.00800000E+00
  1.00800000E+00  1.60000000E+01  1.00800000E+00  1.00800000E+00  1.60000000E+01
  1.00800000E+00  1.00800000E+00  1.60000000E+01  1.00800000E+00  1.00800000E+00
  1.60000000E+01  1.00800000E+00  1.00800000E+00  1.60000000E+01  1.00800000E+00
  1.00800000E+00  1.60000000E+01  1.00800000E+00  1.00800000E+00  1.60000000E+01
  1.00800000E+00  1.00800000E+00  1.60000000E+01  1.00800000E+00  1.00800000E+00
  1.60000000E+01  1.00800000E+00  1.00800000E+00  1.60000000E+01  1.00800000E+00
  1.00800000E+00  1.60000000E+01  1.00800000E+00  1.00800000E+00  1.60000000E+01
  1.00800000E+00  1.00800000E+00  1.60000000E+01  1.00800000E+00  1.00800000E+00
  1.60000000E+01  1.00800000E+00  1.00800000E+00  1.60000000E+01  1.00800000E+00
  1.00800000E+00  1.60000000E+01  1.00800000E+00  1.00800000E+00  1.60000000E+01
  1.00800000E+00  1.00800000E+00  1.60000000E+01  1.00800000E+00  1.00800000E+00
  1.60000000E+01  1.00800000E+00  1.00800000E+00  1.60000000E+01  1.00800000E+00
  1.00800000E+00  1.60000000E+01  1.00800000E+00  1.00800000E+00  1.60000000E+01
  1.00800000E+00  1.00800000E+00  1.60000000E+01  1.00800000E+00  1.00800000E+00
  1.60000000E+01  1.00800000E+00  1.00800000E+00  1.60000000E+01  1.00800000E+00
  1.00800000E+00  1.60000000E+01  1.00800000E+00  1.00800000E+00  1.60000000E+01
  1.00800000E+00  1.00800000E+00  1.60000000E+01  1.00800000E+00  1.00800000E+00
  1.60000000E+01  1.00800000E+00  1.00800000E+00  1.60000000E+01  1.00800000E+00
  1.00800000E+00  1.60000000E+01  1.00800000E+00  1.00800000E+00  1.60000000E+01
  1.00800000E+00  1.00800000E+00  1.60000000E+01  1.00800000E+00  1.00800000E+00
  1.60000000E+01  1.00800000E+00  1.00800000E+00  1.60000000E+01  1.00800000E+00
  1.00800000E+00  1.60000000E+01  1.00800000E+00  1.00800000E+00  1.60000000E+01
  1.00800000E+00  1.00800000E+00  1.60000000E+01  1.00800000E+00  1.00800000E+00
  1.60000000E+01  1.00800000E+00  1.00800000E+00  1.60000000E+01  1.00800000E+00
  1.00800000E+00  1.60000000E+01  1.00800000E+00  1.00800000E+00  1.60000000E+01
  1.00800000E+00  1.00800000E+00  1.60000000E+01  1.00800000E+00  1.00800000E+00
  1.60000000E+01  1.00800000E+00  1.00800000E+00  1.60000000E+01  1.00800000E+00
  1.00800000E+00  1.60000000E+01  1.00800000E+00  1.00800000E+00  1.60000000E+01
  1.00800000E+00  1.00800000E+00  1.60000000E+01  1.00800000E+00  1.00800000E+00
  1.60000000E+01  1.00800000E+00  1.00800000E+00  1.60000000E+01  1.00800000E+00
  1.00800000E+00  1.60000000E+01  1.00800000E+00  1.00800000E+00  1.60000000E+01
  1.00800000E+00  1.00800000E+00  1.60000000E+01  1.00800000E+00  1.00800000E+00
  1.60000000E+01  1.00800000E+00  1.00800000E+00  1.60000000E+01  1.00800000E+00
  1.00800000E+00  1.60000000E+01  1.00800000E+00  1.00800000E+00  1.60000000E+01
  1.00800000E+00  1.00800000E+00  1.60000000E+01  1.00800000E+00  1.00800000E+00
  1.60000000E+01  1.00800000E+00  1.00800000E+00  1.60000000E+01  1.00800000E+00
  1.00800000E+00  1.60000000E+01  1.00800000E+00  1.00800000E+00  1.60000000E+01
  1.00800000E+00  1.00800000E+00  1.60000000E+01  1.00800000E+00  1.00800000E+00
  1.60000000E+01  1.00800000E+00  1.00800000E+00  1.60000000E+01  1.00800000E+00
  1.00800000E+00  1.60000000E+01  1.00800000E+00  1.00800000E+00  1.60000000E+01
  1.00800000E+00  1.00800000E+00  1.60000000E+01  1.00800000E+00  1.00800000E+00
  1.60000000E+01  1.00800000E+00  1.00800000E+00  1.60000000E+01  1.00800000E+00
  1.00800000E+00  1.60000000E+01  1.00800000E+00  1.00800000E+00  1.60000000E+01
  1.00800000E+00  1.00800000E+00  1.60000000E+01  1.00800000E+00  1.00800000E+00
  1.60000000E+01  1.00800000E+00  1.00800000E+00  1.60000000E+01  1.00800000E+00
  1.00800000E+00  1.60000000E+01  1.00800000E+00  1.00800000E+00  1.60000000E+01
  1.00800000E+00  1.00800000E+00  1.60000000E+01  1.00800000E+00  1.00800000E+00
  1.60000000E+01  1.00800000E+00  1.00800000E+00  1.60000000E+01  1.00800000E+00
  1.00800000E+00  1.60000000E+01  1.00800000E+00  1.00800000E+00  1.60000000E+01
  1.00800000E+00  1.00800000E+00  1.60000000E+01  1.00800000E+00  1.00800000E+00
  1.60000000E+01  1.00800000E+00  1.00800000E+00  1.60000000E+01  1.00800000E+00
  1.00800000E+00  1.60000000E+01  1.00800000E+00  1.00800000E+00  1.60000000E+01
  1.00800000E+00  1.00800000E+00  1.60000000E+01  1.00800000E+00  1.00800000E+00
  1.60000000E+01  1.00800000E+00  1.00800000E+00  1.60000000E+01  1.00800000E+00
  1.00800000E+00  1.60000000E+01  1.00800000E+00  1.00800000E+00  1.60000000E+01
  1.00800000E+00  1.00800000E+00  1.60000000E+01  1.00800000E+00  1.00800000E+00
  1.60000000E+01  1.00800000E+00  1.00800000E+00  1.60000000E+01  1.00800000E+00
  1.00800000E+00  1.60000000E+01  1.00800000E+00  1.00800000E+00  1.60000000E+01
  1.00800000E+00  1.00800000E+00  1.60000000E+01  1.00800000E+00  1.00800000E+00
  1.60000000E+01  1.00800000E+00  1.00800000E+00  1.60000000E+01  1.00800000E+00
  1.00800000E+00  1.60000000E+01  1.00800000E+00  1.00800000E+00  1.60000000E+01
  1.00800000E+00  1.00800000E+00  1.60000000E+01  1.00800000E+00  1.00800000E+00
  1.60000000E+01  1.00800000E+00  1.00800000E+00  1.60000000E+01  1.00800000E+00
  1.00800000E+00  1.60000000E+01  1.00800000E+00  1.00800000E+00  1.60000000E+01
  1.00800000E+00  1.00800000E+00  1.60000000E+01  1.00800000E+00  1.00800000E+00
  1.60000000E+01  1.00800000E+00  1.00800000E+00  1.60000000E+01  1.00800000E+00
  1.00800000E+00  1.60000000E+01  1.00800000E+00  1.00800000E+00  1.60000000E+01
  1.00800000E+00  1.00800000E+00  1.60000000E+01  1.00800000E+00  1.00800000E+00
  1.60000000E+01  1.00800000E+00  1.00800000E+00  1.60000000E+01  1.00800000E+00
  1.00800000E+00  1.60000000E+01  1.00800000E+00  1.00800000E+00  1.60000000E+01
  1.00800000E+00  1.00800000E+00  1.60000000E+01  1.00800000E+00  1.00800000E+00
  1.60000000E+01  1.00800000E+00  1.00800000E+00  1.60000000E+01  1.00800000E+00
  1.00800000E+00  1.60000000E+01  1.00800000E+00  1.00800000E+00  1.60000000E+01
  1.00800000E+00  1.00800000E+00  1.60000000E+01  1.00800000E+00  1.00800000E+00
  1.60000000E+01  1.00800000E+00  1.00800000E+00  1.60000000E+01  1.00800000E+00
  1.00800000E+00  1.60000000E+01  1.00800000E+00  1.00800000E+00  1.60000000E+01
  1.00800000E+00  1.00800000E+00  1.60000000E+01  1.00800000E+00  1.00800000E+00
  1.60000000E+01  1.00800000E+00  1.00800000E+00  1.60000000E+01  1.00800000E+00
  1.00800000E+00  1.60000000E+01  1.00800000E+00  1.00800000E+00  1.60000000E+01
  1.00800000E+00  1.00800000E+00  1.60000000E+01  1.00800000E+00  1.00800000E+00
  1.60000000E+01  1.00800000E+00  1.00800000E+00  1.60000000E+01  1.00800000E+00
  1.00800000E+00  1.60000000E+01  1.00800000E+00  1.00800000E+00  1.60000000E+01
  1.00800000E+00  1.00800000E+00  1.60000000E+01  1.00800000E+00  1.00800000E+00
  1.60000000E+01  1.00800000E+00  1.00800000E+00  1.60000000E+01  1.00800000E+00
  1.00800000E+00  1.60000000E+01  1.00800000E+00  1.00800000E+00  1.60000000E+01
  1.00800000E+00  1.00800000E+00  1.60000000E+01  1.00800000E+00  1.00800000E+00
  1.60000000E+01  1.00800000E+00  1.00800000E+00  1.60000000E+01  1.00800000E+00
  1.00800000E+00  1.60000000E+01  1.00800000E+00  1.00800000E+00  1.60000000E+01
  1.00800000E+00  1.00800000E+00  1.60000000E+01  1.00800000E+00  1.00800000E+00
  1.60000000E+01  1.00800000E+00  1.00800000E+00  1.60000000E+01  1.00800000E+00
  1.00800000E+00  1.60000000E+01  1.00800000E+00  1.00800000E+00  1.60000000E+01
  1.00800000E+00  1.00800000E+00  1.60000000E+01  1.00800000E+00  1.00800000E+00
  1.60000000E+01  1.00800000E+00  1.00800000E+00  1.60000000E+01  1.00800000E+00
  1.00800000E+00  1.60000000E+01  1.00800000E+00  1.00800000E+00  1.60000000E+01
  1.00800000E+00  1.00800000E+00  1.60000000E+01  1.00800000E+00  1.00800000E+00
  1.60000000E+01  1.00800000E+00  1.00800000E+00  1.60000000E+01  1.00800000E+00
  1.00800000E+00  1.60000000E+01  1.00800000E+00  1.00800000E+00  1.60000000E+01
  1.00800000E+00  1.00800000E+00  1.60000000E+01  1.00800000E+00  1.00800000E+00
  1.60000000E+01  1.00800000E+00  1.00800000E+00  1.60000000E+01  1.00800000E+00
  1.00800000E+00  1.60000000E+01  1.00800000E+00  1.00800000E+00  1.60000000E+01
  1.00800000E+00  1.00800000E+00  1.60000000E+01  1.00800000E+00  1.00800000E+00
  1.60000000E+01  1.00800000E+00  1.00800000E+00  1.60000000E+01  1.00800000E+00
  1.00800000E+00  1.60000000E+01  1.00800000E+00  1.00800000E+00  1.60000000E+01
  1.00800000E+00  1.00800000E+00  1.60000000E+01  1.00800000E+00  1.00800000E+00
  1.60000000E+01  1.00800000E+00  1.00800000E+00  1.60000000E+01  1.00800000E+00
  1.00800000E+00  1.60000000E+01  1.00800000E+00  1.00800000E+00  1.60000000E+01
  1.00800000E+00  1.00800000E+00  1.60000000E+01  1.00800000E+00  1.00800000E+00
  1.60000000E+01  1.00800000E+00  1.00800000E+00  1.60000000E+01  1.00800000E+00
  1.00800000E+00  1.60000000E+01  1.00800000E+00  1.00800000E+00  1.60000000E+01
  1.00800000E+00  1.00800000E+00  1.60000000E+01  1.00800000E+00  1.00800000E+00
  1.60000000E+01  1.00800000E+00  1.00800000E+00  1.60000000E+01  1.00800000E+00
  1.00800000E+00  1.60000000E+01  1.00800000E+00  1.00800000E+00  1.60000000E+01
  1.00800000E+00  1.00800000E+00  1.60000000E+01  1.00800000E+00  1.00800000E+00
  1.60000000E+01  1.00800000E+00  1.00800000E+00  1.60000000E+01  1.00800000E+00
  1.00800000E+00  1.60000000E+01  1.00800000E+00  1.00800000E+00  1.60000000E+01
  1.00800000E+00  1.00800000E+00  1.60000000E+01  1.00800000E+00  1.00800000E+00
  1.60000000E+01  1.00800000E+00  1.00800000E+00  1.60000000E+01  1.00800000E+00
  1.00800000E+00  1.60000000E+01  1.00800000E+00  1.00800000E+00  1.60000000E+01
  1.00800000E+00  1.00800000E+00  1.60000000E+01  1.00800000E+00  1.00800000E+00
  1.60000000E+01  1.00800000E+00  1.00800000E+00  1.60000000E+01  1.00800000E+00
  1.00800000E+00  1.60000000E+01  1.00800000E+00  1.00800000E+00  1.60000000E+01
  1.00800000E+00  1.00800000E+00  1.60000000E+01  1.00800000E+00  1.00800000E+00
  1.60000000E+01  1.00800000E+00  1.00800000E+00  1.60000000E+01  1.00800000E+00
  1.00800000E+00  1.60000000E+01  1.00800000E+00  1.00800000E+00  1.60000000E+01
  1.00800000E+00  1.00800000E+00  1.60000000E+01  1.00800000E+00  1.00800000E+00
  1.60000000E+01  1.00800000E+00  1.00800000E+00  1.60000000E+01  1.00800000E+00
  1.00800000E+00  1.60000000E+01  1.00800000E+00  1.00800000E+00  1.60000000E+01
  1.00800000E+00  1.00800000E+00  1.60000000E+01  1.00800000E+00  1.00800000E+00
  1.60000000E+01  1.00800000E+00  1.00800000E+00  1.60000000E+01  1.00800000E+00
  1.00800000E+00  1.60000000E+01  1.00800000E+00  1.00800000E+00  1.60000000E+01
  1.00800000E+00  1.00800000E+00  1.60000000E+01  1.00800000E+00  1.00800000E+00
  1.60000000E+01  1.00800000E+00  1.00800000E+00  1.60000000E+01  1.00800000E+00
  1.00800000E+00  1.60000000E+01  1.00800000E+00  1.00800000E+00  1.60000000E+01
  1.00800000E+00  1.00800000E+00  1.60000000E+01  1.00800000E+00  1.00800000E+00
  1.60000000E+01  1.00800000E+00  1.00800000E+00  1.60000000E+01  1.00800000E+00
  1.00800000E+00  1.60000000E+01  1.00800000E+00  1.00800000E+00  1.60000000E+01
  1.00800000E+00  1.00800000E+00  1.60000000E+01  1.00800000E+00  1.00800000E+00
  1.60000000E+01  1.00800000E+00  1.00800000E+00  1.60000000E+01  1.00800000E+00
  1.00800000E+00  1.60000000E+01  1.00800000E+00  1.00800000E+00  1.60000000E+01
  1.00800000E+00  1.00800000E+00  1.60000000E+01  1.00800000E+00  1.00800000E+00
  1.60000000E+01  1.00800000E+00  1.00800000E+00  1.60000000E+01  1.00800000E+00
  1.00800000E+00  1.60000000E+01  1.00800000E+00  1.00800000E+00  1.60000000E+01
  1.00800000E+00  1.00800000E+00  1.60000000E+01  1.00800000E+00  1.00800000E+00
  1.60000000E+01  1.00800000E+00  1.00800000E+00  1.60000000E+01  1.00800000E+00
  1.00800000E+00  1.60000000E+01  1.00800000E+00  1.00800000E+00  1.60000000E+01
  1.00800000E+00  1.00800000E+00  1.60000000E+01  1.00800000E+00  1.00800000E+00
  1.60000000E+01  1.00800000E+00  1.00800000E+00  1.60000000E+01  1.00800000E+00
  1.00800000E+00  1.60000000E+01  1.00800000E+00  1.00800000E+00  1.60000000E+01
  1.00800000E+00  1.00800000E+00  1.60000000E+01  1.00800000E+00  1.00800000E+00
  1.60000000E+01  1.00800000E+00  1.00800000E+00  1.60000000E+01  1.00800000E+00
  1.00800000E+00  1.60000000E+01  1.00800000E+00  1.00800000E+00  1.60000000E+01
  1.00800000E+00  1.00800000E+00  1.60000000E+01  1.00800000E+00  1.00800000E+00
  1.60000000E+01  1.00800000E+00  1.00800000E+00  1.60000000E+01  1.00800000E+00
  1.00800000E+00  1.60000000E+01  1.00800000E+00  1.00800000E+00  1.60000000E+01
  1.00800000E+00  1.00800000E+00  1.60000000E+01  1.00800000E+00  1.00800000E+00
  1.60000000E+01  1.00800000E+00  1.00800000E+00  1.60000000E+01  1.00800000E+00
  1.00800000E+00  1.60000000E+01  1.00800000E+00  1.00800000E+00  1.60000000E+01
  1.00800000E+00  1.00800000E+00  1.60000000E+01  1.00800000E+00  1.00800000E+00
  1.60000000E+01  1.00800000E+00  1.00800000E+00  1.60000000E+01  1.00800000E+00
  1.00800000E+00  1.60000000E+01  1.00800000E+00  1.00800000E+00  1.60000000E+01
  1.00800000E+00  1.00800000E+00  1.60000000E+01  1.00800000E+00  1.00800000E+00
  1.60000000E+01  1.00800000E+00  1.00800000E+00  1.60000000E+01  1.00800000E+00
  1.00800000E+00  1.60000000E+01  1.00800000E+00  1.00800000E+00  1.60000000E+01
  1.00800000E+00  1.00800000E+00  1.60000000E+01  1.00800000E+00  1.00800000E+00
  1.60000000E+01  1.00800000E+00  1.00800000E+00  1.60000000E+01  1.00800000E+00
  1.00800000E+00  1.60000000E+01  1.00800000E+00  1.00800000E+00  1.60000000E+01
  1.00800000E+00  1.00800000E+00  1.60000000E+01  1.00800000E+00  1.00800000E+00
  1.60000000E+01  1.00800000E+00  1.00800000E+00  1.60000000E+01  1.00800000E+00
  1.00800000E+00  1.60000000E+01  1.00800000E+00  1.00800000E+00  1.60000000E+01
  1.00800000E+00  1.00800000E+00  1.60000000E+01  1.00800000E+00  1.00800000E+00
  1.60000000E+01  1.00800000E+00  1.00800000E+00  1.60000000E+01  1.00800000E+00
  1.00800000E+00  1.60000000E+01  1.00800000E+00  1.00800000E+00  1.60000000E+01
  1.00800000E+00  1.00800000E+00  1.60000000E+01  1.00800000E+00  1.00800000E+00
  1.60000000E+01  1.00800000E+00  1.00800000E+00  1.60000000E+01  1.00800000E+00
  1.00800000E+00  1.60000000E+01  1.00800000E+00  1.00800000E+00  1.60000000E+01
  1.00800000E+00  1.00800000E+00  1.60000000E+01  1.00800000E+00  1.00800000E+00
  1.60000000E+01  1.00800000E+00  1.00800000E+00  1.60000000E+01  1.00800000E+00
  1.00800000E+00  1.60000000E+01  1.00800000E+00  1.00800000E+00  1.60000000E+01
  1.00800000E+00  1.00800000E+00  1.60000000E+01  1.00800000E+00  1.00800000E+00
  1.60000000E+01  1.00800000E+00  1.00800000E+00  1.60000000E+01  1.00800000E+00
  1.00800000E+00  1.60000000E+01  1.00800000E+00  1.00800000E+00  1.60000000E+01
  1.00800000E+00  1.00800000E+00  1.60000000E+01  1.00800000E+00  1.00800000E+00
  1.60000000E+01  1.00800000E+00  1.00800000E+00  1.60000000E+01  1.00800000E+00
  1.00800000E+00  1.60000000E+01  1.00800000E+00  1.00800000E+00  1.60000000E+01
  1.00800000E+00  1.00800000E+00  1.60000000E+01  1.00800000E+00  1.00800000E+00
  1.60000000E+01  1.00800000E+00  1.00800000E+00  1.60000000E+01  1.00800000E+00
  1.00800000E+00  1.60000000E+01  1.00800000E+00  1.00800000E+00  1.60000000E+01
  1.00800000E+00  1.00800000E+00  1.60000000E+01  1.00800000E+00  1.00800000E+00
  1.60000000E+01  1.00800000E+00  1.00800000E+00  1.60000000E+01  1.00800000E+00
  1.00800000E+00  1.60000000E+01  1.00800000E+00  1.00800000E+00  1.60000000E+01
  1.00800000E+00  1.00800000E+00  1.60000000E+01  1.00800000E+00  1.00800000E+00
  1.60000000E+01  1.00800000E+00  1.00800000E+00  1.60000000E+01  1.00800000E+00
  1.00800000E+00  1.60000000E+01  1.00800000E+00  1.00800000E+00  1.60000000E+01
  1.00800000E+00  1.00800000E+00  1.60000000E+01  1.00800000E+00  1.00800000E+00
  1.60000000E+01  1.00800000E+00  1.00800000E+00  1.60000000E+01  1.00800000E+00
  1.00800000E+00  1.60000000E+01  1.00800000E+00  1.00800000E+00  1.60000000E+01
  1.00800000E+00  1.00800000E+00  1.60000000E+01  1.00800000E+00  1.00800000E+00
  1.60000000E+01  1.00800000E+00  1.00800000E+00  1.60000000E+01  1.00800000E+00
  1.00800000E+00  1.60000000E+01  1.00800000E+00  1.00800000E+00  1.60000000E+01
  1.00800000E+00  1.00800000E+00  1.60000000E+01  1.00800000E+00  1.00800000E+00
  1.60000000E+01  1.00800000E+00  1.00800000E+00  1.60000000E+01  1.00800000E+00
  1.00800000E+00  1.60000000E+01  1.00800000E+00  1.00800000E+00  1.60000000E+01
  1.00800000E+00  1.00800000E+00  1.60000000E+01  1.00800000E+00  1.00800000E+00
  1.60000000E+01  1.00800000E+00  1.00800000E+00  1.60000000E+01  1.00800000E+00
  1.00800000E+00  1.60000000E+01  1.00800000E+00  1.00800000E+00  1.60000000E+01
  1.00800000E+00  1.00800000E+00  1.60000000E+01  1.00800000E+00  1.00800000E+00
  1.60000000E+01  1.00800000E+00  1.00800000E+00  1.60000000E+01  1.00800000E+00
  1.00800000E+00  1.60000000E+01  1.00800000E+00  1.00800000E+00  1.60000000E+01
  1.00800000E+00  1.00800000E+00  1.60000000E+01  1.00800000E+00  1.00800000E+00
  1.60000000E+01  1.00800000E+00  1.00800000E+00  1.60000000E+01  1.00800000E+00
  1.00800000E+00  1.60000000E+01  1.00800000E+00  1.00800000E+00  1.60000000E+01
  1.00800000E+00  1.00800000E+00  1.60000000E+01  1.00800000E+00  1.00800000E+00
  1.60000000E+01  1.00800000E+00  1.00800000E+00  1.60000000E+01  1.00800000E+00
  1.00800000E+00  1.60000000E+01  1.00800000E+00  1.00800000E+00  1.60000000E+01
  1.00800000E+00  1.00800000E+00  1.60000000E+01  1.00800000E+00  1.00800000E+00
  1.60000000E+01  1.00800000E+00  1.00800000E+00  1.60000000E+01  1.00800000E+00
  1.00800000E+00  1.60000000E+01  1.00800000E+00  1.00800000E+00  1.60000000E+01
  1.00800000E+00  1.00800000E+00  1.60000000E+01  1.00800000E+00  1.00800000E+00
  1.60000000E+01  1.00800000E+00  1.00800000E+00  1.60000000E+01  1.00800000E+00
  1.00800000E+00  1.60000000E+01  1.00800000E+00  1.00800000E+00  1.60000000E+01
  1.00800000E+00  1.00800000E+00  1.60000000E+01  1.00800000E+00  1.00800000E+00
  1.60000000E+01  1.00800000E+00  1.00800000E+00  1.60000000E+01  1.00800000E+00
  1.00800000E+00  1.60000000E+01  1.00800000E+00  1.00800000E+00  1.60000000E+01
  1.00800000E+00  1.00800000E+00  1.60000000E+01  1.00800000E+00  1.00800000E+00
  1.60000000E+01  1.00800000E+00  1.00800000E+00  1.60000000E+01  1.00800000E+00
  1.00800000E+00  1.60000000E+01  1.00800000E+00  1.00800000E+00  1.60000000E+01
  1.00800000E+00  1.00800000E+00  1.60000000E+01  1.00800000E+00  1.00800000E+00
  1.60000000E+01  1.00800000E+00  1.00800000E+00  1.60000000E+01  1.00800000E+00
  1.00800000E+00  1.60000000E+01  1.00800000E+00  1.00800000E+00  1.60000000E+01
  1.00800000E+00  1.00800000E+00  1.60000000E+01  1.00800000E+00  1.00800000E+00
  1.60000000E+01  1.00800000E+00  1.00800000E+00  1.60000000E+01  1.00800000E+00
  1.00800000E+00  1.60000000E+01  1.00800000E+00  1.00800000E+00  1.60000000E+01
  1.00800000E+00  1.00800000E+00  1.60000000E+01  1.00800000E+00  1.00800000E+00
  1.60000000E+01  1.00800000E+00  1.00800000E+00  1.60000000E+01  1.00800000E+00
  1.00800000E+00  1.60000000E+01  1.00800000E+00  1.00800000E+00  1.60000000E+01
  1.00800000E+00  1.00800000E+00  1.60000000E+01  1.00800000E+00  1.00800000E+00
  1.60000000E+01  1.00800000E+00  1.00800000E+00  1.60000000E+01  1.00800000E+00
  1.00800000E+00  1.60000000E+01  1.00800000E+00  1.00800000E+00  1.60000000E+01
  1.00800000E+00  1.00800000E+00  1.60000000E+01  1.00800000E+00  1.00800000E+00
  1.60000000E+01  1.00800000E+00  1.00800000E+00  1.60000000E+01  1.00800000E+00
  1.00800000E+00  1.60000000E+01  1.00800000E+00  1.00800000E+00  1.60000000E+01
  1.00800000E+00  1.00800000E+00  1.60000000E+01  1.00800000E+00  1.00800000E+00
  1.60000000E+01  1.00800000E+00  1.00800000E+00  1.60000000E+01  1.00800000E+00
  1.00800000E+00  1.60000000E+01  1.00800000E+00  1.00800000E+00  1.60000000E+01
  1.00800000E+00  1.00800000E+00  1.60000000E+01  1.00800000E+00  1.00800000E+00
  1.60000000E+01  1.00800000E+00  1.00800000E+00  1.60000000E+01  1.00800000E+00
  1.00800000E+00  1.60000000E+01  1.00800000E+00  1.00800000E+00  1.60000000E+01
  1.00800000E+00  1.00800000E+00  1.60000000E+01  1.00800000E+00  1.00800000E+00
  1.60000000E+01  1.00800000E+00  1.00800000E+00  1.60000000E+01  1.00800000E+00
  1.00800000E+00  1.60000000E+01  1.00800000E+00  1.00800000E+00  1.60000000E+01
  1.00800000E+00  1.00800000E+00  1.60000000E+01  1.00800000E+00  1.00800000E+00
  1.60000000E+01  1.00800000E+00  1.00800000E+00  1.60000000E+01  1.00800000E+00
  1.00800000E+00  1.60000000E+01  1.00800000E+00  1.00800000E+00  1.60000000E+01
  1.00800000E+00  1.00800000E+00  1.60000000E+01  1.00800000E+00  1.00800000E+00
  1.60000000E+01  1.00800000E+00  1.00800000E+00  1.60000000E+01  1.00800000E+00
  1.00800000E+00  1.60000000E+01  1.00800000E+00  1.00800000E+00  1.60000000E+01
  1.00800000E+00  1.00800000E+00  1.60000000E+01  1.00800000E+00  1.00800000E+00
  1.60000000E+01  1.00800000E+00  1.00800000E+00  1.60000000E+01  1.00800000E+00
  1.00800000E+00  1.60000000E+01  1.00800000E+00  1.00800000E+00  1.60000000E+01
  1.00800000E+00  1.00800000E+00  1.60000000E+01  1.00800000E+00  1.00800000E+00
  1.60000000E+01  1.00800000E+00  1.00800000E+00  1.60000000E+01  1.00800000E+00
  1.00800000E+00  1.60000000E+01  1.00800000E+00  1.00800000E+00  1.60000000E+01
  1.00800000E+00  1.00800000E+00  1.60000000E+01  1.00800000E+00  1.00800000E+00
  1.60000000E+01  1.00800000E+00  1.00800000E+00  1.60000000E+01  1.00800000E+00
  1.00800000E+00  1.60000000E+01  1.00800000E+00  1.00800000E+00  1.60000000E+01
  1.00800000E+00  1.00800000E+00  1.60000000E+01  1.00800000E+00  1.00800000E+00
  1.60000000E+01  1.00800000E+00  1.00800000E+00  1.60000000E+01  1.00800000E+00
  1.00800000E+00  1.60000000E+01  1.00800000E+00  1.00800000E+00  1.60000000E+01
  1.00800000E+00  1.00800000E+00  1.60000000E+01  1.00800000E+00  1.00800000E+00
  1.60000000E+01  1.00800000E+00  1.00800000E+00  1.60000000E+01  1.00800000E+00
  1.00800000E+00  1.60000000E+01  1.00800000E+00  1.00800000E+00  1.60000000E+01
  1.00800000E+00  1.00800000E+00  1.60000000E+01  1.00800000E+00  1.00800000E+00
  1.60000000E+01  1.00800000E+00  1.00800000E+00  1.60000000E+01  1.00800000E+00
  1.00800000E+00  1.60000000E+01  1.00800000E+00  1.00800000E+00  1.60000000E+01
  1.00800000E+00  1.00800000E+00  1.60000000E+01  1.00800000E+00  1.00800000E+00
  1.60000000E+01  1.00800000E+00  1.00800000E+00  1.60000000E+01  1.00800000E+00
  1.00800000E+00  1.60000000E+01  1.00800000E+00  1.00800000E+00  1.60000000E+01
  1.00800000E+00  1.00800000E+00  1.60000000E+01  1.00800000E+00  1.00800000E+00
  1.60000000E+01  1.00800000E+00  1.00800000E+00  1.60000000E+01  1.00800000E+00
  1.00800000E+00  1.60000000E+01  1.00800000E+00  1.00800000E+00  1.60000000E+01
  1.00800000E+00  1.00800000E+00  1.60000000E+01  1.00800000E+00  1.00800000E+00
  1.60000000E+01  1.00800000E+00  1.00800000E+00  1.60000000E+01  1.00800000E+00
  1.00800000E+00  1.60000000E+01  1.00800000E+00  1.00800000E+00  1.60000000E+01
  1.00800000E+00  1.00800000E+00  1.60000000E+01  1.00800000E+00  1.00800000E+00
  1.60000000E+01  1.00800000E+00  1.00800000E+00  1.60000000E+01  1.00800000E+00
  1.00800000E+00  1.60000000E+01  1.00800000E+00  1.00800000E+00  1.60000000E+01
  1.00800000E+00  1.00800000E+00  1.60000000E+01  1.00800000E+00  1.00800000E+00
  1.60000000E+01  1.00800000E+00  1.00800000E+00  1.60000000E+01  1.00800000E+00
  1.00800000E+00  1.60000000E+01  1.00800000E+00  1.00800000E+00  1.60000000E+01
  1.00800000E+00  1.00800000E+00  1.60000000E+01  1.00800000E+00  1.00800000E+00
  1.60000000E+01  1.00800000E+00  1.00800000E+00  1.60000000E+01  1.00800000E+00
  1.00800000E+00  1.60000000E+01  1.00800000E+00  1.00800000E+00  1.60000000E+01
  1.00800000E+00  1.00800000E+00  1.60000000E+01  1.00800000E+00  1.00800000E+00
  1.60000000E+01  1.00800000E+00  1.00800000E+00  1.60000000E+01  1.00800000E+00
  1.00800000E+00  1.60000000E+01  1.00800000E+00  1.00800000E+00  1.60000000E+01
  1.00800000E+00  1.00800000E+00  1.60000000E+01  1.00800000E+00  1.00800000E+00
  1.60000000E+01  1.00800000E+00  1.00800000E+00  1.60000000E+01  1.00800000E+00
  1.00800000E+00  1.60000000E+01  1.00800000E+00  1.00800000E+00  1.60000000E+01
  1.00800000E+00  1.00800000E+00  1.60000000E+01  1.00800000E+00  1.00800000E+00
  1.60000000E+01  1.00800000E+00  1.00800000E+00  1.60000000E+01  1.00800000E+00
  1.00800000E+00  1.60000000E+01  1.00800000E+00  1.00800000E+00  1.60000000E+01
  1.00800000E+00  1.00800000E+00  1.60000000E+01  1.00800000E+00  1.00800000E+00
  1.60000000E+01  1.00800000E+00  1.00800000E+00  1.60000000E+01  1.00800000E+00
  1.00800000E+00  1.60000000E+01  1.00800000E+00  1.00800000E+00  1.60000000E+01
  1.00800000E+00  1.00800000E+00  1.60000000E+01  1.00800000E+00  1.00800000E+00
  1.60000000E+01  1.00800000E+00  1.00800000E+00  1.60000000E+01  1.00800000E+00
  1.00800000E+00  1.60000000E+01  1.00800000E+00  1.00800000E+00  1.60000000E+01
  1.00800000E+00  1.00800000E+00  1.60000000E+01  1.00800000E+00  1.00800000E+00
  1.60000000E+01  1.00800000E+00  1.00800000E+00  1.60000000E+01  1.00800000E+00
  1.00800000E+00  1.60000000E+01  1.00800000E+00  1.00800000E+00  1.60000000E+01
  1.00800000E+00  1.00800000E+00  1.60000000E+01  1.00800000E+00  1.00800000E+00
  1.60000000E+01  1.00800000E+00  1.00800000E+00  1.60000000E+01  1.00800000E+00
  1.00800000E+00  1.60000000E+01  1.00800000E+00  1.00800000E+00  1.60000000E+01
  1.00800000E+00  1.00800000E+00  1.60000000E+01  1.00800000E+00  1.00800000E+00
  1.60000000E+01  1.00800000E+00  1.00800000E+00  1.60000000E+01  1.00800000E+00
  1.00800000E+00  1.60000000E+01  1.00800000E+00  1.00800000E+00  1.60000000E+01
  1.00800000E+00  1.00800000E+00  1.60000000E+01  1.00800000E+00  1.00800000E+00
  1.60000000E+01  1.00800000E+00  1.00800000E+00  1.60000000E+01  1.00800000E+00
  1.00800000E+00  1.60000000E+01  1.00800000E+00  1.00800000E+00  1.60000000E+01
  1.00800000E+00  1.00800000E+00  1.60000000E+01  1.00800000E+00  1.00800000E+00
  1.60000000E+01  1.00800000E+00  1.00800000E+00  1.60000000E+01  1.00800000E+00
  1.00800000E+00  1.60000000E+01  1.00800000E+00  1.00800000E+00  1.60000000E+01
  1.00800000E+00  1.00800000E+00  1.60000000E+01  1.00800000E+00  1.00800000E+00
  1.60000000E+01  1.00800000E+00  1.00800000E+00  1.60000000E+01  1.00800000E+00
  1.00800000E+00  1.60000000E+01  1.00800000E+00  1.00800000E+00  1.60000000E+01
  1.00800000E+00  1.00800000E+00  1.60000000E+01  1.00800000E+00  1.00800000E+00
  1.60000000E+01  1.00800000E+00  1.00800000E+00  1.60000000E+01  1.00800000E+00
  1.00800000E+00  1.60000000E+01  1.00800000E+00  1.00800000E+00  1.60000000E+01
  1.00800000E+00  1.00800000E+00  1.60000000E+01  1.00800000E+00  1.00800000E+00
  1.60000000E+01  1.00800000E+00  1.00800000E+00  1.60000000E+01  1.00800000E+00
  1.00800000E+00  1.60000000E+01  1.00800000E+00  1.00800000E+00  1.60000000E+01
  1.00800000E+00  1.00800000E+00  1.60000000E+01  1.00800000E+00  1.00800000E+00
  1.60000000E+01  1.00800000E+00  1.00800000E+00  1.60000000E+01  1.00800000E+00
  1.00800000E+00  1.60000000E+01  1.00800000E+00  1.00800000E+00  1.60000000E+01
  1.00800000E+00  1.00800000E+00  1.60000000E+01  1.00800000E+00  1.00800000E+00
  1.60000000E+01  1.00800000E+00  1.00800000E+00  1.60000000E+01  1.00800000E+00
  1.00800000E+00  1.60000000E+01  1.00800000E+00  1.00800000E+00  1.60000000E+01
  1.00800000E+00  1.00800000E+00  1.60000000E+01  1.00800000E+00  1.00800000E+00
  1.60000000E+01  1.00800000E+00  1.00800000E+00  1.60000000E+01  1.00800000E+00
  1.00800000E+00  1.60000000E+01  1.00800000E+00  1.00800000E+00  1.60000000E+01
  1.00800000E+00  1.00800000E+00  1.60000000E+01  1.00800000E+00  1.00800000E+00
  1.60000000E+01  1.00800000E+00  1.00800000E+00  1.60000000E+01  1.00800000E+00
  1.00800000E+00  1.60000000E+01  1.00800000E+00  1.00800000E+00  1.60000000E+01
  1.00800000E+00  1.00800000E+00  1.60000000E+01  1.00800000E+00  1.00800000E+00
  1.60000000E+01  1.00800000E+00  1.00800000E+00  1.60000000E+01  1.00800000E+00
  1.00800000E+00  1.60000000E+01  1.00800000E+00  1.00800000E+00  1.60000000E+01
  1.00800000E+00  1.00800000E+00  1.60000000E+01  1.00800000E+00  1.00800000E+00
  1.60000000E+01  1.00800000E+00  1.00800000E+00  1.60000000E+01  1.00800000E+00
  1.00800000E+00  1.60000000E+01  1.00800000E+00  1.00800000E+00  1.60000000E+01
  1.00800000E+00  1.00800000E+00  1.60000000E+01  1.00800000E+00  1.00800000E+00
  1.60000000E+01  1.00800000E+00  1.00800000E+00  1.60000000E+01  1.00800000E+00
  1.00800000E+00  1.60000000E+01  1.00800000E+00  1.00800000E+00  1.60000000E+01
  1.00800000E+00  1.00800000E+00  1.60000000E+01  1.00800000E+00  1.00800000E+00
  1.60000000E+01  1.00800000E+00  1.00800000E+00  1.60000000E+01  1.00800000E+00
  1.00800000E+00  1.60000000E+01  1.00800000E+00  1.00800000E+00  1.60000000E+01
  1.00800000E+00  1.00800000E+00  1.60000000E+01  1.00800000E+00  1.00800000E+00
  1.60000000E+01  1.00800000E+00  1.00800000E+00  1.60000000E+01  1.00800000E+00
  1.00800000E+00  1.60000000E+01  1.00800000E+00  1.00800000E+00  1.60000000E+01
  1.00800000E+00  1.00800000E+00  1.60000000E+01  1.00800000E+00  1.00800000E+00
  1.60000000E+01  1.00800000E+00  1.00800000E+00  1.60000000E+01  1.00800000E+00
  1.00800000E+00  1.60000000E+01  1.00800000E+00  1.00800000E+00  1.60000000E+01
  1.00800000E+00  1.00800000E+00  1.60000000E+01  1.00800000E+00  1.00800000E+00
  1.60000000E+01  1.00800000E+00  1.00800000E+00  1.60000000E+01  1.00800000E+00
  1.00800000E+00  1.60000000E+01  1.00800000E+00  1.00800000E+00  1.60000000E+01
  1.00800000E+00  1.00800000E+00  1.60000000E+01  1.00800000E+00  1.00800000E+00
  1.60000000E+01  1.00800000E+00  1.00800000E+00  1.60000000E+01  1.00800000E+00
  1.00800000E+00  1.60000000E+01  1.00800000E+00  1.00800000E+00  1.60000000E+01
  1.00800000E+00  1.00800000E+00  1.60000000E+01  1.00800000E+00  1.00800000E+00
  1.60000000E+01  1.00800000E+00  1.00800000E+00  1.60000000E+01  1.00800000E+00
  1.00800000E+00  1.60000000E+01  1.00800000E+00  1.00800000E+00  1.60000000E+01
  1.00800000E+00  1.00800000E+00  1.60000000E+01  1.00800000E+00  1.00800000E+00
  1.60000000E+01  1.00800000E+00  1.00800000E+00  1.60000000E+01  1.00800000E+00
  1.00800000E+00  1.60000000E+01  1.00800000E+00  1.00800000E+00  1.60000000E+01
  1.00800000E+00  1.00800000E+00  1.60000000E+01  1.00800000E+00  1.00800000E+00
  1.60000000E+01  1.00800000E+00  1.00800000E+00  1.60000000E+01  1.00800000E+00
  1.00800000E+00  1.60000000E+01  1.00800000E+00  1.00800000E+00  1.60000000E+01
  1.00800000E+00  1.00800000E+00  1.60000000E+01  1.00800000E+00  1.00800000E+00
  1.60000000E+01  1.00800000E+00  1.00800000E+00  1.60000000E+01  1.00800000E+00
  1.00800000E+00  1.60000000E+01  1.00800000E+00  1.00800000E+00  1.60000000E+01
  1.00800000E+00  1.00800000E+00  1.60000000E+01  1.00800000E+00  1.00800000E+00
  1.60000000E+01  1.00800000E+00  1.00800000E+00  1.60000000E+01  1.00800000E+00
  1.00800000E+00  1.60000000E+01  1.00800000E+00  1.00800000E+00  1.60000000E+01
  1.00800000E+00  1.00800000E+00  1.60000000E+01  1.00800000E+00  1.00800000E+00
  1.60000000E+01  1.00800000E+00  1.00800000E+00  1.60000000E+01  1.00800000E+00
  1.00800000E+00  1.60000000E+01  1.00800000E+00  1.00800000E+00  1.60000000E+01
  1.00800000E+00  1.00800000E+00  1.60000000E+01  1.00800000E+00  1.00800000E+00
  1.60000000E+01  1.00800000E+00  1.00800000E+00  1.60000000E+01  1.00800000E+00
  1.00800000E+00  1.60000000E+01  1.00800000E+00  1.00800000E+00  1.60000000E+01
  1.00800000E+00  1.00800000E+00  1.60000000E+01  1.00800000E+00  1.00800000E+00
  1.60000000E+01  1.00800000E+00  1.00800000E+00  1.60000000E+01  1.00800000E+00
  1.00800000E+00  1.60000000E+01  1.00800000E+00  1.00800000E+00  1.60000000E+01
  1.00800000E+00  1.00800000E+00  1.60000000E+01  1.00800000E+00  1.00800000E+00
  1.60000000E+01  1.00800000E+00  1.00800000E+00  1.60000000E+01  1.00800000E+00
  1.00800000E+00  1.60000000E+01  1.00800000E+00  1.00800000E+00  1.60000000E+01
  1.00800000E+00  1.00800000E+00  1.60000000E+01  1.00800000E+00  1.00800000E+00
  1.60000000E+01  1.00800000E+00  1.00800000E+00  1.60000000E+01  1.00800000E+00
  1.00800000E+00  1.60000000E+01  1.00800000E+00  1.00800000E+00  1.60000000E+01
  1.00800000E+00  1.00800000E+00  1.60000000E+01  1.00800000E+00  1.00800000E+00
  1.60000000E+01  1.00800000E+00  1.00800000E+00  1.60000000E+01  1.00800000E+00
  1.00800000E+00  1.60000000E+01  1.00800000E+00  1.00800000E+00  1.60000000E+01
  1.00800000E+00  1.00800000E+00  1.60000000E+01  1.00800000E+00  1.00800000E+00
  1.60000000E+01  1.00800000E+00  1.00800000E+00  1.60000000E+01  1.00800000E+00
  1.00800000E+00  1.60000000E+01  1.00800000E+00  1.00800000E+00  1.60000000E+01
  1.00800000E+00  1.00800000E+00  1.60000000E+01  1.00800000E+00  1.00800000E+00
  1.60000000E+01  1.00800000E+00  1.00800000E+00  1.60000000E+01  1.00800000E+00
  1.00800000E+00  1.60000000E+01  1.00800000E+00  1.00800000E+00  1.60000000E+01
  1.00800000E+00  1.00800000E+00  1.60000000E+01  1.00800000E+00  1.00800000E+00
  1.60000000E+01  1.00800000E+00  1.00800000E+00  1.60000000E+01  1.00800000E+00
  1.00800000E+00  1.60000000E+01  1.00800000E+00  1.00800000E+00  1.60000000E+01
  1.00800000E+00  1.00800000E+00  1.60000000E+01  1.00800000E+00  1.00800000E+00
  1.60000000E+01  1.00800000E+00  1.00800000E+00  1.60000000E+01  1.00800000E+00
  1.00800000E+00  1.60000000E+01  1.00800000E+00  1.00800000E+00  1.60000000E+01
  1.00800000E+00  1.00800000E+00  1.60000000E+01  1.00800000E+00  1.00800000E+00
  1.60000000E+01  1.00800000E+00  1.00800000E+00  1.60000000E+01  1.00800000E+00
  1.00800000E+00  1.60000000E+01  1.00800000E+00  1.00800000E+00  1.60000000E+01
  1.00800000E+00  1.00800000E+00  1.60000000E+01  1.00800000E+00  1.00800000E+00
  1.60000000E+01  1.00800000E+00  1.00800000E+00  1.60000000E+01  1.00800000E+00
  1.00800000E+00  1.60000000E+01  1.00800000E+00  1.00800000E+00  1.60000000E+01
  1.00800000E+00  1.00800000E+00  1.60000000E+01  1.00800000E+00  1.00800000E+00
  1.60000000E+01  1.00800000E+00  1.00800000E+00  1.60000000E+01  1.00800000E+00
  1.00800000E+00  1.60000000E+01  1.00800000E+00  1.00800000E+00  1.60000000E+01
  1.00800000E+00  1.00800000E+00  1.60000000E+01  1.00800000E+00  1.00800000E+00
  1.60000000E+01  1.00800000E+00  1.00800000E+00  1.60000000E+01  1.00800000E+00
  1.00800000E+00  1.60000000E+01  1.00800000E+00  1.00800000E+00  1.60000000E+01
  1.00800000E+00  1.00800000E+00  1.60000000E+01  1.00800000E+00  1.00800000E+00
  1.60000000E+01  1.00800000E+00  1.00800000E+00  1.60000000E+01  1.00800000E+00
  1.00800000E+00  1.60000000E+01  1.00800000E+00  1.00800000E+00  1.60000000E+01
  1.00800000E+00  1.00800000E+00  1.60000000E+01  1.00800000E+00  1.00800000E+00
  1.60000000E+01  1.00800000E+00  1.00800000E+00  1.60000000E+01  1.00800000E+00
  1.00800000E+00  1.60000000E+01  1.00800000E+00  1.00800000E+00  1.60000000E+01
  1.00800000E+00  1.00800000E+00  1.60000000E+01  1.00800000E+00  1.00800000E+00
  1.60000000E+01  1.00800000E+00  1.00800000E+00  1.60000000E+01  1.00800000E+00
  1.00800000E+00  1.60000000E+01  1.00800000E+00  1.00800000E+00  1.60000000E+01
  1.00800000E+00  1.00800000E+00  1.60000000E+01  1.00800000E+00  1.00800000E+00
  1.60000000E+01  1.00800000E+00  1.00800000E+00  1.60000000E+01  1.00800000E+00
  1.00800000E+00  1.60000000E+01  1.00800000E+00  1.00800000E+00  1.60000000E+01
  1.00800000E+00  1.00800000E+00  1.60000000E+01  1.00800000E+00  1.00800000E+00
  1.60000000E+01  1.00800000E+00  1.00800000E+00  1.60000000E+01  1.00800000E+00
  1.00800000E+00  1.60000000E+01  1.00800000E+00  1.00800000E+00  1.60000000E+01
  1.00800000E+00  1.00800000E+00  1.60000000E+01  1.00800000E+00  1.00800000E+00
  1.60000000E+01  1.00800000E+00  1.00800000E+00  1.60000000E+01  1.00800000E+00
  1.00800000E+00  1.60000000E+01  1.00800000E+00  1.00800000E+00  1.60000000E+01
  1.00800000E+00  1.00800000E+00  1.60000000E+01  1.00800000E+00  1.00800000E+00
  1.60000000E+01  1.00800000E+00  1.00800000E+00  1.60000000E+01  1.00800000E+00
  1.00800000E+00  1.60000000E+01  1.00800000E+00  1.00800000E+00  1.60000000E+01
  1.00800000E+00  1.00800000E+00  1.60000000E+01  1.00800000E+00  1.00800000E+00
  1.60000000E+01  1.00800000E+00  1.00800000E+00  1.60000000E+01  1.00800000E+00
  1.00800000E+00  1.60000000E+01  1.00800000E+00  1.00800000E+00  1.60000000E+01
  1.00800000E+00  1.00800000E+00  1.60000000E+01  1.00800000E+00  1.00800000E+00
  1.60000000E+01  1.00800000E+00  1.00800000E+00  1.60000000E+01  1.00800000E+00
  1.00800000E+00  1.60000000E+01  1.00800000E+00  1.00800000E+00  1.60000000E+01
  1.00800000E+00  1.00800000E+00  1.60000000E+01  1.00800000E+00  1.00800000E+00
  1.60000000E+01  1.00800000E+00  1.00800000E+00  1.60000000E+01  1.00800000E+00
  1.00800000E+00  1.60000000E+01  1.00800000E+00  1.00800000E+00  1.60000000E+01
  1.00800000E+00  1.00800000E+00  1.60000000E+01  1.00800000E+00  1.00800000E+00
  1.60000000E+01  1.00800000E+00  1.00800000E+00  1.60000000E+01  1.00800000E+00
  1.00800000E+00  1.60000000E+01  1.00800000E+00  1.00800000E+00  1.60000000E+01
  1.00800000E+00  1.00800000E+00  1.60000000E+01  1.00800000E+00  1.00800000E+00
  1.60000000E+01  1.00800000E+00  1.00800000E+00  1.60000000E+01  1.00800000E+00
  1.00800000E+00  1.60000000E+01  1.00800000E+00  1.00800000E+00  1.60000000E+01
  1.00800000E+00  1.00800000E+00  1.60000000E+01  1.00800000E+00  1.00800000E+00
  1.60000000E+01  1.00800000E+00  1.00800000E+00  1.60000000E+01  1.00800000E+00
  1.00800000E+00  1.60000000E+01  1.00800000E+00  1.00800000E+00  1.60000000E+01
  1.00800000E+00  1.00800000E+00  1.60000000E+01  1.00800000E+00  1.00800000E+00
  1.60000000E+01  1.00800000E+00  1.00800000E+00  1.60000000E+01  1.00800000E+00
  1.00800000E+00  1.60000000E+01  1.00800000E+00  1.00800000E+00  1.60000000E+01
  1.00800000E+00  1.00800000E+00  1.60000000E+01  1.00800000E+00  1.00800000E+00
  1.60000000E+01  1.00800000E+00  1.00800000E+00  1.60000000E+01  1.00800000E+00
  1.00800000E+00  1.60000000E+01  1.00800000E+00  1.00800000E+00  1.60000000E+01
  1.00800000E+00  1.00800000E+00  1.60000000E+01  1.00800000E+00  1.00800000E+00
  1.60000000E+01  1.00800000E+00  1.00800000E+00  1.60000000E+01  1.00800000E+00
  1.00800000E+00  1.60000000E+01  1.00800000E+00  1.00800000E+00  1.60000000E+01
  1.00800000E+00  1.00800000E+00  1.60000000E+01  1.00800000E+00  1.00800000E+00
  1.60000000E+01  1.00800000E+00  1.00800000E+00  1.60000000E+01  1.00800000E+00
  1.00800000E+00  1.60000000E+01  1.00800000E+00  1.00800000E+00  1.60000000E+01
  1.00800000E+00  1.00800000E+00  1.60000000E+01  1.00800000E+00  1.00800000E+00
  1.60000000E+01  1.00800000E+00  1.00800000E+00  1.60000000E+01  1.00800000E+00
  1.00800000E+00  1.60000000E+01  1.00800000E+00  1.00800000E+00  1.60000000E+01
  1.00800000E+00  1.00800000E+00  1.60000000E+01  1.00800000E+00  1.00800000E+00
  1.60000000E+01  1.00800000E+00  1.00800000E+00  1.60000000E+01  1.00800000E+00
  1.00800000E+00  1.60000000E+01  1.00800000E+00  1.00800000E+00  1.60000000E+01
  1.00800000E+00  1.00800000E+00  1.60000000E+01  1.00800000E+00  1.00800000E+00
  1.60000000E+01  1.00800000E+00  1.00800000E+00  1.60000000E+01  1.00800000E+00
  1.00800000E+00  1.60000000E+01  1.00800000E+00  1.00800000E+00  1.60000000E+01
  1.00800000E+00  1.00800000E+00  1.60000000E+01  1.00800000E+00  1.00800000E+00
  1.60000000E+01  1.00800000E+00  1.00800000E+00  1.60000000E+01  1.00800000E+00
  1.00800000E+00  1.60000000E+01  1.00800000E+00  1.00800000E+00  1.60000000E+01
  1.00800000E+00  1.00800000E+00  1.60000000E+01  1.00800000E+00  1.00800000E+00
  1.60000000E+01  1.00800000E+00  1.00800000E+00  1.60000000E+01  1.00800000E+00
  1.00800000E+00  1.60000000E+01  1.00800000E+00  1.00800000E+00  1.60000000E+01
  1.00800000E+00  1.00800000E+00  1.60000000E+01  1.00800000E+00  1.00800000E+00
  1.60000000E+01  1.00800000E+00  1.00800000E+00  1.60000000E+01  1.00800000E+00
  1.00800000E+00  1.60000000E+01  1.00800000E+00  1.00800000E+00  1.60000000E+01
  1.00800000E+00  1.00800000E+00  1.60000000E+01  1.00800000E+00  1.00800000E+00
  1.60000000E+01  1.00800000E+00  1.00800000E+00  1.60000000E+01  1.00800000E+00
  1.00800000E+00  1.60000000E+01  1.00800000E+00  1.00800000E+00  1.60000000E+01
  1.00800000E+00  1.00800000E+00  1.60000000E+01  1.00800000E+00  1.00800000E+00
  1.60000000E+01  1.00800000E+00  1.00800000E+00  1.60000000E+01  1.00800000E+00
  1.00800000E+00  1.60000000E+01  1.00800000E+00  1.00800000E+00  1.60000000E+01
  1.00800000E+00  1.00800000E+00  1.60000000E+01  1.00800000E+00  1.00800000E+00
  1.60000000E+01  1.00800000E+00  1.00800000E+00  1.60000000E+01  1.00800000E+00
  1.00800000E+00  1.60000000E+01  1.00800000E+00  1.00800000E+00  1.60000000E+01
  1.00800000E+00  1.00800000E+00  1.60000000E+01  1.00800000E+00  1.00800000E+00
  1.60000000E+01  1.00800000E+00  1.00800000E+00  1.60000000E+01  1.00800000E+00
  1.00800000E+00  1.60000000E+01  1.00800000E+00  1.00800000E+00  1.60000000E+01
  1.00800000E+00  1.00800000E+00  1.60000000E+01  1.00800000E+00  1.00800000E+00
  1.60000000E+01  1.00800000E+00  1.00800000E+00  1.60000000E+01  1.00800000E+00
  1.00800000E+00  1.60000000E+01  1.00800000E+00  1.00800000E+00  1.60000000E+01
  1.00800000E+00  1.00800000E+00  1.60000000E+01  1.00800000E+00  1.00800000E+00
  1.60000000E+01  1.00800000E+00  1.00800000E+00  1.60000000E+01  1.00800000E+00
  1.00800000E+00  1.60000000E+01  1.00800000E+00  1.00800000E+00  1.60000000E+01
  1.00800000E+00  1.00800000E+00  1.60000000E+01  1.00800000E+00  1.00800000E+00
  1.60000000E+01  1.00800000E+00  1.00800000E+00  1.60000000E+01  1.00800000E+00
  1.00800000E+00  1.60000000E+01  1.00800000E+00  1.00800000E+00  1.60000000E+01
  1.00800000E+00  1.00800000E+00  1.60000000E+01  1.00800000E+00  1.00800000E+00
  1.60000000E+01  1.00800000E+00  1.00800000E+00  1.60000000E+01  1.00800000E+00
  1.00800000E+00  1.60000000E+01  1.00800000E+00  1.00800000E+00  1.60000000E+01
  1.00800000E+00  1.00800000E+00  1.60000000E+01  1.00800000E+00  1.00800000E+00
  1.60000000E+01  1.00800000E+00  1.00800000E+00  1.60000000E+01  1.00800000E+00
  1.00800000E+00  1.60000000E+01  1.00800000E+00  1.00800000E+00  1.60000000E+01
  1.00800000E+00  1.00800000E+00  1.60000000E+01  1.00800000E+00  1.00800000E+00
  1.60000000E+01  1.00800000E+00  1.00800000E+00  1.60000000E+01  1.00800000E+00
  1.00800000E+00  1.60000000E+01  1.00800000E+00  1.00800000E+00  1.60000000E+01
  1.00800000E+00  1.00800000E+00  1.60000000E+01  1.00800000E+00  1.00800000E+00
  1.60000000E+01  1.00800000E+00  1.00800000E+00  1.60000000E+01  1.00800000E+00
  1.00800000E+00  1.60000000E+01  1.00800000E+00  1.00800000E+00  1.60000000E+01
  1.00800000E+00  1.00800000E+00  1.60000000E+01  1.00800000E+00  1.00800000E+00
  1.60000000E+01  1.00800000E+00  1.00800000E+00  1.60000000E+01  1.00800000E+00
  1.00800000E+00  1.60000000E+01  1.00800000E+00  1.00800000E+00  1.60000000E+01
  1.00800000E+00  1.00800000E+00  1.60000000E+01  1.00800000E+00  1.00800000E+00
  1.60000000E+01  1.00800000E+00  1.00800000E+00  1.60000000E+01  1.00800000E+00
  1.00800000E+00  1.60000000E+01  1.00800000E+00  1.00800000E+00  1.60000000E+01
  1.00800000E+00  1.00800000E+00  1.60000000E+01  1.00800000E+00  1.00800000E+00
  1.60000000E+01  1.00800000E+00  1.00800000E+00  1.60000000E+01  1.00800000E+00
  1.00800000E+00  1.60000000E+01  1.00800000E+00  1.00800000E+00  1.60000000E+01
  1.00800000E+00  1.00800000E+00  1.60000000E+01  1.00800000E+00  1.00800000E+00
  1.60000000E+01  1.00800000E+00  1.00800000E+00  1.60000000E+01  1.00800000E+00
  1.00800000E+00  1.60000000E+01  1.00800000E+00  1.00800000E+00  1.60000000E+01
  1.00800000E+00  1.00800000E+00  1.60000000E+01  1.00800000E+00  1.00800000E+00
  1.60000000E+01  1.00800000E+00  1.00800000E+00  1.60000000E+01  1.00800000E+00
  1.00800000E+00  1.60000000E+01  1.00800000E+00  1.00800000E+00  1.60000000E+01
  1.00800000E+00  1.00800000E+00  1.60000000E+01  1.00800000E+00  1.00800000E+00
  1.60000000E+01  1.00800000E+00  1.00800000E+00  1.60000000E+01  1.00800000E+00
  1.00800000E+00  1.60000000E+01  1.00800000E+00  1.00800000E+00  1.60000000E+01
  1.00800000E+00  1.00800000E+00  1.60000000E+01  1.00800000E+00  1.00800000E+00
  1.60000000E+01  1.00800000E+00  1.00800000E+00  1.60000000E+01  1.00800000E+00
  1.00800000E+00  1.60000000E+01  1.00800000E+00  1.00800000E+00  1.60000000E+01
  1.00800000E+00  1.00800000E+00  1.60000000E+01  1.00800000E+00  1.00800000E+00
  1.60000000E+01  1.00800000E+00  1.00800000E+00  1.60000000E+01  1.00800000E+00
  1.00800000E+00  1.60000000E+01  1.00800000E+00  1.00800000E+00  1.60000000E+01
  1.00800000E+00  1.00800000E+00  1.60000000E+01  1.00800000E+00  1.00800000E+00
  1.60000000E+01  1.00800000E+00  1.00800000E+00  1.60000000E+01  1.00800000E+00
  1.00800000E+00  1.60000000E+01  1.00800000E+00  1.00800000E+00  1.60000000E+01
  1.00800000E+00  1.00800000E+00  1.60000000E+01  1.00800000E+00  1.00800000E+00
  1.60000000E+01  1.00800000E+00  1.00800000E+00  1.60000000E+01  1.00800000E+00
  1.00800000E+00  1.60000000E+01  1.00800000E+00  1.00800000E+00  1.60000000E+01
  1.00800000E+00  1.00800000E+00  1.60000000E+01  1.00800000E+00  1.00800000E+00
  1.60000000E+01  1.00800000E+00  1.00800000E+00  1.60000000E+01  1.00800000E+00
  1.00800000E+00  1.60000000E+01  1.00800000E+00  1.00800000E+00  1.60000000E+01
  1.00800000E+00  1.00800000E+00  1.60000000E+01  1.00800000E+00  1.00800000E+00
  1.60000000E+01  1.00800000E+00  1.00800000E+00  1.60000000E+01  1.00800000E+00
  1.00800000E+00  1.60000000E+01  1.00800000E+00  1.00800000E+00  1.60000000E+01
  1.00800000E+00  1.00800000E+00  1.60000000E+01  1.00800000E+00  1.00800000E+00
  1.60000000E+01  1.00800000E+00  1.00800000E+00  1.60000000E+01  1.00800000E+00
  1.00800000E+00  1.60000000E+01  1.00800000E+00  1.00800000E+00  1.60000000E+01
  1.00800000E+00  1.00800000E+00  1.60000000E+01  1.00800000E+00  1.00800000E+00
  1.60000000E+01  1.00800000E+00  1.00800000E+00  1.60000000E+01  1.00800000E+00
  1.00800000E+00  1.60000000E+01  1.00800000E+00  1.00800000E+00  1.60000000E+01
  1.00800000E+00  1.00800000E+00  1.60000000E+01  1.00800000E+00  1.00800000E+00
  1.60000000E+01  1.00800000E+00  1.00800000E+00  1.60000000E+01  1.00800000E+00
  1.00800000E+00  1.60000000E+01  1.00800000E+00  1.00800000E+00  1.60000000E+01
  1.00800000E+00  1.00800000E+00  1.60000000E+01  1.00800000E+00  1.00800000E+00
  1.60000000E+01  1.00800000E+00  1.00800000E+00  1.60000000E+01  1.00800000E+00
  1.00800000E+00  1.60000000E+01  1.00800000E+00  1.00800000E+00  1.60000000E+01
  1.00800000E+00  1.00800000E+00  1.60000000E+01  1.00800000E+00  1.00800000E+00
  1.60000000E+01  1.00800000E+00  1.00800000E+00  1.60000000E+01  1.00800000E+00
  1.00800000E+00  1.60000000E+01  1.00800000E+00  1.00800000E+00  1.60000000E+01
  1.00800000E+00  1.00800000E+00  1.60000000E+01  1.00800000E+00  1.00800000E+00
  1.60000000E+01  1.00800000E+00  1.00800000E+00  1.60000000E+01  1.00800000E+00
  1.00800000E+00  1.60000000E+01  1.00800000E+00  1.00800000E+00  1.60000000E+01
  1.00800000E+00  1.00800000E+00  1.60000000E+01  1.00800000E+00  1.00800000E+00
  1.60000000E+01  1.00800000E+00  1.00800000E+00  1.60000000E+01  1.00800000E+00
  1.00800000E+00  1.60000000E+01  1.00800000E+00  1.00800000E+00  1.60000000E+01
  1.00800000E+00  1.00800000E+00  1.60000000E+01  1.00800000E+00  1.00800000E+00
  1.60000000E+01  1.00800000E+00  1.00800000E+00  1.60000000E+01  1.00800000E+00
  1.00800000E+00  1.60000000E+01  1.00800000E+00  1.00800000E+00  1.60000000E+01
  1.00800000E+00  1.00800000E+00  1.60000000E+01  1.00800000E+00  1.00800000E+00
  1.60000000E+01  1.00800000E+00  1.00800000E+00  1.60000000E+01  1.00800000E+00
  1.00800000E+00  1.60000000E+01  1.00800000E+00  1.00800000E+00  1.60000000E+01
  1.00800000E+00  1.00800000E+00  1.60000000E+01  1.00800000E+00  1.00800000E+00
  1.60000000E+01  1.00800000E+00  1.00800000E+00  1.60000000E+01  1.00800000E+00
  1.00800000E+00  1.60000000E+01  1.00800000E+00  1.00800000E+00  1.60000000E+01
  1.00800000E+00  1.00800000E+00  1.60000000E+01  1.00800000E+00  1.00800000E+00
  1.60000000E+01  1.00800000E+00  1.00800000E+00  1.60000000E+01  1.00800000E+00
  1.00800000E+00  1.60000000E+01  1.00800000E+00  1.00800000E+00  1.60000000E+01
  1.00800000E+00  1.00800000E+00  1.60000000E+01  1.00800000E+00  1.00800000E+00
  1.60000000E+01  1.00800000E+00  1.00800000E+00  1.60000000E+01  1.00800000E+00
  1.00800000E+00  1.60000000E+01  1.00800000E+00  1.00800000E+00  1.60000000E+01
  1.00800000E+00  1.00800000E+00  1.60000000E+01  1.00800000E+00  1.00800000E+00
  1.60000000E+01  1.00800000E+00  1.00800000E+00  1.60000000E+01  1.00800000E+00
  1.00800000E+00  1.60000000E+01  1.00800000E+00  1.00800000E+00  1.60000000E+01
  1.00800000E+00  1.00800000E+00  1.60000000E+01  1.00800000E+00  1.00800000E+00
  1.60000000E+01  1.00800000E+00  1.00800000E+00  1.60000000E+01  1.00800000E+00
  1.00800000E+00  1.60000000E+01  1.00800000E+00  1.00800000E+00  1.60000000E+01
  1.00800000E+00  1.00800000E+00  1.60000000E+01  1.00800000E+00  1.00800000E+00
  1.60000000E+01  1.00800000E+00  1.00800000E+00  1.60000000E+01  1.00800000E+00
  1.00800000E+00  1.60000000E+01  1.00800000E+00  1.00800000E+00  1.60000000E+01
  1.00800000E+00  1.00800000E+00  1.60000000E+01  1.00800000E+00  1.00800000E+00
  1.60000000E+01  1.00800000E+00  1.00800000E+00  1.60000000E+01  1.00800000E+00
  1.00800000E+00  1.60000000E+01  1.00800000E+00  1.00800000E+00  1.60000000E+01
  1.00800000E+00  1.00800000E+00  1.60000000E+01  1.00800000E+00  1.00800000E+00
  1.60000000E+01  1.00800000E+00  1.00800000E+00  1.60000000E+01  1.00800000E+00
  1.00800000E+00  1.60000000E+01  1.00800000E+00  1.00800000E+00  1.60000000E+01
  1.00800000E+00  1.00800000E+00  1.60000000E+01  1.00800000E+00  1.00800000E+00
  1.60000000E+01  1.00800000E+00  1.00800000E+00  1.60000000E+01  1.00800000E+00
  1.00800000E+00  1.60000000E+01  1.00800000E+00  1.00800000E+00  1.60000000E+01
  1.00800000E+00  1.00800000E+00  1.60000000E+01  1.00800000E+00  1.00800000E+00
  1.60000000E+01  1.00800000E+00  1.00800000E+00  1.60000000E+01  1.00800000E+00
  1.00800000E+00  1.60000000E+01  1.00800000E+00  1.00800000E+00  1.60000000E+01
  1.00800000E+00  1.00800000E+00  1.60000000E+01  1.00800000E+00  1.00800000E+00
  1.60000000E+01  1.00800000E+00  1.00800000E+00  1.60000000E+01  1.00800000E+00
  1.00800000E+00  1.60000000E+01  1.00800000E+00  1.00800000E+00  1.60000000E+01
  1.00800000E+00  1.00800000E+00  1.60000000E+01  1.00800000E+00  1.00800000E+00
  1.60000000E+01  1.00800000E+00  1.00800000E+00  1.60000000E+01  1.00800000E+00
  1.00800000E+00  1.60000000E+01  1.00800000E+00  1.00800000E+00  1.60000000E+01
  1.00800000E+00  1.00800000E+00  1.60000000E+01  1.00800000E+00  1.00800000E+00
  1.60000000E+01  1.00800000E+00  1.00800000E+00  1.60000000E+01  1.00800000E+00
  1.00800000E+00  1.60000000E+01  1.00800000E+00  1.00800000E+00  1.60000000E+01
  1.00800000E+00  1.00800000E+00  1.60000000E+01  1.00800000E+00  1.00800000E+00
  1.60000000E+01  1.00800000E+00  1.00800000E+00  1.60000000E+01  1.00800000E+00
  1.00800000E+00  1.60000000E+01  1.00800000E+00  1.00800000E+00  1.60000000E+01
  1.00800000E+00  1.00800000E+00  1.60000000E+01  1.00800000E+00  1.00800000E+00
  1.60000000E+01  1.00800000E+00  1.00800000E+00  1.60000000E+01  1.00800000E+00
  1.00800000E+00  1.60000000E+01  1.00800000E+00  1.00800000E+00  1.60000000E+01
  1.00800000E+00  1.00800000E+00  1.60000000E+01  1.00800000E+00  1.00800000E+00
  1.60000000E+01  1.00800000E+00  1.00800000E+00  1.60000000E+01  1.00800000E+00
  1.00800000E+00  1.60000000E+01  1.00800000E+00  1.00800000E+00  1.60000000E+01
  1.00800000E+00  1.00800000E+00  1.60000000E+01  1.00800000E+00  1.00800000E+00
  1.60000000E+01  1.00800000E+00  1.00800000E+00  1.60000000E+01  1.00800000E+00
  1.00800000E+00  1.60000000E+01  1.00800000E+00  1.00800000E+00  1.60000000E+01
  1.00800000E+00  1.00800000E+00  1.60000000E+01  1.00800000E+00  1.00800000E+00
  1.60000000E+01  1.00800000E+00  1.00800000E+00  1.60000000E+01  1.00800000E+00
  1.00800000E+00  1.60000000E+01  1.00800000E+00  1.00800000E+00  1.60000000E+01
  1.00800000E+00  1.00800000E+00  1.60000000E+01  1.00800000E+00  1.00800000E+00
  1.60000000E+01  1.00800000E+00  1.00800000E+00  1.60000000E+01  1.00800000E+00
  1.00800000E+00  1.60000000E+01  1.00800000E+00  1.00800000E+00  1.60000000E+01
  1.00800000E+00  1.00800000E+00  1.60000000E+01  1.00800000E+00  1.00800000E+00
  1.60000000E+01  1.00800000E+00  1.00800000E+00  1.60000000E+01  1.00800000E+00
  1.00800000E+00  1.60000000E+01  1.00800000E+00  1.00800000E+00  1.60000000E+01
  1.00800000E+00  1.00800000E+00  1.60000000E+01  1.00800000E+00  1.00800000E+00
  1.60000000E+01  1.00800000E+00  1.00800000E+00  1.60000000E+01  1.00800000E+00
  1.00800000E+00  1.60000000E+01  1.00800000E+00  1.00800000E+00  1.60000000E+01
  1.00800000E+00  1.00800000E+00  1.60000000E+01  1.00800000E+00  1.00800000E+00
  1.60000000E+01  1.00800000E+00  1.00800000E+00  1.60000000E+01  1.00800000E+00
  1.00800000E+00  1.60000000E+01  1.00800000E+00  1.00800000E+00  1.60000000E+01
  1.00800000E+00  1.00800000E+00  1.60000000E+01  1.00800000E+00  1.00800000E+00
  1.60000000E+01  1.00800000E+00  1.00800000E+00  1.60000000E+01  1.00800000E+00
  1.00800000E+00  1.60000000E+01  1.00800000E+00  1.00800000E+00  1.60000000E+01
  1.00800000E+00  1.00800000E+00  1.60000000E+01  1.00800000E+00  1.00800000E+00
  1.60000000E+01  1.00800000E+00  1.00800000E+00  1.60000000E+01  1.00800000E+00
  1.00800000E+00  1.60000000E+01  1.00800000E+00  1.00800000E+00  1.60000000E+01
  1.00800000E+00  1.00800000E+00  1.60000000E+01  1.00800000E+00  1.00800000E+00
  1.60000000E+01  1.00800000E+00  1.00800000E+00  1.60000000E+01  1.00800000E+00
  1.00800000E+00  1.60000000E+01  1.00800000E+00  1.00800000E+00  1.60000000E+01
  1.00800000E+00  1.00800000E+00  1.60000000E+01  1.00800000E+00  1.00800000E+00
  1.60000000E+01  1.00800000E+00  1.00800000E+00  1.60000000E+01  1.00800000E+00
  1.00800000E+00  1.60000000E+01  1.00800000E+00  1.00800000E+00  1.60000000E+01
  1.00800000E+00  1.00800000E+00  1.60000000E+01  1.00800000E+00  1.00800000E+00
  1.60000000E+01  1.00800000E+00  1.00800000E+00  1.60000000E+01  1.00800000E+00
  1.00800000E+00  1.60000000E+01  1.00800000E+00  1.00800000E+00  1.60000000E+01
  1.00800000E+00  1.00800000E+00  1.60000000E+01  1.00800000E+00  1.00800000E+00
  1.60000000E+01  1.00800000E+00  1.00800000E+00  1.60000000E+01  1.00800000E+00
  1.00800000E+00  1.60000000E+01  1.00800000E+00  1.00800000E+00  1.60000000E+01
  1.00800000E+00  1.00800000E+00  1.60000000E+01  1.00800000E+00  1.00800000E+00
  1.60000000E+01  1.00800000E+00  1.00800000E+00  1.60000000E+01  1.00800000E+00
  1.00800000E+00  1.60000000E+01  1.00800000E+00  1.00800000E+00  1.60000000E+01
  1.00800000E+00  1.00800000E+00  1.60000000E+01  1.00800000E+00  1.00800000E+00
  1.60000000E+01  1.00800000E+00  1.00800000E+00  1.60000000E+01  1.00800000E+00
  1.00800000E+00  1.60000000E+01  1.00800000E+00  1.00800000E+00  1.60000000E+01
  1.00800000E+00  1.00800000E+00  1.60000000E+01  1.00800000E+00  1.00800000E+00
  1.60000000E+01  1.00800000E+00  1.00800000E+00  1.60000000E+01  1.00800000E+00
  1.00800000E+00  1.60000000E+01  1.00800000E+00  1.00800000E+00  1.60000000E+01
  1.00800000E+00  1.00800000E+00  1.60000000E+01  1.00800000E+00  1.00800000E+00
  1.60000000E+01  1.00800000E+00  1.00800000E+00  1.60000000E+01  1.00800000E+00
  1.00800000E+00  1.60000000E+01  1.00800000E+00  1.00800000E+00  1.60000000E+01
  1.00800000E+00  1.00800000E+00  1.60000000E+01  1.00800000E+00  1.00800000E+00
  1.60000000E+01  1.00800000E+00  1.00800000E+00  1.60000000E+01  1.00800000E+00
  1.00800000E+00  1.60000000E+01  1.00800000E+00  1.00800000E+00  1.60000000E+01
  1.00800000E+00  1.00800000E+00  1.60000000E+01  1.00800000E+00  1.00800000E+00
  1.60000000E+01  1.00800000E+00  1.00800000E+00  1.60000000E+01  1.00800000E+00
  1.00800000E+00  1.60000000E+01  1.00800000E+00  1.00800000E+00  1.60000000E+01
  1.00800000E+00  1.00800000E+00  1.60000000E+01  1.00800000E+00  1.00800000E+00
  1.60000000E+01  1.00800000E+00  1.00800000E+00  1.60000000E+01  1.00800000E+00
  1.00800000E+00  1.60000000E+01  1.00800000E+00  1.00800000E+00  1.60000000E+01
  1.00800000E+00  1.00800000E+00  1.60000000E+01  1.00800000E+00  1.00800000E+00
  1.60000000E+01  1.00800000E+00  1.00800000E+00  1.60000000E+01  1.00800000E+00
  1.00800000E+00  1.60000000E+01  1.00800000E+00  1.00800000E+00  1.60000000E+01
  1.00800000E+00  1.00800000E+00  1.60000000E+01  1.00800000E+00  1.00800000E+00
  1.60000000E+01  1.00800000E+00  1.00800000E+00  1.60000000E+01  1.00800000E+00
  1.00800000E+00  1.60000000E+01  1.00800000E+00  1.00800000E+00  1.60000000E+01
  1.00800000E+00  1.00800000E+00  1.60000000E+01  1.00800000E+00  1.00800000E+00
  1.60000000E+01  1.00800000E+00  1.00800000E+00  1.60000000E+01  1.00800000E+00
  1.00800000E+00  1.60000000E+01  1.00800000E+00  1.00800000E+00  1.60000000E+01
  1.00800000E+00  1.00800000E+00  1.60000000E+01  1.00800000E+00  1.00800000E+00
  1.60000000E+01  1.00800000E+00  1.00800000E+00  1.60000000E+01  1.00800000E+00
  1.00800000E+00  1.60000000E+01  1.00800000E+00  1.00800000E+00  1.60000000E+01
  1.00800000E+00  1.00800000E+00  1.60000000E+01  1.00800000E+00  1.00800000E+00
  1.60000000E+01  1.00800000E+00  1.00800000E+00  1.60000000E+01  1.00800000E+00
  1.00800000E+00  1.60000000E+01  1.00800000E+00  1.00800000E+00  1.60000000E+01
  1.00800000E+00  1.00800000E+00  1.60000000E+01  1.00800000E+00  1.00800000E+00
  1.60000000E+01  1.00800000E+00  1.00800000E+00  1.60000000E+01  1.00800000E+00
  1.00800000E+00  1.60000000E+01  1.00800000E+00  1.00800000E+00  1.60000000E+01
  1.00800000E+00  1.00800000E+00  1.60000000E+01  1.00800000E+00  1.00800000E+00
  1.60000000E+01  1.00800000E+00  1.00800000E+00  1.60000000E+01  1.00800000E+00
  1.00800000E+00  1.60000000E+01  1.00800000E+00  1.00800000E+00  1.60000000E+01
  1.00800000E+00  1.00800000E+00  1.60000000E+01  1.00800000E+00  1.00800000E+00
  1.60000000E+01  1.00800000E+00  1.00800000E+00  1.60000000E+01  1.00800000E+00
  1.00800000E+00  1.60000000E+01  1.00800000E+00  1.00800000E+00  1.60000000E+01
  1.00800000E+00  1.00800000E+00  1.60000000E+01  1.00800000E+00  1.00800000E+00
  1.60000000E+01  1.00800000E+00  1.00800000E+00  1.60000000E+01  1.00800000E+00
  1.00800000E+00  1.60000000E+01  1.00800000E+00  1.00800000E+00  1.60000000E+01
  1.00800000E+00  1.00800000E+00  1.60000000E+01  1.00800000E+00  1.00800000E+00
  1.60000000E+01  1.00800000E+00  1.00800000E+00  1.60000000E+01  1.00800000E+00
  1.00800000E+00  1.60000000E+01  1.00800000E+00  1.00800000E+00  1.60000000E+01
  1.00800000E+00  1.00800000E+00  1.60000000E+01  1.00800000E+00  1.00800000E+00
  1.60000000E+01  1.00800000E+00  1.00800000E+00  1.60000000E+01  1.00800000E+00
  1.00800000E+00  1.60000000E+01  1.00800000E+00  1.00800000E+00  1.60000000E+01
  1.00800000E+00  1.00800000E+00  1.60000000E+01  1.00800000E+00  1.00800000E+00
  1.60000000E+01  1.00800000E+00  1.00800000E+00  1.60000000E+01  1.00800000E+00
  1.00800000E+00  1.60000000E+01  1.00800000E+00  1.00800000E+00  1.60000000E+01
  1.00800000E+00  1.00800000E+00  1.60000000E+01  1.00800000E+00  1.00800000E+00
  1.60000000E+01  1.00800000E+00  1.00800000E+00  1.60000000E+01  1.00800000E+00
  1.00800000E+00  1.60000000E+01  1.00800000E+00  1.00800000E+00  1.60000000E+01
  1.00800000E+00  1.00800000E+00  1.60000000E+01  1.00800000E+00  1.00800000E+00
  1.60000000E+01  1.00800000E+00  1.00800000E+00  1.60000000E+01  1.00800000E+00
  1.00800000E+00  1.60000000E+01  1.00800000E+00  1.00800000E+00  1.60000000E+01
  1.00800000E+00  1.00800000E+00  1.60000000E+01  1.00800000E+00  1.00800000E+00
  1.60000000E+01  1.00800000E+00  1.00800000E+00  1.60000000E+01  1.00800000E+00
  1.00800000E+00  1.60000000E+01  1.00800000E+00  1.00800000E+00  1.60000000E+01
  1.00800000E+00  1.00800000E+00  1.60000000E+01  1.00800000E+00  1.00800000E+00
  1.60000000E+01  1.00800000E+00  1.00800000E+00  1.60000000E+01  1.00800000E+00
  1.00800000E+00  1.60000000E+01  1.00800000E+00  1.00800000E+00  1.60000000E+01
  1.00800000E+00  1.00800000E+00  1.60000000E+01  1.00800000E+00  1.00800000E+00
  1.60000000E+01  1.00800000E+00  1.00800000E+00  1.60000000E+01  1.00800000E+00
  1.00800000E+00  1.60000000E+01  1.00800000E+00  1.00800000E+00  1.60000000E+01
  1.00800000E+00  1.00800000E+00  1.60000000E+01  1.00800000E+00  1.00800000E+00
  1.60000000E+01  1.00800000E+00  1.00800000E+00  1.60000000E+01  1.00800000E+00
  1.00800000E+00  1.60000000E+01  1.00800000E+00  1.00800000E+00  1.60000000E+01
  1.00800000E+00  1.00800000E+00  1.60000000E+01  1.00800000E+00  1.00800000E+00
  1.60000000E+01  1.00800000E+00  1.00800000E+00  1.60000000E+01  1.00800000E+00
  1.00800000E+00  1.60000000E+01  1.00800000E+00  1.00800000E+00  1.60000000E+01
  1.00800000E+00  1.00800000E+00  1.60000000E+01  1.00800000E+00  1.00800000E+00
  1.60000000E+01  1.00800000E+00  1.00800000E+00  1.60000000E+01  1.00800000E+00
  1.00800000E+00  1.60000000E+01  1.00800000E+00  1.00800000E+00  1.60000000E+01
  1.00800000E+00  1.00800000E+00  1.60000000E+01  1.00800000E+00  1.00800000E+00
  1.60000000E+01  1.00800000E+00  1.00800000E+00  1.60000000E+01  1.00800000E+00
  1.00800000E+00  1.60000000E+01  1.00800000E+00  1.00800000E+00  1.60000000E+01
  1.00800000E+00  1.00800000E+00  1.60000000E+01  1.00800000E+00  1.00800000E+00
  1.60000000E+01  1.00800000E+00  1.00800000E+00  1.60000000E+01  1.00800000E+00
  1.00800000E+00  1.60000000E+01  1.00800000E+00  1.00800000E+00  1.60000000E+01
  1.00800000E+00  1.00800000E+00  1.60000000E+01  1.00800000E+00  1.00800000E+00
  1.60000000E+01  1.00800000E+00  1.00800000E+00  1.60000000E+01  1.00800000E+00
  1.00800000E+00  1.60000000E+01  1.00800000E+00  1.00800000E+00  1.60000000E+01
  1.00800000E+00  1.00800000E+00  1.60000000E+01  1.00800000E+00  1.00800000E+00
  1.60000000E+01  1.00800000E+00  1.00800000E+00  1.60000000E+01  1.00800000E+00
  1.00800000E+00  1.60000000E+01  1.00800000E+00  1.00800000E+00  1.60000000E+01
  1.00800000E+00  1.00800000E+00  1.60000000E+01  1.00800000E+00  1.00800000E+00
  1.60000000E+01  1.00800000E+00  1.00800000E+00  1.60000000E+01  1.00800000E+00
  1.00800000E+00  1.60000000E+01  1.00800000E+00  1.00800000E+00  1.60000000E+01
  1.00800000E+00  1.00800000E+00  1.60000000E+01  1.00800000E+00  1.00800000E+00
  1.60000000E+01  1.00800000E+00  1.00800000E+00  1.60000000E+01  1.00800000E+00
  1.00800000E+00  1.60000000E+01  1.00800000E+00  1.00800000E+00  1.60000000E+01
  1.00800000E+00  1.00800000E+00  1.60000000E+01  1.00800000E+00  1.00800000E+00
  1.60000000E+01  1.00800000E+00  1.00800000E+00  1.60000000E+01  1.00800000E+00
  1.00800000E+00  1.60000000E+01  1.00800000E+00  1.00800000E+00  1.60000000E+01
  1.00800000E+00  1.00800000E+00  1.60000000E+01  1.00800000E+00  1.00800000E+00
  1.60000000E+01  1.00800000E+00  1.00800000E+00  1.60000000E+01  1.00800000E+00
  1.00800000E+00  1.60000000E+01  1.00800000E+00  1.00800000E+00  1.60000000E+01
  1.00800000E+00  1.00800000E+00  1.60000000E+01  1.00800000E+00  1.00800000E+00
  1.60000000E+01  1.00800000E+00  1.00800000E+00  1.60000000E+01  1.00800000E+00
  1.00800000E+00  1.60000000E+01  1.00800000E+00  1.00800000E+00  1.60000000E+01
  1.00800000E+00  1.00800000E+00  1.60000000E+01  1.00800000E+00  1.00800000E+00
  1.60000000E+01  1.00800000E+00  1.00800000E+00  1.60000000E+01  1.00800000E+00
  1.00800000E+00  1.60000000E+01  1.00800000E+00  1.00800000E+00  1.60000000E+01
  1.00800000E+00  1.00800000E+00  1.60000000E+01  1.00800000E+00  1.00800000E+00
  1.60000000E+01  1.00800000E+00  1.00800000E+00  1.60000000E+01  1.00800000E+00
  1.00800000E+00  1.60000000E+01  1.00800000E+00  1.00800000E+00  1.60000000E+01
  1.00800000E+00  1.00800000E+00  1.60000000E+01  1.00800000E+00  1.00800000E+00
  1.60000000E+01  1.00800000E+00  1.00800000E+00  1.60000000E+01  1.00800000E+00
  1.00800000E+00  1.60000000E+01  1.00800000E+00  1.00800000E+00  1.60000000E+01
  1.00800000E+00  1.00800000E+00  1.60000000E+01  1.00800000E+00  1.00800000E+00
  1.60000000E+01  1.00800000E+00  1.00800000E+00  1.60000000E+01  1.00800000E+00
  1.00800000E+00  1.60000000E+01  1.00800000E+00  1.00800000E+00  1.60000000E+01
  1.00800000E+00  1.00800000E+00  1.60000000E+01  1.00800000E+00  1.00800000E+00
  1.60000000E+01  1.00800000E+00  1.00800000E+00  1.60000000E+01  1.00800000E+00
  1.00800000E+00  1.60000000E+01  1.00800000E+00  1.00800000E+00  1.60000000E+01
  1.00800000E+00  1.00800000E+00  1.60000000E+01  1.00800000E+00  1.00800000E+00
  1.60000000E+01  1.00800000E+00  1.00800000E+00  1.60000000E+01  1.00800000E+00
  1.00800000E+00  1.60000000E+01  1.00800000E+00  1.00800000E+00  1.60000000E+01
  1.00800000E+00  1.00800000E+00  1.60000000E+01  1.00800000E+00  1.00800000E+00
  1.60000000E+01  1.00800000E+00  1.00800000E+00  1.60000000E+01  1.00800000E+00
  1.00800000E+00  1.60000000E+01  1.00800000E+00  1.00800000E+00  1.60000000E+01
  1.00800000E+00  1.00800000E+00  1.60000000E+01  1.00800000E+00  1.00800000E+00
  1.60000000E+01  1.00800000E+00  1.00800000E+00  1.60000000E+01  1.00800000E+00
  1.00800000E+00  1.60000000E+01  1.00800000E+00  1.00800000E+00  1.60000000E+01
  1.00800000E+00  1.00800000E+00  1.60000000E+01  1.00800000E+00  1.00800000E+00
  1.60000000E+01  1.00800000E+00  1.00800000E+00  1.60000000E+01  1.00800000E+00
  1.00800000E+00  1.60000000E+01  1.00800000E+00  1.00800000E+00  1.60000000E+01
  1.00800000E+00  1.00800000E+00  1.60000000E+01  1.00800000E+00  1.00800000E+00
  1.60000000E+01  1.00800000E+00  1.00800000E+00  1.60000000E+01  1.00800000E+00
  1.00800000E+00  1.60000000E+01  1.00800000E+00  1.00800000E+00  1.60000000E+01
  1.00800000E+00  1.00800000E+00  1.60000000E+01  1.00800000E+00  1.00800000E+00
  1.60000000E+01  1.00800000E+00  1.00800000E+00  1.60000000E+01  1.00800000E+00
  1.00800000E+00  1.60000000E+01  1.00800000E+00  1.00800000E+00  1.60000000E+01
  1.00800000E+00  1.00800000E+00  1.60000000E+01  1.00800000E+00  1.00800000E+00
  1.60000000E+01  1.00800000E+00  1.00800000E+00  1.60000000E+01  1.00800000E+00
  1.00800000E+00  1.60000000E+01  1.00800000E+00  1.00800000E+00  1.60000000E+01
  1.00800000E+00  1.00800000E+00  1.60000000E+01  1.00800000E+00  1.00800000E+00
  1.60000000E+01  1.00800000E+00  1.00800000E+00  1.60000000E+01  1.00800000E+00
  1.00800000E+00  1.60000000E+01  1.00800000E+00  1.00800000E+00  1.60000000E+01
  1.00800000E+00  1.00800000E+00  1.60000000E+01  1.00800000E+00  1.00800000E+00
  1.60000000E+01  1.00800000E+00  1.00800000E+00  1.60000000E+01  1.00800000E+00
  1.00800000E+00  1.60000000E+01  1.00800000E+00  1.00800000E+00  1.60000000E+01
  1.00800000E+00  1.00800000E+00  1.60000000E+01  1.00800000E+00  1.00800000E+00
  1.60000000E+01  1.00800000E+00  1.00800000E+00  1.60000000E+01  1.00800000E+00
  1.00800000E+00  1.60000000E+01  1.00800000E+00  1.00800000E+00  1.60000000E+01
  1.00800000E+00  1.00800000E+00  1.60000000E+01  1.00800000E+00  1.00800000E+00
  1.60000000E+01  1.00800000E+00  1.00800000E+00  1.60000000E+01  1.00800000E+00
  1.00800000E+00  1.60000000E+01  1.00800000E+00  1.00800000E+00  1.60000000E+01
  1.00800000E+00  1.00800000E+00  1.60000000E+01  1.00800000E+00  1.00800000E+00
  1.60000000E+01  1.00800000E+00  1.00800000E+00  1.60000000E+01  1.00800000E+00
  1.00800000E+00  1.60000000E+01  1.00800000E+00  1.00800000E+00  1.60000000E+01
  1.00800000E+00  1.00800000E+00  1.60000000E+01  1.00800000E+00  1.00800000E+00
  1.60000000E+01  1.00800000E+00  1.00800000E+00  1.60000000E+01  1.00800000E+00
  1.00800000E+00  1.60000000E+01  1.00800000E+00  1.00800000E+00  1.60000000E+01
  1.00800000E+00  1.00800000E+00  1.60000000E+01  1.00800000E+00  1.00800000E+00
  1.60000000E+01  1.00800000E+00  1.00800000E+00  1.60000000E+01  1.00800000E+00
  1.00800000E+00  1.60000000E+01  1.00800000E+00  1.00800000E+00  1.60000000E+01
  1.00800000E+00  1.00800000E+00  1.60000000E+01  1.00800000E+00  1.00800000E+00
  1.60000000E+01  1.00800000E+00  1.00800000E+00  1.60000000E+01  1.00800000E+00
  1.00800000E+00  1.60000000E+01  1.00800000E+00  1.00800000E+00  1.60000000E+01
  1.00800000E+00  1.00800000E+00  1.60000000E+01  1.00800000E+00  1.00800000E+00
  1.60000000E+01  1.00800000E+00  1.00800000E+00  1.60000000E+01  1.00800000E+00
  1.00800000E+00  1.60000000E+01  1.00800000E+00  1.00800000E+00  1.60000000E+01
  1.00800000E+00  1.00800000E+00  1.60000000E+01  1.00800000E+00  1.00800000E+00
  1.60000000E+01  1.00800000E+00  1.00800000E+00  1.60000000E+01  1.00800000E+00
  1.00800000E+00  1.60000000E+01  1.00800000E+00  1.00800000E+00  1.60000000E+01
  1.00800000E+00  1.00800000E+00  1.60000000E+01  1.00800000E+00  1.00800000E+00
  1.60000000E+01  1.00800000E+00  1.00800000E+00  1.60000000E+01  1.00800000E+00
  1.00800000E+00  1.60000000E+01  1.00800000E+00  1.00800000E+00  1.60000000E+01
  1.00800000E+00  1.00800000E+00  1.60000000E+01  1.00800000E+00  1.00800000E+00
  1.60000000E+01  1.00800000E+00  1.00800000E+00  1.60000000E+01  1.00800000E+00
  1.00800000E+00  1.60000000E+01  1.00800000E+00  1.00800000E+00  1.60000000E+01
  1.00800000E+00  1.00800000E+00  1.60000000E+01  1.00800000E+00  1.00800000E+00
  1.60000000E+01  1.00800000E+00  1.00800000E+00  1.60000000E+01  1.00800000E+00
  1.00800000E+00  1.60000000E+01  1.00800000E+00  1.00800000E+00  1.60000000E+01
  1.00800000E+00  1.00800000E+00  1.60000000E+01  1.00800000E+00  1.00800000E+00
  1.60000000E+01  1.00800000E+00  1.00800000E+00  1.60000000E+01  1.00800000E+00
  1.00800000E+00  1.60000000E+01  1.00800000E+00  1.00800000E+00  1.60000000E+01
  1.00800000E+00  1.00800000E+00  1.60000000E+01  1.00800000E+00  1.00800000E+00
  1.60000000E+01  1.00800000E+00  1.00800000E+00  1.60000000E+01  1.00800000E+00
  1.00800000E+00  1.60000000E+01  1.00800000E+00  1.00800000E+00  1.60000000E+01
  1.00800000E+00  1.00800000E+00  1.60000000E+01  1.00800000E+00  1.00800000E+00
  1.60000000E+01  1.00800000E+00  1.00800000E+00  1.60000000E+01  1.00800000E+00
  1.00800000E+00  1.60000000E+01  1.00800000E+00  1.00800000E+00  1.60000000E+01
  1.00800000E+00  1.00800000E+00  1.60000000E+01  1.00800000E+00  1.00800000E+00
  1.60000000E+01  1.00800000E+00  1.00800000E+00  1.60000000E+01  1.00800000E+00
  1.00800000E+00  1.60000000E+01  1.00800000E+00  1.00800000E+00  1.60000000E+01
  1.00800000E+00  1.00800000E+00  1.60000000E+01  1.00800000E+00  1.00800000E+00
  1.60000000E+01  1.00800000E+00  1.00800000E+00  1.60000000E+01  1.00800000E+00
  1.00800000E+00  1.60000000E+01  1.00800000E+00  1.00800000E+00  1.60000000E+01
  1.00800000E+00  1.00800000E+00  1.60000000E+01  1.00800000E+00  1.00800000E+00
  1.60000000E+01  1.00800000E+00  1.00800000E+00  1.60000000E+01  1.00800000E+00
  1.00800000E+00  1.60000000E+01  1.00800000E+00  1.00800000E+00  1.60000000E+01
  1.00800000E+00  1.00800000E+00  1.60000000E+01  1.00800000E+00  1.00800000E+00
  1.60000000E+01  1.00800000E+00  1.00800000E+00  1.60000000E+01  1.00800000E+00
  1.00800000E+00  1.60000000E+01  1.00800000E+00  1.00800000E+00  1.60000000E+01
  1.00800000E+00  1.00800000E+00  1.60000000E+01  1.00800000E+00  1.00800000E+00
  1.60000000E+01  1.00800000E+00  1.00800000E+00  1.60000000E+01  1.00800000E+00
  1.00800000E+00  1.60000000E+01  1.00800000E+00  1.00800000E+00  1.60000000E+01
  1.00800000E+00  1.00800000E+00  1.60000000E+01  1.00800000E+00  1.00800000E+00
  1.60000000E+01  1.00800000E+00  1.00800000E+00  1.60000000E+01  1.00800000E+00
  1.00800000E+00  1.60000000E+01  1.00800000E+00  1.00800000E+00  1.60000000E+01
  1.00800000E+00  1.00800000E+00  1.60000000E+01  1.00800000E+00  1.00800000E+00
  1.60000000E+01  1.00800000E+00  1.00800000E+00  1.60000000E+01  1.00800000E+00
  1.00800000E+00  1.60000000E+01  1.00800000E+00  1.00800000E+00  1.60000000E+01
  1.00800000E+00  1.00800000E+00  1.60000000E+01  1.00800000E+00  1.00800000E+00
  1.60000000E+01  1.00800000E+00  1.00800000E+00  1.60000000E+01  1.00800000E+00
  1.00800000E+00  1.60000000E+01  1.00800000E+00  1.00800000E+00  1.60000000E+01
  1.00800000E+00  1.00800000E+00  1.60000000E+01  1.00800000E+00  1.00800000E+00
  1.60000000E+01  1.00800000E+00  1.00800000E+00  1.60000000E+01  1.00800000E+00
  1.00800000E+00  1.60000000E+01  1.00800000E+00  1.00800000E+00  1.60000000E+01
  1.00800000E+00  1.00800000E+00  1.60000000E+01  1.00800000E+00  1.00800000E+00
  1.60000000E+01  1.00800000E+00  1.00800000E+00  1.60000000E+01  1.00800000E+00
  1.00800000E+00  1.60000000E+01  1.00800000E+00  1.00800000E+00  1.60000000E+01
  1.00800000E+00  1.00800000E+00  1.60000000E+01  1.00800000E+00  1.00800000E+00
  1.60000000E+01  1.00800000E+00  1.00800000E+00  1.60000000E+01  1.00800000E+00
  1.00800000E+00  1.60000000E+01  1.00800000E+00  1.00800000E+00  1.60000000E+01
  1.00800000E+00  1.00800000E+00  1.60000000E+01  1.00800000E+00  1.00800000E+00
  1.60000000E+01  1.00800000E+00  1.00800000E+00  1.60000000E+01  1.00800000E+00
  1.00800000E+00  1.60000000E+01  1.00800000E+00  1.00800000E+00  1.60000000E+01
  1.00800000E+00  1.00800000E+00  1.60000000E+01  1.00800000E+00  1.00800000E+00
  1.60000000E+01  1.00800000E+00  1.00800000E+00  1.60000000E+01  1.00800000E+00
  1.00800000E+00  1.60000000E+01  1.00800000E+00  1.00800000E+00  1.60000000E+01
  1.00800000E+00  1.00800000E+00  1.60000000E+01  1.00800000E+00  1.00800000E+00
  1.60000000E+01  1.00800000E+00  1.00800000E+00  1.60000000E+01  1.00800000E+00
  1.00800000E+00  1.60000000E+01  1.00800000E+00  1.00800000E+00  1.60000000E+01
  1.00800000E+00  1.00800000E+00  1.60000000E+01  1.00800000E+00  1.00800000E+00
  1.60000000E+01  1.00800000E+00  1.00800000E+00  1.60000000E+01  1.00800000E+00
  1.00800000E+00  1.60000000E+01  1.00800000E+00  1.00800000E+00  1.60000000E+01
  1.00800000E+00  1.00800000E+00  1.60000000E+01  1.00800000E+00  1.00800000E+00
  1.60000000E+01  1.00800000E+00  1.00800000E+00  1.60000000E+01  1.00800000E+00
  1.00800000E+00  1.60000000E+01  1.00800000E+00  1.00800000E+00  1.60000000E+01
  1.00800000E+00  1.00800000E+00  1.60000000E+01  1.00800000E+00  1.00800000E+00
  1.60000000E+01  1.00800000E+00  1.00800000E+00  1.60000000E+01  1.00800000E+00
  1.00800000E+00  1.60000000E+01  1.00800000E+00  1.00800000E+00  1.60000000E+01
  1.00800000E+00  1.00800000E+00  1.60000000E+01  1.00800000E+00  1.00800000E+00
  1.60000000E+01  1.00800000E+00  1.00800000E+00  1.60000000E+01  1.00800000E+00
  1.00800000E+00  1.60000000E+01  1.00800000E+00  1.00800000E+00  1.60000000E+01
  1.00800000E+00  1.00800000E+00  1.60000000E+01  1.00800000E+00  1.00800000E+00
  1.60000000E+01  1.00800000E+00  1.00800000E+00  1.60000000E+01  1.00800000E+00
  1.00800000E+00  1.60000000E+01  1.00800000E+00  1.00800000E+00  1.60000000E+01
  1.00800000E+00  1.00800000E+00  1.60000000E+01  1.00800000E+00  1.00800000E+00
  1.60000000E+01  1.00800000E+00  1.00800000E+00  1.60000000E+01  1.00800000E+00
  1.00800000E+00  1.60000000E+01  1.00800000E+00  1.00800000E+00  1.60000000E+01
  1.00800000E+00  1.00800000E+00  1.60000000E+01  1.00800000E+00  1.00800000E+00
  1.60000000E+01  1.00800000E+00  1.00800000E+00  1.60000000E+01  1.00800000E+00
  1.00800000E+00  1.60000000E+01  1.00800000E+00  1.00800000E+00  1.60000000E+01
  1.00800000E+00  1.00800000E+00  1.60000000E+01  1.00800000E+00  1.00800000E+00
  1.60000000E+01  1.00800000E+00  1.00800000E+00  1.60000000E+01  1.00800000E+00
  1.00800000E+00  1.60000000E+01  1.00800000E+00  1.00800000E+00  1.60000000E+01
  1.00800000E+00  1.00800000E+00  1.60000000E+01  1.00800000E+00  1.00800000E+00
  1.60000000E+01  1.00800000E+00  1.00800000E+00  1.60000000E+01  1.00800000E+00
  1.00800000E+00  1.60000000E+01  1.00800000E+00  1.00800000E+00  1.60000000E+01
  1.00800000E+00  1.00800000E+00  1.60000000E+01  1.00800000E+00  1.00800000E+00
  1.60000000E+01  1.00800000E+00  1.00800000E+00  1.60000000E+01  1.00800000E+00
  1.00800000E+00  1.60000000E+01  1.00800000E+00  1.00800000E+00  1.60000000E+01
  1.00800000E+00  1.00800000E+00  1.60000000E+01  1.00800000E+00  1.00800000E+00
  1.60000000E+01  1.00800000E+00  1.00800000E+00  1.60000000E+01  1.00800000E+00
  1.00800000E+00  1.60000000E+01  1.00800000E+00  1.00800000E+00  1.60000000E+01
  1.00800000E+00  1.00800000E+00  1.60000000E+01  1.00800000E+00  1.00800000E+00
  1.60000000E+01  1.00800000E+00  1.00800000E+00  1.60000000E+01  1.00800000E+00
  1.00800000E+00  1.60000000E+01  1.00800000E+00  1.00800000E+00  1.60000000E+01
  1.00800000E+00  1.00800000E+00  1.60000000E+01  1.00800000E+00  1.00800000E+00
  1.60000000E+01  1.00800000E+00  1.00800000E+00  1.60000000E+01  1.00800000E+00
  1.00800000E+00  1.60000000E+01  1.00800000E+00  1.00800000E+00  1.60000000E+01
  1.00800000E+00  1.00800000E+00  1.60000000E+01  1.00800000E+00  1.00800000E+00
  1.60000000E+01  1.00800000E+00  1.00800000E+00  1.60000000E+01  1.00800000E+00
  1.00800000E+00  1.60000000E+01  1.00800000E+00  1.00800000E+00  1.60000000E+01
  1.00800000E+00  1.00800000E+00  1.60000000E+01  1.00800000E+00  1.00800000E+00
  1.60000000E+01  1.00800000E+00  1.00800000E+00  1.60000000E+01  1.00800000E+00
  1.00800000E+00  1.60000000E+01  1.00800000E+00  1.00800000E+00  1.60000000E+01
  1.00800000E+00  1.00800000E+00  1.60000000E+01  1.00800000E+00  1.00800000E+00
  1.60000000E+01  1.00800000E+00  1.00800000E+00  1.60000000E+01  1.00800000E+00
  1.00800000E+00  1.60000000E+01  1.00800000E+00  1.00800000E+00  1.60000000E+01
  1.00800000E+00  1.00800000E+00  1.60000000E+01  1.00800000E+00  1.00800000E+00
  1.60000000E+01  1.00800000E+00  1.00800000E+00  1.60000000E+01  1.00800000E+00
  1.00800000E+00  1.60000000E+01  1.00800000E+00  1.00800000E+00  1.60000000E+01
  1.00800000E+00  1.00800000E+00  1.60000000E+01  1.00800000E+00  1.00800000E+00
  1.60000000E+01  1.00800000E+00  1.00800000E+00  1.60000000E+01  1.00800000E+00
  1.00800000E+00  1.60000000E+01  1.00800000E+00  1.00800000E+00  1.60000000E+01
  1.00800000E+00  1.00800000E+00  1.60000000E+01  1.00800000E+00  1.00800000E+00
  1.60000000E+01  1.00800000E+00  1.00800000E+00  1.60000000E+01  1.00800000E+00
  1.00800000E+00  1.60000000E+01  1.00800000E+00  1.00800000E+00  1.60000000E+01
  1.00800000E+00  1.00800000E+00  1.60000000E+01  1.00800000E+00  1.00800000E+00
  1.60000000E+01  1.00800000E+00  1.00800000E+00  1.60000000E+01  1.00800000E+00
  1.00800000E+00  1.60000000E+01  1.00800000E+00  1.00800000E+00  1.60000000E+01
  1.00800000E+00  1.00800000E+00  1.60000000E+01  1.00800000E+00  1.00800000E+00
  1.60000000E+01  1.00800000E+00  1.00800000E+00  1.60000000E+01  1.00800000E+00
  1.00800000E+00  1.60000000E+01  1.00800000E+00  1.00800000E+00  1.60000000E+01
  1.00800000E+00  1.00800000E+00  1.60000000E+01  1.00800000E+00  1.00800000E+00
  1.60000000E+01  1.00800000E+00  1.00800000E+00  1.60000000E+01  1.00800000E+00
  1.00800000E+00  1.60000000E+01  1.00800000E+00  1.00800000E+00  1.60000000E+01
  1.00800000E+00  1.00800000E+00  1.60000000E+01  1.00800000E+00  1.00800000E+00
  1.60000000E+01  1.00800000E+00  1.00800000E+00  1.60000000E+01  1.00800000E+00
  1.00800000E+00  1.60000000E+01  1.00800000E+00  1.00800000E+00  1.60000000E+01
  1.00800000E+00  1.00800000E+00  1.60000000E+01  1.00800000E+00  1.00800000E+00
  1.60000000E+01  1.00800000E+00  1.00800000E+00  1.60000000E+01  1.00800000E+00
  1.00800000E+00  1.60000000E+01  1.00800000E+00  1.00800000E+00  1.60000000E+01
  1.00800000E+00  1.00800000E+00  1.60000000E+01  1.00800000E+00  1.00800000E+00
  1.60000000E+01  1.00800000E+00  1.00800000E+00  1.60000000E+01  1.00800000E+00
  1.00800000E+00  1.60000000E+01  1.00800000E+00  1.00800000E+00  1.60000000E+01
  1.00800000E+00  1.00800000E+00  1.60000000E+01  1.00800000E+00  1.00800000E+00
  1.60000000E+01  1.00800000E+00  1.00800000E+00  1.60000000E+01  1.00800000E+00
  1.00800000E+00  1.60000000E+01  1.00800000E+00  1.00800000E+00  1.60000000E+01
  1.00800000E+00  1.00800000E+00  1.60000000E+01  1.00800000E+00  1.00800000E+00
  1.60000000E+01  1.00800000E+00  1.00800000E+00  1.60000000E+01  1.00800000E+00
  1.00800000E+00  1.60000000E+01  1.00800000E+00  1.00800000E+00  1.60000000E+01
  1.00800000E+00  1.00800000E+00  1.60000000E+01  1.00800000E+00  1.00800000E+00
  1.60000000E+01  1.00800000E+00  1.00800000E+00  1.60000000E+01  1.00800000E+00
  1.00800000E+00  1.60000000E+01  1.00800000E+00  1.00800000E+00  1.60000000E+01
  1.00800000E+00  1.00800000E+00  1.60000000E+01  1.00800000E+00  1.00800000E+00
  1.60000000E+01  1.00800000E+00  1.00800000E+00  1.60000000E+01  1.00800000E+00
  1.00800000E+00  1.60000000E+01  1.00800000E+00  1.00800000E+00  1.60000000E+01
  1.00800000E+00  1.00800000E+00  1.60000000E+01  1.00800000E+00  1.00800000E+00
  1.60000000E+01  1.00800000E+00  1.00800000E+00  1.60000000E+01  1.00800000E+00
  1.00800000E+00  1.60000000E+01  1.00800000E+00  1.00800000E+00  1.60000000E+01
  1.00800000E+00  1.00800000E+00  1.60000000E+01  1.00800000E+00  1.00800000E+00
  1.60000000E+01  1.00800000E+00  1.00800000E+00  1.60000000E+01  1.00800000E+00
  1.00800000E+00  1.60000000E+01  1.00800000E+00  1.00800000E+00  1.60000000E+01
  1.00800000E+00  1.00800000E+00  1.60000000E+01  1.00800000E+00  1.00800000E+00
  1.60000000E+01  1.00800000E+00  1.00800000E+00  1.60000000E+01  1.00800000E+00
  1.00800000E+00  1.60000000E+01  1.00800000E+00  1.00800000E+00  1.60000000E+01
  1.00800000E+00  1.00800000E+00  1.60000000E+01  1.00800000E+00  1.00800000E+00
  1.60000000E+01  1.00800000E+00  1.00800000E+00  1.60000000E+01  1.00800000E+00
  1.00800000E+00  1.60000000E+01  1.00800000E+00  1.00800000E+00  1.60000000E+01
  1.00800000E+00  1.00800000E+00  1.60000000E+01  1.00800000E+00  1.00800000E+00
  1.60000000E+01  1.00800000E+00  1.00800000E+00  1.60000000E+01  1.00800000E+00
  1.00800000E+00  1.60000000E+01  1.00800000E+00  1.00800000E+00  1.60000000E+01
  1.00800000E+00  1.00800000E+00  1.60000000E+01  1.00800000E+00  1.00800000E+00
  1.60000000E+01  1.00800000E+00  1.00800000E+00  1.60000000E+01  1.00800000E+00
  1.00800000E+00  1.60000000E+01  1.00800000E+00  1.00800000E+00  1.60000000E+01
  1.00800000E+00  1.00800000E+00  1.60000000E+01  1.00800000E+00  1.00800000E+00
  1.60000000E+01  1.00800000E+00  1.00800000E+00  1.60000000E+01  1.00800000E+00
  1.00800000E+00  1.60000000E+01  1.00800000E+00  1.00800000E+00  1.60000000E+01
  1.00800000E+00  1.00800000E+00  1.60000000E+01  1.00800000E+00  1.00800000E+00
  1.60000000E+01  1.00800000E+00  1.00800000E+00  1.60000000E+01  1.00800000E+00
  1.00800000E+00  1.60000000E+01  1.00800000E+00  1.00800000E+00  1.60000000E+01
  1.00800000E+00  1.00800000E+00  1.60000000E+01  1.00800000E+00  1.00800000E+00
  1.60000000E+01  1.00800000E+00  1.00800000E+00  1.60000000E+01  1.00800000E+00
  1.00800000E+00  1.60000000E+01  1.00800000E+00  1.00800000E+00  1.60000000E+01
  1.00800000E+00  1.00800000E+00  1.60000000E+01  1.00800000E+00  1.00800000E+00
  1.60000000E+01  1.00800000E+00  1.00800000E+00  1.60000000E+01  1.00800000E+00
  1.00800000E+00  1.60000000E+01  1.00800000E+00  1.00800000E+00  1.60000000E+01
  1.00800000E+00  1.00800000E+00  1.60000000E+01  1.00800000E+00  1.00800000E+00
  1.60000000E+01  1.00800000E+00  1.00800000E+00  1.60000000E+01  1.00800000E+00
  1.00800000E+00  1.60000000E+01  1.00800000E+00  1.00800000E+00  1.60000000E+01
  1.00800000E+00  1.00800000E+00  1.60000000E+01  1.00800000E+00  1.00800000E+00
  1.60000000E+01  1.00800000E+00  1.00800000E+00  1.60000000E+01  1.00800000E+00
  1.00800000E+00  1.60000000E+01  1.00800000E+00  1.00800000E+00  1.60000000E+01
  1.00800000E+00  1.00800000E+00  1.60000000E+01  1.00800000E+00  1.00800000E+00
  1.60000000E+01  1.00800000E+00  1.00800000E+00  1.60000000E+01  1.00800000E+00
  1.00800000E+00  1.60000000E+01  1.00800000E+00  1.00800000E+00  1.60000000E+01
  1.00800000E+00  1.00800000E+00  1.60000000E+01  1.00800000E+00  1.00800000E+00
  1.60000000E+01  1.00800000E+00  1.00800000E+00  1.60000000E+01  1.00800000E+00
  1.00800000E+00  1.60000000E+01  1.00800000E+00  1.00800000E+00  1.60000000E+01
  1.00800000E+00  1.00800000E+00  1.60000000E+01  1.00800000E+00  1.00800000E+00
  1.60000000E+01  1.00800000E+00  1.00800000E+00  1.60000000E+01  1.00800000E+00
  1.00800000E+00  1.60000000E+01  1.00800000E+00  1.00800000E+00  1.60000000E+01
  1.00800000E+00  1.00800000E+00  1.60000000E+01  1.00800000E+00  1.00800000E+00
  1.60000000E+01  1.00800000E+00  1.00800000E+00  1.60000000E+01  1.00800000E+00
  1.00800000E+00  1.60000000E+01  1.00800000E+00  1.00800000E+00  1.60000000E+01
  1.00800000E+00  1.00800000E+00  1.60000000E+01  1.00800000E+00  1.00800000E+00
  1.60000000E+01  1.00800000E+00  1.00800000E+00  1.60000000E+01  1.00800000E+00
  1.00800000E+00  1.60000000E+01  1.00800000E+00  1.00800000E+00  1.60000000E+01
  1.00800000E+00  1.00800000E+00  1.60000000E+01  1.00800000E+00  1.00800000E+00
  1.60000000E+01  1.00800000E+00  1.00800000E+00  1.60000000E+01  1.00800000E+00
  1.00800000E+00  1.60000000E+01  1.00800000E+00  1.00800000E+00  1.60000000E+01
  1.00800000E+00  1.00800000E+00  1.60000000E+01  1.00800000E+00  1.00800000E+00
  1.60000000E+01  1.00800000E+00  1.00800000E+00  1.60000000E+01  1.00800000E+00
  1.00800000E+00  1.60000000E+01  1.00800000E+00  1.00800000E+00  1.60000000E+01
  1.00800000E+00  1.00800000E+00  1.60000000E+01  1.00800000E+00  1.00800000E+00
  1.60000000E+01  1.00800000E+00  1.00800000E+00  1.60000000E+01  1.00800000E+00
  1.00800000E+00  1.60000000E+01  1.00800000E+00  1.00800000E+00  1.60000000E+01
  1.00800000E+00  1.00800000E+00  1.60000000E+01  1.00800000E+00  1.00800000E+00
  1.60000000E+01  1.00800000E+00  1.00800000E+00  1.60000000E+01  1.00800000E+00
  1.00800000E+00  1.60000000E+01  1.00800000E+00  1.00800000E+00  1.60000000E+01
  1.00800000E+00  1.00800000E+00  1.60000000E+01  1.00800000E+00  1.00800000E+00
  1.60000000E+01  1.00800000E+00  1.00800000E+00  1.60000000E+01  1.00800000E+00
  1.00800000E+00  1.60000000E+01  1.00800000E+00  1.00800000E+00  1.60000000E+01
  1.00800000E+00  1.00800000E+00  1.60000000E+01  1.00800000E+00  1.00800000E+00
  1.60000000E+01  1.00800000E+00  1.00800000E+00  1.60000000E+01  1.00800000E+00
  1.00800000E+00  1.60000000E+01  1.00800000E+00  1.00800000E+00  1.60000000E+01
  1.00800000E+00  1.00800000E+00  1.60000000E+01  1.00800000E+00  1.00800000E+00
  1.60000000E+01  1.00800000E+00  1.00800000E+00  1.60000000E+01  1.00800000E+00
  1.00800000E+00  1.60000000E+01  1.00800000E+00  1.00800000E+00  1.60000000E+01
  1.00800000E+00  1.00800000E+00  1.60000000E+01  1.00800000E+00  1.00800000E+00
  1.60000000E+01  1.00800000E+00  1.00800000E+00  1.60000000E+01  1.00800000E+00
  1.00800000E+00  1.60000000E+01  1.00800000E+00  1.00800000E+00  1.60000000E+01
  1.00800000E+00  1.00800000E+00  1.60000000E+01  1.00800000E+00  1.00800000E+00
  1.60000000E+01  1.00800000E+00  1.00800000E+00  1.60000000E+01  1.00800000E+00
  1.00800000E+00  1.60000000E+01  1.00800000E+00  1.00800000E+00  1.60000000E+01
  1.00800000E+00  1.00800000E+00  1.60000000E+01  1.00800000E+00  1.00800000E+00
  1.60000000E+01  1.00800000E+00  1.00800000E+00  1.60000000E+01  1.00800000E+00
  1.00800000E+00  1.60000000E+01  1.00800000E+00  1.00800000E+00  1.60000000E+01
  1.00800000E+00  1.00800000E+00  1.60000000E+01  1.00800000E+00  1.00800000E+00
  1.60000000E+01  1.00800000E+00  1.00800000E+00  1.60000000E+01  1.00800000E+00
  1.00800000E+00  1.60000000E+01  1.00800000E+00  1.00800000E+00  1.60000000E+01
  1.00800000E+00  1.00800000E+00  1.60000000E+01  1.00800000E+00  1.00800000E+00
  1.60000000E+01  1.00800000E+00  1.00800000E+00  1.60000000E+01  1.00800000E+00
  1.00800000E+00  1.60000000E+01  1.00800000E+00  1.00800000E+00  1.60000000E+01
  1.00800000E+00  1.00800000E+00  1.60000000E+01  1.00800000E+00  1.00800000E+00
  1.60000000E+01  1.00800000E+00  1.00800000E+00  1.60000000E+01  1.00800000E+00
  1.00800000E+00  1.60000000E+01  1.00800000E+00  1.00800000E+00  1.60000000E+01
  1.00800000E+00  1.00800000E+00  1.60000000E+01  1.00800000E+00  1.00800000E+00
  1.60000000E+01  1.00800000E+00  1.00800000E+00  1.60000000E+01  1.00800000E+00
  1.00800000E+00  1.60000000E+01  1.00800000E+00  1.00800000E+00  1.60000000E+01
  1.00800000E+00  1.00800000E+00  1.60000000E+01  1.00800000E+00  1.00800000E+00
  1.60000000E+01  1.00800000E+00  1.00800000E+00  1.60000000E+01  1.00800000E+00
  1.00800000E+00  1.60000000E+01  1.00800000E+00  1.00800000E+00  1.60000000E+01
  1.00800000E+00  1.00800000E+00  1.60000000E+01  1.00800000E+00  1.00800000E+00
  1.60000000E+01  1.00800000E+00  1.00800000E+00  1.60000000E+01  1.00800000E+00
  1.00800000E+00  1.60000000E+01  1.00800000E+00  1.00800000E+00  1.60000000E+01
  1.00800000E+00  1.00800000E+00  1.60000000E+01  1.00800000E+00  1.00800000E+00
  1.60000000E+01  1.00800000E+00  1.00800000E+00  1.60000000E+01  1.00800000E+00
  1.00800000E+00  1.60000000E+01  1.00800000E+00  1.00800000E+00  1.60000000E+01
  1.00800000E+00  1.00800000E+00  1.60000000E+01  1.00800000E+00  1.00800000E+00
  1.60000000E+01  1.00800000E+00  1.00800000E+00  1.60000000E+01  1.00800000E+00
  1.00800000E+00  1.60000000E+01  1.00800000E+00  1.00800000E+00  1.60000000E+01
  1.00800000E+00  1.00800000E+00  1.60000000E+01  1.00800000E+00  1.00800000E+00
  1.60000000E+01  1.00800000E+00  1.00800000E+00  1.60000000E+01  1.00800000E+00
  1.00800000E+00  1.60000000E+01  1.00800000E+00  1.00800000E+00  1.60000000E+01
  1.00800000E+00  1.00800000E+00  1.60000000E+01  1.00800000E+00  1.00800000E+00
  1.60000000E+01  1.00800000E+00  1.00800000E+00  1.60000000E+01  1.00800000E+00
  1.00800000E+00  1.60000000E+01  1.00800000E+00  1.00800000E+00  1.60000000E+01
  1.00800000E+00  1.00800000E+00  1.60000000E+01  1.00800000E+00  1.00800000E+00
  1.60000000E+01  1.00800000E+00  1.00800000E+00  1.60000000E+01  1.00800000E+00
  1.00800000E+00  1.60000000E+01  1.00800000E+00  1.00800000E+00  1.60000000E+01
  1.00800000E+00  1.00800000E+00  1.60000000E+01  1.00800000E+00  1.00800000E+00
  1.60000000E+01  1.00800000E+00  1.00800000E+00  1.60000000E+01  1.00800000E+00
  1.00800000E+00  1.60000000E+01  1.00800000E+00  1.00800000E+00  1.60000000E+01
  1.00800000E+00  1.00800000E+00  1.60000000E+01  1.00800000E+00  1.00800000E+00
  1.60000000E+01  1.00800000E+00  1.00800000E+00  1.60000000E+01  1.00800000E+00
  1.00800000E+00  1.60000000E+01  1.00800000E+00  1.00800000E+00  1.60000000E+01
  1.00800000E+00  1.00800000E+00  1.60000000E+01  1.00800000E+00  1.00800000E+00
  1.60000000E+01  1.00800000E+00  1.00800000E+00  1.60000000E+01  1.00800000E+00
  1.00800000E+00  1.60000000E+01  1.00800000E+00  1.00800000E+00  1.60000000E+01
  1.00800000E+00  1.00800000E+00  1.60000000E+01  1.00800000E+00  1.00800000E+00
  1.60000000E+01  1.00800000E+00  1.00800000E+00  1.60000000E+01  1.00800000E+00
  1.00800000E+00  1.60000000E+01  1.00800000E+00  1.00800000E+00  1.60000000E+01
  1.00800000E+00  1.00800000E+00  1.60000000E+01  1.00800000E+00  1.00800000E+00
  1.60000000E+01  1.00800000E+00  1.00800000E+00  1.60000000E+01  1.00800000E+00
  1.00800000E+00  1.60000000E+01  1.00800000E+00  1.00800000E+00  1.60000000E+01
  1.00800000E+00  1.00800000E+00  1.60000000E+01  1.00800000E+00  1.00800000E+00
  1.60000000E+01  1.00800000E+00  1.00800000E+00  1.60000000E+01  1.00800000E+00
  1.00800000E+00  1.60000000E+01  1.00800000E+00  1.00800000E+00  1.60000000E+01
  1.00800000E+00  1.00800000E+00  1.60000000E+01  1.00800000E+00  1.00800000E+00
  1.60000000E+01  1.00800000E+00  1.00800000E+00  1.60000000E+01  1.00800000E+00
  1.00800000E+00  1.60000000E+01  1.00800000E+00  1.00800000E+00  1.60000000E+01
  1.00800000E+00  1.00800000E+00  1.60000000E+01  1.00800000E+00  1.00800000E+00
  1.60000000E+01  1.00800000E+00  1.00800000E+00  1.60000000E+01  1.00800000E+00
  1.00800000E+00  1.60000000E+01  1.00800000E+00  1.00800000E+00  1.60000000E+01
  1.00800000E+00  1.00800000E+00  1.60000000E+01  1.00800000E+00  1.00800000E+00
  1.60000000E+01  1.00800000E+00  1.00800000E+00  1.60000000E+01  1.00800000E+00
  1.00800000E+00  1.60000000E+01  1.00800000E+00  1.00800000E+00  1.60000000E+01
  1.00800000E+00  1.00800000E+00  1.60000000E+01  1.00800000E+00  1.00800000E+00
  1.60000000E+01  1.00800000E+00  1.00800000E+00  1.60000000E+01  1.00800000E+00
  1.00800000E+00  1.60000000E+01  1.00800000E+00  1.00800000E+00  1.60000000E+01
  1.00800000E+00  1.00800000E+00  1.60000000E+01  1.00800000E+00  1.00800000E+00
  1.60000000E+01  1.00800000E+00  1.00800000E+00  1.60000000E+01  1.00800000E+00
  1.00800000E+00  1.60000000E+01  1.00800000E+00  1.00800000E+00  1.60000000E+01
  1.00800000E+00  1.00800000E+00  1.60000000E+01  1.00800000E+00  1.00800000E+00
  1.60000000E+01  1.00800000E+00  1.00800000E+00  1.60000000E+01  1.00800000E+00
  1.00800000E+00  1.60000000E+01  1.00800000E+00  1.00800000E+00  1.60000000E+01
  1.00800000E+00  1.00800000E+00  1.60000000E+01  1.00800000E+00  1.00800000E+00
  1.60000000E+01  1.00800000E+00  1.00800000E+00  1.60000000E+01  1.00800000E+00
  1.00800000E+00  1.60000000E+01  1.00800000E+00  1.00800000E+00  1.60000000E+01
  1.00800000E+00  1.00800000E+00  1.60000000E+01  1.00800000E+00  1.00800000E+00
  1.60000000E+01  1.00800000E+00  1.00800000E+00  1.60000000E+01  1.00800000E+00
  1.00800000E+00  1.60000000E+01  1.00800000E+00  1.00800000E+00  1.60000000E+01
  1.00800000E+00  1.00800000E+00  1.60000000E+01  1.00800000E+00  1.00800000E+00
  1.60000000E+01  1.00800000E+00  1.00800000E+00  1.60000000E+01  1.00800000E+00
  1.00800000E+00  1.60000000E+01  1.00800000E+00  1.00800000E+00  1.60000000E+01
  1.00800000E+00  1.00800000E+00  1.60000000E+01  1.00800000E+00  1.00800000E+00
  1.60000000E+01  1.00800000E+00  1.00800000E+00  1.60000000E+01  1.00800000E+00
  1.00800000E+00  1.60000000E+01  1.00800000E+00  1.00800000E+00  1.60000000E+01
  1.00800000E+00  1.00800000E+00  1.60000000E+01  1.00800000E+00  1.00800000E+00
  1.60000000E+01  1.00800000E+00  1.00800000E+00  1.60000000E+01  1.00800000E+00
  1.00800000E+00  1.60000000E+01  1.00800000E+00  1.00800000E+00  1.60000000E+01
  1.00800000E+00  1.00800000E+00  1.60000000E+01  1.00800000E+00  1.00800000E+00
  1.60000000E+01  1.00800000E+00  1.00800000E+00  1.60000000E+01  1.00800000E+00
  1.00800000E+00  1.60000000E+01  1.00800000E+00  1.00800000E+00  1.60000000E+01
  1.00800000E+00  1.00800000E+00  1.60000000E+01  1.00800000E+00  1.00800000E+00
  1.60000000E+01  1.00800000E+00  1.00800000E+00  1.60000000E+01  1.00800000E+00
  1.00800000E+00  1.60000000E+01  1.00800000E+00  1.00800000E+00  1.60000000E+01
  1.00800000E+00  1.00800000E+00  1.60000000E+01  1.00800000E+00  1.00800000E+00
  1.60000000E+01  1.00800000E+00  1.00800000E+00  1.60000000E+01  1.00800000E+00
  1.00800000E+00  1.60000000E+01  1.00800000E+00  1.00800000E+00  1.60000000E+01
  1.00800000E+00  1.00800000E+00  1.60000000E+01  1.00800000E+00  1.00800000E+00
  1.60000000E+01  1.00800000E+00  1.00800000E+00  1.60000000E+01  1.00800000E+00
  1.00800000E+00  1.60000000E+01  1.00800000E+00  1.00800000E+00  1.60000000E+01
  1.00800000E+00  1.00800000E+00  1.60000000E+01  1.00800000E+00  1.00800000E+00
  1.60000000E+01  1.00800000E+00  1.00800000E+00  1.60000000E+01  1.00800000E+00
  1.00800000E+00  1.60000000E+01  1.00800000E+00  1.00800000E+00  1.60000000E+01
  1.00800000E+00  1.00800000E+00  1.60000000E+01  1.00800000E+00  1.00800000E+00
  1.60000000E+01  1.00800000E+00  1.00800000E+00  1.60000000E+01  1.00800000E+00
  1.00800000E+00  1.60000000E+01  1.00800000E+00  1.00800000E+00  1.60000000E+01
  1.00800000E+00  1.00800000E+00  1.60000000E+01  1.00800000E+00  1.00800000E+00
  1.60000000E+01  1.00800000E+00  1.00800000E+00  1.60000000E+01  1.00800000E+00
  1.00800000E+00  1.60000000E+01  1.00800000E+00  1.00800000E+00  1.60000000E+01
  1.00800000E+00  1.00800000E+00  1.60000000E+01  1.00800000E+00  1.00800000E+00
  1.60000000E+01  1.00800000E+00  1.00800000E+00  1.60000000E+01  1.00800000E+00
  1.00800000E+00  1.60000000E+01  1.00800000E+00  1.00800000E+00  1.60000000E+01
  1.00800000E+00  1.00800000E+00  1.60000000E+01  1.00800000E+00  1.00800000E+00
  1.60000000E+01  1.00800000E+00  1.00800000E+00  1.60000000E+01  1.00800000E+00
  1.00800000E+00  1.60000000E+01  1.00800000E+00  1.00800000E+00  1.60000000E+01
  1.00800000E+00  1.00800000E+00  1.60000000E+01  1.00800000E+00  1.00800000E+00
  1.60000000E+01  1.00800000E+00  1.00800000E+00  1.60000000E+01  1.00800000E+00
  1.00800000E+00  1.60000000E+01  1.00800000E+00  1.00800000E+00  1.60000000E+01
  1.00800000E+00  1.00800000E+00  1.60000000E+01  1.00800000E+00  1.00800000E+00
  1.60000000E+01  1.00800000E+00  1.00800000E+00  1.60000000E+01  1.00800000E+00
  1.00800000E+00  1.60000000E+01  1.00800000E+00  1.00800000E+00  1.60000000E+01
  1.00800000E+00  1.00800000E+00  1.60000000E+01  1.00800000E+00  1.00800000E+00
  1.60000000E+01  1.00800000E+00  1.00800000E+00  1.60000000E+01  1.00800000E+00
  1.00800000E+00  1.60000000E+01  1.00800000E+00  1.00800000E+00  1.60000000E+01
  1.00800000E+00  1.00800000E+00  1.60000000E+01  1.00800000E+00  1.00800000E+00
  1.60000000E+01  1.00800000E+00  1.00800000E+00  1.60000000E+01  1.00800000E+00
  1.00800000E+00  1.60000000E+01  1.00800000E+00  1.00800000E+00  1.60000000E+01
  1.00800000E+00  1.00800000E+00  1.60000000E+01  1.00800000E+00  1.00800000E+00
  1.60000000E+01  1.00800000E+00  1.00800000E+00  1.60000000E+01  1.00800000E+00
  1.00800000E+00  1.60000000E+01  1.00800000E+00  1.00800000E+00  1.60000000E+01
  1.00800000E+00  1.00800000E+00  1.60000000E+01  1.00800000E+00  1.00800000E+00
  1.60000000E+01  1.00800000E+00  1.00800000E+00  1.60000000E+01  1.00800000E+00
  1.00800000E+00  1.60000000E+01  1.00800000E+00  1.00800000E+00  1.60000000E+01
  1.00800000E+00  1.00800000E+00  1.60000000E+01  1.00800000E+00  1.00800000E+00
  1.60000000E+01  1.00800000E+00  1.00800000E+00  1.60000000E+01  1.00800000E+00
  1.00800000E+00  1.60000000E+01  1.00800000E+00  1.00800000E+00  1.60000000E+01
  1.00800000E+00  1.00800000E+00  1.60000000E+01  1.00800000E+00  1.00800000E+00
  1.60000000E+01  1.00800000E+00  1.00800000E+00  1.60000000E+01  1.00800000E+00
  1.00800000E+00  1.60000000E+01  1.00800000E+00  1.00800000E+00  1.60000000E+01
  1.00800000E+00  1.00800000E+00  1.60000000E+01  1.00800000E+00  1.00800000E+00
  1.60000000E+01  1.00800000E+00  1.00800000E+00  1.60000000E+01  1.00800000E+00
  1.00800000E+00  1.60000000E+01  1.00800000E+00  1.00800000E+00  1.60000000E+01
  1.00800000E+00  1.00800000E+00  1.60000000E+01  1.00800000E+00  1.00800000E+00
  1.60000000E+01  1.00800000E+00  1.00800000E+00  1.60000000E+01  1.00800000E+00
  1.00800000E+00  1.60000000E+01  1.00800000E+00  1.00800000E+00  1.60000000E+01
  1.00800000E+00  1.00800000E+00  1.60000000E+01  1.00800000E+00  1.00800000E+00
  1.60000000E+01  1.00800000E+00  1.00800000E+00  1.60000000E+01  1.00800000E+00
  1.00800000E+00  1.60000000E+01  1.00800000E+00  1.00800000E+00  1.60000000E+01
  1.00800000E+00  1.00800000E+00  1.60000000E+01  1.00800000E+00  1.00800000E+00
  1.60000000E+01  1.00800000E+00  1.00800000E+00  1.60000000E+01  1.00800000E+00
  1.00800000E+00  1.60000000E+01  1.00800000E+00  1.00800000E+00  1.60000000E+01
  1.00800000E+00  1.00800000E+00  1.60000000E+01  1.00800000E+00  1.00800000E+00
  1.60000000E+01  1.00800000E+00  1.00800000E+00  1.60000000E+01  1.00800000E+00
  1.00800000E+00  1.60000000E+01  1.00800000E+00  1.00800000E+00  1.60000000E+01
  1.00800000E+00  1.00800000E+00  1.60000000E+01  1.00800000E+00  1.00800000E+00
  1.60000000E+01  1.00800000E+00  1.00800000E+00  1.60000000E+01  1.00800000E+00
  1.00800000E+00  1.60000000E+01  1.00800000E+00  1.00800000E+00  1.60000000E+01
  1.00800000E+00  1.00800000E+00  1.60000000E+01  1.00800000E+00  1.00800000E+00
  1.60000000E+01  1.00800000E+00  1.00800000E+00  1.60000000E+01  1.00800000E+00
  1.00800000E+00  1.60000000E+01  1.00800000E+00  1.00800000E+00  1.60000000E+01
  1.00800000E+00  1.00800000E+00  1.60000000E+01  1.00800000E+00  1.00800000E+00
  1.60000000E+01  1.00800000E+00  1.00800000E+00  1.60000000E+01  1.00800000E+00
  1.00800000E+00  1.60000000E+01  1.00800000E+00  1.00800000E+00  1.60000000E+01
  1.00800000E+00  1.00800000E+00  1.60000000E+01  1.00800000E+00  1.00800000E+00
  1.60000000E+01  1.00800000E+00  1.00800000E+00  1.60000000E+01  1.00800000E+00
  1.00800000E+00  1.60000000E+01  1.00800000E+00  1.00800000E+00  1.60000000E+01
  1.00800000E+00  1.00800000E+00  1.60000000E+01  1.00800000E+00  1.00800000E+00
  1.60000000E+01  1.00800000E+00  1.00800000E+00  1.60000000E+01  1.00800000E+00
  1.00800000E+00  1.60000000E+01  1.00800000E+00  1.00800000E+00  1.60000000E+01
  1.00800000E+00  1.00800000E+00  1.60000000E+01  1.00800000E+00  1.00800000E+00
  1.60000000E+01  1.00800000E+00  1.00800000E+00  1.60000000E+01  1.00800000E+00
  1.00800000E+00  1.60000000E+01  1.00800000E+00  1.00800000E+00  1.60000000E+01
  1.00800000E+00  1.00800000E+00  1.60000000E+01  1.00800000E+00  1.00800000E+00
  1.60000000E+01  1.00800000E+00  1.00800000E+00  1.60000000E+01  1.00800000E+00
  1.00800000E+00  1.60000000E+01  1.00800000E+00  1.00800000E+00  1.60000000E+01
  1.00800000E+00  1.00800000E+00  1.60000000E+01  1.00800000E+00  1.00800000E+00
  1.60000000E+01  1.00800000E+00  1.00800000E+00  1.60000000E+01  1.00800000E+00
  1.00800000E+00  1.60000000E+01  1.00800000E+00  1.00800000E+00  1.60000000E+01
  1.00800000E+00  1.00800000E+00  1.60000000E+01  1.00800000E+00  1.00800000E+00
  1.60000000E+01  1.00800000E+00  1.00800000E+00  1.60000000E+01  1.00800000E+00
  1.00800000E+00  1.60000000E+01  1.00800000E+00  1.00800000E+00  1.60000000E+01
  1.00800000E+00  1.00800000E+00  1.60000000E+01  1.00800000E+00  1.00800000E+00
  1.60000000E+01  1.00800000E+00  1.00800000E+00  1.60000000E+01  1.00800000E+00
  1.00800000E+00  1.60000000E+01  1.00800000E+00  1.00800000E+00  1.60000000E+01
  1.00800000E+00  1.00800000E+00  1.60000000E+01  1.00800000E+00  1.00800000E+00
  1.60000000E+01  1.00800000E+00  1.00800000E+00  1.60000000E+01  1.00800000E+00
  1.00800000E+00  1.60000000E+01  1.00800000E+00  1.00800000E+00  1.60000000E+01
  1.00800000E+00  1.00800000E+00  1.60000000E+01  1.00800000E+00  1.00800000E+00
  1.60000000E+01  1.00800000E+00  1.00800000E+00  1.60000000E+01  1.00800000E+00
  1.00800000E+00  1.60000000E+01  1.00800000E+00  1.00800000E+00  1.60000000E+01
  1.00800000E+00  1.00800000E+00  1.60000000E+01  1.00800000E+00  1.00800000E+00
  1.60000000E+01  1.00800000E+00  1.00800000E+00  1.60000000E+01  1.00800000E+00
  1.00800000E+00  1.60000000E+01  1.00800000E+00  1.00800000E+00  1.60000000E+01
  1.00800000E+00  1.00800000E+00  1.60000000E+01  1.00800000E+00  1.00800000E+00
  1.60000000E+01  1.00800000E+00  1.00800000E+00  1.60000000E+01  1.00800000E+00
  1.00800000E+00  1.60000000E+01  1.00800000E+00  1.00800000E+00  1.60000000E+01
  1.00800000E+00  1.00800000E+00  1.60000000E+01  1.00800000E+00  1.00800000E+00
  1.60000000E+01  1.00800000E+00  1.00800000E+00  1.60000000E+01  1.00800000E+00
  1.00800000E+00  1.60000000E+01  1.00800000E+00  1.00800000E+00  1.60000000E+01
  1.00800000E+00  1.00800000E+00  1.60000000E+01  1.00800000E+00  1.00800000E+00
  1.60000000E+01  1.00800000E+00  1.00800000E+00  1.60000000E+01  1.00800000E+00
  1.00800000E+00  1.60000000E+01  1.00800000E+00  1.00800000E+00  1.60000000E+01
  1.00800000E+00  1.00800000E+00  1.60000000E+01  1.00800000E+00  1.00800000E+00
  1.60000000E+01  1.00800000E+00  1.00800000E+00  1.60000000E+01  1.00800000E+00
  1.00800000E+00  1.60000000E+01  1.00800000E+00  1.00800000E+00  1.60000000E+01
  1.00800000E+00  1.00800000E+00  1.60000000E+01  1.00800000E+00  1.00800000E+00
  1.60000000E+01  1.00800000E+00  1.00800000E+00  1.60000000E+01  1.00800000E+00
  1.00800000E+00  1.60000000E+01  1.00800000E+00  1.00800000E+00  1.60000000E+01
  1.00800000E+00  1.00800000E+00  1.60000000E+01  1.00800000E+00  1.00800000E+00
  1.60000000E+01  1.00800000E+00  1.00800000E+00  1.60000000E+01  1.00800000E+00
  1.00800000E+00  1.60000000E+01  1.00800000E+00  1.00800000E+00  1.60000000E+01
  1.00800000E+00  1.00800000E+00  1.60000000E+01  1.00800000E+00  1.00800000E+00
  1.60000000E+01  1.00800000E+00  1.00800000E+00  1.60000000E+01  1.00800000E+00
  1.00800000E+00  1.60000000E+01  1.00800000E+00  1.00800000E+00  1.60000000E+01
  1.00800000E+00  1.00800000E+00  1.60000000E+01  1.00800000E+00  1.00800000E+00
  1.60000000E+01  1.00800000E+00  1.00800000E+00  1.60000000E+01  1.00800000E+00
  1.00800000E+00  1.60000000E+01  1.00800000E+00  1.00800000E+00  1.60000000E+01
  1.00800000E+00  1.00800000E+00  1.60000000E+01  1.00800000E+00  1.00800000E+00
  1.60000000E+01  1.00800000E+00  1.00800000E+00  1.60000000E+01  1.00800000E+00
  1.00800000E+00  1.60000000E+01  1.00800000E+00  1.00800000E+00  1.60000000E+01
  1.00800000E+00  1.00800000E+00  1.60000000E+01  1.00800000E+00  1.00800000E+00
  1.60000000E+01  1.00800000E+00  1.00800000E+00  1.60000000E+01  1.00800000E+00
  1.00800000E+00  1.60000000E+01  1.00800000E+00  1.00800000E+00  1.60000000E+01
  1.00800000E+00  1.00800000E+00  1.60000000E+01  1.00800000E+00  1.00800000E+00
  1.60000000E+01  1.00800000E+00  1.00800000E+00  1.60000000E+01  1.00800000E+00
  1.00800000E+00  1.60000000E+01  1.00800000E+00  1.00800000E+00  1.60000000E+01
  1.00800000E+00  1.00800000E+00  1.60000000E+01  1.00800000E+00  1.00800000E+00
  1.60000000E+01  1.00800000E+00  1.00800000E+00  1.60000000E+01  1.00800000E+00
  1.00800000E+00  1.60000000E+01  1.00800000E+00  1.00800000E+00  1.60000000E+01
  1.00800000E+00  1.00800000E+00  1.60000000E+01  1.00800000E+00  1.00800000E+00
  1.60000000E+01  1.00800000E+00  1.00800000E+00  1.60000000E+01  1.00800000E+00
  1.00800000E+00  1.60000000E+01  1.00800000E+00  1.00800000E+00  1.60000000E+01
  1.00800000E+00  1.00800000E+00  1.60000000E+01  1.00800000E+00  1.00800000E+00
  1.60000000E+01  1.00800000E+00  1.00800000E+00  1.60000000E+01  1.00800000E+00
  1.00800000E+00  1.60000000E+01  1.00800000E+00  1.00800000E+00  1.60000000E+01
  1.00800000E+00  1.00800000E+00  1.60000000E+01  1.00800000E+00  1.00800000E+00
  1.60000000E+01  1.00800000E+00  1.00800000E+00  1.60000000E+01  1.00800000E+00
  1.00800000E+00  1.60000000E+01  1.00800000E+00  1.00800000E+00  1.60000000E+01
  1.00800000E+00  1.00800000E+00  1.60000000E+01  1.00800000E+00  1.00800000E+00
  1.60000000E+01  1.00800000E+00  1.00800000E+00  1.60000000E+01  1.00800000E+00
  1.00800000E+00  1.60000000E+01  1.00800000E+00  1.00800000E+00  1.60000000E+01
  1.00800000E+00  1.00800000E+00  1.60000000E+01  1.00800000E+00  1.00800000E+00
  1.60000000E+01  1.00800000E+00  1.00800000E+00  1.60000000E+01  1.00800000E+00
  1.00800000E+00  1.60000000E+01  1.00800000E+00  1.00800000E+00  1.60000000E+01
  1.00800000E+00  1.00800000E+00  1.60000000E+01  1.00800000E+00  1.00800000E+00
  1.60000000E+01  1.00800000E+00  1.00800000E+00  1.60000000E+01  1.00800000E+00
  1.00800000E+00  1.60000000E+01  1.00800000E+00  1.00800000E+00  1.60000000E+01
  1.00800000E+00  1.00800000E+00  1.60000000E+01  1.00800000E+00  1.00800000E+00
  1.60000000E+01  1.00800000E+00  1.00800000E+00  1.60000000E+01  1.00800000E+00
  1.00800000E+00  1.60000000E+01  1.00800000E+00  1.00800000E+00  1.60000000E+01
  1.00800000E+00  1.00800000E+00  1.60000000E+01  1.00800000E+00  1.00800000E+00
  1.60000000E+01  1.00800000E+00  1.00800000E+00  1.60000000E+01  1.00800000E+00
  1.00800000E+00  1.60000000E+01  1.00800000E+00  1.00800000E+00  1.60000000E+01
  1.00800000E+00  1.00800000E+00  1.60000000E+01  1.00800000E+00  1.00800000E+00
  1.60000000E+01  1.00800000E+00  1.00800000E+00  1.60000000E+01  1.00800000E+00
  1.00800000E+00  1.60000000E+01  1.00800000E+00  1.00800000E+00  1.60000000E+01
  1.00800000E+00  1.00800000E+00  1.60000000E+01  1.00800000E+00  1.00800000E+00
  1.60000000E+01  1.00800000E+00  1.00800000E+00  1.60000000E+01  1.00800000E+00
  1.00800000E+00  1.60000000E+01  1.00800000E+00  1.00800000E+00  1.60000000E+01
  1.00800000E+00  1.00800000E+00  1.60000000E+01  1.00800000E+00  1.00800000E+00
  1.60000000E+01  1.00800000E+00  1.00800000E+00  1.60000000E+01  1.00800000E+00
  1.00800000E+00  1.60000000E+01  1.00800000E+00  1.00800000E+00  1.60000000E+01
  1.00800000E+00  1.00800000E+00  1.60000000E+01  1.00800000E+00  1.00800000E+00
  1.60000000E+01  1.00800000E+00  1.00800000E+00  1.60000000E+01  1.00800000E+00
  1.00800000E+00  1.60000000E+01  1.00800000E+00  1.00800000E+00  1.60000000E+01
  1.00800000E+00  1.00800000E+00  1.60000000E+01  1.00800000E+00  1.00800000E+00
  1.60000000E+01  1.00800000E+00  1.00800000E+00  1.60000000E+01  1.00800000E+00
  1.00800000E+00  1.60000000E+01  1.00800000E+00  1.00800000E+00  1.60000000E+01
  1.00800000E+00  1.00800000E+00  1.60000000E+01  1.00800000E+00  1.00800000E+00
  1.60000000E+01  1.00800000E+00  1.00800000E+00  1.60000000E+01  1.00800000E+00
  1.00800000E+00  1.60000000E+01  1.00800000E+00  1.00800000E+00  1.60000000E+01
  1.00800000E+00  1.00800000E+00  1.60000000E+01  1.00800000E+00  1.00800000E+00
  1.60000000E+01  1.00800000E+00  1.00800000E+00  1.60000000E+01  1.00800000E+00
  1.00800000E+00  1.60000000E+01  1.00800000E+00  1.00800000E+00  1.60000000E+01
  1.00800000E+00  1.00800000E+00  1.60000000E+01  1.00800000E+00  1.00800000E+00
  1.60000000E+01  1.00800000E+00  1.00800000E+00  1.60000000E+01  1.00800000E+00
  1.00800000E+00  1.60000000E+01  1.00800000E+00  1.00800000E+00  1.60000000E+01
  1.00800000E+00  1.00800000E+00  1.60000000E+01  1.00800000E+00  1.00800000E+00
  1.60000000E+01  1.00800000E+00  1.00800000E+00  1.60000000E+01  1.00800000E+00
  1.00800000E+00  1.60000000E+01  1.00800000E+00  1.00800000E+00  1.60000000E+01
  1.00800000E+00  1.00800000E+00  1.60000000E+01  1.00800000E+00  1.00800000E+00
  1.60000000E+01  1.00800000E+00  1.00800000E+00  1.60000000E+01  1.00800000E+00
  1.00800000E+00  1.60000000E+01  1.00800000E+00  1.00800000E+00  1.60000000E+01
  1.00800000E+00  1.00800000E+00  1.60000000E+01  1.00800000E+00  1.00800000E+00
  1.60000000E+01  1.00800000E+00  1.00800000E+00  1.60000000E+01  1.00800000E+00
  1.00800000E+00  1.60000000E+01  1.00800000E+00  1.00800000E+00  1.60000000E+01
  1.00800000E+00  1.00800000E+00  1.60000000E+01  1.00800000E+00  1.00800000E+00
  1.60000000E+01  1.00800000E+00  1.00800000E+00  1.60000000E+01  1.00800000E+00
  1.00800000E+00  1.60000000E+01  1.00800000E+00  1.00800000E+00  1.60000000E+01
  1.00800000E+00  1.00800000E+00  1.60000000E+01  1.00800000E+00  1.00800000E+00
  1.60000000E+01  1.00800000E+00  1.00800000E+00  1.60000000E+01  1.00800000E+00
  1.00800000E+00  1.60000000E+01  1.00800000E+00  1.00800000E+00  1.60000000E+01
  1.00800000E+00  1.00800000E+00  1.60000000E+01  1.00800000E+00  1.00800000E+00
  1.60000000E+01  1.00800000E+00  1.00800000E+00  1.60000000E+01  1.00800000E+00
  1.00800000E+00  1.60000000E+01  1.00800000E+00  1.00800000E+00  1.60000000E+01
  1.00800000E+00  1.00800000E+00  1.60000000E+01  1.00800000E+00  1.00800000E+00
  1.60000000E+01  1.00800000E+00  1.00800000E+00  1.60000000E+01  1.00800000E+00
  1.00800000E+00  1.60000000E+01  1.00800000E+00  1.00800000E+00  1.60000000E+01
  1.00800000E+00  1.00800000E+00  1.60000000E+01  1.00800000E+00  1.00800000E+00
  1.60000000E+01  1.00800000E+00  1.00800000E+00  1.60000000E+01  1.00800000E+00
  1.00800000E+00  1.60000000E+01  1.00800000E+00  1.00800000E+00  1.60000000E+01
  1.00800000E+00  1.00800000E+00  1.60000000E+01  1.00800000E+00  1.00800000E+00
  1.60000000E+01  1.00800000E+00  1.00800000E+00  1.60000000E+01  1.00800000E+00
  1.00800000E+00  1.60000000E+01  1.00800000E+00  1.00800000E+00  1.60000000E+01
  1.00800000E+00  1.00800000E+00  1.60000000E+01  1.00800000E+00  1.00800000E+00
  1.60000000E+01  1.00800000E+00  1.00800000E+00  1.60000000E+01  1.00800000E+00
  1.00800000E+00  1.60000000E+01  1.00800000E+00  1.00800000E+00  1.60000000E+01
  1.00800000E+00  1.00800000E+00  1.60000000E+01  1.00800000E+00  1.00800000E+00
  1.60000000E+01  1.00800000E+00  1.00800000E+00  1.60000000E+01  1.00800000E+00
  1.00800000E+00  1.60000000E+01  1.00800000E+00  1.00800000E+00  1.60000000E+01
  1.00800000E+00  1.00800000E+00  1.60000000E+01  1.00800000E+00  1.00800000E+00
  1.60000000E+01  1.00800000E+00  1.00800000E+00  1.60000000E+01  1.00800000E+00
  1.00800000E+00  1.60000000E+01  1.00800000E+00  1.00800000E+00  1.60000000E+01
  1.00800000E+00  1.00800000E+00  1.60000000E+01  1.00800000E+00  1.00800000E+00
  1.60000000E+01  1.00800000E+00  1.00800000E+00  1.60000000E+01  1.00800000E+00
  1.00800000E+00  1.60000000E+01  1.00800000E+00  1.00800000E+00  1.60000000E+01
  1.00800000E+00  1.00800000E+00  1.60000000E+01  1.00800000E+00  1.00800000E+00
  1.60000000E+01  1.00800000E+00  1.00800000E+00  1.60000000E+01  1.00800000E+00
  1.00800000E+00  1.60000000E+01  1.00800000E+00  1.00800000E+00  1.60000000E+01
  1.00800000E+00  1.00800000E+00  1.60000000E+01  1.00800000E+00  1.00800000E+00
  1.60000000E+01  1.00800000E+00  1.00800000E+00  1.60000000E+01  1.00800000E+00
  1.00800000E+00  1.60000000E+01  1.00800000E+00  1.00800000E+00  1.60000000E+01
  1.00800000E+00  1.00800000E+00  1.60000000E+01  1.00800000E+00  1.00800000E+00
  1.60000000E+01  1.00800000E+00  1.00800000E+00  1.60000000E+01  1.00800000E+00
  1.00800000E+00  1.60000000E+01  1.00800000E+00  1.00800000E+00  1.60000000E+01
  1.00800000E+00  1.00800000E+00  1.60000000E+01  1.00800000E+00  1.00800000E+00
  1.60000000E+01  1.00800000E+00  1.00800000E+00  1.60000000E+01  1.00800000E+00
  1.00800000E+00  1.60000000E+01  1.00800000E+00  1.00800000E+00  1.60000000E+01
  1.00800000E+00  1.00800000E+00  1.60000000E+01  1.00800000E+00  1.00800000E+00
  1.60000000E+01  1.00800000E+00  1.00800000E+00  1.60000000E+01  1.00800000E+00
  1.00800000E+00  1.60000000E+01  1.00800000E+00  1.00800000E+00  1.60000000E+01
  1.00800000E+00  1.00800000E+00  1.60000000E+01  1.00800000E+00  1.00800000E+00
  1.60000000E+01  1.00800000E+00  1.00800000E+00  1.60000000E+01  1.00800000E+00
  1.00800000E+00  1.60000000E+01  1.00800000E+00  1.00800000E+00  1.60000000E+01
  1.00800000E+00  1.00800000E+00  1.60000000E+01  1.00800000E+00  1.00800000E+00
  1.60000000E+01  1.00800000E+00  1.00800000E+00  1.60000000E+01  1.00800000E+00
  1.00800000E+00  1.60000000E+01  1.00800000E+00  1.00800000E+00  1.60000000E+01
  1.00800000E+00  1.00800000E+00  1.60000000E+01  1.00800000E+00  1.00800000E+00
  1.60000000E+01  1.00800000E+00  1.00800000E+00  1.60000000E+01  1.00800000E+00
  1.00800000E+00  1.60000000E+01  1.00800000E+00  1.00800000E+00  1.60000000E+01
  1.00800000E+00  1.00800000E+00  1.60000000E+01  1.00800000E+00  1.00800000E+00
  1.60000000E+01  1.00800000E+00  1.00800000E+00  1.60000000E+01  1.00800000E+00
  1.00800000E+00  1.60000000E+01  1.00800000E+00  1.00800000E+00  1.60000000E+01
  1.00800000E+00  1.00800000E+00  1.60000000E+01  1.00800000E+00  1.00800000E+00
  1.60000000E+01  1.00800000E+00  1.00800000E+00  1.60000000E+01  1.00800000E+00
  1.00800000E+00  1.60000000E+01  1.00800000E+00  1.00800000E+00  1.60000000E+01
  1.00800000E+00  1.00800000E+00  1.60000000E+01  1.00800000E+00  1.00800000E+00
  1.60000000E+01  1.00800000E+00  1.00800000E+00  1.60000000E+01  1.00800000E+00
  1.00800000E+00  1.60000000E+01  1.00800000E+00  1.00800000E+00  1.60000000E+01
  1.00800000E+00  1.00800000E+00  1.60000000E+01  1.00800000E+00  1.00800000E+00
  1.60000000E+01  1.00800000E+00  1.00800000E+00  1.60000000E+01  1.00800000E+00
  1.00800000E+00  1.60000000E+01  1.00800000E+00  1.00800000E+00  1.60000000E+01
  1.00800000E+00  1.00800000E+00  1.60000000E+01  1.00800000E+00  1.00800000E+00
  1.60000000E+01  1.00800000E+00  1.00800000E+00  1.60000000E+01  1.00800000E+00
  1.00800000E+00  1.60000000E+01  1.00800000E+00  1.00800000E+00  1.60000000E+01
  1.00800000E+00  1.00800000E+00  1.60000000E+01  1.00800000E+00  1.00800000E+00
  1.60000000E+01  1.00800000E+00  1.00800000E+00  1.60000000E+01  1.00800000E+00
  1.00800000E+00  1.60000000E+01  1.00800000E+00  1.00800000E+00  1.60000000E+01
  1.00800000E+00  1.00800000E+00  1.60000000E+01  1.00800000E+00  1.00800000E+00
  1.60000000E+01  1.00800000E+00  1.00800000E+00  1.60000000E+01  1.00800000E+00
  1.00800000E+00  1.60000000E+01  1.00800000E+00  1.00800000E+00  1.60000000E+01
  1.00800000E+00  1.00800000E+00  1.60000000E+01  1.00800000E+00  1.00800000E+00
  1.60000000E+01  1.00800000E+00  1.00800000E+00  1.60000000E+01  1.00800000E+00
  1.00800000E+00  1.60000000E+01  1.00800000E+00  1.00800000E+00  1.60000000E+01
  1.00800000E+00  1.00800000E+00  1.60000000E+01  1.00800000E+00  1.00800000E+00
  1.60000000E+01  1.00800000E+00  1.00800000E+00  1.60000000E+01  1.00800000E+00
  1.00800000E+00  1.60000000E+01  1.00800000E+00  1.00800000E+00  1.60000000E+01
  1.00800000E+00  1.00800000E+00  1.60000000E+01  1.00800000E+00  1.00800000E+00
  1.60000000E+01  1.00800000E+00  1.00800000E+00  1.60000000E+01  1.00800000E+00
  1.00800000E+00  1.60000000E+01  1.00800000E+00  1.00800000E+00  1.60000000E+01
  1.00800000E+00  1.00800000E+00  1.60000000E+01  1.00800000E+00  1.00800000E+00
  1.60000000E+01  1.00800000E+00  1.00800000E+00  1.60000000E+01  1.00800000E+00
  1.00800000E+00  1.60000000E+01  1.00800000E+00  1.00800000E+00  1.60000000E+01
  1.00800000E+00  1.00800000E+00  1.60000000E+01  1.00800000E+00  1.00800000E+00
  1.60000000E+01  1.00800000E+00  1.00800000E+00  1.60000000E+01  1.00800000E+00
  1.00800000E+00  1.60000000E+01  1.00800000E+00  1.00800000E+00  1.60000000E+01
  1.00800000E+00  1.00800000E+00  1.60000000E+01  1.00800000E+00  1.00800000E+00
  1.60000000E+01  1.00800000E+00  1.00800000E+00  1.60000000E+01  1.00800000E+00
  1.00800000E+00  1.60000000E+01  1.00800000E+00  1.00800000E+00  1.60000000E+01
  1.00800000E+00  1.00800000E+00  1.60000000E+01  1.00800000E+00  1.00800000E+00
  1.60000000E+01  1.00800000E+00  1.00800000E+00  1.60000000E+01  1.00800000E+00
  1.00800000E+00  1.60000000E+01  1.00800000E+00  1.00800000E+00  1.60000000E+01
  1.00800000E+00  1.00800000E+00  1.60000000E+01  1.00800000E+00  1.00800000E+00
  1.60000000E+01  1.00800000E+00  1.00800000E+00  1.60000000E+01  1.00800000E+00
  1.00800000E+00  1.60000000E+01  1.00800000E+00  1.00800000E+00  1.60000000E+01
  1.00800000E+00  1.00800000E+00  1.60000000E+01  1.00800000E+00  1.00800000E+00
  1.60000000E+01  1.00800000E+00  1.00800000E+00  1.60000000E+01  1.00800000E+00
  1.00800000E+00  1.60000000E+01  1.00800000E+00  1.00800000E+00  1.60000000E+01
  1.00800000E+00  1.00800000E+00  1.60000000E+01  1.00800000E+00  1.00800000E+00
  1.60000000E+01  1.00800000E+00  1.00800000E+00  1.60000000E+01  1.00800000E+00
  1.00800000E+00  1.60000000E+01  1.00800000E+00  1.00800000E+00  1.60000000E+01
  1.00800000E+00  1.00800000E+00  1.60000000E+01  1.00800000E+00  1.00800000E+00
  1.60000000E+01  1.00800000E+00  1.00800000E+00  1.60000000E+01  1.00800000E+00
  1.00800000E+00  1.60000000E+01  1.00800000E+00  1.00800000E+00  1.60000000E+01
  1.00800000E+00  1.00800000E+00  1.60000000E+01  1.00800000E+00  1.00800000E+00
  1.60000000E+01  1.00800000E+00  1.00800000E+00  1.60000000E+01  1.00800000E+00
  1.00800000E+00  1.60000000E+01  1.00800000E+00  1.00800000E+00  1.60000000E+01
  1.00800000E+00  1.00800000E+00  1.60000000E+01  1.00800000E+00  1.00800000E+00
  1.60000000E+01  1.00800000E+00  1.00800000E+00  1.60000000E+01  1.00800000E+00
  1.00800000E+00  1.60000000E+01  1.00800000E+00  1.00800000E+00  1.60000000E+01
  1.00800000E+00  1.00800000E+00  1.60000000E+01  1.00800000E+00  1.00800000E+00
  1.60000000E+01  1.00800000E+00  1.00800000E+00  1.60000000E+01  1.00800000E+00
  1.00800000E+00  1.60000000E+01  1.00800000E+00  1.00800000E+00  1.60000000E+01
  1.00800000E+00  1.00800000E+00  1.60000000E+01  1.00800000E+00  1.00800000E+00
  1.60000000E+01  1.00800000E+00  1.00800000E+00  1.60000000E+01  1.00800000E+00
  1.00800000E+00  1.60000000E+01  1.00800000E+00  1.00800000E+00  1.60000000E+01
  1.00800000E+00  1.00800000E+00  1.60000000E+01  1.00800000E+00  1.00800000E+00
  1.60000000E+01  1.00800000E+00  1.00800000E+00  1.60000000E+01  1.00800000E+00
  1.00800000E+00  1.60000000E+01  1.00800000E+00  1.00800000E+00  1.60000000E+01
  1.00800000E+00  1.00800000E+00  1.60000000E+01  1.00800000E+00  1.00800000E+00
  1.60000000E+01  1.00800000E+00  1.00800000E+00  1.60000000E+01  1.00800000E+00
  1.00800000E+00  1.60000000E+01  1.00800000E+00  1.00800000E+00  1.60000000E+01
  1.00800000E+00  1.00800000E+00  1.60000000E+01  1.00800000E+00  1.00800000E+00
  1.60000000E+01  1.00800000E+00  1.00800000E+00  1.60000000E+01  1.00800000E+00
  1.00800000E+00  1.60000000E+01  1.00800000E+00  1.00800000E+00  1.60000000E+01
  1.00800000E+00  1.00800000E+00  1.60000000E+01  1.00800000E+00  1.00800000E+00
  1.60000000E+01  1.00800000E+00  1.00800000E+00  1.60000000E+01  1.00800000E+00
  1.00800000E+00  1.60000000E+01  1.00800000E+00  1.00800000E+00  1.60000000E+01
  1.00800000E+00  1.00800000E+00  1.60000000E+01  1.00800000E+00  1.00800000E+00
  1.60000000E+01  1.00800000E+00  1.00800000E+00  1.60000000E+01  1.00800000E+00
  1.00800000E+00  1.60000000E+01  1.00800000E+00  1.00800000E+00  1.60000000E+01
  1.00800000E+00  1.00800000E+00  1.60000000E+01  1.00800000E+00  1.00800000E+00
  1.60000000E+01  1.00800000E+00  1.00800000E+00  1.60000000E+01  1.00800000E+00
  1.00800000E+00  1.60000000E+01  1.00800000E+00  1.00800000E+00  1.60000000E+01
  1.00800000E+00  1.00800000E+00  1.60000000E+01  1.00800000E+00  1.00800000E+00
  1.60000000E+01  1.00800000E+00  1.00800000E+00  1.60000000E+01  1.00800000E+00
  1.00800000E+00  1.60000000E+01  1.00800000E+00  1.00800000E+00  1.60000000E+01
  1.00800000E+00  1.00800000E+00  1.60000000E+01  1.00800000E+00  1.00800000E+00
  1.60000000E+01  1.00800000E+00  1.00800000E+00  1.60000000E+01  1.00800000E+00
  1.00800000E+00  1.60000000E+01  1.00800000E+00  1.00800000E+00  1.60000000E+01
  1.00800000E+00  1.00800000E+00  1.60000000E+01  1.00800000E+00  1.00800000E+00
  1.60000000E+01  1.00800000E+00  1.00800000E+00  1.60000000E+01  1.00800000E+00
  1.00800000E+00  1.60000000E+01  1.00800000E+00  1.00800000E+00  1.60000000E+01
  1.00800000E+00  1.00800000E+00  1.60000000E+01  1.00800000E+00  1.00800000E+00
  1.60000000E+01  1.00800000E+00  1.00800000E+00  1.60000000E+01  1.00800000E+00
  1.00800000E+00  1.60000000E+01  1.00800000E+00  1.00800000E+00  1.60000000E+01
  1.00800000E+00  1.00800000E+00  1.60000000E+01  1.00800000E+00  1.00800000E+00
  1.60000000E+01  1.00800000E+00  1.00800000E+00  1.60000000E+01  1.00800000E+00
  1.00800000E+00  1.60000000E+01  1.00800000E+00  1.00800000E+00  1.60000000E+01
  1.00800000E+00  1.00800000E+00  1.60000000E+01  1.00800000E+00  1.00800000E+00
  1.60000000E+01  1.00800000E+00  1.00800000E+00  1.60000000E+01  1.00800000E+00
  1.00800000E+00  1.60000000E+01  1.00800000E+00  1.00800000E+00  1.60000000E+01
  1.00800000E+00  1.00800000E+00  1.60000000E+01  1.00800000E+00  1.00800000E+00
  1.60000000E+01  1.00800000E+00  1.00800000E+00  1.60000000E+01  1.00800000E+00
  1.00800000E+00  1.60000000E+01  1.00800000E+00  1.00800000E+00  1.60000000E+01
  1.00800000E+00  1.00800000E+00  1.60000000E+01  1.00800000E+00  1.00800000E+00
  1.60000000E+01  1.00800000E+00  1.00800000E+00  1.60000000E+01  1.00800000E+00
  1.00800000E+00  1.60000000E+01  1.00800000E+00  1.00800000E+00  1.60000000E+01
  1.00800000E+00  1.00800000E+00  1.60000000E+01  1.00800000E+00  1.00800000E+00
  1.60000000E+01  1.00800000E+00  1.00800000E+00  1.60000000E+01  1.00800000E+00
  1.00800000E+00  1.60000000E+01  1.00800000E+00  1.00800000E+00  1.60000000E+01
  1.00800000E+00  1.00800000E+00  1.60000000E+01  1.00800000E+00  1.00800000E+00
  1.60000000E+01  1.00800000E+00  1.00800000E+00  1.60000000E+01  1.00800000E+00
  1.00800000E+00  1.60000000E+01  1.00800000E+00  1.00800000E+00  1.60000000E+01
  1.00800000E+00  1.00800000E+00  1.60000000E+01  1.00800000E+00  1.00800000E+00
  1.60000000E+01  1.00800000E+00  1.00800000E+00  1.60000000E+01  1.00800000E+00
  1.00800000E+00  1.60000000E+01  1.00800000E+00  1.00800000E+00  1.60000000E+01
  1.00800000E+00  1.00800000E+00  1.60000000E+01  1.00800000E+00  1.00800000E+00
  1.60000000E+01  1.00800000E+00  1.00800000E+00  1.60000000E+01  1.00800000E+00
  1.00800000E+00  1.60000000E+01  1.00800000E+00  1.00800000E+00  1.60000000E+01
  1.00800000E+00  1.00800000E+00  1.60000000E+01  1.00800000E+00  1.00800000E+00
  1.60000000E+01  1.00800000E+00  1.00800000E+00  1.60000000E+01  1.00800000E+00
  1.00800000E+00  1.60000000E+01  1.00800000E+00  1.00800000E+00  1.60000000E+01
  1.00800000E+00  1.00800000E+00  1.60000000E+01  1.00800000E+00  1.00800000E+00
  1.60000000E+01  1.00800000E+00  1.00800000E+00  1.60000000E+01  1.00800000E+00
  1.00800000E+00  1.60000000E+01  1.00800000E+00  1.00800000E+00  1.60000000E+01
  1.00800000E+00  1.00800000E+00  1.60000000E+01  1.00800000E+00  1.00800000E+00
  1.60000000E+01  1.00800000E+00  1.00800000E+00  1.60000000E+01  1.00800000E+00
  1.00800000E+00  1.60000000E+01  1.00800000E+00  1.00800000E+00  1.60000000E+01
  1.00800000E+00  1.00800000E+00  1.60000000E+01  1.00800000E+00  1.00800000E+00
  1.60000000E+01  1.00800000E+00  1.00800000E+00  1.60000000E+01  1.00800000E+00
  1.00800000E+00  1.60000000E+01  1.00800000E+00  1.00800000E+00  1.60000000E+01
  1.00800000E+00  1.00800000E+00  1.60000000E+01  1.00800000E+00  1.00800000E+00
  1.60000000E+01  1.00800000E+00  1.00800000E+00  1.60000000E+01  1.00800000E+00
  1.00800000E+00  1.60000000E+01  1.00800000E+00  1.00800000E+00  1.60000000E+01
  1.00800000E+00  1.00800000E+00  1.60000000E+01  1.00800000E+00  1.00800000E+00
  1.60000000E+01  1.00800000E+00  1.00800000E+00  1.60000000E+01  1.00800000E+00
  1.00800000E+00  1.60000000E+01  1.00800000E+00  1.00800000E+00  1.60000000E+01
  1.00800000E+00  1.00800000E+00  1.60000000E+01  1.00800000E+00  1.00800000E+00
  1.60000000E+01  1.00800000E+00  1.00800000E+00  1.60000000E+01  1.00800000E+00
  1.00800000E+00  1.60000000E+01  1.00800000E+00  1.00800000E+00  1.60000000E+01
  1.00800000E+00  1.00800000E+00  1.60000000E+01  1.00800000E+00  1.00800000E+00
  1.60000000E+01  1.00800000E+00  1.00800000E+00  1.60000000E+01  1.00800000E+00
  1.00800000E+00  1.60000000E+01  1.00800000E+00  1.00800000E+00  1.60000000E+01
  1.00800000E+00  1.00800000E+00  1.60000000E+01  1.00800000E+00  1.00800000E+00
  1.60000000E+01  1.00800000E+00  1.00800000E+00  1.60000000E+01  1.00800000E+00
  1.00800000E+00  1.60000000E+01  1.00800000E+00  1.00800000E+00  1.60000000E+01
  1.00800000E+00  1.00800000E+00  1.60000000E+01  1.00800000E+00  1.00800000E+00
  1.60000000E+01  1.00800000E+00  1.00800000E+00  1.60000000E+01  1.00800000E+00
  1.00800000E+00  1.60000000E+01  1.00800000E+00  1.00800000E+00  1.60000000E+01
  1.00800000E+00  1.00800000E+00  1.60000000E+01  1.00800000E+00  1.00800000E+00
  1.60000000E+01  1.00800000E+00  1.00800000E+00  1.60000000E+01  1.00800000E+00
  1.00800000E+00  1.60000000E+01  1.00800000E+00  1.00800000E+00  1.60000000E+01
  1.00800000E+00  1.00800000E+00  1.60000000E+01  1.00800000E+00  1.00800000E+00
  1.60000000E+01  1.00800000E+00  1.00800000E+00  1.60000000E+01  1.00800000E+00
  1.00800000E+00  1.60000000E+01  1.00800000E+00  1.00800000E+00  1.60000000E+01
  1.00800000E+00  1.00800000E+00  1.60000000E+01  1.00800000E+00  1.00800000E+00
  1.60000000E+01  1.00800000E+00  1.00800000E+00  1.60000000E+01  1.00800000E+00
  1.00800000E+00  1.60000000E+01  1.00800000E+00  1.00800000E+00  1.60000000E+01
  1.00800000E+00  1.00800000E+00  1.60000000E+01  1.00800000E+00  1.00800000E+00
  1.60000000E+01  1.00800000E+00  1.00800000E+00  1.60000000E+01  1.00800000E+00
  1.00800000E+00  1.60000000E+01  1.00800000E+00  1.00800000E+00  1.60000000E+01
  1.00800000E+00  1.00800000E+00  1.60000000E+01  1.00800000E+00  1.00800000E+00
  1.60000000E+01  1.00800000E+00  1.00800000E+00  1.60000000E+01  1.00800000E+00
  1.00800000E+00  1.60000000E+01  1.00800000E+00  1.00800000E+00  1.60000000E+01
  1.00800000E+00  1.00800000E+00  1.60000000E+01  1.00800000E+00  1.00800000E+00
  1.60000000E+01  1.00800000E+00  1.00800000E+00  1.60000000E+01  1.00800000E+00
  1.00800000E+00  1.60000000E+01  1.00800000E+00  1.00800000E+00  1.60000000E+01
  1.00800000E+00  1.00800000E+00  1.60000000E+01  1.00800000E+00  1.00800000E+00
  1.60000000E+01  1.00800000E+00  1.00800000E+00  1.60000000E+01  1.00800000E+00
  1.00800000E+00  1.60000000E+01  1.00800000E+00  1.00800000E+00  1.60000000E+01
  1.00800000E+00  1.00800000E+00  1.60000000E+01  1.00800000E+00  1.00800000E+00
  1.60000000E+01  1.00800000E+00  1.00800000E+00  1.60000000E+01  1.00800000E+00
  1.00800000E+00  1.60000000E+01  1.00800000E+00  1.00800000E+00  1.60000000E+01
  1.00800000E+00  1.00800000E+00  1.60000000E+01  1.00800000E+00  1.00800000E+00
  1.60000000E+01  1.00800000E+00  1.00800000E+00  1.60000000E+01  1.00800000E+00
  1.00800000E+00  1.60000000E+01  1.00800000E+00  1.00800000E+00  1.60000000E+01
  1.00800000E+00  1.00800000E+00  1.60000000E+01  1.00800000E+00  1.00800000E+00
  1.60000000E+01  1.00800000E+00  1.00800000E+00  1.60000000E+01  1.00800000E+00
  1.00800000E+00  1.60000000E+01  1.00800000E+00  1.00800000E+00  1.60000000E+01
  1.00800000E+00  1.00800000E+00  1.60000000E+01  1.00800000E+00  1.00800000E+00
  1.60000000E+01  1.00800000E+00  1.00800000E+00  1.60000000E+01  1.00800000E+00
  1.00800000E+00  1.60000000E+01  1.00800000E+00  1.00800000E+00  1.60000000E+01
  1.00800000E+00  1.00800000E+00  1.60000000E+01  1.00800000E+00  1.00800000E+00
  1.60000000E+01  1.00800000E+00  1.00800000E+00  1.60000000E+01  1.00800000E+00
  1.00800000E+00  1.60000000E+01  1.00800000E+00  1.00800000E+00  1.60000000E+01
  1.00800000E+00  1.00800000E+00  1.60000000E+01  1.00800000E+00  1.00800000E+00
  1.60000000E+01  1.00800000E+00  1.00800000E+00  1.60000000E+01  1.00800000E+00
  1.00800000E+00  1.60000000E+01  1.00800000E+00  1.00800000E+00  1.60000000E+01
  1.00800000E+00  1.00800000E+00  1.60000000E+01  1.00800000E+00  1.00800000E+00
  1.60000000E+01  1.00800000E+00  1.00800000E+00  1.60000000E+01  1.00800000E+00
  1.00800000E+00  1.60000000E+01  1.00800000E+00  1.00800000E+00  1.60000000E+01
  1.00800000E+00  1.00800000E+00  1.60000000E+01  1.00800000E+00  1.00800000E+00
  1.60000000E+01  1.00800000E+00  1.00800000E+00  1.60000000E+01  1.00800000E+00
  1.00800000E+00  1.60000000E+01  1.00800000E+00  1.00800000E+00  1.60000000E+01
  1.00800000E+00  1.00800000E+00  1.60000000E+01  1.00800000E+00  1.00800000E+00
  1.60000000E+01  1.00800000E+00  1.00800000E+00  1.60000000E+01  1.00800000E+00
  1.00800000E+00  1.60000000E+01  1.00800000E+00  1.00800000E+00  1.60000000E+01
  1.00800000E+00  1.00800000E+00  1.60000000E+01  1.00800000E+00  1.00800000E+00
  1.60000000E+01  1.00800000E+00  1.00800000E+00  1.60000000E+01  1.00800000E+00
  1.00800000E+00  1.60000000E+01  1.00800000E+00  1.00800000E+00  1.60000000E+01
  1.00800000E+00  1.00800000E+00  1.60000000E+01  1.00800000E+00  1.00800000E+00
  1.60000000E+01  1.00800000E+00  1.00800000E+00  1.60000000E+01  1.00800000E+00
  1.00800000E+00  1.60000000E+01  1.00800000E+00  1.00800000E+00  1.60000000E+01
  1.00800000E+00  1.00800000E+00  1.60000000E+01  1.00800000E+00  1.00800000E+00
  1.60000000E+01  1.00800000E+00  1.00800000E+00  1.60000000E+01  1.00800000E+00
  1.00800000E+00  1.60000000E+01  1.00800000E+00  1.00800000E+00  1.60000000E+01
  1.00800000E+00  1.00800000E+00  1.60000000E+01  1.00800000E+00  1.00800000E+00
  1.60000000E+01  1.00800000E+00  1.00800000E+00  1.60000000E+01  1.00800000E+00
  1.00800000E+00  1.60000000E+01  1.00800000E+00  1.00800000E+00  1.60000000E+01
  1.00800000E+00  1.00800000E+00  1.60000000E+01  1.00800000E+00  1.00800000E+00
  1.60000000E+01  1.00800000E+00  1.00800000E+00  1.60000000E+01  1.00800000E+00
  1.00800000E+00  1.60000000E+01  1.00800000E+00  1.00800000E+00  1.60000000E+01
  1.00800000E+00  1.00800000E+00  1.60000000E+01  1.00800000E+00  1.00800000E+00
  1.60000000E+01  1.00800000E+00  1.00800000E+00  1.60000000E+01  1.00800000E+00
  1.00800000E+00  1.60000000E+01  1.00800000E+00  1.00800000E+00  1.60000000E+01
  1.00800000E+00  1.00800000E+00  1.60000000E+01  1.00800000E+00  1.00800000E+00
  1.60000000E+01  1.00800000E+00  1.00800000E+00  1.60000000E+01  1.00800000E+00
  1.00800000E+00  1.60000000E+01  1.00800000E+00  1.00800000E+00  1.60000000E+01
  1.00800000E+00  1.00800000E+00  1.60000000E+01  1.00800000E+00  1.00800000E+00
  1.60000000E+01  1.00800000E+00  1.00800000E+00  1.60000000E+01  1.00800000E+00
  1.00800000E+00  1.60000000E+01  1.00800000E+00  1.00800000E+00  1.60000000E+01
  1.00800000E+00  1.00800000E+00  1.60000000E+01  1.00800000E+00  1.00800000E+00
  1.60000000E+01  1.00800000E+00  1.00800000E+00  1.60000000E+01  1.00800000E+00
  1.00800000E+00  1.60000000E+01  1.00800000E+00  1.00800000E+00  1.60000000E+01
  1.00800000E+00  1.00800000E+00  1.60000000E+01  1.00800000E+00  1.00800000E+00
  1.60000000E+01  1.00800000E+00  1.00800000E+00  1.60000000E+01  1.00800000E+00
  1.00800000E+00  1.60000000E+01  1.00800000E+00  1.00800000E+00  1.60000000E+01
  1.00800000E+00  1.00800000E+00  1.60000000E+01  1.00800000E+00  1.00800000E+00
  1.60000000E+01  1.00800000E+00  1.00800000E+00  1.60000000E+01  1.00800000E+00
  1.00800000E+00  1.60000000E+01  1.00800000E+00  1.00800000E+00  1.60000000E+01
  1.00800000E+00  1.00800000E+00  1.60000000E+01  1.00800000E+00  1.00800000E+00
  1.60000000E+01  1.00800000E+00  1.00800000E+00  1.60000000E+01  1.00800000E+00
  1.00800000E+00  1.60000000E+01  1.00800000E+00  1.00800000E+00  1.60000000E+01
  1.00800000E+00  1.00800000E+00  1.60000000E+01  1.00800000E+00  1.00800000E+00
  1.60000000E+01  1.00800000E+00  1.00800000E+00  1.60000000E+01  1.00800000E+00
  1.00800000E+00  1.60000000E+01  1.00800000E+00  1.00800000E+00  1.60000000E+01
  1.00800000E+00  1.00800000E+00  1.60000000E+01  1.00800000E+00  1.00800000E+00
  1.60000000E+01  1.00800000E+00  1.00800000E+00  1.60000000E+01  1.00800000E+00
  1.00800000E+00  1.60000000E+01  1.00800000E+00  1.00800000E+00  1.60000000E+01
  1.00800000E+00  1.00800000E+00  1.60000000E+01  1.00800000E+00  1.00800000E+00
  1.60000000E+01  1.00800000E+00  1.00800000E+00  1.60000000E+01  1.00800000E+00
  1.00800000E+00  1.60000000E+01  1.00800000E+00  1.00800000E+00  1.60000000E+01
  1.00800000E+00  1.00800000E+00  1.60000000E+01  1.00800000E+00  1.00800000E+00
  1.60000000E+01  1.00800000E+00  1.00800000E+00  1.60000000E+01  1.00800000E+00
  1.00800000E+00  1.60000000E+01  1.00800000E+00  1.00800000E+00  1.60000000E+01
  1.00800000E+00  1.00800000E+00  1.60000000E+01  1.00800000E+00  1.00800000E+00
  1.60000000E+01  1.00800000E+00  1.00800000E+00  1.60000000E+01  1.00800000E+00
  1.00800000E+00  1.60000000E+01  1.00800000E+00  1.00800000E+00  1.60000000E+01
  1.00800000E+00  1.00800000E+00  1.60000000E+01  1.00800000E+00  1.00800000E+00
  1.60000000E+01  1.00800000E+00  1.00800000E+00  1.60000000E+01  1.00800000E+00
  1.00800000E+00  1.60000000E+01  1.00800000E+00  1.00800000E+00  1.60000000E+01
  1.00800000E+00  1.00800000E+00  1.60000000E+01  1.00800000E+00  1.00800000E+00
  1.60000000E+01  1.00800000E+00  1.00800000E+00  1.60000000E+01  1.00800000E+00
  1.00800000E+00  1.60000000E+01  1.00800000E+00  1.00800000E+00  1.60000000E+01
  1.00800000E+00  1.00800000E+00  1.60000000E+01  1.00800000E+00  1.00800000E+00
  1.60000000E+01  1.00800000E+00  1.00800000E+00  1.60000000E+01  1.00800000E+00
  1.00800000E+00  1.60000000E+01  1.00800000E+00  1.00800000E+00  1.60000000E+01
  1.00800000E+00  1.00800000E+00  1.60000000E+01  1.00800000E+00  1.00800000E+00
  1.60000000E+01  1.00800000E+00  1.00800000E+00  1.60000000E+01  1.00800000E+00
  1.00800000E+00  1.60000000E+01  1.00800000E+00  1.00800000E+00  1.60000000E+01
  1.00800000E+00  1.00800000E+00  1.60000000E+01  1.00800000E+00  1.00800000E+00
  1.60000000E+01  1.00800000E+00  1.00800000E+00  1.60000000E+01  1.00800000E+00
  1.00800000E+00  1.60000000E+01  1.00800000E+00  1.00800000E+00  1.60000000E+01
  1.00800000E+00  1.00800000E+00  1.60000000E+01  1.00800000E+00  1.00800000E+00
  1.60000000E+01  1.00800000E+00  1.00800000E+00  1.60000000E+01  1.00800000E+00
  1.00800000E+00  1.60000000E+01  1.00800000E+00  1.00800000E+00  1.60000000E+01
  1.00800000E+00  1.00800000E+00  1.60000000E+01  1.00800000E+00  1.00800000E+00
  1.60000000E+01  1.00800000E+00  1.00800000E+00  1.60000000E+01  1.00800000E+00
  1.00800000E+00  1.60000000E+01  1.00800000E+00  1.00800000E+00  1.60000000E+01
  1.00800000E+00  1.00800000E+00  1.60000000E+01  1.00800000E+00  1.00800000E+00
  1.60000000E+01  1.00800000E+00  1.00800000E+00  1.60000000E+01  1.00800000E+00
  1.00800000E+00  1.60000000E+01  1.00800000E+00  1.00800000E+00  1.60000000E+01
  1.00800000E+00  1.00800000E+00  1.60000000E+01  1.00800000E+00  1.00800000E+00
  1.60000000E+01  1.00800000E+00  1.00800000E+00  1.60000000E+01  1.00800000E+00
  1.00800000E+00  1.60000000E+01  1.00800000E+00  1.00800000E+00  1.60000000E+01
  1.00800000E+00  1.00800000E+00  1.60000000E+01  1.00800000E+00  1.00800000E+00
  1.60000000E+01  1.00800000E+00  1.00800000E+00  1.60000000E+01  1.00800000E+00
  1.00800000E+00  1.60000000E+01  1.00800000E+00  1.00800000E+00  1.60000000E+01
  1.00800000E+00  1.00800000E+00  1.60000000E+01  1.00800000E+00  1.00800000E+00
  1.60000000E+01  1.00800000E+00  1.00800000E+00  1.60000000E+01  1.00800000E+00
  1.00800000E+00  1.60000000E+01  1.00800000E+00  1.00800000E+00  1.60000000E+01
  1.00800000E+00  1.00800000E+00  1.60000000E+01  1.00800000E+00  1.00800000E+00
  1.60000000E+01  1.00800000E+00  1.00800000E+00  1.60000000E+01  1.00800000E+00
  1.00800000E+00  1.60000000E+01  1.00800000E+00  1.00800000E+00  1.60000000E+01
  1.00800000E+00  1.00800000E+00  1.60000000E+01  1.00800000E+00  1.00800000E+00
  1.60000000E+01  1.00800000E+00  1.00800000E+00  1.60000000E+01  1.00800000E+00
  1.00800000E+00  1.60000000E+01  1.00800000E+00  1.00800000E+00  1.60000000E+01
  1.00800000E+00  1.00800000E+00  1.60000000E+01  1.00800000E+00  1.00800000E+00
  1.60000000E+01  1.00800000E+00  1.00800000E+00  1.60000000E+01  1.00800000E+00
  1.00800000E+00  1.60000000E+01  1.00800000E+00  1.00800000E+00  1.60000000E+01
  1.00800000E+00  1.00800000E+00  1.60000000E+01  1.00800000E+00  1.00800000E+00
  1.60000000E+01  1.00800000E+00  1.00800000E+00  1.60000000E+01  1.00800000E+00
  1.00800000E+00  1.60000000E+01  1.00800000E+00  1.00800000E+00  1.60000000E+01
  1.00800000E+00  1.00800000E+00  1.60000000E+01  1.00800000E+00  1.00800000E+00
  1.60000000E+01  1.00800000E+00  1.00800000E+00  1.60000000E+01  1.00800000E+00
  1.00800000E+00  1.60000000E+01  1.00800000E+00  1.00800000E+00  1.60000000E+01
  1.00800000E+00  1.00800000E+00  1.60000000E+01  1.00800000E+00  1.00800000E+00
  1.60000000E+01  1.00800000E+00  1.00800000E+00  1.60000000E+01  1.00800000E+00
  1.00800000E+00  1.60000000E+01  1.00800000E+00  1.00800000E+00  1.60000000E+01
  1.00800000E+00  1.00800000E+00  1.60000000E+01  1.00800000E+00  1.00800000E+00
  1.60000000E+01  1.00800000E+00  1.00800000E+00  1.60000000E+01  1.00800000E+00
  1.00800000E+00  1.60000000E+01  1.00800000E+00  1.00800000E+00  1.60000000E+01
  1.00800000E+00  1.00800000E+00  1.60000000E+01  1.00800000E+00  1.00800000E+00
  1.60000000E+01  1.00800000E+00  1.00800000E+00  1.60000000E+01  1.00800000E+00
  1.00800000E+00  1.60000000E+01  1.00800000E+00  1.00800000E+00  1.60000000E+01
  1.00800000E+00  1.00800000E+00  1.60000000E+01  1.00800000E+00  1.00800000E+00
  1.60000000E+01  1.00800000E+00  1.00800000E+00  1.60000000E+01  1.00800000E+00
  1.00800000E+00  1.60000000E+01  1.00800000E+00  1.00800000E+00  1.60000000E+01
  1.00800000E+00  1.00800000E+00  1.60000000E+01  1.00800000E+00  1.00800000E+00
  1.60000000E+01  1.00800000E+00  1.00800000E+00  1.60000000E+01  1.00800000E+00
  1.00800000E+00  1.60000000E+01  1.00800000E+00  1.00800000E+00  1.60000000E+01
  1.00800000E+00  1.00800000E+00  1.60000000E+01  1.00800000E+00  1.00800000E+00
  1.60000000E+01  1.00800000E+00  1.00800000E+00  1.60000000E+01  1.00800000E+00
  1.00800000E+00  1.60000000E+01  1.00800000E+00  1.00800000E+00  1.60000000E+01
  1.00800000E+00  1.00800000E+00  1.60000000E+01  1.00800000E+00  1.00800000E+00
  1.60000000E+01  1.00800000E+00  1.00800000E+00  1.60000000E+01  1.00800000E+00
  1.00800000E+00  1.60000000E+01  1.00800000E+00  1.00800000E+00  1.60000000E+01
  1.00800000E+00  1.00800000E+00  1.60000000E+01  1.00800000E+00  1.00800000E+00
  1.60000000E+01  1.00800000E+00  1.00800000E+00  1.60000000E+01  1.00800000E+00
  1.00800000E+00  1.60000000E+01  1.00800000E+00  1.00800000E+00  1.60000000E+01
  1.00800000E+00  1.00800000E+00  1.60000000E+01  1.00800000E+00  1.00800000E+00
  1.60000000E+01  1.00800000E+00  1.00800000E+00  1.60000000E+01  1.00800000E+00
  1.00800000E+00  1.60000000E+01  1.00800000E+00  1.00800000E+00  1.60000000E+01
  1.00800000E+00  1.00800000E+00  1.60000000E+01  1.00800000E+00  1.00800000E+00
  1.60000000E+01  1.00800000E+00  1.00800000E+00  1.60000000E+01  1.00800000E+00
  1.00800000E+00  1.60000000E+01  1.00800000E+00  1.00800000E+00  1.60000000E+01
  1.00800000E+00  1.00800000E+00  1.60000000E+01  1.00800000E+00  1.00800000E+00
  1.60000000E+01  1.00800000E+00  1.00800000E+00  1.60000000E+01  1.00800000E+00
  1.00800000E+00  1.60000000E+01  1.00800000E+00  1.00800000E+00  1.60000000E+01
  1.00800000E+00  1.00800000E+00  1.60000000E+01  1.00800000E+00  1.00800000E+00
  1.60000000E+01  1.00800000E+00  1.00800000E+00  1.60000000E+01  1.00800000E+00
  1.00800000E+00  1.60000000E+01  1.00800000E+00  1.00800000E+00  1.60000000E+01
  1.00800000E+00  1.00800000E+00  1.60000000E+01  1.00800000E+00  1.00800000E+00
  1.60000000E+01  1.00800000E+00  1.00800000E+00  1.60000000E+01  1.00800000E+00
  1.00800000E+00  1.60000000E+01  1.00800000E+00  1.00800000E+00  1.60000000E+01
  1.00800000E+00  1.00800000E+00  1.60000000E+01  1.00800000E+00  1.00800000E+00
  1.60000000E+01  1.00800000E+00  1.00800000E+00  1.60000000E+01  1.00800000E+00
  1.00800000E+00  1.60000000E+01  1.00800000E+00  1.00800000E+00  1.60000000E+01
  1.00800000E+00  1.00800000E+00  1.60000000E+01  1.00800000E+00  1.00800000E+00
  1.60000000E+01  1.00800000E+00  1.00800000E+00  1.60000000E+01  1.00800000E+00
  1.00800000E+00  1.60000000E+01  1.00800000E+00  1.00800000E+00  1.60000000E+01
  1.00800000E+00  1.00800000E+00  1.60000000E+01  1.00800000E+00  1.00800000E+00
  1.60000000E+01  1.00800000E+00  1.00800000E+00  1.60000000E+01  1.00800000E+00
  1.00800000E+00  1.60000000E+01  1.00800000E+00  1.00800000E+00  1.60000000E+01
  1.00800000E+00  1.00800000E+00  1.60000000E+01  1.00800000E+00  1.00800000E+00
  1.60000000E+01  1.00800000E+00  1.00800000E+00  1.60000000E+01  1.00800000E+00
  1.00800000E+00  1.60000000E+01  1.00800000E+00  1.00800000E+00  1.60000000E+01
  1.00800000E+00  1.00800000E+00  1.60000000E+01  1.00800000E+00  1.00800000E+00
  1.60000000E+01  1.00800000E+00  1.00800000E+00  1.60000000E+01  1.00800000E+00
  1.00800000E+00  1.60000000E+01  1.00800000E+00  1.00800000E+00  1.60000000E+01
  1.00800000E+00  1.00800000E+00  1.60000000E+01  1.00800000E+00  1.00800000E+00
  1.60000000E+01  1.00800000E+00  1.00800000E+00  1.60000000E+01  1.00800000E+00
  1.00800000E+00  1.60000000E+01  1.00800000E+00  1.00800000E+00  1.60000000E+01
  1.00800000E+00  1.00800000E+00  1.60000000E+01  1.00800000E+00  1.00800000E+00
  1.60000000E+01  1.00800000E+00  1.00800000E+00  1.60000000E+01  1.00800000E+00
  1.00800000E+00  1.60000000E+01  1.00800000E+00  1.00800000E+00  1.60000000E+01
  1.00800000E+00  1.00800000E+00  1.60000000E+01  1.00800000E+00  1.00800000E+00
  1.60000000E+01  1.00800000E+00  1.00800000E+00  1.60000000E+01  1.00800000E+00
  1.00800000E+00  1.60000000E+01  1.00800000E+00  1.00800000E+00  1.60000000E+01
  1.00800000E+00  1.00800000E+00  1.60000000E+01  1.00800000E+00  1.00800000E+00
  1.60000000E+01  1.00800000E+00  1.00800000E+00  1.60000000E+01  1.00800000E+00
  1.00800000E+00  1.60000000E+01  1.00800000E+00  1.00800000E+00  1.60000000E+01
  1.00800000E+00  1.00800000E+00  1.60000000E+01  1.00800000E+00  1.00800000E+00
  1.60000000E+01  1.00800000E+00  1.00800000E+00  1.60000000E+01  1.00800000E+00
  1.00800000E+00  1.60000000E+01  1.00800000E+00  1.00800000E+00  1.60000000E+01
  1.00800000E+00  1.00800000E+00  1.60000000E+01  1.00800000E+00  1.00800000E+00
  1.60000000E+01  1.00800000E+00  1.00800000E+00  1.60000000E+01  1.00800000E+00
  1.00800000E+00  1.60000000E+01  1.00800000E+00  1.00800000E+00  1.60000000E+01
  1.00800000E+00  1.00800000E+00  1.60000000E+01  1.00800000E+00  1.00800000E+00
  1.60000000E+01  1.00800000E+00  1.00800000E+00  1.60000000E+01  1.00800000E+00
  1.00800000E+00  1.60000000E+01  1.00800000E+00  1.00800000E+00  1.60000000E+01
  1.00800000E+00  1.00800000E+00  1.60000000E+01  1.00800000E+00  1.00800000E+00
  1.60000000E+01  1.00800000E+00  1.00800000E+00  1.60000000E+01  1.00800000E+00
  1.00800000E+00  1.60000000E+01  1.00800000E+00  1.00800000E+00  1.60000000E+01
  1.00800000E+00  1.00800000E+00  1.60000000E+01  1.00800000E+00  1.00800000E+00
  1.60000000E+01  1.00800000E+00  1.00800000E+00  1.60000000E+01  1.00800000E+00
  1.00800000E+00  1.60000000E+01  1.00800000E+00  1.00800000E+00  1.60000000E+01
  1.00800000E+00  1.00800000E+00  1.60000000E+01  1.00800000E+00  1.00800000E+00
  1.60000000E+01  1.00800000E+00  1.00800000E+00  1.60000000E+01  1.00800000E+00
  1.00800000E+00  1.60000000E+01  1.00800000E+00  1.00800000E+00  1.60000000E+01
  1.00800000E+00  1.00800000E+00  1.60000000E+01  1.00800000E+00  1.00800000E+00
  1.60000000E+01  1.00800000E+00  1.00800000E+00  1.60000000E+01  1.00800000E+00
  1.00800000E+00  1.60000000E+01  1.00800000E+00  1.00800000E+00  1.60000000E+01
  1.00800000E+00  1.00800000E+00  1.60000000E+01  1.00800000E+00  1.00800000E+00
  1.60000000E+01  1.00800000E+00  1.00800000E+00  1.60000000E+01  1.00800000E+00
  1.00800000E+00  1.60000000E+01  1.00800000E+00  1.00800000E+00  1.60000000E+01
  1.00800000E+00  1.00800000E+00  1.60000000E+01  1.00800000E+00  1.00800000E+00
  1.60000000E+01  1.00800000E+00  1.00800000E+00  1.60000000E+01  1.00800000E+00
  1.00800000E+00  1.60000000E+01  1.00800000E+00  1.00800000E+00  1.60000000E+01
  1.00800000E+00  1.00800000E+00  1.60000000E+01  1.00800000E+00  1.00800000E+00
  1.60000000E+01  1.00800000E+00  1.00800000E+00  1.60000000E+01  1.00800000E+00
  1.00800000E+00  1.60000000E+01  1.00800000E+00  1.00800000E+00  1.60000000E+01
  1.00800000E+00  1.00800000E+00  1.60000000E+01  1.00800000E+00  1.00800000E+00
  1.60000000E+01  1.00800000E+00  1.00800000E+00  1.60000000E+01  1.00800000E+00
  1.00800000E+00  1.60000000E+01  1.00800000E+00  1.00800000E+00  1.60000000E+01
  1.00800000E+00  1.00800000E+00  1.60000000E+01  1.00800000E+00  1.00800000E+00
  1.60000000E+01  1.00800000E+00  1.00800000E+00  1.60000000E+01  1.00800000E+00
  1.00800000E+00  1.60000000E+01  1.00800000E+00  1.00800000E+00  1.60000000E+01
  1.00800000E+00  1.00800000E+00  1.60000000E+01  1.00800000E+00  1.00800000E+00
  1.60000000E+01  1.00800000E+00  1.00800000E+00  1.60000000E+01  1.00800000E+00
  1.00800000E+00  1.60000000E+01  1.00800000E+00  1.00800000E+00  1.60000000E+01
  1.00800000E+00  1.00800000E+00  1.60000000E+01  1.00800000E+00  1.00800000E+00
  1.60000000E+01  1.00800000E+00  1.00800000E+00  1.60000000E+01  1.00800000E+00
  1.00800000E+00  1.60000000E+01  1.00800000E+00  1.00800000E+00  1.60000000E+01
  1.00800000E+00  1.00800000E+00  1.60000000E+01  1.00800000E+00  1.00800000E+00
  1.60000000E+01  1.00800000E+00  1.00800000E+00  1.60000000E+01  1.00800000E+00
  1.00800000E+00  1.60000000E+01  1.00800000E+00  1.00800000E+00  1.60000000E+01
  1.00800000E+00  1.00800000E+00  1.60000000E+01  1.00800000E+00  1.00800000E+00
  1.60000000E+01  1.00800000E+00  1.00800000E+00  1.60000000E+01  1.00800000E+00
  1.00800000E+00  1.60000000E+01  1.00800000E+00  1.00800000E+00  1.60000000E+01
  1.00800000E+00  1.00800000E+00  1.60000000E+01  1.00800000E+00  1.00800000E+00
  1.60000000E+01  1.00800000E+00  1.00800000E+00  1.60000000E+01  1.00800000E+00
  1.00800000E+00  1.60000000E+01  1.00800000E+00  1.00800000E+00  1.60000000E+01
  1.00800000E+00  1.00800000E+00  1.60000000E+01  1.00800000E+00  1.00800000E+00
  1.60000000E+01  1.00800000E+00  1.00800000E+00  1.60000000E+01  1.00800000E+00
  1.00800000E+00  1.60000000E+01  1.00800000E+00  1.00800000E+00  1.60000000E+01
  1.00800000E+00  1.00800000E+00  1.60000000E+01  1.00800000E+00  1.00800000E+00
  1.60000000E+01  1.00800000E+00  1.00800000E+00  1.60000000E+01  1.00800000E+00
  1.00800000E+00  1.60000000E+01  1.00800000E+00  1.00800000E+00  1.60000000E+01
  1.00800000E+00  1.00800000E+00  1.60000000E+01  1.00800000E+00  1.00800000E+00
  1.60000000E+01  1.00800000E+00  1.00800000E+00  1.60000000E+01  1.00800000E+00
  1.00800000E+00  1.60000000E+01  1.00800000E+00  1.00800000E+00  1.60000000E+01
  1.00800000E+00  1.00800000E+00  1.60000000E+01  1.00800000E+00  1.00800000E+00
  1.60000000E+01  1.00800000E+00  1.00800000E+00  1.60000000E+01  1.00800000E+00
  1.00800000E+00  1.60000000E+01  1.00800000E+00  1.00800000E+00  1.60000000E+01
  1.00800000E+00  1.00800000E+00  1.60000000E+01  1.00800000E+00  1.00800000E+00
  1.60000000E+01  1.00800000E+00  1.00800000E+00  1.60000000E+01  1.00800000E+00
  1.00800000E+00  1.60000000E+01  1.00800000E+00  1.00800000E+00  1.60000000E+01
  1.00800000E+00  1.00800000E+00  1.60000000E+01  1.00800000E+00  1.00800000E+00
  1.60000000E+01  1.00800000E+00  1.00800000E+00  1.60000000E+01  1.00800000E+00
  1.00800000E+00  1.60000000E+01  1.00800000E+00  1.00800000E+00  1.60000000E+01
  1.00800000E+00  1.00800000E+00  1.60000000E+01  1.00800000E+00  1.00800000E+00
  1.60000000E+01  1.00800000E+00  1.00800000E+00  1.60000000E+01  1.00800000E+00
  1.00800000E+00  1.60000000E+01  1.00800000E+00  1.00800000E+00  1.60000000E+01
  1.00800000E+00  1.00800000E+00  1.60000000E+01  1.00800000E+00  1.00800000E+00
  1.60000000E+01  1.00800000E+00  1.00800000E+00  1.60000000E+01  1.00800000E+00
  1.00800000E+00  1.60000000E+01  1.00800000E+00  1.00800000E+00  1.60000000E+01
  1.00800000E+00  1.00800000E+00  1.60000000E+01  1.00800000E+00  1.00800000E+00
  1.60000000E+01  1.00800000E+00  1.00800000E+00  1.60000000E+01  1.00800000E+00
  1.00800000E+00  1.60000000E+01  1.00800000E+00  1.00800000E+00  1.60000000E+01
  1.00800000E+00  1.00800000E+00  1.60000000E+01  1.00800000E+00  1.00800000E+00
  1.60000000E+01  1.00800000E+00  1.00800000E+00  1.60000000E+01  1.00800000E+00
  1.00800000E+00  1.60000000E+01  1.00800000E+00  1.00800000E+00  1.60000000E+01
  1.00800000E+00  1.00800000E+00  1.60000000E+01  1.00800000E+00  1.00800000E+00
  1.60000000E+01  1.00800000E+00  1.00800000E+00  1.60000000E+01  1.00800000E+00
  1.00800000E+00  1.60000000E+01  1.00800000E+00  1.00800000E+00  1.60000000E+01
  1.00800000E+00  1.00800000E+00  1.60000000E+01  1.00800000E+00  1.00800000E+00
  1.60000000E+01  1.00800000E+00  1.00800000E+00  1.60000000E+01  1.00800000E+00
  1.00800000E+00  1.60000000E+01  1.00800000E+00  1.00800000E+00  1.60000000E+01
  1.00800000E+00  1.00800000E+00  1.60000000E+01  1.00800000E+00  1.00800000E+00
  1.60000000E+01  1.00800000E+00  1.00800000E+00  1.60000000E+01  1.00800000E+00
  1.00800000E+00  1.60000000E+01  1.00800000E+00  1.00800000E+00  1.60000000E+01
  1.00800000E+00  1.00800000E+00  1.60000000E+01  1.00800000E+00  1.00800000E+00
  1.60000000E+01  1.00800000E+00  1.00800000E+00  1.60000000E+01  1.00800000E+00
  1.00800000E+00  1.60000000E+01  1.00800000E+00  1.00800000E+00  1.60000000E+01
  1.00800000E+00  1.00800000E+00  1.60000000E+01  1.00800000E+00  1.00800000E+00
  1.60000000E+01  1.00800000E+00  1.00800000E+00  1.60000000E+01  1.00800000E+00
  1.00800000E+00  1.60000000E+01  1.00800000E+00  1.00800000E+00  1.60000000E+01
  1.00800000E+00  1.00800000E+00  1.60000000E+01  1.00800000E+00  1.00800000E+00
  1.60000000E+01  1.00800000E+00  1.00800000E+00  1.60000000E+01  1.00800000E+00
  1.00800000E+00  1.60000000E+01  1.00800000E+00  1.00800000E+00  1.60000000E+01
  1.00800000E+00  1.00800000E+00  1.60000000E+01  1.00800000E+00  1.00800000E+00
  1.60000000E+01  1.00800000E+00  1.00800000E+00  1.60000000E+01  1.00800000E+00
  1.00800000E+00  1.60000000E+01  1.00800000E+00  1.00800000E+00  1.60000000E+01
  1.00800000E+00  1.00800000E+00  1.60000000E+01  1.00800000E+00  1.00800000E+00
  1.60000000E+01  1.00800000E+00  1.00800000E+00  1.60000000E+01  1.00800000E+00
  1.00800000E+00  1.60000000E+01  1.00800000E+00  1.00800000E+00  1.60000000E+01
  1.00800000E+00  1.00800000E+00  1.60000000E+01  1.00800000E+00  1.00800000E+00
  1.60000000E+01  1.00800000E+00  1.00800000E+00  1.60000000E+01  1.00800000E+00
  1.00800000E+00  1.60000000E+01  1.00800000E+00  1.00800000E+00  1.60000000E+01
  1.00800000E+00  1.00800000E+00  1.60000000E+01  1.00800000E+00  1.00800000E+00
  1.60000000E+01  1.00800000E+00  1.00800000E+00  1.60000000E+01  1.00800000E+00
  1.00800000E+00  1.60000000E+01  1.00800000E+00  1.00800000E+00  1.60000000E+01
  1.00800000E+00  1.00800000E+00  1.60000000E+01  1.00800000E+00  1.00800000E+00
  1.60000000E+01  1.00800000E+00  1.00800000E+00  1.60000000E+01  1.00800000E+00
  1.00800000E+00  1.60000000E+01  1.00800000E+00  1.00800000E+00  1.60000000E+01
  1.00800000E+00  1.00800000E+00  1.60000000E+01  1.00800000E+00  1.00800000E+00
  1.60000000E+01  1.00800000E+00  1.00800000E+00  1.60000000E+01  1.00800000E+00
  1.00800000E+00  1.60000000E+01  1.00800000E+00  1.00800000E+00  1.60000000E+01
  1.00800000E+00  1.00800000E+00  1.60000000E+01  1.00800000E+00  1.00800000E+00
  1.60000000E+01  1.00800000E+00  1.00800000E+00  1.60000000E+01  1.00800000E+00
  1.00800000E+00  1.60000000E+01  1.00800000E+00  1.00800000E+00  1.60000000E+01
  1.00800000E+00  1.00800000E+00  1.60000000E+01  1.00800000E+00  1.00800000E+00
  1.60000000E+01  1.00800000E+00  1.00800000E+00  1.60000000E+01  1.00800000E+00
  1.00800000E+00  1.60000000E+01  1.00800000E+00  1.00800000E+00  1.60000000E+01
  1.00800000E+00  1.00800000E+00  1.60000000E+01  1.00800000E+00  1.00800000E+00
  1.60000000E+01  1.00800000E+00  1.00800000E+00  1.60000000E+01  1.00800000E+00
  1.00800000E+00  1.60000000E+01  1.00800000E+00  1.00800000E+00  1.60000000E+01
  1.00800000E+00  1.00800000E+00  1.60000000E+01  1.00800000E+00  1.00800000E+00
  1.60000000E+01  1.00800000E+00  1.00800000E+00  1.60000000E+01  1.00800000E+00
  1.00800000E+00  1.60000000E+01  1.00800000E+00  1.00800000E+00  1.60000000E+01
  1.00800000E+00  1.00800000E+00  1.60000000E+01  1.00800000E+00  1.00800000E+00
  1.60000000E+01  1.00800000E+00  1.00800000E+00  1.60000000E+01  1.00800000E+00
  1.00800000E+00  1.60000000E+01  1.00800000E+00  1.00800000E+00  1.60000000E+01
  1.00800000E+00  1.00800000E+00  1.60000000E+01  1.00800000E+00  1.00800000E+00
  1.60000000E+01  1.00800000E+00  1.00800000E+00  1.60000000E+01  1.00800000E+00
  1.00800000E+00  1.60000000E+01  1.00800000E+00  1.00800000E+00  1.60000000E+01
  1.00800000E+00  1.00800000E+00  1.60000000E+01  1.00800000E+00  1.00800000E+00
  1.60000000E+01  1.00800000E+00  1.00800000E+00  1.60000000E+01  1.00800000E+00
  1.00800000E+00  1.60000000E+01  1.00800000E+00  1.00800000E+00  1.60000000E+01
  1.00800000E+00  1.00800000E+00  1.60000000E+01  1.00800000E+00  1.00800000E+00
  1.60000000E+01  1.00800000E+00  1.00800000E+00  1.60000000E+01  1.00800000E+00
  1.00800000E+00  1.60000000E+01  1.00800000E+00  1.00800000E+00  1.60000000E+01
  1.00800000E+00  1.00800000E+00  1.60000000E+01  1.00800000E+00  1.00800000E+00
  1.60000000E+01  1.00800000E+00  1.00800000E+00  1.60000000E+01  1.00800000E+00
  1.00800000E+00  1.60000000E+01  1.00800000E+00  1.00800000E+00  1.60000000E+01
  1.00800000E+00  1.00800000E+00  1.60000000E+01  1.00800000E+00  1.00800000E+00
  1.60000000E+01  1.00800000E+00  1.00800000E+00  1.60000000E+01  1.00800000E+00
  1.00800000E+00  1.60000000E+01  1.00800000E+00  1.00800000E+00  1.60000000E+01
  1.00800000E+00  1.00800000E+00  1.60000000E+01  1.00800000E+00  1.00800000E+00
  1.60000000E+01  1.00800000E+00  1.00800000E+00  1.60000000E+01  1.00800000E+00
  1.00800000E+00  1.60000000E+01  1.00800000E+00  1.00800000E+00  1.60000000E+01
  1.00800000E+00  1.00800000E+00  1.60000000E+01  1.00800000E+00  1.00800000E+00
  1.60000000E+01  1.00800000E+00  1.00800000E+00  1.60000000E+01  1.00800000E+00
  1.00800000E+00  1.60000000E+01  1.00800000E+00  1.00800000E+00  1.60000000E+01
  1.00800000E+00  1.00800000E+00  1.60000000E+01  1.00800000E+00  1.00800000E+00
  1.60000000E+01  1.00800000E+00  1.00800000E+00  1.60000000E+01  1.00800000E+00
  1.00800000E+00  1.60000000E+01  1.00800000E+00  1.00800000E+00  1.60000000E+01
  1.00800000E+00  1.00800000E+00  1.60000000E+01  1.00800000E+00  1.00800000E+00
  1.60000000E+01  1.00800000E+00  1.00800000E+00  1.60000000E+01  1.00800000E+00
  1.00800000E+00  1.60000000E+01  1.00800000E+00  1.00800000E+00  1.60000000E+01
  1.00800000E+00  1.00800000E+00  1.60000000E+01  1.00800000E+00  1.00800000E+00
  1.60000000E+01  1.00800000E+00  1.00800000E+00  1.60000000E+01  1.00800000E+00
  1.00800000E+00  1.60000000E+01  1.00800000E+00  1.00800000E+00  1.60000000E+01
  1.00800000E+00  1.00800000E+00  1.60000000E+01  1.00800000E+00  1.00800000E+00
  1.60000000E+01  1.00800000E+00  1.00800000E+00  1.60000000E+01  1.00800000E+00
  1.00800000E+00  1.60000000E+01  1.00800000E+00  1.00800000E+00  1.60000000E+01
  1.00800000E+00  1.00800000E+00  1.60000000E+01  1.00800000E+00  1.00800000E+00
  1.60000000E+01  1.00800000E+00  1.00800000E+00  1.60000000E+01  1.00800000E+00
  1.00800000E+00  1.60000000E+01  1.00800000E+00  1.00800000E+00  1.60000000E+01
  1.00800000E+00  1.00800000E+00  1.60000000E+01  1.00800000E+00  1.00800000E+00
  1.60000000E+01  1.00800000E+00  1.00800000E+00  1.60000000E+01  1.00800000E+00
  1.00800000E+00  1.60000000E+01  1.00800000E+00  1.00800000E+00  1.60000000E+01
  1.00800000E+00  1.00800000E+00  1.60000000E+01  1.00800000E+00  1.00800000E+00
  1.60000000E+01  1.00800000E+00  1.00800000E+00  1.60000000E+01  1.00800000E+00
  1.00800000E+00  1.60000000E+01  1.00800000E+00  1.00800000E+00  1.60000000E+01
  1.00800000E+00  1.00800000E+00  1.60000000E+01  1.00800000E+00  1.00800000E+00
  1.60000000E+01  1.00800000E+00  1.00800000E+00  1.60000000E+01  1.00800000E+00
  1.00800000E+00  1.60000000E+01  1.00800000E+00  1.00800000E+00  1.60000000E+01
  1.00800000E+00  1.00800000E+00  1.60000000E+01  1.00800000E+00  1.00800000E+00
  1.60000000E+01  1.00800000E+00  1.00800000E+00  1.60000000E+01  1.00800000E+00
  1.00800000E+00  1.60000000E+01  1.00800000E+00  1.00800000E+00  1.60000000E+01
  1.00800000E+00  1.00800000E+00  1.60000000E+01  1.00800000E+00  1.00800000E+00
  1.60000000E+01  1.00800000E+00  1.00800000E+00  1.60000000E+01  1.00800000E+00
  1.00800000E+00  1.60000000E+01  1.00800000E+00  1.00800000E+00  1.60000000E+01
  1.00800000E+00  1.00800000E+00  1.60000000E+01  1.00800000E+00  1.00800000E+00
  1.60000000E+01  1.00800000E+00  1.00800000E+00  1.60000000E+01  1.00800000E+00
  1.00800000E+00  1.60000000E+01  1.00800000E+00  1.00800000E+00  1.60000000E+01
  1.00800000E+00  1.00800000E+00  1.60000000E+01  1.00800000E+00  1.00800000E+00
  1.60000000E+01  1.00800000E+00  1.00800000E+00  1.60000000E+01  1.00800000E+00
  1.00800000E+00  1.60000000E+01  1.00800000E+00  1.00800000E+00  1.60000000E+01
  1.00800000E+00  1.00800000E+00  1.60000000E+01  1.00800000E+00  1.00800000E+00
  1.60000000E+01  1.00800000E+00  1.00800000E+00  1.60000000E+01  1.00800000E+00
  1.00800000E+00  1.60000000E+01  1.00800000E+00  1.00800000E+00  1.60000000E+01
  1.00800000E+00  1.00800000E+00  1.60000000E+01  1.00800000E+00  1.00800000E+00
  1.60000000E+01  1.00800000E+00  1.00800000E+00  1.60000000E+01  1.00800000E+00
  1.00800000E+00  1.60000000E+01  1.00800000E+00  1.00800000E+00  1.60000000E+01
  1.00800000E+00  1.00800000E+00  1.60000000E+01  1.00800000E+00  1.00800000E+00
  1.60000000E+01  1.00800000E+00  1.00800000E+00  1.60000000E+01  1.00800000E+00
  1.00800000E+00  1.60000000E+01  1.00800000E+00  1.00800000E+00  1.60000000E+01
  1.00800000E+00  1.00800000E+00  1.60000000E+01  1.00800000E+00  1.00800000E+00
  1.60000000E+01  1.00800000E+00  1.00800000E+00  1.60000000E+01  1.00800000E+00
  1.00800000E+00  1.60000000E+01  1.00800000E+00  1.00800000E+00  1.60000000E+01
  1.00800000E+00  1.00800000E+00  1.60000000E+01  1.00800000E+00  1.00800000E+00
  1.60000000E+01  1.00800000E+00  1.00800000E+00  1.60000000E+01  1.00800000E+00
  1.00800000E+00  1.60000000E+01  1.00800000E+00  1.00800000E+00  1.60000000E+01
  1.00800000E+00  1.00800000E+00  1.60000000E+01  1.00800000E+00  1.00800000E+00
  1.60000000E+01  1.00800000E+00  1.00800000E+00  1.60000000E+01  1.00800000E+00
  1.00800000E+00  1.60000000E+01  1.00800000E+00  1.00800000E+00  1.60000000E+01
  1.00800000E+00  1.00800000E+00  1.60000000E+01  1.00800000E+00  1.00800000E+00
  1.60000000E+01  1.00800000E+00  1.00800000E+00  1.60000000E+01  1.00800000E+00
  1.00800000E+00  1.60000000E+01  1.00800000E+00  1.00800000E+00  1.60000000E+01
  1.00800000E+00  1.00800000E+00  1.60000000E+01  1.00800000E+00  1.00800000E+00
  1.60000000E+01  1.00800000E+00  1.00800000E+00  1.60000000E+01  1.00800000E+00
  1.00800000E+00  1.60000000E+01  1.00800000E+00  1.00800000E+00  1.60000000E+01
  1.00800000E+00  1.00800000E+00  1.60000000E+01  1.00800000E+00  1.00800000E+00
  1.60000000E+01  1.00800000E+00  1.00800000E+00  1.60000000E+01  1.00800000E+00
  1.00800000E+00  1.60000000E+01  1.00800000E+00  1.00800000E+00  1.60000000E+01
  1.00800000E+00  1.00800000E+00  1.60000000E+01  1.00800000E+00  1.00800000E+00
  1.60000000E+01  1.00800000E+00  1.00800000E+00  1.60000000E+01  1.00800000E+00
  1.00800000E+00  1.60000000E+01  1.00800000E+00  1.00800000E+00  1.60000000E+01
  1.00800000E+00  1.00800000E+00  1.60000000E+01  1.00800000E+00  1.00800000E+00
  1.60000000E+01  1.00800000E+00  1.00800000E+00  1.60000000E+01  1.00800000E+00
  1.00800000E+00  1.60000000E+01  1.00800000E+00  1.00800000E+00  1.60000000E+01
  1.00800000E+00  1.00800000E+00  1.60000000E+01  1.00800000E+00  1.00800000E+00
  1.60000000E+01  1.00800000E+00  1.00800000E+00  1.60000000E+01  1.00800000E+00
  1.00800000E+00  1.60000000E+01  1.00800000E+00  1.00800000E+00  1.60000000E+01
  1.00800000E+00  1.00800000E+00  1.60000000E+01  1.00800000E+00  1.00800000E+00
  1.60000000E+01  1.00800000E+00  1.00800000E+00  1.60000000E+01  1.00800000E+00
  1.00800000E+00  1.60000000E+01  1.00800000E+00  1.00800000E+00  1.60000000E+01
  1.00800000E+00  1.00800000E+00  1.60000000E+01  1.00800000E+00  1.00800000E+00
  1.60000000E+01  1.00800000E+00  1.00800000E+00  1.60000000E+01  1.00800000E+00
  1.00800000E+00  1.60000000E+01  1.00800000E+00  1.00800000E+00  1.60000000E+01
  1.00800000E+00  1.00800000E+00  1.60000000E+01  1.00800000E+00  1.00800000E+00
  1.60000000E+01  1.00800000E+00  1.00800000E+00  1.60000000E+01  1.00800000E+00
  1.00800000E+00  1.60000000E+01  1.00800000E+00  1.00800000E+00  1.60000000E+01
  1.00800000E+00  1.00800000E+00  1.60000000E+01  1.00800000E+00  1.00800000E+00
  1.60000000E+01  1.00800000E+00  1.00800000E+00  1.60000000E+01  1.00800000E+00
  1.00800000E+00  1.60000000E+01  1.00800000E+00  1.00800000E+00  1.60000000E+01
  1.00800000E+00  1.00800000E+00  1.60000000E+01  1.00800000E+00  1.00800000E+00
  1.60000000E+01  1.00800000E+00  1.00800000E+00  1.60000000E+01  1.00800000E+00
  1.00800000E+00  1.60000000E+01  1.00800000E+00  1.00800000E+00  1.60000000E+01
  1.00800000E+00  1.00800000E+00  1.60000000E+01  1.00800000E+00  1.00800000E+00
  1.60000000E+01  1.00800000E+00  1.00800000E+00  1.60000000E+01  1.00800000E+00
  1.00800000E+00  1.60000000E+01  1.00800000E+00  1.00800000E+00  1.60000000E+01
  1.00800000E+00  1.00800000E+00  1.60000000E+01  1.00800000E+00  1.00800000E+00
  1.60000000E+01  1.00800000E+00  1.00800000E+00  1.60000000E+01  1.00800000E+00
  1.00800000E+00  1.60000000E+01  1.00800000E+00  1.00800000E+00  1.60000000E+01
  1.00800000E+00  1.00800000E+00  1.60000000E+01  1.00800000E+00  1.00800000E+00
  1.60000000E+01  1.00800000E+00  1.00800000E+00  1.60000000E+01  1.00800000E+00
  1.00800000E+00  1.60000000E+01  1.00800000E+00  1.00800000E+00  1.60000000E+01
  1.00800000E+00  1.00800000E+00  1.60000000E+01  1.00800000E+00  1.00800000E+00
  1.60000000E+01  1.00800000E+00  1.00800000E+00  1.60000000E+01  1.00800000E+00
  1.00800000E+00  1.60000000E+01  1.00800000E+00  1.00800000E+00  1.60000000E+01
  1.00800000E+00  1.00800000E+00  1.60000000E+01  1.00800000E+00  1.00800000E+00
  1.60000000E+01  1.00800000E+00  1.00800000E+00  1.60000000E+01  1.00800000E+00
  1.00800000E+00  1.60000000E+01  1.00800000E+00  1.00800000E+00  1.60000000E+01
  1.00800000E+00  1.00800000E+00  1.60000000E+01  1.00800000E+00  1.00800000E+00
  1.60000000E+01  1.00800000E+00  1.00800000E+00  1.60000000E+01  1.00800000E+00
  1.00800000E+00  1.60000000E+01  1.00800000E+00  1.00800000E+00  1.60000000E+01
  1.00800000E+00  1.00800000E+00  1.60000000E+01  1.00800000E+00  1.00800000E+00
  1.60000000E+01  1.00800000E+00  1.00800000E+00  1.60000000E+01  1.00800000E+00
  1.00800000E+00  1.60000000E+01  1.00800000E+00  1.00800000E+00  1.60000000E+01
  1.00800000E+00  1.00800000E+00  1.60000000E+01  1.00800000E+00  1.00800000E+00
  1.60000000E+01  1.00800000E+00  1.00800000E+00  1.60000000E+01  1.00800000E+00
  1.00800000E+00  1.60000000E+01  1.00800000E+00  1.00800000E+00  1.60000000E+01
  1.00800000E+00  1.00800000E+00  1.60000000E+01  1.00800000E+00  1.00800000E+00
  1.60000000E+01  1.00800000E+00  1.00800000E+00  1.60000000E+01  1.00800000E+00
  1.00800000E+00  1.60000000E+01  1.00800000E+00  1.00800000E+00  1.60000000E+01
  1.00800000E+00  1.00800000E+00  1.60000000E+01  1.00800000E+00  1.00800000E+00
  1.60000000E+01  1.00800000E+00  1.00800000E+00  1.60000000E+01  1.00800000E+00
  1.00800000E+00  1.60000000E+01  1.00800000E+00  1.00800000E+00  1.60000000E+01
  1.00800000E+00  1.00800000E+00  1.60000000E+01  1.00800000E+00  1.00800000E+00
  1.60000000E+01  1.00800000E+00  1.00800000E+00  1.60000000E+01  1.00800000E+00
  1.00800000E+00  1.60000000E+01  1.00800000E+00  1.00800000E+00  1.60000000E+01
  1.00800000E+00  1.00800000E+00  1.60000000E+01  1.00800000E+00  1.00800000E+00
  1.60000000E+01  1.00800000E+00  1.00800000E+00  1.60000000E+01  1.00800000E+00
  1.00800000E+00  1.60000000E+01  1.00800000E+00  1.00800000E+00  1.60000000E+01
  1.00800000E+00  1.00800000E+00  1.60000000E+01  1.00800000E+00  1.00800000E+00
  1.60000000E+01  1.00800000E+00  1.00800000E+00  1.60000000E+01  1.00800000E+00
  1.00800000E+00  1.60000000E+01  1.00800000E+00  1.00800000E+00  1.60000000E+01
  1.00800000E+00  1.00800000E+00  1.60000000E+01  1.00800000E+00  1.00800000E+00
  1.60000000E+01  1.00800000E+00  1.00800000E+00  1.60000000E+01  1.00800000E+00
  1.00800000E+00  1.60000000E+01  1.00800000E+00  1.00800000E+00  1.60000000E+01
  1.00800000E+00  1.00800000E+00  1.60000000E+01  1.00800000E+00  1.00800000E+00
  1.60000000E+01  1.00800000E+00  1.00800000E+00  1.60000000E+01  1.00800000E+00
  1.00800000E+00  1.60000000E+01  1.00800000E+00  1.00800000E+00  1.60000000E+01
  1.00800000E+00  1.00800000E+00  1.60000000E+01  1.00800000E+00  1.00800000E+00
  1.60000000E+01  1.00800000E+00  1.00800000E+00  1.60000000E+01  1.00800000E+00
  1.00800000E+00  1.60000000E+01  1.00800000E+00  1.00800000E+00  1.60000000E+01
  1.00800000E+00  1.00800000E+00  1.60000000E+01  1.00800000E+00  1.00800000E+00
  1.60000000E+01  1.00800000E+00  1.00800000E+00  1.60000000E+01  1.00800000E+00
  1.00800000E+00  1.60000000E+01  1.00800000E+00  1.00800000E+00  1.60000000E+01
  1.00800000E+00  1.00800000E+00  1.60000000E+01  1.00800000E+00  1.00800000E+00
  1.60000000E+01  1.00800000E+00  1.00800000E+00  1.60000000E+01  1.00800000E+00
  1.00800000E+00  1.60000000E+01  1.00800000E+00  1.00800000E+00  1.60000000E+01
  1.00800000E+00  1.00800000E+00  1.60000000E+01  1.00800000E+00  1.00800000E+00
  1.60000000E+01  1.00800000E+00  1.00800000E+00  1.60000000E+01  1.00800000E+00
  1.00800000E+00  1.60000000E+01  1.00800000E+00  1.00800000E+00  1.60000000E+01
  1.00800000E+00  1.00800000E+00  1.60000000E+01  1.00800000E+00  1.00800000E+00
  1.60000000E+01  1.00800000E+00  1.00800000E+00  1.60000000E+01  1.00800000E+00
  1.00800000E+00  1.60000000E+01  1.00800000E+00  1.00800000E+00  1.60000000E+01
  1.00800000E+00  1.00800000E+00  1.60000000E+01  1.00800000E+00  1.00800000E+00
  1.60000000E+01  1.00800000E+00  1.00800000E+00  1.60000000E+01  1.00800000E+00
  1.00800000E+00  1.60000000E+01  1.00800000E+00  1.00800000E+00  1.60000000E+01
  1.00800000E+00  1.00800000E+00  1.60000000E+01  1.00800000E+00  1.00800000E+00
  1.60000000E+01  1.00800000E+00  1.00800000E+00  1.60000000E+01  1.00800000E+00
  1.00800000E+00  1.60000000E+01  1.00800000E+00  1.00800000E+00  1.60000000E+01
  1.00800000E+00  1.00800000E+00  1.60000000E+01  1.00800000E+00  1.00800000E+00
  1.60000000E+01  1.00800000E+00  1.00800000E+00  1.60000000E+01  1.00800000E+00
  1.00800000E+00  1.60000000E+01  1.00800000E+00  1.00800000E+00  1.60000000E+01
  1.00800000E+00  1.00800000E+00  1.60000000E+01  1.00800000E+00  1.00800000E+00
  1.60000000E+01  1.00800000E+00  1.00800000E+00  1.60000000E+01  1.00800000E+00
  1.00800000E+00  1.60000000E+01  1.00800000E+00  1.00800000E+00  1.60000000E+01
  1.00800000E+00  1.00800000E+00  1.60000000E+01  1.00800000E+00  1.00800000E+00
  1.60000000E+01  1.00800000E+00  1.00800000E+00  1.60000000E+01  1.00800000E+00
  1.00800000E+00  1.60000000E+01  1.00800000E+00  1.00800000E+00  1.60000000E+01
  1.00800000E+00  1.00800000E+00  1.60000000E+01  1.00800000E+00  1.00800000E+00
  1.60000000E+01  1.00800000E+00  1.00800000E+00  1.60000000E+01  1.00800000E+00
  1.00800000E+00  1.60000000E+01  1.00800000E+00  1.00800000E+00  1.60000000E+01
  1.00800000E+00  1.00800000E+00  1.60000000E+01  1.00800000E+00  1.00800000E+00
  1.60000000E+01  1.00800000E+00  1.00800000E+00  1.60000000E+01  1.00800000E+00
  1.00800000E+00  1.60000000E+01  1.00800000E+00  1.00800000E+00  1.60000000E+01
  1.00800000E+00  1.00800000E+00  1.60000000E+01  1.00800000E+00  1.00800000E+00
  1.60000000E+01  1.00800000E+00  1.00800000E+00  1.60000000E+01  1.00800000E+00
  1.00800000E+00  1.60000000E+01  1.00800000E+00  1.00800000E+00  1.60000000E+01
  1.00800000E+00  1.00800000E+00  1.60000000E+01  1.00800000E+00  1.00800000E+00
  1.60000000E+01  1.00800000E+00  1.00800000E+00  1.60000000E+01  1.00800000E+00
  1.00800000E+00  1.60000000E+01  1.00800000E+00  1.00800000E+00  1.60000000E+01
  1.00800000E+00  1.00800000E+00  1.60000000E+01  1.00800000E+00  1.00800000E+00
  1.60000000E+01  1.00800000E+00  1.00800000E+00  1.60000000E+01  1.00800000E+00
  1.00800000E+00  1.60000000E+01  1.00800000E+00  1.00800000E+00  1.60000000E+01
  1.00800000E+00  1.00800000E+00  1.60000000E+01  1.00800000E+00  1.00800000E+00
  1.60000000E+01  1.00800000E+00  1.00800000E+00  1.60000000E+01  1.00800000E+00
  1.00800000E+00  1.60000000E+01  1.00800000E+00  1.00800000E+00  1.60000000E+01
  1.00800000E+00  1.00800000E+00  1.60000000E+01  1.00800000E+00  1.00800000E+00
  1.60000000E+01  1.00800000E+00  1.00800000E+00  1.60000000E+01  1.00800000E+00
  1.00800000E+00  1.60000000E+01  1.00800000E+00  1.00800000E+00  1.60000000E+01
  1.00800000E+00  1.00800000E+00  1.60000000E+01  1.00800000E+00  1.00800000E+00
  1.60000000E+01  1.00800000E+00  1.00800000E+00  1.60000000E+01  1.00800000E+00
  1.00800000E+00  1.60000000E+01  1.00800000E+00  1.00800000E+00  1.60000000E+01
  1.00800000E+00  1.00800000E+00  1.60000000E+01  1.00800000E+00  1.00800000E+00
  1.60000000E+01  1.00800000E+00  1.00800000E+00  1.60000000E+01  1.00800000E+00
  1.00800000E+00  1.60000000E+01  1.00800000E+00  1.00800000E+00  1.60000000E+01
  1.00800000E+00  1.00800000E+00  1.60000000E+01  1.00800000E+00  1.00800000E+00
  1.60000000E+01  1.00800000E+00  1.00800000E+00  1.60000000E+01  1.00800000E+00
  1.00800000E+00  1.60000000E+01  1.00800000E+00  1.00800000E+00  1.60000000E+01
  1.00800000E+00  1.00800000E+00  1.60000000E+01  1.00800000E+00  1.00800000E+00
  1.60000000E+01  1.00800000E+00  1.00800000E+00  1.60000000E+01  1.00800000E+00
  1.00800000E+00  1.60000000E+01  1.00800000E+00  1.00800000E+00  1.60000000E+01
  1.00800000E+00  1.00800000E+00  1.60000000E+01  1.00800000E+00  1.00800000E+00
  1.60000000E+01  1.00800000E+00  1.00800000E+00  1.60000000E+01  1.00800000E+00
  1.00800000E+00  1.60000000E+01  1.00800000E+00  1.00800000E+00  1.60000000E+01
  1.00800000E+00  1.00800000E+00  1.60000000E+01  1.00800000E+00  1.00800000E+00
  1.60000000E+01  1.00800000E+00  1.00800000E+00  1.60000000E+01  1.00800000E+00
  1.00800000E+00  1.60000000E+01  1.00800000E+00  1.00800000E+00  1.60000000E+01
  1.00800000E+00  1.00800000E+00  1.60000000E+01  1.00800000E+00  1.00800000E+00
  1.60000000E+01  1.00800000E+00  1.00800000E+00  1.60000000E+01  1.00800000E+00
  1.00800000E+00  1.60000000E+01  1.00800000E+00  1.00800000E+00  1.60000000E+01
  1.00800000E+00  1.00800000E+00  1.60000000E+01  1.00800000E+00  1.00800000E+00
  1.60000000E+01  1.00800000E+00  1.00800000E+00  1.60000000E+01  1.00800000E+00
  1.00800000E+00  1.60000000E+01  1.00800000E+00  1.00800000E+00  1.60000000E+01
  1.00800000E+00  1.00800000E+00  1.60000000E+01  1.00800000E+00  1.00800000E+00
  1.60000000E+01  1.00800000E+00  1.00800000E+00  1.60000000E+01  1.00800000E+00
  1.00800000E+00  1.60000000E+01  1.00800000E+00  1.00800000E+00  1.60000000E+01
  1.00800000E+00  1.00800000E+00  1.60000000E+01  1.00800000E+00  1.00800000E+00
  1.60000000E+01  1.00800000E+00  1.00800000E+00  1.60000000E+01  1.00800000E+00
  1.00800000E+00  1.60000000E+01  1.00800000E+00  1.00800000E+00  1.60000000E+01
  1.00800000E+00  1.00800000E+00  1.60000000E+01  1.00800000E+00  1.00800000E+00
  1.60000000E+01  1.00800000E+00  1.00800000E+00  1.60000000E+01  1.00800000E+00
  1.00800000E+00  1.60000000E+01  1.00800000E+00  1.00800000E+00  1.60000000E+01
  1.00800000E+00  1.00800000E+00  1.60000000E+01  1.00800000E+00  1.00800000E+00
  1.60000000E+01  1.00800000E+00  1.00800000E+00  1.60000000E+01  1.00800000E+00
  1.00800000E+00  1.60000000E+01  1.00800000E+00  1.00800000E+00  1.60000000E+01
  1.00800000E+00  1.00800000E+00  1.60000000E+01  1.00800000E+00  1.00800000E+00
  1.60000000E+01  1.00800000E+00  1.00800000E+00  1.60000000E+01  1.00800000E+00
  1.00800000E+00  1.60000000E+01  1.00800000E+00  1.00800000E+00  1.60000000E+01
  1.00800000E+00  1.00800000E+00  1.60000000E+01  1.00800000E+00  1.00800000E+00
  1.60000000E+01  1.00800000E+00  1.00800000E+00  1.60000000E+01  1.00800000E+00
  1.00800000E+00  1.60000000E+01  1.00800000E+00  1.00800000E+00  1.60000000E+01
  1.00800000E+00  1.00800000E+00  1.60000000E+01  1.00800000E+00  1.00800000E+00
  1.60000000E+01  1.00800000E+00  1.00800000E+00  1.60000000E+01  1.00800000E+00
  1.00800000E+00  1.60000000E+01  1.00800000E+00  1.00800000E+00  1.60000000E+01
  1.00800000E+00  1.00800000E+00  1.60000000E+01  1.00800000E+00  1.00800000E+00
  1.60000000E+01  1.00800000E+00  1.00800000E+00  1.60000000E+01  1.00800000E+00
  1.00800000E+00  1.60000000E+01  1.00800000E+00  1.00800000E+00  1.60000000E+01
  1.00800000E+00  1.00800000E+00  1.60000000E+01  1.00800000E+00  1.00800000E+00
  1.60000000E+01  1.00800000E+00  1.00800000E+00  1.60000000E+01  1.00800000E+00
  1.00800000E+00  1.60000000E+01  1.00800000E+00  1.00800000E+00  1.60000000E+01
  1.00800000E+00  1.00800000E+00  1.60000000E+01  1.00800000E+00  1.00800000E+00
  1.60000000E+01  1.00800000E+00  1.00800000E+00  1.60000000E+01  1.00800000E+00
  1.00800000E+00  1.60000000E+01  1.00800000E+00  1.00800000E+00  1.60000000E+01
  1.00800000E+00  1.00800000E+00  1.60000000E+01  1.00800000E+00  1.00800000E+00
  1.60000000E+01  1.00800000E+00  1.00800000E+00  1.60000000E+01  1.00800000E+00
  1.00800000E+00  1.60000000E+01  1.00800000E+00  1.00800000E+00  1.60000000E+01
  1.00800000E+00  1.00800000E+00  1.60000000E+01  1.00800000E+00  1.00800000E+00
  1.60000000E+01  1.00800000E+00  1.00800000E+00  1.60000000E+01  1.00800000E+00
  1.00800000E+00  1.60000000E+01  1.00800000E+00  1.00800000E+00  1.60000000E+01
  1.00800000E+00  1.00800000E+00  1.60000000E+01  1.00800000E+00  1.00800000E+00
  1.60000000E+01  1.00800000E+00  1.00800000E+00  1.60000000E+01  1.00800000E+00
  1.00800000E+00  1.60000000E+01  1.00800000E+00  1.00800000E+00  1.60000000E+01
  1.00800000E+00  1.00800000E+00  1.60000000E+01  1.00800000E+00  1.00800000E+00
  1.60000000E+01  1.00800000E+00  1.00800000E+00  1.60000000E+01  1.00800000E+00
  1.00800000E+00  1.60000000E+01  1.00800000E+00  1.00800000E+00  1.60000000E+01
  1.00800000E+00  1.00800000E+00  1.60000000E+01  1.00800000E+00  1.00800000E+00
  1.60000000E+01  1.00800000E+00  1.00800000E+00  1.60000000E+01  1.00800000E+00
  1.00800000E+00  1.60000000E+01  1.00800000E+00  1.00800000E+00  1.60000000E+01
  1.00800000E+00  1.00800000E+00  1.60000000E+01  1.00800000E+00  1.00800000E+00
  1.60000000E+01  1.00800000E+00  1.00800000E+00  1.60000000E+01  1.00800000E+00
  1.00800000E+00  1.60000000E+01  1.00800000E+00  1.00800000E+00  1.60000000E+01
  1.00800000E+00  1.00800000E+00  1.60000000E+01  1.00800000E+00  1.00800000E+00
  1.60000000E+01  1.00800000E+00  1.00800000E+00  1.60000000E+01  1.00800000E+00
  1.00800000E+00  1.60000000E+01  1.00800000E+00  1.00800000E+00  1.60000000E+01
  1.00800000E+00  1.00800000E+00  1.60000000E+01  1.00800000E+00  1.00800000E+00
  1.60000000E+01  1.00800000E+00  1.00800000E+00  1.60000000E+01  1.00800000E+00
  1.00800000E+00  1.60000000E+01  1.00800000E+00  1.00800000E+00  1.60000000E+01
  1.00800000E+00  1.00800000E+00  1.60000000E+01  1.00800000E+00  1.00800000E+00
  1.60000000E+01  1.00800000E+00  1.00800000E+00  1.60000000E+01  1.00800000E+00
  1.00800000E+00  1.60000000E+01  1.00800000E+00  1.00800000E+00  1.60000000E+01
  1.00800000E+00  1.00800000E+00  1.60000000E+01  1.00800000E+00  1.00800000E+00
  1.60000000E+01  1.00800000E+00  1.00800000E+00  1.60000000E+01  1.00800000E+00
  1.00800000E+00  1.60000000E+01  1.00800000E+00  1.00800000E+00  1.60000000E+01
  1.00800000E+00  1.00800000E+00  1.60000000E+01  1.00800000E+00  1.00800000E+00
  1.60000000E+01  1.00800000E+00  1.00800000E+00  1.60000000E+01  1.00800000E+00
  1.00800000E+00  1.60000000E+01  1.00800000E+00  1.00800000E+00  1.60000000E+01
  1.00800000E+00  1.00800000E+00  1.60000000E+01  1.00800000E+00  1.00800000E+00
  1.60000000E+01  1.00800000E+00  1.00800000E+00  1.60000000E+01  1.00800000E+00
  1.00800000E+00  1.60000000E+01  1.00800000E+00  1.00800000E+00  1.60000000E+01
  1.00800000E+00  1.00800000E+00  1.60000000E+01  1.00800000E+00  1.00800000E+00
  1.60000000E+01  1.00800000E+00  1.00800000E+00  1.60000000E+01  1.00800000E+00
  1.00800000E+00  1.60000000E+01  1.00800000E+00  1.00800000E+00  1.60000000E+01
  1.00800000E+00  1.00800000E+00  1.60000000E+01  1.00800000E+00  1.00800000E+00
  1.60000000E+01  1.00800000E+00  1.00800000E+00  1.60000000E+01  1.00800000E+00
  1.00800000E+00  1.60000000E+01  1.00800000E+00  1.00800000E+00  1.60000000E+01
  1.00800000E+00  1.00800000E+00  1.60000000E+01  1.00800000E+00  1.00800000E+00
  1.60000000E+01  1.00800000E+00  1.00800000E+00  1.60000000E+01  1.00800000E+00
  1.00800000E+00  1.60000000E+01  1.00800000E+00  1.00800000E+00  1.60000000E+01
  1.00800000E+00  1.00800000E+00  1.60000000E+01  1.00800000E+00  1.00800000E+00
  1.60000000E+01  1.00800000E+00  1.00800000E+00  1.60000000E+01  1.00800000E+00
  1.00800000E+00  1.60000000E+01  1.00800000E+00  1.00800000E+00  1.60000000E+01
  1.00800000E+00  1.00800000E+00  1.60000000E+01  1.00800000E+00  1.00800000E+00
  1.60000000E+01  1.00800000E+00  1.00800000E+00  1.60000000E+01  1.00800000E+00
  1.00800000E+00  1.60000000E+01  1.00800000E+00  1.00800000E+00  1.60000000E+01
  1.00800000E+00  1.00800000E+00  1.60000000E+01  1.00800000E+00  1.00800000E+00
  1.60000000E+01  1.00800000E+00  1.00800000E+00  1.60000000E+01  1.00800000E+00
  1.00800000E+00  1.60000000E+01  1.00800000E+00  1.00800000E+00  1.60000000E+01
  1.00800000E+00  1.00800000E+00  1.60000000E+01  1.00800000E+00  1.00800000E+00
  1.60000000E+01  1.00800000E+00  1.00800000E+00  1.60000000E+01  1.00800000E+00
  1.00800000E+00  1.60000000E+01  1.00800000E+00  1.00800000E+00  1.60000000E+01
  1.00800000E+00  1.00800000E+00  1.60000000E+01  1.00800000E+00  1.00800000E+00
  1.60000000E+01  1.00800000E+00  1.00800000E+00  1.60000000E+01  1.00800000E+00
  1.00800000E+00  1.60000000E+01  1.00800000E+00  1.00800000E+00  1.60000000E+01
  1.00800000E+00  1.00800000E+00  1.60000000E+01  1.00800000E+00  1.00800000E+00
  1.60000000E+01  1.00800000E+00  1.00800000E+00  1.60000000E+01  1.00800000E+00
  1.00800000E+00  1.60000000E+01  1.00800000E+00  1.00800000E+00  1.60000000E+01
  1.00800000E+00  1.00800000E+00  1.60000000E+01  1.00800000E+00  1.00800000E+00
  1.60000000E+01  1.00800000E+00  1.00800000E+00  1.60000000E+01  1.00800000E+00
  1.00800000E+00  1.60000000E+01  1.00800000E+00  1.00800000E+00  1.60000000E+01
  1.00800000E+00  1.00800000E+00  1.60000000E+01  1.00800000E+00  1.00800000E+00
  1.60000000E+01  1.00800000E+00  1.00800000E+00  1.60000000E+01  1.00800000E+00
  1.00800000E+00  1.60000000E+01  1.00800000E+00  1.00800000E+00  1.60000000E+01
  1.00800000E+00  1.00800000E+00  1.60000000E+01  1.00800000E+00  1.00800000E+00
  1.60000000E+01  1.00800000E+00  1.00800000E+00  1.60000000E+01  1.00800000E+00
  1.00800000E+00  1.60000000E+01  1.00800000E+00  1.00800000E+00  1.60000000E+01
  1.00800000E+00  1.00800000E+00  1.60000000E+01  1.00800000E+00  1.00800000E+00
  1.60000000E+01  1.00800000E+00  1.00800000E+00  1.60000000E+01  1.00800000E+00
  1.00800000E+00  1.60000000E+01  1.00800000E+00  1.00800000E+00  1.60000000E+01
  1.00800000E+00  1.00800000E+00  1.60000000E+01  1.00800000E+00  1.00800000E+00
  1.60000000E+01  1.00800000E+00  1.00800000E+00  1.60000000E+01  1.00800000E+00
  1.00800000E+00  1.60000000E+01  1.00800000E+00  1.00800000E+00  1.60000000E+01
  1.00800000E+00  1.00800000E+00  1.60000000E+01  1.00800000E+00  1.00800000E+00
  1.60000000E+01  1.00800000E+00  1.00800000E+00  1.60000000E+01  1.00800000E+00
  1.00800000E+00  1.60000000E+01  1.00800000E+00  1.00800000E+00  1.60000000E+01
  1.00800000E+00  1.00800000E+00  1.60000000E+01  1.00800000E+00  1.00800000E+00
  1.60000000E+01  1.00800000E+00  1.00800000E+00  1.60000000E+01  1.00800000E+00
  1.00800000E+00  1.60000000E+01  1.00800000E+00  1.00800000E+00  1.60000000E+01
  1.00800000E+00  1.00800000E+00  1.60000000E+01  1.00800000E+00  1.00800000E+00
  1.60000000E+01  1.00800000E+00  1.00800000E+00  1.60000000E+01  1.00800000E+00
  1.00800000E+00  1.60000000E+01  1.00800000E+00  1.00800000E+00  1.60000000E+01
  1.00800000E+00  1.00800000E+00  1.60000000E+01  1.00800000E+00  1.00800000E+00
  1.60000000E+01  1.00800000E+00  1.00800000E+00  1.60000000E+01  1.00800000E+00
  1.00800000E+00  1.60000000E+01  1.00800000E+00  1.00800000E+00  1.60000000E+01
  1.00800000E+00  1.00800000E+00  1.60000000E+01  1.00800000E+00  1.00800000E+00
  1.60000000E+01  1.00800000E+00  1.00800000E+00  1.60000000E+01  1.00800000E+00
  1.00800000E+00  1.60000000E+01  1.00800000E+00  1.00800000E+00  1.60000000E+01
  1.00800000E+00  1.00800000E+00  1.60000000E+01  1.00800000E+00  1.00800000E+00
  1.60000000E+01  1.00800000E+00  1.00800000E+00  1.60000000E+01  1.00800000E+00
  1.00800000E+00  1.60000000E+01  1.00800000E+00  1.00800000E+00  1.60000000E+01
  1.00800000E+00  1.00800000E+00  1.60000000E+01  1.00800000E+00  1.00800000E+00
  1.60000000E+01  1.00800000E+00  1.00800000E+00  1.60000000E+01  1.00800000E+00
  1.00800000E+00  1.60000000E+01  1.00800000E+00  1.00800000E+00  1.60000000E+01
  1.00800000E+00  1.00800000E+00  1.60000000E+01  1.00800000E+00  1.00800000E+00
  1.60000000E+01  1.00800000E+00  1.00800000E+00  1.60000000E+01  1.00800000E+00
  1.00800000E+00  1.60000000E+01  1.00800000E+00  1.00800000E+00  1.60000000E+01
  1.00800000E+00  1.00800000E+00  1.60000000E+01  1.00800000E+00  1.00800000E+00
  1.60000000E+01  1.00800000E+00  1.00800000E+00  1.60000000E+01  1.00800000E+00
  1.00800000E+00  1.60000000E+01  1.00800000E+00  1.00800000E+00  1.60000000E+01
  1.00800000E+00  1.00800000E+00  1.60000000E+01  1.00800000E+00  1.00800000E+00
  1.60000000E+01  1.00800000E+00  1.00800000E+00  1.60000000E+01  1.00800000E+00
  1.00800000E+00  1.60000000E+01  1.00800000E+00  1.00800000E+00  1.60000000E+01
  1.00800000E+00  1.00800000E+00  1.60000000E+01  1.00800000E+00  1.00800000E+00
  1.60000000E+01  1.00800000E+00  1.00800000E+00  1.60000000E+01  1.00800000E+00
  1.00800000E+00  1.60000000E+01  1.00800000E+00  1.00800000E+00  1.60000000E+01
  1.00800000E+00  1.00800000E+00  1.60000000E+01  1.00800000E+00  1.00800000E+00
  1.60000000E+01  1.00800000E+00  1.00800000E+00  1.60000000E+01  1.00800000E+00
  1.00800000E+00  1.60000000E+01  1.00800000E+00  1.00800000E+00  1.60000000E+01
  1.00800000E+00  1.00800000E+00  1.60000000E+01  1.00800000E+00  1.00800000E+00
  1.60000000E+01  1.00800000E+00  1.00800000E+00  1.60000000E+01  1.00800000E+00
  1.00800000E+00  1.60000000E+01  1.00800000E+00  1.00800000E+00  1.60000000E+01
  1.00800000E+00  1.00800000E+00  1.60000000E+01  1.00800000E+00  1.00800000E+00
  1.60000000E+01  1.00800000E+00  1.00800000E+00  1.60000000E+01  1.00800000E+00
  1.00800000E+00  1.60000000E+01  1.00800000E+00  1.00800000E+00  1.60000000E+01
  1.00800000E+00  1.00800000E+00  1.60000000E+01  1.00800000E+00  1.00800000E+00
  1.60000000E+01  1.00800000E+00  1.00800000E+00  1.60000000E+01  1.00800000E+00
  1.00800000E+00  1.60000000E+01  1.00800000E+00  1.00800000E+00  1.60000000E+01
  1.00800000E+00  1.00800000E+00  1.60000000E+01  1.00800000E+00  1.00800000E+00
  1.60000000E+01  1.00800000E+00  1.00800000E+00  1.60000000E+01  1.00800000E+00
  1.00800000E+00  1.60000000E+01  1.00800000E+00  1.00800000E+00  1.60000000E+01
  1.00800000E+00  1.00800000E+00  1.60000000E+01  1.00800000E+00  1.00800000E+00
  1.60000000E+01  1.00800000E+00  1.00800000E+00  1.60000000E+01  1.00800000E+00
  1.00800000E+00  1.60000000E+01  1.00800000E+00  1.00800000E+00  1.60000000E+01
  1.00800000E+00  1.00800000E+00  1.60000000E+01  1.00800000E+00  1.00800000E+00
  1.60000000E+01  1.00800000E+00  1.00800000E+00  1.60000000E+01  1.00800000E+00
  1.00800000E+00  1.60000000E+01  1.00800000E+00  1.00800000E+00  1.60000000E+01
  1.00800000E+00  1.00800000E+00  1.60000000E+01  1.00800000E+00  1.00800000E+00
  1.60000000E+01  1.00800000E+00  1.00800000E+00  1.60000000E+01  1.00800000E+00
  1.00800000E+00  1.60000000E+01  1.00800000E+00  1.00800000E+00  1.60000000E+01
  1.00800000E+00  1.00800000E+00  1.60000000E+01  1.00800000E+00  1.00800000E+00
  1.60000000E+01  1.00800000E+00  1.00800000E+00  1.60000000E+01  1.00800000E+00
  1.00800000E+00  1.60000000E+01  1.00800000E+00  1.00800000E+00  1.60000000E+01
  1.00800000E+00  1.00800000E+00  1.60000000E+01  1.00800000E+00  1.00800000E+00
  1.60000000E+01  1.00800000E+00  1.00800000E+00  1.60000000E+01  1.00800000E+00
  1.00800000E+00  1.60000000E+01  1.00800000E+00  1.00800000E+00  1.60000000E+01
  1.00800000E+00  1.00800000E+00  1.60000000E+01  1.00800000E+00  1.00800000E+00
  1.60000000E+01  1.00800000E+00  1.00800000E+00  1.60000000E+01  1.00800000E+00
  1.00800000E+00  1.60000000E+01  1.00800000E+00  1.00800000E+00  1.60000000E+01
  1.00800000E+00  1.00800000E+00  1.60000000E+01  1.00800000E+00  1.00800000E+00
  1.60000000E+01  1.00800000E+00  1.00800000E+00  1.60000000E+01  1.00800000E+00
  1.00800000E+00  1.60000000E+01  1.00800000E+00  1.00800000E+00  1.60000000E+01
  1.00800000E+00  1.00800000E+00  1.60000000E+01  1.00800000E+00  1.00800000E+00
  1.60000000E+01  1.00800000E+00  1.00800000E+00  1.60000000E+01  1.00800000E+00
  1.00800000E+00  1.60000000E+01  1.00800000E+00  1.00800000E+00  1.60000000E+01
  1.00800000E+00  1.00800000E+00  1.60000000E+01  1.00800000E+00  1.00800000E+00
  1.60000000E+01  1.00800000E+00  1.00800000E+00  1.60000000E+01  1.00800000E+00
  1.00800000E+00  1.60000000E+01  1.00800000E+00  1.00800000E+00  1.60000000E+01
  1.00800000E+00  1.00800000E+00  1.60000000E+01  1.00800000E+00  1.00800000E+00
  1.60000000E+01  1.00800000E+00  1.00800000E+00  1.60000000E+01  1.00800000E+00
  1.00800000E+00  1.60000000E+01  1.00800000E+00  1.00800000E+00  1.60000000E+01
  1.00800000E+00  1.00800000E+00  1.60000000E+01  1.00800000E+00  1.00800000E+00
  1.60000000E+01  1.00800000E+00  1.00800000E+00  1.60000000E+01  1.00800000E+00
  1.00800000E+00  1.60000000E+01  1.00800000E+00  1.00800000E+00  1.60000000E+01
  1.00800000E+00  1.00800000E+00  1.60000000E+01  1.00800000E+00  1.00800000E+00
  1.60000000E+01  1.00800000E+00  1.00800000E+00  1.60000000E+01  1.00800000E+00
  1.00800000E+00  1.60000000E+01  1.00800000E+00  1.00800000E+00  1.60000000E+01
  1.00800000E+00  1.00800000E+00  1.60000000E+01  1.00800000E+00  1.00800000E+00
  1.60000000E+01  1.00800000E+00  1.00800000E+00  1.60000000E+01  1.00800000E+00
  1.00800000E+00  1.60000000E+01  1.00800000E+00  1.00800000E+00  1.60000000E+01
  1.00800000E+00  1.00800000E+00  1.60000000E+01  1.00800000E+00  1.00800000E+00
  1.60000000E+01  1.00800000E+00  1.00800000E+00  1.60000000E+01  1.00800000E+00
  1.00800000E+00  1.60000000E+01  1.00800000E+00  1.00800000E+00  1.60000000E+01
  1.00800000E+00  1.00800000E+00  1.60000000E+01  1.00800000E+00  1.00800000E+00
  1.60000000E+01  1.00800000E+00  1.00800000E+00  1.60000000E+01  1.00800000E+00
  1.00800000E+00  1.60000000E+01  1.00800000E+00  1.00800000E+00  1.60000000E+01
  1.00800000E+00  1.00800000E+00  1.60000000E+01  1.00800000E+00  1.00800000E+00
  1.60000000E+01  1.00800000E+00  1.00800000E+00  1.60000000E+01  1.00800000E+00
  1.00800000E+00  1.60000000E+01  1.00800000E+00  1.00800000E+00  1.60000000E+01
  1.00800000E+00  1.00800000E+00  1.60000000E+01  1.00800000E+00  1.00800000E+00
  1.60000000E+01  1.00800000E+00  1.00800000E+00  1.60000000E+01  1.00800000E+00
  1.00800000E+00  1.60000000E+01  1.00800000E+00  1.00800000E+00  1.60000000E+01
  1.00800000E+00  1.00800000E+00  1.60000000E+01  1.00800000E+00  1.00800000E+00
  1.60000000E+01  1.00800000E+00  1.00800000E+00  1.60000000E+01  1.00800000E+00
  1.00800000E+00  1.60000000E+01  1.00800000E+00  1.00800000E+00  1.60000000E+01
  1.00800000E+00  1.00800000E+00  1.60000000E+01  1.00800000E+00  1.00800000E+00
  1.60000000E+01  1.00800000E+00  1.00800000E+00  1.60000000E+01  1.00800000E+00
  1.00800000E+00  1.60000000E+01  1.00800000E+00  1.00800000E+00  1.60000000E+01
  1.00800000E+00  1.00800000E+00  1.60000000E+01  1.00800000E+00  1.00800000E+00
  1.60000000E+01  1.00800000E+00  1.00800000E+00  1.60000000E+01  1.00800000E+00
  1.00800000E+00  1.60000000E+01  1.00800000E+00  1.00800000E+00  1.60000000E+01
  1.00800000E+00  1.00800000E+00  1.60000000E+01  1.00800000E+00  1.00800000E+00
  1.60000000E+01  1.00800000E+00  1.00800000E+00  1.60000000E+01  1.00800000E+00
  1.00800000E+00  1.60000000E+01  1.00800000E+00  1.00800000E+00  1.60000000E+01
  1.00800000E+00  1.00800000E+00  1.60000000E+01  1.00800000E+00  1.00800000E+00
  1.60000000E+01  1.00800000E+00  1.00800000E+00  1.60000000E+01  1.00800000E+00
  1.00800000E+00  1.60000000E+01  1.00800000E+00  1.00800000E+00  1.60000000E+01
  1.00800000E+00  1.00800000E+00  1.60000000E+01  1.00800000E+00  1.00800000E+00
  1.60000000E+01  1.00800000E+00  1.00800000E+00  1.60000000E+01  1.00800000E+00
  1.00800000E+00  1.60000000E+01  1.00800000E+00  1.00800000E+00  1.60000000E+01
  1.00800000E+00  1.00800000E+00  1.60000000E+01  1.00800000E+00  1.00800000E+00
  1.60000000E+01  1.00800000E+00  1.00800000E+00  1.60000000E+01  1.00800000E+00
  1.00800000E+00  1.60000000E+01  1.00800000E+00  1.00800000E+00  1.60000000E+01
  1.00800000E+00  1.00800000E+00  1.60000000E+01  1.00800000E+00  1.00800000E+00
  1.60000000E+01  1.00800000E+00  1.00800000E+00  1.60000000E+01  1.00800000E+00
  1.00800000E+00  1.60000000E+01  1.00800000E+00  1.00800000E+00  1.60000000E+01
  1.00800000E+00  1.00800000E+00  1.60000000E+01  1.00800000E+00  1.00800000E+00
  1.60000000E+01  1.00800000E+00  1.00800000E+00  1.60000000E+01  1.00800000E+00
  1.00800000E+00  1.60000000E+01  1.00800000E+00  1.00800000E+00  1.60000000E+01
  1.00800000E+00  1.00800000E+00  1.60000000E+01  1.00800000E+00  1.00800000E+00
  1.60000000E+01  1.00800000E+00  1.00800000E+00  1.60000000E+01  1.00800000E+00
  1.00800000E+00  1.60000000E+01  1.00800000E+00  1.00800000E+00  1.60000000E+01
  1.00800000E+00  1.00800000E+00  1.60000000E+01  1.00800000E+00  1.00800000E+00
  1.60000000E+01  1.00800000E+00  1.00800000E+00  1.60000000E+01  1.00800000E+00
  1.00800000E+00  1.60000000E+01  1.00800000E+00  1.00800000E+00  1.60000000E+01
  1.00800000E+00  1.00800000E+00  1.60000000E+01  1.00800000E+00  1.00800000E+00
  1.60000000E+01  1.00800000E+00  1.00800000E+00  1.60000000E+01  1.00800000E+00
  1.00800000E+00  1.60000000E+01  1.00800000E+00  1.00800000E+00  1.60000000E+01
  1.00800000E+00  1.00800000E+00  1.60000000E+01  1.00800000E+00  1.00800000E+00
  1.60000000E+01  1.00800000E+00  1.00800000E+00  1.60000000E+01  1.00800000E+00
  1.00800000E+00  1.60000000E+01  1.00800000E+00  1.00800000E+00  1.60000000E+01
  1.00800000E+00  1.00800000E+00  1.60000000E+01  1.00800000E+00  1.00800000E+00
  1.60000000E+01  1.00800000E+00  1.00800000E+00  1.60000000E+01  1.00800000E+00
  1.00800000E+00  1.60000000E+01  1.00800000E+00  1.00800000E+00  1.60000000E+01
  1.00800000E+00  1.00800000E+00  1.60000000E+01  1.00800000E+00  1.00800000E+00
  1.60000000E+01  1.00800000E+00  1.00800000E+00  1.60000000E+01  1.00800000E+00
  1.00800000E+00  1.60000000E+01  1.00800000E+00  1.00800000E+00  1.60000000E+01
  1.00800000E+00  1.00800000E+00  1.60000000E+01  1.00800000E+00  1.00800000E+00
  1.60000000E+01  1.00800000E+00  1.00800000E+00  1.60000000E+01  1.00800000E+00
  1.00800000E+00  1.60000000E+01  1.00800000E+00  1.00800000E+00  1.60000000E+01
  1.00800000E+00  1.00800000E+00  1.60000000E+01  1.00800000E+00  1.00800000E+00
  1.60000000E+01  1.00800000E+00  1.00800000E+00  1.60000000E+01  1.00800000E+00
  1.00800000E+00  1.60000000E+01  1.00800000E+00  1.00800000E+00  1.60000000E+01
  1.00800000E+00  1.00800000E+00  1.60000000E+01  1.00800000E+00  1.00800000E+00
  1.60000000E+01  1.00800000E+00  1.00800000E+00  1.60000000E+01  1.00800000E+00
  1.00800000E+00  1.60000000E+01  1.00800000E+00  1.00800000E+00  1.60000000E+01
  1.00800000E+00  1.00800000E+00  1.60000000E+01  1.00800000E+00  1.00800000E+00
  1.60000000E+01  1.00800000E+00  1.00800000E+00  1.60000000E+01  1.00800000E+00
  1.00800000E+00  1.60000000E+01  1.00800000E+00  1.00800000E+00  1.60000000E+01
  1.00800000E+00  1.00800000E+00  1.60000000E+01  1.00800000E+00  1.00800000E+00
  1.60000000E+01  1.00800000E+00  1.00800000E+00  1.60000000E+01  1.00800000E+00
  1.00800000E+00  1.60000000E+01  1.00800000E+00  1.00800000E+00  1.60000000E+01
  1.00800000E+00  1.00800000E+00  1.60000000E+01  1.00800000E+00  1.00800000E+00
  1.60000000E+01  1.00800000E+00  1.00800000E+00  1.60000000E+01  1.00800000E+00
  1.00800000E+00  1.60000000E+01  1.00800000E+00  1.00800000E+00  1.60000000E+01
  1.00800000E+00  1.00800000E+00  1.60000000E+01  1.00800000E+00  1.00800000E+00
  1.60000000E+01  1.00800000E+00  1.00800000E+00  1.60000000E+01  1.00800000E+00
  1.00800000E+00  1.60000000E+01  1.00800000E+00  1.00800000E+00  1.60000000E+01
  1.00800000E+00  1.00800000E+00  1.60000000E+01  1.00800000E+00  1.00800000E+00
  1.60000000E+01  1.00800000E+00  1.00800000E+00  1.60000000E+01  1.00800000E+00
  1.00800000E+00  1.60000000E+01  1.00800000E+00  1.00800000E+00  1.60000000E+01
  1.00800000E+00  1.00800000E+00  1.60000000E+01  1.00800000E+00  1.00800000E+00
  1.60000000E+01  1.00800000E+00  1.00800000E+00  1.60000000E+01  1.00800000E+00
  1.00800000E+00  1.60000000E+01  1.00800000E+00  1.00800000E+00  1.60000000E+01
  1.00800000E+00  1.00800000E+00  1.60000000E+01  1.00800000E+00  1.00800000E+00
  1.60000000E+01  1.00800000E+00  1.00800000E+00  1.60000000E+01  1.00800000E+00
  1.00800000E+00  1.60000000E+01  1.00800000E+00  1.00800000E+00  1.60000000E+01
  1.00800000E+00  1.00800000E+00  1.60000000E+01  1.00800000E+00  1.00800000E+00
  1.60000000E+01  1.00800000E+00  1.00800000E+00  1.60000000E+01  1.00800000E+00
  1.00800000E+00  1.60000000E+01  1.00800000E+00  1.00800000E+00  1.60000000E+01
  1.00800000E+00  1.00800000E+00  1.60000000E+01  1.00800000E+00  1.00800000E+00
  1.60000000E+01  1.00800000E+00  1.00800000E+00  1.60000000E+01  1.00800000E+00
  1.00800000E+00  1.60000000E+01  1.00800000E+00  1.00800000E+00  1.60000000E+01
  1.00800000E+00  1.00800000E+00  1.60000000E+01  1.00800000E+00  1.00800000E+00
  1.60000000E+01  1.00800000E+00  1.00800000E+00  1.60000000E+01  1.00800000E+00
  1.00800000E+00  1.60000000E+01  1.00800000E+00  1.00800000E+00  1.60000000E+01
  1.00800000E+00  1.00800000E+00  1.60000000E+01  1.00800000E+00  1.00800000E+00
  1.60000000E+01  1.00800000E+00  1.00800000E+00  1.60000000E+01  1.00800000E+00
  1.00800000E+00  1.60000000E+01  1.00800000E+00  1.00800000E+00  1.60000000E+01
  1.00800000E+00  1.00800000E+00  1.60000000E+01  1.00800000E+00  1.00800000E+00
  1.60000000E+01  1.00800000E+00  1.00800000E+00  1.60000000E+01  1.00800000E+00
  1.00800000E+00  1.60000000E+01  1.00800000E+00  1.00800000E+00  1.60000000E+01
  1.00800000E+00  1.00800000E+00  1.60000000E+01  1.00800000E+00  1.00800000E+00
  1.60000000E+01  1.00800000E+00  1.00800000E+00  1.60000000E+01  1.00800000E+00
  1.00800000E+00  1.60000000E+01  1.00800000E+00  1.00800000E+00  1.60000000E+01
  1.00800000E+00  1.00800000E+00  1.60000000E+01  1.00800000E+00  1.00800000E+00
  1.60000000E+01  1.00800000E+00  1.00800000E+00  1.60000000E+01  1.00800000E+00
  1.00800000E+00  1.60000000E+01  1.00800000E+00  1.00800000E+00  1.60000000E+01
  1.00800000E+00  1.00800000E+00  1.60000000E+01  1.00800000E+00  1.00800000E+00
  1.60000000E+01  1.00800000E+00  1.00800000E+00  1.60000000E+01  1.00800000E+00
  1.00800000E+00  1.60000000E+01  1.00800000E+00  1.00800000E+00  1.60000000E+01
  1.00800000E+00  1.00800000E+00  1.60000000E+01  1.00800000E+00  1.00800000E+00
  1.60000000E+01  1.00800000E+00  1.00800000E+00  1.60000000E+01  1.00800000E+00
  1.00800000E+00  1.60000000E+01  1.00800000E+00  1.00800000E+00  1.60000000E+01
  1.00800000E+00  1.00800000E+00  1.60000000E+01  1.00800000E+00  1.00800000E+00
  1.60000000E+01  1.00800000E+00  1.00800000E+00  1.60000000E+01  1.00800000E+00
  1.00800000E+00  1.60000000E+01  1.00800000E+00  1.00800000E+00  1.60000000E+01
  1.00800000E+00  1.00800000E+00  1.60000000E+01  1.00800000E+00  1.00800000E+00
  1.60000000E+01  1.00800000E+00  1.00800000E+00  1.60000000E+01  1.00800000E+00
  1.00800000E+00  1.60000000E+01  1.00800000E+00  1.00800000E+00  1.60000000E+01
  1.00800000E+00  1.00800000E+00  1.60000000E+01  1.00800000E+00  1.00800000E+00
  1.60000000E+01  1.00800000E+00  1.00800000E+00  1.60000000E+01  1.00800000E+00
  1.00800000E+00  1.60000000E+01  1.00800000E+00  1.00800000E+00  1.60000000E+01
  1.00800000E+00  1.00800000E+00  1.60000000E+01  1.00800000E+00  1.00800000E+00
  1.60000000E+01  1.00800000E+00  1.00800000E+00  1.60000000E+01  1.00800000E+00
  1.00800000E+00  1.60000000E+01  1.00800000E+00  1.00800000E+00  1.60000000E+01
  1.00800000E+00  1.00800000E+00  1.60000000E+01  1.00800000E+00  1.00800000E+00
  1.60000000E+01  1.00800000E+00  1.00800000E+00  1.60000000E+01  1.00800000E+00
  1.00800000E+00  1.60000000E+01  1.00800000E+00  1.00800000E+00  1.60000000E+01
  1.00800000E+00  1.00800000E+00  1.60000000E+01  1.00800000E+00  1.00800000E+00
  1.60000000E+01  1.00800000E+00  1.00800000E+00  1.60000000E+01  1.00800000E+00
  1.00800000E+00  1.60000000E+01  1.00800000E+00  1.00800000E+00  1.60000000E+01
  1.00800000E+00  1.00800000E+00  1.60000000E+01  1.00800000E+00  1.00800000E+00
  1.60000000E+01  1.00800000E+00  1.00800000E+00  1.60000000E+01  1.00800000E+00
  1.00800000E+00  1.60000000E+01  1.00800000E+00  1.00800000E+00  1.60000000E+01
  1.00800000E+00  1.00800000E+00  1.60000000E+01  1.00800000E+00  1.00800000E+00
  1.60000000E+01  1.00800000E+00  1.00800000E+00  1.60000000E+01  1.00800000E+00
  1.00800000E+00  1.60000000E+01  1.00800000E+00  1.00800000E+00  1.60000000E+01
  1.00800000E+00  1.00800000E+00  1.60000000E+01  1.00800000E+00  1.00800000E+00
  1.60000000E+01  1.00800000E+00  1.00800000E+00  1.60000000E+01  1.00800000E+00
  1.00800000E+00  1.60000000E+01  1.00800000E+00  1.00800000E+00  1.60000000E+01
  1.00800000E+00  1.00800000E+00  1.60000000E+01  1.00800000E+00  1.00800000E+00
  1.60000000E+01  1.00800000E+00  1.00800000E+00  1.60000000E+01  1.00800000E+00
  1.00800000E+00  1.60000000E+01  1.00800000E+00  1.00800000E+00  1.60000000E+01
  1.00800000E+00  1.00800000E+00  1.60000000E+01  1.00800000E+00  1.00800000E+00
  1.60000000E+01  1.00800000E+00  1.00800000E+00  1.60000000E+01  1.00800000E+00
  1.00800000E+00  1.60000000E+01  1.00800000E+00  1.00800000E+00  1.60000000E+01
  1.00800000E+00  1.00800000E+00  1.60000000E+01  1.00800000E+00  1.00800000E+00
  1.60000000E+01  1.00800000E+00  1.00800000E+00  1.60000000E+01  1.00800000E+00
  1.00800000E+00  1.60000000E+01  1.00800000E+00  1.00800000E+00  1.60000000E+01
  1.00800000E+00  1.00800000E+00  1.60000000E+01  1.00800000E+00  1.00800000E+00
  1.60000000E+01  1.00800000E+00  1.00800000E+00  1.60000000E+01  1.00800000E+00
  1.00800000E+00  1.60000000E+01  1.00800000E+00  1.00800000E+00  1.60000000E+01
  1.00800000E+00  1.00800000E+00  1.60000000E+01  1.00800000E+00  1.00800000E+00
  1.60000000E+01  1.00800000E+00  1.00800000E+00  1.60000000E+01  1.00800000E+00
  1.00800000E+00  1.60000000E+01  1.00800000E+00  1.00800000E+00  1.60000000E+01
  1.00800000E+00  1.00800000E+00  1.60000000E+01  1.00800000E+00  1.00800000E+00
  1.60000000E+01  1.00800000E+00  1.00800000E+00  1.60000000E+01  1.00800000E+00
  1.00800000E+00  1.60000000E+01  1.00800000E+00  1.00800000E+00  1.60000000E+01
  1.00800000E+00  1.00800000E+00  1.60000000E+01  1.00800000E+00  1.00800000E+00
  1.60000000E+01  1.00800000E+00  1.00800000E+00  1.60000000E+01  1.00800000E+00
  1.00800000E+00  1.60000000E+01  1.00800000E+00  1.00800000E+00  1.60000000E+01
  1.00800000E+00  1.00800000E+00  1.60000000E+01  1.00800000E+00  1.00800000E+00
  1.60000000E+01  1.00800000E+00  1.00800000E+00  1.60000000E+01  1.00800000E+00
  1.00800000E+00  1.60000000E+01  1.00800000E+00  1.00800000E+00  1.60000000E+01
  1.00800000E+00  1.00800000E+00  1.60000000E+01  1.00800000E+00  1.00800000E+00
  1.60000000E+01  1.00800000E+00  1.00800000E+00  1.60000000E+01  1.00800000E+00
  1.00800000E+00  1.60000000E+01  1.00800000E+00  1.00800000E+00  1.60000000E+01
  1.00800000E+00  1.00800000E+00  1.60000000E+01  1.00800000E+00  1.00800000E+00
  1.60000000E+01  1.00800000E+00  1.00800000E+00  1.60000000E+01  1.00800000E+00
  1.00800000E+00  1.60000000E+01  1.00800000E+00  1.00800000E+00  1.60000000E+01
  1.00800000E+00  1.00800000E+00  1.60000000E+01  1.00800000E+00  1.00800000E+00
  1.60000000E+01  1.00800000E+00  1.00800000E+00  1.60000000E+01  1.00800000E+00
  1.00800000E+00  1.60000000E+01  1.00800000E+00  1.00800000E+00  1.60000000E+01
  1.00800000E+00  1.00800000E+00  1.60000000E+01  1.00800000E+00  1.00800000E+00
  1.60000000E+01  1.00800000E+00  1.00800000E+00  1.60000000E+01  1.00800000E+00
  1.00800000E+00  1.60000000E+01  1.00800000E+00  1.00800000E+00  1.60000000E+01
  1.00800000E+00  1.00800000E+00  1.60000000E+01  1.00800000E+00  1.00800000E+00
  1.60000000E+01  1.00800000E+00  1.00800000E+00  1.60000000E+01  1.00800000E+00
  1.00800000E+00  1.60000000E+01  1.00800000E+00  1.00800000E+00  1.60000000E+01
  1.00800000E+00  1.00800000E+00  1.60000000E+01  1.00800000E+00  1.00800000E+00
  1.60000000E+01  1.00800000E+00  1.00800000E+00  1.60000000E+01  1.00800000E+00
  1.00800000E+00  1.60000000E+01  1.00800000E+00  1.00800000E+00  1.60000000E+01
  1.00800000E+00  1.00800000E+00  1.60000000E+01  1.00800000E+00  1.00800000E+00
  1.60000000E+01  1.00800000E+00  1.00800000E+00  1.60000000E+01  1.00800000E+00
  1.00800000E+00  1.60000000E+01  1.00800000E+00  1.00800000E+00  1.60000000E+01
  1.00800000E+00  1.00800000E+00  1.60000000E+01  1.00800000E+00  1.00800000E+00
  1.60000000E+01  1.00800000E+00  1.00800000E+00  1.60000000E+01  1.00800000E+00
  1.00800000E+00  1.60000000E+01  1.00800000E+00  1.00800000E+00  1.60000000E+01
  1.00800000E+00  1.00800000E+00  1.60000000E+01  1.00800000E+00  1.00800000E+00
  1.60000000E+01  1.00800000E+00  1.00800000E+00  1.60000000E+01  1.00800000E+00
  1.00800000E+00  1.60000000E+01  1.00800000E+00  1.00800000E+00  1.60000000E+01
  1.00800000E+00  1.00800000E+00  1.60000000E+01  1.00800000E+00  1.00800000E+00
  1.60000000E+01  1.00800000E+00  1.00800000E+00  1.60000000E+01  1.00800000E+00
  1.00800000E+00  1.60000000E+01  1.00800000E+00  1.00800000E+00  1.60000000E+01
  1.00800000E+00  1.00800000E+00  1.60000000E+01  1.00800000E+00  1.00800000E+00
  1.60000000E+01  1.00800000E+00  1.00800000E+00  1.60000000E+01  1.00800000E+00
  1.00800000E+00  1.60000000E+01  1.00800000E+00  1.00800000E+00  1.60000000E+01
  1.00800000E+00  1.00800000E+00  1.60000000E+01  1.00800000E+00  1.00800000E+00
  1.60000000E+01  1.00800000E+00  1.00800000E+00  1.60000000E+01  1.00800000E+00
  1.00800000E+00  1.60000000E+01  1.00800000E+00  1.00800000E+00  1.60000000E+01
  1.00800000E+00  1.00800000E+00  1.60000000E+01  1.00800000E+00  1.00800000E+00
  1.60000000E+01  1.00800000E+00  1.00800000E+00  1.60000000E+01  1.00800000E+00
  1.00800000E+00  1.60000000E+01  1.00800000E+00  1.00800000E+00  1.60000000E+01
  1.00800000E+00  1.00800000E+00  1.60000000E+01  1.00800000E+00  1.00800000E+00
  1.60000000E+01  1.00800000E+00  1.00800000E+00  1.60000000E+01  1.00800000E+00
  1.00800000E+00  1.60000000E+01  1.00800000E+00  1.00800000E+00  1.60000000E+01
  1.00800000E+00  1.00800000E+00  1.60000000E+01  1.00800000E+00  1.00800000E+00
  1.60000000E+01  1.00800000E+00  1.00800000E+00  1.60000000E+01  1.00800000E+00
  1.00800000E+00  1.60000000E+01  1.00800000E+00  1.00800000E+00  1.60000000E+01
  1.00800000E+00  1.00800000E+00  1.60000000E+01  1.00800000E+00  1.00800000E+00
  1.60000000E+01  1.00800000E+00  1.00800000E+00  1.60000000E+01  1.00800000E+00
  1.00800000E+00  1.60000000E+01  1.00800000E+00  1.00800000E+00  1.60000000E+01
  1.00800000E+00  1.00800000E+00  1.60000000E+01  1.00800000E+00  1.00800000E+00
  1.60000000E+01  1.00800000E+00  1.00800000E+00  1.60000000E+01  1.00800000E+00
  1.00800000E+00  1.60000000E+01  1.00800000E+00  1.00800000E+00  1.60000000E+01
  1.00800000E+00  1.00800000E+00  1.60000000E+01  1.00800000E+00  1.00800000E+00
  1.60000000E+01  1.00800000E+00  1.00800000E+00  1.60000000E+01  1.00800000E+00
  1.00800000E+00  1.60000000E+01  1.00800000E+00  1.00800000E+00  1.60000000E+01
  1.00800000E+00  1.00800000E+00  1.60000000E+01  1.00800000E+00  1.00800000E+00
  1.60000000E+01  1.00800000E+00  1.00800000E+00  1.60000000E+01  1.00800000E+00
  1.00800000E+00  1.60000000E+01  1.00800000E+00  1.00800000E+00  1.60000000E+01
  1.00800000E+00  1.00800000E+00  1.60000000E+01  1.00800000E+00  1.00800000E+00
  1.60000000E+01  1.00800000E+00  1.00800000E+00  1.60000000E+01  1.00800000E+00
  1.00800000E+00  1.60000000E+01  1.00800000E+00  1.00800000E+00  1.60000000E+01
  1.00800000E+00  1.00800000E+00  1.60000000E+01  1.00800000E+00  1.00800000E+00
  1.60000000E+01  1.00800000E+00  1.00800000E+00  1.60000000E+01  1.00800000E+00
  1.00800000E+00  1.60000000E+01  1.00800000E+00  1.00800000E+00  1.60000000E+01
  1.00800000E+00  1.00800000E+00  1.60000000E+01  1.00800000E+00  1.00800000E+00
  1.60000000E+01  1.00800000E+00  1.00800000E+00  1.60000000E+01  1.00800000E+00
  1.00800000E+00  1.60000000E+01  1.00800000E+00  1.00800000E+00  1.60000000E+01
  1.00800000E+00  1.00800000E+00  1.60000000E+01  1.00800000E+00  1.00800000E+00
  1.60000000E+01  1.00800000E+00  1.00800000E+00  1.60000000E+01  1.00800000E+00
  1.00800000E+00  1.60000000E+01  1.00800000E+00  1.00800000E+00  1.60000000E+01
  1.00800000E+00  1.00800000E+00  1.60000000E+01  1.00800000E+00  1.00800000E+00
  1.60000000E+01  1.00800000E+00  1.00800000E+00  1.60000000E+01  1.00800000E+00
  1.00800000E+00  1.60000000E+01  1.00800000E+00  1.00800000E+00  1.60000000E+01
  1.00800000E+00  1.00800000E+00  1.60000000E+01  1.00800000E+00  1.00800000E+00
  1.60000000E+01  1.00800000E+00  1.00800000E+00  1.60000000E+01  1.00800000E+00
  1.00800000E+00  1.60000000E+01  1.00800000E+00  1.00800000E+00  1.60000000E+01
  1.00800000E+00  1.00800000E+00  1.60000000E+01  1.00800000E+00  1.00800000E+00
  1.60000000E+01  1.00800000E+00  1.00800000E+00  1.60000000E+01  1.00800000E+00
  1.00800000E+00  1.60000000E+01  1.00800000E+00  1.00800000E+00  1.60000000E+01
  1.00800000E+00  1.00800000E+00  1.60000000E+01  1.00800000E+00  1.00800000E+00
  1.60000000E+01  1.00800000E+00  1.00800000E+00  1.60000000E+01  1.00800000E+00
  1.00800000E+00  1.60000000E+01  1.00800000E+00  1.00800000E+00  1.60000000E+01
  1.00800000E+00  1.00800000E+00  1.60000000E+01  1.00800000E+00  1.00800000E+00
  1.60000000E+01  1.00800000E+00  1.00800000E+00  1.60000000E+01  1.00800000E+00
  1.00800000E+00  1.60000000E+01  1.00800000E+00  1.00800000E+00  1.60000000E+01
  1.00800000E+00  1.00800000E+00  1.60000000E+01  1.00800000E+00  1.00800000E+00
  1.60000000E+01  1.00800000E+00  1.00800000E+00  1.60000000E+01  1.00800000E+00
  1.00800000E+00  1.60000000E+01  1.00800000E+00  1.00800000E+00  1.60000000E+01
  1.00800000E+00  1.00800000E+00  1.60000000E+01  1.00800000E+00  1.00800000E+00
  1.60000000E+01  1.00800000E+00  1.00800000E+00  1.60000000E+01  1.00800000E+00
  1.00800000E+00  1.60000000E+01  1.00800000E+00  1.00800000E+00  1.60000000E+01
  1.00800000E+00  1.00800000E+00  1.60000000E+01  1.00800000E+00  1.00800000E+00
  1.60000000E+01  1.00800000E+00  1.00800000E+00  1.60000000E+01  1.00800000E+00
  1.00800000E+00  1.60000000E+01  1.00800000E+00  1.00800000E+00  1.60000000E+01
  1.00800000E+00  1.00800000E+00  1.60000000E+01  1.00800000E+00  1.00800000E+00
  1.60000000E+01  1.00800000E+00  1.00800000E+00  1.60000000E+01  1.00800000E+00
  1.00800000E+00  1.60000000E+01  1.00800000E+00  1.00800000E+00  1.60000000E+01
  1.00800000E+00  1.00800000E+00  1.60000000E+01  1.00800000E+00  1.00800000E+00
  1.60000000E+01  1.00800000E+00  1.00800000E+00  1.60000000E+01  1.00800000E+00
  1.00800000E+00  1.60000000E+01  1.00800000E+00  1.00800000E+00  1.60000000E+01
  1.00800000E+00  1.00800000E+00  1.60000000E+01  1.00800000E+00  1.00800000E+00
  1.60000000E+01  1.00800000E+00  1.00800000E+00  1.60000000E+01  1.00800000E+00
  1.00800000E+00  1.60000000E+01  1.00800000E+00  1.00800000E+00  1.60000000E+01
  1.00800000E+00  1.00800000E+00  1.60000000E+01  1.00800000E+00  1.00800000E+00
  1.60000000E+01  1.00800000E+00  1.00800000E+00  1.60000000E+01  1.00800000E+00
  1.00800000E+00  1.60000000E+01  1.00800000E+00  1.00800000E+00  1.60000000E+01
  1.00800000E+00  1.00800000E+00  1.60000000E+01  1.00800000E+00  1.00800000E+00
  1.60000000E+01  1.00800000E+00  1.00800000E+00  1.60000000E+01  1.00800000E+00
  1.00800000E+00  1.60000000E+01  1.00800000E+00  1.00800000E+00  1.60000000E+01
  1.00800000E+00  1.00800000E+00  1.60000000E+01  1.00800000E+00  1.00800000E+00
  1.60000000E+01  1.00800000E+00  1.00800000E+00  1.60000000E+01  1.00800000E+00
  1.00800000E+00  1.60000000E+01  1.00800000E+00  1.00800000E+00  1.60000000E+01
  1.00800000E+00  1.00800000E+00  1.60000000E+01  1.00800000E+00  1.00800000E+00
  1.60000000E+01  1.00800000E+00  1.00800000E+00  1.60000000E+01  1.00800000E+00
  1.00800000E+00  1.60000000E+01  1.00800000E+00  1.00800000E+00  1.60000000E+01
  1.00800000E+00  1.00800000E+00  1.60000000E+01  1.00800000E+00  1.00800000E+00
  1.60000000E+01  1.00800000E+00  1.00800000E+00  1.60000000E+01  1.00800000E+00
  1.00800000E+00  1.60000000E+01  1.00800000E+00  1.00800000E+00  1.60000000E+01
  1.00800000E+00  1.00800000E+00  1.60000000E+01  1.00800000E+00  1.00800000E+00
  1.60000000E+01  1.00800000E+00  1.00800000E+00  1.60000000E+01  1.00800000E+00
  1.00800000E+00  1.60000000E+01  1.00800000E+00  1.00800000E+00  1.60000000E+01
  1.00800000E+00  1.00800000E+00  1.60000000E+01  1.00800000E+00  1.00800000E+00
  1.60000000E+01  1.00800000E+00  1.00800000E+00  1.60000000E+01  1.00800000E+00
  1.00800000E+00  1.60000000E+01  1.00800000E+00  1.00800000E+00  1.60000000E+01
  1.00800000E+00  1.00800000E+00  1.60000000E+01  1.00800000E+00  1.00800000E+00
  1.60000000E+01  1.00800000E+00  1.00800000E+00  1.60000000E+01  1.00800000E+00
  1.00800000E+00  1.60000000E+01  1.00800000E+00  1.00800000E+00  1.60000000E+01
  1.00800000E+00  1.00800000E+00  1.60000000E+01  1.00800000E+00  1.00800000E+00
  1.60000000E+01  1.00800000E+00  1.00800000E+00  1.60000000E+01  1.00800000E+00
  1.00800000E+00  1.60000000E+01  1.00800000E+00  1.00800000E+00  1.60000000E+01
  1.00800000E+00  1.00800000E+00  1.60000000E+01  1.00800000E+00  1.00800000E+00
  1.60000000E+01  1.00800000E+00  1.00800000E+00  1.60000000E+01  1.00800000E+00
  1.00800000E+00  1.60000000E+01  1.00800000E+00  1.00800000E+00  1.60000000E+01
  1.00800000E+00  1.00800000E+00  1.60000000E+01  1.00800000E+00  1.00800000E+00
  1.60000000E+01  1.00800000E+00  1.00800000E+00  1.60000000E+01  1.00800000E+00
  1.00800000E+00  1.60000000E+01  1.00800000E+00  1.00800000E+00  1.60000000E+01
  1.00800000E+00  1.00800000E+00  1.60000000E+01  1.00800000E+00  1.00800000E+00
  1.60000000E+01  1.00800000E+00  1.00800000E+00  1.60000000E+01  1.00800000E+00
  1.00800000E+00  1.60000000E+01  1.00800000E+00  1.00800000E+00  1.60000000E+01
  1.00800000E+00  1.00800000E+00  1.60000000E+01  1.00800000E+00  1.00800000E+00
  1.60000000E+01  1.00800000E+00  1.00800000E+00  1.60000000E+01  1.00800000E+00
  1.00800000E+00  1.60000000E+01  1.00800000E+00  1.00800000E+00  1.60000000E+01
  1.00800000E+00  1.00800000E+00  1.60000000E+01  1.00800000E+00  1.00800000E+00
  1.60000000E+01  1.00800000E+00  1.00800000E+00  1.60000000E+01  1.00800000E+00
  1.00800000E+00  1.60000000E+01  1.00800000E+00  1.00800000E+00  1.60000000E+01
  1.00800000E+00  1.00800000E+00  1.60000000E+01  1.00800000E+00  1.00800000E+00
  1.60000000E+01  1.00800000E+00  1.00800000E+00  1.60000000E+01  1.00800000E+00
  1.00800000E+00  1.60000000E+01  1.00800000E+00  1.00800000E+00  1.60000000E+01
  1.00800000E+00  1.00800000E+00  1.60000000E+01  1.00800000E+00  1.00800000E+00
  1.60000000E+01  1.00800000E+00  1.00800000E+00  1.60000000E+01  1.00800000E+00
  1.00800000E+00  1.60000000E+01  1.00800000E+00  1.00800000E+00  1.60000000E+01
  1.00800000E+00  1.00800000E+00  1.60000000E+01  1.00800000E+00  1.00800000E+00
  1.60000000E+01  1.00800000E+00  1.00800000E+00  1.60000000E+01  1.00800000E+00
  1.00800000E+00  1.60000000E+01  1.00800000E+00  1.00800000E+00  1.60000000E+01
  1.00800000E+00  1.00800000E+00  1.60000000E+01  1.00800000E+00  1.00800000E+00
  1.60000000E+01  1.00800000E+00  1.00800000E+00  1.60000000E+01  1.00800000E+00
  1.00800000E+00  1.60000000E+01  1.00800000E+00  1.00800000E+00  1.60000000E+01
  1.00800000E+00  1.00800000E+00  1.60000000E+01  1.00800000E+00  1.00800000E+00
  1.60000000E+01  1.00800000E+00  1.00800000E+00  1.60000000E+01  1.00800000E+00
  1.00800000E+00  1.60000000E+01  1.00800000E+00  1.00800000E+00  1.60000000E+01
  1.00800000E+00  1.00800000E+00  1.60000000E+01  1.00800000E+00  1.00800000E+00
  1.60000000E+01  1.00800000E+00  1.00800000E+00  1.60000000E+01  1.00800000E+00
  1.00800000E+00  1.60000000E+01  1.00800000E+00  1.00800000E+00  1.60000000E+01
  1.00800000E+00  1.00800000E+00  1.60000000E+01  1.00800000E+00  1.00800000E+00
  1.60000000E+01  1.00800000E+00  1.00800000E+00  1.60000000E+01  1.00800000E+00
  1.00800000E+00  1.60000000E+01  1.00800000E+00  1.00800000E+00  1.60000000E+01
  1.00800000E+00  1.00800000E+00  1.60000000E+01  1.00800000E+00  1.00800000E+00
  1.60000000E+01  1.00800000E+00  1.00800000E+00  1.60000000E+01  1.00800000E+00
  1.00800000E+00  1.60000000E+01  1.00800000E+00  1.00800000E+00  1.60000000E+01
  1.00800000E+00  1.00800000E+00  1.60000000E+01  1.00800000E+00  1.00800000E+00
  1.60000000E+01  1.00800000E+00  1.00800000E+00  1.60000000E+01  1.00800000E+00
  1.00800000E+00  1.60000000E+01  1.00800000E+00  1.00800000E+00  1.60000000E+01
  1.00800000E+00  1.00800000E+00  1.60000000E+01  1.00800000E+00  1.00800000E+00
  1.60000000E+01  1.00800000E+00  1.00800000E+00  1.60000000E+01  1.00800000E+00
  1.00800000E+00  1.60000000E+01  1.00800000E+00  1.00800000E+00  1.60000000E+01
  1.00800000E+00  1.00800000E+00  1.60000000E+01  1.00800000E+00  1.00800000E+00
  1.60000000E+01  1.00800000E+00  1.00800000E+00  1.60000000E+01  1.00800000E+00
  1.00800000E+00  1.60000000E+01  1.00800000E+00  1.00800000E+00  1.60000000E+01
  1.00800000E+00  1.00800000E+00  1.60000000E+01  1.00800000E+00  1.00800000E+00
  1.60000000E+01  1.00800000E+00  1.00800000E+00  1.60000000E+01  1.00800000E+00
  1.00800000E+00  1.60000000E+01  1.00800000E+00  1.00800000E+00  1.60000000E+01
  1.00800000E+00  1.00800000E+00  1.60000000E+01  1.00800000E+00  1.00800000E+00
  1.60000000E+01  1.00800000E+00  1.00800000E+00  1.60000000E+01  1.00800000E+00
  1.00800000E+00  1.60000000E+01  1.00800000E+00  1.00800000E+00  1.60000000E+01
  1.00800000E+00  1.00800000E+00  1.60000000E+01  1.00800000E+00  1.00800000E+00
  1.60000000E+01  1.00800000E+00  1.00800000E+00  1.60000000E+01  1.00800000E+00
  1.00800000E+00  1.60000000E+01  1.00800000E+00  1.00800000E+00  1.60000000E+01
  1.00800000E+00  1.00800000E+00  1.60000000E+01  1.00800000E+00  1.00800000E+00
  1.60000000E+01  1.00800000E+00  1.00800000E+00  1.60000000E+01  1.00800000E+00
  1.00800000E+00  1.60000000E+01  1.00800000E+00  1.00800000E+00  1.60000000E+01
  1.00800000E+00  1.00800000E+00  1.60000000E+01  1.00800000E+00  1.00800000E+00
  1.60000000E+01  1.00800000E+00  1.00800000E+00  1.60000000E+01  1.00800000E+00
  1.00800000E+00  1.60000000E+01  1.00800000E+00  1.00800000E+00  1.60000000E+01
  1.00800000E+00  1.00800000E+00  1.60000000E+01  1.00800000E+00  1.00800000E+00
  1.60000000E+01  1.00800000E+00  1.00800000E+00  1.60000000E+01  1.00800000E+00
  1.00800000E+00  1.60000000E+01  1.00800000E+00  1.00800000E+00  1.60000000E+01
  1.00800000E+00  1.00800000E+00  1.60000000E+01  1.00800000E+00  1.00800000E+00
  1.60000000E+01  1.00800000E+00  1.00800000E+00  1.60000000E+01  1.00800000E+00
  1.00800000E+00  1.60000000E+01  1.00800000E+00  1.00800000E+00  1.60000000E+01
  1.00800000E+00  1.00800000E+00  1.60000000E+01  1.00800000E+00  1.00800000E+00
  1.60000000E+01  1.00800000E+00  1.00800000E+00  1.60000000E+01  1.00800000E+00
  1.00800000E+00  1.60000000E+01  1.00800000E+00  1.00800000E+00  1.60000000E+01
  1.00800000E+00  1.00800000E+00  1.60000000E+01  1.00800000E+00  1.00800000E+00
  1.60000000E+01  1.00800000E+00  1.00800000E+00  1.60000000E+01  1.00800000E+00
  1.00800000E+00  1.60000000E+01  1.00800000E+00  1.00800000E+00  1.60000000E+01
  1.00800000E+00  1.00800000E+00  1.60000000E+01  1.00800000E+00  1.00800000E+00
  1.60000000E+01  1.00800000E+00  1.00800000E+00  1.60000000E+01  1.00800000E+00
  1.00800000E+00  1.60000000E+01  1.00800000E+00  1.00800000E+00  1.60000000E+01
  1.00800000E+00  1.00800000E+00  1.60000000E+01  1.00800000E+00  1.00800000E+00
  1.60000000E+01  1.00800000E+00  1.00800000E+00  1.60000000E+01  1.00800000E+00
  1.00800000E+00  1.60000000E+01  1.00800000E+00  1.00800000E+00  1.60000000E+01
  1.00800000E+00  1.00800000E+00  1.60000000E+01  1.00800000E+00  1.00800000E+00
  1.60000000E+01  1.00800000E+00  1.00800000E+00  1.60000000E+01  1.00800000E+00
  1.00800000E+00  1.60000000E+01  1.00800000E+00  1.00800000E+00  1.60000000E+01
  1.00800000E+00  1.00800000E+00  1.60000000E+01  1.00800000E+00  1.00800000E+00
  1.60000000E+01  1.00800000E+00  1.00800000E+00  1.60000000E+01  1.00800000E+00
  1.00800000E+00  1.60000000E+01  1.00800000E+00  1.00800000E+00  1.60000000E+01
  1.00800000E+00  1.00800000E+00  1.60000000E+01  1.00800000E+00  1.00800000E+00
  1.60000000E+01  1.00800000E+00  1.00800000E+00  1.60000000E+01  1.00800000E+00
  1.00800000E+00  1.60000000E+01  1.00800000E+00  1.00800000E+00  1.60000000E+01
  1.00800000E+00  1.00800000E+00  1.60000000E+01  1.00800000E+00  1.00800000E+00
  1.60000000E+01  1.00800000E+00  1.00800000E+00  1.60000000E+01  1.00800000E+00
  1.00800000E+00  1.60000000E+01  1.00800000E+00  1.00800000E+00  1.60000000E+01
  1.00800000E+00  1.00800000E+00  1.60000000E+01  1.00800000E+00  1.00800000E+00
  1.60000000E+01  1.00800000E+00  1.00800000E+00  1.60000000E+01  1.00800000E+00
  1.00800000E+00  1.60000000E+01  1.00800000E+00  1.00800000E+00  1.60000000E+01
  1.00800000E+00  1.00800000E+00  1.60000000E+01  1.00800000E+00  1.00800000E+00
  1.60000000E+01  1.00800000E+00  1.00800000E+00  1.60000000E+01  1.00800000E+00
  1.00800000E+00  1.60000000E+01  1.00800000E+00  1.00800000E+00  1.60000000E+01
  1.00800000E+00  1.00800000E+00  1.60000000E+01  1.00800000E+00  1.00800000E+00
  1.60000000E+01  1.00800000E+00  1.00800000E+00  1.60000000E+01  1.00800000E+00
  1.00800000E+00  1.60000000E+01  1.00800000E+00  1.00800000E+00  1.60000000E+01
  1.00800000E+00  1.00800000E+00  1.60000000E+01  1.00800000E+00  1.00800000E+00
  1.60000000E+01  1.00800000E+00  1.00800000E+00  1.60000000E+01  1.00800000E+00
  1.00800000E+00  1.60000000E+01  1.00800000E+00  1.00800000E+00  1.60000000E+01
  1.00800000E+00  1.00800000E+00  1.60000000E+01  1.00800000E+00  1.00800000E+00
  1.60000000E+01  1.00800000E+00  1.00800000E+00  1.60000000E+01  1.00800000E+00
  1.00800000E+00  1.60000000E+01  1.00800000E+00  1.00800000E+00  1.60000000E+01
  1.00800000E+00  1.00800000E+00  1.60000000E+01  1.00800000E+00  1.00800000E+00
  1.60000000E+01  1.00800000E+00  1.00800000E+00  1.60000000E+01  1.00800000E+00
  1.00800000E+00  1.60000000E+01  1.00800000E+00  1.00800000E+00  1.60000000E+01
  1.00800000E+00  1.00800000E+00  1.60000000E+01  1.00800000E+00  1.00800000E+00
  1.60000000E+01  1.00800000E+00  1.00800000E+00  1.60000000E+01  1.00800000E+00
  1.00800000E+00  1.60000000E+01  1.00800000E+00  1.00800000E+00  1.60000000E+01
  1.00800000E+00  1.00800000E+00  1.60000000E+01  1.00800000E+00  1.00800000E+00
  1.60000000E+01  1.00800000E+00  1.00800000E+00  1.60000000E+01  1.00800000E+00
  1.00800000E+00  1.60000000E+01  1.00800000E+00  1.00800000E+00  1.60000000E+01
  1.00800000E+00  1.00800000E+00  1.60000000E+01  1.00800000E+00  1.00800000E+00
  1.60000000E+01  1.00800000E+00  1.00800000E+00  1.60000000E+01  1.00800000E+00
  1.00800000E+00  1.60000000E+01  1.00800000E+00  1.00800000E+00  1.60000000E+01
  1.00800000E+00  1.00800000E+00  1.60000000E+01  1.00800000E+00  1.00800000E+00
  1.60000000E+01  1.00800000E+00  1.00800000E+00  1.60000000E+01  1.00800000E+00
  1.00800000E+00  1.60000000E+01  1.00800000E+00  1.00800000E+00  1.60000000E+01
  1.00800000E+00  1.00800000E+00  1.60000000E+01  1.00800000E+00  1.00800000E+00
  1.60000000E+01  1.00800000E+00  1.00800000E+00  1.60000000E+01  1.00800000E+00
  1.00800000E+00  1.60000000E+01  1.00800000E+00  1.00800000E+00  1.60000000E+01
  1.00800000E+00  1.00800000E+00  1.60000000E+01  1.00800000E+00  1.00800000E+00
  1.60000000E+01  1.00800000E+00  1.00800000E+00  1.60000000E+01  1.00800000E+00
  1.00800000E+00  1.60000000E+01  1.00800000E+00  1.00800000E+00  1.60000000E+01
  1.00800000E+00  1.00800000E+00  1.60000000E+01  1.00800000E+00  1.00800000E+00
  1.60000000E+01  1.00800000E+00  1.00800000E+00  1.60000000E+01  1.00800000E+00
  1.00800000E+00  1.60000000E+01  1.00800000E+00  1.00800000E+00  1.60000000E+01
  1.00800000E+00  1.00800000E+00  1.60000000E+01  1.00800000E+00  1.00800000E+00
  1.60000000E+01  1.00800000E+00  1.00800000E+00  1.60000000E+01  1.00800000E+00
  1.00800000E+00  1.60000000E+01  1.00800000E+00  1.00800000E+00  1.60000000E+01
  1.00800000E+00  1.00800000E+00  1.60000000E+01  1.00800000E+00  1.00800000E+00
  1.60000000E+01  1.00800000E+00  1.00800000E+00  1.60000000E+01  1.00800000E+00
  1.00800000E+00  1.60000000E+01  1.00800000E+00  1.00800000E+00  1.60000000E+01
  1.00800000E+00  1.00800000E+00  1.60000000E+01  1.00800000E+00  1.00800000E+00
  1.60000000E+01  1.00800000E+00  1.00800000E+00  1.60000000E+01  1.00800000E+00
  1.00800000E+00  1.60000000E+01  1.00800000E+00  1.00800000E+00  1.60000000E+01
  1.00800000E+00  1.00800000E+00  1.60000000E+01  1.00800000E+00  1.00800000E+00
  1.60000000E+01  1.00800000E+00  1.00800000E+00  1.60000000E+01  1.00800000E+00
  1.00800000E+00  1.60000000E+01  1.00800000E+00  1.00800000E+00  1.60000000E+01
  1.00800000E+00  1.00800000E+00  1.60000000E+01  1.00800000E+00  1.00800000E+00
  1.60000000E+01  1.00800000E+00  1.00800000E+00  1.60000000E+01  1.00800000E+00
  1.00800000E+00  1.60000000E+01  1.00800000E+00  1.00800000E+00  1.60000000E+01
  1.00800000E+00  1.00800000E+00  1.60000000E+01  1.00800000E+00  1.00800000E+00
  1.60000000E+01  1.00800000E+00  1.00800000E+00  1.60000000E+01  1.00800000E+00
  1.00800000E+00  1.60000000E+01  1.00800000E+00  1.00800000E+00  1.60000000E+01
  1.00800000E+00  1.00800000E+00  1.60000000E+01  1.00800000E+00  1.00800000E+00
  1.60000000E+01  1.00800000E+00  1.00800000E+00  1.60000000E+01  1.00800000E+00
  1.00800000E+00  1.60000000E+01  1.00800000E+00  1.00800000E+00  1.60000000E+01
  1.00800000E+00  1.00800000E+00  1.60000000E+01  1.00800000E+00  1.00800000E+00
  1.60000000E+01  1.00800000E+00  1.00800000E+00  1.60000000E+01  1.00800000E+00
  1.00800000E+00  1.60000000E+01  1.00800000E+00  1.00800000E+00  1.60000000E+01
  1.00800000E+00  1.00800000E+00  1.60000000E+01  1.00800000E+00  1.00800000E+00
  1.60000000E+01  1.00800000E+00  1.00800000E+00  1.60000000E+01  1.00800000E+00
  1.00800000E+00  1.60000000E+01  1.00800000E+00  1.00800000E+00  1.60000000E+01
  1.00800000E+00  1.00800000E+00  1.60000000E+01  1.00800000E+00  1.00800000E+00
  1.60000000E+01  1.00800000E+00  1.00800000E+00  1.60000000E+01  1.00800000E+00
  1.00800000E+00  1.60000000E+01  1.00800000E+00  1.00800000E+00  1.60000000E+01
  1.00800000E+00  1.00800000E+00  1.60000000E+01  1.00800000E+00  1.00800000E+00
  1.60000000E+01  1.00800000E+00  1.00800000E+00  1.60000000E+01  1.00800000E+00
  1.00800000E+00  1.60000000E+01  1.00800000E+00  1.00800000E+00  1.60000000E+01
  1.00800000E+00  1.00800000E+00  1.60000000E+01  1.00800000E+00  1.00800000E+00
  1.60000000E+01  1.00800000E+00  1.00800000E+00  1.60000000E+01  1.00800000E+00
  1.00800000E+00  1.60000000E+01  1.00800000E+00  1.00800000E+00  1.60000000E+01
  1.00800000E+00  1.00800000E+00  1.60000000E+01  1.00800000E+00  1.00800000E+00
  1.60000000E+01  1.00800000E+00  1.00800000E+00  1.60000000E+01  1.00800000E+00
  1.00800000E+00  1.60000000E+01  1.00800000E+00  1.00800000E+00  1.60000000E+01
  1.00800000E+00  1.00800000E+00  1.60000000E+01  1.00800000E+00  1.00800000E+00
  1.60000000E+01  1.00800000E+00  1.00800000E+00  1.60000000E+01  1.00800000E+00
  1.00800000E+00  1.60000000E+01  1.00800000E+00  1.00800000E+00  1.60000000E+01
  1.00800000E+00  1.00800000E+00  1.60000000E+01  1.00800000E+00  1.00800000E+00
  1.60000000E+01  1.00800000E+00  1.00800000E+00  1.60000000E+01  1.00800000E+00
  1.00800000E+00  1.60000000E+01  1.00800000E+00  1.00800000E+00  1.60000000E+01
  1.00800000E+00  1.00800000E+00  1.60000000E+01  1.00800000E+00  1.00800000E+00
  1.60000000E+01  1.00800000E+00  1.00800000E+00  1.60000000E+01  1.00800000E+00
  1.00800000E+00  1.60000000E+01  1.00800000E+00  1.00800000E+00  1.60000000E+01
  1.00800000E+00  1.00800000E+00  1.60000000E+01  1.00800000E+00  1.00800000E+00
  1.60000000E+01  1.00800000E+00  1.00800000E+00  1.60000000E+01  1.00800000E+00
  1.00800000E+00  1.60000000E+01  1.00800000E+00  1.00800000E+00  1.60000000E+01
  1.00800000E+00  1.00800000E+00  1.60000000E+01  1.00800000E+00  1.00800000E+00
  1.60000000E+01  1.00800000E+00  1.00800000E+00  1.60000000E+01  1.00800000E+00
  1.00800000E+00  1.60000000E+01  1.00800000E+00  1.00800000E+00  1.60000000E+01
  1.00800000E+00  1.00800000E+00  1.60000000E+01  1.00800000E+00  1.00800000E+00
  1.60000000E+01  1.00800000E+00  1.00800000E+00  1.60000000E+01  1.00800000E+00
  1.00800000E+00  1.60000000E+01  1.00800000E+00  1.00800000E+00  1.60000000E+01
  1.00800000E+00  1.00800000E+00  1.60000000E+01  1.00800000E+00  1.00800000E+00
  1.60000000E+01  1.00800000E+00  1.00800000E+00  1.60000000E+01  1.00800000E+00
  1.00800000E+00  1.60000000E+01  1.00800000E+00  1.00800000E+00  1.60000000E+01
  1.00800000E+00  1.00800000E+00  1.60000000E+01  1.00800000E+00  1.00800000E+00
  1.60000000E+01  1.00800000E+00  1.00800000E+00  1.60000000E+01  1.00800000E+00
  1.00800000E+00  1.60000000E+01  1.00800000E+00  1.00800000E+00  1.60000000E+01
  1.00800000E+00  1.00800000E+00  1.60000000E+01  1.00800000E+00  1.00800000E+00
  1.60000000E+01  1.00800000E+00  1.00800000E+00  1.60000000E+01  1.00800000E+00
  1.00800000E+00  1.60000000E+01  1.00800000E+00  1.00800000E+00  1.60000000E+01
  1.00800000E+00  1.00800000E+00  1.60000000E+01  1.00800000E+00  1.00800000E+00
  1.60000000E+01  1.00800000E+00  1.00800000E+00  1.60000000E+01  1.00800000E+00
  1.00800000E+00  1.60000000E+01  1.00800000E+00  1.00800000E+00  1.60000000E+01
  1.00800000E+00  1.00800000E+00  1.60000000E+01  1.00800000E+00  1.00800000E+00
  1.60000000E+01  1.00800000E+00  1.00800000E+00  1.60000000E+01  1.00800000E+00
  1.00800000E+00  1.60000000E+01  1.00800000E+00  1.00800000E+00  1.60000000E+01
  1.00800000E+00  1.00800000E+00  1.60000000E+01  1.00800000E+00  1.00800000E+00
  1.60000000E+01  1.00800000E+00  1.00800000E+00  1.60000000E+01  1.00800000E+00
  1.00800000E+00  1.60000000E+01  1.00800000E+00  1.00800000E+00  1.60000000E+01
  1.00800000E+00  1.00800000E+00  1.60000000E+01  1.00800000E+00  1.00800000E+00
  1.60000000E+01  1.00800000E+00  1.00800000E+00  1.60000000E+01  1.00800000E+00
  1.00800000E+00  1.60000000E+01  1.00800000E+00  1.00800000E+00  1.60000000E+01
  1.00800000E+00  1.00800000E+00  1.60000000E+01  1.00800000E+00  1.00800000E+00
  1.60000000E+01  1.00800000E+00  1.00800000E+00  1.60000000E+01  1.00800000E+00
  1.00800000E+00  1.60000000E+01  1.00800000E+00  1.00800000E+00  1.60000000E+01
  1.00800000E+00  1.00800000E+00  1.60000000E+01  1.00800000E+00  1.00800000E+00
  1.60000000E+01  1.00800000E+00  1.00800000E+00  1.60000000E+01  1.00800000E+00
  1.00800000E+00  1.60000000E+01  1.00800000E+00  1.00800000E+00  1.60000000E+01
  1.00800000E+00  1.00800000E+00  1.60000000E+01  1.00800000E+00  1.00800000E+00
  1.60000000E+01  1.00800000E+00  1.00800000E+00  1.60000000E+01  1.00800000E+00
  1.00800000E+00  1.60000000E+01  1.00800000E+00  1.00800000E+00  1.60000000E+01
  1.00800000E+00  1.00800000E+00  1.60000000E+01  1.00800000E+00  1.00800000E+00
  1.60000000E+01  1.00800000E+00  1.00800000E+00  1.60000000E+01  1.00800000E+00
  1.00800000E+00  1.60000000E+01  1.00800000E+00  1.00800000E+00  1.60000000E+01
  1.00800000E+00  1.00800000E+00  1.60000000E+01  1.00800000E+00  1.00800000E+00
  1.60000000E+01  1.00800000E+00  1.00800000E+00  1.60000000E+01  1.00800000E+00
  1.00800000E+00  1.60000000E+01  1.00800000E+00  1.00800000E+00  1.60000000E+01
  1.00800000E+00  1.00800000E+00  1.60000000E+01  1.00800000E+00  1.00800000E+00
  1.60000000E+01  1.00800000E+00  1.00800000E+00  1.60000000E+01  1.00800000E+00
  1.00800000E+00  1.60000000E+01  1.00800000E+00  1.00800000E+00  1.60000000E+01
  1.00800000E+00  1.00800000E+00  1.60000000E+01  1.00800000E+00  1.00800000E+00
  1.60000000E+01  1.00800000E+00  1.00800000E+00  1.60000000E+01  1.00800000E+00
  1.00800000E+00  1.60000000E+01  1.00800000E+00  1.00800000E+00  1.60000000E+01
  1.00800000E+00  1.00800000E+00  1.60000000E+01  1.00800000E+00  1.00800000E+00
  1.60000000E+01  1.00800000E+00  1.00800000E+00  1.60000000E+01  1.00800000E+00
  1.00800000E+00  1.60000000E+01  1.00800000E+00  1.00800000E+00  1.60000000E+01
  1.00800000E+00  1.00800000E+00  1.60000000E+01  1.00800000E+00  1.00800000E+00
  1.60000000E+01  1.00800000E+00  1.00800000E+00  1.60000000E+01  1.00800000E+00
  1.00800000E+00  1.60000000E+01  1.00800000E+00  1.00800000E+00  1.60000000E+01
  1.00800000E+00  1.00800000E+00  1.60000000E+01  1.00800000E+00  1.00800000E+00
  1.60000000E+01  1.00800000E+00  1.00800000E+00  1.60000000E+01  1.00800000E+00
  1.00800000E+00  1.60000000E+01  1.00800000E+00  1.00800000E+00  1.60000000E+01
  1.00800000E+00  1.00800000E+00  1.60000000E+01  1.00800000E+00  1.00800000E+00
  1.60000000E+01  1.00800000E+00  1.00800000E+00  1.60000000E+01  1.00800000E+00
  1.00800000E+00  1.60000000E+01  1.00800000E+00  1.00800000E+00  1.60000000E+01
  1.00800000E+00  1.00800000E+00  1.60000000E+01  1.00800000E+00  1.00800000E+00
  1.60000000E+01  1.00800000E+00  1.00800000E+00  1.60000000E+01  1.00800000E+00
  1.00800000E+00  1.60000000E+01  1.00800000E+00  1.00800000E+00  1.60000000E+01
  1.00800000E+00  1.00800000E+00  1.60000000E+01  1.00800000E+00  1.00800000E+00
  1.60000000E+01  1.00800000E+00  1.00800000E+00  1.60000000E+01  1.00800000E+00
  1.00800000E+00  1.60000000E+01  1.00800000E+00  1.00800000E+00  1.60000000E+01
  1.00800000E+00  1.00800000E+00  1.60000000E+01  1.00800000E+00  1.00800000E+00
  1.60000000E+01  1.00800000E+00  1.00800000E+00  1.60000000E+01  1.00800000E+00
  1.00800000E+00  1.60000000E+01  1.00800000E+00  1.00800000E+00  1.60000000E+01
  1.00800000E+00  1.00800000E+00  1.60000000E+01  1.00800000E+00  1.00800000E+00
  1.60000000E+01  1.00800000E+00  1.00800000E+00  1.60000000E+01  1.00800000E+00
  1.00800000E+00  1.60000000E+01  1.00800000E+00  1.00800000E+00  1.60000000E+01
  1.00800000E+00  1.00800000E+00  1.60000000E+01  1.00800000E+00  1.00800000E+00
  1.60000000E+01  1.00800000E+00  1.00800000E+00  1.60000000E+01  1.00800000E+00
  1.00800000E+00  1.60000000E+01  1.00800000E+00  1.00800000E+00  1.60000000E+01
  1.00800000E+00  1.00800000E+00  1.60000000E+01  1.00800000E+00  1.00800000E+00
  1.60000000E+01  1.00800000E+00  1.00800000E+00  1.60000000E+01  1.00800000E+00
  1.00800000E+00  1.60000000E+01  1.00800000E+00  1.00800000E+00  1.60000000E+01
  1.00800000E+00  1.00800000E+00  1.60000000E+01  1.00800000E+00  1.00800000E+00
  1.60000000E+01  1.00800000E+00  1.00800000E+00  1.60000000E+01  1.00800000E+00
  1.00800000E+00  1.60000000E+01  1.00800000E+00  1.00800000E+00  1.60000000E+01
  1.00800000E+00  1.00800000E+00  1.60000000E+01  1.00800000E+00  1.00800000E+00
  1.60000000E+01  1.00800000E+00  1.00800000E+00  1.60000000E+01  1.00800000E+00
  1.00800000E+00  1.60000000E+01  1.00800000E+00  1.00800000E+00  1.60000000E+01
  1.00800000E+00  1.00800000E+00  1.60000000E+01  1.00800000E+00  1.00800000E+00
  1.60000000E+01  1.00800000E+00  1.00800000E+00  1.60000000E+01  1.00800000E+00
  1.00800000E+00  1.60000000E+01  1.00800000E+00  1.00800000E+00  1.60000000E+01
  1.00800000E+00  1.00800000E+00  1.60000000E+01  1.00800000E+00  1.00800000E+00
  1.60000000E+01  1.00800000E+00  1.00800000E+00  1.60000000E+01  1.00800000E+00
  1.00800000E+00  1.60000000E+01  1.00800000E+00  1.00800000E+00  1.60000000E+01
  1.00800000E+00  1.00800000E+00  1.60000000E+01  1.00800000E+00  1.00800000E+00
  1.60000000E+01  1.00800000E+00  1.00800000E+00  1.60000000E+01  1.00800000E+00
  1.00800000E+00  1.60000000E+01  1.00800000E+00  1.00800000E+00  1.60000000E+01
  1.00800000E+00  1.00800000E+00  1.60000000E+01  1.00800000E+00  1.00800000E+00
  1.60000000E+01  1.00800000E+00  1.00800000E+00  1.60000000E+01  1.00800000E+00
  1.00800000E+00  1.60000000E+01  1.00800000E+00  1.00800000E+00  1.60000000E+01
  1.00800000E+00  1.00800000E+00  1.60000000E+01  1.00800000E+00  1.00800000E+00
  1.60000000E+01  1.00800000E+00  1.00800000E+00  1.60000000E+01  1.00800000E+00
  1.00800000E+00  1.60000000E+01  1.00800000E+00  1.00800000E+00  1.60000000E+01
  1.00800000E+00  1.00800000E+00  1.60000000E+01  1.00800000E+00  1.00800000E+00
  1.60000000E+01  1.00800000E+00  1.00800000E+00  1.60000000E+01  1.00800000E+00
  1.00800000E+00  1.60000000E+01  1.00800000E+00  1.00800000E+00  1.60000000E+01
  1.00800000E+00  1.00800000E+00  1.60000000E+01  1.00800000E+00  1.00800000E+00
  1.60000000E+01  1.00800000E+00  1.00800000E+00  1.60000000E+01  1.00800000E+00
  1.00800000E+00  1.60000000E+01  1.00800000E+00  1.00800000E+00  1.60000000E+01
  1.00800000E+00  1.00800000E+00  1.60000000E+01  1.00800000E+00  1.00800000E+00
  1.60000000E+01  1.00800000E+00  1.00800000E+00  1.60000000E+01  1.00800000E+00
  1.00800000E+00  1.60000000E+01  1.00800000E+00  1.00800000E+00  1.60000000E+01
  1.00800000E+00  1.00800000E+00  1.60000000E+01  1.00800000E+00  1.00800000E+00
  1.60000000E+01  1.00800000E+00  1.00800000E+00  1.60000000E+01  1.00800000E+00
  1.00800000E+00  1.60000000E+01  1.00800000E+00  1.00800000E+00  1.60000000E+01
  1.00800000E+00  1.00800000E+00  1.60000000E+01  1.00800000E+00  1.00800000E+00
  1.60000000E+01  1.00800000E+00  1.00800000E+00  1.60000000E+01  1.00800000E+00
  1.00800000E+00  1.60000000E+01  1.00800000E+00  1.00800000E+00  1.60000000E+01
  1.00800000E+00  1.00800000E+00  1.60000000E+01  1.00800000E+00  1.00800000E+00
  1.60000000E+01  1.00800000E+00  1.00800000E+00  1.60000000E+01  1.00800000E+00
  1.00800000E+00  1.60000000E+01  1.00800000E+00  1.00800000E+00  1.60000000E+01
  1.00800000E+00  1.00800000E+00  1.60000000E+01  1.00800000E+00  1.00800000E+00
  1.60000000E+01  1.00800000E+00  1.00800000E+00  1.60000000E+01  1.00800000E+00
  1.00800000E+00  1.60000000E+01  1.00800000E+00  1.00800000E+00  1.60000000E+01
  1.00800000E+00  1.00800000E+00  1.60000000E+01  1.00800000E+00  1.00800000E+00
  1.60000000E+01  1.00800000E+00  1.00800000E+00  1.60000000E+01  1.00800000E+00
  1.00800000E+00  1.60000000E+01  1.00800000E+00  1.00800000E+00  1.60000000E+01
  1.00800000E+00  1.00800000E+00  1.60000000E+01  1.00800000E+00  1.00800000E+00
  1.60000000E+01  1.00800000E+00  1.00800000E+00  1.60000000E+01  1.00800000E+00
  1.00800000E+00  1.60000000E+01  1.00800000E+00  1.00800000E+00  1.60000000E+01
  1.00800000E+00  1.00800000E+00  1.60000000E+01  1.00800000E+00  1.00800000E+00
  1.60000000E+01  1.00800000E+00  1.00800000E+00  1.60000000E+01  1.00800000E+00
  1.00800000E+00  1.60000000E+01  1.00800000E+00  1.00800000E+00  1.60000000E+01
  1.00800000E+00  1.00800000E+00  1.60000000E+01  1.00800000E+00  1.00800000E+00
  1.60000000E+01  1.00800000E+00  1.00800000E+00  1.60000000E+01  1.00800000E+00
  1.00800000E+00  1.60000000E+01  1.00800000E+00  1.00800000E+00  1.60000000E+01
  1.00800000E+00  1.00800000E+00  1.60000000E+01  1.00800000E+00  1.00800000E+00
  1.60000000E+01  1.00800000E+00  1.00800000E+00  1.60000000E+01  1.00800000E+00
  1.00800000E+00  1.60000000E+01  1.00800000E+00  1.00800000E+00  1.60000000E+01
  1.00800000E+00  1.00800000E+00  1.60000000E+01  1.00800000E+00  1.00800000E+00
  1.60000000E+01  1.00800000E+00  1.00800000E+00  1.60000000E+01  1.00800000E+00
  1.00800000E+00  1.60000000E+01  1.00800000E+00  1.00800000E+00  1.60000000E+01
  1.00800000E+00  1.00800000E+00  1.60000000E+01  1.00800000E+00  1.00800000E+00
  1.60000000E+01  1.00800000E+00  1.00800000E+00  1.60000000E+01  1.00800000E+00
  1.00800000E+00  1.60000000E+01  1.00800000E+00  1.00800000E+00  1.60000000E+01
  1.00800000E+00  1.00800000E+00  1.60000000E+01  1.00800000E+00  1.00800000E+00
  1.60000000E+01  1.00800000E+00  1.00800000E+00  1.60000000E+01  1.00800000E+00
  1.00800000E+00  1.60000000E+01  1.00800000E+00  1.00800000E+00  1.60000000E+01
  1.00800000E+00  1.00800000E+00  1.60000000E+01  1.00800000E+00  1.00800000E+00
  1.60000000E+01  1.00800000E+00  1.00800000E+00  1.60000000E+01  1.00800000E+00
  1.00800000E+00  1.60000000E+01  1.00800000E+00  1.00800000E+00  1.60000000E+01
  1.00800000E+00  1.00800000E+00  1.60000000E+01  1.00800000E+00  1.00800000E+00
  1.60000000E+01  1.00800000E+00  1.00800000E+00  1.60000000E+01  1.00800000E+00
  1.00800000E+00  1.60000000E+01  1.00800000E+00  1.00800000E+00  1.60000000E+01
  1.00800000E+00  1.00800000E+00  1.60000000E+01  1.00800000E+00  1.00800000E+00
  1.60000000E+01  1.00800000E+00  1.00800000E+00  1.60000000E+01  1.00800000E+00
  1.00800000E+00  1.60000000E+01  1.00800000E+00  1.00800000E+00  1.60000000E+01
  1.00800000E+00  1.00800000E+00  1.60000000E+01  1.00800000E+00  1.00800000E+00
  1.60000000E+01  1.00800000E+00  1.00800000E+00  1.60000000E+01  1.00800000E+00
  1.00800000E+00  1.60000000E+01  1.00800000E+00  1.00800000E+00  1.60000000E+01
  1.00800000E+00  1.00800000E+00  1.60000000E+01  1.00800000E+00  1.00800000E+00
  1.60000000E+01  1.00800000E+00  1.00800000E+00  1.60000000E+01  1.00800000E+00
  1.00800000E+00  1.60000000E+01  1.00800000E+00  1.00800000E+00  1.60000000E+01
  1.00800000E+00  1.00800000E+00  1.60000000E+01  1.00800000E+00  1.00800000E+00
  1.60000000E+01  1.00800000E+00  1.00800000E+00  1.60000000E+01  1.00800000E+00
  1.00800000E+00  1.60000000E+01  1.00800000E+00  1.00800000E+00  1.60000000E+01
  1.00800000E+00  1.00800000E+00  1.60000000E+01  1.00800000E+00  1.00800000E+00
  1.60000000E+01  1.00800000E+00  1.00800000E+00  1.60000000E+01  1.00800000E+00
  1.00800000E+00  1.60000000E+01  1.00800000E+00  1.00800000E+00  1.60000000E+01
  1.00800000E+00  1.00800000E+00  1.60000000E+01  1.00800000E+00  1.00800000E+00
  1.60000000E+01  1.00800000E+00  1.00800000E+00  1.60000000E+01  1.00800000E+00
  1.00800000E+00  1.60000000E+01  1.00800000E+00  1.00800000E+00  1.60000000E+01
  1.00800000E+00  1.00800000E+00  1.60000000E+01  1.00800000E+00  1.00800000E+00
  1.60000000E+01  1.00800000E+00  1.00800000E+00  1.60000000E+01  1.00800000E+00
  1.00800000E+00  1.60000000E+01  1.00800000E+00  1.00800000E+00  1.60000000E+01
  1.00800000E+00  1.00800000E+00  1.60000000E+01  1.00800000E+00  1.00800000E+00
  1.60000000E+01  1.00800000E+00  1.00800000E+00  1.60000000E+01  1.00800000E+00
  1.00800000E+00  1.60000000E+01  1.00800000E+00  1.00800000E+00  1.60000000E+01
  1.00800000E+00  1.00800000E+00  1.60000000E+01  1.00800000E+00  1.00800000E+00
  1.60000000E+01  1.00800000E+00  1.00800000E+00  1.60000000E+01  1.00800000E+00
  1.00800000E+00  1.60000000E+01  1.00800000E+00  1.00800000E+00  1.60000000E+01
  1.00800000E+00  1.00800000E+00  1.60000000E+01  1.00800000E+00  1.00800000E+00
  1.60000000E+01  1.00800000E+00  1.00800000E+00  1.60000000E+01  1.00800000E+00
  1.00800000E+00  1.60000000E+01  1.00800000E+00  1.00800000E+00  1.60000000E+01
  1.00800000E+00  1.00800000E+00  1.60000000E+01  1.00800000E+00  1.00800000E+00
  1.60000000E+01  1.00800000E+00  1.00800000E+00  1.60000000E+01  1.00800000E+00
  1.00800000E+00  1.60000000E+01  1.00800000E+00  1.00800000E+00  1.60000000E+01
  1.00800000E+00  1.00800000E+00  1.60000000E+01  1.00800000E+00  1.00800000E+00
  1.60000000E+01  1.00800000E+00  1.00800000E+00  1.60000000E+01  1.00800000E+00
  1.00800000E+00  1.60000000E+01  1.00800000E+00  1.00800000E+00  1.60000000E+01
  1.00800000E+00  1.00800000E+00  1.60000000E+01  1.00800000E+00  1.00800000E+00
  1.60000000E+01  1.00800000E+00  1.00800000E+00  1.60000000E+01  1.00800000E+00
  1.00800000E+00  1.60000000E+01  1.00800000E+00  1.00800000E+00  1.60000000E+01
  1.00800000E+00  1.00800000E+00  1.60000000E+01  1.00800000E+00  1.00800000E+00
  1.60000000E+01  1.00800000E+00  1.00800000E+00  1.60000000E+01  1.00800000E+00
  1.00800000E+00  1.60000000E+01  1.00800000E+00  1.00800000E+00  1.60000000E+01
  1.00800000E+00  1.00800000E+00  1.60000000E+01  1.00800000E+00  1.00800000E+00
  1.60000000E+01  1.00800000E+00  1.00800000E+00  1.60000000E+01  1.00800000E+00
  1.00800000E+00  1.60000000E+01  1.00800000E+00  1.00800000E+00  1.60000000E+01
  1.00800000E+00  1.00800000E+00  1.60000000E+01  1.00800000E+00  1.00800000E+00
  1.60000000E+01  1.00800000E+00  1.00800000E+00  1.60000000E+01  1.00800000E+00
  1.00800000E+00  1.60000000E+01  1.00800000E+00  1.00800000E+00  1.60000000E+01
  1.00800000E+00  1.00800000E+00  1.60000000E+01  1.00800000E+00  1.00800000E+00
  1.60000000E+01  1.00800000E+00  1.00800000E+00  1.60000000E+01  1.00800000E+00
  1.00800000E+00  1.60000000E+01  1.00800000E+00  1.00800000E+00  1.60000000E+01
  1.00800000E+00  1.00800000E+00  1.60000000E+01  1.00800000E+00  1.00800000E+00
  1.60000000E+01  1.00800000E+00  1.00800000E+00  1.60000000E+01  1.00800000E+00
  1.00800000E+00  1.60000000E+01  1.00800000E+00  1.00800000E+00  1.60000000E+01
  1.00800000E+00  1.00800000E+00  1.60000000E+01  1.00800000E+00  1.00800000E+00
  1.60000000E+01  1.00800000E+00  1.00800000E+00  1.60000000E+01  1.00800000E+00
  1.00800000E+00  1.60000000E+01  1.00800000E+00  1.00800000E+00  1.60000000E+01
  1.00800000E+00  1.00800000E+00  1.60000000E+01  1.00800000E+00  1.00800000E+00
  1.60000000E+01  1.00800000E+00  1.00800000E+00  1.60000000E+01  1.00800000E+00
  1.00800000E+00  1.60000000E+01  1.00800000E+00  1.00800000E+00  1.60000000E+01
  1.00800000E+00  1.00800000E+00  1.60000000E+01  1.00800000E+00  1.00800000E+00
  1.60000000E+01  1.00800000E+00  1.00800000E+00  1.60000000E+01  1.00800000E+00
  1.00800000E+00  1.60000000E+01  1.00800000E+00  1.00800000E+00  1.60000000E+01
  1.00800000E+00  1.00800000E+00  1.60000000E+01  1.00800000E+00  1.00800000E+00
  1.60000000E+01  1.00800000E+00  1.00800000E+00  1.60000000E+01  1.00800000E+00
  1.00800000E+00  1.60000000E+01  1.00800000E+00  1.00800000E+00  1.60000000E+01
  1.00800000E+00  1.00800000E+00  1.60000000E+01  1.00800000E+00  1.00800000E+00
  1.60000000E+01  1.00800000E+00  1.00800000E+00  1.60000000E+01  1.00800000E+00
  1.00800000E+00  1.60000000E+01  1.00800000E+00  1.00800000E+00  1.60000000E+01
  1.00800000E+00  1.00800000E+00  1.60000000E+01  1.00800000E+00  1.00800000E+00
  1.60000000E+01  1.00800000E+00  1.00800000E+00  1.60000000E+01  1.00800000E+00
  1.00800000E+00  1.60000000E+01  1.00800000E+00  1.00800000E+00  1.60000000E+01
  1.00800000E+00  1.00800000E+00  1.60000000E+01  1.00800000E+00  1.00800000E+00
  1.60000000E+01  1.00800000E+00  1.00800000E+00  1.60000000E+01  1.00800000E+00
  1.00800000E+00  1.60000000E+01  1.00800000E+00  1.00800000E+00  1.60000000E+01
  1.00800000E+00  1.00800000E+00  1.60000000E+01  1.00800000E+00  1.00800000E+00
  1.60000000E+01  1.00800000E+00  1.00800000E+00  1.60000000E+01  1.00800000E+00
  1.00800000E+00  1.60000000E+01  1.00800000E+00  1.00800000E+00  1.60000000E+01
  1.00800000E+00  1.00800000E+00  1.60000000E+01  1.00800000E+00  1.00800000E+00
  1.60000000E+01  1.00800000E+00  1.00800000E+00  1.60000000E+01  1.00800000E+00
  1.00800000E+00  1.60000000E+01  1.00800000E+00  1.00800000E+00  1.60000000E+01
  1.00800000E+00  1.00800000E+00  1.60000000E+01  1.00800000E+00  1.00800000E+00
  1.60000000E+01  1.00800000E+00  1.00800000E+00  1.60000000E+01  1.00800000E+00
  1.00800000E+00  1.60000000E+01  1.00800000E+00  1.00800000E+00  1.60000000E+01
  1.00800000E+00  1.00800000E+00  1.60000000E+01  1.00800000E+00  1.00800000E+00
  1.60000000E+01  1.00800000E+00  1.00800000E+00  1.60000000E+01  1.00800000E+00
  1.00800000E+00  1.60000000E+01  1.00800000E+00  1.00800000E+00  1.60000000E+01
  1.00800000E+00  1.00800000E+00  1.60000000E+01  1.00800000E+00  1.00800000E+00
  1.60000000E+01  1.00800000E+00  1.00800000E+00  1.60000000E+01  1.00800000E+00
  1.00800000E+00  1.60000000E+01  1.00800000E+00  1.00800000E+00  1.60000000E+01
  1.00800000E+00  1.00800000E+00  1.60000000E+01  1.00800000E+00  1.00800000E+00
  1.60000000E+01  1.00800000E+00  1.00800000E+00  1.60000000E+01  1.00800000E+00
  1.00800000E+00  1.60000000E+01  1.00800000E+00  1.00800000E+00  1.60000000E+01
  1.00800000E+00  1.00800000E+00  1.60000000E+01  1.00800000E+00  1.00800000E+00
  1.60000000E+01  1.00800000E+00  1.00800000E+00  1.60000000E+01  1.00800000E+00
  1.00800000E+00  1.60000000E+01  1.00800000E+00  1.00800000E+00  1.60000000E+01
  1.00800000E+00  1.00800000E+00  1.60000000E+01  1.00800000E+00  1.00800000E+00
  1.60000000E+01  1.00800000E+00  1.00800000E+00  1.60000000E+01  1.00800000E+00
  1.00800000E+00  1.60000000E+01  1.00800000E+00  1.00800000E+00  1.60000000E+01
  1.00800000E+00  1.00800000E+00  1.60000000E+01  1.00800000E+00  1.00800000E+00
  1.60000000E+01  1.00800000E+00  1.00800000E+00  1.60000000E+01  1.00800000E+00
  1.00800000E+00  1.60000000E+01  1.00800000E+00  1.00800000E+00  1.60000000E+01
  1.00800000E+00  1.00800000E+00  1.60000000E+01  1.00800000E+00  1.00800000E+00
  1.60000000E+01  1.00800000E+00  1.00800000E+00  1.60000000E+01  1.00800000E+00
  1.00800000E+00  1.60000000E+01  1.00800000E+00  1.00800000E+00  1.60000000E+01
  1.00800000E+00  1.00800000E+00  1.60000000E+01  1.00800000E+00  1.00800000E+00
  1.60000000E+01  1.00800000E+00  1.00800000E+00  1.60000000E+01  1.00800000E+00
  1.00800000E+00  1.60000000E+01  1.00800000E+00  1.00800000E+00  1.60000000E+01
  1.00800000E+00  1.00800000E+00  1.60000000E+01  1.00800000E+00  1.00800000E+00
  1.60000000E+01  1.00800000E+00  1.00800000E+00  1.60000000E+01  1.00800000E+00
  1.00800000E+00  1.60000000E+01  1.00800000E+00  1.00800000E+00  1.60000000E+01
  1.00800000E+00  1.00800000E+00  1.60000000E+01  1.00800000E+00  1.00800000E+00
  1.60000000E+01  1.00800000E+00  1.00800000E+00  1.60000000E+01  1.00800000E+00
  1.00800000E+00  1.60000000E+01  1.00800000E+00  1.00800000E+00  1.60000000E+01
  1.00800000E+00  1.00800000E+00  1.60000000E+01  1.00800000E+00  1.00800000E+00
  1.60000000E+01  1.00800000E+00  1.00800000E+00  1.60000000E+01  1.00800000E+00
  1.00800000E+00  1.60000000E+01  1.00800000E+00  1.00800000E+00  1.60000000E+01
  1.00800000E+00  1.00800000E+00  1.60000000E+01  1.00800000E+00  1.00800000E+00
  1.60000000E+01  1.00800000E+00  1.00800000E+00  1.60000000E+01  1.00800000E+00
  1.00800000E+00  1.60000000E+01  1.00800000E+00  1.00800000E+00  1.60000000E+01
  1.00800000E+00  1.00800000E+00  1.60000000E+01  1.00800000E+00  1.00800000E+00
  1.60000000E+01  1.00800000E+00  1.00800000E+00  1.60000000E+01  1.00800000E+00
  1.00800000E+00  1.60000000E+01  1.00800000E+00  1.00800000E+00  1.60000000E+01
  1.00800000E+00  1.00800000E+00  1.60000000E+01  1.00800000E+00  1.00800000E+00
  1.60000000E+01  1.00800000E+00  1.00800000E+00  1.60000000E+01  1.00800000E+00
  1.00800000E+00  1.60000000E+01  1.00800000E+00  1.00800000E+00  1.60000000E+01
  1.00800000E+00  1.00800000E+00  1.60000000E+01  1.00800000E+00  1.00800000E+00
  1.60000000E+01  1.00800000E+00  1.00800000E+00  1.60000000E+01  1.00800000E+00
  1.00800000E+00  1.60000000E+01  1.00800000E+00  1.00800000E+00  1.60000000E+01
  1.00800000E+00  1.00800000E+00  1.60000000E+01  1.00800000E+00  1.00800000E+00
  1.60000000E+01  1.00800000E+00  1.00800000E+00  1.60000000E+01  1.00800000E+00
  1.00800000E+00  1.60000000E+01  1.00800000E+00  1.00800000E+00  1.60000000E+01
  1.00800000E+00  1.00800000E+00  1.60000000E+01  1.00800000E+00  1.00800000E+00
  1.60000000E+01  1.00800000E+00  1.00800000E+00  1.60000000E+01  1.00800000E+00
  1.00800000E+00  1.60000000E+01  1.00800000E+00  1.00800000E+00  1.60000000E+01
  1.00800000E+00  1.00800000E+00  1.60000000E+01  1.00800000E+00  1.00800000E+00
  1.60000000E+01  1.00800000E+00  1.00800000E+00  1.60000000E+01  1.00800000E+00
  1.00800000E+00  1.60000000E+01  1.00800000E+00  1.00800000E+00  1.60000000E+01
  1.00800000E+00  1.00800000E+00  1.60000000E+01  1.00800000E+00  1.00800000E+00
  1.60000000E+01  1.00800000E+00  1.00800000E+00  1.60000000E+01  1.00800000E+00
  1.00800000E+00  1.60000000E+01  1.00800000E+00  1.00800000E+00  1.60000000E+01
  1.00800000E+00  1.00800000E+00  1.60000000E+01  1.00800000E+00  1.00800000E+00
  1.60000000E+01  1.00800000E+00  1.00800000E+00  1.60000000E+01  1.00800000E+00
  1.00800000E+00  1.60000000E+01  1.00800000E+00  1.00800000E+00  1.60000000E+01
  1.00800000E+00  1.00800000E+00  1.60000000E+01  1.00800000E+00  1.00800000E+00
  1.60000000E+01  1.00800000E+00  1.00800000E+00  1.60000000E+01  1.00800000E+00
  1.00800000E+00  1.60000000E+01  1.00800000E+00  1.00800000E+00  1.60000000E+01
  1.00800000E+00  1.00800000E+00  1.60000000E+01  1.00800000E+00  1.00800000E+00
  1.60000000E+01  1.00800000E+00  1.00800000E+00  1.60000000E+01  1.00800000E+00
  1.00800000E+00  1.60000000E+01  1.00800000E+00  1.00800000E+00  1.60000000E+01
  1.00800000E+00  1.00800000E+00  1.60000000E+01  1.00800000E+00  1.00800000E+00
  1.60000000E+01  1.00800000E+00  1.00800000E+00  1.60000000E+01  1.00800000E+00
  1.00800000E+00  1.60000000E+01  1.00800000E+00  1.00800000E+00  1.60000000E+01
  1.00800000E+00  1.00800000E+00  1.60000000E+01  1.00800000E+00  1.00800000E+00
  1.60000000E+01  1.00800000E+00  1.00800000E+00  1.60000000E+01  1.00800000E+00
  1.00800000E+00  1.60000000E+01  1.00800000E+00  1.00800000E+00  1.60000000E+01
  1.00800000E+00  1.00800000E+00  1.60000000E+01  1.00800000E+00  1.00800000E+00
  1.60000000E+01  1.00800000E+00  1.00800000E+00  1.60000000E+01  1.00800000E+00
  1.00800000E+00  1.60000000E+01  1.00800000E+00  1.00800000E+00  1.60000000E+01
  1.00800000E+00  1.00800000E+00  1.60000000E+01  1.00800000E+00  1.00800000E+00
  1.60000000E+01  1.00800000E+00  1.00800000E+00  1.60000000E+01  1.00800000E+00
  1.00800000E+00  1.60000000E+01  1.00800000E+00  1.00800000E+00  1.60000000E+01
  1.00800000E+00  1.00800000E+00  1.60000000E+01  1.00800000E+00  1.00800000E+00
  1.60000000E+01  1.00800000E+00  1.00800000E+00  1.60000000E+01  1.00800000E+00
  1.00800000E+00  1.60000000E+01  1.00800000E+00  1.00800000E+00  1.60000000E+01
  1.00800000E+00  1.00800000E+00  1.60000000E+01  1.00800000E+00  1.00800000E+00
  1.60000000E+01  1.00800000E+00  1.00800000E+00  1.60000000E+01  1.00800000E+00
  1.00800000E+00  1.60000000E+01  1.00800000E+00  1.00800000E+00  1.60000000E+01
  1.00800000E+00  1.00800000E+00  1.60000000E+01  1.00800000E+00  1.00800000E+00
  1.60000000E+01  1.00800000E+00  1.00800000E+00  1.60000000E+01  1.00800000E+00
  1.00800000E+00  1.60000000E+01  1.00800000E+00  1.00800000E+00  1.60000000E+01
  1.00800000E+00  1.00800000E+00  1.60000000E+01  1.00800000E+00  1.00800000E+00
  1.60000000E+01  1.00800000E+00  1.00800000E+00  1.60000000E+01  1.00800000E+00
  1.00800000E+00  1.60000000E+01  1.00800000E+00  1.00800000E+00  1.60000000E+01
  1.00800000E+00  1.00800000E+00  1.60000000E+01  1.00800000E+00  1.00800000E+00
  1.60000000E+01  1.00800000E+00  1.00800000E+00  1.60000000E+01  1.00800000E+00
  1.00800000E+00  1.60000000E+01  1.00800000E+00  1.00800000E+00  1.60000000E+01
  1.00800000E+00  1.00800000E+00  1.60000000E+01  1.00800000E+00  1.00800000E+00
  1.60000000E+01  1.00800000E+00  1.00800000E+00  1.60000000E+01  1.00800000E+00
  1.00800000E+00  1.60000000E+01  1.00800000E+00  1.00800000E+00  1.60000000E+01
  1.00800000E+00  1.00800000E+00  1.60000000E+01  1.00800000E+00  1.00800000E+00
  1.60000000E+01  1.00800000E+00  1.00800000E+00  1.60000000E+01  1.00800000E+00
  1.00800000E+00  1.60000000E+01  1.00800000E+00  1.00800000E+00  1.60000000E+01
  1.00800000E+00  1.00800000E+00  1.60000000E+01  1.00800000E+00  1.00800000E+00
  1.60000000E+01  1.00800000E+00  1.00800000E+00  1.60000000E+01  1.00800000E+00
  1.00800000E+00  1.60000000E+01  1.00800000E+00  1.00800000E+00  1.60000000E+01
  1.00800000E+00  1.00800000E+00  1.60000000E+01  1.00800000E+00  1.00800000E+00
  1.60000000E+01  1.00800000E+00  1.00800000E+00  1.60000000E+01  1.00800000E+00
  1.00800000E+00  1.60000000E+01  1.00800000E+00  1.00800000E+00  1.60000000E+01
  1.00800000E+00  1.00800000E+00  1.60000000E+01  1.00800000E+00  1.00800000E+00
  1.60000000E+01  1.00800000E+00  1.00800000E+00  1.60000000E+01  1.00800000E+00
  1.00800000E+00  1.60000000E+01  1.00800000E+00  1.00800000E+00  1.60000000E+01
  1.00800000E+00  1.00800000E+00  1.60000000E+01  1.00800000E+00  1.00800000E+00
  1.60000000E+01  1.00800000E+00  1.00800000E+00  1.60000000E+01  1.00800000E+00
  1.00800000E+00  1.60000000E+01  1.00800000E+00  1.00800000E+00  1.60000000E+01
  1.00800000E+00  1.00800000E+00  1.60000000E+01  1.00800000E+00  1.00800000E+00
  1.60000000E+01  1.00800000E+00  1.00800000E+00  1.60000000E+01  1.00800000E+00
  1.00800000E+00  1.60000000E+01  1.00800000E+00  1.00800000E+00  1.60000000E+01
  1.00800000E+00  1.00800000E+00  1.60000000E+01  1.00800000E+00  1.00800000E+00
  1.60000000E+01  1.00800000E+00  1.00800000E+00  1.60000000E+01  1.00800000E+00
  1.00800000E+00  1.60000000E+01  1.00800000E+00  1.00800000E+00  1.60000000E+01
  1.00800000E+00  1.00800000E+00  1.60000000E+01  1.00800000E+00  1.00800000E+00
  1.60000000E+01  1.00800000E+00  1.00800000E+00  1.60000000E+01  1.00800000E+00
  1.00800000E+00  1.60000000E+01  1.00800000E+00  1.00800000E+00  1.60000000E+01
  1.00800000E+00  1.00800000E+00  1.60000000E+01  1.00800000E+00  1.00800000E+00
  1.60000000E+01  1.00800000E+00  1.00800000E+00  1.60000000E+01  1.00800000E+00
  1.00800000E+00  1.60000000E+01  1.00800000E+00  1.00800000E+00  1.60000000E+01
  1.00800000E+00  1.00800000E+00  1.60000000E+01  1.00800000E+00  1.00800000E+00
  1.60000000E+01  1.00800000E+00  1.00800000E+00  1.60000000E+01  1.00800000E+00
  1.00800000E+00  1.60000000E+01  1.00800000E+00  1.00800000E+00  1.60000000E+01
  1.00800000E+00  1.00800000E+00  1.60000000E+01  1.00800000E+00  1.00800000E+00
  1.60000000E+01  1.00800000E+00  1.00800000E+00  1.60000000E+01  1.00800000E+00
  1.00800000E+00  1.60000000E+01  1.00800000E+00  1.00800000E+00  1.60000000E+01
  1.00800000E+00  1.00800000E+00  1.60000000E+01  1.00800000E+00  1.00800000E+00
  1.60000000E+01  1.00800000E+00  1.00800000E+00  1.60000000E+01  1.00800000E+00
  1.00800000E+00  1.60000000E+01  1.00800000E+00  1.00800000E+00  1.60000000E+01
  1.00800000E+00  1.00800000E+00  1.60000000E+01  1.00800000E+00  1.00800000E+00
  1.60000000E+01  1.00800000E+00  1.00800000E+00  1.60000000E+01  1.00800000E+00
  1.00800000E+00  1.60000000E+01  1.00800000E+00  1.00800000E+00  1.60000000E+01
  1.00800000E+00  1.00800000E+00  1.60000000E+01  1.00800000E+00  1.00800000E+00
  1.60000000E+01  1.00800000E+00  1.00800000E+00  1.60000000E+01  1.00800000E+00
  1.00800000E+00  1.60000000E+01  1.00800000E+00  1.00800000E+00  1.60000000E+01
  1.00800000E+00  1.00800000E+00  1.60000000E+01  1.00800000E+00  1.00800000E+00
  1.60000000E+01  1.00800000E+00  1.00800000E+00  1.60000000E+01  1.00800000E+00
  1.00800000E+00  1.60000000E+01  1.00800000E+00  1.00800000E+00  1.60000000E+01
  1.00800000E+00  1.00800000E+00  1.60000000E+01  1.00800000E+00  1.00800000E+00
  1.60000000E+01  1.00800000E+00  1.00800000E+00  1.60000000E+01  1.00800000E+00
  1.00800000E+00  1.60000000E+01  1.00800000E+00  1.00800000E+00  1.60000000E+01
  1.00800000E+00  1.00800000E+00  1.60000000E+01  1.00800000E+00  1.00800000E+00
  1.60000000E+01  1.00800000E+00  1.00800000E+00  1.60000000E+01  1.00800000E+00
  1.00800000E+00  1.60000000E+01  1.00800000E+00  1.00800000E+00  1.60000000E+01
  1.00800000E+00  1.00800000E+00  1.60000000E+01  1.00800000E+00  1.00800000E+00
  1.60000000E+01  1.00800000E+00  1.00800000E+00  1.60000000E+01  1.00800000E+00
  1.00800000E+00  1.60000000E+01  1.00800000E+00  1.00800000E+00  1.60000000E+01
  1.00800000E+00  1.00800000E+00  1.60000000E+01  1.00800000E+00  1.00800000E+00
  1.60000000E+01  1.00800000E+00  1.00800000E+00  1.60000000E+01  1.00800000E+00
  1.00800000E+00  1.60000000E+01  1.00800000E+00  1.00800000E+00  1.60000000E+01
  1.00800000E+00  1.00800000E+00  1.60000000E+01  1.00800000E+00  1.00800000E+00
  1.60000000E+01  1.00800000E+00  1.00800000E+00  1.60000000E+01  1.00800000E+00
  1.00800000E+00  1.60000000E+01  1.00800000E+00  1.00800000E+00  1.60000000E+01
  1.00800000E+00  1.00800000E+00  1.60000000E+01  1.00800000E+00  1.00800000E+00
  1.60000000E+01  1.00800000E+00  1.00800000E+00  1.60000000E+01  1.00800000E+00
  1.00800000E+00  1.60000000E+01  1.00800000E+00  1.00800000E+00  1.60000000E+01
  1.00800000E+00  1.00800000E+00  1.60000000E+01  1.00800000E+00  1.00800000E+00
  1.60000000E+01  1.00800000E+00  1.00800000E+00  1.60000000E+01  1.00800000E+00
  1.00800000E+00  1.60000000E+01  1.00800000E+00  1.00800000E+00  1.60000000E+01
  1.00800000E+00  1.00800000E+00  1.60000000E+01  1.00800000E+00  1.00800000E+00
  1.60000000E+01  1.00800000E+00  1.00800000E+00  1.60000000E+01  1.00800000E+00
  1.00800000E+00  1.60000000E+01  1.00800000E+00  1.00800000E+00  1.60000000E+01
  1.00800000E+00  1.00800000E+00  1.60000000E+01  1.00800000E+00  1.00800000E+00
  1.60000000E+01  1.00800000E+00  1.00800000E+00  1.60000000E+01  1.00800000E+00
  1.00800000E+00  1.60000000E+01  1.00800000E+00  1.00800000E+00  1.60000000E+01
  1.00800000E+00  1.00800000E+00  1.60000000E+01  1.00800000E+00  1.00800000E+00
  1.60000000E+01  1.00800000E+00  1.00800000E+00  1.60000000E+01  1.00800000E+00
  1.00800000E+00  1.60000000E+01  1.00800000E+00  1.00800000E+00  1.60000000E+01
  1.00800000E+00  1.00800000E+00  1.60000000E+01  1.00800000E+00  1.00800000E+00
  1.60000000E+01  1.00800000E+00  1.00800000E+00  1.60000000E+01  1.00800000E+00
  1.00800000E+00  1.60000000E+01  1.00800000E+00  1.00800000E+00  1.60000000E+01
  1.00800000E+00  1.00800000E+00  1.60000000E+01  1.00800000E+00  1.00800000E+00
  1.60000000E+01  1.00800000E+00  1.00800000E+00  1.60000000E+01  1.00800000E+00
  1.00800000E+00  1.60000000E+01  1.00800000E+00  1.00800000E+00  1.60000000E+01
  1.00800000E+00  1.00800000E+00  1.60000000E+01  1.00800000E+00  1.00800000E+00
  1.60000000E+01  1.00800000E+00  1.00800000E+00  1.60000000E+01  1.00800000E+00
  1.00800000E+00  1.60000000E+01  1.00800000E+00  1.00800000E+00  1.60000000E+01
  1.00800000E+00  1.00800000E+00  1.60000000E+01  1.00800000E+00  1.00800000E+00
  1.60000000E+01  1.00800000E+00  1.00800000E+00  1.60000000E+01  1.00800000E+00
  1.00800000E+00  1.60000000E+01  1.00800000E+00  1.00800000E+00  1.60000000E+01
  1.00800000E+00  1.00800000E+00  1.60000000E+01  1.00800000E+00  1.00800000E+00
  1.60000000E+01  1.00800000E+00  1.00800000E+00  1.60000000E+01  1.00800000E+00
  1.00800000E+00  1.60000000E+01  1.00800000E+00  1.00800000E+00  1.60000000E+01
  1.00800000E+00  1.00800000E+00  1.60000000E+01  1.00800000E+00  1.00800000E+00
  1.60000000E+01  1.00800000E+00  1.00800000E+00  1.60000000E+01  1.00800000E+00
  1.00800000E+00  1.60000000E+01  1.00800000E+00  1.00800000E+00  1.60000000E+01
  1.00800000E+00  1.00800000E+00  1.60000000E+01  1.00800000E+00  1.00800000E+00
  1.60000000E+01  1.00800000E+00  1.00800000E+00  1.60000000E+01  1.00800000E+00
  1.00800000E+00  1.60000000E+01  1.00800000E+00  1.00800000E+00  1.60000000E+01
  1.00800000E+00  1.00800000E+00  1.60000000E+01  1.00800000E+00  1.00800000E+00
  1.60000000E+01  1.00800000E+00  1.00800000E+00  1.60000000E+01  1.00800000E+00
  1.00800000E+00  1.60000000E+01  1.00800000E+00  1.00800000E+00  1.60000000E+01
  1.00800000E+00  1.00800000E+00  1.60000000E+01  1.00800000E+00  1.00800000E+00
  1.60000000E+01  1.00800000E+00  1.00800000E+00  1.60000000E+01  1.00800000E+00
  1.00800000E+00  1.60000000E+01  1.00800000E+00  1.00800000E+00  1.60000000E+01
  1.00800000E+00  1.00800000E+00  1.60000000E+01  1.00800000E+00  1.00800000E+00
  1.60000000E+01  1.00800000E+00  1.00800000E+00  1.60000000E+01  1.00800000E+00
  1.00800000E+00  1.60000000E+01  1.00800000E+00  1.00800000E+00  1.60000000E+01
  1.00800000E+00  1.00800000E+00  1.60000000E+01  1.00800000E+00  1.00800000E+00
  1.60000000E+01  1.00800000E+00  1.00800000E+00  1.60000000E+01  1.00800000E+00
  1.00800000E+00  1.60000000E+01  1.00800000E+00  1.00800000E+00  1.60000000E+01
  1.00800000E+00  1.00800000E+00  1.60000000E+01  1.00800000E+00  1.00800000E+00
  1.60000000E+01  1.00800000E+00  1.00800000E+00  1.60000000E+01  1.00800000E+00
  1.00800000E+00  1.60000000E+01  1.00800000E+00  1.00800000E+00  1.60000000E+01
  1.00800000E+00  1.00800000E+00  1.60000000E+01  1.00800000E+00  1.00800000E+00
  1.60000000E+01  1.00800000E+00  1.00800000E+00  1.60000000E+01  1.00800000E+00
  1.00800000E+00  1.60000000E+01  1.00800000E+00  1.00800000E+00  1.60000000E+01
  1.00800000E+00  1.00800000E+00  1.60000000E+01  1.00800000E+00  1.00800000E+00
  1.60000000E+01  1.00800000E+00  1.00800000E+00  1.60000000E+01  1.00800000E+00
  1.00800000E+00  1.60000000E+01  1.00800000E+00  1.00800000E+00  1.60000000E+01
  1.00800000E+00  1.00800000E+00  1.60000000E+01  1.00800000E+00  1.00800000E+00
  1.60000000E+01  1.00800000E+00  1.00800000E+00  1.60000000E+01  1.00800000E+00
  1.00800000E+00  1.60000000E+01  1.00800000E+00  1.00800000E+00  1.60000000E+01
  1.00800000E+00  1.00800000E+00  1.60000000E+01  1.00800000E+00  1.00800000E+00
  1.60000000E+01  1.00800000E+00  1.00800000E+00  1.60000000E+01  1.00800000E+00
  1.00800000E+00  1.60000000E+01  1.00800000E+00  1.00800000E+00  1.60000000E+01
  1.00800000E+00  1.00800000E+00  1.60000000E+01  1.00800000E+00  1.00800000E+00
  1.60000000E+01  1.00800000E+00  1.00800000E+00  1.60000000E+01  1.00800000E+00
  1.00800000E+00  1.60000000E+01  1.00800000E+00  1.00800000E+00  1.60000000E+01
  1.00800000E+00  1.00800000E+00  1.60000000E+01  1.00800000E+00  1.00800000E+00
  1.60000000E+01  1.00800000E+00  1.00800000E+00  1.60000000E+01  1.00800000E+00
  1.00800000E+00  1.60000000E+01  1.00800000E+00  1.00800000E+00  1.60000000E+01
  1.00800000E+00  1.00800000E+00  1.60000000E+01  1.00800000E+00  1.00800000E+00
  1.60000000E+01  1.00800000E+00  1.00800000E+00  1.60000000E+01  1.00800000E+00
  1.00800000E+00  1.60000000E+01  1.00800000E+00  1.00800000E+00  1.60000000E+01
  1.00800000E+00  1.00800000E+00  1.60000000E+01  1.00800000E+00  1.00800000E+00
  1.60000000E+01  1.00800000E+00  1.00800000E+00  1.60000000E+01  1.00800000E+00
  1.00800000E+00  1.60000000E+01  1.00800000E+00  1.00800000E+00  1.60000000E+01
  1.00800000E+00  1.00800000E+00  1.60000000E+01  1.00800000E+00  1.00800000E+00
  1.60000000E+01  1.00800000E+00  1.00800000E+00  1.60000000E+01  1.00800000E+00
  1.00800000E+00  1.60000000E+01  1.00800000E+00  1.00800000E+00  1.60000000E+01
  1.00800000E+00  1.00800000E+00  1.60000000E+01  1.00800000E+00  1.00800000E+00
  1.60000000E+01  1.00800000E+00  1.00800000E+00  1.60000000E+01  1.00800000E+00
  1.00800000E+00  1.60000000E+01  1.00800000E+00  1.00800000E+00  1.60000000E+01
  1.00800000E+00  1.00800000E+00  1.60000000E+01  1.00800000E+00  1.00800000E+00
  1.60000000E+01  1.00800000E+00  1.00800000E+00  1.60000000E+01  1.00800000E+00
  1.00800000E+00  1.60000000E+01  1.00800000E+00  1.00800000E+00  1.60000000E+01
  1.00800000E+00  1.00800000E+00  1.60000000E+01  1.00800000E+00  1.00800000E+00
  1.60000000E+01  1.00800000E+00  1.00800000E+00  1.60000000E+01  1.00800000E+00
  1.00800000E+00  1.60000000E+01  1.00800000E+00  1.00800000E+00  1.60000000E+01
  1.00800000E+00  1.00800000E+00  1.60000000E+01  1.00800000E+00  1.00800000E+00
  1.60000000E+01  1.00800000E+00  1.00800000E+00  1.60000000E+01  1.00800000E+00
  1.00800000E+00  1.60000000E+01  1.00800000E+00  1.00800000E+00  1.60000000E+01
  1.00800000E+00  1.00800000E+00  1.60000000E+01  1.00800000E+00  1.00800000E+00
  1.60000000E+01  1.00800000E+00  1.00800000E+00  1.60000000E+01  1.00800000E+00
  1.00800000E+00  1.60000000E+01  1.00800000E+00  1.00800000E+00  1.60000000E+01
  1.00800000E+00  1.00800000E+00  1.60000000E+01  1.00800000E+00  1.00800000E+00
  1.60000000E+01  1.00800000E+00  1.00800000E+00  1.60000000E+01  1.00800000E+00
  1.00800000E+00  1.60000000E+01  1.00800000E+00  1.00800000E+00  1.60000000E+01
  1.00800000E+00  1.00800000E+00  1.60000000E+01  1.00800000E+00  1.00800000E+00
  1.60000000E+01  1.00800000E+00  1.00800000E+00  1.60000000E+01  1.00800000E+00
  1.00800000E+00  1.60000000E+01  1.00800000E+00  1.00800000E+00  1.60000000E+01
  1.00800000E+00  1.00800000E+00  1.60000000E+01  1.00800000E+00  1.00800000E+00
  1.60000000E+01  1.00800000E+00  1.00800000E+00  1.60000000E+01  1.00800000E+00
  1.00800000E+00  1.60000000E+01  1.00800000E+00  1.00800000E+00  1.60000000E+01
  1.00800000E+00  1.00800000E+00  1.60000000E+01  1.00800000E+00  1.00800000E+00
  1.60000000E+01  1.00800000E+00  1.00800000E+00  1.60000000E+01  1.00800000E+00
  1.00800000E+00  1.60000000E+01  1.00800000E+00  1.00800000E+00  1.60000000E+01
  1.00800000E+00  1.00800000E+00  1.60000000E+01  1.00800000E+00  1.00800000E+00
  1.60000000E+01  1.00800000E+00  1.00800000E+00  1.60000000E+01  1.00800000E+00
  1.00800000E+00  1.60000000E+01  1.00800000E+00  1.00800000E+00  1.60000000E+01
  1.00800000E+00  1.00800000E+00  1.60000000E+01  1.00800000E+00  1.00800000E+00
  1.60000000E+01  1.00800000E+00  1.00800000E+00  1.60000000E+01  1.00800000E+00
  1.00800000E+00  1.60000000E+01  1.00800000E+00  1.00800000E+00  1.60000000E+01
  1.00800000E+00  1.00800000E+00  1.60000000E+01  1.00800000E+00  1.00800000E+00
  1.60000000E+01  1.00800000E+00  1.00800000E+00  1.60000000E+01  1.00800000E+00
  1.00800000E+00  1.60000000E+01  1.00800000E+00  1.00800000E+00  1.60000000E+01
  1.00800000E+00  1.00800000E+00  1.60000000E+01  1.00800000E+00  1.00800000E+00
  1.60000000E+01  1.00800000E+00  1.00800000E+00  1.60000000E+01  1.00800000E+00
  1.00800000E+00  1.60000000E+01  1.00800000E+00  1.00800000E+00  1.60000000E+01
  1.00800000E+00  1.00800000E+00  1.60000000E+01  1.00800000E+00  1.00800000E+00
  1.60000000E+01  1.00800000E+00  1.00800000E+00  1.60000000E+01  1.00800000E+00
  1.00800000E+00  1.60000000E+01  1.00800000E+00  1.00800000E+00  1.60000000E+01
  1.00800000E+00  1.00800000E+00  1.60000000E+01  1.00800000E+00  1.00800000E+00
  1.60000000E+01  1.00800000E+00  1.00800000E+00  1.60000000E+01  1.00800000E+00
  1.00800000E+00  1.60000000E+01  1.00800000E+00  1.00800000E+00  1.60000000E+01
  1.00800000E+00  1.00800000E+00  1.60000000E+01  1.00800000E+00  1.00800000E+00
  1.60000000E+01  1.00800000E+00  1.00800000E+00  1.60000000E+01  1.00800000E+00
  1.00800000E+00  1.60000000E+01  1.00800000E+00  1.00800000E+00  1.60000000E+01
  1.00800000E+00  1.00800000E+00  1.60000000E+01  1.00800000E+00  1.00800000E+00
  1.60000000E+01  1.00800000E+00  1.00800000E+00  1.60000000E+01  1.00800000E+00
  1.00800000E+00  1.60000000E+01  1.00800000E+00  1.00800000E+00  1.60000000E+01
  1.00800000E+00  1.00800000E+00  1.60000000E+01  1.00800000E+00  1.00800000E+00
  1.60000000E+01  1.00800000E+00  1.00800000E+00  1.60000000E+01  1.00800000E+00
  1.00800000E+00  1.60000000E+01  1.00800000E+00  1.00800000E+00  1.60000000E+01
  1.00800000E+00  1.00800000E+00  1.60000000E+01  1.00800000E+00  1.00800000E+00
  1.60000000E+01  1.00800000E+00  1.00800000E+00  1.60000000E+01  1.00800000E+00
  1.00800000E+00  1.60000000E+01  1.00800000E+00  1.00800000E+00  1.60000000E+01
  1.00800000E+00  1.00800000E+00  1.60000000E+01  1.00800000E+00  1.00800000E+00
  1.60000000E+01  1.00800000E+00  1.00800000E+00  1.60000000E+01  1.00800000E+00
  1.00800000E+00  1.60000000E+01  1.00800000E+00  1.00800000E+00  1.60000000E+01
  1.00800000E+00  1.00800000E+00  1.60000000E+01  1.00800000E+00  1.00800000E+00
  1.60000000E+01  1.00800000E+00  1.00800000E+00  1.60000000E+01  1.00800000E+00
  1.00800000E+00  1.60000000E+01  1.00800000E+00  1.00800000E+00  1.60000000E+01
  1.00800000E+00  1.00800000E+00  1.60000000E+01  1.00800000E+00  1.00800000E+00
  1.60000000E+01  1.00800000E+00  1.00800000E+00  1.60000000E+01  1.00800000E+00
  1.00800000E+00  1.60000000E+01  1.00800000E+00  1.00800000E+00  1.60000000E+01
  1.00800000E+00  1.00800000E+00  1.60000000E+01  1.00800000E+00  1.00800000E+00
  1.60000000E+01  1.00800000E+00  1.00800000E+00  1.60000000E+01  1.00800000E+00
  1.00800000E+00  1.60000000E+01  1.00800000E+00  1.00800000E+00  1.60000000E+01
  1.00800000E+00  1.00800000E+00  1.60000000E+01  1.00800000E+00  1.00800000E+00
  1.60000000E+01  1.00800000E+00  1.00800000E+00  1.60000000E+01  1.00800000E+00
  1.00800000E+00  1.60000000E+01  1.00800000E+00  1.00800000E+00  1.60000000E+01
  1.00800000E+00  1.00800000E+00  1.60000000E+01  1.00800000E+00  1.00800000E+00
  1.60000000E+01  1.00800000E+00  1.00800000E+00  1.60000000E+01  1.00800000E+00
  1.00800000E+00  1.60000000E+01  1.00800000E+00  1.00800000E+00  1.60000000E+01
  1.00800000E+00  1.00800000E+00  1.60000000E+01  1.00800000E+00  1.00800000E+00
  1.60000000E+01  1.00800000E+00  1.00800000E+00  1.60000000E+01  1.00800000E+00
  1.00800000E+00  1.60000000E+01  1.00800000E+00  1.00800000E+00  1.60000000E+01
  1.00800000E+00  1.00800000E+00  1.60000000E+01  1.00800000E+00  1.00800000E+00
  1.60000000E+01  1.00800000E+00  1.00800000E+00  1.60000000E+01  1.00800000E+00
  1.00800000E+00  1.60000000E+01  1.00800000E+00  1.00800000E+00  1.60000000E+01
  1.00800000E+00  1.00800000E+00  1.60000000E+01  1.00800000E+00  1.00800000E+00
  1.60000000E+01  1.00800000E+00  1.00800000E+00  1.60000000E+01  1.00800000E+00
  1.00800000E+00  1.60000000E+01  1.00800000E+00  1.00800000E+00  1.60000000E+01
  1.00800000E+00  1.00800000E+00  1.60000000E+01  1.00800000E+00  1.00800000E+00
  1.60000000E+01  1.00800000E+00  1.00800000E+00  1.60000000E+01  1.00800000E+00
  1.00800000E+00  1.60000000E+01  1.00800000E+00  1.00800000E+00  1.60000000E+01
  1.00800000E+00  1.00800000E+00  1.60000000E+01  1.00800000E+00  1.00800000E+00
  1.60000000E+01  1.00800000E+00  1.00800000E+00  1.60000000E+01  1.00800000E+00
  1.00800000E+00  1.60000000E+01  1.00800000E+00  1.00800000E+00  1.60000000E+01
  1.00800000E+00  1.00800000E+00  1.60000000E+01  1.00800000E+00  1.00800000E+00
  1.60000000E+01  1.00800000E+00  1.00800000E+00  1.60000000E+01  1.00800000E+00
  1.00800000E+00  1.60000000E+01  1.00800000E+00  1.00800000E+00  1.60000000E+01
  1.00800000E+00  1.00800000E+00  1.60000000E+01  1.00800000E+00  1.00800000E+00
  1.60000000E+01  1.00800000E+00  1.00800000E+00  1.60000000E+01  1.00800000E+00
  1.00800000E+00  1.60000000E+01  1.00800000E+00  1.00800000E+00  1.60000000E+01
  1.00800000E+00  1.00800000E+00  1.60000000E+01  1.00800000E+00  1.00800000E+00
  1.60000000E+01  1.00800000E+00  1.00800000E+00  1.60000000E+01  1.00800000E+00
  1.00800000E+00  1.60000000E+01  1.00800000E+00  1.00800000E+00  1.60000000E+01
  1.00800000E+00  1.00800000E+00  1.60000000E+01  1.00800000E+00  1.00800000E+00
  1.60000000E+01  1.00800000E+00  1.00800000E+00  1.60000000E+01  1.00800000E+00
  1.00800000E+00  1.60000000E+01  1.00800000E+00  1.00800000E+00  1.60000000E+01
  1.00800000E+00  1.00800000E+00  1.60000000E+01  1.00800000E+00  1.00800000E+00
  1.60000000E+01  1.00800000E+00  1.00800000E+00  1.60000000E+01  1.00800000E+00
  1.00800000E+00  1.60000000E+01  1.00800000E+00  1.00800000E+00  1.60000000E+01
  1.00800000E+00  1.00800000E+00  1.60000000E+01  1.00800000E+00  1.00800000E+00
  1.60000000E+01  1.00800000E+00  1.00800000E+00  1.60000000E+01  1.00800000E+00
  1.00800000E+00  1.60000000E+01  1.00800000E+00  1.00800000E+00  1.60000000E+01
  1.00800000E+00  1.00800000E+00  1.60000000E+01  1.00800000E+00  1.00800000E+00
  1.60000000E+01  1.00800000E+00  1.00800000E+00  1.60000000E+01  1.00800000E+00
  1.00800000E+00  1.60000000E+01  1.00800000E+00  1.00800000E+00  1.60000000E+01
  1.00800000E+00  1.00800000E+00  1.60000000E+01  1.00800000E+00  1.00800000E+00
  1.60000000E+01  1.00800000E+00  1.00800000E+00  1.60000000E+01  1.00800000E+00
  1.00800000E+00  1.60000000E+01  1.00800000E+00  1.00800000E+00  1.60000000E+01
  1.00800000E+00  1.00800000E+00  1.60000000E+01  1.00800000E+00  1.00800000E+00
  1.60000000E+01  1.00800000E+00  1.00800000E+00  1.60000000E+01  1.00800000E+00
  1.00800000E+00  1.60000000E+01  1.00800000E+00  1.00800000E+00  1.60000000E+01
  1.00800000E+00  1.00800000E+00  1.60000000E+01  1.00800000E+00  1.00800000E+00
  1.60000000E+01  1.00800000E+00  1.00800000E+00  1.60000000E+01  1.00800000E+00
  1.00800000E+00  1.60000000E+01  1.00800000E+00  1.00800000E+00  1.60000000E+01
  1.00800000E+00  1.00800000E+00  1.60000000E+01  1.00800000E+00  1.00800000E+00
  1.60000000E+01  1.00800000E+00  1.00800000E+00  1.60000000E+01  1.00800000E+00
  1.00800000E+00  1.60000000E+01  1.00800000E+00  1.00800000E+00  1.60000000E+01
  1.00800000E+00  1.00800000E+00  1.60000000E+01  1.00800000E+00  1.00800000E+00
  1.60000000E+01  1.00800000E+00  1.00800000E+00  1.60000000E+01  1.00800000E+00
  1.00800000E+00  1.60000000E+01  1.00800000E+00  1.00800000E+00  1.60000000E+01
  1.00800000E+00  1.00800000E+00  1.60000000E+01  1.00800000E+00  1.00800000E+00
  1.60000000E+01  1.00800000E+00  1.00800000E+00  1.60000000E+01  1.00800000E+00
  1.00800000E+00  1.60000000E+01  1.00800000E+00  1.00800000E+00  1.60000000E+01
  1.00800000E+00  1.00800000E+00  1.60000000E+01  1.00800000E+00  1.00800000E+00
  1.60000000E+01  1.00800000E+00  1.00800000E+00  1.60000000E+01  1.00800000E+00
  1.00800000E+00  1.60000000E+01  1.00800000E+00  1.00800000E+00  1.60000000E+01
  1.00800000E+00  1.00800000E+00  1.60000000E+01  1.00800000E+00  1.00800000E+00
  1.60000000E+01  1.00800000E+00  1.00800000E+00  1.60000000E+01  1.00800000E+00
  1.00800000E+00  1.60000000E+01  1.00800000E+00  1.00800000E+00  1.60000000E+01
  1.00800000E+00  1.00800000E+00  1.60000000E+01  1.00800000E+00  1.00800000E+00
  1.60000000E+01  1.00800000E+00  1.00800000E+00  1.60000000E+01  1.00800000E+00
  1.00800000E+00  1.60000000E+01  1.00800000E+00  1.00800000E+00  1.60000000E+01
  1.00800000E+00  1.00800000E+00  1.60000000E+01  1.00800000E+00  1.00800000E+00
  1.60000000E+01  1.00800000E+00  1.00800000E+00  1.60000000E+01  1.00800000E+00
  1.00800000E+00  1.60000000E+01  1.00800000E+00  1.00800000E+00  1.60000000E+01
  1.00800000E+00  1.00800000E+00  1.60000000E+01  1.00800000E+00  1.00800000E+00
  1.60000000E+01  1.00800000E+00  1.00800000E+00  1.60000000E+01  1.00800000E+00
  1.00800000E+00  1.60000000E+01  1.00800000E+00  1.00800000E+00  1.60000000E+01
  1.00800000E+00  1.00800000E+00  1.60000000E+01  1.00800000E+00  1.00800000E+00
  1.60000000E+01  1.00800000E+00  1.00800000E+00  1.60000000E+01  1.00800000E+00
  1.00800000E+00  1.60000000E+01  1.00800000E+00  1.00800000E+00  1.60000000E+01
  1.00800000E+00  1.00800000E+00  1.60000000E+01  1.00800000E+00  1.00800000E+00
  1.60000000E+01  1.00800000E+00  1.00800000E+00  1.60000000E+01  1.00800000E+00
  1.00800000E+00  1.60000000E+01  1.00800000E+00  1.00800000E+00  1.60000000E+01
  1.00800000E+00  1.00800000E+00  1.60000000E+01  1.00800000E+00  1.00800000E+00
  1.60000000E+01  1.00800000E+00  1.00800000E+00  1.60000000E+01  1.00800000E+00
  1.00800000E+00  1.60000000E+01  1.00800000E+00  1.00800000E+00  1.60000000E+01
  1.00800000E+00  1.00800000E+00  1.60000000E+01  1.00800000E+00  1.00800000E+00
  1.60000000E+01  1.00800000E+00  1.00800000E+00  1.60000000E+01  1.00800000E+00
  1.00800000E+00  1.60000000E+01  1.00800000E+00  1.00800000E+00  1.60000000E+01
  1.00800000E+00  1.00800000E+00  1.60000000E+01  1.00800000E+00  1.00800000E+00
  1.60000000E+01  1.00800000E+00  1.00800000E+00  1.60000000E+01  1.00800000E+00
  1.00800000E+00  1.60000000E+01  1.00800000E+00  1.00800000E+00  1.60000000E+01
  1.00800000E+00  1.00800000E+00  1.60000000E+01  1.00800000E+00  1.00800000E+00
  1.60000000E+01  1.00800000E+00  1.00800000E+00  1.60000000E+01  1.00800000E+00
  1.00800000E+00  1.60000000E+01  1.00800000E+00  1.00800000E+00  1.60000000E+01
  1.00800000E+00  1.00800000E+00  1.60000000E+01  1.00800000E+00  1.00800000E+00
  1.60000000E+01  1.00800000E+00  1.00800000E+00  1.60000000E+01  1.00800000E+00
  1.00800000E+00  1.60000000E+01  1.00800000E+00  1.00800000E+00  1.60000000E+01
  1.00800000E+00  1.00800000E+00  1.60000000E+01  1.00800000E+00  1.00800000E+00
  1.60000000E+01  1.00800000E+00  1.00800000E+00  1.60000000E+01  1.00800000E+00
  1.00800000E+00  1.60000000E+01  1.00800000E+00  1.00800000E+00  1.60000000E+01
  1.00800000E+00  1.00800000E+00  1.60000000E+01  1.00800000E+00  1.00800000E+00
  1.60000000E+01  1.00800000E+00  1.00800000E+00  1.60000000E+01  1.00800000E+00
  1.00800000E+00  1.60000000E+01  1.00800000E+00  1.00800000E+00  1.60000000E+01
  1.00800000E+00  1.00800000E+00  1.60000000E+01  1.00800000E+00  1.00800000E+00
  1.60000000E+01  1.00800000E+00  1.00800000E+00  1.60000000E+01  1.00800000E+00
  1.00800000E+00  1.60000000E+01  1.00800000E+00  1.00800000E+00  1.60000000E+01
  1.00800000E+00  1.00800000E+00  1.60000000E+01  1.00800000E+00  1.00800000E+00
  1.60000000E+01  1.00800000E+00  1.00800000E+00  1.60000000E+01  1.00800000E+00
  1.00800000E+00  1.60000000E+01  1.00800000E+00  1.00800000E+00  1.60000000E+01
  1.00800000E+00  1.00800000E+00  1.60000000E+01  1.00800000E+00  1.00800000E+00
  1.60000000E+01  1.00800000E+00  1.00800000E+00  1.60000000E+01  1.00800000E+00
  1.00800000E+00  1.60000000E+01  1.00800000E+00  1.00800000E+00  1.60000000E+01
  1.00800000E+00  1.00800000E+00  1.60000000E+01  1.00800000E+00  1.00800000E+00
  1.60000000E+01  1.00800000E+00  1.00800000E+00  1.60000000E+01  1.00800000E+00
  1.00800000E+00  1.60000000E+01  1.00800000E+00  1.00800000E+00  1.60000000E+01
  1.00800000E+00  1.00800000E+00  1.60000000E+01  1.00800000E+00  1.00800000E+00
  1.60000000E+01  1.00800000E+00  1.00800000E+00  1.60000000E+01  1.00800000E+00
  1.00800000E+00  1.60000000E+01  1.00800000E+00  1.00800000E+00  1.60000000E+01
  1.00800000E+00  1.00800000E+00  1.60000000E+01  1.00800000E+00  1.00800000E+00
  1.60000000E+01  1.00800000E+00  1.00800000E+00  1.60000000E+01  1.00800000E+00
  1.00800000E+00  1.60000000E+01  1.00800000E+00  1.00800000E+00  1.60000000E+01
  1.00800000E+00  1.00800000E+00  1.60000000E+01  1.00800000E+00  1.00800000E+00
  1.60000000E+01  1.00800000E+00  1.00800000E+00  1.60000000E+01  1.00800000E+00
  1.00800000E+00  1.60000000E+01  1.00800000E+00  1.00800000E+00  1.60000000E+01
  1.00800000E+00  1.00800000E+00  1.60000000E+01  1.00800000E+00  1.00800000E+00
  1.60000000E+01  1.00800000E+00  1.00800000E+00  1.60000000E+01  1.00800000E+00
  1.00800000E+00  1.60000000E+01  1.00800000E+00  1.00800000E+00  1.60000000E+01
  1.00800000E+00  1.00800000E+00  1.60000000E+01  1.00800000E+00  1.00800000E+00
  1.60000000E+01  1.00800000E+00  1.00800000E+00  1.60000000E+01  1.00800000E+00
  1.00800000E+00  1.60000000E+01  1.00800000E+00  1.00800000E+00  1.60000000E+01
  1.00800000E+00  1.00800000E+00  1.60000000E+01  1.00800000E+00  1.00800000E+00
  1.60000000E+01  1.00800000E+00  1.00800000E+00  1.60000000E+01  1.00800000E+00
  1.00800000E+00  1.60000000E+01  1.00800000E+00  1.00800000E+00  1.60000000E+01
  1.00800000E+00  1.00800000E+00  1.60000000E+01  1.00800000E+00  1.00800000E+00
  1.60000000E+01  1.00800000E+00  1.00800000E+00  1.60000000E+01  1.00800000E+00
  1.00800000E+00  1.60000000E+01  1.00800000E+00  1.00800000E+00  1.60000000E+01
  1.00800000E+00  1.00800000E+00  1.60000000E+01  1.00800000E+00  1.00800000E+00
  1.60000000E+01  1.00800000E+00  1.00800000E+00  1.60000000E+01  1.00800000E+00
  1.00800000E+00  1.60000000E+01  1.00800000E+00  1.00800000E+00  1.60000000E+01
  1.00800000E+00  1.00800000E+00  1.60000000E+01  1.00800000E+00  1.00800000E+00
  1.60000000E+01  1.00800000E+00  1.00800000E+00  1.60000000E+01  1.00800000E+00
  1.00800000E+00  1.60000000E+01  1.00800000E+00  1.00800000E+00  1.60000000E+01
  1.00800000E+00  1.00800000E+00  1.60000000E+01  1.00800000E+00  1.00800000E+00
  1.60000000E+01  1.00800000E+00  1.00800000E+00  1.60000000E+01  1.00800000E+00
  1.00800000E+00  1.60000000E+01  1.00800000E+00  1.00800000E+00  1.60000000E+01
  1.00800000E+00  1.00800000E+00  1.60000000E+01  1.00800000E+00  1.00800000E+00
  1.60000000E+01  1.00800000E+00  1.00800000E+00  1.60000000E+01  1.00800000E+00
  1.00800000E+00  1.60000000E+01  1.00800000E+00  1.00800000E+00  1.60000000E+01
  1.00800000E+00  1.00800000E+00  1.60000000E+01  1.00800000E+00  1.00800000E+00
  1.60000000E+01  1.00800000E+00  1.00800000E+00  1.60000000E+01  1.00800000E+00
  1.00800000E+00  1.60000000E+01  1.00800000E+00  1.00800000E+00  1.60000000E+01
  1.00800000E+00  1.00800000E+00  1.60000000E+01  1.00800000E+00  1.00800000E+00
  1.60000000E+01  1.00800000E+00  1.00800000E+00  1.60000000E+01  1.00800000E+00
  1.00800000E+00  1.60000000E+01  1.00800000E+00  1.00800000E+00  1.60000000E+01
  1.00800000E+00  1.00800000E+00  1.60000000E+01  1.00800000E+00  1.00800000E+00
  1.60000000E+01  1.00800000E+00  1.00800000E+00  1.60000000E+01  1.00800000E+00
  1.00800000E+00  1.60000000E+01  1.00800000E+00  1.00800000E+00  1.60000000E+01
  1.00800000E+00  1.00800000E+00  1.60000000E+01  1.00800000E+00  1.00800000E+00
  1.60000000E+01  1.00800000E+00  1.00800000E+00  1.60000000E+01  1.00800000E+00
  1.00800000E+00  1.60000000E+01  1.00800000E+00  1.00800000E+00  1.60000000E+01
  1.00800000E+00  1.00800000E+00  1.60000000E+01  1.00800000E+00  1.00800000E+00
  1.60000000E+01  1.00800000E+00  1.00800000E+00  1.60000000E+01  1.00800000E+00
  1.00800000E+00  1.60000000E+01  1.00800000E+00  1.00800000E+00  1.60000000E+01
  1.00800000E+00  1.00800000E+00  1.60000000E+01  1.00800000E+00  1.00800000E+00
  1.60000000E+01  1.00800000E+00  1.00800000E+00  1.60000000E+01  1.00800000E+00
  1.00800000E+00  1.60000000E+01  1.00800000E+00  1.00800000E+00  1.60000000E+01
  1.00800000E+00  1.00800000E+00  1.60000000E+01  1.00800000E+00  1.00800000E+00
  1.60000000E+01  1.00800000E+00  1.00800000E+00  1.60000000E+01  1.00800000E+00
  1.00800000E+00  1.60000000E+01  1.00800000E+00  1.00800000E+00  1.60000000E+01
  1.00800000E+00  1.00800000E+00  1.60000000E+01  1.00800000E+00  1.00800000E+00
  1.60000000E+01  1.00800000E+00  1.00800000E+00  1.60000000E+01  1.00800000E+00
  1.00800000E+00  1.60000000E+01  1.00800000E+00  1.00800000E+00  1.60000000E+01
  1.00800000E+00  1.00800000E+00  1.60000000E+01  1.00800000E+00  1.00800000E+00
  1.60000000E+01  1.00800000E+00  1.00800000E+00  1.60000000E+01  1.00800000E+00
  1.00800000E+00  1.60000000E+01  1.00800000E+00  1.00800000E+00  1.60000000E+01
  1.00800000E+00  1.00800000E+00  1.60000000E+01  1.00800000E+00  1.00800000E+00
  1.60000000E+01  1.00800000E+00  1.00800000E+00  1.60000000E+01  1.00800000E+00
  1.00800000E+00  1.60000000E+01  1.00800000E+00  1.00800000E+00  1.60000000E+01
  1.00800000E+00  1.00800000E+00  1.60000000E+01  1.00800000E+00  1.00800000E+00
  1.60000000E+01  1.00800000E+00  1.00800000E+00  1.60000000E+01  1.00800000E+00
  1.00800000E+00  1.60000000E+01  1.00800000E+00  1.00800000E+00  1.60000000E+01
  1.00800000E+00  1.00800000E+00  1.60000000E+01  1.00800000E+00  1.00800000E+00
  1.60000000E+01  1.00800000E+00  1.00800000E+00  1.60000000E+01  1.00800000E+00
  1.00800000E+00  1.60000000E+01  1.00800000E+00  1.00800000E+00  1.60000000E+01
  1.00800000E+00  1.00800000E+00  1.60000000E+01  1.00800000E+00  1.00800000E+00
  1.60000000E+01  1.00800000E+00  1.00800000E+00  1.60000000E+01  1.00800000E+00
  1.00800000E+00  1.60000000E+01  1.00800000E+00  1.00800000E+00  1.60000000E+01
  1.00800000E+00  1.00800000E+00  1.60000000E+01  1.00800000E+00  1.00800000E+00
  1.60000000E+01  1.00800000E+00  1.00800000E+00  1.60000000E+01  1.00800000E+00
  1.00800000E+00  1.60000000E+01  1.00800000E+00  1.00800000E+00  1.60000000E+01
  1.00800000E+00  1.00800000E+00  1.60000000E+01  1.00800000E+00  1.00800000E+00
  1.60000000E+01  1.00800000E+00  1.00800000E+00  1.60000000E+01  1.00800000E+00
  1.00800000E+00  1.60000000E+01  1.00800000E+00  1.00800000E+00  1.60000000E+01
  1.00800000E+00  1.00800000E+00  1.60000000E+01  1.00800000E+00  1.00800000E+00
  1.60000000E+01  1.00800000E+00  1.00800000E+00  1.60000000E+01  1.00800000E+00
  1.00800000E+00  1.60000000E+01  1.00800000E+00  1.00800000E+00  1.60000000E+01
  1.00800000E+00  1.00800000E+00  1.60000000E+01  1.00800000E+00  1.00800000E+00
  1.60000000E+01  1.00800000E+00  1.00800000E+00  1.60000000E+01  1.00800000E+00
  1.00800000E+00  1.60000000E+01  1.00800000E+00  1.00800000E+00  1.60000000E+01
  1.00800000E+00  1.00800000E+00  1.60000000E+01  1.00800000E+00  1.00800000E+00
  1.60000000E+01  1.00800000E+00  1.00800000E+00  1.60000000E+01  1.00800000E+00
  1.00800000E+00  1.60000000E+01  1.00800000E+00  1.00800000E+00  1.60000000E+01
  1.00800000E+00  1.00800000E+00  1.60000000E+01  1.00800000E+00  1.00800000E+00
  1.60000000E+01  1.00800000E+00  1.00800000E+00  1.60000000E+01  1.00800000E+00
  1.00800000E+00  1.60000000E+01  1.00800000E+00  1.00800000E+00  1.60000000E+01
  1.00800000E+00  1.00800000E+00  1.60000000E+01  1.00800000E+00  1.00800000E+00
  1.60000000E+01  1.00800000E+00  1.00800000E+00  1.60000000E+01  1.00800000E+00
  1.00800000E+00  1.60000000E+01  1.00800000E+00  1.00800000E+00  1.60000000E+01
  1.00800000E+00  1.00800000E+00  1.60000000E+01  1.00800000E+00  1.00800000E+00
  1.60000000E+01  1.00800000E+00  1.00800000E+00  1.60000000E+01  1.00800000E+00
  1.00800000E+00  1.60000000E+01  1.00800000E+00  1.00800000E+00  1.60000000E+01
  1.00800000E+00  1.00800000E+00  1.60000000E+01  1.00800000E+00  1.00800000E+00
  1.60000000E+01  1.00800000E+00  1.00800000E+00  1.60000000E+01  1.00800000E+00
  1.00800000E+00  1.60000000E+01  1.00800000E+00  1.00800000E+00  1.60000000E+01
  1.00800000E+00  1.00800000E+00  1.60000000E+01  1.00800000E+00  1.00800000E+00
  1.60000000E+01  1.00800000E+00  1.00800000E+00  1.60000000E+01  1.00800000E+00
  1.00800000E+00  1.60000000E+01  1.00800000E+00  1.00800000E+00  1.60000000E+01
  1.00800000E+00  1.00800000E+00  1.60000000E+01  1.00800000E+00  1.00800000E+00
  1.60000000E+01  1.00800000E+00  1.00800000E+00  1.60000000E+01  1.00800000E+00
  1.00800000E+00  1.60000000E+01  1.00800000E+00  1.00800000E+00  1.60000000E+01
  1.00800000E+00  1.00800000E+00  1.60000000E+01  1.00800000E+00  1.00800000E+00
  1.60000000E+01  1.00800000E+00  1.00800000E+00  1.60000000E+01  1.00800000E+00
  1.00800000E+00  1.60000000E+01  1.00800000E+00  1.00800000E+00  1.60000000E+01
  1.00800000E+00  1.00800000E+00  1.60000000E+01  1.00800000E+00  1.00800000E+00
  1.60000000E+01  1.00800000E+00  1.00800000E+00  1.60000000E+01  1.00800000E+00
  1.00800000E+00  1.60000000E+01  1.00800000E+00  1.00800000E+00  1.60000000E+01
  1.00800000E+00  1.00800000E+00  1.60000000E+01  1.00800000E+00  1.00800000E+00
  1.60000000E+01  1.00800000E+00  1.00800000E+00  1.60000000E+01  1.00800000E+00
  1.00800000E+00  1.60000000E+01  1.00800000E+00  1.00800000E+00  1.60000000E+01
  1.00800000E+00  1.00800000E+00  1.60000000E+01  1.00800000E+00  1.00800000E+00
  1.60000000E+01  1.00800000E+00  1.00800000E+00  1.60000000E+01  1.00800000E+00
  1.00800000E+00  1.60000000E+01  1.00800000E+00  1.00800000E+00  1.60000000E+01
  1.00800000E+00  1.00800000E+00  1.60000000E+01  1.00800000E+00  1.00800000E+00
  1.60000000E+01  1.00800000E+00  1.00800000E+00  1.60000000E+01  1.00800000E+00
  1.00800000E+00  1.60000000E+01  1.00800000E+00  1.00800000E+00  1.60000000E+01
  1.00800000E+00  1.00800000E+00  1.60000000E+01  1.00800000E+00  1.00800000E+00
  1.60000000E+01  1.00800000E+00  1.00800000E+00  1.60000000E+01  1.00800000E+00
  1.00800000E+00  1.60000000E+01  1.00800000E+00  1.00800000E+00  1.60000000E+01
  1.00800000E+00  1.00800000E+00  1.60000000E+01  1.00800000E+00  1.00800000E+00
  1.60000000E+01  1.00800000E+00  1.00800000E+00  1.60000000E+01  1.00800000E+00
  1.00800000E+00  1.60000000E+01  1.00800000E+00  1.00800000E+00  1.60000000E+01
  1.00800000E+00  1.00800000E+00  1.60000000E+01  1.00800000E+00  1.00800000E+00
  1.60000000E+01  1.00800000E+00  1.00800000E+00  1.60000000E+01  1.00800000E+00
  1.00800000E+00  1.60000000E+01  1.00800000E+00  1.00800000E+00  1.60000000E+01
  1.00800000E+00  1.00800000E+00  1.60000000E+01  1.00800000E+00  1.00800000E+00
  1.60000000E+01  1.00800000E+00  1.00800000E+00  1.60000000E+01  1.00800000E+00
  1.00800000E+00  1.60000000E+01  1.00800000E+00  1.00800000E+00  1.60000000E+01
  1.00800000E+00  1.00800000E+00  1.60000000E+01  1.00800000E+00  1.00800000E+00
  1.60000000E+01  1.00800000E+00  1.00800000E+00  1.60000000E+01  1.00800000E+00
  1.00800000E+00  1.60000000E+01  1.00800000E+00  1.00800000E+00  1.60000000E+01
  1.00800000E+00  1.00800000E+00  1.60000000E+01  1.00800000E+00  1.00800000E+00
  1.60000000E+01  1.00800000E+00  1.00800000E+00  1.60000000E+01  1.00800000E+00
  1.00800000E+00  1.60000000E+01  1.00800000E+00  1.00800000E+00  1.60000000E+01
  1.00800000E+00  1.00800000E+00  1.60000000E+01  1.00800000E+00  1.00800000E+00
  1.60000000E+01  1.00800000E+00  1.00800000E+00  1.60000000E+01  1.00800000E+00
  1.00800000E+00  1.60000000E+01  1.00800000E+00  1.00800000E+00  1.60000000E+01
  1.00800000E+00  1.00800000E+00  1.60000000E+01  1.00800000E+00  1.00800000E+00
  1.60000000E+01  1.00800000E+00  1.00800000E+00  1.60000000E+01  1.00800000E+00
  1.00800000E+00  1.60000000E+01  1.00800000E+00  1.00800000E+00  1.60000000E+01
  1.00800000E+00  1.00800000E+00  1.60000000E+01  1.00800000E+00  1.00800000E+00
  1.60000000E+01  1.00800000E+00  1.00800000E+00  1.60000000E+01  1.00800000E+00
  1.00800000E+00  1.60000000E+01  1.00800000E+00  1.00800000E+00  1.60000000E+01
  1.00800000E+00  1.00800000E+00  1.60000000E+01  1.00800000E+00  1.00800000E+00
  1.60000000E+01  1.00800000E+00  1.00800000E+00  1.60000000E+01  1.00800000E+00
  1.00800000E+00  1.60000000E+01  1.00800000E+00  1.00800000E+00  1.60000000E+01
  1.00800000E+00  1.00800000E+00  1.60000000E+01  1.00800000E+00  1.00800000E+00
  1.60000000E+01  1.00800000E+00  1.00800000E+00  1.60000000E+01  1.00800000E+00
  1.00800000E+00  1.60000000E+01  1.00800000E+00  1.00800000E+00  1.60000000E+01
  1.00800000E+00  1.00800000E+00  1.60000000E+01  1.00800000E+00  1.00800000E+00
  1.60000000E+01  1.00800000E+00  1.00800000E+00  1.60000000E+01  1.00800000E+00
  1.00800000E+00  1.60000000E+01  1.00800000E+00  1.00800000E+00  1.60000000E+01
  1.00800000E+00  1.00800000E+00  1.60000000E+01  1.00800000E+00  1.00800000E+00
  1.60000000E+01  1.00800000E+00  1.00800000E+00  1.60000000E+01  1.00800000E+00
  1.00800000E+00  1.60000000E+01  1.00800000E+00  1.00800000E+00  1.60000000E+01
  1.00800000E+00  1.00800000E+00  1.60000000E+01  1.00800000E+00  1.00800000E+00
  1.60000000E+01  1.00800000E+00  1.00800000E+00  1.60000000E+01  1.00800000E+00
  1.00800000E+00  1.60000000E+01  1.00800000E+00  1.00800000E+00  1.60000000E+01
  1.00800000E+00  1.00800000E+00  1.60000000E+01  1.00800000E+00  1.00800000E+00
  1.60000000E+01  1.00800000E+00  1.00800000E+00  1.60000000E+01  1.00800000E+00
  1.00800000E+00  1.60000000E+01  1.00800000E+00  1.00800000E+00  1.60000000E+01
  1.00800000E+00  1.00800000E+00  1.60000000E+01  1.00800000E+00  1.00800000E+00
  1.60000000E+01  1.00800000E+00  1.00800000E+00  1.60000000E+01  1.00800000E+00
  1.00800000E+00  1.60000000E+01  1.00800000E+00  1.00800000E+00  1.60000000E+01
  1.00800000E+00  1.00800000E+00  1.60000000E+01  1.00800000E+00  1.00800000E+00
  1.60000000E+01  1.00800000E+00  1.00800000E+00  1.60000000E+01  1.00800000E+00
  1.00800000E+00  1.60000000E+01  1.00800000E+00  1.00800000E+00  1.60000000E+01
  1.00800000E+00  1.00800000E+00  1.60000000E+01  1.00800000E+00  1.00800000E+00
  1.60000000E+01  1.00800000E+00  1.00800000E+00  1.60000000E+01  1.00800000E+00
  1.00800000E+00  1.60000000E+01  1.00800000E+00  1.00800000E+00  1.60000000E+01
  1.00800000E+00  1.00800000E+00  1.60000000E+01  1.00800000E+00  1.00800000E+00
  1.60000000E+01  1.00800000E+00  1.00800000E+00  1.60000000E+01  1.00800000E+00
  1.00800000E+00  1.60000000E+01  1.00800000E+00  1.00800000E+00  1.60000000E+01
  1.00800000E+00  1.00800000E+00  1.60000000E+01  1.00800000E+00  1.00800000E+00
  1.60000000E+01  1.00800000E+00  1.00800000E+00  1.60000000E+01  1.00800000E+00
  1.00800000E+00  1.60000000E+01  1.00800000E+00  1.00800000E+00  1.60000000E+01
  1.00800000E+00  1.00800000E+00  1.60000000E+01  1.00800000E+00  1.00800000E+00
  1.60000000E+01  1.00800000E+00  1.00800000E+00  1.60000000E+01  1.00800000E+00
  1.00800000E+00  1.60000000E+01  1.00800000E+00  1.00800000E+00  1.60000000E+01
  1.00800000E+00  1.00800000E+00  1.60000000E+01  1.00800000E+00  1.00800000E+00
  1.60000000E+01  1.00800000E+00  1.00800000E+00  1.60000000E+01  1.00800000E+00
  1.00800000E+00  1.60000000E+01  1.00800000E+00  1.00800000E+00  1.60000000E+01
  1.00800000E+00  1.00800000E+00  1.60000000E+01  1.00800000E+00  1.00800000E+00
  1.60000000E+01  1.00800000E+00  1.00800000E+00  1.60000000E+01  1.00800000E+00
  1.00800000E+00  1.60000000E+01  1.00800000E+00  1.00800000E+00  1.60000000E+01
  1.00800000E+00  1.00800000E+00  1.60000000E+01  1.00800000E+00  1.00800000E+00
  1.60000000E+01  1.00800000E+00  1.00800000E+00  1.60000000E+01  1.00800000E+00
  1.00800000E+00  1.60000000E+01  1.00800000E+00  1.00800000E+00  1.60000000E+01
  1.00800000E+00  1.00800000E+00  1.60000000E+01  1.00800000E+00  1.00800000E+00
  1.60000000E+01  1.00800000E+00  1.00800000E+00  1.60000000E+01  1.00800000E+00
  1.00800000E+00  1.60000000E+01  1.00800000E+00  1.00800000E+00  1.60000000E+01
  1.00800000E+00  1.00800000E+00  1.60000000E+01  1.00800000E+00  1.00800000E+00
  1.60000000E+01  1.00800000E+00  1.00800000E+00  1.60000000E+01  1.00800000E+00
  1.00800000E+00  1.60000000E+01  1.00800000E+00  1.00800000E+00  1.60000000E+01
  1.00800000E+00  1.00800000E+00  1.60000000E+01  1.00800000E+00  1.00800000E+00
  1.60000000E+01  1.00800000E+00  1.00800000E+00  1.60000000E+01  1.00800000E+00
  1.00800000E+00  1.60000000E+01  1.00800000E+00  1.00800000E+00  1.60000000E+01
  1.00800000E+00  1.00800000E+00  1.60000000E+01  1.00800000E+00  1.00800000E+00
  1.60000000E+01  1.00800000E+00  1.00800000E+00  1.60000000E+01  1.00800000E+00
  1.00800000E+00  1.60000000E+01  1.00800000E+00  1.00800000E+00  1.60000000E+01
  1.00800000E+00  1.00800000E+00  1.60000000E+01  1.00800000E+00  1.00800000E+00
  1.60000000E+01  1.00800000E+00  1.00800000E+00  1.60000000E+01  1.00800000E+00
  1.00800000E+00  1.60000000E+01  1.00800000E+00  1.00800000E+00  1.60000000E+01
  1.00800000E+00  1.00800000E+00  1.60000000E+01  1.00800000E+00  1.00800000E+00
  1.60000000E+01  1.00800000E+00  1.00800000E+00  1.60000000E+01  1.00800000E+00
  1.00800000E+00  1.60000000E+01  1.00800000E+00  1.00800000E+00  1.60000000E+01
  1.00800000E+00  1.00800000E+00  1.60000000E+01  1.00800000E+00  1.00800000E+00
  1.60000000E+01  1.00800000E+00  1.00800000E+00  1.60000000E+01  1.00800000E+00
  1.00800000E+00  1.60000000E+01  1.00800000E+00  1.00800000E+00  1.60000000E+01
  1.00800000E+00  1.00800000E+00  1.60000000E+01  1.00800000E+00  1.00800000E+00
  1.60000000E+01  1.00800000E+00  1.00800000E+00  1.60000000E+01  1.00800000E+00
  1.00800000E+00  1.60000000E+01  1.00800000E+00  1.00800000E+00  1.60000000E+01
  1.00800000E+00  1.00800000E+00  1.60000000E+01  1.00800000E+00  1.00800000E+00
  1.60000000E+01  1.00800000E+00  1.00800000E+00  1.60000000E+01  1.00800000E+00
  1.00800000E+00  1.60000000E+01  1.00800000E+00  1.00800000E+00  1.60000000E+01
  1.00800000E+00  1.00800000E+00  1.60000000E+01  1.00800000E+00  1.00800000E+00
  1.60000000E+01  1.00800000E+00  1.00800000E+00  1.60000000E+01  1.00800000E+00
  1.00800000E+00  1.60000000E+01  1.00800000E+00  1.00800000E+00  1.60000000E+01
  1.00800000E+00  1.00800000E+00  1.60000000E+01  1.00800000E+00  1.00800000E+00
  1.60000000E+01  1.00800000E+00  1.00800000E+00  1.60000000E+01  1.00800000E+00
  1.00800000E+00  1.60000000E+01  1.00800000E+00  1.00800000E+00  1.60000000E+01
  1.00800000E+00  1.00800000E+00  1.60000000E+01  1.00800000E+00  1.00800000E+00
  1.60000000E+01  1.00800000E+00  1.00800000E+00  1.60000000E+01  1.00800000E+00
  1.00800000E+00  1.60000000E+01  1.00800000E+00  1.00800000E+00  1.60000000E+01
  1.00800000E+00  1.00800000E+00  1.60000000E+01  1.00800000E+00  1.00800000E+00
  1.60000000E+01  1.00800000E+00  1.00800000E+00  1.60000000E+01  1.00800000E+00
  1.00800000E+00  1.60000000E+01  1.00800000E+00  1.00800000E+00  1.60000000E+01
  1.00800000E+00  1.00800000E+00  1.60000000E+01  1.00800000E+00  1.00800000E+00
  1.60000000E+01  1.00800000E+00  1.00800000E+00  1.60000000E+01  1.00800000E+00
  1.00800000E+00  1.60000000E+01  1.00800000E+00  1.00800000E+00  1.60000000E+01
  1.00800000E+00  1.00800000E+00  1.60000000E+01  1.00800000E+00  1.00800000E+00
  1.60000000E+01  1.00800000E+00  1.00800000E+00  1.60000000E+01  1.00800000E+00
  1.00800000E+00  1.60000000E+01  1.00800000E+00  1.00800000E+00  1.60000000E+01
  1.00800000E+00  1.00800000E+00  1.60000000E+01  1.00800000E+00  1.00800000E+00
  1.60000000E+01  1.00800000E+00  1.00800000E+00  1.60000000E+01  1.00800000E+00
  1.00800000E+00  1.60000000E+01  1.00800000E+00  1.00800000E+00  1.60000000E+01
  1.00800000E+00  1.00800000E+00  1.60000000E+01  1.00800000E+00  1.00800000E+00
  1.60000000E+01  1.00800000E+00  1.00800000E+00  1.60000000E+01  1.00800000E+00
  1.00800000E+00  1.60000000E+01  1.00800000E+00  1.00800000E+00  1.60000000E+01
  1.00800000E+00  1.00800000E+00  1.60000000E+01  1.00800000E+00  1.00800000E+00
  1.60000000E+01  1.00800000E+00  1.00800000E+00  1.60000000E+01  1.00800000E+00
  1.00800000E+00  1.60000000E+01  1.00800000E+00  1.00800000E+00  1.60000000E+01
  1.00800000E+00  1.00800000E+00  1.60000000E+01  1.00800000E+00  1.00800000E+00
  1.60000000E+01  1.00800000E+00  1.00800000E+00  1.60000000E+01  1.00800000E+00
  1.00800000E+00  1.60000000E+01  1.00800000E+00  1.00800000E+00  1.60000000E+01
  1.00800000E+00  1.00800000E+00  1.60000000E+01  1.00800000E+00  1.00800000E+00
  1.60000000E+01  1.00800000E+00  1.00800000E+00  1.60000000E+01  1.00800000E+00
  1.00800000E+00  1.60000000E+01  1.00800000E+00  1.00800000E+00  1.60000000E+01
  1.00800000E+00  1.00800000E+00  1.60000000E+01  1.00800000E+00  1.00800000E+00
  1.60000000E+01  1.00800000E+00  1.00800000E+00  1.60000000E+01  1.00800000E+00
  1.00800000E+00  1.60000000E+01  1.00800000E+00  1.00800000E+00  1.60000000E+01
  1.00800000E+00  1.00800000E+00  1.60000000E+01  1.00800000E+00  1.00800000E+00
  1.60000000E+01  1.00800000E+00  1.00800000E+00  1.60000000E+01  1.00800000E+00
  1.00800000E+00  1.60000000E+01  1.00800000E+00  1.00800000E+00  1.60000000E+01
  1.00800000E+00  1.00800000E+00  1.60000000E+01  1.00800000E+00  1.00800000E+00
  1.60000000E+01  1.00800000E+00  1.00800000E+00  1.60000000E+01  1.00800000E+00
  1.00800000E+00  1.60000000E+01  1.00800000E+00  1.00800000E+00  1.60000000E+01
  1.00800000E+00  1.00800000E+00  1.60000000E+01  1.00800000E+00  1.00800000E+00
  1.60000000E+01  1.00800000E+00  1.00800000E+00  1.60000000E+01  1.00800000E+00
  1.00800000E+00  1.60000000E+01  1.00800000E+00  1.00800000E+00  1.60000000E+01
  1.00800000E+00  1.00800000E+00  1.60000000E+01  1.00800000E+00  1.00800000E+00
  1.60000000E+01  1.00800000E+00  1.00800000E+00  1.60000000E+01  1.00800000E+00
  1.00800000E+00  1.60000000E+01  1.00800000E+00  1.00800000E+00  1.60000000E+01
  1.00800000E+00  1.00800000E+00  1.60000000E+01  1.00800000E+00  1.00800000E+00
  1.60000000E+01  1.00800000E+00  1.00800000E+00  1.60000000E+01  1.00800000E+00
  1.00800000E+00  1.60000000E+01  1.00800000E+00  1.00800000E+00  1.60000000E+01
  1.00800000E+00  1.00800000E+00  1.60000000E+01  1.00800000E+00  1.00800000E+00
  1.60000000E+01  1.00800000E+00  1.00800000E+00  1.60000000E+01  1.00800000E+00
  1.00800000E+00  1.60000000E+01  1.00800000E+00  1.00800000E+00  1.60000000E+01
  1.00800000E+00  1.00800000E+00  1.60000000E+01  1.00800000E+00  1.00800000E+00
  1.60000000E+01  1.00800000E+00  1.00800000E+00  1.60000000E+01  1.00800000E+00
  1.00800000E+00  1.60000000E+01  1.00800000E+00  1.00800000E+00  1.60000000E+01
  1.00800000E+00  1.00800000E+00  1.60000000E+01  1.00800000E+00  1.00800000E+00
  1.60000000E+01  1.00800000E+00  1.00800000E+00  1.60000000E+01  1.00800000E+00
  1.00800000E+00  1.60000000E+01  1.00800000E+00  1.00800000E+00  1.60000000E+01
  1.00800000E+00  1.00800000E+00  1.60000000E+01  1.00800000E+00  1.00800000E+00
  1.60000000E+01  1.00800000E+00  1.00800000E+00  1.60000000E+01  1.00800000E+00
  1.00800000E+00  1.60000000E+01  1.00800000E+00  1.00800000E+00  1.60000000E+01
  1.00800000E+00  1.00800000E+00  1.60000000E+01  1.00800000E+00  1.00800000E+00
  1.60000000E+01  1.00800000E+00  1.00800000E+00  1.60000000E+01  1.00800000E+00
  1.00800000E+00  1.60000000E+01  1.00800000E+00  1.00800000E+00  1.60000000E+01
  1.00800000E+00  1.00800000E+00  1.60000000E+01  1.00800000E+00  1.00800000E+00
  1.60000000E+01  1.00800000E+00  1.00800000E+00  1.60000000E+01  1.00800000E+00
  1.00800000E+00  1.60000000E+01  1.00800000E+00  1.00800000E+00  1.60000000E+01
  1.00800000E+00  1.00800000E+00  1.60000000E+01  1.00800000E+00  1.00800000E+00
  1.60000000E+01  1.00800000E+00  1.00800000E+00  1.60000000E+01  1.00800000E+00
  1.00800000E+00  1.60000000E+01  1.00800000E+00  1.00800000E+00  1.60000000E+01
  1.00800000E+00  1.00800000E+00  1.60000000E+01  1.00800000E+00  1.00800000E+00
  1.60000000E+01  1.00800000E+00  1.00800000E+00  1.60000000E+01  1.00800000E+00
  1.00800000E+00  1.60000000E+01  1.00800000E+00  1.00800000E+00  1.60000000E+01
  1.00800000E+00  1.00800000E+00  1.60000000E+01  1.00800000E+00  1.00800000E+00
  1.60000000E+01  1.00800000E+00  1.00800000E+00  1.60000000E+01  1.00800000E+00
  1.00800000E+00  1.60000000E+01  1.00800000E+00  1.00800000E+00  1.60000000E+01
  1.00800000E+00  1.00800000E+00  1.60000000E+01  1.00800000E+00  1.00800000E+00
  1.60000000E+01  1.00800000E+00  1.00800000E+00  1.60000000E+01  1.00800000E+00
  1.00800000E+00  1.60000000E+01  1.00800000E+00  1.00800000E+00  1.60000000E+01
  1.00800000E+00  1.00800000E+00  1.60000000E+01  1.00800000E+00  1.00800000E+00
  1.60000000E+01  1.00800000E+00  1.00800000E+00  1.60000000E+01  1.00800000E+00
  1.00800000E+00  1.60000000E+01  1.00800000E+00  1.00800000E+00  1.60000000E+01
  1.00800000E+00  1.00800000E+00  1.60000000E+01  1.00800000E+00  1.00800000E+00
  1.60000000E+01  1.00800000E+00  1.00800000E+00  1.60000000E+01  1.00800000E+00
  1.00800000E+00  1.60000000E+01  1.00800000E+00  1.00800000E+00  1.60000000E+01
  1.00800000E+00  1.00800000E+00  1.60000000E+01  1.00800000E+00  1.00800000E+00
  1.60000000E+01  1.00800000E+00  1.00800000E+00  1.60000000E+01  1.00800000E+00
  1.00800000E+00  1.60000000E+01  1.00800000E+00  1.00800000E+00  1.60000000E+01
  1.00800000E+00  1.00800000E+00  1.60000000E+01  1.00800000E+00  1.00800000E+00
  1.60000000E+01  1.00800000E+00  1.00800000E+00  1.60000000E+01  1.00800000E+00
  1.00800000E+00  1.60000000E+01  1.00800000E+00  1.00800000E+00  1.60000000E+01
  1.00800000E+00  1.00800000E+00  1.60000000E+01  1.00800000E+00  1.00800000E+00
  1.60000000E+01  1.00800000E+00  1.00800000E+00  1.60000000E+01  1.00800000E+00
  1.00800000E+00  1.60000000E+01  1.00800000E+00  1.00800000E+00  1.60000000E+01
  1.00800000E+00  1.00800000E+00  1.60000000E+01  1.00800000E+00  1.00800000E+00
  1.60000000E+01  1.00800000E+00  1.00800000E+00  1.60000000E+01  1.00800000E+00
  1.00800000E+00  1.60000000E+01  1.00800000E+00  1.00800000E+00  1.60000000E+01
  1.00800000E+00  1.00800000E+00  1.60000000E+01  1.00800000E+00  1.00800000E+00
  1.60000000E+01  1.00800000E+00  1.00800000E+00  1.60000000E+01  1.00800000E+00
  1.00800000E+00  1.60000000E+01  1.00800000E+00  1.00800000E+00  1.60000000E+01
  1.00800000E+00  1.00800000E+00  1.60000000E+01  1.00800000E+00  1.00800000E+00
  1.60000000E+01  1.00800000E+00  1.00800000E+00  1.60000000E+01  1.00800000E+00
  1.00800000E+00  1.60000000E+01  1.00800000E+00  1.00800000E+00  1.60000000E+01
  1.00800000E+00  1.00800000E+00  1.60000000E+01  1.00800000E+00  1.00800000E+00
  1.60000000E+01  1.00800000E+00  1.00800000E+00  1.60000000E+01  1.00800000E+00
  1.00800000E+00  1.60000000E+01  1.00800000E+00  1.00800000E+00  1.60000000E+01
  1.00800000E+00  1.00800000E+00  1.60000000E+01  1.00800000E+00  1.00800000E+00
  1.60000000E+01  1.00800000E+00  1.00800000E+00  1.60000000E+01  1.00800000E+00
  1.00800000E+00  1.60000000E+01  1.00800000E+00  1.00800000E+00  1.60000000E+01
  1.00800000E+00  1.00800000E+00  1.60000000E+01  1.00800000E+00  1.00800000E+00
  1.60000000E+01  1.00800000E+00  1.00800000E+00  1.60000000E+01  1.00800000E+00
  1.00800000E+00  1.60000000E+01  1.00800000E+00  1.00800000E+00  1.60000000E+01
  1.00800000E+00  1.00800000E+00  1.60000000E+01  1.00800000E+00  1.00800000E+00
  1.60000000E+01  1.00800000E+00  1.00800000E+00  1.60000000E+01  1.00800000E+00
  1.00800000E+00  1.60000000E+01  1.00800000E+00  1.00800000E+00  1.60000000E+01
  1.00800000E+00  1.00800000E+00  1.60000000E+01  1.00800000E+00  1.00800000E+00
  1.60000000E+01  1.00800000E+00  1.00800000E+00  1.60000000E+01  1.00800000E+00
  1.00800000E+00  1.60000000E+01  1.00800000E+00  1.00800000E+00  1.60000000E+01
  1.00800000E+00  1.00800000E+00  1.60000000E+01  1.00800000E+00  1.00800000E+00
  1.60000000E+01  1.00800000E+00  1.00800000E+00  1.60000000E+01  1.00800000E+00
  1.00800000E+00  1.60000000E+01  1.00800000E+00  1.00800000E+00  1.60000000E+01
  1.00800000E+00  1.00800000E+00  1.60000000E+01  1.00800000E+00  1.00800000E+00
  1.60000000E+01  1.00800000E+00  1.00800000E+00  1.60000000E+01  1.00800000E+00
  1.00800000E+00  1.60000000E+01  1.00800000E+00  1.00800000E+00  1.60000000E+01
  1.00800000E+00  1.00800000E+00  1.60000000E+01  1.00800000E+00  1.00800000E+00
  1.60000000E+01  1.00800000E+00  1.00800000E+00  1.60000000E+01  1.00800000E+00
  1.00800000E+00  1.60000000E+01  1.00800000E+00  1.00800000E+00  1.60000000E+01
  1.00800000E+00  1.00800000E+00  1.60000000E+01  1.00800000E+00  1.00800000E+00
  1.60000000E+01  1.00800000E+00  1.00800000E+00  1.60000000E+01  1.00800000E+00
  1.00800000E+00  1.60000000E+01  1.00800000E+00  1.00800000E+00  1.60000000E+01
  1.00800000E+00  1.00800000E+00  1.60000000E+01  1.00800000E+00  1.00800000E+00
  1.60000000E+01  1.00800000E+00  1.00800000E+00  1.60000000E+01  1.00800000E+00
  1.00800000E+00  1.60000000E+01  1.00800000E+00  1.00800000E+00  1.60000000E+01
  1.00800000E+00  1.00800000E+00  1.60000000E+01  1.00800000E+00  1.00800000E+00
  1.60000000E+01  1.00800000E+00  1.00800000E+00  1.60000000E+01  1.00800000E+00
  1.00800000E+00  1.60000000E+01  1.00800000E+00  1.00800000E+00  1.60000000E+01
  1.00800000E+00  1.00800000E+00  1.60000000E+01  1.00800000E+00  1.00800000E+00
  1.60000000E+01  1.00800000E+00  1.00800000E+00  1.60000000E+01  1.00800000E+00
  1.00800000E+00  1.60000000E+01  1.00800000E+00  1.00800000E+00  1.60000000E+01
  1.00800000E+00  1.00800000E+00  1.60000000E+01  1.00800000E+00  1.00800000E+00
  1.60000000E+01  1.00800000E+00  1.00800000E+00  1.60000000E+01  1.00800000E+00
  1.00800000E+00  1.60000000E+01  1.00800000E+00  1.00800000E+00  1.60000000E+01
  1.00800000E+00  1.00800000E+00  1.60000000E+01  1.00800000E+00  1.00800000E+00
  1.60000000E+01  1.00800000E+00  1.00800000E+00  1.60000000E+01  1.00800000E+00
  1.00800000E+00  1.60000000E+01  1.00800000E+00  1.00800000E+00  1.60000000E+01
  1.00800000E+00  1.00800000E+00  1.60000000E+01  1.00800000E+00  1.00800000E+00
  1.60000000E+01  1.00800000E+00  1.00800000E+00  1.60000000E+01  1.00800000E+00
  1.00800000E+00  1.60000000E+01  1.00800000E+00  1.00800000E+00  1.60000000E+01
  1.00800000E+00  1.00800000E+00  1.60000000E+01  1.00800000E+00  1.00800000E+00
  1.60000000E+01  1.00800000E+00  1.00800000E+00  1.60000000E+01  1.00800000E+00
  1.00800000E+00  1.60000000E+01  1.00800000E+00  1.00800000E+00  1.60000000E+01
  1.00800000E+00  1.00800000E+00  1.60000000E+01  1.00800000E+00  1.00800000E+00
  1.60000000E+01  1.00800000E+00  1.00800000E+00  1.60000000E+01  1.00800000E+00
  1.00800000E+00  1.60000000E+01  1.00800000E+00  1.00800000E+00  1.60000000E+01
  1.00800000E+00  1.00800000E+00  1.60000000E+01  1.00800000E+00  1.00800000E+00
  1.60000000E+01  1.00800000E+00  1.00800000E+00  1.60000000E+01  1.00800000E+00
  1.00800000E+00  1.60000000E+01  1.00800000E+00  1.00800000E+00  1.60000000E+01
  1.00800000E+00  1.00800000E+00  1.60000000E+01  1.00800000E+00  1.00800000E+00
  1.60000000E+01  1.00800000E+00  1.00800000E+00  1.60000000E+01  1.00800000E+00
  1.00800000E+00  1.60000000E+01  1.00800000E+00  1.00800000E+00  1.60000000E+01
  1.00800000E+00  1.00800000E+00  1.60000000E+01  1.00800000E+00  1.00800000E+00
  1.60000000E+01  1.00800000E+00  1.00800000E+00  1.60000000E+01  1.00800000E+00
  1.00800000E+00  1.60000000E+01  1.00800000E+00  1.00800000E+00  1.60000000E+01
  1.00800000E+00  1.00800000E+00  1.60000000E+01  1.00800000E+00  1.00800000E+00
  1.60000000E+01  1.00800000E+00  1.00800000E+00  1.60000000E+01  1.00800000E+00
  1.00800000E+00  1.60000000E+01  1.00800000E+00  1.00800000E+00  1.60000000E+01
  1.00800000E+00  1.00800000E+00  1.60000000E+01  1.00800000E+00  1.00800000E+00
  1.60000000E+01  1.00800000E+00  1.00800000E+00  1.60000000E+01  1.00800000E+00
  1.00800000E+00  1.60000000E+01  1.00800000E+00  1.00800000E+00  1.60000000E+01
  1.00800000E+00  1.00800000E+00  1.60000000E+01  1.00800000E+00  1.00800000E+00
  1.60000000E+01  1.00800000E+00  1.00800000E+00  1.60000000E+01  1.00800000E+00
  1.00800000E+00  1.60000000E+01  1.00800000E+00  1.00800000E+00  1.60000000E+01
  1.00800000E+00  1.00800000E+00  1.60000000E+01  1.00800000E+00  1.00800000E+00
  1.60000000E+01  1.00800000E+00  1.00800000E+00  1.60000000E+01  1.00800000E+00
  1.00800000E+00  1.60000000E+01  1.00800000E+00  1.00800000E+00  1.60000000E+01
  1.00800000E+00  1.00800000E+00  1.60000000E+01  1.00800000E+00  1.00800000E+00
  1.60000000E+01  1.00800000E+00  1.00800000E+00  1.60000000E+01  1.00800000E+00
  1.00800000E+00  1.60000000E+01  1.00800000E+00  1.00800000E+00  1.60000000E+01
  1.00800000E+00  1.00800000E+00  1.60000000E+01  1.00800000E+00  1.00800000E+00
  1.60000000E+01  1.00800000E+00  1.00800000E+00  1.60000000E+01  1.00800000E+00
  1.00800000E+00  1.60000000E+01  1.00800000E+00  1.00800000E+00  1.60000000E+01
  1.00800000E+00  1.00800000E+00  1.60000000E+01  1.00800000E+00  1.00800000E+00
  1.60000000E+01  1.00800000E+00  1.00800000E+00  1.60000000E+01  1.00800000E+00
  1.00800000E+00  1.60000000E+01  1.00800000E+00  1.00800000E+00  1.60000000E+01
  1.00800000E+00  1.00800000E+00  1.60000000E+01  1.00800000E+00  1.00800000E+00
  1.60000000E+01  1.00800000E+00  1.00800000E+00  1.60000000E+01  1.00800000E+00
  1.00800000E+00  1.60000000E+01  1.00800000E+00  1.00800000E+00  1.60000000E+01
  1.00800000E+00  1.00800000E+00  1.60000000E+01  1.00800000E+00  1.00800000E+00
  1.60000000E+01  1.00800000E+00  1.00800000E+00  1.60000000E+01  1.00800000E+00
  1.00800000E+00  1.60000000E+01  1.00800000E+00  1.00800000E+00  1.60000000E+01
  1.00800000E+00  1.00800000E+00  1.60000000E+01  1.00800000E+00  1.00800000E+00
  1.60000000E+01  1.00800000E+00  1.00800000E+00  1.60000000E+01  1.00800000E+00
  1.00800000E+00  1.60000000E+01  1.00800000E+00  1.00800000E+00  1.60000000E+01
  1.00800000E+00  1.00800000E+00  1.60000000E+01  1.00800000E+00  1.00800000E+00
  1.60000000E+01  1.00800000E+00  1.00800000E+00  1.60000000E+01  1.00800000E+00
  1.00800000E+00  1.60000000E+01  1.00800000E+00  1.00800000E+00  1.60000000E+01
  1.00800000E+00  1.00800000E+00  1.60000000E+01  1.00800000E+00  1.00800000E+00
  1.60000000E+01  1.00800000E+00  1.00800000E+00  1.60000000E+01  1.00800000E+00
  1.00800000E+00  1.60000000E+01  1.00800000E+00  1.00800000E+00  1.60000000E+01
  1.00800000E+00  1.00800000E+00  1.60000000E+01  1.00800000E+00  1.00800000E+00
  1.60000000E+01  1.00800000E+00  1.00800000E+00  1.60000000E+01  1.00800000E+00
  1.00800000E+00  1.60000000E+01  1.00800000E+00  1.00800000E+00  1.60000000E+01
  1.00800000E+00  1.00800000E+00  1.60000000E+01  1.00800000E+00  1.00800000E+00
  1.60000000E+01  1.00800000E+00  1.00800000E+00  1.60000000E+01  1.00800000E+00
  1.00800000E+00  1.60000000E+01  1.00800000E+00  1.00800000E+00  1.60000000E+01
  1.00800000E+00  1.00800000E+00  1.60000000E+01  1.00800000E+00  1.00800000E+00
  1.60000000E+01  1.00800000E+00  1.00800000E+00  1.60000000E+01  1.00800000E+00
  1.00800000E+00  1.60000000E+01  1.00800000E+00  1.00800000E+00  1.60000000E+01
  1.00800000E+00  1.00800000E+00  1.60000000E+01  1.00800000E+00  1.00800000E+00
  1.60000000E+01  1.00800000E+00  1.00800000E+00  1.60000000E+01  1.00800000E+00
  1.00800000E+00  1.60000000E+01  1.00800000E+00  1.00800000E+00  1.60000000E+01
  1.00800000E+00  1.00800000E+00  1.60000000E+01  1.00800000E+00  1.00800000E+00
  1.60000000E+01  1.00800000E+00  1.00800000E+00  1.60000000E+01  1.00800000E+00
  1.00800000E+00  1.60000000E+01  1.00800000E+00  1.00800000E+00  1.60000000E+01
  1.00800000E+00  1.00800000E+00  1.60000000E+01  1.00800000E+00  1.00800000E+00
  1.60000000E+01  1.00800000E+00  1.00800000E+00  1.60000000E+01  1.00800000E+00
  1.00800000E+00  1.60000000E+01  1.00800000E+00  1.00800000E+00  1.60000000E+01
  1.00800000E+00  1.00800000E+00  1.60000000E+01  1.00800000E+00  1.00800000E+00
  1.60000000E+01  1.00800000E+00  1.00800000E+00  1.60000000E+01  1.00800000E+00
  1.00800000E+00  1.60000000E+01  1.00800000E+00  1.00800000E+00  1.60000000E+01
  1.00800000E+00  1.00800000E+00  1.60000000E+01  1.00800000E+00  1.00800000E+00
  1.60000000E+01  1.00800000E+00  1.00800000E+00  1.60000000E+01  1.00800000E+00
  1.00800000E+00  1.60000000E+01  1.00800000E+00  1.00800000E+00  1.60000000E+01
  1.00800000E+00  1.00800000E+00  1.60000000E+01  1.00800000E+00  1.00800000E+00
  1.60000000E+01  1.00800000E+00  1.00800000E+00  1.60000000E+01  1.00800000E+00
  1.00800000E+00  1.60000000E+01  1.00800000E+00  1.00800000E+00  1.60000000E+01
  1.00800000E+00  1.00800000E+00  1.60000000E+01  1.00800000E+00  1.00800000E+00
  1.60000000E+01  1.00800000E+00  1.00800000E+00  1.60000000E+01  1.00800000E+00
  1.00800000E+00  1.60000000E+01  1.00800000E+00  1.00800000E+00  1.60000000E+01
  1.00800000E+00  1.00800000E+00  1.60000000E+01  1.00800000E+00  1.00800000E+00
  1.60000000E+01  1.00800000E+00  1.00800000E+00  1.60000000E+01  1.00800000E+00
  1.00800000E+00  1.60000000E+01  1.00800000E+00  1.00800000E+00  1.60000000E+01
  1.00800000E+00  1.00800000E+00  1.60000000E+01  1.00800000E+00  1.00800000E+00
  1.60000000E+01  1.00800000E+00  1.00800000E+00  1.60000000E+01  1.00800000E+00
  1.00800000E+00  1.60000000E+01  1.00800000E+00  1.00800000E+00  1.60000000E+01
  1.00800000E+00  1.00800000E+00  1.60000000E+01  1.00800000E+00  1.00800000E+00
  1.60000000E+01  1.00800000E+00  1.00800000E+00  1.60000000E+01  1.00800000E+00
  1.00800000E+00  1.60000000E+01  1.00800000E+00  1.00800000E+00  1.60000000E+01
  1.00800000E+00  1.00800000E+00  1.60000000E+01  1.00800000E+00  1.00800000E+00
  1.60000000E+01  1.00800000E+00  1.00800000E+00  1.60000000E+01  1.00800000E+00
  1.00800000E+00  1.60000000E+01  1.00800000E+00  1.00800000E+00  1.60000000E+01
  1.00800000E+00  1.00800000E+00  1.60000000E+01  1.00800000E+00  1.00800000E+00
  1.60000000E+01  1.00800000E+00  1.00800000E+00  1.60000000E+01  1.00800000E+00
  1.00800000E+00  1.60000000E+01  1.00800000E+00  1.00800000E+00  1.60000000E+01
  1.00800000E+00  1.00800000E+00  1.60000000E+01  1.00800000E+00  1.00800000E+00
  1.60000000E+01  1.00800000E+00  1.00800000E+00  1.60000000E+01  1.00800000E+00
  1.00800000E+00  1.60000000E+01  1.00800000E+00  1.00800000E+00  1.60000000E+01
  1.00800000E+00  1.00800000E+00  1.60000000E+01  1.00800000E+00  1.00800000E+00
  1.60000000E+01  1.00800000E+00  1.00800000E+00  1.60000000E+01  1.00800000E+00
  1.00800000E+00  1.60000000E+01  1.00800000E+00  1.00800000E+00  1.60000000E+01
  1.00800000E+00  1.00800000E+00  1.60000000E+01  1.00800000E+00  1.00800000E+00
  1.60000000E+01  1.00800000E+00  1.00800000E+00  1.60000000E+01  1.00800000E+00
  1.00800000E+00  1.60000000E+01  1.00800000E+00  1.00800000E+00  1.60000000E+01
  1.00800000E+00  1.00800000E+00  1.60000000E+01  1.00800000E+00  1.00800000E+00
  1.60000000E+01  1.00800000E+00  1.00800000E+00  1.60000000E+01  1.00800000E+00
  1.00800000E+00  1.60000000E+01  1.00800000E+00  1.00800000E+00  1.60000000E+01
  1.00800000E+00  1.00800000E+00  1.60000000E+01  1.00800000E+00  1.00800000E+00
  1.60000000E+01  1.00800000E+00  1.00800000E+00  1.60000000E+01  1.00800000E+00
  1.00800000E+00  1.60000000E+01  1.00800000E+00  1.00800000E+00  1.60000000E+01
  1.00800000E+00  1.00800000E+00  1.60000000E+01  1.00800000E+00  1.00800000E+00
  1.60000000E+01  1.00800000E+00  1.00800000E+00  1.60000000E+01  1.00800000E+00
  1.00800000E+00  1.60000000E+01  1.00800000E+00  1.00800000E+00  1.60000000E+01
  1.00800000E+00  1.00800000E+00  1.60000000E+01  1.00800000E+00  1.00800000E+00
  1.60000000E+01  1.00800000E+00  1.00800000E+00  1.60000000E+01  1.00800000E+00
  1.00800000E+00  1.60000000E+01  1.00800000E+00  1.00800000E+00  1.60000000E+01
  1.00800000E+00  1.00800000E+00  1.60000000E+01  1.00800000E+00  1.00800000E+00
  1.60000000E+01  1.00800000E+00  1.00800000E+00  1.60000000E+01  1.00800000E+00
  1.00800000E+00  1.60000000E+01  1.00800000E+00  1.00800000E+00  1.60000000E+01
  1.00800000E+00  1.00800000E+00  1.60000000E+01  1.00800000E+00  1.00800000E+00
  1.60000000E+01  1.00800000E+00  1.00800000E+00  1.60000000E+01  1.00800000E+00
  1.00800000E+00  1.60000000E+01  1.00800000E+00  1.00800000E+00  1.60000000E+01
  1.00800000E+00  1.00800000E+00  1.60000000E+01  1.00800000E+00  1.00800000E+00
  1.60000000E+01  1.00800000E+00  1.00800000E+00  1.60000000E+01  1.00800000E+00
  1.00800000E+00  1.60000000E+01  1.00800000E+00  1.00800000E+00  1.60000000E+01
  1.00800000E+00  1.00800000E+00  1.60000000E+01  1.00800000E+00  1.00800000E+00
  1.60000000E+01  1.00800000E+00  1.00800000E+00  1.60000000E+01  1.00800000E+00
  1.00800000E+00  1.60000000E+01  1.00800000E+00  1.00800000E+00  1.60000000E+01
  1.00800000E+00  1.00800000E+00  1.60000000E+01  1.00800000E+00  1.00800000E+00
  1.60000000E+01  1.00800000E+00  1.00800000E+00  1.60000000E+01  1.00800000E+00
  1.00800000E+00  1.60000000E+01  1.00800000E+00  1.00800000E+00  1.60000000E+01
  1.00800000E+00  1.00800000E+00  1.60000000E+01  1.00800000E+00  1.00800000E+00
  1.60000000E+01  1.00800000E+00  1.00800000E+00  1.60000000E+01  1.00800000E+00
  1.00800000E+00  1.60000000E+01  1.00800000E+00  1.00800000E+00  1.60000000E+01
  1.00800000E+00  1.00800000E+00  1.60000000E+01  1.00800000E+00  1.00800000E+00
  1.60000000E+01  1.00800000E+00  1.00800000E+00  1.60000000E+01  1.00800000E+00
  1.00800000E+00  1.60000000E+01  1.00800000E+00  1.00800000E+00  1.60000000E+01
  1.00800000E+00  1.00800000E+00  1.60000000E+01  1.00800000E+00  1.00800000E+00
  1.60000000E+01  1.00800000E+00  1.00800000E+00  1.60000000E+01  1.00800000E+00
  1.00800000E+00  1.60000000E+01  1.00800000E+00  1.00800000E+00  1.60000000E+01
  1.00800000E+00  1.00800000E+00  1.60000000E+01  1.00800000E+00  1.00800000E+00
  1.60000000E+01  1.00800000E+00  1.00800000E+00  1.60000000E+01  1.00800000E+00
  1.00800000E+00  1.60000000E+01  1.00800000E+00  1.00800000E+00  1.60000000E+01
  1.00800000E+00  1.00800000E+00  1.60000000E+01  1.00800000E+00  1.00800000E+00
  1.60000000E+01  1.00800000E+00  1.00800000E+00  1.60000000E+01  1.00800000E+00
  1.00800000E+00  1.60000000E+01  1.00800000E+00  1.00800000E+00  1.60000000E+01
  1.00800000E+00  1.00800000E+00  1.60000000E+01  1.00800000E+00  1.00800000E+00
  1.60000000E+01  1.00800000E+00  1.00800000E+00  1.60000000E+01  1.00800000E+00
  1.00800000E+00  1.60000000E+01  1.00800000E+00  1.00800000E+00  1.60000000E+01
  1.00800000E+00  1.00800000E+00  1.60000000E+01  1.00800000E+00  1.00800000E+00
  1.60000000E+01  1.00800000E+00  1.00800000E+00  1.60000000E+01  1.00800000E+00
  1.00800000E+00  1.60000000E+01  1.00800000E+00  1.00800000E+00  1.60000000E+01
  1.00800000E+00  1.00800000E+00  1.60000000E+01  1.00800000E+00  1.00800000E+00
  1.60000000E+01  1.00800000E+00  1.00800000E+00  1.60000000E+01  1.00800000E+00
  1.00800000E+00  1.60000000E+01  1.00800000E+00  1.00800000E+00  1.60000000E+01
  1.00800000E+00  1.00800000E+00  1.60000000E+01  1.00800000E+00  1.00800000E+00
  1.60000000E+01  1.00800000E+00  1.00800000E+00  1.60000000E+01  1.00800000E+00
  1.00800000E+00  1.60000000E+01  1.00800000E+00  1.00800000E+00  1.60000000E+01
  1.00800000E+00  1.00800000E+00  1.60000000E+01  1.00800000E+00  1.00800000E+00
  1.60000000E+01  1.00800000E+00  1.00800000E+00  1.60000000E+01  1.00800000E+00
  1.00800000E+00  1.60000000E+01  1.00800000E+00  1.00800000E+00  1.60000000E+01
  1.00800000E+00  1.00800000E+00  1.60000000E+01  1.00800000E+00  1.00800000E+00
  1.60000000E+01  1.00800000E+00  1.00800000E+00  1.60000000E+01  1.00800000E+00
  1.00800000E+00  1.60000000E+01  1.00800000E+00  1.00800000E+00  1.60000000E+01
  1.00800000E+00  1.00800000E+00  1.60000000E+01  1.00800000E+00  1.00800000E+00
  1.60000000E+01  1.00800000E+00  1.00800000E+00  1.60000000E+01  1.00800000E+00
  1.00800000E+00  1.60000000E+01  1.00800000E+00  1.00800000E+00  1.60000000E+01
  1.00800000E+00  1.00800000E+00  1.60000000E+01  1.00800000E+00  1.00800000E+00
  1.60000000E+01  1.00800000E+00  1.00800000E+00  1.60000000E+01  1.00800000E+00
  1.00800000E+00  1.60000000E+01  1.00800000E+00  1.00800000E+00  1.60000000E+01
  1.00800000E+00  1.00800000E+00  1.60000000E+01  1.00800000E+00  1.00800000E+00
  1.60000000E+01  1.00800000E+00  1.00800000E+00  1.60000000E+01  1.00800000E+00
  1.00800000E+00  1.60000000E+01  1.00800000E+00  1.00800000E+00  1.60000000E+01
  1.00800000E+00  1.00800000E+00  1.60000000E+01  1.00800000E+00  1.00800000E+00
  1.60000000E+01  1.00800000E+00  1.00800000E+00  1.60000000E+01  1.00800000E+00
  1.00800000E+00  1.60000000E+01  1.00800000E+00  1.00800000E+00  1.60000000E+01
  1.00800000E+00  1.00800000E+00  1.60000000E+01  1.00800000E+00  1.00800000E+00
  1.60000000E+01  1.00800000E+00  1.00800000E+00  1.60000000E+01  1.00800000E+00
  1.00800000E+00  1.60000000E+01  1.00800000E+00  1.00800000E+00  1.60000000E+01
  1.00800000E+00  1.00800000E+00  1.60000000E+01  1.00800000E+00  1.00800000E+00
  1.60000000E+01  1.00800000E+00  1.00800000E+00  1.60000000E+01  1.00800000E+00
  1.00800000E+00  1.60000000E+01  1.00800000E+00  1.00800000E+00  1.60000000E+01
  1.00800000E+00  1.00800000E+00  1.60000000E+01  1.00800000E+00  1.00800000E+00
  1.60000000E+01  1.00800000E+00  1.00800000E+00  1.60000000E+01  1.00800000E+00
  1.00800000E+00  1.60000000E+01  1.00800000E+00  1.00800000E+00  1.60000000E+01
  1.00800000E+00  1.00800000E+00  1.60000000E+01  1.00800000E+00  1.00800000E+00
  1.60000000E+01  1.00800000E+00  1.00800000E+00  1.60000000E+01  1.00800000E+00
  1.00800000E+00  1.60000000E+01  1.00800000E+00  1.00800000E+00  1.60000000E+01
  1.00800000E+00  1.00800000E+00  1.60000000E+01  1.00800000E+00  1.00800000E+00
  1.60000000E+01  1.00800000E+00  1.00800000E+00  1.60000000E+01  1.00800000E+00
  1.00800000E+00  1.60000000E+01  1.00800000E+00  1.00800000E+00  1.60000000E+01
  1.00800000E+00  1.00800000E+00  1.60000000E+01  1.00800000E+00  1.00800000E+00
  1.60000000E+01  1.00800000E+00  1.00800000E+00  1.60000000E+01  1.00800000E+00
  1.00800000E+00  1.60000000E+01  1.00800000E+00  1.00800000E+00  1.60000000E+01
  1.00800000E+00  1.00800000E+00  1.60000000E+01  1.00800000E+00  1.00800000E+00
  1.60000000E+01  1.00800000E+00  1.00800000E+00  1.60000000E+01  1.00800000E+00
  1.00800000E+00  1.60000000E+01  1.00800000E+00  1.00800000E+00  1.60000000E+01
  1.00800000E+00  1.00800000E+00  1.60000000E+01  1.00800000E+00  1.00800000E+00
  1.60000000E+01  1.00800000E+00  1.00800000E+00  1.60000000E+01  1.00800000E+00
  1.00800000E+00  1.60000000E+01  1.00800000E+00  1.00800000E+00  1.60000000E+01
  1.00800000E+00  1.00800000E+00  1.60000000E+01  1.00800000E+00  1.00800000E+00
  1.60000000E+01  1.00800000E+00  1.00800000E+00  1.60000000E+01  1.00800000E+00
  1.00800000E+00  1.60000000E+01  1.00800000E+00  1.00800000E+00  1.60000000E+01
  1.00800000E+00  1.00800000E+00  1.60000000E+01  1.00800000E+00  1.00800000E+00
  1.60000000E+01  1.00800000E+00  1.00800000E+00  1.60000000E+01  1.00800000E+00
  1.00800000E+00  1.60000000E+01  1.00800000E+00  1.00800000E+00  1.60000000E+01
  1.00800000E+00  1.00800000E+00  1.60000000E+01  1.00800000E+00  1.00800000E+00
  1.60000000E+01  1.00800000E+00  1.00800000E+00  1.60000000E+01  1.00800000E+00
  1.00800000E+00  1.60000000E+01  1.00800000E+00  1.00800000E+00  1.60000000E+01
  1.00800000E+00  1.00800000E+00  1.60000000E+01  1.00800000E+00  1.00800000E+00
  1.60000000E+01  1.00800000E+00  1.00800000E+00  1.60000000E+01  1.00800000E+00
  1.00800000E+00  1.60000000E+01  1.00800000E+00  1.00800000E+00  1.60000000E+01
  1.00800000E+00  1.00800000E+00  1.60000000E+01  1.00800000E+00  1.00800000E+00
  1.60000000E+01  1.00800000E+00  1.00800000E+00  1.60000000E+01  1.00800000E+00
  1.00800000E+00  1.60000000E+01  1.00800000E+00  1.00800000E+00  1.60000000E+01
  1.00800000E+00  1.00800000E+00  1.60000000E+01  1.00800000E+00  1.00800000E+00
  1.60000000E+01  1.00800000E+00  1.00800000E+00  1.60000000E+01  1.00800000E+00
  1.00800000E+00  1.60000000E+01  1.00800000E+00  1.00800000E+00  1.60000000E+01
  1.00800000E+00  1.00800000E+00  1.60000000E+01  1.00800000E+00  1.00800000E+00
  1.60000000E+01  1.00800000E+00  1.00800000E+00  1.60000000E+01  1.00800000E+00
  1.00800000E+00  1.60000000E+01  1.00800000E+00  1.00800000E+00  1.60000000E+01
  1.00800000E+00  1.00800000E+00  1.60000000E+01  1.00800000E+00  1.00800000E+00
  1.60000000E+01  1.00800000E+00  1.00800000E+00  1.60000000E+01  1.00800000E+00
  1.00800000E+00  1.60000000E+01  1.00800000E+00  1.00800000E+00  1.60000000E+01
  1.00800000E+00  1.00800000E+00  1.60000000E+01  1.00800000E+00  1.00800000E+00
  1.60000000E+01  1.00800000E+00  1.00800000E+00  1.60000000E+01  1.00800000E+00
  1.00800000E+00  1.60000000E+01  1.00800000E+00  1.00800000E+00  1.60000000E+01
  1.00800000E+00  1.00800000E+00  1.60000000E+01  1.00800000E+00  1.00800000E+00
  1.60000000E+01  1.00800000E+00  1.00800000E+00  1.60000000E+01  1.00800000E+00
  1.00800000E+00  1.60000000E+01  1.00800000E+00  1.00800000E+00  1.60000000E+01
  1.00800000E+00  1.00800000E+00  1.60000000E+01  1.00800000E+00  1.00800000E+00
  1.60000000E+01  1.00800000E+00  1.00800000E+00  1.60000000E+01  1.00800000E+00
  1.00800000E+00  1.60000000E+01  1.00800000E+00  1.00800000E+00  1.60000000E+01
  1.00800000E+00  1.00800000E+00  1.60000000E+01  1.00800000E+00  1.00800000E+00
  1.60000000E+01  1.00800000E+00  1.00800000E+00  1.60000000E+01  1.00800000E+00
  1.00800000E+00  1.60000000E+01  1.00800000E+00  1.00800000E+00  1.60000000E+01
  1.00800000E+00  1.00800000E+00  1.60000000E+01  1.00800000E+00  1.00800000E+00
  1.60000000E+01  1.00800000E+00  1.00800000E+00  1.60000000E+01  1.00800000E+00
  1.00800000E+00  1.60000000E+01  1.00800000E+00  1.00800000E+00  1.60000000E+01
  1.00800000E+00  1.00800000E+00  1.60000000E+01  1.00800000E+00  1.00800000E+00
  1.60000000E+01  1.00800000E+00  1.00800000E+00  1.60000000E+01  1.00800000E+00
  1.00800000E+00  1.60000000E+01  1.00800000E+00  1.00800000E+00  1.60000000E+01
  1.00800000E+00  1.00800000E+00  1.60000000E+01  1.00800000E+00  1.00800000E+00
  1.60000000E+01  1.00800000E+00  1.00800000E+00  1.60000000E+01  1.00800000E+00
  1.00800000E+00  1.60000000E+01  1.00800000E+00  1.00800000E+00  1.60000000E+01
  1.00800000E+00  1.00800000E+00  1.60000000E+01  1.00800000E+00  1.00800000E+00
  1.60000000E+01  1.00800000E+00  1.00800000E+00  1.60000000E+01  1.00800000E+00
  1.00800000E+00  1.60000000E+01  1.00800000E+00  1.00800000E+00  1.60000000E+01
  1.00800000E+00  1.00800000E+00  1.60000000E+01  1.00800000E+00  1.00800000E+00
  1.60000000E+01  1.00800000E+00  1.00800000E+00  1.60000000E+01  1.00800000E+00
  1.00800000E+00  1.60000000E+01  1.00800000E+00  1.00800000E+00  1.60000000E+01
  1.00800000E+00  1.00800000E+00  1.60000000E+01  1.00800000E+00  1.00800000E+00
  1.60000000E+01  1.00800000E+00  1.00800000E+00  1.60000000E+01  1.00800000E+00
  1.00800000E+00  1.60000000E+01  1.00800000E+00  1.00800000E+00  1.60000000E+01
  1.00800000E+00  1.00800000E+00  1.60000000E+01  1.00800000E+00  1.00800000E+00
  1.60000000E+01  1.00800000E+00  1.00800000E+00  1.60000000E+01  1.00800000E+00
  1.00800000E+00  1.60000000E+01  1.00800000E+00  1.00800000E+00  1.60000000E+01
  1.00800000E+00  1.00800000E+00  1.60000000E+01  1.00800000E+00  1.00800000E+00
  1.60000000E+01  1.00800000E+00  1.00800000E+00  1.60000000E+01  1.00800000E+00
  1.00800000E+00  1.60000000E+01  1.00800000E+00  1.00800000E+00  1.60000000E+01
  1.00800000E+00  1.00800000E+00  1.60000000E+01  1.00800000E+00  1.00800000E+00
  1.60000000E+01  1.00800000E+00  1.00800000E+00  1.60000000E+01  1.00800000E+00
  1.00800000E+00  1.60000000E+01  1.00800000E+00  1.00800000E+00  1.60000000E+01
  1.00800000E+00  1.00800000E+00  1.60000000E+01  1.00800000E+00  1.00800000E+00
  1.60000000E+01  1.00800000E+00  1.00800000E+00  1.60000000E+01  1.00800000E+00
  1.00800000E+00  1.60000000E+01  1.00800000E+00  1.00800000E+00  1.60000000E+01
  1.00800000E+00  1.00800000E+00  1.60000000E+01  1.00800000E+00  1.00800000E+00
  1.60000000E+01  1.00800000E+00  1.00800000E+00  1.60000000E+01  1.00800000E+00
  1.00800000E+00  1.60000000E+01  1.00800000E+00  1.00800000E+00  1.60000000E+01
  1.00800000E+00  1.00800000E+00  1.60000000E+01  1.00800000E+00  1.00800000E+00
  1.60000000E+01  1.00800000E+00  1.00800000E+00  1.60000000E+01  1.00800000E+00
  1.00800000E+00  1.60000000E+01  1.00800000E+00  1.00800000E+00  1.60000000E+01
  1.00800000E+00  1.00800000E+00  1.60000000E+01  1.00800000E+00  1.00800000E+00
  1.60000000E+01  1.00800000E+00  1.00800000E+00  1.60000000E+01  1.00800000E+00
  1.00800000E+00  1.60000000E+01  1.00800000E+00  1.00800000E+00  1.60000000E+01
  1.00800000E+00  1.00800000E+00  1.60000000E+01  1.00800000E+00  1.00800000E+00
  1.60000000E+01  1.00800000E+00  1.00800000E+00  1.60000000E+01  1.00800000E+00
  1.00800000E+00  1.60000000E+01  1.00800000E+00  1.00800000E+00  1.60000000E+01
  1.00800000E+00  1.00800000E+00  1.60000000E+01  1.00800000E+00  1.00800000E+00
  1.60000000E+01  1.00800000E+00  1.00800000E+00  1.60000000E+01  1.00800000E+00
  1.00800000E+00  1.60000000E+01  1.00800000E+00  1.00800000E+00  1.60000000E+01
  1.00800000E+00  1.00800000E+00  1.60000000E+01  1.00800000E+00  1.00800000E+00
  1.60000000E+01  1.00800000E+00  1.00800000E+00  1.60000000E+01  1.00800000E+00
  1.00800000E+00  1.60000000E+01  1.00800000E+00  1.00800000E+00  1.60000000E+01
  1.00800000E+00  1.00800000E+00  1.60000000E+01  1.00800000E+00  1.00800000E+00
  1.60000000E+01  1.00800000E+00  1.00800000E+00  1.60000000E+01  1.00800000E+00
  1.00800000E+00  1.60000000E+01  1.00800000E+00  1.00800000E+00  1.60000000E+01
  1.00800000E+00  1.00800000E+00  1.60000000E+01  1.00800000E+00  1.00800000E+00
  1.60000000E+01  1.00800000E+00  1.00800000E+00  1.60000000E+01  1.00800000E+00
  1.00800000E+00  1.60000000E+01  1.00800000E+00  1.00800000E+00  1.60000000E+01
  1.00800000E+00  1.00800000E+00  1.60000000E+01  1.00800000E+00  1.00800000E+00
  1.60000000E+01  1.00800000E+00  1.00800000E+00  1.60000000E+01  1.00800000E+00
  1.00800000E+00  1.60000000E+01  1.00800000E+00  1.00800000E+00  1.60000000E+01
  1.00800000E+00  1.00800000E+00  1.60000000E+01  1.00800000E+00  1.00800000E+00
  1.60000000E+01  1.00800000E+00  1.00800000E+00  1.60000000E+01  1.00800000E+00
  1.00800000E+00  1.60000000E+01  1.00800000E+00  1.00800000E+00  1.60000000E+01
  1.00800000E+00  1.00800000E+00  1.60000000E+01  1.00800000E+00  1.00800000E+00
  1.60000000E+01  1.00800000E+00  1.00800000E+00  1.60000000E+01  1.00800000E+00
  1.00800000E+00  1.60000000E+01  1.00800000E+00  1.00800000E+00  1.60000000E+01
  1.00800000E+00  1.00800000E+00  1.60000000E+01  1.00800000E+00  1.00800000E+00
  1.60000000E+01  1.00800000E+00  1.00800000E+00  1.60000000E+01  1.00800000E+00
  1.00800000E+00  1.60000000E+01  1.00800000E+00  1.00800000E+00  1.60000000E+01
  1.00800000E+00  1.00800000E+00  1.60000000E+01  1.00800000E+00  1.00800000E+00
  1.60000000E+01  1.00800000E+00  1.00800000E+00  1.60000000E+01  1.00800000E+00
  1.00800000E+00  1.60000000E+01  1.00800000E+00  1.00800000E+00  1.60000000E+01
  1.00800000E+00  1.00800000E+00  1.60000000E+01  1.00800000E+00  1.00800000E+00
  1.60000000E+01  1.00800000E+00  1.00800000E+00  1.60000000E+01  1.00800000E+00
  1.00800000E+00  1.60000000E+01  1.00800000E+00  1.00800000E+00  1.60000000E+01
  1.00800000E+00  1.00800000E+00  1.60000000E+01  1.00800000E+00  1.00800000E+00
  1.60000000E+01  1.00800000E+00  1.00800000E+00  1.60000000E+01  1.00800000E+00
  1.00800000E+00  1.60000000E+01  1.00800000E+00  1.00800000E+00  1.60000000E+01
  1.00800000E+00  1.00800000E+00  1.60000000E+01  1.00800000E+00  1.00800000E+00
  1.60000000E+01  1.00800000E+00  1.00800000E+00  1.60000000E+01  1.00800000E+00
  1.00800000E+00  1.60000000E+01  1.00800000E+00  1.00800000E+00  1.60000000E+01
  1.00800000E+00  1.00800000E+00  1.60000000E+01  1.00800000E+00  1.00800000E+00
  1.60000000E+01  1.00800000E+00  1.00800000E+00  1.60000000E+01  1.00800000E+00
  1.00800000E+00  1.60000000E+01  1.00800000E+00  1.00800000E+00  1.60000000E+01
  1.00800000E+00  1.00800000E+00  1.60000000E+01  1.00800000E+00  1.00800000E+00
  1.60000000E+01  1.00800000E+00  1.00800000E+00  1.60000000E+01  1.00800000E+00
  1.00800000E+00  1.60000000E+01  1.00800000E+00  1.00800000E+00  1.60000000E+01
  1.00800000E+00  1.00800000E+00  1.60000000E+01  1.00800000E+00  1.00800000E+00
  1.60000000E+01  1.00800000E+00  1.00800000E+00  1.60000000E+01  1.00800000E+00
  1.00800000E+00  1.60000000E+01  1.00800000E+00  1.00800000E+00  1.60000000E+01
  1.00800000E+00  1.00800000E+00  1.60000000E+01  1.00800000E+00  1.00800000E+00
  1.60000000E+01  1.00800000E+00  1.00800000E+00  1.60000000E+01  1.00800000E+00
  1.00800000E+00  1.60000000E+01  1.00800000E+00  1.00800000E+00  1.60000000E+01
  1.00800000E+00  1.00800000E+00  1.60000000E+01  1.00800000E+00  1.00800000E+00
  1.60000000E+01  1.00800000E+00  1.00800000E+00  1.60000000E+01  1.00800000E+00
  1.00800000E+00  1.60000000E+01  1.00800000E+00  1.00800000E+00  1.60000000E+01
  1.00800000E+00  1.00800000E+00  1.60000000E+01  1.00800000E+00  1.00800000E+00
  1.60000000E+01  1.00800000E+00  1.00800000E+00  1.60000000E+01  1.00800000E+00
  1.00800000E+00  1.60000000E+01  1.00800000E+00  1.00800000E+00  1.60000000E+01
  1.00800000E+00  1.00800000E+00  1.60000000E+01  1.00800000E+00  1.00800000E+00
  1.60000000E+01  1.00800000E+00  1.00800000E+00  1.60000000E+01  1.00800000E+00
  1.00800000E+00  1.60000000E+01  1.00800000E+00  1.00800000E+00  1.60000000E+01
  1.00800000E+00  1.00800000E+00  1.60000000E+01  1.00800000E+00  1.00800000E+00
  1.60000000E+01  1.00800000E+00  1.00800000E+00  1.60000000E+01  1.00800000E+00
  1.00800000E+00  1.60000000E+01  1.00800000E+00  1.00800000E+00  1.60000000E+01
  1.00800000E+00  1.00800000E+00  1.60000000E+01  1.00800000E+00  1.00800000E+00
  1.60000000E+01  1.00800000E+00  1.00800000E+00  1.60000000E+01  1.00800000E+00
  1.00800000E+00  1.60000000E+01  1.00800000E+00  1.00800000E+00  1.60000000E+01
  1.00800000E+00  1.00800000E+00  1.60000000E+01  1.00800000E+00  1.00800000E+00
  1.60000000E+01  1.00800000E+00  1.00800000E+00  1.60000000E+01  1.00800000E+00
  1.00800000E+00  1.60000000E+01  1.00800000E+00  1.00800000E+00  1.60000000E+01
  1.00800000E+00  1.00800000E+00  1.60000000E+01  1.00800000E+00  1.00800000E+00
  1.60000000E+01  1.00800000E+00  1.00800000E+00  1.60000000E+01  1.00800000E+00
  1.00800000E+00  1.60000000E+01  1.00800000E+00  1.00800000E+00  1.60000000E+01
  1.00800000E+00  1.00800000E+00  1.60000000E+01  1.00800000E+00  1.00800000E+00
  1.60000000E+01  1.00800000E+00  1.00800000E+00  1.60000000E+01  1.00800000E+00
  1.00800000E+00  1.60000000E+01  1.00800000E+00  1.00800000E+00  1.60000000E+01
  1.00800000E+00  1.00800000E+00  1.60000000E+01  1.00800000E+00  1.00800000E+00
  1.60000000E+01  1.00800000E+00  1.00800000E+00  1.60000000E+01  1.00800000E+00
  1.00800000E+00  1.60000000E+01  1.00800000E+00  1.00800000E+00  1.60000000E+01
  1.00800000E+00  1.00800000E+00  1.60000000E+01  1.00800000E+00  1.00800000E+00
  1.60000000E+01  1.00800000E+00  1.00800000E+00  1.60000000E+01  1.00800000E+00
  1.00800000E+00  1.60000000E+01  1.00800000E+00  1.00800000E+00  1.60000000E+01
  1.00800000E+00  1.00800000E+00  1.60000000E+01  1.00800000E+00  1.00800000E+00
  1.60000000E+01  1.00800000E+00  1.00800000E+00  1.60000000E+01  1.00800000E+00
  1.00800000E+00  1.60000000E+01  1.00800000E+00  1.00800000E+00  1.60000000E+01
  1.00800000E+00  1.00800000E+00  1.60000000E+01  1.00800000E+00  1.00800000E+00
  1.60000000E+01  1.00800000E+00  1.00800000E+00  1.60000000E+01  1.00800000E+00
  1.00800000E+00  1.60000000E+01  1.00800000E+00  1.00800000E+00  1.60000000E+01
  1.00800000E+00  1.00800000E+00  1.60000000E+01  1.00800000E+00  1.00800000E+00
  1.60000000E+01  1.00800000E+00  1.00800000E+00  1.60000000E+01  1.00800000E+00
  1.00800000E+00  1.60000000E+01  1.00800000E+00  1.00800000E+00  1.60000000E+01
  1.00800000E+00  1.00800000E+00  1.60000000E+01  1.00800000E+00  1.00800000E+00
  1.60000000E+01  1.00800000E+00  1.00800000E+00  1.60000000E+01  1.00800000E+00
  1.00800000E+00  1.60000000E+01  1.00800000E+00  1.00800000E+00  1.60000000E+01
  1.00800000E+00  1.00800000E+00  1.60000000E+01  1.00800000E+00  1.00800000E+00
  1.60000000E+01  1.00800000E+00  1.00800000E+00  1.60000000E+01  1.00800000E+00
  1.00800000E+00  1.60000000E+01  1.00800000E+00  1.00800000E+00  1.60000000E+01
  1.00800000E+00  1.00800000E+00  1.60000000E+01  1.00800000E+00  1.00800000E+00
  1.60000000E+01  1.00800000E+00  1.00800000E+00  1.60000000E+01  1.00800000E+00
  1.00800000E+00  1.60000000E+01  1.00800000E+00  1.00800000E+00  1.60000000E+01
  1.00800000E+00  1.00800000E+00  1.60000000E+01  1.00800000E+00  1.00800000E+00
  1.60000000E+01  1.00800000E+00  1.00800000E+00  1.60000000E+01  1.00800000E+00
  1.00800000E+00  1.60000000E+01  1.00800000E+00  1.00800000E+00  1.60000000E+01
  1.00800000E+00  1.00800000E+00  1.60000000E+01  1.00800000E+00  1.00800000E+00
  1.60000000E+01  1.00800000E+00  1.00800000E+00  1.60000000E+01  1.00800000E+00
  1.00800000E+00  1.60000000E+01  1.00800000E+00  1.00800000E+00  1.60000000E+01
  1.00800000E+00  1.00800000E+00  1.60000000E+01  1.00800000E+00  1.00800000E+00
  1.60000000E+01  1.00800000E+00  1.00800000E+00  1.60000000E+01  1.00800000E+00
  1.00800000E+00  1.60000000E+01  1.00800000E+00  1.00800000E+00  1.60000000E+01
  1.00800000E+00  1.00800000E+00  1.60000000E+01  1.00800000E+00  1.00800000E+00
  1.60000000E+01  1.00800000E+00  1.00800000E+00  1.60000000E+01  1.00800000E+00
  1.00800000E+00  1.60000000E+01  1.00800000E+00  1.00800000E+00  1.60000000E+01
  1.00800000E+00  1.00800000E+00  1.60000000E+01  1.00800000E+00  1.00800000E+00
  1.60000000E+01  1.00800000E+00  1.00800000E+00  1.60000000E+01  1.00800000E+00
  1.00800000E+00  1.60000000E+01  1.00800000E+00  1.00800000E+00  1.60000000E+01
  1.00800000E+00  1.00800000E+00  1.60000000E+01  1.00800000E+00  1.00800000E+00
  1.60000000E+01  1.00800000E+00  1.00800000E+00  1.60000000E+01  1.00800000E+00
  1.00800000E+00  1.60000000E+01  1.00800000E+00  1.00800000E+00  1.60000000E+01
  1.00800000E+00  1.00800000E+00  1.60000000E+01  1.00800000E+00  1.00800000E+00
  1.60000000E+01  1.00800000E+00  1.00800000E+00  1.60000000E+01  1.00800000E+00
  1.00800000E+00  1.60000000E+01  1.00800000E+00  1.00800000E+00  1.60000000E+01
  1.00800000E+00  1.00800000E+00  1.60000000E+01  1.00800000E+00  1.00800000E+00
  1.60000000E+01  1.00800000E+00  1.00800000E+00  1.60000000E+01  1.00800000E+00
  1.00800000E+00  1.60000000E+01  1.00800000E+00  1.00800000E+00  1.60000000E+01
  1.00800000E+00  1.00800000E+00  1.60000000E+01  1.00800000E+00  1.00800000E+00
  1.60000000E+01  1.00800000E+00  1.00800000E+00  1.60000000E+01  1.00800000E+00
  1.00800000E+00  1.60000000E+01  1.00800000E+00  1.00800000E+00  1.60000000E+01
  1.00800000E+00  1.00800000E+00  1.60000000E+01  1.00800000E+00  1.00800000E+00
  1.60000000E+01  1.00800000E+00  1.00800000E+00  1.60000000E+01  1.00800000E+00
  1.00800000E+00  1.60000000E+01  1.00800000E+00  1.00800000E+00  1.60000000E+01
  1.00800000E+00  1.00800000E+00  1.60000000E+01  1.00800000E+00  1.00800000E+00
  1.60000000E+01  1.00800000E+00  1.00800000E+00  1.60000000E+01  1.00800000E+00
  1.00800000E+00  1.60000000E+01  1.00800000E+00  1.00800000E+00  1.60000000E+01
  1.00800000E+00  1.00800000E+00  1.60000000E+01  1.00800000E+00  1.00800000E+00
  1.60000000E+01  1.00800000E+00  1.00800000E+00  1.60000000E+01  1.00800000E+00
  1.00800000E+00  1.60000000E+01  1.00800000E+00  1.00800000E+00  1.60000000E+01
  1.00800000E+00  1.00800000E+00  1.60000000E+01  1.00800000E+00  1.00800000E+00
  1.60000000E+01  1.00800000E+00  1.00800000E+00  1.60000000E+01  1.00800000E+00
  1.00800000E+00  1.60000000E+01  1.00800000E+00  1.00800000E+00  1.60000000E+01
  1.00800000E+00  1.00800000E+00  1.60000000E+01  1.00800000E+00  1.00800000E+00
  1.60000000E+01  1.00800000E+00  1.00800000E+00  1.60000000E+01  1.00800000E+00
  1.00800000E+00  1.60000000E+01  1.00800000E+00  1.00800000E+00  1.60000000E+01
  1.00800000E+00  1.00800000E+00  1.60000000E+01  1.00800000E+00  1.00800000E+00
  1.60000000E+01  1.00800000E+00  1.00800000E+00  1.60000000E+01  1.00800000E+00
  1.00800000E+00  1.60000000E+01  1.00800000E+00  1.00800000E+00  1.60000000E+01
  1.00800000E+00  1.00800000E+00  1.60000000E+01  1.00800000E+00  1.00800000E+00
  1.60000000E+01  1.00800000E+00  1.00800000E+00  1.60000000E+01  1.00800000E+00
  1.00800000E+00  1.60000000E+01  1.00800000E+00  1.00800000E+00  1.60000000E+01
  1.00800000E+00  1.00800000E+00  1.60000000E+01  1.00800000E+00  1.00800000E+00
  1.60000000E+01  1.00800000E+00  1.00800000E+00  1.60000000E+01  1.00800000E+00
  1.00800000E+00  1.60000000E+01  1.00800000E+00  1.00800000E+00  1.60000000E+01
  1.00800000E+00  1.00800000E+00  1.60000000E+01  1.00800000E+00  1.00800000E+00
  1.60000000E+01  1.00800000E+00  1.00800000E+00  1.60000000E+01  1.00800000E+00
  1.00800000E+00  1.60000000E+01  1.00800000E+00  1.00800000E+00  1.60000000E+01
  1.00800000E+00  1.00800000E+00  1.60000000E+01  1.00800000E+00  1.00800000E+00
  1.60000000E+01  1.00800000E+00  1.00800000E+00  1.60000000E+01  1.00800000E+00
  1.00800000E+00  1.60000000E+01  1.00800000E+00  1.00800000E+00  1.60000000E+01
  1.00800000E+00  1.00800000E+00  1.60000000E+01  1.00800000E+00  1.00800000E+00
  1.60000000E+01  1.00800000E+00  1.00800000E+00  1.60000000E+01  1.00800000E+00
  1.00800000E+00  1.60000000E+01  1.00800000E+00  1.00800000E+00  1.60000000E+01
  1.00800000E+00  1.00800000E+00  1.60000000E+01  1.00800000E+00  1.00800000E+00
  1.60000000E+01  1.00800000E+00  1.00800000E+00  1.60000000E+01  1.00800000E+00
  1.00800000E+00  1.60000000E+01  1.00800000E+00  1.00800000E+00  1.60000000E+01
  1.00800000E+00  1.00800000E+00  1.60000000E+01  1.00800000E+00  1.00800000E+00
  1.60000000E+01  1.00800000E+00  1.00800000E+00  1.60000000E+01  1.00800000E+00
  1.00800000E+00  1.60000000E+01  1.00800000E+00  1.00800000E+00  1.60000000E+01
  1.00800000E+00  1.00800000E+00  1.60000000E+01  1.00800000E+00  1.00800000E+00
  1.60000000E+01  1.00800000E+00  1.00800000E+00  1.60000000E+01  1.00800000E+00
  1.00800000E+00  1.60000000E+01  1.00800000E+00  1.00800000E+00  1.60000000E+01
  1.00800000E+00  1.00800000E+00  1.60000000E+01  1.00800000E+00  1.00800000E+00
  1.60000000E+01  1.00800000E+00  1.00800000E+00  1.60000000E+01  1.00800000E+00
  1.00800000E+00  1.60000000E+01  1.00800000E+00  1.00800000E+00  1.60000000E+01
  1.00800000E+00  1.00800000E+00  1.60000000E+01  1.00800000E+00  1.00800000E+00
  1.60000000E+01  1.00800000E+00  1.00800000E+00  1.60000000E+01  1.00800000E+00
  1.00800000E+00  1.60000000E+01  1.00800000E+00  1.00800000E+00  1.60000000E+01
  1.00800000E+00  1.00800000E+00  1.60000000E+01  1.00800000E+00  1.00800000E+00
  1.60000000E+01  1.00800000E+00  1.00800000E+00  1.60000000E+01  1.00800000E+00
  1.00800000E+00  1.60000000E+01  1.00800000E+00  1.00800000E+00  1.60000000E+01
  1.00800000E+00  1.00800000E+00  1.60000000E+01  1.00800000E+00  1.00800000E+00
  1.60000000E+01  1.00800000E+00  1.00800000E+00  1.60000000E+01  1.00800000E+00
  1.00800000E+00  1.60000000E+01  1.00800000E+00  1.00800000E+00  1.60000000E+01
  1.00800000E+00  1.00800000E+00  1.60000000E+01  1.00800000E+00  1.00800000E+00
  1.60000000E+01  1.00800000E+00  1.00800000E+00  1.60000000E+01  1.00800000E+00
  1.00800000E+00  1.60000000E+01  1.00800000E+00  1.00800000E+00  1.60000000E+01
  1.00800000E+00  1.00800000E+00  1.60000000E+01  1.00800000E+00  1.00800000E+00
  1.60000000E+01  1.00800000E+00  1.00800000E+00  1.60000000E+01  1.00800000E+00
  1.00800000E+00  1.60000000E+01  1.00800000E+00  1.00800000E+00  1.60000000E+01
  1.00800000E+00  1.00800000E+00  1.60000000E+01  1.00800000E+00  1.00800000E+00
  1.60000000E+01  1.00800000E+00  1.00800000E+00  1.60000000E+01  1.00800000E+00
  1.00800000E+00  1.60000000E+01  1.00800000E+00  1.00800000E+00  1.60000000E+01
  1.00800000E+00  1.00800000E+00  1.60000000E+01  1.00800000E+00  1.00800000E+00
  1.60000000E+01  1.00800000E+00  1.00800000E+00  1.60000000E+01  1.00800000E+00
  1.00800000E+00  1.60000000E+01  1.00800000E+00  1.00800000E+00  1.60000000E+01
  1.00800000E+00  1.00800000E+00  1.60000000E+01  1.00800000E+00  1.00800000E+00
  1.60000000E+01  1.00800000E+00  1.00800000E+00  1.60000000E+01  1.00800000E+00
  1.00800000E+00  1.60000000E+01  1.00800000E+00  1.00800000E+00  1.60000000E+01
  1.00800000E+00  1.00800000E+00  1.60000000E+01  1.00800000E+00  1.00800000E+00
  1.60000000E+01  1.00800000E+00  1.00800000E+00  1.60000000E+01  1.00800000E+00
  1.00800000E+00  1.60000000E+01  1.00800000E+00  1.00800000E+00  1.60000000E+01
  1.00800000E+00  1.00800000E+00  1.60000000E+01  1.00800000E+00  1.00800000E+00
  1.60000000E+01  1.00800000E+00  1.00800000E+00  1.60000000E+01  1.00800000E+00
  1.00800000E+00  1.60000000E+01  1.00800000E+00  1.00800000E+00  1.60000000E+01
  1.00800000E+00  1.00800000E+00  1.60000000E+01  1.00800000E+00  1.00800000E+00
  1.60000000E+01  1.00800000E+00  1.00800000E+00  1.60000000E+01  1.00800000E+00
  1.00800000E+00  1.60000000E+01  1.00800000E+00  1.00800000E+00  1.60000000E+01
  1.00800000E+00  1.00800000E+00  1.60000000E+01  1.00800000E+00  1.00800000E+00
  1.60000000E+01  1.00800000E+00  1.00800000E+00  1.60000000E+01  1.00800000E+00
  1.00800000E+00  1.60000000E+01  1.00800000E+00  1.00800000E+00  1.60000000E+01
  1.00800000E+00  1.00800000E+00  1.60000000E+01  1.00800000E+00  1.00800000E+00
  1.60000000E+01  1.00800000E+00  1.00800000E+00  1.60000000E+01  1.00800000E+00
  1.00800000E+00  1.60000000E+01  1.00800000E+00  1.00800000E+00  1.60000000E+01
  1.00800000E+00  1.00800000E+00  1.60000000E+01  1.00800000E+00  1.00800000E+00
  1.60000000E+01  1.00800000E+00  1.00800000E+00  1.60000000E+01  1.00800000E+00
  1.00800000E+00  1.60000000E+01  1.00800000E+00  1.00800000E+00  1.60000000E+01
  1.00800000E+00  1.00800000E+00  1.60000000E+01  1.00800000E+00  1.00800000E+00
  1.60000000E+01  1.00800000E+00  1.00800000E+00  1.60000000E+01  1.00800000E+00
  1.00800000E+00  1.60000000E+01  1.00800000E+00  1.00800000E+00  1.60000000E+01
  1.00800000E+00  1.00800000E+00  1.60000000E+01  1.00800000E+00  1.00800000E+00
  1.60000000E+01  1.00800000E+00  1.00800000E+00  1.60000000E+01  1.00800000E+00
  1.00800000E+00  1.60000000E+01  1.00800000E+00  1.00800000E+00  1.60000000E+01
  1.00800000E+00  1.00800000E+00  1.60000000E+01  1.00800000E+00  1.00800000E+00
  1.60000000E+01  1.00800000E+00  1.00800000E+00  1.60000000E+01  1.00800000E+00
  1.00800000E+00  1.60000000E+01  1.00800000E+00  1.00800000E+00  1.60000000E+01
  1.00800000E+00  1.00800000E+00  1.60000000E+01  1.00800000E+00  1.00800000E+00
  1.60000000E+01  1.00800000E+00  1.00800000E+00  1.60000000E+01  1.00800000E+00
  1.00800000E+00  1.60000000E+01  1.00800000E+00  1.00800000E+00  1.60000000E+01
  1.00800000E+00  1.00800000E+00  1.60000000E+01  1.00800000E+00  1.00800000E+00
  1.60000000E+01  1.00800000E+00  1.00800000E+00  1.60000000E+01  1.00800000E+00
  1.00800000E+00  1.60000000E+01  1.00800000E+00  1.00800000E+00  1.60000000E+01
  1.00800000E+00  1.00800000E+00  1.60000000E+01  1.00800000E+00  1.00800000E+00
  1.60000000E+01  1.00800000E+00  1.00800000E+00  1.60000000E+01  1.00800000E+00
  1.00800000E+00  1.60000000E+01  1.00800000E+00  1.00800000E+00  1.60000000E+01
  1.00800000E+00  1.00800000E+00  1.60000000E+01  1.00800000E+00  1.00800000E+00
  1.60000000E+01  1.00800000E+00  1.00800000E+00  1.60000000E+01  1.00800000E+00
  1.00800000E+00  1.60000000E+01  1.00800000E+00  1.00800000E+00  1.60000000E+01
  1.00800000E+00  1.00800000E+00  1.60000000E+01  1.00800000E+00  1.00800000E+00
  1.60000000E+01  1.00800000E+00  1.00800000E+00  1.60000000E+01  1.00800000E+00
  1.00800000E+00  1.60000000E+01  1.00800000E+00  1.00800000E+00  1.60000000E+01
  1.00800000E+00  1.00800000E+00  1.60000000E+01  1.00800000E+00  1.00800000E+00
  1.60000000E+01  1.00800000E+00  1.00800000E+00  1.60000000E+01  1.00800000E+00
  1.00800000E+00  1.60000000E+01  1.00800000E+00  1.00800000E+00  1.60000000E+01
  1.00800000E+00  1.00800000E+00  1.60000000E+01  1.00800000E+00  1.00800000E+00
  1.60000000E+01  1.00800000E+00  1.00800000E+00  1.60000000E+01  1.00800000E+00
  1.00800000E+00  1.60000000E+01  1.00800000E+00  1.00800000E+00  1.60000000E+01
  1.00800000E+00  1.00800000E+00  1.60000000E+01  1.00800000E+00  1.00800000E+00
  1.60000000E+01  1.00800000E+00  1.00800000E+00  1.60000000E+01  1.00800000E+00
  1.00800000E+00  1.60000000E+01  1.00800000E+00  1.00800000E+00  1.60000000E+01
  1.00800000E+00  1.00800000E+00  1.60000000E+01  1.00800000E+00  1.00800000E+00
  1.60000000E+01  1.00800000E+00  1.00800000E+00  1.60000000E+01  1.00800000E+00
  1.00800000E+00  1.60000000E+01  1.00800000E+00  1.00800000E+00  1.60000000E+01
  1.00800000E+00  1.00800000E+00  1.60000000E+01  1.00800000E+00  1.00800000E+00
  1.60000000E+01  1.00800000E+00  1.00800000E+00  1.60000000E+01  1.00800000E+00
  1.00800000E+00  1.60000000E+01  1.00800000E+00  1.00800000E+00  1.60000000E+01
  1.00800000E+00  1.00800000E+00  1.60000000E+01  1.00800000E+00  1.00800000E+00
  1.60000000E+01  1.00800000E+00  1.00800000E+00  1.60000000E+01  1.00800000E+00
  1.00800000E+00  1.60000000E+01  1.00800000E+00  1.00800000E+00  1.60000000E+01
  1.00800000E+00  1.00800000E+00  1.60000000E+01  1.00800000E+00  1.00800000E+00
  1.60000000E+01  1.00800000E+00  1.00800000E+00  1.60000000E+01  1.00800000E+00
  1.00800000E+00  1.60000000E+01  1.00800000E+00  1.00800000E+00  1.60000000E+01
  1.00800000E+00  1.00800000E+00  1.60000000E+01  1.00800000E+00  1.00800000E+00
  1.60000000E+01  1.00800000E+00  1.00800000E+00  1.60000000E+01  1.00800000E+00
  1.00800000E+00  1.60000000E+01  1.00800000E+00  1.00800000E+00  1.60000000E+01
  1.00800000E+00  1.00800000E+00  1.60000000E+01  1.00800000E+00  1.00800000E+00
  1.60000000E+01  1.00800000E+00  1.00800000E+00  1.60000000E+01  1.00800000E+00
  1.00800000E+00  1.60000000E+01  1.00800000E+00  1.00800000E+00  1.60000000E+01
  1.00800000E+00  1.00800000E+00  1.60000000E+01  1.00800000E+00  1.00800000E+00
  1.60000000E+01  1.00800000E+00  1.00800000E+00  1.60000000E+01  1.00800000E+00
  1.00800000E+00  1.60000000E+01  1.00800000E+00  1.00800000E+00  1.60000000E+01
  1.00800000E+00  1.00800000E+00  1.60000000E+01  1.00800000E+00  1.00800000E+00
  1.60000000E+01  1.00800000E+00  1.00800000E+00  1.60000000E+01  1.00800000E+00
  1.00800000E+00  1.60000000E+01  1.00800000E+00  1.00800000E+00  1.60000000E+01
  1.00800000E+00  1.00800000E+00  1.60000000E+01  1.00800000E+00  1.00800000E+00
  1.60000000E+01  1.00800000E+00  1.00800000E+00  1.60000000E+01  1.00800000E+00
  1.00800000E+00  1.60000000E+01  1.00800000E+00  1.00800000E+00  1.60000000E+01
  1.00800000E+00  1.00800000E+00  1.60000000E+01  1.00800000E+00  1.00800000E+00
  1.60000000E+01  1.00800000E+00  1.00800000E+00  1.60000000E+01  1.00800000E+00
  1.00800000E+00  1.60000000E+01  1.00800000E+00  1.00800000E+00  1.60000000E+01
  1.00800000E+00  1.00800000E+00  1.60000000E+01  1.00800000E+00  1.00800000E+00
  1.60000000E+01  1.00800000E+00  1.00800000E+00  1.60000000E+01  1.00800000E+00
  1.00800000E+00  1.60000000E+01  1.00800000E+00  1.00800000E+00  1.60000000E+01
  1.00800000E+00  1.00800000E+00  1.60000000E+01  1.00800000E+00  1.00800000E+00
  1.60000000E+01  1.00800000E+00  1.00800000E+00  1.60000000E+01  1.00800000E+00
  1.00800000E+00  1.60000000E+01  1.00800000E+00  1.00800000E+00  1.60000000E+01
  1.00800000E+00  1.00800000E+00  1.60000000E+01  1.00800000E+00  1.00800000E+00
  1.60000000E+01  1.00800000E+00  1.00800000E+00  1.60000000E+01  1.00800000E+00
  1.00800000E+00  1.60000000E+01  1.00800000E+00  1.00800000E+00  1.60000000E+01
  1.00800000E+00  1.00800000E+00  1.60000000E+01  1.00800000E+00  1.00800000E+00
  1.60000000E+01  1.00800000E+00  1.00800000E+00  1.60000000E+01  1.00800000E+00
  1.00800000E+00  1.60000000E+01  1.00800000E+00  1.00800000E+00  1.60000000E+01
  1.00800000E+00  1.00800000E+00  1.60000000E+01  1.00800000E+00  1.00800000E+00
  1.60000000E+01  1.00800000E+00  1.00800000E+00  1.60000000E+01  1.00800000E+00
  1.00800000E+00  1.60000000E+01  1.00800000E+00  1.00800000E+00  1.60000000E+01
  1.00800000E+00  1.00800000E+00  1.60000000E+01  1.00800000E+00  1.00800000E+00
  1.60000000E+01  1.00800000E+00  1.00800000E+00  1.60000000E+01  1.00800000E+00
  1.00800000E+00  1.60000000E+01  1.00800000E+00  1.00800000E+00  1.60000000E+01
  1.00800000E+00  1.00800000E+00  1.60000000E+01  1.00800000E+00  1.00800000E+00
  1.60000000E+01  1.00800000E+00  1.00800000E+00  1.60000000E+01  1.00800000E+00
  1.00800000E+00  1.60000000E+01  1.00800000E+00  1.00800000E+00  1.60000000E+01
  1.00800000E+00  1.00800000E+00  1.60000000E+01  1.00800000E+00  1.00800000E+00
  1.60000000E+01  1.00800000E+00  1.00800000E+00  1.60000000E+01  1.00800000E+00
  1.00800000E+00  1.60000000E+01  1.00800000E+00  1.00800000E+00  1.60000000E+01
  1.00800000E+00  1.00800000E+00  1.60000000E+01  1.00800000E+00  1.00800000E+00
  1.60000000E+01  1.00800000E+00  1.00800000E+00  1.60000000E+01  1.00800000E+00
  1.00800000E+00  1.60000000E+01  1.00800000E+00  1.00800000E+00  1.60000000E+01
  1.00800000E+00  1.00800000E+00  1.60000000E+01  1.00800000E+00  1.00800000E+00
  1.60000000E+01  1.00800000E+00  1.00800000E+00  1.60000000E+01  1.00800000E+00
  1.00800000E+00  1.60000000E+01  1.00800000E+00  1.00800000E+00  1.60000000E+01
  1.00800000E+00  1.00800000E+00  1.60000000E+01  1.00800000E+00  1.00800000E+00
  1.60000000E+01  1.00800000E+00  1.00800000E+00  1.60000000E+01  1.00800000E+00
  1.00800000E+00  1.60000000E+01  1.00800000E+00  1.00800000E+00  1.60000000E+01
  1.00800000E+00  1.00800000E+00  1.60000000E+01  1.00800000E+00  1.00800000E+00
  1.60000000E+01  1.00800000E+00  1.00800000E+00  1.60000000E+01  1.00800000E+00
  1.00800000E+00  1.60000000E+01  1.00800000E+00  1.00800000E+00  1.60000000E+01
  1.00800000E+00  1.00800000E+00  1.60000000E+01  1.00800000E+00  1.00800000E+00
  1.60000000E+01  1.00800000E+00  1.00800000E+00  1.60000000E+01  1.00800000E+00
  1.00800000E+00  1.60000000E+01  1.00800000E+00  1.00800000E+00  1.60000000E+01
  1.00800000E+00  1.00800000E+00  1.60000000E+01  1.00800000E+00  1.00800000E+00
  1.60000000E+01  1.00800000E+00  1.00800000E+00  1.60000000E+01  1.00800000E+00
  1.00800000E+00  1.60000000E+01  1.00800000E+00  1.00800000E+00  1.60000000E+01
  1.00800000E+00  1.00800000E+00  1.60000000E+01  1.00800000E+00  1.00800000E+00
  1.60000000E+01  1.00800000E+00  1.00800000E+00  1.60000000E+01  1.00800000E+00
  1.00800000E+00  1.60000000E+01  1.00800000E+00  1.00800000E+00  1.60000000E+01
  1.00800000E+00  1.00800000E+00  1.60000000E+01  1.00800000E+00  1.00800000E+00
  1.60000000E+01  1.00800000E+00  1.00800000E+00  1.60000000E+01  1.00800000E+00
  1.00800000E+00  1.60000000E+01  1.00800000E+00  1.00800000E+00  1.60000000E+01
  1.00800000E+00  1.00800000E+00  1.60000000E+01  1.00800000E+00  1.00800000E+00
  1.60000000E+01  1.00800000E+00  1.00800000E+00  1.60000000E+01  1.00800000E+00
  1.00800000E+00  1.60000000E+01  1.00800000E+00  1.00800000E+00  1.60000000E+01
  1.00800000E+00  1.00800000E+00  1.60000000E+01  1.00800000E+00  1.00800000E+00
  1.60000000E+01  1.00800000E+00  1.00800000E+00  1.60000000E+01  1.00800000E+00
  1.00800000E+00  1.60000000E+01  1.00800000E+00  1.00800000E+00  1.60000000E+01
  1.00800000E+00  1.00800000E+00  1.60000000E+01  1.00800000E+00  1.00800000E+00
  1.60000000E+01  1.00800000E+00  1.00800000E+00  1.60000000E+01  1.00800000E+00
  1.00800000E+00  1.60000000E+01  1.00800000E+00  1.00800000E+00  1.60000000E+01
  1.00800000E+00  1.00800000E+00  1.60000000E+01  1.00800000E+00  1.00800000E+00
  1.60000000E+01  1.00800000E+00  1.00800000E+00  1.60000000E+01  1.00800000E+00
  1.00800000E+00  1.60000000E+01  1.00800000E+00  1.00800000E+00  1.60000000E+01
  1.00800000E+00  1.00800000E+00  1.60000000E+01  1.00800000E+00  1.00800000E+00
  1.60000000E+01  1.00800000E+00  1.00800000E+00  1.60000000E+01  1.00800000E+00
  1.00800000E+00  1.60000000E+01  1.00800000E+00  1.00800000E+00  1.60000000E+01
  1.00800000E+00  1.00800000E+00  1.60000000E+01  1.00800000E+00  1.00800000E+00
  1.60000000E+01  1.00800000E+00  1.00800000E+00  1.60000000E+01  1.00800000E+00
  1.00800000E+00  1.60000000E+01  1.00800000E+00  1.00800000E+00  1.60000000E+01
  1.00800000E+00  1.00800000E+00  1.60000000E+01  1.00800000E+00  1.00800000E+00
  1.60000000E+01  1.00800000E+00  1.00800000E+00  1.60000000E+01  1.00800000E+00
  1.00800000E+00  1.60000000E+01  1.00800000E+00  1.00800000E+00  1.60000000E+01
  1.00800000E+00  1.00800000E+00  1.60000000E+01  1.00800000E+00  1.00800000E+00
  1.60000000E+01  1.00800000E+00  1.00800000E+00  1.60000000E+01  1.00800000E+00
  1.00800000E+00  1.60000000E+01  1.00800000E+00  1.00800000E+00  1.60000000E+01
  1.00800000E+00  1.00800000E+00  1.60000000E+01  1.00800000E+00  1.00800000E+00
  1.60000000E+01  1.00800000E+00  1.00800000E+00  1.60000000E+01  1.00800000E+00
  1.00800000E+00  1.60000000E+01  1.00800000E+00  1.00800000E+00  1.60000000E+01
  1.00800000E+00  1.00800000E+00  1.60000000E+01  1.00800000E+00  1.00800000E+00
  1.60000000E+01  1.00800000E+00  1.00800000E+00  1.60000000E+01  1.00800000E+00
  1.00800000E+00  1.60000000E+01  1.00800000E+00  1.00800000E+00  1.60000000E+01
  1.00800000E+00  1.00800000E+00  1.60000000E+01  1.00800000E+00  1.00800000E+00
  1.60000000E+01  1.00800000E+00  1.00800000E+00  1.60000000E+01  1.00800000E+00
  1.00800000E+00  1.60000000E+01  1.00800000E+00  1.00800000E+00  1.60000000E+01
  1.00800000E+00  1.00800000E+00  1.60000000E+01  1.00800000E+00  1.00800000E+00
  1.60000000E+01  1.00800000E+00  1.00800000E+00  1.60000000E+01  1.00800000E+00
  1.00800000E+00  1.60000000E+01  1.00800000E+00  1.00800000E+00  1.60000000E+01
  1.00800000E+00  1.00800000E+00  1.60000000E+01  1.00800000E+00  1.00800000E+00
  1.60000000E+01  1.00800000E+00  1.00800000E+00  1.60000000E+01  1.00800000E+00
  1.00800000E+00  1.60000000E+01  1.00800000E+00  1.00800000E+00  1.60000000E+01
  1.00800000E+00  1.00800000E+00  1.60000000E+01  1.00800000E+00  1.00800000E+00
  1.60000000E+01  1.00800000E+00  1.00800000E+00  1.60000000E+01  1.00800000E+00
  1.00800000E+00  1.60000000E+01  1.00800000E+00  1.00800000E+00  1.60000000E+01
  1.00800000E+00  1.00800000E+00  1.60000000E+01  1.00800000E+00  1.00800000E+00
  1.60000000E+01  1.00800000E+00  1.00800000E+00  1.60000000E+01  1.00800000E+00
  1.00800000E+00  1.60000000E+01  1.00800000E+00  1.00800000E+00  1.60000000E+01
  1.00800000E+00  1.00800000E+00  1.60000000E+01  1.00800000E+00  1.00800000E+00
  1.60000000E+01  1.00800000E+00  1.00800000E+00  1.60000000E+01  1.00800000E+00
  1.00800000E+00  1.60000000E+01  1.00800000E+00  1.00800000E+00  1.60000000E+01
  1.00800000E+00  1.00800000E+00  1.60000000E+01  1.00800000E+00  1.00800000E+00
  1.60000000E+01  1.00800000E+00  1.00800000E+00  1.60000000E+01  1.00800000E+00
  1.00800000E+00  1.60000000E+01  1.00800000E+00  1.00800000E+00  1.60000000E+01
  1.00800000E+00  1.00800000E+00  1.60000000E+01  1.00800000E+00  1.00800000E+00
  1.60000000E+01  1.00800000E+00  1.00800000E+00  1.60000000E+01  1.00800000E+00
  1.00800000E+00  1.60000000E+01  1.00800000E+00  1.00800000E+00  1.60000000E+01
  1.00800000E+00  1.00800000E+00  1.60000000E+01  1.00800000E+00  1.00800000E+00
  1.60000000E+01  1.00800000E+00  1.00800000E+00  1.60000000E+01  1.00800000E+00
  1.00800000E+00  1.60000000E+01  1.00800000E+00  1.00800000E+00  1.60000000E+01
  1.00800000E+00  1.00800000E+00  1.60000000E+01  1.00800000E+00  1.00800000E+00
  1.60000000E+01  1.00800000E+00  1.00800000E+00  1.60000000E+01  1.00800000E+00
  1.00800000E+00  1.60000000E+01  1.00800000E+00  1.00800000E+00  1.60000000E+01
  1.00800000E+00  1.00800000E+00  1.60000000E+01  1.00800000E+00  1.00800000E+00
  1.60000000E+01  1.00800000E+00  1.00800000E+00  1.60000000E+01  1.00800000E+00
  1.00800000E+00  1.60000000E+01  1.00800000E+00  1.00800000E+00  1.60000000E+01
  1.00800000E+00  1.00800000E+00  1.60000000E+01  1.00800000E+00  1.00800000E+00
  1.60000000E+01  1.00800000E+00  1.00800000E+00  1.60000000E+01  1.00800000E+00
  1.00800000E+00  1.60000000E+01  1.00800000E+00  1.00800000E+00  1.60000000E+01
  1.00800000E+00  1.00800000E+00  1.60000000E+01  1.00800000E+00  1.00800000E+00
  1.60000000E+01  1.00800000E+00  1.00800000E+00  1.60000000E+01  1.00800000E+00
  1.00800000E+00  1.60000000E+01  1.00800000E+00  1.00800000E+00  1.60000000E+01
  1.00800000E+00  1.00800000E+00  1.60000000E+01  1.00800000E+00  1.00800000E+00
  1.60000000E+01  1.00800000E+00  1.00800000E+00  1.60000000E+01  1.00800000E+00
  1.00800000E+00  1.60000000E+01  1.00800000E+00  1.00800000E+00  1.60000000E+01
  1.00800000E+00  1.00800000E+00  1.60000000E+01  1.00800000E+00  1.00800000E+00
  1.60000000E+01  1.00800000E+00  1.00800000E+00  1.60000000E+01  1.00800000E+00
  1.00800000E+00  1.60000000E+01  1.00800000E+00  1.00800000E+00  1.60000000E+01
  1.00800000E+00  1.00800000E+00  1.60000000E+01  1.00800000E+00  1.00800000E+00
  1.60000000E+01  1.00800000E+00  1.00800000E+00  1.60000000E+01  1.00800000E+00
  1.00800000E+00  1.60000000E+01  1.00800000E+00  1.00800000E+00  1.60000000E+01
  1.00800000E+00  1.00800000E+00  1.60000000E+01  1.00800000E+00  1.00800000E+00
  1.60000000E+01  1.00800000E+00  1.00800000E+00  1.60000000E+01  1.00800000E+00
  1.00800000E+00  1.60000000E+01  1.00800000E+00  1.00800000E+00  1.60000000E+01
  1.00800000E+00  1.00800000E+00  1.60000000E+01  1.00800000E+00  1.00800000E+00
  1.60000000E+01  1.00800000E+00  1.00800000E+00  1.60000000E+01  1.00800000E+00
  1.00800000E+00  1.60000000E+01  1.00800000E+00  1.00800000E+00  1.60000000E+01
  1.00800000E+00  1.00800000E+00  1.60000000E+01  1.00800000E+00  1.00800000E+00
  1.60000000E+01  1.00800000E+00  1.00800000E+00  1.60000000E+01  1.00800000E+00
  1.00800000E+00  1.60000000E+01  1.00800000E+00  1.00800000E+00  1.60000000E+01
  1.00800000E+00  1.00800000E+00  1.60000000E+01  1.00800000E+00  1.00800000E+00
  1.60000000E+01  1.00800000E+00  1.00800000E+00  1.60000000E+01  1.00800000E+00
  1.00800000E+00  1.60000000E+01  1.00800000E+00  1.00800000E+00  1.60000000E+01
  1.00800000E+00  1.00800000E+00  1.60000000E+01  1.00800000E+00  1.00800000E+00
  1.60000000E+01  1.00800000E+00  1.00800000E+00  1.60000000E+01  1.00800000E+00
  1.00800000E+00  1.60000000E+01  1.00800000E+00  1.00800000E+00  1.60000000E+01
  1.00800000E+00  1.00800000E+00  1.60000000E+01  1.00800000E+00  1.00800000E+00
  1.60000000E+01  1.00800000E+00  1.00800000E+00  1.60000000E+01  1.00800000E+00
  1.00800000E+00  1.60000000E+01  1.00800000E+00  1.00800000E+00  1.60000000E+01
  1.00800000E+00  1.00800000E+00  1.60000000E+01  1.00800000E+00  1.00800000E+00
  1.60000000E+01  1.00800000E+00  1.00800000E+00  1.60000000E+01  1.00800000E+00
  1.00800000E+00  1.60000000E+01  1.00800000E+00  1.00800000E+00  1.60000000E+01
  1.00800000E+00  1.00800000E+00  1.60000000E+01  1.00800000E+00  1.00800000E+00
  1.60000000E+01  1.00800000E+00  1.00800000E+00  1.60000000E+01  1.00800000E+00
  1.00800000E+00  1.60000000E+01  1.00800000E+00  1.00800000E+00  1.60000000E+01
  1.00800000E+00  1.00800000E+00  1.60000000E+01  1.00800000E+00  1.00800000E+00
  1.60000000E+01  1.00800000E+00  1.00800000E+00  1.60000000E+01  1.00800000E+00
  1.00800000E+00  1.60000000E+01  1.00800000E+00  1.00800000E+00  1.60000000E+01
  1.00800000E+00  1.00800000E+00  1.60000000E+01  1.00800000E+00  1.00800000E+00
  1.60000000E+01  1.00800000E+00  1.00800000E+00  1.60000000E+01  1.00800000E+00
  1.00800000E+00  1.60000000E+01  1.00800000E+00  1.00800000E+00  1.60000000E+01
  1.00800000E+00  1.00800000E+00  1.60000000E+01  1.00800000E+00  1.00800000E+00
  1.60000000E+01  1.00800000E+00  1.00800000E+00  1.60000000E+01  1.00800000E+00
  1.00800000E+00  1.60000000E+01  1.00800000E+00  1.00800000E+00  1.60000000E+01
  1.00800000E+00  1.00800000E+00  1.60000000E+01  1.00800000E+00  1.00800000E+00
  1.60000000E+01  1.00800000E+00  1.00800000E+00  1.60000000E+01  1.00800000E+00
  1.00800000E+00  1.60000000E+01  1.00800000E+00  1.00800000E+00  1.60000000E+01
  1.00800000E+00  1.00800000E+00  1.60000000E+01  1.00800000E+00  1.00800000E+00
  1.60000000E+01  1.00800000E+00  1.00800000E+00  1.60000000E+01  1.00800000E+00
  1.00800000E+00  1.60000000E+01  1.00800000E+00  1.00800000E+00  1.60000000E+01
  1.00800000E+00  1.00800000E+00  1.60000000E+01  1.00800000E+00  1.00800000E+00
  1.60000000E+01  1.00800000E+00  1.00800000E+00  1.60000000E+01  1.00800000E+00
  1.00800000E+00  1.60000000E+01  1.00800000E+00  1.00800000E+00  1.60000000E+01
  1.00800000E+00  1.00800000E+00  1.60000000E+01  1.00800000E+00  1.00800000E+00
  1.60000000E+01  1.00800000E+00  1.00800000E+00  1.60000000E+01  1.00800000E+00
  1.00800000E+00  1.60000000E+01  1.00800000E+00  1.00800000E+00  1.60000000E+01
  1.00800000E+00  1.00800000E+00  1.60000000E+01  1.00800000E+00  1.00800000E+00
  1.60000000E+01  1.00800000E+00  1.00800000E+00  1.60000000E+01  1.00800000E+00
  1.00800000E+00  1.60000000E+01  1.00800000E+00  1.00800000E+00  1.60000000E+01
  1.00800000E+00  1.00800000E+00  1.60000000E+01  1.00800000E+00  1.00800000E+00
  1.60000000E+01  1.00800000E+00  1.00800000E+00  1.60000000E+01  1.00800000E+00
  1.00800000E+00  1.60000000E+01  1.00800000E+00  1.00800000E+00  1.60000000E+01
  1.00800000E+00  1.00800000E+00  1.60000000E+01  1.00800000E+00  1.00800000E+00
  1.60000000E+01  1.00800000E+00  1.00800000E+00  1.60000000E+01  1.00800000E+00
  1.00800000E+00  1.60000000E+01  1.00800000E+00  1.00800000E+00  1.60000000E+01
  1.00800000E+00  1.00800000E+00  1.60000000E+01  1.00800000E+00  1.00800000E+00
  1.60000000E+01  1.00800000E+00  1.00800000E+00  1.60000000E+01  1.00800000E+00
  1.00800000E+00  1.60000000E+01  1.00800000E+00  1.00800000E+00  1.60000000E+01
  1.00800000E+00  1.00800000E+00  1.60000000E+01  1.00800000E+00  1.00800000E+00
  1.60000000E+01  1.00800000E+00  1.00800000E+00  1.60000000E+01  1.00800000E+00
  1.00800000E+00  1.60000000E+01  1.00800000E+00  1.00800000E+00  1.60000000E+01
  1.00800000E+00  1.00800000E+00  1.60000000E+01  1.00800000E+00  1.00800000E+00
  1.60000000E+01  1.00800000E+00  1.00800000E+00  1.60000000E+01  1.00800000E+00
  1.00800000E+00  1.60000000E+01  1.00800000E+00  1.00800000E+00  1.60000000E+01
  1.00800000E+00  1.00800000E+00  1.60000000E+01  1.00800000E+00  1.00800000E+00
  1.60000000E+01  1.00800000E+00  1.00800000E+00  1.60000000E+01  1.00800000E+00
  1.00800000E+00  1.60000000E+01  1.00800000E+00  1.00800000E+00  1.60000000E+01
  1.00800000E+00  1.00800000E+00  1.60000000E+01  1.00800000E+00  1.00800000E+00
  1.60000000E+01  1.00800000E+00  1.00800000E+00  1.60000000E+01  1.00800000E+00
  1.00800000E+00  1.60000000E+01  1.00800000E+00  1.00800000E+00  1.60000000E+01
  1.00800000E+00  1.00800000E+00  1.60000000E+01  1.00800000E+00  1.00800000E+00
  1.60000000E+01  1.00800000E+00  1.00800000E+00  1.60000000E+01  1.00800000E+00
  1.00800000E+00  1.60000000E+01  1.00800000E+00  1.00800000E+00  1.60000000E+01
  1.00800000E+00  1.00800000E+00  1.60000000E+01  1.00800000E+00  1.00800000E+00
  1.60000000E+01  1.00800000E+00  1.00800000E+00  1.60000000E+01  1.00800000E+00
  1.00800000E+00  1.60000000E+01  1.00800000E+00  1.00800000E+00  1.60000000E+01
  1.00800000E+00  1.00800000E+00  1.60000000E+01  1.00800000E+00  1.00800000E+00
  1.60000000E+01  1.00800000E+00  1.00800000E+00  1.60000000E+01  1.00800000E+00
  1.00800000E+00  1.60000000E+01  1.00800000E+00  1.00800000E+00  1.60000000E+01
  1.00800000E+00  1.00800000E+00  1.60000000E+01  1.00800000E+00  1.00800000E+00
  1.60000000E+01  1.00800000E+00  1.00800000E+00  1.60000000E+01  1.00800000E+00
  1.00800000E+00  1.60000000E+01  1.00800000E+00  1.00800000E+00  1.60000000E+01
  1.00800000E+00  1.00800000E+00  1.60000000E+01  1.00800000E+00  1.00800000E+00
  1.60000000E+01  1.00800000E+00  1.00800000E+00  1.60000000E+01  1.00800000E+00
  1.00800000E+00  1.60000000E+01  1.00800000E+00  1.00800000E+00  1.60000000E+01
  1.00800000E+00  1.00800000E+00  1.60000000E+01  1.00800000E+00  1.00800000E+00
  1.60000000E+01  1.00800000E+00  1.00800000E+00  1.60000000E+01  1.00800000E+00
  1.00800000E+00  1.60000000E+01  1.00800000E+00  1.00800000E+00  1.60000000E+01
  1.00800000E+00  1.00800000E+00  1.60000000E+01  1.00800000E+00  1.00800000E+00
  1.60000000E+01  1.00800000E+00  1.00800000E+00  1.60000000E+01  1.00800000E+00
  1.00800000E+00  1.60000000E+01  1.00800000E+00  1.00800000E+00  1.60000000E+01
  1.00800000E+00  1.00800000E+00  1.60000000E+01  1.00800000E+00  1.00800000E+00
  1.60000000E+01  1.00800000E+00  1.00800000E+00  1.60000000E+01  1.00800000E+00
  1.00800000E+00  1.60000000E+01  1.00800000E+00  1.00800000E+00  1.60000000E+01
  1.00800000E+00  1.00800000E+00  1.60000000E+01  1.00800000E+00  1.00800000E+00
  1.60000000E+01  1.00800000E+00  1.00800000E+00  1.60000000E+01  1.00800000E+00
  1.00800000E+00  1.60000000E+01  1.00800000E+00  1.00800000E+00  1.60000000E+01
  1.00800000E+00  1.00800000E+00  1.60000000E+01  1.00800000E+00  1.00800000E+00
  1.60000000E+01  1.00800000E+00  1.00800000E+00  1.60000000E+01  1.00800000E+00
  1.00800000E+00  1.60000000E+01  1.00800000E+00  1.00800000E+00  1.60000000E+01
  1.00800000E+00  1.00800000E+00  1.60000000E+01  1.00800000E+00  1.00800000E+00
  1.60000000E+01  1.00800000E+00  1.00800000E+00  1.60000000E+01  1.00800000E+00
  1.00800000E+00  1.60000000E+01  1.00800000E+00  1.00800000E+00  1.60000000E+01
  1.00800000E+00  1.00800000E+00  1.60000000E+01  1.00800000E+00  1.00800000E+00
  1.60000000E+01  1.00800000E+00  1.00800000E+00  1.60000000E+01  1.00800000E+00
  1.00800000E+00  1.60000000E+01  1.00800000E+00  1.00800000E+00  1.60000000E+01
  1.00800000E+00  1.00800000E+00  1.60000000E+01  1.00800000E+00  1.00800000E+00
  1.60000000E+01  1.00800000E+00  1.00800000E+00  1.60000000E+01  1.00800000E+00
  1.00800000E+00  1.60000000E+01  1.00800000E+00  1.00800000E+00  1.60000000E+01
  1.00800000E+00  1.00800000E+00  1.60000000E+01  1.00800000E+00  1.00800000E+00
  1.60000000E+01  1.00800000E+00  1.00800000E+00  1.60000000E+01  1.00800000E+00
  1.00800000E+00  1.60000000E+01  1.00800000E+00  1.00800000E+00  1.60000000E+01
  1.00800000E+00  1.00800000E+00  1.60000000E+01  1.00800000E+00  1.00800000E+00
  1.60000000E+01  1.00800000E+00  1.00800000E+00  1.60000000E+01  1.00800000E+00
  1.00800000E+00  1.60000000E+01  1.00800000E+00  1.00800000E+00  1.60000000E+01
  1.00800000E+00  1.00800000E+00  1.60000000E+01  1.00800000E+00  1.00800000E+00
  1.60000000E+01  1.00800000E+00  1.00800000E+00  1.60000000E+01  1.00800000E+00
  1.00800000E+00  1.60000000E+01  1.00800000E+00  1.00800000E+00  1.60000000E+01
  1.00800000E+00  1.00800000E+00  1.60000000E+01  1.00800000E+00  1.00800000E+00
  1.60000000E+01  1.00800000E+00  1.00800000E+00  1.60000000E+01  1.00800000E+00
  1.00800000E+00  1.60000000E+01  1.00800000E+00  1.00800000E+00  1.60000000E+01
  1.00800000E+00  1.00800000E+00  1.60000000E+01  1.00800000E+00  1.00800000E+00
  1.60000000E+01  1.00800000E+00  1.00800000E+00  1.60000000E+01  1.00800000E+00
  1.00800000E+00  1.60000000E+01  1.00800000E+00  1.00800000E+00  1.60000000E+01
  1.00800000E+00  1.00800000E+00  1.60000000E+01  1.00800000E+00  1.00800000E+00
  1.60000000E+01  1.00800000E+00  1.00800000E+00  1.60000000E+01  1.00800000E+00
  1.00800000E+00  1.60000000E+01  1.00800000E+00  1.00800000E+00  1.60000000E+01
  1.00800000E+00  1.00800000E+00  1.60000000E+01  1.00800000E+00  1.00800000E+00
  1.60000000E+01  1.00800000E+00  1.00800000E+00  1.60000000E+01  1.00800000E+00
  1.00800000E+00  1.60000000E+01  1.00800000E+00  1.00800000E+00  1.60000000E+01
  1.00800000E+00  1.00800000E+00  1.60000000E+01  1.00800000E+00  1.00800000E+00
  1.60000000E+01  1.00800000E+00  1.00800000E+00  1.60000000E+01  1.00800000E+00
  1.00800000E+00  1.60000000E+01  1.00800000E+00  1.00800000E+00  1.60000000E+01
  1.00800000E+00  1.00800000E+00  1.60000000E+01  1.00800000E+00  1.00800000E+00
  1.60000000E+01  1.00800000E+00  1.00800000E+00  1.60000000E+01  1.00800000E+00
  1.00800000E+00  1.60000000E+01  1.00800000E+00  1.00800000E+00  1.60000000E+01
  1.00800000E+00  1.00800000E+00  1.60000000E+01  1.00800000E+00  1.00800000E+00
  1.60000000E+01  1.00800000E+00  1.00800000E+00  1.60000000E+01  1.00800000E+00
  1.00800000E+00  1.60000000E+01  1.00800000E+00  1.00800000E+00  1.60000000E+01
  1.00800000E+00  1.00800000E+00  1.60000000E+01  1.00800000E+00  1.00800000E+00
  1.60000000E+01  1.00800000E+00  1.00800000E+00  1.60000000E+01  1.00800000E+00
  1.00800000E+00  1.60000000E+01  1.00800000E+00  1.00800000E+00  1.60000000E+01
  1.00800000E+00  1.00800000E+00  1.60000000E+01  1.00800000E+00  1.00800000E+00
  1.60000000E+01  1.00800000E+00  1.00800000E+00  1.60000000E+01  1.00800000E+00
  1.00800000E+00  1.60000000E+01  1.00800000E+00  1.00800000E+00  1.60000000E+01
  1.00800000E+00  1.00800000E+00  1.60000000E+01  1.00800000E+00  1.00800000E+00
  1.60000000E+01  1.00800000E+00  1.00800000E+00  1.60000000E+01  1.00800000E+00
  1.00800000E+00  1.60000000E+01  1.00800000E+00  1.00800000E+00  1.60000000E+01
  1.00800000E+00  1.00800000E+00  1.60000000E+01  1.00800000E+00  1.00800000E+00
  1.60000000E+01  1.00800000E+00  1.00800000E+00  1.60000000E+01  1.00800000E+00
  1.00800000E+00  1.60000000E+01  1.00800000E+00  1.00800000E+00  1.60000000E+01
  1.00800000E+00  1.00800000E+00  1.60000000E+01  1.00800000E+00  1.00800000E+00
  1.60000000E+01  1.00800000E+00  1.00800000E+00  1.60000000E+01  1.00800000E+00
  1.00800000E+00  1.60000000E+01  1.00800000E+00  1.00800000E+00  1.60000000E+01
  1.00800000E+00  1.00800000E+00  1.60000000E+01  1.00800000E+00  1.00800000E+00
  1.60000000E+01  1.00800000E+00  1.00800000E+00  1.60000000E+01  1.00800000E+00
  1.00800000E+00  1.60000000E+01  1.00800000E+00  1.00800000E+00  1.60000000E+01
  1.00800000E+00  1.00800000E+00  1.60000000E+01  1.00800000E+00  1.00800000E+00
  1.60000000E+01  1.00800000E+00  1.00800000E+00  1.60000000E+01  1.00800000E+00
  1.00800000E+00  1.60000000E+01  1.00800000E+00  1.00800000E+00  1.60000000E+01
  1.00800000E+00  1.00800000E+00  1.60000000E+01  1.00800000E+00  1.00800000E+00
  1.60000000E+01  1.00800000E+00  1.00800000E+00  1.60000000E+01  1.00800000E+00
  1.00800000E+00  1.60000000E+01  1.00800000E+00  1.00800000E+00  1.60000000E+01
  1.00800000E+00  1.00800000E+00  1.60000000E+01  1.00800000E+00  1.00800000E+00
  1.60000000E+01  1.00800000E+00  1.00800000E+00  1.60000000E+01  1.00800000E+00
  1.00800000E+00  1.60000000E+01  1.00800000E+00  1.00800000E+00  1.60000000E+01
  1.00800000E+00  1.00800000E+00  1.60000000E+01  1.00800000E+00  1.00800000E+00
  1.60000000E+01  1.00800000E+00  1.00800000E+00  1.60000000E+01  1.00800000E+00
  1.00800000E+00  1.60000000E+01  1.00800000E+00  1.00800000E+00  1.60000000E+01
  1.00800000E+00  1.00800000E+00  1.60000000E+01  1.00800000E+00  1.00800000E+00
  1.60000000E+01  1.00800000E+00  1.00800000E+00  1.60000000E+01  1.00800000E+00
  1.00800000E+00  1.60000000E+01  1.00800000E+00  1.00800000E+00  1.60000000E+01
  1.00800000E+00  1.00800000E+00  1.60000000E+01  1.00800000E+00  1.00800000E+00
  1.60000000E+01  1.00800000E+00  1.00800000E+00  1.60000000E+01  1.00800000E+00
  1.00800000E+00  1.60000000E+01  1.00800000E+00  1.00800000E+00  1.60000000E+01
  1.00800000E+00  1.00800000E+00  1.60000000E+01  1.00800000E+00  1.00800000E+00
  1.60000000E+01  1.00800000E+00  1.00800000E+00  1.60000000E+01  1.00800000E+00
  1.00800000E+00  1.60000000E+01  1.00800000E+00  1.00800000E+00  1.60000000E+01
  1.00800000E+00  1.00800000E+00  1.60000000E+01  1.00800000E+00  1.00800000E+00
  1.60000000E+01  1.00800000E+00  1.00800000E+00  1.60000000E+01  1.00800000E+00
  1.00800000E+00  1.60000000E+01  1.00800000E+00  1.00800000E+00  1.60000000E+01
  1.00800000E+00  1.00800000E+00  1.60000000E+01  1.00800000E+00  1.00800000E+00
  1.60000000E+01  1.00800000E+00  1.00800000E+00  1.60000000E+01  1.00800000E+00
  1.00800000E+00  1.60000000E+01  1.00800000E+00  1.00800000E+00  1.60000000E+01
  1.00800000E+00  1.00800000E+00  1.60000000E+01  1.00800000E+00  1.00800000E+00
  1.60000000E+01  1.00800000E+00  1.00800000E+00  1.60000000E+01  1.00800000E+00
  1.00800000E+00  1.60000000E+01  1.00800000E+00  1.00800000E+00  1.60000000E+01
  1.00800000E+00  1.00800000E+00  1.60000000E+01  1.00800000E+00  1.00800000E+00
  1.60000000E+01  1.00800000E+00  1.00800000E+00  1.60000000E+01  1.00800000E+00
  1.00800000E+00  1.60000000E+01  1.00800000E+00  1.00800000E+00  1.60000000E+01
  1.00800000E+00  1.00800000E+00  1.60000000E+01  1.00800000E+00  1.00800000E+00
  1.60000000E+01  1.00800000E+00  1.00800000E+00  1.60000000E+01  1.00800000E+00
  1.00800000E+00  1.60000000E+01  1.00800000E+00  1.00800000E+00  1.60000000E+01
  1.00800000E+00  1.00800000E+00  1.60000000E+01  1.00800000E+00  1.00800000E+00
  1.60000000E+01  1.00800000E+00  1.00800000E+00  1.60000000E+01  1.00800000E+00
  1.00800000E+00  1.60000000E+01  1.00800000E+00  1.00800000E+00  1.60000000E+01
  1.00800000E+00  1.00800000E+00  1.60000000E+01  1.00800000E+00  1.00800000E+00
  1.60000000E+01  1.00800000E+00  1.00800000E+00  1.60000000E+01  1.00800000E+00
  1.00800000E+00  1.60000000E+01  1.00800000E+00  1.00800000E+00  1.60000000E+01
  1.00800000E+00  1.00800000E+00  1.60000000E+01  1.00800000E+00  1.00800000E+00
  1.60000000E+01  1.00800000E+00  1.00800000E+00  1.60000000E+01  1.00800000E+00
  1.00800000E+00  1.60000000E+01  1.00800000E+00  1.00800000E+00  1.60000000E+01
  1.00800000E+00  1.00800000E+00  1.60000000E+01  1.00800000E+00  1.00800000E+00
  1.60000000E+01  1.00800000E+00  1.00800000E+00  1.60000000E+01  1.00800000E+00
  1.00800000E+00  1.60000000E+01  1.00800000E+00  1.00800000E+00  1.60000000E+01
  1.00800000E+00  1.00800000E+00  1.60000000E+01  1.00800000E+00  1.00800000E+00
  1.60000000E+01  1.00800000E+00  1.00800000E+00  1.60000000E+01  1.00800000E+00
  1.00800000E+00  1.60000000E+01  1.00800000E+00  1.00800000E+00  1.60000000E+01
  1.00800000E+00  1.00800000E+00  1.60000000E+01  1.00800000E+00  1.00800000E+00
  1.60000000E+01  1.00800000E+00  1.00800000E+00  1.60000000E+01  1.00800000E+00
  1.00800000E+00  1.60000000E+01  1.00800000E+00  1.00800000E+00  1.60000000E+01
  1.00800000E+00  1.00800000E+00  1.60000000E+01  1.00800000E+00  1.00800000E+00
  1.60000000E+01  1.00800000E+00  1.00800000E+00  1.60000000E+01  1.00800000E+00
  1.00800000E+00  1.60000000E+01  1.00800000E+00  1.00800000E+00  1.60000000E+01
  1.00800000E+00  1.00800000E+00  1.60000000E+01  1.00800000E+00  1.00800000E+00
  1.60000000E+01  1.00800000E+00  1.00800000E+00  1.60000000E+01  1.00800000E+00
  1.00800000E+00  1.60000000E+01  1.00800000E+00  1.00800000E+00  1.60000000E+01
  1.00800000E+00  1.00800000E+00  1.60000000E+01  1.00800000E+00  1.00800000E+00
  1.60000000E+01  1.00800000E+00  1.00800000E+00  1.60000000E+01  1.00800000E+00
  1.00800000E+00  1.60000000E+01  1.00800000E+00  1.00800000E+00  1.60000000E+01
  1.00800000E+00  1.00800000E+00  1.60000000E+01  1.00800000E+00  1.00800000E+00
  1.60000000E+01  1.00800000E+00  1.00800000E+00  1.60000000E+01  1.00800000E+00
  1.00800000E+00  1.60000000E+01  1.00800000E+00  1.00800000E+00  1.60000000E+01
  1.00800000E+00  1.00800000E+00  1.60000000E+01  1.00800000E+00  1.00800000E+00
  1.60000000E+01  1.00800000E+00  1.00800000E+00  1.60000000E+01  1.00800000E+00
  1.00800000E+00  1.60000000E+01  1.00800000E+00  1.00800000E+00  1.60000000E+01
  1.00800000E+00  1.00800000E+00  1.60000000E+01  1.00800000E+00  1.00800000E+00
  1.60000000E+01  1.00800000E+00  1.00800000E+00  1.60000000E+01  1.00800000E+00
  1.00800000E+00  1.60000000E+01  1.00800000E+00  1.00800000E+00  1.60000000E+01
  1.00800000E+00  1.00800000E+00  1.60000000E+01  1.00800000E+00  1.00800000E+00
  1.60000000E+01  1.00800000E+00  1.00800000E+00  1.60000000E+01  1.00800000E+00
  1.00800000E+00  1.60000000E+01  1.00800000E+00  1.00800000E+00  1.60000000E+01
  1.00800000E+00  1.00800000E+00  1.60000000E+01  1.00800000E+00  1.00800000E+00
  1.60000000E+01  1.00800000E+00  1.00800000E+00  1.60000000E+01  1.00800000E+00
  1.00800000E+00  1.60000000E+01  1.00800000E+00  1.00800000E+00  1.60000000E+01
  1.00800000E+00  1.00800000E+00  1.60000000E+01  1.00800000E+00  1.00800000E+00
  1.60000000E+01  1.00800000E+00  1.00800000E+00  1.60000000E+01  1.00800000E+00
  1.00800000E+00  1.60000000E+01  1.00800000E+00  1.00800000E+00  1.60000000E+01
  1.00800000E+00  1.00800000E+00  1.60000000E+01  1.00800000E+00  1.00800000E+00
  1.60000000E+01  1.00800000E+00  1.00800000E+00  1.60000000E+01  1.00800000E+00
  1.00800000E+00  1.60000000E+01  1.00800000E+00  1.00800000E+00  1.60000000E+01
  1.00800000E+00  1.00800000E+00  1.60000000E+01  1.00800000E+00  1.00800000E+00
  1.60000000E+01  1.00800000E+00  1.00800000E+00  1.60000000E+01  1.00800000E+00
  1.00800000E+00  1.60000000E+01  1.00800000E+00  1.00800000E+00  1.60000000E+01
  1.00800000E+00  1.00800000E+00  1.60000000E+01  1.00800000E+00  1.00800000E+00
  1.60000000E+01  1.00800000E+00  1.00800000E+00  1.60000000E+01  1.00800000E+00
  1.00800000E+00  1.60000000E+01  1.00800000E+00  1.00800000E+00  1.60000000E+01
  1.00800000E+00  1.00800000E+00  1.60000000E+01  1.00800000E+00  1.00800000E+00
  1.60000000E+01  1.00800000E+00  1.00800000E+00  1.60000000E+01  1.00800000E+00
  1.00800000E+00  1.60000000E+01  1.00800000E+00  1.00800000E+00  1.60000000E+01
  1.00800000E+00  1.00800000E+00  1.60000000E+01  1.00800000E+00  1.00800000E+00
  1.60000000E+01  1.00800000E+00  1.00800000E+00  1.60000000E+01  1.00800000E+00
  1.00800000E+00  1.60000000E+01  1.00800000E+00  1.00800000E+00  1.60000000E+01
  1.00800000E+00  1.00800000E+00  1.60000000E+01  1.00800000E+00  1.00800000E+00
  1.60000000E+01  1.00800000E+00  1.00800000E+00  1.60000000E+01  1.00800000E+00
  1.00800000E+00  1.60000000E+01  1.00800000E+00  1.00800000E+00  1.60000000E+01
  1.00800000E+00  1.00800000E+00  1.60000000E+01  1.00800000E+00  1.00800000E+00
  1.60000000E+01  1.00800000E+00  1.00800000E+00  1.60000000E+01  1.00800000E+00
  1.00800000E+00  1.60000000E+01  1.00800000E+00  1.00800000E+00  1.60000000E+01
  1.00800000E+00  1.00800000E+00  1.60000000E+01  1.00800000E+00  1.00800000E+00
  1.60000000E+01  1.00800000E+00  1.00800000E+00  1.60000000E+01  1.00800000E+00
  1.00800000E+00  1.60000000E+01  1.00800000E+00  1.00800000E+00  1.60000000E+01
  1.00800000E+00  1.00800000E+00  1.60000000E+01  1.00800000E+00  1.00800000E+00
  1.60000000E+01  1.00800000E+00  1.00800000E+00  1.60000000E+01  1.00800000E+00
  1.00800000E+00  1.60000000E+01  1.00800000E+00  1.00800000E+00  1.60000000E+01
  1.00800000E+00  1.00800000E+00  1.60000000E+01  1.00800000E+00  1.00800000E+00
  1.60000000E+01  1.00800000E+00  1.00800000E+00  1.60000000E+01  1.00800000E+00
  1.00800000E+00  1.60000000E+01  1.00800000E+00  1.00800000E+00  1.60000000E+01
  1.00800000E+00  1.00800000E+00  1.60000000E+01  1.00800000E+00  1.00800000E+00
  1.60000000E+01  1.00800000E+00  1.00800000E+00  1.60000000E+01  1.00800000E+00
  1.00800000E+00  1.60000000E+01  1.00800000E+00  1.00800000E+00  1.60000000E+01
  1.00800000E+00  1.00800000E+00  1.60000000E+01  1.00800000E+00  1.00800000E+00
  1.60000000E+01  1.00800000E+00  1.00800000E+00  1.60000000E+01  1.00800000E+00
  1.00800000E+00  1.60000000E+01  1.00800000E+00  1.00800000E+00  1.60000000E+01
  1.00800000E+00  1.00800000E+00  1.60000000E+01  1.00800000E+00  1.00800000E+00
  1.60000000E+01  1.00800000E+00  1.00800000E+00  1.60000000E+01  1.00800000E+00
  1.00800000E+00  1.60000000E+01  1.00800000E+00  1.00800000E+00  1.60000000E+01
  1.00800000E+00  1.00800000E+00  1.60000000E+01  1.00800000E+00  1.00800000E+00
  1.60000000E+01  1.00800000E+00  1.00800000E+00  1.60000000E+01  1.00800000E+00
  1.00800000E+00  1.60000000E+01  1.00800000E+00  1.00800000E+00  1.60000000E+01
  1.00800000E+00  1.00800000E+00  1.60000000E+01  1.00800000E+00  1.00800000E+00
  1.60000000E+01  1.00800000E+00  1.00800000E+00  1.60000000E+01  1.00800000E+00
  1.00800000E+00  1.60000000E+01  1.00800000E+00  1.00800000E+00  1.60000000E+01
  1.00800000E+00  1.00800000E+00  1.60000000E+01  1.00800000E+00  1.00800000E+00
  1.60000000E+01  1.00800000E+00  1.00800000E+00  1.60000000E+01  1.00800000E+00
  1.00800000E+00  1.60000000E+01  1.00800000E+00  1.00800000E+00  1.60000000E+01
  1.00800000E+00  1.00800000E+00  1.60000000E+01  1.00800000E+00  1.00800000E+00
  1.60000000E+01  1.00800000E+00  1.00800000E+00  1.60000000E+01  1.00800000E+00
  1.00800000E+00  1.60000000E+01  1.00800000E+00  1.00800000E+00  1.60000000E+01
  1.00800000E+00  1.00800000E+00  1.60000000E+01  1.00800000E+00  1.00800000E+00
  1.60000000E+01  1.00800000E+00  1.00800000E+00  1.60000000E+01  1.00800000E+00
  1.00800000E+00  1.60000000E+01  1.00800000E+00  1.00800000E+00  1.60000000E+01
  1.00800000E+00  1.00800000E+00  1.60000000E+01  1.00800000E+00  1.00800000E+00
  1.60000000E+01  1.00800000E+00  1.00800000E+00  1.60000000E+01  1.00800000E+00
  1.00800000E+00  1.60000000E+01  1.00800000E+00  1.00800000E+00  1.60000000E+01
  1.00800000E+00  1.00800000E+00  1.60000000E+01  1.00800000E+00  1.00800000E+00
  1.60000000E+01  1.00800000E+00  1.00800000E+00  1.60000000E+01  1.00800000E+00
  1.00800000E+00  1.60000000E+01  1.00800000E+00  1.00800000E+00  1.60000000E+01
  1.00800000E+00  1.00800000E+00  1.60000000E+01  1.00800000E+00  1.00800000E+00
  1.60000000E+01  1.00800000E+00  1.00800000E+00  1.60000000E+01  1.00800000E+00
  1.00800000E+00  1.60000000E+01  1.00800000E+00  1.00800000E+00  1.60000000E+01
  1.00800000E+00  1.00800000E+00  1.60000000E+01  1.00800000E+00  1.00800000E+00
  1.60000000E+01  1.00800000E+00  1.00800000E+00  1.60000000E+01  1.00800000E+00
  1.00800000E+00  1.60000000E+01  1.00800000E+00  1.00800000E+00  1.60000000E+01
  1.00800000E+00  1.00800000E+00  1.60000000E+01  1.00800000E+00  1.00800000E+00
  1.60000000E+01  1.00800000E+00  1.00800000E+00  1.60000000E+01  1.00800000E+00
  1.00800000E+00  1.60000000E+01  1.00800000E+00  1.00800000E+00  1.60000000E+01
  1.00800000E+00  1.00800000E+00  1.60000000E+01  1.00800000E+00  1.00800000E+00
  1.60000000E+01  1.00800000E+00  1.00800000E+00  1.60000000E+01  1.00800000E+00
  1.00800000E+00  1.60000000E+01  1.00800000E+00  1.00800000E+00  1.60000000E+01
  1.00800000E+00  1.00800000E+00  1.60000000E+01  1.00800000E+00  1.00800000E+00
  1.60000000E+01  1.00800000E+00  1.00800000E+00  1.60000000E+01  1.00800000E+00
  1.00800000E+00  1.60000000E+01  1.00800000E+00  1.00800000E+00  1.60000000E+01
  1.00800000E+00  1.00800000E+00  1.60000000E+01  1.00800000E+00  1.00800000E+00
  1.60000000E+01  1.00800000E+00  1.00800000E+00  1.60000000E+01  1.00800000E+00
  1.00800000E+00  1.60000000E+01  1.00800000E+00  1.00800000E+00  1.60000000E+01
  1.00800000E+00  1.00800000E+00  1.60000000E+01  1.00800000E+00  1.00800000E+00
  1.60000000E+01  1.00800000E+00  1.00800000E+00  1.60000000E+01  1.00800000E+00
  1.00800000E+00  1.60000000E+01  1.00800000E+00  1.00800000E+00  1.60000000E+01
  1.00800000E+00  1.00800000E+00  1.60000000E+01  1.00800000E+00  1.00800000E+00
  1.60000000E+01  1.00800000E+00  1.00800000E+00  1.60000000E+01  1.00800000E+00
  1.00800000E+00  1.60000000E+01  1.00800000E+00  1.00800000E+00  1.60000000E+01
  1.00800000E+00  1.00800000E+00  1.60000000E+01  1.00800000E+00  1.00800000E+00
  1.60000000E+01  1.00800000E+00  1.00800000E+00  1.60000000E+01  1.00800000E+00
  1.00800000E+00  1.60000000E+01  1.00800000E+00  1.00800000E+00  1.60000000E+01
  1.00800000E+00  1.00800000E+00  1.60000000E+01  1.00800000E+00  1.00800000E+00
  1.60000000E+01  1.00800000E+00  1.00800000E+00  1.60000000E+01  1.00800000E+00
  1.00800000E+00  1.60000000E+01  1.00800000E+00  1.00800000E+00  1.60000000E+01
  1.00800000E+00  1.00800000E+00  1.60000000E+01  1.00800000E+00  1.00800000E+00
  1.60000000E+01  1.00800000E+00  1.00800000E+00  1.60000000E+01  1.00800000E+00
  1.00800000E+00  1.60000000E+01  1.00800000E+00  1.00800000E+00  1.60000000E+01
  1.00800000E+00  1.00800000E+00  1.60000000E+01  1.00800000E+00  1.00800000E+00
  1.60000000E+01  1.00800000E+00  1.00800000E+00  1.60000000E+01  1.00800000E+00
  1.00800000E+00  1.60000000E+01  1.00800000E+00  1.00800000E+00  1.60000000E+01
  1.00800000E+00  1.00800000E+00  1.60000000E+01  1.00800000E+00  1.00800000E+00
  1.60000000E+01  1.00800000E+00  1.00800000E+00  1.60000000E+01  1.00800000E+00
  1.00800000E+00  1.60000000E+01  1.00800000E+00  1.00800000E+00  1.60000000E+01
  1.00800000E+00  1.00800000E+00  1.60000000E+01  1.00800000E+00  1.00800000E+00
  1.60000000E+01  1.00800000E+00  1.00800000E+00  1.60000000E+01  1.00800000E+00
  1.00800000E+00  1.60000000E+01  1.00800000E+00  1.00800000E+00  1.60000000E+01
  1.00800000E+00  1.00800000E+00  1.60000000E+01  1.00800000E+00  1.00800000E+00
  1.60000000E+01  1.00800000E+00  1.00800000E+00  1.60000000E+01  1.00800000E+00
  1.00800000E+00  1.60000000E+01  1.00800000E+00  1.00800000E+00  1.60000000E+01
  1.00800000E+00  1.00800000E+00  1.60000000E+01  1.00800000E+00  1.00800000E+00
  1.60000000E+01  1.00800000E+00  1.00800000E+00  1.60000000E+01  1.00800000E+00
  1.00800000E+00  1.60000000E+01  1.00800000E+00  1.00800000E+00  1.60000000E+01
  1.00800000E+00  1.00800000E+00  1.60000000E+01  1.00800000E+00  1.00800000E+00
  1.60000000E+01  1.00800000E+00  1.00800000E+00  1.60000000E+01  1.00800000E+00
  1.00800000E+00  1.60000000E+01  1.00800000E+00  1.00800000E+00  1.60000000E+01
  1.00800000E+00  1.00800000E+00  1.60000000E+01  1.00800000E+00  1.00800000E+00
  1.60000000E+01  1.00800000E+00  1.00800000E+00  1.60000000E+01  1.00800000E+00
  1.00800000E+00  1.60000000E+01  1.00800000E+00  1.00800000E+00  1.60000000E+01
  1.00800000E+00  1.00800000E+00  1.60000000E+01  1.00800000E+00  1.00800000E+00
  1.60000000E+01  1.00800000E+00  1.00800000E+00  1.60000000E+01  1.00800000E+00
  1.00800000E+00  1.60000000E+01  1.00800000E+00  1.00800000E+00  1.60000000E+01
  1.00800000E+00  1.00800000E+00  1.60000000E+01  1.00800000E+00  1.00800000E+00
  1.60000000E+01  1.00800000E+00  1.00800000E+00  1.60000000E+01  1.00800000E+00
  1.00800000E+00  1.60000000E+01  1.00800000E+00  1.00800000E+00  1.60000000E+01
  1.00800000E+00  1.00800000E+00  1.60000000E+01  1.00800000E+00  1.00800000E+00
  1.60000000E+01  1.00800000E+00  1.00800000E+00  1.60000000E+01  1.00800000E+00
  1.00800000E+00  1.60000000E+01  1.00800000E+00  1.00800000E+00  1.60000000E+01
  1.00800000E+00  1.00800000E+00  1.60000000E+01  1.00800000E+00  1.00800000E+00
  1.60000000E+01  1.00800000E+00  1.00800000E+00  1.60000000E+01  1.00800000E+00
  1.00800000E+00  1.60000000E+01  1.00800000E+00  1.00800000E+00  1.60000000E+01
  1.00800000E+00  1.00800000E+00  1.60000000E+01  1.00800000E+00  1.00800000E+00
  1.60000000E+01  1.00800000E+00  1.00800000E+00  1.60000000E+01  1.00800000E+00
  1.00800000E+00  1.60000000E+01  1.00800000E+00  1.00800000E+00  1.60000000E+01
  1.00800000E+00  1.00800000E+00  1.60000000E+01  1.00800000E+00  1.00800000E+00
  1.60000000E+01  1.00800000E+00  1.00800000E+00  1.60000000E+01  1.00800000E+00
  1.00800000E+00  1.60000000E+01  1.00800000E+00  1.00800000E+00  1.60000000E+01
  1.00800000E+00  1.00800000E+00  1.60000000E+01  1.00800000E+00  1.00800000E+00
  1.60000000E+01  1.00800000E+00  1.00800000E+00  1.60000000E+01  1.00800000E+00
  1.00800000E+00  1.60000000E+01  1.00800000E+00  1.00800000E+00  1.60000000E+01
  1.00800000E+00  1.00800000E+00  1.60000000E+01  1.00800000E+00  1.00800000E+00
  1.60000000E+01  1.00800000E+00  1.00800000E+00  1.60000000E+01  1.00800000E+00
  1.00800000E+00  1.60000000E+01  1.00800000E+00  1.00800000E+00  1.60000000E+01
  1.00800000E+00  1.00800000E+00  1.60000000E+01  1.00800000E+00  1.00800000E+00
  1.60000000E+01  1.00800000E+00  1.00800000E+00  1.60000000E+01  1.00800000E+00
  1.00800000E+00  1.60000000E+01  1.00800000E+00  1.00800000E+00  1.60000000E+01
  1.00800000E+00  1.00800000E+00  1.60000000E+01  1.00800000E+00  1.00800000E+00
  1.60000000E+01  1.00800000E+00  1.00800000E+00  1.60000000E+01  1.00800000E+00
  1.00800000E+00  1.60000000E+01  1.00800000E+00  1.00800000E+00  1.60000000E+01
  1.00800000E+00  1.00800000E+00  1.60000000E+01  1.00800000E+00  1.00800000E+00
  1.60000000E+01  1.00800000E+00  1.00800000E+00  1.60000000E+01  1.00800000E+00
  1.00800000E+00  1.60000000E+01  1.00800000E+00  1.00800000E+00  1.60000000E+01
  1.00800000E+00  1.00800000E+00  1.60000000E+01  1.00800000E+00  1.00800000E+00
  1.60000000E+01  1.00800000E+00  1.00800000E+00  1.60000000E+01  1.00800000E+00
  1.00800000E+00  1.60000000E+01  1.00800000E+00  1.00800000E+00  1.60000000E+01
  1.00800000E+00  1.00800000E+00  1.60000000E+01  1.00800000E+00  1.00800000E+00
  1.60000000E+01  1.00800000E+00  1.00800000E+00  1.60000000E+01  1.00800000E+00
  1.00800000E+00  1.60000000E+01  1.00800000E+00  1.00800000E+00  1.60000000E+01
  1.00800000E+00  1.00800000E+00  1.60000000E+01  1.00800000E+00  1.00800000E+00
  1.60000000E+01  1.00800000E+00  1.00800000E+00  1.60000000E+01  1.00800000E+00
  1.00800000E+00  1.60000000E+01  1.00800000E+00  1.00800000E+00  1.60000000E+01
  1.00800000E+00  1.00800000E+00  1.60000000E+01  1.00800000E+00  1.00800000E+00
  1.60000000E+01  1.00800000E+00  1.00800000E+00  1.60000000E+01  1.00800000E+00
  1.00800000E+00  1.60000000E+01  1.00800000E+00  1.00800000E+00  1.60000000E+01
  1.00800000E+00  1.00800000E+00  1.60000000E+01  1.00800000E+00  1.00800000E+00
  1.60000000E+01  1.00800000E+00  1.00800000E+00  1.60000000E+01  1.00800000E+00
  1.00800000E+00  1.60000000E+01  1.00800000E+00  1.00800000E+00  1.60000000E+01
  1.00800000E+00  1.00800000E+00  1.60000000E+01  1.00800000E+00  1.00800000E+00
  1.60000000E+01  1.00800000E+00  1.00800000E+00  1.60000000E+01  1.00800000E+00
  1.00800000E+00  1.60000000E+01  1.00800000E+00  1.00800000E+00  1.60000000E+01
  1.00800000E+00  1.00800000E+00  1.60000000E+01  1.00800000E+00  1.00800000E+00
  1.60000000E+01  1.00800000E+00  1.00800000E+00  1.60000000E+01  1.00800000E+00
  1.00800000E+00  1.60000000E+01  1.00800000E+00  1.00800000E+00  1.60000000E+01
  1.00800000E+00  1.00800000E+00  1.60000000E+01  1.00800000E+00  1.00800000E+00
  1.60000000E+01  1.00800000E+00  1.00800000E+00  1.60000000E+01  1.00800000E+00
  1.00800000E+00  1.60000000E+01  1.00800000E+00  1.00800000E+00  1.60000000E+01
  1.00800000E+00  1.00800000E+00  1.60000000E+01  1.00800000E+00  1.00800000E+00
  1.60000000E+01  1.00800000E+00  1.00800000E+00  1.60000000E+01  1.00800000E+00
  1.00800000E+00  1.60000000E+01  1.00800000E+00  1.00800000E+00  1.60000000E+01
  1.00800000E+00  1.00800000E+00  1.60000000E+01  1.00800000E+00  1.00800000E+00
  1.60000000E+01  1.00800000E+00  1.00800000E+00  1.60000000E+01  1.00800000E+00
  1.00800000E+00  1.60000000E+01  1.00800000E+00  1.00800000E+00  1.60000000E+01
  1.00800000E+00  1.00800000E+00  1.60000000E+01  1.00800000E+00  1.00800000E+00
  1.60000000E+01  1.00800000E+00  1.00800000E+00  1.60000000E+01  1.00800000E+00
  1.00800000E+00  1.60000000E+01  1.00800000E+00  1.00800000E+00  1.60000000E+01
  1.00800000E+00  1.00800000E+00  1.60000000E+01  1.00800000E+00  1.00800000E+00
  1.60000000E+01  1.00800000E+00  1.00800000E+00  1.60000000E+01  1.00800000E+00
  1.00800000E+00  1.60000000E+01  1.00800000E+00  1.00800000E+00  1.60000000E+01
  1.00800000E+00  1.00800000E+00  1.60000000E+01  1.00800000E+00  1.00800000E+00
  1.60000000E+01  1.00800000E+00  1.00800000E+00  1.60000000E+01  1.00800000E+00
  1.00800000E+00  1.60000000E+01  1.00800000E+00  1.00800000E+00  1.60000000E+01
  1.00800000E+00  1.00800000E+00  1.60000000E+01  1.00800000E+00  1.00800000E+00
  1.60000000E+01  1.00800000E+00  1.00800000E+00  1.60000000E+01  1.00800000E+00
  1.00800000E+00  1.60000000E+01  1.00800000E+00  1.00800000E+00  1.60000000E+01
  1.00800000E+00  1.00800000E+00  1.60000000E+01  1.00800000E+00  1.00800000E+00
  1.60000000E+01  1.00800000E+00  1.00800000E+00  1.60000000E+01  1.00800000E+00
  1.00800000E+00  1.60000000E+01  1.00800000E+00  1.00800000E+00  1.60000000E+01
  1.00800000E+00  1.00800000E+00  1.60000000E+01  1.00800000E+00  1.00800000E+00
  1.60000000E+01  1.00800000E+00  1.00800000E+00  1.60000000E+01  1.00800000E+00
  1.00800000E+00  1.60000000E+01  1.00800000E+00  1.00800000E+00  1.60000000E+01
  1.00800000E+00  1.00800000E+00  1.60000000E+01  1.00800000E+00  1.00800000E+00
  1.60000000E+01  1.00800000E+00  1.00800000E+00  1.60000000E+01  1.00800000E+00
  1.00800000E+00  1.60000000E+01  1.00800000E+00  1.00800000E+00  1.60000000E+01
  1.00800000E+00  1.00800000E+00  1.60000000E+01  1.00800000E+00  1.00800000E+00
  1.60000000E+01  1.00800000E+00  1.00800000E+00  1.60000000E+01  1.00800000E+00
  1.00800000E+00  1.60000000E+01  1.00800000E+00  1.00800000E+00  1.60000000E+01
  1.00800000E+00  1.00800000E+00  1.60000000E+01  1.00800000E+00  1.00800000E+00
  1.60000000E+01  1.00800000E+00  1.00800000E+00  1.60000000E+01  1.00800000E+00
  1.00800000E+00  1.60000000E+01  1.00800000E+00  1.00800000E+00  1.60000000E+01
  1.00800000E+00  1.00800000E+00  1.60000000E+01  1.00800000E+00  1.00800000E+00
  1.60000000E+01  1.00800000E+00  1.00800000E+00  1.60000000E+01  1.00800000E+00
  1.00800000E+00  1.60000000E+01  1.00800000E+00  1.00800000E+00  1.60000000E+01
  1.00800000E+00  1.00800000E+00  1.60000000E+01  1.00800000E+00  1.00800000E+00
  1.60000000E+01  1.00800000E+00  1.00800000E+00  1.60000000E+01  1.00800000E+00
  1.00800000E+00  1.60000000E+01  1.00800000E+00  1.00800000E+00  1.60000000E+01
  1.00800000E+00  1.00800000E+00  1.60000000E+01  1.00800000E+00  1.00800000E+00
  1.60000000E+01  1.00800000E+00  1.00800000E+00  1.60000000E+01  1.00800000E+00
  1.00800000E+00  1.60000000E+01  1.00800000E+00  1.00800000E+00  1.60000000E+01
  1.00800000E+00  1.00800000E+00  1.60000000E+01  1.00800000E+00  1.00800000E+00
  1.60000000E+01  1.00800000E+00  1.00800000E+00  1.60000000E+01  1.00800000E+00
  1.00800000E+00  1.60000000E+01  1.00800000E+00  1.00800000E+00  1.60000000E+01
  1.00800000E+00  1.00800000E+00  1.60000000E+01  1.00800000E+00  1.00800000E+00
  1.60000000E+01  1.00800000E+00  1.00800000E+00  1.60000000E+01  1.00800000E+00
  1.00800000E+00  1.60000000E+01  1.00800000E+00  1.00800000E+00  1.60000000E+01
  1.00800000E+00  1.00800000E+00  1.60000000E+01  1.00800000E+00  1.00800000E+00
  1.60000000E+01  1.00800000E+00  1.00800000E+00  1.60000000E+01  1.00800000E+00
  1.00800000E+00  1.60000000E+01  1.00800000E+00  1.00800000E+00  1.60000000E+01
  1.00800000E+00  1.00800000E+00  1.60000000E+01  1.00800000E+00  1.00800000E+00
  1.60000000E+01  1.00800000E+00  1.00800000E+00  1.60000000E+01  1.00800000E+00
  1.00800000E+00  1.60000000E+01  1.00800000E+00  1.00800000E+00  1.60000000E+01
  1.00800000E+00  1.00800000E+00  1.60000000E+01  1.00800000E+00  1.00800000E+00
  1.60000000E+01  1.00800000E+00  1.00800000E+00  1.60000000E+01  1.00800000E+00
  1.00800000E+00  1.60000000E+01  1.00800000E+00  1.00800000E+00  1.60000000E+01
  1.00800000E+00  1.00800000E+00  1.60000000E+01  1.00800000E+00  1.00800000E+00
  1.60000000E+01  1.00800000E+00  1.00800000E+00  1.60000000E+01  1.00800000E+00
  1.00800000E+00  1.60000000E+01  1.00800000E+00  1.00800000E+00  1.60000000E+01
  1.00800000E+00  1.00800000E+00  1.60000000E+01  1.00800000E+00  1.00800000E+00
  1.60000000E+01  1.00800000E+00  1.00800000E+00  1.60000000E+01  1.00800000E+00
  1.00800000E+00  1.60000000E+01  1.00800000E+00  1.00800000E+00  1.60000000E+01
  1.00800000E+00  1.00800000E+00  1.60000000E+01  1.00800000E+00  1.00800000E+00
  1.60000000E+01  1.00800000E+00  1.00800000E+00  1.60000000E+01  1.00800000E+00
  1.00800000E+00  1.60000000E+01  1.00800000E+00  1.00800000E+00  1.60000000E+01
  1.00800000E+00  1.00800000E+00  1.60000000E+01  1.00800000E+00  1.00800000E+00
  1.60000000E+01  1.00800000E+00  1.00800000E+00  1.60000000E+01  1.00800000E+00
  1.00800000E+00  1.60000000E+01  1.00800000E+00  1.00800000E+00  1.60000000E+01
  1.00800000E+00  1.00800000E+00  1.60000000E+01  1.00800000E+00  1.00800000E+00
  1.60000000E+01  1.00800000E+00  1.00800000E+00  1.60000000E+01  1.00800000E+00
  1.00800000E+00  1.60000000E+01  1.00800000E+00  1.00800000E+00  1.60000000E+01
  1.00800000E+00  1.00800000E+00  1.60000000E+01  1.00800000E+00  1.00800000E+00
  1.60000000E+01  1.00800000E+00  1.00800000E+00  1.60000000E+01  1.00800000E+00
  1.00800000E+00  1.60000000E+01  1.00800000E+00  1.00800000E+00  1.60000000E+01
  1.00800000E+00  1.00800000E+00  1.60000000E+01  1.00800000E+00  1.00800000E+00
  1.60000000E+01  1.00800000E+00  1.00800000E+00  1.60000000E+01  1.00800000E+00
  1.00800000E+00  1.60000000E+01  1.00800000E+00  1.00800000E+00  1.60000000E+01
  1.00800000E+00  1.00800000E+00  1.60000000E+01  1.00800000E+00  1.00800000E+00
  1.60000000E+01  1.00800000E+00  1.00800000E+00  1.60000000E+01  1.00800000E+00
  1.00800000E+00  1.60000000E+01  1.00800000E+00  1.00800000E+00  1.60000000E+01
  1.00800000E+00  1.00800000E+00  1.60000000E+01  1.00800000E+00  1.00800000E+00
  1.60000000E+01  1.00800000E+00  1.00800000E+00  1.60000000E+01  1.00800000E+00
  1.00800000E+00  1.60000000E+01  1.00800000E+00  1.00800000E+00  1.60000000E+01
  1.00800000E+00  1.00800000E+00  1.60000000E+01  1.00800000E+00  1.00800000E+00
  1.60000000E+01  1.00800000E+00  1.00800000E+00  1.60000000E+01  1.00800000E+00
  1.00800000E+00  1.60000000E+01  1.00800000E+00  1.00800000E+00  1.60000000E+01
  1.00800000E+00  1.00800000E+00  1.60000000E+01  1.00800000E+00  1.00800000E+00
  1.60000000E+01  1.00800000E+00  1.00800000E+00  1.60000000E+01  1.00800000E+00
  1.00800000E+00  1.60000000E+01  1.00800000E+00  1.00800000E+00  1.60000000E+01
  1.00800000E+00  1.00800000E+00  1.60000000E+01  1.00800000E+00  1.00800000E+00
  1.60000000E+01  1.00800000E+00  1.00800000E+00  1.60000000E+01  1.00800000E+00
  1.00800000E+00  1.60000000E+01  1.00800000E+00  1.00800000E+00  1.60000000E+01
  1.00800000E+00  1.00800000E+00  1.60000000E+01  1.00800000E+00  1.00800000E+00
  1.60000000E+01  1.00800000E+00  1.00800000E+00  1.60000000E+01  1.00800000E+00
  1.00800000E+00  1.60000000E+01  1.00800000E+00  1.00800000E+00  1.60000000E+01
  1.00800000E+00  1.00800000E+00  1.60000000E+01  1.00800000E+00  1.00800000E+00
  1.60000000E+01  1.00800000E+00  1.00800000E+00  1.60000000E+01  1.00800000E+00
  1.00800000E+00  1.60000000E+01  1.00800000E+00  1.00800000E+00  1.60000000E+01
  1.00800000E+00  1.00800000E+00  1.60000000E+01  1.00800000E+00  1.00800000E+00
  1.60000000E+01  1.00800000E+00  1.00800000E+00  1.60000000E+01  1.00800000E+00
  1.00800000E+00  1.60000000E+01  1.00800000E+00  1.00800000E+00  1.60000000E+01
  1.00800000E+00  1.00800000E+00  1.60000000E+01  1.00800000E+00  1.00800000E+00
  1.60000000E+01  1.00800000E+00  1.00800000E+00  1.60000000E+01  1.00800000E+00
  1.00800000E+00  1.60000000E+01  1.00800000E+00  1.00800000E+00  1.60000000E+01
  1.00800000E+00  1.00800000E+00  1.60000000E+01  1.00800000E+00  1.00800000E+00
  1.60000000E+01  1.00800000E+00  1.00800000E+00  1.60000000E+01  1.00800000E+00
  1.00800000E+00  1.60000000E+01  1.00800000E+00  1.00800000E+00  1.60000000E+01
  1.00800000E+00  1.00800000E+00  1.60000000E+01  1.00800000E+00  1.00800000E+00
  1.60000000E+01  1.00800000E+00  1.00800000E+00  1.60000000E+01  1.00800000E+00
  1.00800000E+00  1.60000000E+01  1.00800000E+00  1.00800000E+00  1.60000000E+01
  1.00800000E+00  1.00800000E+00  1.60000000E+01  1.00800000E+00  1.00800000E+00
  1.60000000E+01  1.00800000E+00  1.00800000E+00  1.60000000E+01  1.00800000E+00
  1.00800000E+00  1.60000000E+01  1.00800000E+00  1.00800000E+00  1.60000000E+01
  1.00800000E+00  1.00800000E+00  1.60000000E+01  1.00800000E+00  1.00800000E+00
  1.60000000E+01  1.00800000E+00  1.00800000E+00  1.60000000E+01  1.00800000E+00
  1.00800000E+00  1.60000000E+01  1.00800000E+00  1.00800000E+00  1.60000000E+01
  1.00800000E+00  1.00800000E+00  1.60000000E+01  1.00800000E+00  1.00800000E+00
  1.60000000E+01  1.00800000E+00  1.00800000E+00  1.60000000E+01  1.00800000E+00
  1.00800000E+00  1.60000000E+01  1.00800000E+00  1.00800000E+00  1.60000000E+01
  1.00800000E+00  1.00800000E+00  1.60000000E+01  1.00800000E+00  1.00800000E+00
  1.60000000E+01  1.00800000E+00  1.00800000E+00  1.60000000E+01  1.00800000E+00
  1.00800000E+00  1.60000000E+01  1.00800000E+00  1.00800000E+00  1.60000000E+01
  1.00800000E+00  1.00800000E+00  1.60000000E+01  1.00800000E+00  1.00800000E+00
  1.60000000E+01  1.00800000E+00  1.00800000E+00  1.60000000E+01  1.00800000E+00
  1.00800000E+00  1.60000000E+01  1.00800000E+00  1.00800000E+00  1.60000000E+01
  1.00800000E+00  1.00800000E+00  1.60000000E+01  1.00800000E+00  1.00800000E+00
  1.60000000E+01  1.00800000E+00  1.00800000E+00  1.60000000E+01  1.00800000E+00
  1.00800000E+00  1.60000000E+01  1.00800000E+00  1.00800000E+00  1.60000000E+01
  1.00800000E+00  1.00800000E+00  1.60000000E+01  1.00800000E+00  1.00800000E+00
  1.60000000E+01  1.00800000E+00  1.00800000E+00  1.60000000E+01  1.00800000E+00
  1.00800000E+00  1.60000000E+01  1.00800000E+00  1.00800000E+00  1.60000000E+01
  1.00800000E+00  1.00800000E+00  1.60000000E+01  1.00800000E+00  1.00800000E+00
  1.60000000E+01  1.00800000E+00  1.00800000E+00  1.60000000E+01  1.00800000E+00
  1.00800000E+00  1.60000000E+01  1.00800000E+00  1.00800000E+00  1.60000000E+01
  1.00800000E+00  1.00800000E+00  1.60000000E+01  1.00800000E+00  1.00800000E+00
  1.60000000E+01  1.00800000E+00  1.00800000E+00  1.60000000E+01  1.00800000E+00
  1.00800000E+00  1.60000000E+01  1.00800000E+00  1.00800000E+00  1.60000000E+01
  1.00800000E+00  1.00800000E+00  1.60000000E+01  1.00800000E+00  1.00800000E+00
  1.60000000E+01  1.00800000E+00  1.00800000E+00  1.60000000E+01  1.00800000E+00
  1.00800000E+00  1.60000000E+01  1.00800000E+00  1.00800000E+00  1.60000000E+01
  1.00800000E+00  1.00800000E+00  1.60000000E+01  1.00800000E+00  1.00800000E+00
  1.60000000E+01  1.00800000E+00  1.00800000E+00  1.60000000E+01  1.00800000E+00
  1.00800000E+00  1.60000000E+01  1.00800000E+00  1.00800000E+00  1.60000000E+01
  1.00800000E+00  1.00800000E+00  1.60000000E+01  1.00800000E+00  1.00800000E+00
  1.60000000E+01  1.00800000E+00  1.00800000E+00  1.60000000E+01  1.00800000E+00
  1.00800000E+00  1.60000000E+01  1.00800000E+00  1.00800000E+00  1.60000000E+01
  1.00800000E+00  1.00800000E+00  1.60000000E+01  1.00800000E+00  1.00800000E+00
  1.60000000E+01  1.00800000E+00  1.00800000E+00  1.60000000E+01  1.00800000E+00
  1.00800000E+00  1.60000000E+01  1.00800000E+00  1.00800000E+00  1.60000000E+01
  1.00800000E+00  1.00800000E+00  1.60000000E+01  1.00800000E+00  1.00800000E+00
  1.60000000E+01  1.00800000E+00  1.00800000E+00  1.60000000E+01  1.00800000E+00
  1.00800000E+00  1.60000000E+01  1.00800000E+00  1.00800000E+00  1.60000000E+01
  1.00800000E+00  1.00800000E+00  1.60000000E+01  1.00800000E+00  1.00800000E+00
  1.60000000E+01  1.00800000E+00  1.00800000E+00  1.60000000E+01  1.00800000E+00
  1.00800000E+00  1.60000000E+01  1.00800000E+00  1.00800000E+00  1.60000000E+01
  1.00800000E+00  1.00800000E+00  1.60000000E+01  1.00800000E+00  1.00800000E+00
  1.60000000E+01  1.00800000E+00  1.00800000E+00  1.60000000E+01  1.00800000E+00
  1.00800000E+00  1.60000000E+01  1.00800000E+00  1.00800000E+00  1.60000000E+01
  1.00800000E+00  1.00800000E+00  1.60000000E+01  1.00800000E+00  1.00800000E+00
  1.60000000E+01  1.00800000E+00  1.00800000E+00  1.60000000E+01  1.00800000E+00
  1.00800000E+00  1.60000000E+01  1.00800000E+00  1.00800000E+00  1.60000000E+01
  1.00800000E+00  1.00800000E+00  1.60000000E+01  1.00800000E+00  1.00800000E+00
  1.60000000E+01  1.00800000E+00  1.00800000E+00  1.60000000E+01  1.00800000E+00
  1.00800000E+00  1.60000000E+01  1.00800000E+00  1.00800000E+00  1.60000000E+01
  1.00800000E+00  1.00800000E+00  1.60000000E+01  1.00800000E+00  1.00800000E+00
  1.60000000E+01  1.00800000E+00  1.00800000E+00  1.60000000E+01  1.00800000E+00
  1.00800000E+00  1.60000000E+01  1.00800000E+00  1.00800000E+00  1.60000000E+01
  1.00800000E+00  1.00800000E+00  1.60000000E+01  1.00800000E+00  1.00800000E+00
  1.60000000E+01  1.00800000E+00  1.00800000E+00  1.60000000E+01  1.00800000E+00
  1.00800000E+00  1.60000000E+01  1.00800000E+00  1.00800000E+00  1.60000000E+01
  1.00800000E+00  1.00800000E+00  1.60000000E+01  1.00800000E+00  1.00800000E+00
  1.60000000E+01  1.00800000E+00  1.00800000E+00  1.60000000E+01  1.00800000E+00
  1.00800000E+00  1.60000000E+01  1.00800000E+00  1.00800000E+00  1.60000000E+01
  1.00800000E+00  1.00800000E+00  1.60000000E+01  1.00800000E+00  1.00800000E+00
  1.60000000E+01  1.00800000E+00  1.00800000E+00  1.60000000E+01  1.00800000E+00
  1.00800000E+00  1.60000000E+01  1.00800000E+00  1.00800000E+00  1.60000000E+01
  1.00800000E+00  1.00800000E+00  1.60000000E+01  1.00800000E+00  1.00800000E+00
  1.60000000E+01  1.00800000E+00  1.00800000E+00  1.60000000E+01  1.00800000E+00
  1.00800000E+00  1.60000000E+01  1.00800000E+00  1.00800000E+00  1.60000000E+01
  1.00800000E+00  1.00800000E+00  1.60000000E+01  1.00800000E+00  1.00800000E+00
  1.60000000E+01  1.00800000E+00  1.00800000E+00  1.60000000E+01  1.00800000E+00
  1.00800000E+00  1.60000000E+01  1.00800000E+00  1.00800000E+00  1.60000000E+01
  1.00800000E+00  1.00800000E+00  1.60000000E+01  1.00800000E+00  1.00800000E+00
  1.60000000E+01  1.00800000E+00  1.00800000E+00  1.60000000E+01  1.00800000E+00
  1.00800000E+00  1.60000000E+01  1.00800000E+00  1.00800000E+00  1.60000000E+01
  1.00800000E+00  1.00800000E+00  1.60000000E+01  1.00800000E+00  1.00800000E+00
  1.60000000E+01  1.00800000E+00  1.00800000E+00  1.60000000E+01  1.00800000E+00
  1.00800000E+00  1.60000000E+01  1.00800000E+00  1.00800000E+00  1.60000000E+01
  1.00800000E+00  1.00800000E+00  1.60000000E+01  1.00800000E+00  1.00800000E+00
  1.60000000E+01  1.00800000E+00  1.00800000E+00  1.60000000E+01  1.00800000E+00
  1.00800000E+00  1.60000000E+01  1.00800000E+00  1.00800000E+00  1.60000000E+01
  1.00800000E+00  1.00800000E+00  1.60000000E+01  1.00800000E+00  1.00800000E+00
  1.60000000E+01  1.00800000E+00  1.00800000E+00  1.60000000E+01  1.00800000E+00
  1.00800000E+00  1.60000000E+01  1.00800000E+00  1.00800000E+00  1.60000000E+01
  1.00800000E+00  1.00800000E+00  1.60000000E+01  1.00800000E+00  1.00800000E+00
  1.60000000E+01  1.00800000E+00  1.00800000E+00  1.60000000E+01  1.00800000E+00
  1.00800000E+00  1.60000000E+01  1.00800000E+00  1.00800000E+00  1.60000000E+01
  1.00800000E+00  1.00800000E+00  1.60000000E+01  1.00800000E+00  1.00800000E+00
  1.60000000E+01  1.00800000E+00  1.00800000E+00  1.60000000E+01  1.00800000E+00
  1.00800000E+00  1.60000000E+01  1.00800000E+00  1.00800000E+00  1.60000000E+01
  1.00800000E+00  1.00800000E+00  1.60000000E+01  1.00800000E+00  1.00800000E+00
  1.60000000E+01  1.00800000E+00  1.00800000E+00  1.60000000E+01  1.00800000E+00
  1.00800000E+00  1.60000000E+01  1.00800000E+00  1.00800000E+00  1.60000000E+01
  1.00800000E+00  1.00800000E+00  1.60000000E+01  1.00800000E+00  1.00800000E+00
  1.60000000E+01  1.00800000E+00  1.00800000E+00  1.60000000E+01  1.00800000E+00
  1.00800000E+00  1.60000000E+01  1.00800000E+00  1.00800000E+00  1.60000000E+01
  1.00800000E+00  1.00800000E+00  1.60000000E+01  1.00800000E+00  1.00800000E+00
  1.60000000E+01  1.00800000E+00  1.00800000E+00  1.60000000E+01  1.00800000E+00
  1.00800000E+00  1.60000000E+01  1.00800000E+00  1.00800000E+00  1.60000000E+01
  1.00800000E+00  1.00800000E+00  1.60000000E+01  1.00800000E+00  1.00800000E+00
  1.60000000E+01  1.00800000E+00  1.00800000E+00  1.60000000E+01  1.00800000E+00
  1.00800000E+00  1.60000000E+01  1.00800000E+00  1.00800000E+00  1.60000000E+01
  1.00800000E+00  1.00800000E+00  1.60000000E+01  1.00800000E+00  1.00800000E+00
  1.60000000E+01  1.00800000E+00  1.00800000E+00  1.60000000E+01  1.00800000E+00
  1.00800000E+00  1.60000000E+01  1.00800000E+00  1.00800000E+00  1.60000000E+01
  1.00800000E+00  1.00800000E+00  1.60000000E+01  1.00800000E+00  1.00800000E+00
  1.60000000E+01  1.00800000E+00  1.00800000E+00  1.60000000E+01  1.00800000E+00
  1.00800000E+00  1.60000000E+01  1.00800000E+00  1.00800000E+00  1.60000000E+01
  1.00800000E+00  1.00800000E+00  1.60000000E+01  1.00800000E+00  1.00800000E+00
  1.60000000E+01  1.00800000E+00  1.00800000E+00  1.60000000E+01  1.00800000E+00
  1.00800000E+00  1.60000000E+01  1.00800000E+00  1.00800000E+00  1.60000000E+01
  1.00800000E+00  1.00800000E+00  1.60000000E+01  1.00800000E+00  1.00800000E+00
  1.60000000E+01  1.00800000E+00  1.00800000E+00  1.60000000E+01  1.00800000E+00
  1.00800000E+00  1.60000000E+01  1.00800000E+00  1.00800000E+00  1.60000000E+01
  1.00800000E+00  1.00800000E+00  1.60000000E+01  1.00800000E+00  1.00800000E+00
  1.60000000E+01  1.00800000E+00  1.00800000E+00  1.60000000E+01  1.00800000E+00
  1.00800000E+00  1.60000000E+01  1.00800000E+00  1.00800000E+00  1.60000000E+01
  1.00800000E+00  1.00800000E+00  1.60000000E+01  1.00800000E+00  1.00800000E+00
  1.60000000E+01  1.00800000E+00  1.00800000E+00  1.60000000E+01  1.00800000E+00
  1.00800000E+00  1.60000000E+01  1.00800000E+00  1.00800000E+00  1.60000000E+01
  1.00800000E+00  1.00800000E+00  1.60000000E+01  1.00800000E+00  1.00800000E+00
  1.60000000E+01  1.00800000E+00  1.00800000E+00  1.60000000E+01  1.00800000E+00
  1.00800000E+00  1.60000000E+01  1.00800000E+00  1.00800000E+00  1.60000000E+01
  1.00800000E+00  1.00800000E+00  1.60000000E+01  1.00800000E+00  1.00800000E+00
  1.60000000E+01  1.00800000E+00  1.00800000E+00  1.60000000E+01  1.00800000E+00
  1.00800000E+00  1.60000000E+01  1.00800000E+00  1.00800000E+00  1.60000000E+01
  1.00800000E+00  1.00800000E+00  1.60000000E+01  1.00800000E+00  1.00800000E+00
  1.60000000E+01  1.00800000E+00  1.00800000E+00  1.60000000E+01  1.00800000E+00
  1.00800000E+00  1.60000000E+01  1.00800000E+00  1.00800000E+00  1.60000000E+01
  1.00800000E+00  1.00800000E+00  1.60000000E+01  1.00800000E+00  1.00800000E+00
  1.60000000E+01  1.00800000E+00  1.00800000E+00  1.60000000E+01  1.00800000E+00
  1.00800000E+00  1.60000000E+01  1.00800000E+00  1.00800000E+00  1.60000000E+01
  1.00800000E+00  1.00800000E+00  1.60000000E+01  1.00800000E+00  1.00800000E+00
  1.60000000E+01  1.00800000E+00  1.00800000E+00  1.60000000E+01  1.00800000E+00
  1.00800000E+00  1.60000000E+01  1.00800000E+00  1.00800000E+00  1.60000000E+01
  1.00800000E+00  1.00800000E+00  1.60000000E+01  1.00800000E+00  1.00800000E+00
  1.60000000E+01  1.00800000E+00  1.00800000E+00  1.60000000E+01  1.00800000E+00
  1.00800000E+00  1.60000000E+01  1.00800000E+00  1.00800000E+00  1.60000000E+01
  1.00800000E+00  1.00800000E+00  1.60000000E+01  1.00800000E+00  1.00800000E+00
  1.60000000E+01  1.00800000E+00  1.00800000E+00  1.60000000E+01  1.00800000E+00
  1.00800000E+00  1.60000000E+01  1.00800000E+00  1.00800000E+00  1.60000000E+01
  1.00800000E+00  1.00800000E+00  1.60000000E+01  1.00800000E+00  1.00800000E+00
  1.60000000E+01  1.00800000E+00  1.00800000E+00  1.60000000E+01  1.00800000E+00
  1.00800000E+00  1.60000000E+01  1.00800000E+00  1.00800000E+00  1.60000000E+01
  1.00800000E+00  1.00800000E+00  1.60000000E+01  1.00800000E+00  1.00800000E+00
  1.60000000E+01  1.00800000E+00  1.00800000E+00  1.60000000E+01  1.00800000E+00
  1.00800000E+00  1.60000000E+01  1.00800000E+00  1.00800000E+00  1.60000000E+01
  1.00800000E+00  1.00800000E+00  1.60000000E+01  1.00800000E+00  1.00800000E+00
  1.60000000E+01  1.00800000E+00  1.00800000E+00  1.60000000E+01  1.00800000E+00
  1.00800000E+00  1.60000000E+01  1.00800000E+00  1.00800000E+00  1.60000000E+01
  1.00800000E+00  1.00800000E+00  1.60000000E+01  1.00800000E+00  1.00800000E+00
  1.60000000E+01  1.00800000E+00  1.00800000E+00  1.60000000E+01  1.00800000E+00
  1.00800000E+00  1.60000000E+01  1.00800000E+00  1.00800000E+00  1.60000000E+01
  1.00800000E+00  1.00800000E+00  1.60000000E+01  1.00800000E+00  1.00800000E+00
  1.60000000E+01  1.00800000E+00  1.00800000E+00  1.60000000E+01  1.00800000E+00
  1.00800000E+00  1.60000000E+01  1.00800000E+00  1.00800000E+00  1.60000000E+01
  1.00800000E+00  1.00800000E+00  1.60000000E+01  1.00800000E+00  1.00800000E+00
  1.60000000E+01  1.00800000E+00  1.00800000E+00  1.60000000E+01  1.00800000E+00
  1.00800000E+00  1.60000000E+01  1.00800000E+00  1.00800000E+00  1.60000000E+01
  1.00800000E+00  1.00800000E+00  1.60000000E+01  1.00800000E+00  1.00800000E+00
  1.60000000E+01  1.00800000E+00  1.00800000E+00  1.60000000E+01  1.00800000E+00
  1.00800000E+00  1.60000000E+01  1.00800000E+00  1.00800000E+00  1.60000000E+01
  1.00800000E+00  1.00800000E+00  1.60000000E+01  1.00800000E+00  1.00800000E+00
  1.60000000E+01  1.00800000E+00  1.00800000E+00  1.60000000E+01  1.00800000E+00
  1.00800000E+00  1.60000000E+01  1.00800000E+00  1.00800000E+00  1.60000000E+01
  1.00800000E+00  1.00800000E+00  1.60000000E+01  1.00800000E+00  1.00800000E+00
  1.60000000E+01  1.00800000E+00  1.00800000E+00  1.60000000E+01  1.00800000E+00
  1.00800000E+00  1.60000000E+01  1.00800000E+00  1.00800000E+00  1.60000000E+01
  1.00800000E+00  1.00800000E+00  1.60000000E+01  1.00800000E+00  1.00800000E+00
  1.60000000E+01  1.00800000E+00  1.00800000E+00  1.60000000E+01  1.00800000E+00
  1.00800000E+00  1.60000000E+01  1.00800000E+00  1.00800000E+00  1.60000000E+01
  1.00800000E+00  1.00800000E+00  1.60000000E+01  1.00800000E+00  1.00800000E+00
  1.60000000E+01  1.00800000E+00  1.00800000E+00  1.60000000E+01  1.00800000E+00
  1.00800000E+00  1.60000000E+01  1.00800000E+00  1.00800000E+00  1.60000000E+01
  1.00800000E+00  1.00800000E+00  1.60000000E+01  1.00800000E+00  1.00800000E+00
  1.60000000E+01  1.00800000E+00  1.00800000E+00  1.60000000E+01  1.00800000E+00
  1.00800000E+00  1.60000000E+01  1.00800000E+00  1.00800000E+00  1.60000000E+01
  1.00800000E+00  1.00800000E+00  1.60000000E+01  1.00800000E+00  1.00800000E+00
  1.60000000E+01  1.00800000E+00  1.00800000E+00  1.60000000E+01  1.00800000E+00
  1.00800000E+00  1.60000000E+01  1.00800000E+00  1.00800000E+00  1.60000000E+01
  1.00800000E+00  1.00800000E+00  1.60000000E+01  1.00800000E+00  1.00800000E+00
  1.60000000E+01  1.00800000E+00  1.00800000E+00  1.60000000E+01  1.00800000E+00
  1.00800000E+00  1.60000000E+01  1.00800000E+00  1.00800000E+00  1.60000000E+01
  1.00800000E+00  1.00800000E+00  1.60000000E+01  1.00800000E+00  1.00800000E+00
  1.60000000E+01  1.00800000E+00  1.00800000E+00  1.60000000E+01  1.00800000E+00
  1.00800000E+00  1.60000000E+01  1.00800000E+00  1.00800000E+00  1.60000000E+01
  1.00800000E+00  1.00800000E+00  1.60000000E+01  1.00800000E+00  1.00800000E+00
  1.60000000E+01  1.00800000E+00  1.00800000E+00  1.60000000E+01  1.00800000E+00
  1.00800000E+00  1.60000000E+01  1.00800000E+00  1.00800000E+00  1.60000000E+01
  1.00800000E+00  1.00800000E+00  1.60000000E+01  1.00800000E+00  1.00800000E+00
  1.60000000E+01  1.00800000E+00  1.00800000E+00  1.60000000E+01  1.00800000E+00
  1.00800000E+00  1.60000000E+01  1.00800000E+00  1.00800000E+00  1.60000000E+01
  1.00800000E+00  1.00800000E+00  1.60000000E+01  1.00800000E+00  1.00800000E+00
  1.60000000E+01  1.00800000E+00  1.00800000E+00  1.60000000E+01  1.00800000E+00
  1.00800000E+00  1.60000000E+01  1.00800000E+00  1.00800000E+00  1.60000000E+01
  1.00800000E+00  1.00800000E+00  1.60000000E+01  1.00800000E+00  1.00800000E+00
  1.60000000E+01  1.00800000E+00  1.00800000E+00  1.60000000E+01  1.00800000E+00
  1.00800000E+00  1.60000000E+01  1.00800000E+00  1.00800000E+00  1.60000000E+01
  1.00800000E+00  1.00800000E+00  1.60000000E+01  1.00800000E+00  1.00800000E+00
  1.60000000E+01  1.00800000E+00  1.00800000E+00  1.60000000E+01  1.00800000E+00
  1.00800000E+00  1.60000000E+01  1.00800000E+00  1.00800000E+00  1.60000000E+01
  1.00800000E+00  1.00800000E+00  1.60000000E+01  1.00800000E+00  1.00800000E+00
  1.60000000E+01  1.00800000E+00  1.00800000E+00  1.60000000E+01  1.00800000E+00
  1.00800000E+00  1.60000000E+01  1.00800000E+00  1.00800000E+00  1.60000000E+01
  1.00800000E+00  1.00800000E+00  1.60000000E+01  1.00800000E+00  1.00800000E+00
  1.60000000E+01  1.00800000E+00  1.00800000E+00  1.60000000E+01  1.00800000E+00
  1.00800000E+00  1.60000000E+01  1.00800000E+00  1.00800000E+00  1.60000000E+01
  1.00800000E+00  1.00800000E+00  1.60000000E+01  1.00800000E+00  1.00800000E+00
  1.60000000E+01  1.00800000E+00  1.00800000E+00  1.60000000E+01  1.00800000E+00
  1.00800000E+00  1.60000000E+01  1.00800000E+00  1.00800000E+00  1.60000000E+01
  1.00800000E+00  1.00800000E+00  1.60000000E+01  1.00800000E+00  1.00800000E+00
  1.60000000E+01  1.00800000E+00  1.00800000E+00  1.60000000E+01  1.00800000E+00
  1.00800000E+00  1.60000000E+01  1.00800000E+00  1.00800000E+00  1.60000000E+01
  1.00800000E+00  1.00800000E+00  1.60000000E+01  1.00800000E+00  1.00800000E+00
  1.60000000E+01  1.00800000E+00  1.00800000E+00  1.60000000E+01  1.00800000E+00
  1.00800000E+00  1.60000000E+01  1.00800000E+00  1.00800000E+00  1.60000000E+01
  1.00800000E+00  1.00800000E+00  1.60000000E+01  1.00800000E+00  1.00800000E+00
  1.60000000E+01  1.00800000E+00  1.00800000E+00  1.60000000E+01  1.00800000E+00
  1.00800000E+00  1.60000000E+01  1.00800000E+00  1.00800000E+00  1.60000000E+01
  1.00800000E+00  1.00800000E+00  1.60000000E+01  1.00800000E+00  1.00800000E+00
  1.60000000E+01  1.00800000E+00  1.00800000E+00  1.60000000E+01  1.00800000E+00
  1.00800000E+00  1.60000000E+01  1.00800000E+00  1.00800000E+00  1.60000000E+01
  1.00800000E+00  1.00800000E+00  1.60000000E+01  1.00800000E+00  1.00800000E+00
  1.60000000E+01  1.00800000E+00  1.00800000E+00  1.60000000E+01  1.00800000E+00
  1.00800000E+00  1.60000000E+01  1.00800000E+00  1.00800000E+00  1.60000000E+01
  1.00800000E+00  1.00800000E+00  1.60000000E+01  1.00800000E+00  1.00800000E+00
  1.60000000E+01  1.00800000E+00  1.00800000E+00  1.60000000E+01  1.00800000E+00
  1.00800000E+00  1.60000000E+01  1.00800000E+00  1.00800000E+00  1.60000000E+01
  1.00800000E+00  1.00800000E+00  1.60000000E+01  1.00800000E+00  1.00800000E+00
  1.60000000E+01  1.00800000E+00  1.00800000E+00  1.60000000E+01  1.00800000E+00
  1.00800000E+00  1.60000000E+01  1.00800000E+00  1.00800000E+00  1.60000000E+01
  1.00800000E+00  1.00800000E+00  1.60000000E+01  1.00800000E+00  1.00800000E+00
  1.60000000E+01  1.00800000E+00  1.00800000E+00  1.60000000E+01  1.00800000E+00
  1.00800000E+00  1.60000000E+01  1.00800000E+00  1.00800000E+00  1.60000000E+01
  1.00800000E+00  1.00800000E+00  1.60000000E+01  1.00800000E+00  1.00800000E+00
  1.60000000E+01  1.00800000E+00  1.00800000E+00  1.60000000E+01  1.00800000E+00
  1.00800000E+00  1.60000000E+01  1.00800000E+00  1.00800000E+00  1.60000000E+01
  1.00800000E+00  1.00800000E+00  1.60000000E+01  1.00800000E+00  1.00800000E+00
  1.60000000E+01  1.00800000E+00  1.00800000E+00  1.60000000E+01  1.00800000E+00
  1.00800000E+00  1.60000000E+01  1.00800000E+00  1.00800000E+00  1.60000000E+01
  1.00800000E+00  1.00800000E+00  1.60000000E+01  1.00800000E+00  1.00800000E+00
  1.60000000E+01  1.00800000E+00  1.00800000E+00  1.60000000E+01  1.00800000E+00
  1.00800000E+00  1.60000000E+01  1.00800000E+00  1.00800000E+00  1.60000000E+01
  1.00800000E+00  1.00800000E+00  1.60000000E+01  1.00800000E+00  1.00800000E+00
  1.60000000E+01  1.00800000E+00  1.00800000E+00  1.60000000E+01  1.00800000E+00
  1.00800000E+00  1.60000000E+01  1.00800000E+00  1.00800000E+00  1.60000000E+01
  1.00800000E+00  1.00800000E+00  1.60000000E+01  1.00800000E+00  1.00800000E+00
  1.60000000E+01  1.00800000E+00  1.00800000E+00  1.60000000E+01  1.00800000E+00
  1.00800000E+00  1.60000000E+01  1.00800000E+00  1.00800000E+00  1.60000000E+01
  1.00800000E+00  1.00800000E+00  1.60000000E+01  1.00800000E+00  1.00800000E+00
  1.60000000E+01  1.00800000E+00  1.00800000E+00  1.60000000E+01  1.00800000E+00
  1.00800000E+00  1.60000000E+01  1.00800000E+00  1.00800000E+00  1.60000000E+01
  1.00800000E+00  1.00800000E+00  1.60000000E+01  1.00800000E+00  1.00800000E+00
  1.60000000E+01  1.00800000E+00  1.00800000E+00  1.60000000E+01  1.00800000E+00
  1.00800000E+00  1.60000000E+01  1.00800000E+00  1.00800000E+00  1.60000000E+01
  1.00800000E+00  1.00800000E+00  1.60000000E+01  1.00800000E+00  1.00800000E+00
  1.60000000E+01  1.00800000E+00  1.00800000E+00  1.60000000E+01  1.00800000E+00
  1.00800000E+00  1.60000000E+01  1.00800000E+00  1.00800000E+00  1.60000000E+01
  1.00800000E+00  1.00800000E+00  1.60000000E+01  1.00800000E+00  1.00800000E+00
  1.60000000E+01  1.00800000E+00  1.00800000E+00  1.60000000E+01  1.00800000E+00
  1.00800000E+00  1.60000000E+01  1.00800000E+00  1.00800000E+00  1.60000000E+01
  1.00800000E+00  1.00800000E+00  1.60000000E+01  1.00800000E+00  1.00800000E+00
  1.60000000E+01  1.00800000E+00  1.00800000E+00  1.60000000E+01  1.00800000E+00
  1.00800000E+00  1.60000000E+01  1.00800000E+00  1.00800000E+00  1.60000000E+01
  1.00800000E+00  1.00800000E+00  1.60000000E+01  1.00800000E+00  1.00800000E+00
  1.60000000E+01  1.00800000E+00  1.00800000E+00  1.60000000E+01  1.00800000E+00
  1.00800000E+00  1.60000000E+01  1.00800000E+00  1.00800000E+00  1.60000000E+01
  1.00800000E+00  1.00800000E+00  1.60000000E+01  1.00800000E+00  1.00800000E+00
  1.60000000E+01  1.00800000E+00  1.00800000E+00  1.60000000E+01  1.00800000E+00
  1.00800000E+00  1.60000000E+01  1.00800000E+00  1.00800000E+00  1.60000000E+01
  1.00800000E+00  1.00800000E+00  1.60000000E+01  1.00800000E+00  1.00800000E+00
  1.60000000E+01  1.00800000E+00  1.00800000E+00  1.60000000E+01  1.00800000E+00
  1.00800000E+00  1.60000000E+01  1.00800000E+00  1.00800000E+00  1.60000000E+01
  1.00800000E+00  1.00800000E+00  1.60000000E+01  1.00800000E+00  1.00800000E+00
  1.60000000E+01  1.00800000E+00  1.00800000E+00  1.60000000E+01  1.00800000E+00
  1.00800000E+00  1.60000000E+01  1.00800000E+00  1.00800000E+00  1.60000000E+01
  1.00800000E+00  1.00800000E+00  1.60000000E+01  1.00800000E+00  1.00800000E+00
  1.60000000E+01  1.00800000E+00  1.00800000E+00  1.60000000E+01  1.00800000E+00
  1.00800000E+00  1.60000000E+01  1.00800000E+00  1.00800000E+00  1.60000000E+01
  1.00800000E+00  1.00800000E+00  1.60000000E+01  1.00800000E+00  1.00800000E+00
  1.60000000E+01  1.00800000E+00  1.00800000E+00  1.60000000E+01  1.00800000E+00
  1.00800000E+00  1.60000000E+01  1.00800000E+00  1.00800000E+00  1.60000000E+01
  1.00800000E+00  1.00800000E+00  1.60000000E+01  1.00800000E+00  1.00800000E+00
  1.60000000E+01  1.00800000E+00  1.00800000E+00  1.60000000E+01  1.00800000E+00
  1.00800000E+00  1.60000000E+01  1.00800000E+00  1.00800000E+00  1.60000000E+01
  1.00800000E+00  1.00800000E+00  1.60000000E+01  1.00800000E+00  1.00800000E+00
  1.60000000E+01  1.00800000E+00  1.00800000E+00  1.60000000E+01  1.00800000E+00
  1.00800000E+00  1.60000000E+01  1.00800000E+00  1.00800000E+00  1.60000000E+01
  1.00800000E+00  1.00800000E+00  1.60000000E+01  1.00800000E+00  1.00800000E+00
  1.60000000E+01  1.00800000E+00  1.00800000E+00  1.60000000E+01  1.00800000E+00
  1.00800000E+00  1.60000000E+01  1.00800000E+00  1.00800000E+00  1.60000000E+01
  1.00800000E+00  1.00800000E+00  1.60000000E+01  1.00800000E+00  1.00800000E+00
  1.60000000E+01  1.00800000E+00  1.00800000E+00  1.60000000E+01  1.00800000E+00
  1.00800000E+00  1.60000000E+01  1.00800000E+00  1.00800000E+00  1.60000000E+01
  1.00800000E+00  1.00800000E+00  1.60000000E+01  1.00800000E+00  1.00800000E+00
  1.60000000E+01  1.00800000E+00  1.00800000E+00  1.60000000E+01  1.00800000E+00
  1.00800000E+00  1.60000000E+01  1.00800000E+00  1.00800000E+00  1.60000000E+01
  1.00800000E+00  1.00800000E+00  1.60000000E+01  1.00800000E+00  1.00800000E+00
  1.60000000E+01  1.00800000E+00  1.00800000E+00  1.60000000E+01  1.00800000E+00
  1.00800000E+00  1.60000000E+01  1.00800000E+00  1.00800000E+00  1.60000000E+01
  1.00800000E+00  1.00800000E+00  1.60000000E+01  1.00800000E+00  1.00800000E+00
  1.60000000E+01  1.00800000E+00  1.00800000E+00  1.60000000E+01  1.00800000E+00
  1.00800000E+00  1.60000000E+01  1.00800000E+00  1.00800000E+00  1.60000000E+01
  1.00800000E+00  1.00800000E+00  1.60000000E+01  1.00800000E+00  1.00800000E+00
  1.60000000E+01  1.00800000E+00  1.00800000E+00  1.60000000E+01  1.00800000E+00
  1.00800000E+00  1.60000000E+01  1.00800000E+00  1.00800000E+00  1.60000000E+01
  1.00800000E+00  1.00800000E+00  1.60000000E+01  1.00800000E+00  1.00800000E+00
  1.60000000E+01  1.00800000E+00  1.00800000E+00  1.60000000E+01  1.00800000E+00
  1.00800000E+00  1.60000000E+01  1.00800000E+00  1.00800000E+00  1.60000000E+01
  1.00800000E+00  1.00800000E+00  1.60000000E+01  1.00800000E+00  1.00800000E+00
  1.60000000E+01  1.00800000E+00  1.00800000E+00  1.60000000E+01  1.00800000E+00
  1.00800000E+00  1.60000000E+01  1.00800000E+00  1.00800000E+00  1.60000000E+01
  1.00800000E+00  1.00800000E+00  1.60000000E+01  1.00800000E+00  1.00800000E+00
  1.60000000E+01  1.00800000E+00  1.00800000E+00  1.60000000E+01  1.00800000E+00
  1.00800000E+00  1.60000000E+01  1.00800000E+00  1.00800000E+00  1.60000000E+01
  1.00800000E+00  1.00800000E+00  1.60000000E+01  1.00800000E+00  1.00800000E+00
  1.60000000E+01  1.00800000E+00  1.00800000E+00  1.60000000E+01  1.00800000E+00
  1.00800000E+00  1.60000000E+01  1.00800000E+00  1.00800000E+00  1.60000000E+01
  1.00800000E+00  1.00800000E+00  1.60000000E+01  1.00800000E+00  1.00800000E+00
  1.60000000E+01  1.00800000E+00  1.00800000E+00  1.60000000E+01  1.00800000E+00
  1.00800000E+00  1.60000000E+01  1.00800000E+00  1.00800000E+00  1.60000000E+01
  1.00800000E+00  1.00800000E+00  1.60000000E+01  1.00800000E+00  1.00800000E+00
  1.60000000E+01  1.00800000E+00  1.00800000E+00  1.60000000E+01  1.00800000E+00
  1.00800000E+00  1.60000000E+01  1.00800000E+00  1.00800000E+00  1.60000000E+01
  1.00800000E+00  1.00800000E+00  1.60000000E+01  1.00800000E+00  1.00800000E+00
  1.60000000E+01  1.00800000E+00  1.00800000E+00  1.60000000E+01  1.00800000E+00
  1.00800000E+00  1.60000000E+01  1.00800000E+00  1.00800000E+00  1.60000000E+01
  1.00800000E+00  1.00800000E+00  1.60000000E+01  1.00800000E+00  1.00800000E+00
  1.60000000E+01  1.00800000E+00  1.00800000E+00  1.60000000E+01  1.00800000E+00
  1.00800000E+00  1.60000000E+01  1.00800000E+00  1.00800000E+00  1.60000000E+01
  1.00800000E+00  1.00800000E+00  1.60000000E+01  1.00800000E+00  1.00800000E+00
  1.60000000E+01  1.00800000E+00  1.00800000E+00  1.60000000E+01  1.00800000E+00
  1.00800000E+00  1.60000000E+01  1.00800000E+00  1.00800000E+00  1.60000000E+01
  1.00800000E+00  1.00800000E+00  1.60000000E+01  1.00800000E+00  1.00800000E+00
  1.60000000E+01  1.00800000E+00  1.00800000E+00  1.60000000E+01  1.00800000E+00
  1.00800000E+00  1.60000000E+01  1.00800000E+00  1.00800000E+00  1.60000000E+01
  1.00800000E+00  1.00800000E+00  1.60000000E+01  1.00800000E+00  1.00800000E+00
  1.60000000E+01  1.00800000E+00  1.00800000E+00  1.60000000E+01  1.00800000E+00
  1.00800000E+00  1.60000000E+01  1.00800000E+00  1.00800000E+00  1.60000000E+01
  1.00800000E+00  1.00800000E+00  1.60000000E+01  1.00800000E+00  1.00800000E+00
  1.60000000E+01  1.00800000E+00  1.00800000E+00  1.60000000E+01  1.00800000E+00
  1.00800000E+00  1.60000000E+01  1.00800000E+00  1.00800000E+00  1.60000000E+01
  1.00800000E+00  1.00800000E+00  1.60000000E+01  1.00800000E+00  1.00800000E+00
  1.60000000E+01  1.00800000E+00  1.00800000E+00  1.60000000E+01  1.00800000E+00
  1.00800000E+00  1.60000000E+01  1.00800000E+00  1.00800000E+00  1.60000000E+01
  1.00800000E+00  1.00800000E+00  1.60000000E+01  1.00800000E+00  1.00800000E+00
  1.60000000E+01  1.00800000E+00  1.00800000E+00  1.60000000E+01  1.00800000E+00
  1.00800000E+00  1.60000000E+01  1.00800000E+00  1.00800000E+00  1.60000000E+01
  1.00800000E+00  1.00800000E+00  1.60000000E+01  1.00800000E+00  1.00800000E+00
  1.60000000E+01  1.00800000E+00  1.00800000E+00  1.60000000E+01  1.00800000E+00
  1.00800000E+00  1.60000000E+01  1.00800000E+00  1.00800000E+00  1.60000000E+01
  1.00800000E+00  1.00800000E+00  1.60000000E+01  1.00800000E+00  1.00800000E+00
  1.60000000E+01  1.00800000E+00  1.00800000E+00  1.60000000E+01  1.00800000E+00
  1.00800000E+00  1.60000000E+01  1.00800000E+00  1.00800000E+00  1.60000000E+01
  1.00800000E+00  1.00800000E+00  1.60000000E+01  1.00800000E+00  1.00800000E+00
  1.60000000E+01  1.00800000E+00  1.00800000E+00  1.60000000E+01  1.00800000E+00
  1.00800000E+00  1.60000000E+01  1.00800000E+00  1.00800000E+00  1.60000000E+01
  1.00800000E+00  1.00800000E+00  1.60000000E+01  1.00800000E+00  1.00800000E+00
  1.60000000E+01  1.00800000E+00  1.00800000E+00  1.60000000E+01  1.00800000E+00
  1.00800000E+00  1.60000000E+01  1.00800000E+00  1.00800000E+00  1.60000000E+01
  1.00800000E+00  1.00800000E+00  1.60000000E+01  1.00800000E+00  1.00800000E+00
  1.60000000E+01  1.00800000E+00  1.00800000E+00  1.60000000E+01  1.00800000E+00
  1.00800000E+00  1.60000000E+01  1.00800000E+00  1.00800000E+00  1.60000000E+01
  1.00800000E+00  1.00800000E+00  1.60000000E+01  1.00800000E+00  1.00800000E+00
  1.60000000E+01  1.00800000E+00  1.00800000E+00  1.60000000E+01  1.00800000E+00
  1.00800000E+00  1.60000000E+01  1.00800000E+00  1.00800000E+00  1.60000000E+01
  1.00800000E+00  1.00800000E+00  1.60000000E+01  1.00800000E+00  1.00800000E+00
  1.60000000E+01  1.00800000E+00  1.00800000E+00  1.60000000E+01  1.00800000E+00
  1.00800000E+00  1.60000000E+01  1.00800000E+00  1.00800000E+00  1.60000000E+01
  1.00800000E+00  1.00800000E+00  1.60000000E+01  1.00800000E+00  1.00800000E+00
  1.60000000E+01  1.00800000E+00  1.00800000E+00  1.60000000E+01  1.00800000E+00
  1.00800000E+00  1.60000000E+01  1.00800000E+00  1.00800000E+00  1.60000000E+01
  1.00800000E+00  1.00800000E+00  1.60000000E+01  1.00800000E+00  1.00800000E+00
  1.60000000E+01  1.00800000E+00  1.00800000E+00  1.60000000E+01  1.00800000E+00
  1.00800000E+00  1.60000000E+01  1.00800000E+00  1.00800000E+00  1.60000000E+01
  1.00800000E+00  1.00800000E+00  1.60000000E+01  1.00800000E+00  1.00800000E+00
  1.60000000E+01  1.00800000E+00  1.00800000E+00  1.60000000E+01  1.00800000E+00
  1.00800000E+00  1.60000000E+01  1.00800000E+00  1.00800000E+00  1.60000000E+01
  1.00800000E+00  1.00800000E+00  1.60000000E+01  1.00800000E+00  1.00800000E+00
  1.60000000E+01  1.00800000E+00  1.00800000E+00  1.60000000E+01  1.00800000E+00
  1.00800000E+00  1.60000000E+01  1.00800000E+00  1.00800000E+00  1.60000000E+01
  1.00800000E+00  1.00800000E+00  1.60000000E+01  1.00800000E+00  1.00800000E+00
  1.60000000E+01  1.00800000E+00  1.00800000E+00  1.60000000E+01  1.00800000E+00
  1.00800000E+00  1.60000000E+01  1.00800000E+00  1.00800000E+00  1.60000000E+01
  1.00800000E+00  1.00800000E+00  1.60000000E+01  1.00800000E+00  1.00800000E+00
  1.60000000E+01  1.00800000E+00  1.00800000E+00  1.60000000E+01  1.00800000E+00
  1.00800000E+00  1.60000000E+01  1.00800000E+00  1.00800000E+00  1.60000000E+01
  1.00800000E+00  1.00800000E+00  1.60000000E+01  1.00800000E+00  1.00800000E+00
  1.60000000E+01  1.00800000E+00  1.00800000E+00  1.60000000E+01  1.00800000E+00
  1.00800000E+00  1.60000000E+01  1.00800000E+00  1.00800000E+00  1.60000000E+01
  1.00800000E+00  1.00800000E+00  1.60000000E+01  1.00800000E+00  1.00800000E+00
  1.60000000E+01  1.00800000E+00  1.00800000E+00  1.60000000E+01  1.00800000E+00
  1.00800000E+00  1.60000000E+01  1.00800000E+00  1.00800000E+00  1.60000000E+01
  1.00800000E+00  1.00800000E+00  1.60000000E+01  1.00800000E+00  1.00800000E+00
  1.60000000E+01  1.00800000E+00  1.00800000E+00  1.60000000E+01  1.00800000E+00
  1.00800000E+00  1.60000000E+01  1.00800000E+00  1.00800000E+00  1.60000000E+01
  1.00800000E+00  1.00800000E+00  1.60000000E+01  1.00800000E+00  1.00800000E+00
  1.60000000E+01  1.00800000E+00  1.00800000E+00  1.60000000E+01  1.00800000E+00
  1.00800000E+00  1.60000000E+01  1.00800000E+00  1.00800000E+00  1.60000000E+01
  1.00800000E+00  1.00800000E+00  1.60000000E+01  1.00800000E+00  1.00800000E+00
  1.60000000E+01  1.00800000E+00  1.00800000E+00  1.60000000E+01  1.00800000E+00
  1.00800000E+00  1.60000000E+01  1.00800000E+00  1.00800000E+00  1.60000000E+01
  1.00800000E+00  1.00800000E+00  1.60000000E+01  1.00800000E+00  1.00800000E+00
  1.60000000E+01  1.00800000E+00  1.00800000E+00  1.60000000E+01  1.00800000E+00
  1.00800000E+00  1.60000000E+01  1.00800000E+00  1.00800000E+00  1.60000000E+01
  1.00800000E+00  1.00800000E+00  1.60000000E+01  1.00800000E+00  1.00800000E+00
  1.60000000E+01  1.00800000E+00  1.00800000E+00  1.60000000E+01  1.00800000E+00
  1.00800000E+00  1.60000000E+01  1.00800000E+00  1.00800000E+00  1.60000000E+01
  1.00800000E+00  1.00800000E+00  1.60000000E+01  1.00800000E+00  1.00800000E+00
  1.60000000E+01  1.00800000E+00  1.00800000E+00  1.60000000E+01  1.00800000E+00
  1.00800000E+00  1.60000000E+01  1.00800000E+00  1.00800000E+00  1.60000000E+01
  1.00800000E+00  1.00800000E+00  1.60000000E+01  1.00800000E+00  1.00800000E+00
  1.60000000E+01  1.00800000E+00  1.00800000E+00  1.60000000E+01  1.00800000E+00
  1.00800000E+00  1.60000000E+01  1.00800000E+00  1.00800000E+00  1.60000000E+01
  1.00800000E+00  1.00800000E+00  1.60000000E+01  1.00800000E+00  1.00800000E+00
  1.60000000E+01  1.00800000E+00  1.00800000E+00  1.60000000E+01  1.00800000E+00
  1.00800000E+00  1.60000000E+01  1.00800000E+00  1.00800000E+00  1.60000000E+01
  1.00800000E+00  1.00800000E+00  1.60000000E+01  1.00800000E+00  1.00800000E+00
  1.60000000E+01  1.00800000E+00  1.00800000E+00  1.60000000E+01  1.00800000E+00
  1.00800000E+00  1.60000000E+01  1.00800000E+00  1.00800000E+00  1.60000000E+01
  1.00800000E+00  1.00800000E+00  1.60000000E+01  1.00800000E+00  1.00800000E+00
  1.60000000E+01  1.00800000E+00  1.00800000E+00  1.60000000E+01  1.00800000E+00
  1.00800000E+00  1.60000000E+01  1.00800000E+00  1.00800000E+00  1.60000000E+01
  1.00800000E+00  1.00800000E+00  1.60000000E+01  1.00800000E+00  1.00800000E+00
  1.60000000E+01  1.00800000E+00  1.00800000E+00  1.60000000E+01  1.00800000E+00
  1.00800000E+00  1.60000000E+01  1.00800000E+00  1.00800000E+00  1.60000000E+01
  1.00800000E+00  1.00800000E+00  1.60000000E+01  1.00800000E+00  1.00800000E+00
  1.60000000E+01  1.00800000E+00  1.00800000E+00  1.60000000E+01  1.00800000E+00
  1.00800000E+00  1.60000000E+01  1.00800000E+00  1.00800000E+00  1.60000000E+01
  1.00800000E+00  1.00800000E+00  1.60000000E+01  1.00800000E+00  1.00800000E+00
  1.60000000E+01  1.00800000E+00  1.00800000E+00  1.60000000E+01  1.00800000E+00
  1.00800000E+00  1.60000000E+01  1.00800000E+00  1.00800000E+00  1.60000000E+01
  1.00800000E+00  1.00800000E+00  1.60000000E+01  1.00800000E+00  1.00800000E+00
  1.60000000E+01  1.00800000E+00  1.00800000E+00  1.60000000E+01  1.00800000E+00
  1.00800000E+00  1.60000000E+01  1.00800000E+00  1.00800000E+00  1.60000000E+01
  1.00800000E+00  1.00800000E+00  1.60000000E+01  1.00800000E+00  1.00800000E+00
  1.60000000E+01  1.00800000E+00  1.00800000E+00  1.60000000E+01  1.00800000E+00
  1.00800000E+00  1.60000000E+01  1.00800000E+00  1.00800000E+00  1.60000000E+01
  1.00800000E+00  1.00800000E+00  1.60000000E+01  1.00800000E+00  1.00800000E+00
  1.60000000E+01  1.00800000E+00  1.00800000E+00  1.60000000E+01  1.00800000E+00
  1.00800000E+00  1.60000000E+01  1.00800000E+00  1.00800000E+00  1.60000000E+01
  1.00800000E+00  1.00800000E+00  1.60000000E+01  1.00800000E+00  1.00800000E+00
  1.60000000E+01  1.00800000E+00  1.00800000E+00  1.60000000E+01  1.00800000E+00
  1.00800000E+00  1.60000000E+01  1.00800000E+00  1.00800000E+00  1.60000000E+01
  1.00800000E+00  1.00800000E+00  1.60000000E+01  1.00800000E+00  1.00800000E+00
  1.60000000E+01  1.00800000E+00  1.00800000E+00  1.60000000E+01  1.00800000E+00
  1.00800000E+00  1.60000000E+01  1.00800000E+00  1.00800000E+00  1.60000000E+01
  1.00800000E+00  1.00800000E+00  1.60000000E+01  1.00800000E+00  1.00800000E+00
  1.60000000E+01  1.00800000E+00  1.00800000E+00  1.60000000E+01  1.00800000E+00
  1.00800000E+00  1.60000000E+01  1.00800000E+00  1.00800000E+00  1.60000000E+01
  1.00800000E+00  1.00800000E+00  1.60000000E+01  1.00800000E+00  1.00800000E+00
  1.60000000E+01  1.00800000E+00  1.00800000E+00  1.60000000E+01  1.00800000E+00
  1.00800000E+00  1.60000000E+01  1.00800000E+00  1.00800000E+00  1.60000000E+01
  1.00800000E+00  1.00800000E+00  1.60000000E+01  1.00800000E+00  1.00800000E+00
  1.60000000E+01  1.00800000E+00  1.00800000E+00  1.60000000E+01  1.00800000E+00
  1.00800000E+00  1.60000000E+01  1.00800000E+00  1.00800000E+00  1.60000000E+01
  1.00800000E+00  1.00800000E+00  1.60000000E+01  1.00800000E+00  1.00800000E+00
  1.60000000E+01  1.00800000E+00  1.00800000E+00  1.60000000E+01  1.00800000E+00
  1.00800000E+00  1.60000000E+01  1.00800000E+00  1.00800000E+00  1.60000000E+01
  1.00800000E+00  1.00800000E+00  1.60000000E+01  1.00800000E+00  1.00800000E+00
  1.60000000E+01  1.00800000E+00  1.00800000E+00  1.60000000E+01  1.00800000E+00
  1.00800000E+00  1.60000000E+01  1.00800000E+00  1.00800000E+00  1.60000000E+01
  1.00800000E+00  1.00800000E+00  1.60000000E+01  1.00800000E+00  1.00800000E+00
  1.60000000E+01  1.00800000E+00  1.00800000E+00  1.60000000E+01  1.00800000E+00
  1.00800000E+00  1.60000000E+01  1.00800000E+00  1.00800000E+00  1.60000000E+01
  1.00800000E+00  1.00800000E+00  1.60000000E+01  1.00800000E+00  1.00800000E+00
  1.60000000E+01  1.00800000E+00  1.00800000E+00  1.60000000E+01  1.00800000E+00
  1.00800000E+00  1.60000000E+01  1.00800000E+00  1.00800000E+00  1.60000000E+01
  1.00800000E+00  1.00800000E+00  1.60000000E+01  1.00800000E+00  1.00800000E+00
  1.60000000E+01  1.00800000E+00  1.00800000E+00  1.60000000E+01  1.00800000E+00
  1.00800000E+00  1.60000000E+01  1.00800000E+00  1.00800000E+00  1.60000000E+01
  1.00800000E+00  1.00800000E+00  1.60000000E+01  1.00800000E+00  1.00800000E+00
  1.60000000E+01  1.00800000E+00  1.00800000E+00  1.60000000E+01  1.00800000E+00
  1.00800000E+00  1.60000000E+01  1.00800000E+00  1.00800000E+00  1.60000000E+01
  1.00800000E+00  1.00800000E+00  1.60000000E+01  1.00800000E+00  1.00800000E+00
  1.60000000E+01  1.00800000E+00  1.00800000E+00  1.60000000E+01  1.00800000E+00
  1.00800000E+00  1.60000000E+01  1.00800000E+00  1.00800000E+00  1.60000000E+01
  1.00800000E+00  1.00800000E+00  1.60000000E+01  1.00800000E+00  1.00800000E+00
  1.60000000E+01  1.00800000E+00  1.00800000E+00  1.60000000E+01  1.00800000E+00
  1.00800000E+00  1.60000000E+01  1.00800000E+00  1.00800000E+00  1.60000000E+01
  1.00800000E+00  1.00800000E+00  1.60000000E+01  1.00800000E+00  1.00800000E+00
  1.60000000E+01  1.00800000E+00  1.00800000E+00  1.60000000E+01  1.00800000E+00
  1.00800000E+00  1.60000000E+01  1.00800000E+00  1.00800000E+00  1.60000000E+01
  1.00800000E+00  1.00800000E+00  1.60000000E+01  1.00800000E+00  1.00800000E+00
  1.60000000E+01  1.00800000E+00  1.00800000E+00  1.60000000E+01  1.00800000E+00
  1.00800000E+00  1.60000000E+01  1.00800000E+00  1.00800000E+00  1.60000000E+01
  1.00800000E+00  1.00800000E+00  1.60000000E+01  1.00800000E+00  1.00800000E+00
  1.60000000E+01  1.00800000E+00  1.00800000E+00  1.60000000E+01  1.00800000E+00
  1.00800000E+00  1.60000000E+01  1.00800000E+00  1.00800000E+00  1.60000000E+01
  1.00800000E+00  1.00800000E+00  1.60000000E+01  1.00800000E+00  1.00800000E+00
  1.60000000E+01  1.00800000E+00  1.00800000E+00  1.60000000E+01  1.00800000E+00
  1.00800000E+00  1.60000000E+01  1.00800000E+00  1.00800000E+00  1.60000000E+01
  1.00800000E+00  1.00800000E+00  1.60000000E+01  1.00800000E+00  1.00800000E+00
  1.60000000E+01  1.00800000E+00  1.00800000E+00  1.60000000E+01  1.00800000E+00
  1.00800000E+00  1.60000000E+01  1.00800000E+00  1.00800000E+00  1.60000000E+01
  1.00800000E+00  1.00800000E+00  1.60000000E+01  1.00800000E+00  1.00800000E+00
  1.60000000E+01  1.00800000E+00  1.00800000E+00  1.60000000E+01  1.00800000E+00
  1.00800000E+00  1.60000000E+01  1.00800000E+00  1.00800000E+00  1.60000000E+01
  1.00800000E+00  1.00800000E+00  1.60000000E+01  1.00800000E+00  1.00800000E+00
  1.60000000E+01  1.00800000E+00  1.00800000E+00  1.60000000E+01  1.00800000E+00
  1.00800000E+00  1.60000000E+01  1.00800000E+00  1.00800000E+00  1.60000000E+01
  1.00800000E+00  1.00800000E+00  1.60000000E+01  1.00800000E+00  1.00800000E+00
  1.60000000E+01  1.00800000E+00  1.00800000E+00  1.60000000E+01  1.00800000E+00
  1.00800000E+00  1.60000000E+01  1.00800000E+00  1.00800000E+00  1.60000000E+01
  1.00800000E+00  1.00800000E+00  1.60000000E+01  1.00800000E+00  1.00800000E+00
  1.60000000E+01  1.00800000E+00  1.00800000E+00  1.60000000E+01  1.00800000E+00
  1.00800000E+00  1.60000000E+01  1.00800000E+00  1.00800000E+00  1.60000000E+01
  1.00800000E+00  1.00800000E+00  1.60000000E+01  1.00800000E+00  1.00800000E+00
  1.60000000E+01  1.00800000E+00  1.00800000E+00  1.60000000E+01  1.00800000E+00
  1.00800000E+00  1.60000000E+01  1.00800000E+00  1.00800000E+00  1.60000000E+01
  1.00800000E+00  1.00800000E+00  1.60000000E+01  1.00800000E+00  1.00800000E+00
  1.60000000E+01  1.00800000E+00  1.00800000E+00  1.60000000E+01  1.00800000E+00
  1.00800000E+00  1.60000000E+01  1.00800000E+00  1.00800000E+00  1.60000000E+01
  1.00800000E+00  1.00800000E+00  1.60000000E+01  1.00800000E+00  1.00800000E+00
  1.60000000E+01  1.00800000E+00  1.00800000E+00  1.60000000E+01  1.00800000E+00
  1.00800000E+00  1.60000000E+01  1.00800000E+00  1.00800000E+00  1.60000000E+01
  1.00800000E+00  1.00800000E+00  1.60000000E+01  1.00800000E+00  1.00800000E+00
  1.60000000E+01  1.00800000E+00  1.00800000E+00  1.60000000E+01  1.00800000E+00
  1.00800000E+00  1.60000000E+01  1.00800000E+00  1.00800000E+00  1.60000000E+01
  1.00800000E+00  1.00800000E+00  1.60000000E+01  1.00800000E+00  1.00800000E+00
  1.60000000E+01  1.00800000E+00  1.00800000E+00  1.60000000E+01  1.00800000E+00
  1.00800000E+00  1.60000000E+01  1.00800000E+00  1.00800000E+00  1.60000000E+01
  1.00800000E+00  1.00800000E+00  1.60000000E+01  1.00800000E+00  1.00800000E+00
  1.60000000E+01  1.00800000E+00  1.00800000E+00  1.60000000E+01  1.00800000E+00
  1.00800000E+00  1.60000000E+01  1.00800000E+00  1.00800000E+00  1.60000000E+01
  1.00800000E+00  1.00800000E+00  1.60000000E+01  1.00800000E+00  1.00800000E+00
  1.60000000E+01  1.00800000E+00  1.00800000E+00  1.60000000E+01  1.00800000E+00
  1.00800000E+00  1.60000000E+01  1.00800000E+00  1.00800000E+00  1.60000000E+01
  1.00800000E+00  1.00800000E+00  1.60000000E+01  1.00800000E+00  1.00800000E+00
  1.60000000E+01  1.00800000E+00  1.00800000E+00  1.60000000E+01  1.00800000E+00
  1.00800000E+00  1.60000000E+01  1.00800000E+00  1.00800000E+00  1.60000000E+01
  1.00800000E+00  1.00800000E+00  1.60000000E+01  1.00800000E+00  1.00800000E+00
  1.60000000E+01  1.00800000E+00  1.00800000E+00  1.60000000E+01  1.00800000E+00
  1.00800000E+00  1.60000000E+01  1.00800000E+00  1.00800000E+00  1.60000000E+01
  1.00800000E+00  1.00800000E+00  1.60000000E+01  1.00800000E+00  1.00800000E+00
  1.60000000E+01  1.00800000E+00  1.00800000E+00  1.60000000E+01  1.00800000E+00
  1.00800000E+00  1.60000000E+01  1.00800000E+00  1.00800000E+00  1.60000000E+01
  1.00800000E+00  1.00800000E+00  1.60000000E+01  1.00800000E+00  1.00800000E+00
  1.60000000E+01  1.00800000E+00  1.00800000E+00  1.60000000E+01  1.00800000E+00
  1.00800000E+00  1.60000000E+01  1.00800000E+00  1.00800000E+00  1.60000000E+01
  1.00800000E+00  1.00800000E+00  1.60000000E+01  1.00800000E+00  1.00800000E+00
  1.60000000E+01  1.00800000E+00  1.00800000E+00  1.60000000E+01  1.00800000E+00
  1.00800000E+00  1.60000000E+01  1.00800000E+00  1.00800000E+00  1.60000000E+01
  1.00800000E+00  1.00800000E+00  1.60000000E+01  1.00800000E+00  1.00800000E+00
  1.60000000E+01  1.00800000E+00  1.00800000E+00  1.60000000E+01  1.00800000E+00
  1.00800000E+00  1.60000000E+01  1.00800000E+00  1.00800000E+00  1.60000000E+01
  1.00800000E+00  1.00800000E+00  1.60000000E+01  1.00800000E+00  1.00800000E+00
  1.60000000E+01  1.00800000E+00  1.00800000E+00  1.60000000E+01  1.00800000E+00
  1.00800000E+00  1.60000000E+01  1.00800000E+00  1.00800000E+00  1.60000000E+01
  1.00800000E+00  1.00800000E+00  1.60000000E+01  1.00800000E+00  1.00800000E+00
  1.60000000E+01  1.00800000E+00  1.00800000E+00  1.60000000E+01  1.00800000E+00
  1.00800000E+00  1.60000000E+01  1.00800000E+00  1.00800000E+00  1.60000000E+01
  1.00800000E+00  1.00800000E+00  1.60000000E+01  1.00800000E+00  1.00800000E+00
  1.60000000E+01  1.00800000E+00  1.00800000E+00  1.60000000E+01  1.00800000E+00
  1.00800000E+00  1.60000000E+01  1.00800000E+00  1.00800000E+00  1.60000000E+01
  1.00800000E+00  1.00800000E+00  1.60000000E+01  1.00800000E+00  1.00800000E+00
  1.60000000E+01  1.00800000E+00  1.00800000E+00  1.60000000E+01  1.00800000E+00
  1.00800000E+00  1.60000000E+01  1.00800000E+00  1.00800000E+00  1.60000000E+01
  1.00800000E+00  1.00800000E+00  1.60000000E+01  1.00800000E+00  1.00800000E+00
  1.60000000E+01  1.00800000E+00  1.00800000E+00  1.60000000E+01  1.00800000E+00
  1.00800000E+00  1.60000000E+01  1.00800000E+00  1.00800000E+00  1.60000000E+01
  1.00800000E+00  1.00800000E+00  1.60000000E+01  1.00800000E+00  1.00800000E+00
  1.60000000E+01  1.00800000E+00  1.00800000E+00  1.60000000E+01  1.00800000E+00
  1.00800000E+00  1.60000000E+01  1.00800000E+00  1.00800000E+00  1.60000000E+01
  1.00800000E+00  1.00800000E+00  1.60000000E+01  1.00800000E+00  1.00800000E+00
  1.60000000E+01  1.00800000E+00  1.00800000E+00  1.60000000E+01  1.00800000E+00
  1.00800000E+00  1.60000000E+01  1.00800000E+00  1.00800000E+00  1.60000000E+01
  1.00800000E+00  1.00800000E+00  1.60000000E+01  1.00800000E+00  1.00800000E+00
  1.60000000E+01  1.00800000E+00  1.00800000E+00  1.60000000E+01  1.00800000E+00
  1.00800000E+00  1.60000000E+01  1.00800000E+00  1.00800000E+00  1.60000000E+01
  1.00800000E+00  1.00800000E+00  1.60000000E+01  1.00800000E+00  1.00800000E+00
  1.60000000E+01  1.00800000E+00  1.00800000E+00  1.60000000E+01  1.00800000E+00
  1.00800000E+00  1.60000000E+01  1.00800000E+00  1.00800000E+00  1.60000000E+01
  1.00800000E+00  1.00800000E+00  1.60000000E+01  1.00800000E+00  1.00800000E+00
  1.60000000E+01  1.00800000E+00  1.00800000E+00  1.60000000E+01  1.00800000E+00
  1.00800000E+00  1.60000000E+01  1.00800000E+00  1.00800000E+00  1.60000000E+01
  1.00800000E+00  1.00800000E+00  1.60000000E+01  1.00800000E+00  1.00800000E+00
  1.60000000E+01  1.00800000E+00  1.00800000E+00  1.60000000E+01  1.00800000E+00
  1.00800000E+00  1.60000000E+01  1.00800000E+00  1.00800000E+00  1.60000000E+01
  1.00800000E+00  1.00800000E+00  1.60000000E+01  1.00800000E+00  1.00800000E+00
  1.60000000E+01  1.00800000E+00  1.00800000E+00  1.60000000E+01  1.00800000E+00
  1.00800000E+00  1.60000000E+01  1.00800000E+00  1.00800000E+00  1.60000000E+01
  1.00800000E+00  1.00800000E+00  1.60000000E+01  1.00800000E+00  1.00800000E+00
  1.60000000E+01  1.00800000E+00  1.00800000E+00  1.60000000E+01  1.00800000E+00
  1.00800000E+00  1.60000000E+01  1.00800000E+00  1.00800000E+00  1.60000000E+01
  1.00800000E+00  1.00800000E+00  1.60000000E+01  1.00800000E+00  1.00800000E+00
  1.60000000E+01  1.00800000E+00  1.00800000E+00  1.60000000E+01  1.00800000E+00
  1.00800000E+00  1.60000000E+01  1.00800000E+00  1.00800000E+00  1.60000000E+01
  1.00800000E+00  1.00800000E+00  1.60000000E+01  1.00800000E+00  1.00800000E+00
  1.60000000E+01  1.00800000E+00  1.00800000E+00  1.60000000E+01  1.00800000E+00
  1.00800000E+00  1.60000000E+01  1.00800000E+00  1.00800000E+00  1.60000000E+01
  1.00800000E+00  1.00800000E+00  1.60000000E+01  1.00800000E+00  1.00800000E+00
  1.60000000E+01  1.00800000E+00  1.00800000E+00  1.60000000E+01  1.00800000E+00
  1.00800000E+00  1.60000000E+01  1.00800000E+00  1.00800000E+00  1.60000000E+01
  1.00800000E+00  1.00800000E+00  1.60000000E+01  1.00800000E+00  1.00800000E+00
  1.60000000E+01  1.00800000E+00  1.00800000E+00  1.60000000E+01  1.00800000E+00
  1.00800000E+00  1.60000000E+01  1.00800000E+00  1.00800000E+00  1.60000000E+01
  1.00800000E+00  1.00800000E+00  1.60000000E+01  1.00800000E+00  1.00800000E+00
  1.60000000E+01  1.00800000E+00  1.00800000E+00  1.60000000E+01  1.00800000E+00
  1.00800000E+00  1.60000000E+01  1.00800000E+00  1.00800000E+00  1.60000000E+01
  1.00800000E+00  1.00800000E+00  1.60000000E+01  1.00800000E+00  1.00800000E+00
  1.60000000E+01  1.00800000E+00  1.00800000E+00  1.60000000E+01  1.00800000E+00
  1.00800000E+00  1.60000000E+01  1.00800000E+00  1.00800000E+00  1.60000000E+01
  1.00800000E+00  1.00800000E+00  1.60000000E+01  1.00800000E+00  1.00800000E+00
  1.60000000E+01  1.00800000E+00  1.00800000E+00  1.60000000E+01  1.00800000E+00
  1.00800000E+00  1.60000000E+01  1.00800000E+00  1.00800000E+00  1.60000000E+01
  1.00800000E+00  1.00800000E+00  1.60000000E+01  1.00800000E+00  1.00800000E+00
  1.60000000E+01  1.00800000E+00  1.00800000E+00  1.60000000E+01  1.00800000E+00
  1.00800000E+00  1.60000000E+01  1.00800000E+00  1.00800000E+00  1.60000000E+01
  1.00800000E+00  1.00800000E+00  1.60000000E+01  1.00800000E+00  1.00800000E+00
  1.60000000E+01  1.00800000E+00  1.00800000E+00  1.60000000E+01  1.00800000E+00
  1.00800000E+00  1.60000000E+01  1.00800000E+00  1.00800000E+00  1.60000000E+01
  1.00800000E+00  1.00800000E+00  1.60000000E+01  1.00800000E+00  1.00800000E+00
  1.60000000E+01  1.00800000E+00  1.00800000E+00  1.60000000E+01  1.00800000E+00
  1.00800000E+00  1.60000000E+01  1.00800000E+00  1.00800000E+00  1.60000000E+01
  1.00800000E+00  1.00800000E+00  1.60000000E+01  1.00800000E+00  1.00800000E+00
  1.60000000E+01  1.00800000E+00  1.00800000E+00  1.60000000E+01  1.00800000E+00
  1.00800000E+00  1.60000000E+01  1.00800000E+00  1.00800000E+00  1.60000000E+01
  1.00800000E+00  1.00800000E+00  1.60000000E+01  1.00800000E+00  1.00800000E+00
  1.60000000E+01  1.00800000E+00  1.00800000E+00  1.60000000E+01  1.00800000E+00
  1.00800000E+00  1.60000000E+01  1.00800000E+00  1.00800000E+00  1.60000000E+01
  1.00800000E+00  1.00800000E+00  1.60000000E+01  1.00800000E+00  1.00800000E+00
  1.60000000E+01  1.00800000E+00  1.00800000E+00  1.60000000E+01  1.00800000E+00
  1.00800000E+00  1.60000000E+01  1.00800000E+00  1.00800000E+00  1.60000000E+01
  1.00800000E+00  1.00800000E+00  1.60000000E+01  1.00800000E+00  1.00800000E+00
  1.60000000E+01  1.00800000E+00  1.00800000E+00  1.60000000E+01  1.00800000E+00
  1.00800000E+00  1.60000000E+01  1.00800000E+00  1.00800000E+00  1.60000000E+01
  1.00800000E+00  1.00800000E+00  1.60000000E+01  1.00800000E+00  1.00800000E+00
  1.60000000E+01  1.00800000E+00  1.00800000E+00  1.60000000E+01  1.00800000E+00
  1.00800000E+00  1.60000000E+01  1.00800000E+00  1.00800000E+00  1.60000000E+01
  1.00800000E+00  1.00800000E+00  1.60000000E+01  1.00800000E+00  1.00800000E+00
  1.60000000E+01  1.00800000E+00  1.00800000E+00  1.60000000E+01  1.00800000E+00
  1.00800000E+00  1.60000000E+01  1.00800000E+00  1.00800000E+00  1.60000000E+01
  1.00800000E+00  1.00800000E+00  1.60000000E+01  1.00800000E+00  1.00800000E+00
  1.60000000E+01  1.00800000E+00  1.00800000E+00  1.60000000E+01  1.00800000E+00
  1.00800000E+00  1.60000000E+01  1.00800000E+00  1.00800000E+00  1.60000000E+01
  1.00800000E+00  1.00800000E+00  1.60000000E+01  1.00800000E+00  1.00800000E+00
  1.60000000E+01  1.00800000E+00  1.00800000E+00  1.60000000E+01  1.00800000E+00
  1.00800000E+00  1.60000000E+01  1.00800000E+00  1.00800000E+00  1.60000000E+01
  1.00800000E+00  1.00800000E+00  1.60000000E+01  1.00800000E+00  1.00800000E+00
  1.60000000E+01  1.00800000E+00  1.00800000E+00  1.60000000E+01  1.00800000E+00
  1.00800000E+00  1.60000000E+01  1.00800000E+00  1.00800000E+00  1.60000000E+01
  1.00800000E+00  1.00800000E+00  1.60000000E+01  1.00800000E+00  1.00800000E+00
  1.60000000E+01  1.00800000E+00  1.00800000E+00  1.60000000E+01  1.00800000E+00
  1.00800000E+00  1.60000000E+01  1.00800000E+00  1.00800000E+00  1.60000000E+01
  1.00800000E+00  1.00800000E+00  1.60000000E+01  1.00800000E+00  1.00800000E+00
  1.60000000E+01  1.00800000E+00  1.00800000E+00  1.60000000E+01  1.00800000E+00
  1.00800000E+00  1.60000000E+01  1.00800000E+00  1.00800000E+00  1.60000000E+01
  1.00800000E+00  1.00800000E+00  1.60000000E+01  1.00800000E+00  1.00800000E+00
  1.60000000E+01  1.00800000E+00  1.00800000E+00  1.60000000E+01  1.00800000E+00
  1.00800000E+00  1.60000000E+01  1.00800000E+00  1.00800000E+00  1.60000000E+01
  1.00800000E+00  1.00800000E+00  1.60000000E+01  1.00800000E+00  1.00800000E+00
  1.60000000E+01  1.00800000E+00  1.00800000E+00  1.60000000E+01  1.00800000E+00
  1.00800000E+00  1.60000000E+01  1.00800000E+00  1.00800000E+00  1.60000000E+01
  1.00800000E+00  1.00800000E+00  1.60000000E+01  1.00800000E+00  1.00800000E+00
  1.60000000E+01  1.00800000E+00  1.00800000E+00  1.60000000E+01  1.00800000E+00
  1.00800000E+00  1.60000000E+01  1.00800000E+00  1.00800000E+00  1.60000000E+01
  1.00800000E+00  1.00800000E+00  1.60000000E+01  1.00800000E+00  1.00800000E+00
  1.60000000E+01  1.00800000E+00  1.00800000E+00  1.60000000E+01  1.00800000E+00
  1.00800000E+00  1.60000000E+01  1.00800000E+00  1.00800000E+00  1.60000000E+01
  1.00800000E+00  1.00800000E+00  1.60000000E+01  1.00800000E+00  1.00800000E+00
  1.60000000E+01  1.00800000E+00  1.00800000E+00  1.60000000E+01  1.00800000E+00
  1.00800000E+00  1.60000000E+01  1.00800000E+00  1.00800000E+00  1.60000000E+01
  1.00800000E+00  1.00800000E+00  1.60000000E+01  1.00800000E+00  1.00800000E+00
  1.60000000E+01  1.00800000E+00  1.00800000E+00  1.60000000E+01  1.00800000E+00
  1.00800000E+00  1.60000000E+01  1.00800000E+00  1.00800000E+00  1.60000000E+01
  1.00800000E+00  1.00800000E+00  1.60000000E+01  1.00800000E+00  1.00800000E+00
  1.60000000E+01  1.00800000E+00  1.00800000E+00  1.60000000E+01  1.00800000E+00
  1.00800000E+00  1.60000000E+01  1.00800000E+00  1.00800000E+00  1.60000000E+01
  1.00800000E+00  1.00800000E+00  1.60000000E+01  1.00800000E+00  1.00800000E+00
  1.60000000E+01  1.00800000E+00  1.00800000E+00  1.60000000E+01  1.00800000E+00
  1.00800000E+00  1.60000000E+01  1.00800000E+00  1.00800000E+00  1.60000000E+01
  1.00800000E+00  1.00800000E+00  1.60000000E+01  1.00800000E+00  1.00800000E+00
  1.60000000E+01  1.00800000E+00  1.00800000E+00  1.60000000E+01  1.00800000E+00
  1.00800000E+00  1.60000000E+01  1.00800000E+00  1.00800000E+00  1.60000000E+01
  1.00800000E+00  1.00800000E+00  1.60000000E+01  1.00800000E+00  1.00800000E+00
  1.60000000E+01  1.00800000E+00  1.00800000E+00  1.60000000E+01  1.00800000E+00
  1.00800000E+00  1.60000000E+01  1.00800000E+00  1.00800000E+00  1.60000000E+01
  1.00800000E+00  1.00800000E+00  1.60000000E+01  1.00800000E+00  1.00800000E+00
  1.60000000E+01  1.00800000E+00  1.00800000E+00  1.60000000E+01  1.00800000E+00
  1.00800000E+00  1.60000000E+01  1.00800000E+00  1.00800000E+00  1.60000000E+01
  1.00800000E+00  1.00800000E+00  1.60000000E+01  1.00800000E+00  1.00800000E+00
  1.60000000E+01  1.00800000E+00  1.00800000E+00  1.60000000E+01  1.00800000E+00
  1.00800000E+00  1.60000000E+01  1.00800000E+00  1.00800000E+00  1.60000000E+01
  1.00800000E+00  1.00800000E+00  1.60000000E+01  1.00800000E+00  1.00800000E+00
  1.60000000E+01  1.00800000E+00  1.00800000E+00  1.60000000E+01  1.00800000E+00
  1.00800000E+00  1.60000000E+01  1.00800000E+00  1.00800000E+00  1.60000000E+01
  1.00800000E+00  1.00800000E+00  1.60000000E+01  1.00800000E+00  1.00800000E+00
  1.60000000E+01  1.00800000E+00  1.00800000E+00  1.60000000E+01  1.00800000E+00
  1.00800000E+00  1.60000000E+01  1.00800000E+00  1.00800000E+00  1.60000000E+01
  1.00800000E+00  1.00800000E+00  1.60000000E+01  1.00800000E+00  1.00800000E+00
  1.60000000E+01  1.00800000E+00  1.00800000E+00  1.60000000E+01  1.00800000E+00
  1.00800000E+00  1.60000000E+01  1.00800000E+00  1.00800000E+00  1.60000000E+01
  1.00800000E+00  1.00800000E+00  1.60000000E+01  1.00800000E+00  1.00800000E+00
  1.60000000E+01  1.00800000E+00  1.00800000E+00  1.60000000E+01  1.00800000E+00
  1.00800000E+00  1.60000000E+01  1.00800000E+00  1.00800000E+00  1.60000000E+01
  1.00800000E+00  1.00800000E+00  1.60000000E+01  1.00800000E+00  1.00800000E+00
  1.60000000E+01  1.00800000E+00  1.00800000E+00  1.60000000E+01  1.00800000E+00
  1.00800000E+00  1.60000000E+01  1.00800000E+00  1.00800000E+00  1.60000000E+01
  1.00800000E+00  1.00800000E+00  1.60000000E+01  1.00800000E+00  1.00800000E+00
  1.60000000E+01  1.00800000E+00  1.00800000E+00  1.60000000E+01  1.00800000E+00
  1.00800000E+00  1.60000000E+01  1.00800000E+00  1.00800000E+00  1.60000000E+01
  1.00800000E+00  1.00800000E+00  1.60000000E+01  1.00800000E+00  1.00800000E+00
  1.60000000E+01  1.00800000E+00  1.00800000E+00  1.60000000E+01  1.00800000E+00
  1.00800000E+00  1.60000000E+01  1.00800000E+00  1.00800000E+00  1.60000000E+01
  1.00800000E+00  1.00800000E+00  1.60000000E+01  1.00800000E+00  1.00800000E+00
  1.60000000E+01  1.00800000E+00  1.00800000E+00  1.60000000E+01  1.00800000E+00
  1.00800000E+00  1.60000000E+01  1.00800000E+00  1.00800000E+00  1.60000000E+01
  1.00800000E+00  1.00800000E+00  1.60000000E+01  1.00800000E+00  1.00800000E+00
  1.60000000E+01  1.00800000E+00  1.00800000E+00  1.60000000E+01  1.00800000E+00
  1.00800000E+00  1.60000000E+01  1.00800000E+00  1.00800000E+00  1.60000000E+01
  1.00800000E+00  1.00800000E+00  1.60000000E+01  1.00800000E+00  1.00800000E+00
  1.60000000E+01  1.00800000E+00  1.00800000E+00  1.60000000E+01  1.00800000E+00
  1.00800000E+00  1.60000000E+01  1.00800000E+00  1.00800000E+00  1.60000000E+01
  1.00800000E+00  1.00800000E+00  1.60000000E+01  1.00800000E+00  1.00800000E+00
  1.60000000E+01  1.00800000E+00  1.00800000E+00  1.60000000E+01  1.00800000E+00
  1.00800000E+00  1.60000000E+01  1.00800000E+00  1.00800000E+00  1.60000000E+01
  1.00800000E+00  1.00800000E+00  1.60000000E+01  1.00800000E+00  1.00800000E+00
  1.60000000E+01  1.00800000E+00  1.00800000E+00  1.60000000E+01  1.00800000E+00
  1.00800000E+00  1.60000000E+01  1.00800000E+00  1.00800000E+00  1.60000000E+01
  1.00800000E+00  1.00800000E+00  1.60000000E+01  1.00800000E+00  1.00800000E+00
  1.60000000E+01  1.00800000E+00  1.00800000E+00  1.60000000E+01  1.00800000E+00
  1.00800000E+00  1.60000000E+01  1.00800000E+00  1.00800000E+00  1.60000000E+01
  1.00800000E+00  1.00800000E+00  1.60000000E+01  1.00800000E+00  1.00800000E+00
  1.60000000E+01  1.00800000E+00  1.00800000E+00  1.60000000E+01  1.00800000E+00
  1.00800000E+00  1.60000000E+01  1.00800000E+00  1.00800000E+00  1.60000000E+01
  1.00800000E+00  1.00800000E+00  1.60000000E+01  1.00800000E+00  1.00800000E+00
  1.60000000E+01  1.00800000E+00  1.00800000E+00  1.60000000E+01  1.00800000E+00
  1.00800000E+00  1.60000000E+01  1.00800000E+00  1.00800000E+00  1.60000000E+01
  1.00800000E+00  1.00800000E+00  1.60000000E+01  1.00800000E+00  1.00800000E+00
  1.60000000E+01  1.00800000E+00  1.00800000E+00  1.60000000E+01  1.00800000E+00
  1.00800000E+00  1.60000000E+01  1.00800000E+00  1.00800000E+00  1.60000000E+01
  1.00800000E+00  1.00800000E+00  1.60000000E+01  1.00800000E+00  1.00800000E+00
  1.60000000E+01  1.00800000E+00  1.00800000E+00  1.60000000E+01  1.00800000E+00
  1.00800000E+00  1.60000000E+01  1.00800000E+00  1.00800000E+00  1.60000000E+01
  1.00800000E+00  1.00800000E+00  1.60000000E+01  1.00800000E+00  1.00800000E+00
  1.60000000E+01  1.00800000E+00  1.00800000E+00  1.60000000E+01  1.00800000E+00
  1.00800000E+00  1.60000000E+01  1.00800000E+00  1.00800000E+00  1.60000000E+01
  1.00800000E+00  1.00800000E+00  1.60000000E+01  1.00800000E+00  1.00800000E+00
  1.60000000E+01  1.00800000E+00  1.00800000E+00  1.60000000E+01  1.00800000E+00
  1.00800000E+00  1.60000000E+01  1.00800000E+00  1.00800000E+00  1.60000000E+01
  1.00800000E+00  1.00800000E+00  1.60000000E+01  1.00800000E+00  1.00800000E+00
  1.60000000E+01  1.00800000E+00  1.00800000E+00  1.60000000E+01  1.00800000E+00
  1.00800000E+00  1.60000000E+01  1.00800000E+00  1.00800000E+00  1.60000000E+01
  1.00800000E+00  1.00800000E+00  1.60000000E+01  1.00800000E+00  1.00800000E+00
  1.60000000E+01  1.00800000E+00  1.00800000E+00  1.60000000E+01  1.00800000E+00
  1.00800000E+00  1.60000000E+01  1.00800000E+00  1.00800000E+00  1.60000000E+01
  1.00800000E+00  1.00800000E+00  1.60000000E+01  1.00800000E+00  1.00800000E+00
  1.60000000E+01  1.00800000E+00  1.00800000E+00  1.60000000E+01  1.00800000E+00
  1.00800000E+00  1.60000000E+01  1.00800000E+00  1.00800000E+00  1.60000000E+01
  1.00800000E+00  1.00800000E+00  1.60000000E+01  1.00800000E+00  1.00800000E+00
  1.60000000E+01  1.00800000E+00  1.00800000E+00  1.60000000E+01  1.00800000E+00
  1.00800000E+00  1.60000000E+01  1.00800000E+00  1.00800000E+00  1.60000000E+01
  1.00800000E+00  1.00800000E+00  1.60000000E+01  1.00800000E+00  1.00800000E+00
  1.60000000E+01  1.00800000E+00  1.00800000E+00  1.60000000E+01  1.00800000E+00
  1.00800000E+00  1.60000000E+01  1.00800000E+00  1.00800000E+00  1.60000000E+01
  1.00800000E+00  1.00800000E+00  1.60000000E+01  1.00800000E+00  1.00800000E+00
  1.60000000E+01  1.00800000E+00  1.00800000E+00  1.60000000E+01  1.00800000E+00
  1.00800000E+00  1.60000000E+01  1.00800000E+00  1.00800000E+00  1.60000000E+01
  1.00800000E+00  1.00800000E+00  1.60000000E+01  1.00800000E+00  1.00800000E+00
  1.60000000E+01  1.00800000E+00  1.00800000E+00  1.60000000E+01  1.00800000E+00
  1.00800000E+00  1.60000000E+01  1.00800000E+00  1.00800000E+00  1.60000000E+01
  1.00800000E+00  1.00800000E+00  1.60000000E+01  1.00800000E+00  1.00800000E+00
  1.60000000E+01  1.00800000E+00  1.00800000E+00  1.60000000E+01  1.00800000E+00
  1.00800000E+00  1.60000000E+01  1.00800000E+00  1.00800000E+00  1.60000000E+01
  1.00800000E+00  1.00800000E+00  1.60000000E+01  1.00800000E+00  1.00800000E+00
  1.60000000E+01  1.00800000E+00  1.00800000E+00  1.60000000E+01  1.00800000E+00
  1.00800000E+00  1.60000000E+01  1.00800000E+00  1.00800000E+00  1.60000000E+01
  1.00800000E+00  1.00800000E+00  1.60000000E+01  1.00800000E+00  1.00800000E+00
  1.60000000E+01  1.00800000E+00  1.00800000E+00  1.60000000E+01  1.00800000E+00
  1.00800000E+00  1.60000000E+01  1.00800000E+00  1.00800000E+00  1.60000000E+01
  1.00800000E+00  1.00800000E+00  1.60000000E+01  1.00800000E+00  1.00800000E+00
  1.60000000E+01  1.00800000E+00  1.00800000E+00  1.60000000E+01  1.00800000E+00
  1.00800000E+00  1.60000000E+01  1.00800000E+00  1.00800000E+00  1.60000000E+01
  1.00800000E+00  1.00800000E+00  1.60000000E+01  1.00800000E+00  1.00800000E+00
  1.60000000E+01  1.00800000E+00  1.00800000E+00  1.60000000E+01  1.00800000E+00
  1.00800000E+00  1.60000000E+01  1.00800000E+00  1.00800000E+00  1.60000000E+01
  1.00800000E+00  1.00800000E+00  1.60000000E+01  1.00800000E+00  1.00800000E+00
  1.60000000E+01  1.00800000E+00  1.00800000E+00  1.60000000E+01  1.00800000E+00
  1.00800000E+00  1.60000000E+01  1.00800000E+00  1.00800000E+00  1.60000000E+01
  1.00800000E+00  1.00800000E+00  1.60000000E+01  1.00800000E+00  1.00800000E+00
  1.60000000E+01  1.00800000E+00  1.00800000E+00  1.60000000E+01  1.00800000E+00
  1.00800000E+00  1.60000000E+01  1.00800000E+00  1.00800000E+00  1.60000000E+01
  1.00800000E+00  1.00800000E+00  1.60000000E+01  1.00800000E+00  1.00800000E+00
  1.60000000E+01  1.00800000E+00  1.00800000E+00  1.60000000E+01  1.00800000E+00
  1.00800000E+00  1.60000000E+01  1.00800000E+00  1.00800000E+00  1.60000000E+01
  1.00800000E+00  1.00800000E+00  1.60000000E+01  1.00800000E+00  1.00800000E+00
  1.60000000E+01  1.00800000E+00  1.00800000E+00  1.60000000E+01  1.00800000E+00
  1.00800000E+00  1.60000000E+01  1.00800000E+00  1.00800000E+00  1.60000000E+01
  1.00800000E+00  1.00800000E+00  1.60000000E+01  1.00800000E+00  1.00800000E+00
  1.60000000E+01  1.00800000E+00  1.00800000E+00  1.60000000E+01  1.00800000E+00
  1.00800000E+00  1.60000000E+01  1.00800000E+00  1.00800000E+00  1.60000000E+01
  1.00800000E+00  1.00800000E+00  1.60000000E+01  1.00800000E+00  1.00800000E+00
  1.60000000E+01  1.00800000E+00  1.00800000E+00  1.60000000E+01  1.00800000E+00
  1.00800000E+00  1.60000000E+01  1.00800000E+00  1.00800000E+00  1.60000000E+01
  1.00800000E+00  1.00800000E+00  1.60000000E+01  1.00800000E+00  1.00800000E+00
  1.60000000E+01  1.00800000E+00  1.00800000E+00  1.60000000E+01  1.00800000E+00
  1.00800000E+00  1.60000000E+01  1.00800000E+00  1.00800000E+00  1.60000000E+01
  1.00800000E+00  1.00800000E+00  1.60000000E+01  1.00800000E+00  1.00800000E+00
  1.60000000E+01  1.00800000E+00  1.00800000E+00  1.60000000E+01  1.00800000E+00
  1.00800000E+00  1.60000000E+01  1.00800000E+00  1.00800000E+00  1.60000000E+01
  1.00800000E+00  1.00800000E+00  1.60000000E+01  1.00800000E+00  1.00800000E+00
  1.60000000E+01  1.00800000E+00  1.00800000E+00  1.60000000E+01  1.00800000E+00
  1.00800000E+00  1.60000000E+01  1.00800000E+00  1.00800000E+00  1.60000000E+01
  1.00800000E+00  1.00800000E+00  1.60000000E+01  1.00800000E+00  1.00800000E+00
  1.60000000E+01  1.00800000E+00  1.00800000E+00  1.60000000E+01  1.00800000E+00
  1.00800000E+00  1.60000000E+01  1.00800000E+00  1.00800000E+00  1.60000000E+01
  1.00800000E+00  1.00800000E+00  1.60000000E+01  1.00800000E+00  1.00800000E+00
  1.60000000E+01  1.00800000E+00  1.00800000E+00  1.60000000E+01  1.00800000E+00
  1.00800000E+00  1.60000000E+01  1.00800000E+00  1.00800000E+00  1.60000000E+01
  1.00800000E+00  1.00800000E+00  1.60000000E+01  1.00800000E+00  1.00800000E+00
  1.60000000E+01  1.00800000E+00  1.00800000E+00  1.60000000E+01  1.00800000E+00
  1.00800000E+00  1.60000000E+01  1.00800000E+00  1.00800000E+00  1.60000000E+01
  1.00800000E+00  1.00800000E+00  1.60000000E+01  1.00800000E+00  1.00800000E+00
  1.60000000E+01  1.00800000E+00  1.00800000E+00  1.60000000E+01  1.00800000E+00
  1.00800000E+00  1.60000000E+01  1.00800000E+00  1.00800000E+00  1.60000000E+01
  1.00800000E+00  1.00800000E+00  1.60000000E+01  1.00800000E+00  1.00800000E+00
  1.60000000E+01  1.00800000E+00  1.00800000E+00  1.60000000E+01  1.00800000E+00
  1.00800000E+00  1.60000000E+01  1.00800000E+00  1.00800000E+00  1.60000000E+01
  1.00800000E+00  1.00800000E+00  1.60000000E+01  1.00800000E+00  1.00800000E+00
  1.60000000E+01  1.00800000E+00  1.00800000E+00  1.60000000E+01  1.00800000E+00
  1.00800000E+00  1.60000000E+01  1.00800000E+00  1.00800000E+00  1.60000000E+01
  1.00800000E+00  1.00800000E+00  1.60000000E+01  1.00800000E+00  1.00800000E+00
  1.60000000E+01  1.00800000E+00  1.00800000E+00  1.60000000E+01  1.00800000E+00
  1.00800000E+00  1.60000000E+01  1.00800000E+00  1.00800000E+00  1.60000000E+01
  1.00800000E+00  1.00800000E+00  1.60000000E+01  1.00800000E+00  1.00800000E+00
  1.60000000E+01  1.00800000E+00  1.00800000E+00  1.60000000E+01  1.00800000E+00
  1.00800000E+00  1.60000000E+01  1.00800000E+00  1.00800000E+00  1.60000000E+01
  1.00800000E+00  1.00800000E+00  1.60000000E+01  1.00800000E+00  1.00800000E+00
  1.60000000E+01  1.00800000E+00  1.00800000E+00  1.60000000E+01  1.00800000E+00
  1.00800000E+00  1.60000000E+01  1.00800000E+00  1.00800000E+00  1.60000000E+01
  1.00800000E+00  1.00800000E+00  1.60000000E+01  1.00800000E+00  1.00800000E+00
  1.60000000E+01  1.00800000E+00  1.00800000E+00  1.60000000E+01  1.00800000E+00
  1.00800000E+00  1.60000000E+01  1.00800000E+00  1.00800000E+00  1.60000000E+01
  1.00800000E+00  1.00800000E+00  1.60000000E+01  1.00800000E+00  1.00800000E+00
  1.60000000E+01  1.00800000E+00  1.00800000E+00  1.60000000E+01  1.00800000E+00
  1.00800000E+00  1.60000000E+01  1.00800000E+00  1.00800000E+00  1.60000000E+01
  1.00800000E+00  1.00800000E+00  1.60000000E+01  1.00800000E+00  1.00800000E+00
  1.60000000E+01  1.00800000E+00  1.00800000E+00  1.60000000E+01  1.00800000E+00
  1.00800000E+00  1.60000000E+01  1.00800000E+00  1.00800000E+00  1.60000000E+01
  1.00800000E+00  1.00800000E+00  1.60000000E+01  1.00800000E+00  1.00800000E+00
  1.60000000E+01  1.00800000E+00  1.00800000E+00  1.60000000E+01  1.00800000E+00
  1.00800000E+00  1.60000000E+01  1.00800000E+00  1.00800000E+00  1.60000000E+01
  1.00800000E+00  1.00800000E+00  1.60000000E+01  1.00800000E+00  1.00800000E+00
  1.60000000E+01  1.00800000E+00  1.00800000E+00  1.60000000E+01  1.00800000E+00
  1.00800000E+00  1.60000000E+01  1.00800000E+00  1.00800000E+00  1.60000000E+01
  1.00800000E+00  1.00800000E+00  1.60000000E+01  1.00800000E+00  1.00800000E+00
  1.60000000E+01  1.00800000E+00  1.00800000E+00  1.60000000E+01  1.00800000E+00
  1.00800000E+00  1.60000000E+01  1.00800000E+00  1.00800000E+00  1.60000000E+01
  1.00800000E+00  1.00800000E+00  1.60000000E+01  1.00800000E+00  1.00800000E+00
  1.60000000E+01  1.00800000E+00  1.00800000E+00  1.60000000E+01  1.00800000E+00
  1.00800000E+00  1.60000000E+01  1.00800000E+00  1.00800000E+00  1.60000000E+01
  1.00800000E+00  1.00800000E+00  1.60000000E+01  1.00800000E+00  1.00800000E+00
  1.60000000E+01  1.00800000E+00  1.00800000E+00  1.60000000E+01  1.00800000E+00
  1.00800000E+00  1.60000000E+01  1.00800000E+00  1.00800000E+00  1.60000000E+01
  1.00800000E+00  1.00800000E+00  1.60000000E+01  1.00800000E+00  1.00800000E+00
  1.60000000E+01  1.00800000E+00  1.00800000E+00  1.60000000E+01  1.00800000E+00
  1.00800000E+00  1.60000000E+01  1.00800000E+00  1.00800000E+00  1.60000000E+01
  1.00800000E+00  1.00800000E+00  1.60000000E+01  1.00800000E+00  1.00800000E+00
  1.60000000E+01  1.00800000E+00  1.00800000E+00  1.60000000E+01  1.00800000E+00
  1.00800000E+00  1.60000000E+01  1.00800000E+00  1.00800000E+00  1.60000000E+01
  1.00800000E+00  1.00800000E+00  1.60000000E+01  1.00800000E+00  1.00800000E+00
  1.60000000E+01  1.00800000E+00  1.00800000E+00  1.60000000E+01  1.00800000E+00
  1.00800000E+00  1.60000000E+01  1.00800000E+00  1.00800000E+00  1.60000000E+01
  1.00800000E+00  1.00800000E+00  1.60000000E+01  1.00800000E+00  1.00800000E+00
  1.60000000E+01  1.00800000E+00  1.00800000E+00  1.60000000E+01  1.00800000E+00
  1.00800000E+00  1.60000000E+01  1.00800000E+00  1.00800000E+00  1.60000000E+01
  1.00800000E+00  1.00800000E+00  1.60000000E+01  1.00800000E+00  1.00800000E+00
  1.60000000E+01  1.00800000E+00  1.00800000E+00  1.60000000E+01  1.00800000E+00
  1.00800000E+00  1.60000000E+01  1.00800000E+00  1.00800000E+00  1.60000000E+01
  1.00800000E+00  1.00800000E+00  1.60000000E+01  1.00800000E+00  1.00800000E+00
  1.60000000E+01  1.00800000E+00  1.00800000E+00  1.60000000E+01  1.00800000E+00
  1.00800000E+00  1.60000000E+01  1.00800000E+00  1.00800000E+00  1.60000000E+01
  1.00800000E+00  1.00800000E+00  1.60000000E+01  1.00800000E+00  1.00800000E+00
  1.60000000E+01  1.00800000E+00  1.00800000E+00  1.60000000E+01  1.00800000E+00
  1.00800000E+00  1.60000000E+01  1.00800000E+00  1.00800000E+00  1.60000000E+01
  1.00800000E+00  1.00800000E+00  1.60000000E+01  1.00800000E+00  1.00800000E+00
  1.60000000E+01  1.00800000E+00  1.00800000E+00  1.60000000E+01  1.00800000E+00
  1.00800000E+00  1.60000000E+01  1.00800000E+00  1.00800000E+00  1.60000000E+01
  1.00800000E+00  1.00800000E+00  1.60000000E+01  1.00800000E+00  1.00800000E+00
  1.60000000E+01  1.00800000E+00  1.00800000E+00  1.60000000E+01  1.00800000E+00
  1.00800000E+00  1.60000000E+01  1.00800000E+00  1.00800000E+00  1.60000000E+01
  1.00800000E+00  1.00800000E+00  1.60000000E+01  1.00800000E+00  1.00800000E+00
  1.60000000E+01  1.00800000E+00  1.00800000E+00  1.60000000E+01  1.00800000E+00
  1.00800000E+00  1.60000000E+01  1.00800000E+00  1.00800000E+00  1.60000000E+01
  1.00800000E+00  1.00800000E+00  1.60000000E+01  1.00800000E+00  1.00800000E+00
  1.60000000E+01  1.00800000E+00  1.00800000E+00  1.60000000E+01  1.00800000E+00
  1.00800000E+00  1.60000000E+01  1.00800000E+00  1.00800000E+00  1.60000000E+01
  1.00800000E+00  1.00800000E+00  1.60000000E+01  1.00800000E+00  1.00800000E+00
  1.60000000E+01  1.00800000E+00  1.00800000E+00  1.60000000E+01  1.00800000E+00
  1.00800000E+00  1.60000000E+01  1.00800000E+00  1.00800000E+00  1.60000000E+01
  1.00800000E+00  1.00800000E+00  1.60000000E+01  1.00800000E+00  1.00800000E+00
  1.60000000E+01  1.00800000E+00  1.00800000E+00  1.60000000E+01  1.00800000E+00
  1.00800000E+00  1.60000000E+01  1.00800000E+00  1.00800000E+00  1.60000000E+01
  1.00800000E+00  1.00800000E+00  1.60000000E+01  1.00800000E+00  1.00800000E+00
  1.60000000E+01  1.00800000E+00  1.00800000E+00  1.60000000E+01  1.00800000E+00
  1.00800000E+00  1.60000000E+01  1.00800000E+00  1.00800000E+00  1.60000000E+01
  1.00800000E+00  1.00800000E+00  1.60000000E+01  1.00800000E+00  1.00800000E+00
  1.60000000E+01  1.00800000E+00  1.00800000E+00  1.60000000E+01  1.00800000E+00
  1.00800000E+00  1.60000000E+01  1.00800000E+00  1.00800000E+00  1.60000000E+01
  1.00800000E+00  1.00800000E+00  1.60000000E+01  1.00800000E+00  1.00800000E+00
  1.60000000E+01  1.00800000E+00  1.00800000E+00  1.60000000E+01  1.00800000E+00
  1.00800000E+00  1.60000000E+01  1.00800000E+00  1.00800000E+00  1.60000000E+01
  1.00800000E+00  1.00800000E+00  1.60000000E+01  1.00800000E+00  1.00800000E+00
  1.60000000E+01  1.00800000E+00  1.00800000E+00  1.60000000E+01  1.00800000E+00
  1.00800000E+00  1.60000000E+01  1.00800000E+00  1.00800000E+00  1.60000000E+01
  1.00800000E+00  1.00800000E+00  1.60000000E+01  1.00800000E+00  1.00800000E+00
  1.60000000E+01  1.00800000E+00  1.00800000E+00  1.60000000E+01  1.00800000E+00
  1.00800000E+00  1.60000000E+01  1.00800000E+00  1.00800000E+00  1.60000000E+01
  1.00800000E+00  1.00800000E+00  1.60000000E+01  1.00800000E+00  1.00800000E+00
  1.60000000E+01  1.00800000E+00  1.00800000E+00  1.60000000E+01  1.00800000E+00
  1.00800000E+00  1.60000000E+01  1.00800000E+00  1.00800000E+00  1.60000000E+01
  1.00800000E+00  1.00800000E+00  1.60000000E+01  1.00800000E+00  1.00800000E+00
  1.60000000E+01  1.00800000E+00  1.00800000E+00  1.60000000E+01  1.00800000E+00
  1.00800000E+00  1.60000000E+01  1.00800000E+00  1.00800000E+00  1.60000000E+01
  1.00800000E+00  1.00800000E+00  1.60000000E+01  1.00800000E+00  1.00800000E+00
  1.60000000E+01  1.00800000E+00  1.00800000E+00  1.60000000E+01  1.00800000E+00
  1.00800000E+00  1.60000000E+01  1.00800000E+00  1.00800000E+00  1.60000000E+01
  1.00800000E+00  1.00800000E+00  1.60000000E+01  1.00800000E+00  1.00800000E+00
  1.60000000E+01  1.00800000E+00  1.00800000E+00  1.60000000E+01  1.00800000E+00
  1.00800000E+00  1.60000000E+01  1.00800000E+00  1.00800000E+00  1.60000000E+01
  1.00800000E+00  1.00800000E+00  1.60000000E+01  1.00800000E+00  1.00800000E+00
  1.60000000E+01  1.00800000E+00  1.00800000E+00  1.60000000E+01  1.00800000E+00
  1.00800000E+00  1.60000000E+01  1.00800000E+00  1.00800000E+00  1.60000000E+01
  1.00800000E+00  1.00800000E+00  1.60000000E+01  1.00800000E+00  1.00800000E+00
  1.60000000E+01  1.00800000E+00  1.00800000E+00  1.60000000E+01  1.00800000E+00
  1.00800000E+00  1.60000000E+01  1.00800000E+00  1.00800000E+00  1.60000000E+01
  1.00800000E+00  1.00800000E+00  1.60000000E+01  1.00800000E+00  1.00800000E+00
  1.60000000E+01  1.00800000E+00  1.00800000E+00  1.60000000E+01  1.00800000E+00
  1.00800000E+00  1.60000000E+01  1.00800000E+00  1.00800000E+00  1.60000000E+01
  1.00800000E+00  1.00800000E+00  1.60000000E+01  1.00800000E+00  1.00800000E+00
  1.60000000E+01  1.00800000E+00  1.00800000E+00  1.60000000E+01  1.00800000E+00
  1.00800000E+00  1.60000000E+01  1.00800000E+00  1.00800000E+00  1.60000000E+01
  1.00800000E+00  1.00800000E+00  1.60000000E+01  1.00800000E+00  1.00800000E+00
  1.60000000E+01  1.00800000E+00  1.00800000E+00  1.60000000E+01  1.00800000E+00
  1.00800000E+00  1.60000000E+01  1.00800000E+00  1.00800000E+00  1.60000000E+01
  1.00800000E+00  1.00800000E+00  1.60000000E+01  1.00800000E+00  1.00800000E+00
  1.60000000E+01  1.00800000E+00  1.00800000E+00  1.60000000E+01  1.00800000E+00
  1.00800000E+00  1.60000000E+01  1.00800000E+00  1.00800000E+00  1.60000000E+01
  1.00800000E+00  1.00800000E+00  1.60000000E+01  1.00800000E+00  1.00800000E+00
  1.60000000E+01  1.00800000E+00  1.00800000E+00  1.60000000E+01  1.00800000E+00
  1.00800000E+00  1.60000000E+01  1.00800000E+00  1.00800000E+00  1.60000000E+01
  1.00800000E+00  1.00800000E+00  1.60000000E+01  1.00800000E+00  1.00800000E+00
  1.60000000E+01  1.00800000E+00  1.00800000E+00  1.60000000E+01  1.00800000E+00
  1.00800000E+00  1.60000000E+01  1.00800000E+00  1.00800000E+00  1.60000000E+01
  1.00800000E+00  1.00800000E+00  1.60000000E+01  1.00800000E+00  1.00800000E+00
  1.60000000E+01  1.00800000E+00  1.00800000E+00  1.60000000E+01  1.00800000E+00
  1.00800000E+00  1.60000000E+01  1.00800000E+00  1.00800000E+00  1.60000000E+01
  1.00800000E+00  1.00800000E+00  1.60000000E+01  1.00800000E+00  1.00800000E+00
  1.60000000E+01  1.00800000E+00  1.00800000E+00  1.60000000E+01  1.00800000E+00
  1.00800000E+00  1.60000000E+01  1.00800000E+00  1.00800000E+00  1.60000000E+01
  1.00800000E+00  1.00800000E+00  1.60000000E+01  1.00800000E+00  1.00800000E+00
  1.60000000E+01  1.00800000E+00  1.00800000E+00  1.60000000E+01  1.00800000E+00
  1.00800000E+00  1.60000000E+01  1.00800000E+00  1.00800000E+00  1.60000000E+01
  1.00800000E+00  1.00800000E+00  1.60000000E+01  1.00800000E+00  1.00800000E+00
  1.60000000E+01  1.00800000E+00  1.00800000E+00  1.60000000E+01  1.00800000E+00
  1.00800000E+00  1.60000000E+01  1.00800000E+00  1.00800000E+00  1.60000000E+01
  1.00800000E+00  1.00800000E+00  1.60000000E+01  1.00800000E+00  1.00800000E+00
  1.60000000E+01  1.00800000E+00  1.00800000E+00  1.60000000E+01  1.00800000E+00
  1.00800000E+00  1.60000000E+01  1.00800000E+00  1.00800000E+00  1.60000000E+01
  1.00800000E+00  1.00800000E+00  1.60000000E+01  1.00800000E+00  1.00800000E+00
  1.60000000E+01  1.00800000E+00  1.00800000E+00  1.60000000E+01  1.00800000E+00
  1.00800000E+00  1.60000000E+01  1.00800000E+00  1.00800000E+00  1.60000000E+01
  1.00800000E+00  1.00800000E+00  1.60000000E+01  1.00800000E+00  1.00800000E+00
  1.60000000E+01  1.00800000E+00  1.00800000E+00  1.60000000E+01  1.00800000E+00
  1.00800000E+00  1.60000000E+01  1.00800000E+00  1.00800000E+00  1.60000000E+01
  1.00800000E+00  1.00800000E+00  1.60000000E+01  1.00800000E+00  1.00800000E+00
  1.60000000E+01  1.00800000E+00  1.00800000E+00  1.60000000E+01  1.00800000E+00
  1.00800000E+00  1.60000000E+01  1.00800000E+00  1.00800000E+00  1.60000000E+01
  1.00800000E+00  1.00800000E+00  1.60000000E+01  1.00800000E+00  1.00800000E+00
  1.60000000E+01  1.00800000E+00  1.00800000E+00  1.60000000E+01  1.00800000E+00
  1.00800000E+00  1.60000000E+01  1.00800000E+00  1.00800000E+00  1.60000000E+01
  1.00800000E+00  1.00800000E+00  1.60000000E+01  1.00800000E+00  1.00800000E+00
  1.60000000E+01  1.00800000E+00  1.00800000E+00  1.60000000E+01  1.00800000E+00
  1.00800000E+00  1.60000000E+01  1.00800000E+00  1.00800000E+00  1.60000000E+01
  1.00800000E+00  1.00800000E+00  1.60000000E+01  1.00800000E+00  1.00800000E+00
  1.60000000E+01  1.00800000E+00  1.00800000E+00  1.60000000E+01  1.00800000E+00
  1.00800000E+00  1.60000000E+01  1.00800000E+00  1.00800000E+00  1.60000000E+01
  1.00800000E+00  1.00800000E+00  1.60000000E+01  1.00800000E+00  1.00800000E+00
  1.60000000E+01  1.00800000E+00  1.00800000E+00  1.60000000E+01  1.00800000E+00
  1.00800000E+00  1.60000000E+01  1.00800000E+00  1.00800000E+00  1.60000000E+01
  1.00800000E+00  1.00800000E+00  1.60000000E+01  1.00800000E+00  1.00800000E+00
  1.60000000E+01  1.00800000E+00  1.00800000E+00  1.60000000E+01  1.00800000E+00
  1.00800000E+00  1.60000000E+01  1.00800000E+00  1.00800000E+00  1.60000000E+01
  1.00800000E+00  1.00800000E+00  1.60000000E+01  1.00800000E+00  1.00800000E+00
  1.60000000E+01  1.00800000E+00  1.00800000E+00  1.60000000E+01  1.00800000E+00
  1.00800000E+00  1.60000000E+01  1.00800000E+00  1.00800000E+00  1.60000000E+01
  1.00800000E+00  1.00800000E+00  1.60000000E+01  1.00800000E+00  1.00800000E+00
  1.60000000E+01  1.00800000E+00  1.00800000E+00  1.60000000E+01  1.00800000E+00
  1.00800000E+00  1.60000000E+01  1.00800000E+00  1.00800000E+00  1.60000000E+01
  1.00800000E+00  1.00800000E+00  1.60000000E+01  1.00800000E+00  1.00800000E+00
  1.60000000E+01  1.00800000E+00  1.00800000E+00  1.60000000E+01  1.00800000E+00
  1.00800000E+00  1.60000000E+01  1.00800000E+00  1.00800000E+00  1.60000000E+01
  1.00800000E+00  1.00800000E+00  1.60000000E+01  1.00800000E+00  1.00800000E+00
  1.60000000E+01  1.00800000E+00  1.00800000E+00  1.60000000E+01  1.00800000E+00
  1.00800000E+00  1.60000000E+01  1.00800000E+00  1.00800000E+00  1.60000000E+01
  1.00800000E+00  1.00800000E+00  1.60000000E+01  1.00800000E+00  1.00800000E+00
  1.60000000E+01  1.00800000E+00  1.00800000E+00  1.60000000E+01  1.00800000E+00
  1.00800000E+00  1.60000000E+01  1.00800000E+00  1.00800000E+00  1.60000000E+01
  1.00800000E+00  1.00800000E+00  1.60000000E+01  1.00800000E+00  1.00800000E+00
  1.60000000E+01  1.00800000E+00  1.00800000E+00  1.60000000E+01  1.00800000E+00
  1.00800000E+00  1.60000000E+01  1.00800000E+00  1.00800000E+00  1.60000000E+01
  1.00800000E+00  1.00800000E+00  1.60000000E+01  1.00800000E+00  1.00800000E+00
  1.60000000E+01  1.00800000E+00  1.00800000E+00  1.60000000E+01  1.00800000E+00
  1.00800000E+00  1.60000000E+01  1.00800000E+00  1.00800000E+00  1.60000000E+01
  1.00800000E+00  1.00800000E+00  1.60000000E+01  1.00800000E+00  1.00800000E+00
  1.60000000E+01  1.00800000E+00  1.00800000E+00  1.60000000E+01  1.00800000E+00
  1.00800000E+00  1.60000000E+01  1.00800000E+00  1.00800000E+00  1.60000000E+01
  1.00800000E+00  1.00800000E+00  1.60000000E+01  1.00800000E+00  1.00800000E+00
  1.60000000E+01  1.00800000E+00  1.00800000E+00  1.60000000E+01  1.00800000E+00
  1.00800000E+00  1.60000000E+01  1.00800000E+00  1.00800000E+00  1.60000000E+01
  1.00800000E+00  1.00800000E+00  1.60000000E+01  1.00800000E+00  1.00800000E+00
  1.60000000E+01  1.00800000E+00  1.00800000E+00  1.60000000E+01  1.00800000E+00
  1.00800000E+00  1.60000000E+01  1.00800000E+00  1.00800000E+00  1.60000000E+01
  1.00800000E+00  1.00800000E+00  1.60000000E+01  1.00800000E+00  1.00800000E+00
  1.60000000E+01  1.00800000E+00  1.00800000E+00  1.60000000E+01  1.00800000E+00
  1.00800000E+00  1.60000000E+01  1.00800000E+00  1.00800000E+00  1.60000000E+01
  1.00800000E+00  1.00800000E+00  1.60000000E+01  1.00800000E+00  1.00800000E+00
  1.60000000E+01  1.00800000E+00  1.00800000E+00  1.60000000E+01  1.00800000E+00
  1.00800000E+00  1.60000000E+01  1.00800000E+00  1.00800000E+00  1.60000000E+01
  1.00800000E+00  1.00800000E+00  1.60000000E+01  1.00800000E+00  1.00800000E+00
  1.60000000E+01  1.00800000E+00  1.00800000E+00  1.60000000E+01  1.00800000E+00
  1.00800000E+00  1.60000000E+01  1.00800000E+00  1.00800000E+00  1.60000000E+01
  1.00800000E+00  1.00800000E+00  1.60000000E+01  1.00800000E+00  1.00800000E+00
  1.60000000E+01  1.00800000E+00  1.00800000E+00  1.60000000E+01  1.00800000E+00
  1.00800000E+00  1.60000000E+01  1.00800000E+00  1.00800000E+00  1.60000000E+01
  1.00800000E+00  1.00800000E+00  1.60000000E+01  1.00800000E+00  1.00800000E+00
  1.60000000E+01  1.00800000E+00  1.00800000E+00  1.60000000E+01  1.00800000E+00
  1.00800000E+00  1.60000000E+01  1.00800000E+00  1.00800000E+00  1.60000000E+01
  1.00800000E+00  1.00800000E+00  1.60000000E+01  1.00800000E+00  1.00800000E+00
  1.60000000E+01  1.00800000E+00  1.00800000E+00  1.60000000E+01  1.00800000E+00
  1.00800000E+00  1.60000000E+01  1.00800000E+00  1.00800000E+00  1.60000000E+01
  1.00800000E+00  1.00800000E+00  1.60000000E+01  1.00800000E+00  1.00800000E+00
  1.60000000E+01  1.00800000E+00  1.00800000E+00  1.60000000E+01  1.00800000E+00
  1.00800000E+00  1.60000000E+01  1.00800000E+00  1.00800000E+00  1.60000000E+01
  1.00800000E+00  1.00800000E+00  1.60000000E+01  1.00800000E+00  1.00800000E+00
  1.60000000E+01  1.00800000E+00  1.00800000E+00  1.60000000E+01  1.00800000E+00
  1.00800000E+00  1.60000000E+01  1.00800000E+00  1.00800000E+00  1.60000000E+01
  1.00800000E+00  1.00800000E+00  1.60000000E+01  1.00800000E+00  1.00800000E+00
  1.60000000E+01  1.00800000E+00  1.00800000E+00  1.60000000E+01  1.00800000E+00
  1.00800000E+00  1.60000000E+01  1.00800000E+00  1.00800000E+00  1.60000000E+01
  1.00800000E+00  1.00800000E+00  1.60000000E+01  1.00800000E+00  1.00800000E+00
  1.60000000E+01  1.00800000E+00  1.00800000E+00  1.60000000E+01  1.00800000E+00
  1.00800000E+00  1.60000000E+01  1.00800000E+00  1.00800000E+00  1.60000000E+01
  1.00800000E+00  1.00800000E+00  1.60000000E+01  1.00800000E+00  1.00800000E+00
  1.60000000E+01  1.00800000E+00  1.00800000E+00  1.60000000E+01  1.00800000E+00
  1.00800000E+00  1.60000000E+01  1.00800000E+00  1.00800000E+00  1.60000000E+01
  1.00800000E+00  1.00800000E+00  1.60000000E+01  1.00800000E+00  1.00800000E+00
  1.60000000E+01  1.00800000E+00  1.00800000E+00  1.60000000E+01  1.00800000E+00
  1.00800000E+00  1.60000000E+01  1.00800000E+00  1.00800000E+00  1.60000000E+01
  1.00800000E+00  1.00800000E+00  1.60000000E+01  1.00800000E+00  1.00800000E+00
  1.60000000E+01  1.00800000E+00  1.00800000E+00  1.60000000E+01  1.00800000E+00
  1.00800000E+00  1.60000000E+01  1.00800000E+00  1.00800000E+00  1.60000000E+01
  1.00800000E+00  1.00800000E+00  1.60000000E+01  1.00800000E+00  1.00800000E+00
  1.60000000E+01  1.00800000E+00  1.00800000E+00  1.60000000E+01  1.00800000E+00
  1.00800000E+00  1.60000000E+01  1.00800000E+00  1.00800000E+00  1.60000000E+01
  1.00800000E+00  1.00800000E+00  1.60000000E+01  1.00800000E+00  1.00800000E+00
  1.60000000E+01  1.00800000E+00  1.00800000E+00  1.60000000E+01  1.00800000E+00
  1.00800000E+00  1.60000000E+01  1.00800000E+00  1.00800000E+00  1.60000000E+01
  1.00800000E+00  1.00800000E+00  1.60000000E+01  1.00800000E+00  1.00800000E+00
  1.60000000E+01  1.00800000E+00  1.00800000E+00  1.60000000E+01  1.00800000E+00
  1.00800000E+00  1.60000000E+01  1.00800000E+00  1.00800000E+00  1.60000000E+01
  1.00800000E+00  1.00800000E+00  1.60000000E+01  1.00800000E+00  1.00800000E+00
  1.60000000E+01  1.00800000E+00  1.00800000E+00  1.60000000E+01  1.00800000E+00
  1.00800000E+00  1.60000000E+01  1.00800000E+00  1.00800000E+00  1.60000000E+01
  1.00800000E+00  1.00800000E+00  1.60000000E+01  1.00800000E+00  1.00800000E+00
  1.60000000E+01  1.00800000E+00  1.00800000E+00  1.60000000E+01  1.00800000E+00
  1.00800000E+00  1.60000000E+01  1.00800000E+00  1.00800000E+00  1.60000000E+01
  1.00800000E+00  1.00800000E+00  1.60000000E+01  1.00800000E+00  1.00800000E+00
  1.60000000E+01  1.00800000E+00  1.00800000E+00  1.60000000E+01  1.00800000E+00
  1.00800000E+00  1.60000000E+01  1.00800000E+00  1.00800000E+00  1.60000000E+01
  1.00800000E+00  1.00800000E+00  1.60000000E+01  1.00800000E+00  1.00800000E+00
  1.60000000E+01  1.00800000E+00  1.00800000E+00  1.60000000E+01  1.00800000E+00
  1.00800000E+00  1.60000000E+01  1.00800000E+00  1.00800000E+00  1.60000000E+01
  1.00800000E+00  1.00800000E+00  1.60000000E+01  1.00800000E+00  1.00800000E+00
  1.60000000E+01  1.00800000E+00  1.00800000E+00  1.60000000E+01  1.00800000E+00
  1.00800000E+00  1.60000000E+01  1.00800000E+00  1.00800000E+00  1.60000000E+01
  1.00800000E+00  1.00800000E+00  1.60000000E+01  1.00800000E+00  1.00800000E+00
  1.60000000E+01  1.00800000E+00  1.00800000E+00  1.60000000E+01  1.00800000E+00
  1.00800000E+00  1.60000000E+01  1.00800000E+00  1.00800000E+00  1.60000000E+01
  1.00800000E+00  1.00800000E+00  1.60000000E+01  1.00800000E+00  1.00800000E+00
  1.60000000E+01  1.00800000E+00  1.00800000E+00  1.60000000E+01  1.00800000E+00
  1.00800000E+00  1.60000000E+01  1.00800000E+00  1.00800000E+00  1.60000000E+01
  1.00800000E+00  1.00800000E+00  1.60000000E+01  1.00800000E+00  1.00800000E+00
  1.60000000E+01  1.00800000E+00  1.00800000E+00  1.60000000E+01  1.00800000E+00
  1.00800000E+00  1.60000000E+01  1.00800000E+00  1.00800000E+00  1.60000000E+01
  1.00800000E+00  1.00800000E+00  1.60000000E+01  1.00800000E+00  1.00800000E+00
  1.60000000E+01  1.00800000E+00  1.00800000E+00  1.60000000E+01  1.00800000E+00
  1.00800000E+00  1.60000000E+01  1.00800000E+00  1.00800000E+00  1.60000000E+01
  1.00800000E+00  1.00800000E+00  1.60000000E+01  1.00800000E+00  1.00800000E+00
  1.60000000E+01  1.00800000E+00  1.00800000E+00  1.60000000E+01  1.00800000E+00
  1.00800000E+00  1.60000000E+01  1.00800000E+00  1.00800000E+00  1.60000000E+01
  1.00800000E+00  1.00800000E+00  1.60000000E+01  1.00800000E+00  1.00800000E+00
  1.60000000E+01  1.00800000E+00  1.00800000E+00  1.60000000E+01  1.00800000E+00
  1.00800000E+00  1.60000000E+01  1.00800000E+00  1.00800000E+00  1.60000000E+01
  1.00800000E+00  1.00800000E+00  1.60000000E+01  1.00800000E+00  1.00800000E+00
  1.60000000E+01  1.00800000E+00  1.00800000E+00  1.60000000E+01  1.00800000E+00
  1.00800000E+00  1.60000000E+01  1.00800000E+00  1.00800000E+00  1.60000000E+01
  1.00800000E+00  1.00800000E+00  1.60000000E+01  1.00800000E+00  1.00800000E+00
  1.60000000E+01  1.00800000E+00  1.00800000E+00  1.60000000E+01  1.00800000E+00
  1.00800000E+00  1.60000000E+01  1.00800000E+00  1.00800000E+00  1.60000000E+01
  1.00800000E+00  1.00800000E+00  1.60000000E+01  1.00800000E+00  1.00800000E+00
  1.60000000E+01  1.00800000E+00  1.00800000E+00  1.60000000E+01  1.00800000E+00
  1.00800000E+00  1.60000000E+01  1.00800000E+00  1.00800000E+00  1.60000000E+01
  1.00800000E+00  1.00800000E+00  1.60000000E+01  1.00800000E+00  1.00800000E+00
  1.60000000E+01  1.00800000E+00  1.00800000E+00  1.60000000E+01  1.00800000E+00
  1.00800000E+00  1.60000000E+01  1.00800000E+00  1.00800000E+00  1.60000000E+01
  1.00800000E+00  1.00800000E+00  1.60000000E+01  1.00800000E+00  1.00800000E+00
  1.60000000E+01  1.00800000E+00  1.00800000E+00  1.60000000E+01  1.00800000E+00
  1.00800000E+00  1.60000000E+01  1.00800000E+00  1.00800000E+00  1.60000000E+01
  1.00800000E+00  1.00800000E+00  1.60000000E+01  1.00800000E+00  1.00800000E+00
  1.60000000E+01  1.00800000E+00  1.00800000E+00  1.60000000E+01  1.00800000E+00
  1.00800000E+00  1.60000000E+01  1.00800000E+00  1.00800000E+00  1.60000000E+01
  1.00800000E+00  1.00800000E+00  1.60000000E+01  1.00800000E+00  1.00800000E+00
  1.60000000E+01  1.00800000E+00  1.00800000E+00  1.60000000E+01  1.00800000E+00
  1.00800000E+00  1.60000000E+01  1.00800000E+00  1.00800000E+00  1.60000000E+01
  1.00800000E+00  1.00800000E+00  1.60000000E+01  1.00800000E+00  1.00800000E+00
  1.60000000E+01  1.00800000E+00  1.00800000E+00  1.60000000E+01  1.00800000E+00
  1.00800000E+00  1.60000000E+01  1.00800000E+00  1.00800000E+00  1.60000000E+01
  1.00800000E+00  1.00800000E+00  1.60000000E+01  1.00800000E+00  1.00800000E+00
  1.60000000E+01  1.00800000E+00  1.00800000E+00  1.60000000E+01  1.00800000E+00
  1.00800000E+00  1.60000000E+01  1.00800000E+00  1.00800000E+00  1.60000000E+01
  1.00800000E+00  1.00800000E+00  1.60000000E+01  1.00800000E+00  1.00800000E+00
  1.60000000E+01  1.00800000E+00  1.00800000E+00  1.60000000E+01  1.00800000E+00
  1.00800000E+00  1.60000000E+01  1.00800000E+00  1.00800000E+00  1.60000000E+01
  1.00800000E+00  1.00800000E+00  1.60000000E+01  1.00800000E+00  1.00800000E+00
  1.60000000E+01  1.00800000E+00  1.00800000E+00  1.60000000E+01  1.00800000E+00
  1.00800000E+00  1.60000000E+01  1.00800000E+00  1.00800000E+00  1.60000000E+01
  1.00800000E+00  1.00800000E+00  1.60000000E+01  1.00800000E+00  1.00800000E+00
  1.60000000E+01  1.00800000E+00  1.00800000E+00  1.60000000E+01  1.00800000E+00
  1.00800000E+00  1.60000000E+01  1.00800000E+00  1.00800000E+00  1.60000000E+01
  1.00800000E+00  1.00800000E+00  1.60000000E+01  1.00800000E+00  1.00800000E+00
  1.60000000E+01  1.00800000E+00  1.00800000E+00  1.60000000E+01  1.00800000E+00
  1.00800000E+00  1.60000000E+01  1.00800000E+00  1.00800000E+00  1.60000000E+01
  1.00800000E+00  1.00800000E+00  1.60000000E+01  1.00800000E+00  1.00800000E+00
  1.60000000E+01  1.00800000E+00  1.00800000E+00  1.60000000E+01  1.00800000E+00
  1.00800000E+00  1.60000000E+01  1.00800000E+00  1.00800000E+00  1.60000000E+01
  1.00800000E+00  1.00800000E+00  1.60000000E+01  1.00800000E+00  1.00800000E+00
  1.60000000E+01  1.00800000E+00  1.00800000E+00  1.60000000E+01  1.00800000E+00
  1.00800000E+00  1.60000000E+01  1.00800000E+00  1.00800000E+00  1.60000000E+01
  1.00800000E+00  1.00800000E+00  1.60000000E+01  1.00800000E+00  1.00800000E+00
  1.60000000E+01  1.00800000E+00  1.00800000E+00  1.60000000E+01  1.00800000E+00
  1.00800000E+00  1.60000000E+01  1.00800000E+00  1.00800000E+00  1.60000000E+01
  1.00800000E+00  1.00800000E+00  1.60000000E+01  1.00800000E+00  1.00800000E+00
  1.60000000E+01  1.00800000E+00  1.00800000E+00  1.60000000E+01  1.00800000E+00
  1.00800000E+00  1.60000000E+01  1.00800000E+00  1.00800000E+00  1.60000000E+01
  1.00800000E+00  1.00800000E+00  1.60000000E+01  1.00800000E+00  1.00800000E+00
  1.60000000E+01  1.00800000E+00  1.00800000E+00  1.60000000E+01  1.00800000E+00
  1.00800000E+00  1.60000000E+01  1.00800000E+00  1.00800000E+00  1.60000000E+01
  1.00800000E+00  1.00800000E+00  1.60000000E+01  1.00800000E+00  1.00800000E+00
  1.60000000E+01  1.00800000E+00  1.00800000E+00  1.60000000E+01  1.00800000E+00
  1.00800000E+00  1.60000000E+01  1.00800000E+00  1.00800000E+00  1.60000000E+01
  1.00800000E+00  1.00800000E+00  1.60000000E+01  1.00800000E+00  1.00800000E+00
  1.60000000E+01  1.00800000E+00  1.00800000E+00  1.60000000E+01  1.00800000E+00
  1.00800000E+00  1.60000000E+01  1.00800000E+00  1.00800000E+00  1.60000000E+01
  1.00800000E+00  1.00800000E+00  1.60000000E+01  1.00800000E+00  1.00800000E+00
  1.60000000E+01  1.00800000E+00  1.00800000E+00  1.60000000E+01  1.00800000E+00
  1.00800000E+00  1.60000000E+01  1.00800000E+00  1.00800000E+00  1.60000000E+01
  1.00800000E+00  1.00800000E+00  1.60000000E+01  1.00800000E+00  1.00800000E+00
  1.60000000E+01  1.00800000E+00  1.00800000E+00  1.60000000E+01  1.00800000E+00
  1.00800000E+00  1.60000000E+01  1.00800000E+00  1.00800000E+00  1.60000000E+01
  1.00800000E+00  1.00800000E+00  1.60000000E+01  1.00800000E+00  1.00800000E+00
  1.60000000E+01  1.00800000E+00  1.00800000E+00  1.60000000E+01  1.00800000E+00
  1.00800000E+00  1.60000000E+01  1.00800000E+00  1.00800000E+00  1.60000000E+01
  1.00800000E+00  1.00800000E+00  1.60000000E+01  1.00800000E+00  1.00800000E+00
  1.60000000E+01  1.00800000E+00  1.00800000E+00  1.60000000E+01  1.00800000E+00
  1.00800000E+00  1.60000000E+01  1.00800000E+00  1.00800000E+00  1.60000000E+01
  1.00800000E+00  1.00800000E+00  1.60000000E+01  1.00800000E+00  1.00800000E+00
  1.60000000E+01  1.00800000E+00  1.00800000E+00  1.60000000E+01  1.00800000E+00
  1.00800000E+00  1.60000000E+01  1.00800000E+00  1.00800000E+00  1.60000000E+01
  1.00800000E+00  1.00800000E+00  1.60000000E+01  1.00800000E+00  1.00800000E+00
  1.60000000E+01  1.00800000E+00  1.00800000E+00  1.60000000E+01  1.00800000E+00
  1.00800000E+00  1.60000000E+01  1.00800000E+00  1.00800000E+00  1.60000000E+01
  1.00800000E+00  1.00800000E+00  1.60000000E+01  1.00800000E+00  1.00800000E+00
  1.60000000E+01  1.00800000E+00  1.00800000E+00  1.60000000E+01  1.00800000E+00
  1.00800000E+00  1.60000000E+01  1.00800000E+00  1.00800000E+00  1.60000000E+01
  1.00800000E+00  1.00800000E+00  1.60000000E+01  1.00800000E+00  1.00800000E+00
  1.60000000E+01  1.00800000E+00  1.00800000E+00  1.60000000E+01  1.00800000E+00
  1.00800000E+00  1.60000000E+01  1.00800000E+00  1.00800000E+00  1.60000000E+01
  1.00800000E+00  1.00800000E+00  1.60000000E+01  1.00800000E+00  1.00800000E+00
  1.60000000E+01  1.00800000E+00  1.00800000E+00  1.60000000E+01  1.00800000E+00
  1.00800000E+00  1.60000000E+01  1.00800000E+00  1.00800000E+00  1.60000000E+01
  1.00800000E+00  1.00800000E+00  1.60000000E+01  1.00800000E+00  1.00800000E+00
  1.60000000E+01  1.00800000E+00  1.00800000E+00  1.60000000E+01  1.00800000E+00
  1.00800000E+00  1.60000000E+01  1.00800000E+00  1.00800000E+00  1.60000000E+01
  1.00800000E+00  1.00800000E+00  1.60000000E+01  1.00800000E+00  1.00800000E+00
  1.60000000E+01  1.00800000E+00  1.00800000E+00  1.60000000E+01  1.00800000E+00
  1.00800000E+00  1.60000000E+01  1.00800000E+00  1.00800000E+00  1.60000000E+01
  1.00800000E+00  1.00800000E+00  1.60000000E+01  1.00800000E+00  1.00800000E+00
  1.60000000E+01  1.00800000E+00  1.00800000E+00  1.60000000E+01  1.00800000E+00
  1.00800000E+00  1.60000000E+01  1.00800000E+00  1.00800000E+00  1.60000000E+01
  1.00800000E+00  1.00800000E+00  1.60000000E+01  1.00800000E+00  1.00800000E+00
  1.60000000E+01  1.00800000E+00  1.00800000E+00  1.60000000E+01  1.00800000E+00
  1.00800000E+00  1.60000000E+01  1.00800000E+00  1.00800000E+00  1.60000000E+01
  1.00800000E+00  1.00800000E+00  1.60000000E+01  1.00800000E+00  1.00800000E+00
  1.60000000E+01  1.00800000E+00  1.00800000E+00  1.60000000E+01  1.00800000E+00
  1.00800000E+00  1.60000000E+01  1.00800000E+00  1.00800000E+00  1.60000000E+01
  1.00800000E+00  1.00800000E+00  1.60000000E+01  1.00800000E+00  1.00800000E+00
  1.60000000E+01  1.00800000E+00  1.00800000E+00  1.60000000E+01  1.00800000E+00
  1.00800000E+00  1.60000000E+01  1.00800000E+00  1.00800000E+00  1.60000000E+01
  1.00800000E+00  1.00800000E+00  1.60000000E+01  1.00800000E+00  1.00800000E+00
  1.60000000E+01  1.00800000E+00  1.00800000E+00  1.60000000E+01  1.00800000E+00
  1.00800000E+00  1.60000000E+01  1.00800000E+00  1.00800000E+00  1.60000000E+01
  1.00800000E+00  1.00800000E+00  1.60000000E+01  1.00800000E+00  1.00800000E+00
  1.60000000E+01  1.00800000E+00  1.00800000E+00  1.60000000E+01  1.00800000E+00
  1.00800000E+00  1.60000000E+01  1.00800000E+00  1.00800000E+00  1.60000000E+01
  1.00800000E+00  1.00800000E+00  1.60000000E+01  1.00800000E+00  1.00800000E+00
  1.60000000E+01  1.00800000E+00  1.00800000E+00  1.60000000E+01  1.00800000E+00
  1.00800000E+00  1.60000000E+01  1.00800000E+00  1.00800000E+00  1.60000000E+01
  1.00800000E+00  1.00800000E+00  1.60000000E+01  1.00800000E+00  1.00800000E+00
  1.60000000E+01  1.00800000E+00  1.00800000E+00  1.60000000E+01  1.00800000E+00
  1.00800000E+00  1.60000000E+01  1.00800000E+00  1.00800000E+00  1.60000000E+01
  1.00800000E+00  1.00800000E+00  1.60000000E+01  1.00800000E+00  1.00800000E+00
  1.60000000E+01  1.00800000E+00  1.00800000E+00  1.60000000E+01  1.00800000E+00
  1.00800000E+00  1.60000000E+01  1.00800000E+00  1.00800000E+00  1.60000000E+01
  1.00800000E+00  1.00800000E+00  1.60000000E+01  1.00800000E+00  1.00800000E+00
  1.60000000E+01  1.00800000E+00  1.00800000E+00  1.60000000E+01  1.00800000E+00
  1.00800000E+00  1.60000000E+01  1.00800000E+00  1.00800000E+00  1.60000000E+01
  1.00800000E+00  1.00800000E+00  1.60000000E+01  1.00800000E+00  1.00800000E+00
  1.60000000E+01  1.00800000E+00  1.00800000E+00  1.60000000E+01  1.00800000E+00
  1.00800000E+00  1.60000000E+01  1.00800000E+00  1.00800000E+00  1.60000000E+01
  1.00800000E+00  1.00800000E+00  1.60000000E+01  1.00800000E+00  1.00800000E+00
  1.60000000E+01  1.00800000E+00  1.00800000E+00  1.60000000E+01  1.00800000E+00
  1.00800000E+00  1.60000000E+01  1.00800000E+00  1.00800000E+00  1.60000000E+01
  1.00800000E+00  1.00800000E+00  1.60000000E+01  1.00800000E+00  1.00800000E+00
  1.60000000E+01  1.00800000E+00  1.00800000E+00  1.60000000E+01  1.00800000E+00
  1.00800000E+00  1.60000000E+01  1.00800000E+00  1.00800000E+00  1.60000000E+01
  1.00800000E+00  1.00800000E+00  1.60000000E+01  1.00800000E+00  1.00800000E+00
  1.60000000E+01  1.00800000E+00  1.00800000E+00  1.60000000E+01  1.00800000E+00
  1.00800000E+00  1.60000000E+01  1.00800000E+00  1.00800000E+00  1.60000000E+01
  1.00800000E+00  1.00800000E+00  1.60000000E+01  1.00800000E+00  1.00800000E+00
  1.60000000E+01  1.00800000E+00  1.00800000E+00  1.60000000E+01  1.00800000E+00
  1.00800000E+00  1.60000000E+01  1.00800000E+00  1.00800000E+00  1.60000000E+01
  1.00800000E+00  1.00800000E+00  1.60000000E+01  1.00800000E+00  1.00800000E+00
  1.60000000E+01  1.00800000E+00  1.00800000E+00  1.60000000E+01  1.00800000E+00
  1.00800000E+00  1.60000000E+01  1.00800000E+00  1.00800000E+00  1.60000000E+01
  1.00800000E+00  1.00800000E+00  1.60000000E+01  1.00800000E+00  1.00800000E+00
  1.60000000E+01  1.00800000E+00  1.00800000E+00  1.60000000E+01  1.00800000E+00
  1.00800000E+00  1.60000000E+01  1.00800000E+00  1.00800000E+00  1.60000000E+01
  1.00800000E+00  1.00800000E+00  1.60000000E+01  1.00800000E+00  1.00800000E+00
  1.60000000E+01  1.00800000E+00  1.00800000E+00  1.60000000E+01  1.00800000E+00
  1.00800000E+00  1.60000000E+01  1.00800000E+00  1.00800000E+00  1.60000000E+01
  1.00800000E+00  1.00800000E+00  1.60000000E+01  1.00800000E+00  1.00800000E+00
  1.60000000E+01  1.00800000E+00  1.00800000E+00  1.60000000E+01  1.00800000E+00
  1.00800000E+00  1.60000000E+01  1.00800000E+00  1.00800000E+00  1.60000000E+01
  1.00800000E+00  1.00800000E+00  1.60000000E+01  1.00800000E+00  1.00800000E+00
  1.60000000E+01  1.00800000E+00  1.00800000E+00  1.60000000E+01  1.00800000E+00
  1.00800000E+00  1.60000000E+01  1.00800000E+00  1.00800000E+00  1.60000000E+01
  1.00800000E+00  1.00800000E+00  1.60000000E+01  1.00800000E+00  1.00800000E+00
  1.60000000E+01  1.00800000E+00  1.00800000E+00  1.60000000E+01  1.00800000E+00
  1.00800000E+00  1.60000000E+01  1.00800000E+00  1.00800000E+00  1.60000000E+01
  1.00800000E+00  1.00800000E+00  1.60000000E+01  1.00800000E+00  1.00800000E+00
  1.60000000E+01  1.00800000E+00  1.00800000E+00  1.60000000E+01  1.00800000E+00
  1.00800000E+00  1.60000000E+01  1.00800000E+00  1.00800000E+00  1.60000000E+01
  1.00800000E+00  1.00800000E+00  1.60000000E+01  1.00800000E+00  1.00800000E+00
  1.60000000E+01  1.00800000E+00  1.00800000E+00  1.60000000E+01  1.00800000E+00
  1.00800000E+00  1.60000000E+01  1.00800000E+00  1.00800000E+00  1.60000000E+01
  1.00800000E+00  1.00800000E+00  1.60000000E+01  1.00800000E+00  1.00800000E+00
  1.60000000E+01  1.00800000E+00  1.00800000E+00  1.60000000E+01  1.00800000E+00
  1.00800000E+00  1.60000000E+01  1.00800000E+00  1.00800000E+00  1.60000000E+01
  1.00800000E+00  1.00800000E+00  1.60000000E+01  1.00800000E+00  1.00800000E+00
  1.60000000E+01  1.00800000E+00  1.00800000E+00  1.60000000E+01  1.00800000E+00
  1.00800000E+00  1.60000000E+01  1.00800000E+00  1.00800000E+00  1.60000000E+01
  1.00800000E+00  1.00800000E+00  1.60000000E+01  1.00800000E+00  1.00800000E+00
  1.60000000E+01  1.00800000E+00  1.00800000E+00  1.60000000E+01  1.00800000E+00
  1.00800000E+00  1.60000000E+01  1.00800000E+00  1.00800000E+00  1.60000000E+01
  1.00800000E+00  1.00800000E+00  1.60000000E+01  1.00800000E+00  1.00800000E+00
  1.60000000E+01  1.00800000E+00  1.00800000E+00  1.60000000E+01  1.00800000E+00
  1.00800000E+00  1.60000000E+01  1.00800000E+00  1.00800000E+00  1.60000000E+01
  1.00800000E+00  1.00800000E+00  1.60000000E+01  1.00800000E+00  1.00800000E+00
  1.60000000E+01  1.00800000E+00  1.00800000E+00  1.60000000E+01  1.00800000E+00
  1.00800000E+00  1.60000000E+01  1.00800000E+00  1.00800000E+00  1.60000000E+01
  1.00800000E+00  1.00800000E+00  1.60000000E+01  1.00800000E+00  1.00800000E+00
  1.60000000E+01  1.00800000E+00  1.00800000E+00  1.60000000E+01  1.00800000E+00
  1.00800000E+00  1.60000000E+01  1.00800000E+00  1.00800000E+00  1.60000000E+01
  1.00800000E+00  1.00800000E+00  1.60000000E+01  1.00800000E+00  1.00800000E+00
  1.60000000E+01  1.00800000E+00  1.00800000E+00  1.60000000E+01  1.00800000E+00
  1.00800000E+00  1.60000000E+01  1.00800000E+00  1.00800000E+00  1.60000000E+01
  1.00800000E+00  1.00800000E+00  1.60000000E+01  1.00800000E+00  1.00800000E+00
  1.60000000E+01  1.00800000E+00  1.00800000E+00  1.60000000E+01  1.00800000E+00
  1.00800000E+00  1.60000000E+01  1.00800000E+00  1.00800000E+00  1.60000000E+01
  1.00800000E+00  1.00800000E+00  1.60000000E+01  1.00800000E+00  1.00800000E+00
  1.60000000E+01  1.00800000E+00  1.00800000E+00  1.60000000E+01  1.00800000E+00
  1.00800000E+00  1.60000000E+01  1.00800000E+00  1.00800000E+00  1.60000000E+01
  1.00800000E+00  1.00800000E+00  1.60000000E+01  1.00800000E+00  1.00800000E+00
  1.60000000E+01  1.00800000E+00  1.00800000E+00  1.60000000E+01  1.00800000E+00
  1.00800000E+00  1.60000000E+01  1.00800000E+00  1.00800000E+00  1.60000000E+01
  1.00800000E+00  1.00800000E+00  1.60000000E+01  1.00800000E+00  1.00800000E+00
  1.60000000E+01  1.00800000E+00  1.00800000E+00  1.60000000E+01  1.00800000E+00
  1.00800000E+00  1.60000000E+01  1.00800000E+00  1.00800000E+00  1.60000000E+01
  1.00800000E+00  1.00800000E+00  1.60000000E+01  1.00800000E+00  1.00800000E+00
  1.60000000E+01  1.00800000E+00  1.00800000E+00  1.60000000E+01  1.00800000E+00
  1.00800000E+00  1.60000000E+01  1.00800000E+00  1.00800000E+00  1.60000000E+01
  1.00800000E+00  1.00800000E+00  1.60000000E+01  1.00800000E+00  1.00800000E+00
  1.60000000E+01  1.00800000E+00  1.00800000E+00  1.60000000E+01  1.00800000E+00
  1.00800000E+00  1.60000000E+01  1.00800000E+00  1.00800000E+00  1.60000000E+01
  1.00800000E+00  1.00800000E+00  1.60000000E+01  1.00800000E+00  1.00800000E+00
  1.60000000E+01  1.00800000E+00  1.00800000E+00  1.60000000E+01  1.00800000E+00
  1.00800000E+00  1.60000000E+01  1.00800000E+00  1.00800000E+00  1.60000000E+01
  1.00800000E+00  1.00800000E+00  1.60000000E+01  1.00800000E+00  1.00800000E+00
  1.60000000E+01  1.00800000E+00  1.00800000E+00  1.60000000E+01  1.00800000E+00
  1.00800000E+00  1.60000000E+01  1.00800000E+00  1.00800000E+00  1.60000000E+01
  1.00800000E+00  1.00800000E+00  1.60000000E+01  1.00800000E+00  1.00800000E+00
  1.60000000E+01  1.00800000E+00  1.00800000E+00  1.60000000E+01  1.00800000E+00
  1.00800000E+00  1.60000000E+01  1.00800000E+00  1.00800000E+00  1.60000000E+01
  1.00800000E+00  1.00800000E+00  1.60000000E+01  1.00800000E+00  1.00800000E+00
  1.60000000E+01  1.00800000E+00  1.00800000E+00  1.60000000E+01  1.00800000E+00
  1.00800000E+00  1.60000000E+01  1.00800000E+00  1.00800000E+00  1.60000000E+01
  1.00800000E+00  1.00800000E+00  1.60000000E+01  1.00800000E+00  1.00800000E+00
  1.60000000E+01  1.00800000E+00  1.00800000E+00  1.60000000E+01  1.00800000E+00
  1.00800000E+00  1.60000000E+01  1.00800000E+00  1.00800000E+00  1.60000000E+01
  1.00800000E+00  1.00800000E+00  1.60000000E+01  1.00800000E+00  1.00800000E+00
  1.60000000E+01  1.00800000E+00  1.00800000E+00  1.60000000E+01  1.00800000E+00
  1.00800000E+00  1.60000000E+01  1.00800000E+00  1.00800000E+00  1.60000000E+01
  1.00800000E+00  1.00800000E+00  1.60000000E+01  1.00800000E+00  1.00800000E+00
  1.60000000E+01  1.00800000E+00  1.00800000E+00  1.60000000E+01  1.00800000E+00
  1.00800000E+00  1.60000000E+01  1.00800000E+00  1.00800000E+00  1.60000000E+01
  1.00800000E+00  1.00800000E+00  1.60000000E+01  1.00800000E+00  1.00800000E+00
  1.60000000E+01  1.00800000E+00  1.00800000E+00  1.60000000E+01  1.00800000E+00
  1.00800000E+00  1.60000000E+01  1.00800000E+00  1.00800000E+00  1.60000000E+01
  1.00800000E+00  1.00800000E+00  1.60000000E+01  1.00800000E+00  1.00800000E+00
  1.60000000E+01  1.00800000E+00  1.00800000E+00  1.60000000E+01  1.00800000E+00
  1.00800000E+00  1.60000000E+01  1.00800000E+00  1.00800000E+00  1.60000000E+01
  1.00800000E+00  1.00800000E+00  1.60000000E+01  1.00800000E+00  1.00800000E+00
  1.60000000E+01  1.00800000E+00  1.00800000E+00  1.60000000E+01  1.00800000E+00
  1.00800000E+00  1.60000000E+01  1.00800000E+00  1.00800000E+00  1.60000000E+01
  1.00800000E+00  1.00800000E+00  1.60000000E+01  1.00800000E+00  1.00800000E+00
  1.60000000E+01  1.00800000E+00  1.00800000E+00  1.60000000E+01  1.00800000E+00
  1.00800000E+00  1.60000000E+01  1.00800000E+00  1.00800000E+00  1.60000000E+01
  1.00800000E+00  1.00800000E+00  1.60000000E+01  1.00800000E+00  1.00800000E+00
  1.60000000E+01  1.00800000E+00  1.00800000E+00  1.60000000E+01  1.00800000E+00
  1.00800000E+00  1.60000000E+01  1.00800000E+00  1.00800000E+00  1.60000000E+01
  1.00800000E+00  1.00800000E+00  1.60000000E+01  1.00800000E+00  1.00800000E+00
  1.60000000E+01  1.00800000E+00  1.00800000E+00  1.60000000E+01  1.00800000E+00
  1.00800000E+00  1.60000000E+01  1.00800000E+00  1.00800000E+00  1.60000000E+01
  1.00800000E+00  1.00800000E+00  1.60000000E+01  1.00800000E+00  1.00800000E+00
  1.60000000E+01  1.00800000E+00  1.00800000E+00  1.60000000E+01  1.00800000E+00
  1.00800000E+00  1.60000000E+01  1.00800000E+00  1.00800000E+00  1.60000000E+01
  1.00800000E+00  1.00800000E+00  1.60000000E+01  1.00800000E+00  1.00800000E+00
  1.60000000E+01  1.00800000E+00  1.00800000E+00  1.60000000E+01  1.00800000E+00
  1.00800000E+00  1.60000000E+01  1.00800000E+00  1.00800000E+00  1.60000000E+01
  1.00800000E+00  1.00800000E+00  1.60000000E+01  1.00800000E+00  1.00800000E+00
  1.60000000E+01  1.00800000E+00  1.00800000E+00  1.60000000E+01  1.00800000E+00
  1.00800000E+00  1.60000000E+01  1.00800000E+00  1.00800000E+00  1.60000000E+01
  1.00800000E+00  1.00800000E+00  1.60000000E+01  1.00800000E+00  1.00800000E+00
  1.60000000E+01  1.00800000E+00  1.00800000E+00  1.60000000E+01  1.00800000E+00
  1.00800000E+00  1.60000000E+01  1.00800000E+00  1.00800000E+00  1.60000000E+01
  1.00800000E+00  1.00800000E+00  1.60000000E+01  1.00800000E+00  1.00800000E+00
  1.60000000E+01  1.00800000E+00  1.00800000E+00  1.60000000E+01  1.00800000E+00
  1.00800000E+00  1.60000000E+01  1.00800000E+00  1.00800000E+00  1.60000000E+01
  1.00800000E+00  1.00800000E+00  1.60000000E+01  1.00800000E+00  1.00800000E+00
  1.60000000E+01  1.00800000E+00  1.00800000E+00  1.60000000E+01  1.00800000E+00
  1.00800000E+00  1.60000000E+01  1.00800000E+00  1.00800000E+00  1.60000000E+01
  1.00800000E+00  1.00800000E+00  1.60000000E+01  1.00800000E+00  1.00800000E+00
  1.60000000E+01  1.00800000E+00  1.00800000E+00  1.60000000E+01  1.00800000E+00
  1.00800000E+00  1.60000000E+01  1.00800000E+00  1.00800000E+00  1.60000000E+01
  1.00800000E+00  1.00800000E+00  1.60000000E+01  1.00800000E+00  1.00800000E+00
  1.60000000E+01  1.00800000E+00  1.00800000E+00  1.60000000E+01  1.00800000E+00
  1.00800000E+00  1.60000000E+01  1.00800000E+00  1.00800000E+00  1.60000000E+01
  1.00800000E+00  1.00800000E+00  1.60000000E+01  1.00800000E+00  1.00800000E+00
  1.60000000E+01  1.00800000E+00  1.00800000E+00  1.60000000E+01  1.00800000E+00
  1.00800000E+00  1.60000000E+01  1.00800000E+00  1.00800000E+00  1.60000000E+01
  1.00800000E+00  1.00800000E+00  1.60000000E+01  1.00800000E+00  1.00800000E+00
  1.60000000E+01  1.00800000E+00  1.00800000E+00  1.60000000E+01  1.00800000E+00
  1.00800000E+00  1.60000000E+01  1.00800000E+00  1.00800000E+00  1.60000000E+01
  1.00800000E+00  1.00800000E+00  1.60000000E+01  1.00800000E+00  1.00800000E+00
  1.60000000E+01  1.00800000E+00  1.00800000E+00  1.60000000E+01  1.00800000E+00
  1.00800000E+00  1.60000000E+01  1.00800000E+00  1.00800000E+00  1.60000000E+01
  1.00800000E+00  1.00800000E+00  1.60000000E+01  1.00800000E+00  1.00800000E+00
  1.60000000E+01  1.00800000E+00  1.00800000E+00  1.60000000E+01  1.00800000E+00
  1.00800000E+00  1.60000000E+01  1.00800000E+00  1.00800000E+00  1.60000000E+01
  1.00800000E+00  1.00800000E+00  1.60000000E+01  1.00800000E+00  1.00800000E+00
  1.60000000E+01  1.00800000E+00  1.00800000E+00  1.60000000E+01  1.00800000E+00
  1.00800000E+00  1.60000000E+01  1.00800000E+00  1.00800000E+00  1.60000000E+01
  1.00800000E+00  1.00800000E+00  1.60000000E+01  1.00800000E+00  1.00800000E+00
  1.60000000E+01  1.00800000E+00  1.00800000E+00  1.60000000E+01  1.00800000E+00
  1.00800000E+00  1.60000000E+01  1.00800000E+00  1.00800000E+00  1.60000000E+01
  1.00800000E+00  1.00800000E+00  1.60000000E+01  1.00800000E+00  1.00800000E+00
  1.60000000E+01  1.00800000E+00  1.00800000E+00  1.60000000E+01  1.00800000E+00
  1.00800000E+00  1.60000000E+01  1.00800000E+00  1.00800000E+00  1.60000000E+01
  1.00800000E+00  1.00800000E+00  1.60000000E+01  1.00800000E+00  1.00800000E+00
  1.60000000E+01  1.00800000E+00  1.00800000E+00  1.60000000E+01  1.00800000E+00
  1.00800000E+00  1.60000000E+01  1.00800000E+00  1.00800000E+00  1.60000000E+01
  1.00800000E+00  1.00800000E+00  1.60000000E+01  1.00800000E+00  1.00800000E+00
  1.60000000E+01  1.00800000E+00  1.00800000E+00  1.60000000E+01  1.00800000E+00
  1.00800000E+00  1.60000000E+01  1.00800000E+00  1.00800000E+00  1.60000000E+01
  1.00800000E+00  1.00800000E+00  1.60000000E+01  1.00800000E+00  1.00800000E+00
  1.60000000E+01  1.00800000E+00  1.00800000E+00  1.60000000E+01  1.00800000E+00
  1.00800000E+00  1.60000000E+01  1.00800000E+00  1.00800000E+00  1.60000000E+01
  1.00800000E+00  1.00800000E+00  1.60000000E+01  1.00800000E+00  1.00800000E+00
  1.60000000E+01  1.00800000E+00  1.00800000E+00  1.60000000E+01  1.00800000E+00
  1.00800000E+00  1.60000000E+01  1.00800000E+00  1.00800000E+00  1.60000000E+01
  1.00800000E+00  1.00800000E+00  1.60000000E+01  1.00800000E+00  1.00800000E+00
  1.60000000E+01  1.00800000E+00  1.00800000E+00  1.60000000E+01  1.00800000E+00
  1.00800000E+00  1.60000000E+01  1.00800000E+00  1.00800000E+00  1.60000000E+01
  1.00800000E+00  1.00800000E+00  1.60000000E+01  1.00800000E+00  1.00800000E+00
  1.60000000E+01  1.00800000E+00  1.00800000E+00  1.60000000E+01  1.00800000E+00
  1.00800000E+00  1.60000000E+01  1.00800000E+00  1.00800000E+00  1.60000000E+01
  1.00800000E+00  1.00800000E+00  1.60000000E+01  1.00800000E+00  1.00800000E+00
  1.60000000E+01  1.00800000E+00  1.00800000E+00  1.60000000E+01  1.00800000E+00
  1.00800000E+00  1.60000000E+01  1.00800000E+00  1.00800000E+00  1.60000000E+01
  1.00800000E+00  1.00800000E+00  1.60000000E+01  1.00800000E+00  1.00800000E+00
  1.60000000E+01  1.00800000E+00  1.00800000E+00  1.60000000E+01  1.00800000E+00
  1.00800000E+00  1.60000000E+01  1.00800000E+00  1.00800000E+00  1.60000000E+01
  1.00800000E+00  1.00800000E+00  1.60000000E+01  1.00800000E+00  1.00800000E+00
  1.60000000E+01  1.00800000E+00  1.00800000E+00  1.60000000E+01  1.00800000E+00
  1.00800000E+00  1.60000000E+01  1.00800000E+00  1.00800000E+00  1.60000000E+01
  1.00800000E+00  1.00800000E+00  1.60000000E+01  1.00800000E+00  1.00800000E+00
  1.60000000E+01  1.00800000E+00  1.00800000E+00  1.60000000E+01  1.00800000E+00
  1.00800000E+00  1.60000000E+01  1.00800000E+00  1.00800000E+00  1.60000000E+01
  1.00800000E+00  1.00800000E+00  1.60000000E+01  1.00800000E+00  1.00800000E+00
  1.60000000E+01  1.00800000E+00  1.00800000E+00  1.60000000E+01  1.00800000E+00
  1.00800000E+00  1.60000000E+01  1.00800000E+00  1.00800000E+00  1.60000000E+01
  1.00800000E+00  1.00800000E+00  1.60000000E+01  1.00800000E+00  1.00800000E+00
  1.60000000E+01  1.00800000E+00  1.00800000E+00  1.60000000E+01  1.00800000E+00
  1.00800000E+00  1.60000000E+01  1.00800000E+00  1.00800000E+00  1.60000000E+01
  1.00800000E+00  1.00800000E+00  1.60000000E+01  1.00800000E+00  1.00800000E+00
  1.60000000E+01  1.00800000E+00  1.00800000E+00  1.60000000E+01  1.00800000E+00
  1.00800000E+00  1.60000000E+01  1.00800000E+00  1.00800000E+00  1.60000000E+01
  1.00800000E+00  1.00800000E+00  1.60000000E+01  1.00800000E+00  1.00800000E+00
  1.60000000E+01  1.00800000E+00  1.00800000E+00  1.60000000E+01  1.00800000E+00
  1.00800000E+00  1.60000000E+01  1.00800000E+00  1.00800000E+00  1.60000000E+01
  1.00800000E+00  1.00800000E+00  1.60000000E+01  1.00800000E+00  1.00800000E+00
  1.60000000E+01  1.00800000E+00  1.00800000E+00  1.60000000E+01  1.00800000E+00
  1.00800000E+00  1.60000000E+01  1.00800000E+00  1.00800000E+00  1.60000000E+01
  1.00800000E+00  1.00800000E+00  1.60000000E+01  1.00800000E+00  1.00800000E+00
  1.60000000E+01  1.00800000E+00  1.00800000E+00  1.60000000E+01  1.00800000E+00
  1.00800000E+00  1.60000000E+01  1.00800000E+00  1.00800000E+00  1.60000000E+01
  1.00800000E+00  1.00800000E+00  1.60000000E+01  1.00800000E+00  1.00800000E+00
  1.60000000E+01  1.00800000E+00  1.00800000E+00  1.60000000E+01  1.00800000E+00
  1.00800000E+00  1.60000000E+01  1.00800000E+00  1.00800000E+00  1.60000000E+01
  1.00800000E+00  1.00800000E+00  1.60000000E+01  1.00800000E+00  1.00800000E+00
  1.60000000E+01  1.00800000E+00  1.00800000E+00  1.60000000E+01  1.00800000E+00
  1.00800000E+00  1.60000000E+01  1.00800000E+00  1.00800000E+00  1.60000000E+01
  1.00800000E+00  1.00800000E+00  1.60000000E+01  1.00800000E+00  1.00800000E+00
  1.60000000E+01  1.00800000E+00  1.00800000E+00  1.60000000E+01  1.00800000E+00
  1.00800000E+00  1.60000000E+01  1.00800000E+00  1.00800000E+00  1.60000000E+01
  1.00800000E+00  1.00800000E+00  1.60000000E+01  1.00800000E+00  1.00800000E+00
  1.60000000E+01  1.00800000E+00  1.00800000E+00  1.60000000E+01  1.00800000E+00
  1.00800000E+00  1.60000000E+01  1.00800000E+00  1.00800000E+00  1.60000000E+01
  1.00800000E+00  1.00800000E+00  1.60000000E+01  1.00800000E+00  1.00800000E+00
  1.60000000E+01  1.00800000E+00  1.00800000E+00  1.60000000E+01  1.00800000E+00
  1.00800000E+00  1.60000000E+01  1.00800000E+00  1.00800000E+00  1.60000000E+01
  1.00800000E+00  1.00800000E+00  1.60000000E+01  1.00800000E+00  1.00800000E+00
  1.60000000E+01  1.00800000E+00  1.00800000E+00  1.60000000E+01  1.00800000E+00
  1.00800000E+00  1.60000000E+01  1.00800000E+00  1.00800000E+00  1.60000000E+01
  1.00800000E+00  1.00800000E+00  1.60000000E+01  1.00800000E+00  1.00800000E+00
  1.60000000E+01  1.00800000E+00  1.00800000E+00  1.60000000E+01  1.00800000E+00
  1.00800000E+00  1.60000000E+01  1.00800000E+00  1.00800000E+00  1.60000000E+01
  1.00800000E+00  1.00800000E+00  1.60000000E+01  1.00800000E+00  1.00800000E+00
  1.60000000E+01  1.00800000E+00  1.00800000E+00  1.60000000E+01  1.00800000E+00
  1.00800000E+00  1.60000000E+01  1.00800000E+00  1.00800000E+00  1.60000000E+01
  1.00800000E+00  1.00800000E+00  1.60000000E+01  1.00800000E+00  1.00800000E+00
  1.60000000E+01  1.00800000E+00  1.00800000E+00  1.60000000E+01  1.00800000E+00
  1.00800000E+00  1.60000000E+01  1.00800000E+00  1.00800000E+00  1.60000000E+01
  1.00800000E+00  1.00800000E+00  1.60000000E+01  1.00800000E+00  1.00800000E+00
  1.60000000E+01  1.00800000E+00  1.00800000E+00  1.60000000E+01  1.00800000E+00
  1.00800000E+00  1.60000000E+01  1.00800000E+00  1.00800000E+00  1.60000000E+01
  1.00800000E+00  1.00800000E+00  1.60000000E+01  1.00800000E+00  1.00800000E+00
  1.60000000E+01  1.00800000E+00  1.00800000E+00  1.60000000E+01  1.00800000E+00
  1.00800000E+00  1.60000000E+01  1.00800000E+00  1.00800000E+00  1.60000000E+01
  1.00800000E+00  1.00800000E+00  1.60000000E+01  1.00800000E+00  1.00800000E+00
  1.60000000E+01  1.00800000E+00  1.00800000E+00  1.60000000E+01  1.00800000E+00
  1.00800000E+00  1.60000000E+01  1.00800000E+00  1.00800000E+00  1.60000000E+01
  1.00800000E+00  1.00800000E+00  1.60000000E+01  1.00800000E+00  1.00800000E+00
  1.60000000E+01  1.00800000E+00  1.00800000E+00  1.60000000E+01  1.00800000E+00
  1.00800000E+00  1.60000000E+01  1.00800000E+00  1.00800000E+00  1.60000000E+01
  1.00800000E+00  1.00800000E+00  1.60000000E+01  1.00800000E+00  1.00800000E+00
  1.60000000E+01  1.00800000E+00  1.00800000E+00  1.60000000E+01  1.00800000E+00
  1.00800000E+00  1.60000000E+01  1.00800000E+00  1.00800000E+00  1.60000000E+01
  1.00800000E+00  1.00800000E+00  1.60000000E+01  1.00800000E+00  1.00800000E+00
  1.60000000E+01  1.00800000E+00  1.00800000E+00  1.60000000E+01  1.00800000E+00
  1.00800000E+00  1.60000000E+01  1.00800000E+00  1.00800000E+00  1.60000000E+01
  1.00800000E+00  1.00800000E+00  1.60000000E+01  1.00800000E+00  1.00800000E+00
  1.60000000E+01  1.00800000E+00  1.00800000E+00  1.60000000E+01  1.00800000E+00
  1.00800000E+00  1.60000000E+01  1.00800000E+00  1.00800000E+00  1.60000000E+01
  1.00800000E+00  1.00800000E+00  1.60000000E+01  1.00800000E+00  1.00800000E+00
  1.60000000E+01  1.00800000E+00  1.00800000E+00  1.60000000E+01  1.00800000E+00
  1.00800000E+00  1.60000000E+01  1.00800000E+00  1.00800000E+00  1.60000000E+01
  1.00800000E+00  1.00800000E+00  1.60000000E+01  1.00800000E+00  1.00800000E+00
  1.60000000E+01  1.00800000E+00  1.00800000E+00  1.60000000E+01  1.00800000E+00
  1.00800000E+00  1.60000000E+01  1.00800000E+00  1.00800000E+00  1.60000000E+01
  1.00800000E+00  1.00800000E+00  1.60000000E+01  1.00800000E+00  1.00800000E+00
  1.60000000E+01  1.00800000E+00  1.00800000E+00  1.60000000E+01  1.00800000E+00
  1.00800000E+00  1.60000000E+01  1.00800000E+00  1.00800000E+00  1.60000000E+01
  1.00800000E+00  1.00800000E+00  1.60000000E+01  1.00800000E+00  1.00800000E+00
  1.60000000E+01  1.00800000E+00  1.00800000E+00  1.60000000E+01  1.00800000E+00
  1.00800000E+00  1.60000000E+01  1.00800000E+00  1.00800000E+00  1.60000000E+01
  1.00800000E+00  1.00800000E+00  1.60000000E+01  1.00800000E+00  1.00800000E+00
  1.60000000E+01  1.00800000E+00  1.00800000E+00  1.60000000E+01  1.00800000E+00
  1.00800000E+00  1.60000000E+01  1.00800000E+00  1.00800000E+00  1.60000000E+01
  1.00800000E+00  1.00800000E+00  1.60000000E+01  1.00800000E+00  1.00800000E+00
  1.60000000E+01  1.00800000E+00  1.00800000E+00  1.60000000E+01  1.00800000E+00
  1.00800000E+00  1.60000000E+01  1.00800000E+00  1.00800000E+00  1.60000000E+01
  1.00800000E+00  1.00800000E+00  1.60000000E+01  1.00800000E+00  1.00800000E+00
  1.60000000E+01  1.00800000E+00  1.00800000E+00  1.60000000E+01  1.00800000E+00
  1.00800000E+00  1.60000000E+01  1.00800000E+00  1.00800000E+00  1.60000000E+01
  1.00800000E+00  1.00800000E+00  1.60000000E+01  1.00800000E+00  1.00800000E+00
  1.60000000E+01  1.00800000E+00  1.00800000E+00  1.60000000E+01  1.00800000E+00
  1.00800000E+00  1.60000000E+01  1.00800000E+00  1.00800000E+00  1.60000000E+01
  1.00800000E+00  1.00800000E+00  1.60000000E+01  1.00800000E+00  1.00800000E+00
  1.60000000E+01  1.00800000E+00  1.00800000E+00  1.60000000E+01  1.00800000E+00
  1.00800000E+00  1.60000000E+01  1.00800000E+00  1.00800000E+00  1.60000000E+01
  1.00800000E+00  1.00800000E+00  1.60000000E+01  1.00800000E+00  1.00800000E+00
  1.60000000E+01  1.00800000E+00  1.00800000E+00  1.60000000E+01  1.00800000E+00
  1.00800000E+00  1.60000000E+01  1.00800000E+00  1.00800000E+00  1.60000000E+01
  1.00800000E+00  1.00800000E+00  1.60000000E+01  1.00800000E+00  1.00800000E+00
  1.60000000E+01  1.00800000E+00  1.00800000E+00  1.60000000E+01  1.00800000E+00
  1.00800000E+00  1.60000000E+01  1.00800000E+00  1.00800000E+00  1.60000000E+01
  1.00800000E+00  1.00800000E+00  1.60000000E+01  1.00800000E+00  1.00800000E+00
  1.60000000E+01  1.00800000E+00  1.00800000E+00  1.60000000E+01  1.00800000E+00
  1.00800000E+00  1.60000000E+01  1.00800000E+00  1.00800000E+00  1.60000000E+01
  1.00800000E+00  1.00800000E+00  1.60000000E+01  1.00800000E+00  1.00800000E+00
  1.60000000E+01  1.00800000E+00  1.00800000E+00  1.60000000E+01  1.00800000E+00
  1.00800000E+00  1.60000000E+01  1.00800000E+00  1.00800000E+00  1.60000000E+01
  1.00800000E+00  1.00800000E+00  1.60000000E+01  1.00800000E+00  1.00800000E+00
  1.60000000E+01  1.00800000E+00  1.00800000E+00  1.60000000E+01  1.00800000E+00
  1.00800000E+00  1.60000000E+01  1.00800000E+00  1.00800000E+00  1.60000000E+01
  1.00800000E+00  1.00800000E+00  1.60000000E+01  1.00800000E+00  1.00800000E+00
  1.60000000E+01  1.00800000E+00  1.00800000E+00  1.60000000E+01  1.00800000E+00
  1.00800000E+00  1.60000000E+01  1.00800000E+00  1.00800000E+00  1.60000000E+01
  1.00800000E+00  1.00800000E+00  1.60000000E+01  1.00800000E+00  1.00800000E+00
  1.60000000E+01  1.00800000E+00  1.00800000E+00  1.60000000E+01  1.00800000E+00
  1.00800000E+00  1.60000000E+01  1.00800000E+00  1.00800000E+00  1.60000000E+01
  1.00800000E+00  1.00800000E+00  1.60000000E+01  1.00800000E+00  1.00800000E+00
  1.60000000E+01  1.00800000E+00  1.00800000E+00  1.60000000E+01  1.00800000E+00
  1.00800000E+00  1.60000000E+01  1.00800000E+00  1.00800000E+00  1.60000000E+01
  1.00800000E+00  1.00800000E+00  1.60000000E+01  1.00800000E+00  1.00800000E+00
  1.60000000E+01  1.00800000E+00  1.00800000E+00  1.60000000E+01  1.00800000E+00
  1.00800000E+00  1.60000000E+01  1.00800000E+00  1.00800000E+00  1.60000000E+01
  1.00800000E+00  1.00800000E+00  1.60000000E+01  1.00800000E+00  1.00800000E+00
  1.60000000E+01  1.00800000E+00  1.00800000E+00  1.60000000E+01  1.00800000E+00
  1.00800000E+00  1.60000000E+01  1.00800000E+00  1.00800000E+00  1.60000000E+01
  1.00800000E+00  1.00800000E+00  1.60000000E+01  1.00800000E+00  1.00800000E+00
  1.60000000E+01  1.00800000E+00  1.00800000E+00  1.60000000E+01  1.00800000E+00
  1.00800000E+00  1.60000000E+01  1.00800000E+00  1.00800000E+00  1.60000000E+01
  1.00800000E+00  1.00800000E+00  1.60000000E+01  1.00800000E+00  1.00800000E+00
  1.60000000E+01  1.00800000E+00  1.00800000E+00  1.60000000E+01  1.00800000E+00
  1.00800000E+00  1.60000000E+01  1.00800000E+00  1.00800000E+00  1.60000000E+01
  1.00800000E+00  1.00800000E+00  1.60000000E+01  1.00800000E+00  1.00800000E+00
  1.60000000E+01  1.00800000E+00  1.00800000E+00  1.60000000E+01  1.00800000E+00
  1.00800000E+00  1.60000000E+01  1.00800000E+00  1.00800000E+00  1.60000000E+01
  1.00800000E+00  1.00800000E+00  1.60000000E+01  1.00800000E+00  1.00800000E+00
  1.60000000E+01  1.00800000E+00  1.00800000E+00  1.60000000E+01  1.00800000E+00
  1.00800000E+00  1.60000000E+01  1.00800000E+00  1.00800000E+00  1.60000000E+01
  1.00800000E+00  1.00800000E+00  1.60000000E+01  1.00800000E+00  1.00800000E+00
  1.60000000E+01  1.00800000E+00  1.00800000E+00  1.60000000E+01  1.00800000E+00
  1.00800000E+00  1.60000000E+01  1.00800000E+00  1.00800000E+00  1.60000000E+01
  1.00800000E+00  1.00800000E+00  1.60000000E+01  1.00800000E+00  1.00800000E+00
  1.60000000E+01  1.00800000E+00  1.00800000E+00  1.60000000E+01  1.00800000E+00
  1.00800000E+00  1.60000000E+01  1.00800000E+00  1.00800000E+00  1.60000000E+01
  1.00800000E+00  1.00800000E+00  1.60000000E+01  1.00800000E+00  1.00800000E+00
  1.60000000E+01  1.00800000E+00  1.00800000E+00  1.60000000E+01  1.00800000E+00
  1.00800000E+00  1.60000000E+01  1.00800000E+00  1.00800000E+00  1.60000000E+01
  1.00800000E+00  1.00800000E+00  1.60000000E+01  1.00800000E+00  1.00800000E+00
  1.60000000E+01  1.00800000E+00  1.00800000E+00  1.60000000E+01  1.00800000E+00
  1.00800000E+00  1.60000000E+01  1.00800000E+00  1.00800000E+00  1.60000000E+01
  1.00800000E+00  1.00800000E+00  1.60000000E+01  1.00800000E+00  1.00800000E+00
  1.60000000E+01  1.00800000E+00  1.00800000E+00  1.60000000E+01  1.00800000E+00
  1.00800000E+00  1.60000000E+01  1.00800000E+00  1.00800000E+00  1.60000000E+01
  1.00800000E+00  1.00800000E+00  1.60000000E+01  1.00800000E+00  1.00800000E+00
  1.60000000E+01  1.00800000E+00  1.00800000E+00  1.60000000E+01  1.00800000E+00
  1.00800000E+00  1.60000000E+01  1.00800000E+00  1.00800000E+00  1.60000000E+01
  1.00800000E+00  1.00800000E+00  1.60000000E+01  1.00800000E+00  1.00800000E+00
  1.60000000E+01  1.00800000E+00  1.00800000E+00  1.60000000E+01  1.00800000E+00
  1.00800000E+00  1.60000000E+01  1.00800000E+00  1.00800000E+00  1.60000000E+01
  1.00800000E+00  1.00800000E+00  1.60000000E+01  1.00800000E+00  1.00800000E+00
  1.60000000E+01  1.00800000E+00  1.00800000E+00  1.60000000E+01  1.00800000E+00
  1.00800000E+00  1.60000000E+01  1.00800000E+00  1.00800000E+00  1.60000000E+01
  1.00800000E+00  1.00800000E+00  1.60000000E+01  1.00800000E+00  1.00800000E+00
  1.60000000E+01  1.00800000E+00  1.00800000E+00  1.60000000E+01  1.00800000E+00
  1.00800000E+00  1.60000000E+01  1.00800000E+00  1.00800000E+00  1.60000000E+01
  1.00800000E+00  1.00800000E+00  1.60000000E+01  1.00800000E+00  1.00800000E+00
  1.60000000E+01  1.00800000E+00  1.00800000E+00  1.60000000E+01  1.00800000E+00
  1.00800000E+00  1.60000000E+01  1.00800000E+00  1.00800000E+00  1.60000000E+01
  1.00800000E+00  1.00800000E+00  1.60000000E+01  1.00800000E+00  1.00800000E+00
  1.60000000E+01  1.00800000E+00  1.00800000E+00  1.60000000E+01  1.00800000E+00
  1.00800000E+00  1.60000000E+01  1.00800000E+00  1.00800000E+00  1.60000000E+01
  1.00800000E+00  1.00800000E+00  1.60000000E+01  1.00800000E+00  1.00800000E+00
  1.60000000E+01  1.00800000E+00  1.00800000E+00  1.60000000E+01  1.00800000E+00
  1.00800000E+00  1.60000000E+01  1.00800000E+00  1.00800000E+00  1.60000000E+01
  1.00800000E+00  1.00800000E+00  1.60000000E+01  1.00800000E+00  1.00800000E+00
  1.60000000E+01  1.00800000E+00  1.00800000E+00  1.60000000E+01  1.00800000E+00
  1.00800000E+00  1.60000000E+01  1.00800000E+00  1.00800000E+00  1.60000000E+01
  1.00800000E+00  1.00800000E+00  1.60000000E+01  1.00800000E+00  1.00800000E+00
  1.60000000E+01  1.00800000E+00  1.00800000E+00  1.60000000E+01  1.00800000E+00
  1.00800000E+00  1.60000000E+01  1.00800000E+00  1.00800000E+00  1.60000000E+01
  1.00800000E+00  1.00800000E+00  1.60000000E+01  1.00800000E+00  1.00800000E+00
  1.60000000E+01  1.00800000E+00  1.00800000E+00  1.60000000E+01  1.00800000E+00
  1.00800000E+00  1.60000000E+01  1.00800000E+00  1.00800000E+00  1.60000000E+01
  1.00800000E+00  1.00800000E+00  1.60000000E+01  1.00800000E+00  1.00800000E+00
  1.60000000E+01  1.00800000E+00  1.00800000E+00  1.60000000E+01  1.00800000E+00
  1.00800000E+00  1.60000000E+01  1.00800000E+00  1.00800000E+00  1.60000000E+01
  1.00800000E+00  1.00800000E+00  1.60000000E+01  1.00800000E+00  1.00800000E+00
  1.60000000E+01  1.00800000E+00  1.00800000E+00  1.60000000E+01  1.00800000E+00
  1.00800000E+00  1.60000000E+01  1.00800000E+00  1.00800000E+00  1.60000000E+01
  1.00800000E+00  1.00800000E+00  1.60000000E+01  1.00800000E+00  1.00800000E+00
  1.60000000E+01  1.00800000E+00  1.00800000E+00  1.60000000E+01  1.00800000E+00
  1.00800000E+00  1.60000000E+01  1.00800000E+00  1.00800000E+00  1.60000000E+01
  1.00800000E+00  1.00800000E+00  1.60000000E+01  1.00800000E+00  1.00800000E+00
  1.60000000E+01  1.00800000E+00  1.00800000E+00  1.60000000E+01  1.00800000E+00
  1.00800000E+00  1.60000000E+01  1.00800000E+00  1.00800000E+00  1.60000000E+01
  1.00800000E+00  1.00800000E+00  1.60000000E+01  1.00800000E+00  1.00800000E+00
  1.60000000E+01  1.00800000E+00  1.00800000E+00  1.60000000E+01  1.00800000E+00
  1.00800000E+00  1.60000000E+01  1.00800000E+00  1.00800000E+00  1.60000000E+01
  1.00800000E+00  1.00800000E+00  1.60000000E+01  1.00800000E+00  1.00800000E+00
  1.60000000E+01  1.00800000E+00  1.00800000E+00  1.60000000E+01  1.00800000E+00
  1.00800000E+00  1.60000000E+01  1.00800000E+00  1.00800000E+00  1.60000000E+01
  1.00800000E+00  1.00800000E+00  1.60000000E+01  1.00800000E+00  1.00800000E+00
  1.60000000E+01  1.00800000E+00  1.00800000E+00  1.60000000E+01  1.00800000E+00
  1.00800000E+00  1.60000000E+01  1.00800000E+00  1.00800000E+00  1.60000000E+01
  1.00800000E+00  1.00800000E+00  1.60000000E+01  1.00800000E+00  1.00800000E+00
  1.60000000E+01  1.00800000E+00  1.00800000E+00  1.60000000E+01  1.00800000E+00
  1.00800000E+00  1.60000000E+01  1.00800000E+00  1.00800000E+00  1.60000000E+01
  1.00800000E+00  1.00800000E+00  1.60000000E+01  1.00800000E+00  1.00800000E+00
  1.60000000E+01  1.00800000E+00  1.00800000E+00  1.60000000E+01  1.00800000E+00
  1.00800000E+00  1.60000000E+01  1.00800000E+00  1.00800000E+00  1.60000000E+01
  1.00800000E+00  1.00800000E+00  1.60000000E+01  1.00800000E+00  1.00800000E+00
  1.60000000E+01  1.00800000E+00  1.00800000E+00  1.60000000E+01  1.00800000E+00
  1.00800000E+00  1.60000000E+01  1.00800000E+00  1.00800000E+00  1.60000000E+01
  1.00800000E+00  1.00800000E+00  1.60000000E+01  1.00800000E+00  1.00800000E+00
  1.60000000E+01  1.00800000E+00  1.00800000E+00  1.60000000E+01  1.00800000E+00
  1.00800000E+00  1.60000000E+01  1.00800000E+00  1.00800000E+00  1.60000000E+01
  1.00800000E+00  1.00800000E+00  1.60000000E+01  1.00800000E+00  1.00800000E+00
  1.60000000E+01  1.00800000E+00  1.00800000E+00  1.60000000E+01  1.00800000E+00
  1.00800000E+00  1.60000000E+01  1.00800000E+00  1.00800000E+00  1.60000000E+01
  1.00800000E+00  1.00800000E+00  1.60000000E+01  1.00800000E+00  1.00800000E+00
  1.60000000E+01  1.00800000E+00  1.00800000E+00  1.60000000E+01  1.00800000E+00
  1.00800000E+00  1.60000000E+01  1.00800000E+00  1.00800000E+00  1.60000000E+01
  1.00800000E+00  1.00800000E+00  1.60000000E+01  1.00800000E+00  1.00800000E+00
  1.60000000E+01  1.00800000E+00  1.00800000E+00  1.60000000E+01  1.00800000E+00
  1.00800000E+00  1.60000000E+01  1.00800000E+00  1.00800000E+00  1.60000000E+01
  1.00800000E+00  1.00800000E+00  1.60000000E+01  1.00800000E+00  1.00800000E+00
  1.60000000E+01  1.00800000E+00  1.00800000E+00  1.60000000E+01  1.00800000E+00
  1.00800000E+00  1.60000000E+01  1.00800000E+00  1.00800000E+00  1.60000000E+01
  1.00800000E+00  1.00800000E+00  1.60000000E+01  1.00800000E+00  1.00800000E+00
  1.60000000E+01  1.00800000E+00  1.00800000E+00  1.60000000E+01  1.00800000E+00
  1.00800000E+00  1.60000000E+01  1.00800000E+00  1.00800000E+00  1.60000000E+01
  1.00800000E+00  1.00800000E+00  1.60000000E+01  1.00800000E+00  1.00800000E+00
  1.60000000E+01  1.00800000E+00  1.00800000E+00  1.60000000E+01  1.00800000E+00
  1.00800000E+00  1.60000000E+01  1.00800000E+00  1.00800000E+00  1.60000000E+01
  1.00800000E+00  1.00800000E+00  1.60000000E+01  1.00800000E+00  1.00800000E+00
  1.60000000E+01  1.00800000E+00  1.00800000E+00  1.60000000E+01  1.00800000E+00
  1.00800000E+00  1.60000000E+01  1.00800000E+00  1.00800000E+00  1.60000000E+01
  1.00800000E+00  1.00800000E+00  1.60000000E+01  1.00800000E+00  1.00800000E+00
  1.60000000E+01  1.00800000E+00  1.00800000E+00  1.60000000E+01  1.00800000E+00
  1.00800000E+00  1.60000000E+01  1.00800000E+00  1.00800000E+00  1.60000000E+01
  1.00800000E+00  1.00800000E+00  1.60000000E+01  1.00800000E+00  1.00800000E+00
  1.60000000E+01  1.00800000E+00  1.00800000E+00  1.60000000E+01  1.00800000E+00
  1.00800000E+00  1.60000000E+01  1.00800000E+00  1.00800000E+00  1.60000000E+01
  1.00800000E+00  1.00800000E+00  1.60000000E+01  1.00800000E+00  1.00800000E+00
  1.60000000E+01  1.00800000E+00  1.00800000E+00  1.60000000E+01  1.00800000E+00
  1.00800000E+00  1.60000000E+01  1.00800000E+00  1.00800000E+00  1.60000000E+01
  1.00800000E+00  1.00800000E+00  1.60000000E+01  1.00800000E+00  1.00800000E+00
  1.60000000E+01  1.00800000E+00  1.00800000E+00  1.60000000E+01  1.00800000E+00
  1.00800000E+00  1.60000000E+01  1.00800000E+00  1.00800000E+00  1.60000000E+01
  1.00800000E+00  1.00800000E+00  1.60000000E+01  1.00800000E+00  1.00800000E+00
  1.60000000E+01  1.00800000E+00  1.00800000E+00  1.60000000E+01  1.00800000E+00
  1.00800000E+00  1.60000000E+01  1.00800000E+00  1.00800000E+00  1.60000000E+01
  1.00800000E+00  1.00800000E+00  1.60000000E+01  1.00800000E+00  1.00800000E+00
  1.60000000E+01  1.00800000E+00  1.00800000E+00  1.60000000E+01  1.00800000E+00
  1.00800000E+00  1.60000000E+01  1.00800000E+00  1.00800000E+00  1.60000000E+01
  1.00800000E+00  1.00800000E+00  1.60000000E+01  1.00800000E+00  1.00800000E+00
  1.60000000E+01  1.00800000E+00  1.00800000E+00  1.60000000E+01  1.00800000E+00
  1.00800000E+00  1.60000000E+01  1.00800000E+00  1.00800000E+00  1.60000000E+01
  1.00800000E+00  1.00800000E+00  1.60000000E+01  1.00800000E+00  1.00800000E+00
  1.60000000E+01  1.00800000E+00  1.00800000E+00  1.60000000E+01  1.00800000E+00
  1.00800000E+00  1.60000000E+01  1.00800000E+00  1.00800000E+00  1.60000000E+01
  1.00800000E+00  1.00800000E+00  1.60000000E+01  1.00800000E+00  1.00800000E+00
  1.60000000E+01  1.00800000E+00  1.00800000E+00  1.60000000E+01  1.00800000E+00
  1.00800000E+00  1.60000000E+01  1.00800000E+00  1.00800000E+00  1.60000000E+01
  1.00800000E+00  1.00800000E+00  1.60000000E+01  1.00800000E+00  1.00800000E+00
  1.60000000E+01  1.00800000E+00  1.00800000E+00  1.60000000E+01  1.00800000E+00
  1.00800000E+00  1.60000000E+01  1.00800000E+00  1.00800000E+00  1.60000000E+01
  1.00800000E+00  1.00800000E+00  1.60000000E+01  1.00800000E+00  1.00800000E+00
  1.60000000E+01  1.00800000E+00  1.00800000E+00  1.60000000E+01  1.00800000E+00
  1.00800000E+00  1.60000000E+01  1.00800000E+00  1.00800000E+00  1.60000000E+01
  1.00800000E+00  1.00800000E+00  1.60000000E+01  1.00800000E+00  1.00800000E+00
  1.60000000E+01  1.00800000E+00  1.00800000E+00  1.60000000E+01  1.00800000E+00
  1.00800000E+00  1.60000000E+01  1.00800000E+00  1.00800000E+00  1.60000000E+01
  1.00800000E+00  1.00800000E+00  1.60000000E+01  1.00800000E+00  1.00800000E+00
  1.60000000E+01  1.00800000E+00  1.00800000E+00  1.60000000E+01  1.00800000E+00
  1.00800000E+00  1.60000000E+01  1.00800000E+00  1.00800000E+00  1.60000000E+01
  1.00800000E+00  1.00800000E+00  1.60000000E+01  1.00800000E+00  1.00800000E+00
  1.60000000E+01  1.00800000E+00  1.00800000E+00  1.60000000E+01  1.00800000E+00
  1.00800000E+00  1.60000000E+01  1.00800000E+00  1.00800000E+00  1.60000000E+01
  1.00800000E+00  1.00800000E+00  1.60000000E+01  1.00800000E+00  1.00800000E+00
  1.60000000E+01  1.00800000E+00  1.00800000E+00  1.60000000E+01  1.00800000E+00
  1.00800000E+00  1.60000000E+01  1.00800000E+00  1.00800000E+00  1.60000000E+01
  1.00800000E+00  1.00800000E+00  1.60000000E+01  1.00800000E+00  1.00800000E+00
  1.60000000E+01  1.00800000E+00  1.00800000E+00  1.60000000E+01  1.00800000E+00
  1.00800000E+00  1.60000000E+01  1.00800000E+00  1.00800000E+00  1.60000000E+01
  1.00800000E+00  1.00800000E+00  1.60000000E+01  1.00800000E+00  1.00800000E+00
  1.60000000E+01  1.00800000E+00  1.00800000E+00  1.60000000E+01  1.00800000E+00
  1.00800000E+00  1.60000000E+01  1.00800000E+00  1.00800000E+00  1.60000000E+01
  1.00800000E+00  1.00800000E+00  1.60000000E+01  1.00800000E+00  1.00800000E+00
  1.60000000E+01  1.00800000E+00  1.00800000E+00  1.60000000E+01  1.00800000E+00
  1.00800000E+00  1.60000000E+01  1.00800000E+00  1.00800000E+00  1.60000000E+01
  1.00800000E+00  1.00800000E+00  1.60000000E+01  1.00800000E+00  1.00800000E+00
  1.60000000E+01  1.00800000E+00  1.00800000E+00  1.60000000E+01  1.00800000E+00
  1.00800000E+00  1.60000000E+01  1.00800000E+00  1.00800000E+00  1.60000000E+01
  1.00800000E+00  1.00800000E+00  1.60000000E+01  1.00800000E+00  1.00800000E+00
  1.60000000E+01  1.00800000E+00  1.00800000E+00  1.60000000E+01  1.00800000E+00
  1.00800000E+00  1.60000000E+01  1.00800000E+00  1.00800000E+00  1.60000000E+01
  1.00800000E+00  1.00800000E+00  1.60000000E+01  1.00800000E+00  1.00800000E+00
  1.60000000E+01  1.00800000E+00  1.00800000E+00  1.60000000E+01  1.00800000E+00
  1.00800000E+00  1.60000000E+01  1.00800000E+00  1.00800000E+00  1.60000000E+01
  1.00800000E+00  1.00800000E+00  1.60000000E+01  1.00800000E+00  1.00800000E+00
  1.60000000E+01  1.00800000E+00  1.00800000E+00  1.60000000E+01  1.00800000E+00
  1.00800000E+00  1.60000000E+01  1.00800000E+00  1.00800000E+00  1.60000000E+01
  1.00800000E+00  1.00800000E+00  1.60000000E+01  1.00800000E+00  1.00800000E+00
  1.60000000E+01  1.00800000E+00  1.00800000E+00  1.60000000E+01  1.00800000E+00
  1.00800000E+00  1.60000000E+01  1.00800000E+00  1.00800000E+00  1.60000000E+01
  1.00800000E+00  1.00800000E+00  1.60000000E+01  1.00800000E+00  1.00800000E+00
  1.60000000E+01  1.00800000E+00  1.00800000E+00  1.60000000E+01  1.00800000E+00
  1.00800000E+00  1.60000000E+01  1.00800000E+00  1.00800000E+00  1.60000000E+01
  1.00800000E+00  1.00800000E+00  1.60000000E+01  1.00800000E+00  1.00800000E+00
  1.60000000E+01  1.00800000E+00  1.00800000E+00  1.60000000E+01  1.00800000E+00
  1.00800000E+00  1.60000000E+01  1.00800000E+00  1.00800000E+00  1.60000000E+01
  1.00800000E+00  1.00800000E+00  1.60000000E+01  1.00800000E+00  1.00800000E+00
  1.60000000E+01  1.00800000E+00  1.00800000E+00  1.60000000E+01  1.00800000E+00
  1.00800000E+00  1.60000000E+01  1.00800000E+00  1.00800000E+00  1.60000000E+01
  1.00800000E+00  1.00800000E+00  1.60000000E+01  1.00800000E+00  1.00800000E+00
  1.60000000E+01  1.00800000E+00  1.00800000E+00  1.60000000E+01  1.00800000E+00
  1.00800000E+00  1.60000000E+01  1.00800000E+00  1.00800000E+00  1.60000000E+01
  1.00800000E+00  1.00800000E+00  1.60000000E+01  1.00800000E+00  1.00800000E+00
  1.60000000E+01  1.00800000E+00  1.00800000E+00  1.60000000E+01  1.00800000E+00
  1.00800000E+00  1.60000000E+01  1.00800000E+00  1.00800000E+00  1.60000000E+01
  1.00800000E+00  1.00800000E+00  1.60000000E+01  1.00800000E+00  1.00800000E+00
  1.60000000E+01  1.00800000E+00  1.00800000E+00  1.60000000E+01  1.00800000E+00
  1.00800000E+00  1.60000000E+01  1.00800000E+00  1.00800000E+00  1.60000000E+01
  1.00800000E+00  1.00800000E+00  1.60000000E+01  1.00800000E+00  1.00800000E+00
  1.60000000E+01  1.00800000E+00  1.00800000E+00  1.60000000E+01  1.00800000E+00
  1.00800000E+00  1.60000000E+01  1.00800000E+00  1.00800000E+00  1.60000000E+01
  1.00800000E+00  1.00800000E+00  1.60000000E+01  1.00800000E+00  1.00800000E+00
  1.60000000E+01  1.00800000E+00  1.00800000E+00  1.60000000E+01  1.00800000E+00
  1.00800000E+00  1.60000000E+01  1.00800000E+00  1.00800000E+00  1.60000000E+01
  1.00800000E+00  1.00800000E+00  1.60000000E+01  1.00800000E+00  1.00800000E+00
  1.60000000E+01  1.00800000E+00  1.00800000E+00  1.60000000E+01  1.00800000E+00
  1.00800000E+00  1.60000000E+01  1.00800000E+00  1.00800000E+00  1.60000000E+01
  1.00800000E+00  1.00800000E+00  1.60000000E+01  1.00800000E+00  1.00800000E+00
  1.60000000E+01  1.00800000E+00  1.00800000E+00  1.60000000E+01  1.00800000E+00
  1.00800000E+00  1.60000000E+01  1.00800000E+00  1.00800000E+00  1.60000000E+01
  1.00800000E+00  1.00800000E+00  1.60000000E+01  1.00800000E+00  1.00800000E+00
  1.60000000E+01  1.00800000E+00  1.00800000E+00  1.60000000E+01  1.00800000E+00
  1.00800000E+00  1.60000000E+01  1.00800000E+00  1.00800000E+00  1.60000000E+01
  1.00800000E+00  1.00800000E+00  1.60000000E+01  1.00800000E+00  1.00800000E+00
  1.60000000E+01  1.00800000E+00  1.00800000E+00  1.60000000E+01  1.00800000E+00
  1.00800000E+00  1.60000000E+01  1.00800000E+00  1.00800000E+00  1.60000000E+01
  1.00800000E+00  1.00800000E+00  1.60000000E+01  1.00800000E+00  1.00800000E+00
  1.60000000E+01  1.00800000E+00  1.00800000E+00  1.60000000E+01  1.00800000E+00
  1.00800000E+00  1.60000000E+01  1.00800000E+00  1.00800000E+00  1.60000000E+01
  1.00800000E+00  1.00800000E+00  1.60000000E+01  1.00800000E+00  1.00800000E+00
  1.60000000E+01  1.00800000E+00  1.00800000E+00  1.60000000E+01  1.00800000E+00
  1.00800000E+00  1.60000000E+01  1.00800000E+00  1.00800000E+00  1.60000000E+01
  1.00800000E+00  1.00800000E+00  1.60000000E+01  1.00800000E+00  1.00800000E+00
  1.60000000E+01  1.00800000E+00  1.00800000E+00  1.60000000E+01  1.00800000E+00
  1.00800000E+00  1.60000000E+01  1.00800000E+00  1.00800000E+00  1.60000000E+01
  1.00800000E+00  1.00800000E+00  1.60000000E+01  1.00800000E+00  1.00800000E+00
  1.60000000E+01  1.00800000E+00  1.00800000E+00  1.60000000E+01  1.00800000E+00
  1.00800000E+00  1.60000000E+01  1.00800000E+00  1.00800000E+00  1.60000000E+01
  1.00800000E+00  1.00800000E+00  1.60000000E+01  1.00800000E+00  1.00800000E+00
  1.60000000E+01  1.00800000E+00  1.00800000E+00  1.60000000E+01  1.00800000E+00
  1.00800000E+00  1.60000000E+01  1.00800000E+00  1.00800000E+00  1.60000000E+01
  1.00800000E+00  1.00800000E+00  1.60000000E+01  1.00800000E+00  1.00800000E+00
  1.60000000E+01  1.00800000E+00  1.00800000E+00  1.60000000E+01  1.00800000E+00
  1.00800000E+00  1.60000000E+01  1.00800000E+00  1.00800000E+00  1.60000000E+01
  1.00800000E+00  1.00800000E+00  1.60000000E+01  1.00800000E+00  1.00800000E+00
  1.60000000E+01  1.00800000E+00  1.00800000E+00  1.60000000E+01  1.00800000E+00
  1.00800000E+00  1.60000000E+01  1.00800000E+00  1.00800000E+00  1.60000000E+01
  1.00800000E+00  1.00800000E+00  1.60000000E+01  1.00800000E+00  1.00800000E+00
  1.60000000E+01  1.00800000E+00  1.00800000E+00  1.60000000E+01  1.00800000E+00
  1.00800000E+00  1.60000000E+01  1.00800000E+00  1.00800000E+00  1.60000000E+01
  1.00800000E+00  1.00800000E+00  1.60000000E+01  1.00800000E+00  1.00800000E+00
  1.60000000E+01  1.00800000E+00  1.00800000E+00  1.60000000E+01  1.00800000E+00
  1.00800000E+00  1.60000000E+01  1.00800000E+00  1.00800000E+00  1.60000000E+01
  1.00800000E+00  1.00800000E+00  1.60000000E+01  1.00800000E+00  1.00800000E+00
  1.60000000E+01  1.00800000E+00  1.00800000E+00  1.60000000E+01  1.00800000E+00
  1.00800000E+00  1.60000000E+01  1.00800000E+00  1.00800000E+00  1.60000000E+01
  1.00800000E+00  1.00800000E+00  1.60000000E+01  1.00800000E+00  1.00800000E+00
  1.60000000E+01  1.00800000E+00  1.00800000E+00  1.60000000E+01  1.00800000E+00
  1.00800000E+00  1.60000000E+01  1.00800000E+00  1.00800000E+00  1.60000000E+01
  1.00800000E+00  1.00800000E+00  1.60000000E+01  1.00800000E+00  1.00800000E+00
  1.60000000E+01  1.00800000E+00  1.00800000E+00  1.60000000E+01  1.00800000E+00
  1.00800000E+00  1.60000000E+01  1.00800000E+00  1.00800000E+00  1.60000000E+01
  1.00800000E+00  1.00800000E+00  1.60000000E+01  1.00800000E+00  1.00800000E+00
  1.60000000E+01  1.00800000E+00  1.00800000E+00  1.60000000E+01  1.00800000E+00
  1.00800000E+00  1.60000000E+01  1.00800000E+00  1.00800000E+00  1.60000000E+01
  1.00800000E+00  1.00800000E+00  1.60000000E+01  1.00800000E+00  1.00800000E+00
  1.60000000E+01  1.00800000E+00  1.00800000E+00  1.60000000E+01  1.00800000E+00
  1.00800000E+00  1.60000000E+01  1.00800000E+00  1.00800000E+00  1.60000000E+01
  1.00800000E+00  1.00800000E+00  1.60000000E+01  1.00800000E+00  1.00800000E+00
  1.60000000E+01  1.00800000E+00  1.00800000E+00  1.60000000E+01  1.00800000E+00
  1.00800000E+00  1.60000000E+01  1.00800000E+00  1.00800000E+00  1.60000000E+01
  1.00800000E+00  1.00800000E+00  1.60000000E+01  1.00800000E+00  1.00800000E+00
  1.60000000E+01  1.00800000E+00  1.00800000E+00  1.60000000E+01  1.00800000E+00
  1.00800000E+00  1.60000000E+01  1.00800000E+00  1.00800000E+00  1.60000000E+01
  1.00800000E+00  1.00800000E+00  1.60000000E+01  1.00800000E+00  1.00800000E+00
  1.60000000E+01  1.00800000E+00  1.00800000E+00  1.60000000E+01  1.00800000E+00
  1.00800000E+00  1.60000000E+01  1.00800000E+00  1.00800000E+00  1.60000000E+01
  1.00800000E+00  1.00800000E+00  1.60000000E+01  1.00800000E+00  1.00800000E+00
  1.60000000E+01  1.00800000E+00  1.00800000E+00  1.60000000E+01  1.00800000E+00
  1.00800000E+00  1.60000000E+01  1.00800000E+00  1.00800000E+00  1.60000000E+01
  1.00800000E+00  1.00800000E+00  1.60000000E+01  1.00800000E+00  1.00800000E+00
  1.60000000E+01  1.00800000E+00  1.00800000E+00  1.60000000E+01  1.00800000E+00
  1.00800000E+00  1.60000000E+01  1.00800000E+00  1.00800000E+00  1.60000000E+01
  1.00800000E+00  1.00800000E+00  1.60000000E+01  1.00800000E+00  1.00800000E+00
  1.60000000E+01  1.00800000E+00  1.00800000E+00  1.60000000E+01  1.00800000E+00
  1.00800000E+00  1.60000000E+01  1.00800000E+00  1.00800000E+00  1.60000000E+01
  1.00800000E+00  1.00800000E+00  1.60000000E+01  1.00800000E+00  1.00800000E+00
  1.60000000E+01  1.00800000E+00  1.00800000E+00  1.60000000E+01  1.00800000E+00
  1.00800000E+00  1.60000000E+01  1.00800000E+00  1.00800000E+00  1.60000000E+01
  1.00800000E+00  1.00800000E+00  1.60000000E+01  1.00800000E+00  1.00800000E+00
  1.60000000E+01  1.00800000E+00  1.00800000E+00  1.60000000E+01  1.00800000E+00
  1.00800000E+00  1.60000000E+01  1.00800000E+00  1.00800000E+00  1.60000000E+01
  1.00800000E+00  1.00800000E+00  1.60000000E+01  1.00800000E+00  1.00800000E+00
  1.60000000E+01  1.00800000E+00  1.00800000E+00  1.60000000E+01  1.00800000E+00
  1.00800000E+00  1.60000000E+01  1.00800000E+00  1.00800000E+00  1.60000000E+01
  1.00800000E+00  1.00800000E+00  1.60000000E+01  1.00800000E+00  1.00800000E+00
  1.60000000E+01  1.00800000E+00  1.00800000E+00  1.60000000E+01  1.00800000E+00
  1.00800000E+00  1.60000000E+01  1.00800000E+00  1.00800000E+00  1.60000000E+01
  1.00800000E+00  1.00800000E+00  1.60000000E+01  1.00800000E+00  1.00800000E+00
  1.60000000E+01  1.00800000E+00  1.00800000E+00  1.60000000E+01  1.00800000E+00
  1.00800000E+00  1.60000000E+01  1.00800000E+00  1.00800000E+00  1.60000000E+01
  1.00800000E+00  1.00800000E+00  1.60000000E+01  1.00800000E+00  1.00800000E+00
  1.60000000E+01  1.00800000E+00  1.00800000E+00  1.60000000E+01  1.00800000E+00
  1.00800000E+00  1.60000000E+01  1.00800000E+00  1.00800000E+00  1.60000000E+01
  1.00800000E+00  1.00800000E+00  1.60000000E+01  1.00800000E+00  1.00800000E+00
  1.60000000E+01  1.00800000E+00  1.00800000E+00  1.60000000E+01  1.00800000E+00
  1.00800000E+00  1.60000000E+01  1.00800000E+00  1.00800000E+00  1.60000000E+01
  1.00800000E+00  1.00800000E+00  1.60000000E+01  1.00800000E+00  1.00800000E+00
  1.60000000E+01  1.00800000E+00  1.00800000E+00  1.60000000E+01  1.00800000E+00
  1.00800000E+00  1.60000000E+01  1.00800000E+00  1.00800000E+00  1.60000000E+01
  1.00800000E+00  1.00800000E+00  1.60000000E+01  1.00800000E+00  1.00800000E+00
  1.60000000E+01  1.00800000E+00  1.00800000E+00  1.60000000E+01  1.00800000E+00
  1.00800000E+00  1.60000000E+01  1.00800000E+00  1.00800000E+00  1.60000000E+01
  1.00800000E+00  1.00800000E+00  1.60000000E+01  1.00800000E+00  1.00800000E+00
  1.60000000E+01  1.00800000E+00  1.00800000E+00  1.60000000E+01  1.00800000E+00
  1.00800000E+00  1.60000000E+01  1.00800000E+00  1.00800000E+00  1.60000000E+01
  1.00800000E+00  1.00800000E+00  1.60000000E+01  1.00800000E+00  1.00800000E+00
  1.60000000E+01  1.00800000E+00  1.00800000E+00  1.60000000E+01  1.00800000E+00
  1.00800000E+00  1.60000000E+01  1.00800000E+00  1.00800000E+00  1.60000000E+01
  1.00800000E+00  1.00800000E+00  1.60000000E+01  1.00800000E+00  1.00800000E+00
  1.60000000E+01  1.00800000E+00  1.00800000E+00  1.60000000E+01  1.00800000E+00
  1.00800000E+00  1.60000000E+01  1.00800000E+00  1.00800000E+00  1.60000000E+01
  1.00800000E+00  1.00800000E+00  1.60000000E+01  1.00800000E+00  1.00800000E+00
  1.60000000E+01  1.00800000E+00  1.00800000E+00  1.60000000E+01  1.00800000E+00
  1.00800000E+00  1.60000000E+01  1.00800000E+00  1.00800000E+00  1.60000000E+01
  1.00800000E+00  1.00800000E+00  1.60000000E+01  1.00800000E+00  1.00800000E+00
  1.60000000E+01  1.00800000E+00  1.00800000E+00  1.60000000E+01  1.00800000E+00
  1.00800000E+00  1.60000000E+01  1.00800000E+00  1.00800000E+00  1.60000000E+01
  1.00800000E+00  1.00800000E+00  1.60000000E+01  1.00800000E+00  1.00800000E+00
  1.60000000E+01  1.00800000E+00  1.00800000E+00  1.60000000E+01  1.00800000E+00
  1.00800000E+00  1.60000000E+01  1.00800000E+00  1.00800000E+00  1.60000000E+01
  1.00800000E+00  1.00800000E+00  1.60000000E+01  1.00800000E+00  1.00800000E+00
  1.60000000E+01  1.00800000E+00  1.00800000E+00  1.60000000E+01  1.00800000E+00
  1.00800000E+00  1.60000000E+01  1.00800000E+00  1.00800000E+00  1.60000000E+01
  1.00800000E+00  1.00800000E+00  1.60000000E+01  1.00800000E+00  1.00800000E+00
  1.60000000E+01  1.00800000E+00  1.00800000E+00  1.60000000E+01  1.00800000E+00
  1.00800000E+00  1.60000000E+01  1.00800000E+00  1.00800000E+00  1.60000000E+01
  1.00800000E+00  1.00800000E+00  1.60000000E+01  1.00800000E+00  1.00800000E+00
  1.60000000E+01  1.00800000E+00  1.00800000E+00  1.60000000E+01  1.00800000E+00
  1.00800000E+00  1.60000000E+01  1.00800000E+00  1.00800000E+00  1.60000000E+01
  1.00800000E+00  1.00800000E+00  1.60000000E+01  1.00800000E+00  1.00800000E+00
  1.60000000E+01  1.00800000E+00  1.00800000E+00  1.60000000E+01  1.00800000E+00
  1.00800000E+00  1.60000000E+01  1.00800000E+00  1.00800000E+00  1.60000000E+01
  1.00800000E+00  1.00800000E+00  1.60000000E+01  1.00800000E+00  1.00800000E+00
  1.60000000E+01  1.00800000E+00  1.00800000E+00  1.60000000E+01  1.00800000E+00
  1.00800000E+00  1.60000000E+01  1.00800000E+00  1.00800000E+00
%FLAG ATOM_TYPE_INDEX                                                           
%FORMAT(10I8)                                                                   
       1       2       3       2       1       3       2       1       3       2
       3       2       3       2       3       2       4       2       4       2
       4       5       5       5       5       5       5       5       5       5
       5       5       5       5       5       5       5       5       5       6
       7       8       9       9       8       9       9       8       9       9
       8       9       9       8       9       9       8       9       9       8
       9       9       8       9       9       8       9       9       8       9
       9       8       9       9       8       9       9       8       9       9
       8       9       9       8       9       9       8       9       9       8
       9       9       8       9       9       8       9       9       8       9
       9       8       9       9       8       9       9       8       9       9
       8       9       9       8       9       9       8       9       9       8
       9       9       8       9       9       8       9       9       8       9
       9       8       9       9       8       9       9       8       9       9
       8       9       9       8       9       9       8       9       9       8
       9       9       8       9       9       8       9       9       8       9
       9       8       9       9       8       9       9       8       9       9
       8       9       9       8       9       9       8       9       9       8
       9       9       8       9       9       8       9       9       8       9
       9       8       9       9       8       9       9       8       9       9
       8       9       9       8       9       9       8       9       9       8
       9       9       8       9       9       8       9       9       8       9
       9       8       9       9       8       9       9       8       9       9
       8       9       9       8       9       9       8       9       9       8
       9       9       8       9       9       8       9       9       8       9
       9       8       9       9       8       9       9       8       9       9
       8       9       9       8       9       9       8       9       9       8
       9       9       8       9       9       8       9       9       8       9
       9       8       9       9       8       9       9       8       9       9
       8       9       9       8       9       9       8       9       9       8
       9       9       8       9       9       8       9       9       8       9
       9       8       9       9       8       9       9       8       9       9
       8       9       9       8       9       9       8       9       9       8
       9       9       8       9       9       8       9       9       8       9
       9       8       9       9       8       9       9       8       9       9
       8       9       9       8       9       9       8       9       9       8
       9       9       8       9       9       8       9       9       8       9
       9       8       9       9       8       9       9       8       9       9
       8       9       9       8       9       9       8       9       9       8
       9       9       8       9       9       8       9       9       8       9
       9       8       9       9       8       9       9       8       9       9
       8       9       9       8       9       9       8       9       9       8
       9       9       8       9       9       8       9       9       8       9
       9       8       9       9       8       9       9       8       9       9
       8       9       9       8       9       9       8       9       9       8
       9       9       8       9       9       8       9       9       8       9
       9       8       9       9       8       9       9       8       9       9
       8       9       9       8       9       9       8       9       9       8
       9       9       8       9       9       8       9       9       8       9
       9       8       9       9       8       9       9       8       9       9
       8       9       9       8       9       9       8       9       9       8
       9       9       8       9       9       8       9       9       8       9
       9       8       9       9       8       9       9       8       9       9
       8       9       9       8       9       9       8       9       9       8
       9       9       8       9       9       8       9       9       8       9
       9       8       9       9       8       9       9       8       9       9
       8       9       9       8       9       9       8       9       9       8
       9       9       8       9       9       8       9       9       8       9
       9       8       9       9       8       9       9       8       9       9
       8       9       9       8       9       9       8       9       9       8
       9       9       8       9       9       8       9       9       8       9
       9       8       9       9       8       9       9       8       9       9
       8       9       9       8       9       9       8       9       9       8
       9       9       8       9       9       8       9       9       8       9
       9       8       9       9       8       9       9       8       9       9
       8       9       9       8       9       9       8       9       9       8
       9       9       8       9       9       8       9       9       8       9
       9       8       9       9       8       9       9       8       9       9
       8       9       9       8       9       9       8       9       9       8
       9       9       8       9       9       8       9       9       8       9
       9       8       9       9       8       9       9       8       9       9
       8       9       9       8       9       9       8       9       9       8
       9       9       8       9       9       8       9       9       8       9
       9       8       9       9       8       9       9       8       9       9
       8       9       9       8       9       9       8       9       9       8
       9       9       8       9       9       8       9       9       8       9
       9       8       9       9       8       9       9       8       9       9
       8       9       9       8       9       9       8       9       9       8
       9       9       8       9       9       8       9       9       8       9
       9       8       9       9       8       9       9       8       9       9
       8       9       9       8       9       9       8       9       9       8
       9       9       8       9       9       8       9       9       8       9
       9       8       9       9       8       9       9       8       9       9
       8       9       9       8       9       9       8       9       9       8
       9       9       8       9       9       8       9       9       8       9
       9       8       9       9       8       9       9       8       9       9
       8       9       9       8       9       9       8       9       9       8
       9       9       8       9       9       8       9       9       8       9
       9       8       9       9       8       9       9       8       9       9
       8       9       9       8       9       9       8       9       9       8
       9       9       8       9       9       8       9       9       8       9
       9       8       9       9       8       9       9       8       9       9
       8       9       9       8       9       9       8       9       9       8
       9       9       8       9       9       8       9       9       8       9
       9       8       9       9       8       9       9       8       9       9
       8       9       9       8       9       9       8       9       9       8
       9       9       8       9       9       8       9       9       8       9
       9       8       9       9       8       9       9       8       9       9
       8       9       9       8       9       9       8       9       9       8
       9       9       8       9       9       8       9       9       8       9
       9       8       9       9       8       9       9       8       9       9
       8       9       9       8       9       9       8       9       9       8
       9       9       8       9       9       8       9       9       8       9
       9       8       9       9       8       9       9       8       9       9
       8       9       9       8       9       9       8       9       9       8
       9       9       8       9       9       8       9       9       8       9
       9       8       9       9       8       9       9       8       9       9
       8       9       9       8       9       9       8       9       9       8
       9       9       8       9       9       8       9       9       8       9
       9       8       9       9       8       9       9       8       9       9
       8       9       9       8       9       9       8       9       9       8
       9       9       8       9       9       8       9       9       8       9
       9       8       9       9       8       9       9       8       9       9
       8       9       9       8       9       9       8       9       9       8
       9       9       8       9       9       8       9       9       8       9
       9       8       9       9       8       9       9       8       9       9
       8       9       9       8       9       9       8       9       9       8
       9       9       8       9       9       8       9       9       8       9
       9       8       9       9       8       9       9       8       9       9
       8       9       9       8       9       9       8       9       9       8
       9       9       8       9       9       8       9       9       8       9
       9       8       9       9       8       9       9       8       9       9
       8       9       9       8       9       9       8       9       9       8
       9       9       8       9       9       8       9       9       8       9
       9       8       9       9       8       9       9       8       9       9
       8       9       9       8       9       9       8       9       9       8
       9       9       8       9       9       8       9       9       8       9
       9       8       9       9       8       9       9       8       9       9
       8       9       9       8       9       9       8       9       9       8
       9       9       8       9       9       8       9       9       8       9
       9       8       9       9       8       9       9       8       9       9
       8       9       9       8       9       9       8       9       9       8
       9       9       8       9       9       8       9       9       8       9
       9       8       9       9       8       9       9       8       9       9
       8       9       9       8       9       9       8       9       9       8
       9       9       8       9       9       8       9       9       8       9
       9       8       9       9       8       9       9       8       9       9
       8       9       9       8       9       9       8       9       9       8
       9       9       8       9       9       8       9       9       8       9
       9       8       9       9       8       9       9       8       9       9
       8       9       9       8       9       9       8       9       9       8
       9       9       8       9       9       8       9       9       8       9
       9       8       9       9       8       9       9       8       9       9
       8       9       9       8       9       9       8       9       9       8
       9       9       8       9       9       8       9       9       8       9
       9       8       9       9       8       9       9       8       9       9
       8       9       9       8       9       9       8       9       9       8
       9       9       8       9       9       8       9       9       8       9
       9       8       9       9       8       9       9       8       9       9
       8       9       9       8       9       9       8       9       9       8
       9       9       8       9       9       8       9       9       8       9
       9       8       9       9       8       9       9       8       9       9
       8       9       9       8       9       9       8       9       9       8
       9       9       8       9       9       8       9       9       8       9
       9       8       9       9       8       9       9       8       9       9
       8       9       9       8       9       9       8       9       9       8
       9       9       8       9       9       8       9       9       8       9
       9       8       9       9       8       9       9       8       9       9
       8       9       9       8       9       9       8       9       9       8
       9       9       8       9       9       8       9       9       8       9
       9       8       9       9       8       9       9       8       9       9
       8       9       9       8       9       9       8       9       9       8
       9       9       8       9       9       8       9       9       8       9
       9       8       9       9       8       9       9       8       9       9
       8       9       9       8       9       9       8       9       9       8
       9       9       8       9       9       8       9       9       8       9
       9       8       9       9       8       9       9       8       9       9
       8       9       9       8       9       9       8       9       9       8
       9       9       8       9       9       8       9       9       8       9
       9       8       9       9       8       9       9       8       9       9
       8       9       9       8       9       9       8       9       9       8
       9       9       8       9       9       8       9       9       8       9
       9       8       9       9       8       9       9       8       9       9
       8       9       9       8       9       9       8       9       9       8
       9       9       8       9       9       8       9       9       8       9
       9       8       9       9       8       9       9       8       9       9
       8       9       9       8       9       9       8       9       9       8
       9       9       8       9       9       8       9       9       8       9
       9       8       9       9       8       9       9       8       9       9
       8       9       9       8       9       9       8       9       9       8
       9       9       8       9       9       8       9       9       8       9
       9       8       9       9       8       9       9       8       9       9
       8       9       9       8       9       9       8       9       9       8
       9       9       8       9       9       8       9       9       8       9
       9       8       9       9       8       9       9       8       9       9
       8       9       9       8       9       9       8       9       9       8
       9       9       8       9       9       8       9       9       8       9
       9       8       9       9       8       9       9       8       9       9
       8       9       9       8       9       9       8       9       9       8
       9       9       8       9       9       8       9       9       8       9
       9       8       9       9       8       9       9       8       9       9
       8       9       9       8       9       9       8       9       9       8
       9       9       8       9       9       8       9       9       8       9
       9       8       9       9       8       9       9       8       9       9
       8       9       9       8       9       9       8       9       9       8
       9       9       8       9       9       8       9       9       8       9
       9       8       9       9       8       9       9       8       9       9
       8       9       9       8       9       9       8       9       9       8
       9       9       8       9       9       8       9       9       8       9
       9       8       9       9       8       9       9       8       9       9
       8       9       9       8       9       9       8       9       9       8
       9       9       8       9       9       8       9       9       8       9
       9       8       9       9       8       9       9       8       9       9
       8       9       9       8       9       9       8       9       9       8
       9       9       8       9       9       8       9       9       8       9
       9       8       9       9       8       9       9       8       9       9
       8       9       9       8       9       9       8       9       9       8
       9       9       8       9       9       8       9       9       8       9
       9       8       9       9       8       9       9       8       9       9
       8       9       9       8       9       9       8       9       9       8
       9       9       8       9       9       8       9       9       8       9
       9       8       9       9       8       9       9       8       9       9
       8       9       9       8       9       9       8       9       9       8
       9       9       8       9       9       8       9       9       8       9
       9       8       9       9       8       9       9       8       9       9
       8       9       9       8       9       9       8       9       9       8
       9       9       8       9       9       8       9       9       8       9
       9       8       9       9       8       9       9       8       9       9
       8       9       9       8       9       9       8       9       9       8
       9       9       8       9       9       8       9       9       8       9
       9       8       9       9       8       9       9       8       9       9
       8       9       9       8       9       9       8       9       9       8
       9       9       8       9       9       8       9       9       8       9
       9       8       9       9       8       9       9       8       9       9
       8       9       9       8       9       9       8       9       9       8
       9       9       8       9       9       8       9       9       8       9
       9       8       9       9       8       9       9       8       9       9
       8       9       9       8       9       9       8       9       9       8
       9       9       8       9       9       8       9       9       8       9
       9       8       9       9       8       9       9       8       9       9
       8       9       9       8       9       9       8       9       9       8
       9       9       8       9       9       8       9       9       8       9
       9       8       9       9       8       9       9       8       9       9
       8       9       9       8       9       9       8       9       9       8
       9       9       8       9       9       8       9       9       8       9
       9       8       9       9       8       9       9       8       9       9
       8       9       9       8       9       9       8       9       9       8
       9       9       8       9       9       8       9       9       8       9
       9       8       9       9       8       9       9       8       9       9
       8       9       9       8       9       9       8       9       9       8
       9       9       8       9       9       8       9       9       8       9
       9       8       9       9       8       9       9       8       9       9
       8       9       9       8       9       9       8       9       9       8
       9       9       8       9       9       8       9       9       8       9
       9       8       9       9       8       9       9       8       9       9
       8       9       9       8       9       9       8       9       9       8
       9       9       8       9       9       8       9       9       8       9
       9       8       9       9       8       9       9       8       9       9
       8       9       9       8       9       9       8       9       9       8
       9       9       8       9       9       8       9       9       8       9
       9       8       9       9       8       9       9       8       9       9
       8       9       9       8       9       9       8       9       9       8
       9       9       8       9       9       8       9       9       8       9
       9       8       9       9       8       9       9       8       9       9
       8       9       9       8       9       9       8       9       9       8
       9       9       8       9       9       8       9       9       8       9
       9       8       9       9       8       9       9       8       9       9
       8       9       9       8       9       9       8       9       9       8
       9       9       8       9       9       8       9       9       8       9
       9       8       9       9       8       9       9       8       9       9
       8       9       9       8       9       9       8       9       9       8
       9       9       8       9       9       8       9       9       8       9
       9       8       9       9       8       9       9       8       9       9
       8       9       9       8       9       9       8       9       9       8
       9       9       8       9       9       8       9       9       8       9
       9       8       9       9       8       9       9       8       9       9
       8       9       9       8       9       9       8       9       9       8
       9       9       8       9       9       8       9       9       8       9
       9       8       9       9       8       9       9       8       9       9
       8       9       9       8       9       9       8       9       9       8
       9       9       8       9       9       8       9       9       8       9
       9       8       9       9       8       9       9       8       9       9
       8       9       9       8       9       9       8       9       9       8
       9       9       8       9       9       8       9       9       8       9
       9       8       9       9       8       9       9       8       9       9
       8       9       9       8       9       9       8       9       9       8
       9       9       8       9       9       8       9       9       8       9
       9       8       9       9       8       9       9       8       9       9
       8       9       9       8       9       9       8       9       9       8
       9       9       8       9       9       8       9       9       8       9
       9       8       9       9       8       9       9       8       9       9
       8       9       9       8       9       9       8       9       9       8
       9       9       8       9       9       8       9       9       8       9
       9       8       9       9       8       9       9       8       9       9
       8       9       9       8       9       9       8       9       9       8
       9       9       8       9       9       8       9       9       8       9
       9       8       9       9       8       9       9       8       9       9
       8       9       9       8       9       9       8       9       9       8
       9       9       8       9       9       8       9       9       8       9
       9       8       9       9       8       9       9       8       9       9
       8       9       9       8       9       9       8       9       9       8
       9       9       8       9       9       8       9       9       8       9
       9       8       9       9       8       9       9       8       9       9
       8       9       9       8       9       9       8       9       9       8
       9       9       8       9       9       8       9       9       8       9
       9       8       9       9       8       9       9       8       9       9
       8       9       9       8       9       9       8       9       9       8
       9       9       8       9       9       8       9       9       8       9
       9       8       9       9       8       9       9       8       9       9
       8       9       9       8       9       9       8       9       9       8
       9       9       8       9       9       8       9       9       8       9
       9       8       9       9       8       9       9       8       9       9
       8       9       9       8       9       9       8       9       9       8
       9       9       8       9       9       8       9       9       8       9
       9       8       9       9       8       9       9       8       9       9
       8       9       9       8       9       9       8       9       9       8
       9       9       8       9       9       8       9       9       8       9
       9       8       9       9       8       9       9       8       9       9
       8       9       9       8       9       9       8       9       9       8
       9       9       8       9       9       8       9       9       8       9
       9       8       9       9       8       9       9       8       9       9
       8       9       9       8       9       9       8       9       9       8
       9       9       8       9       9       8       9       9       8       9
       9       8       9       9       8       9       9       8       9       9
       8       9       9       8       9       9       8       9       9       8
       9       9       8       9       9       8       9       9       8       9
       9       8       9       9       8       9       9       8       9       9
       8       9       9       8       9       9       8       9       9       8
       9       9       8       9       9       8       9       9       8       9
       9       8       9       9       8       9       9       8       9       9
       8       9       9       8       9       9       8       9       9       8
       9       9       8       9       9       8       9       9       8       9
       9       8       9       9       8       9       9       8       9       9
       8       9       9       8       9       9       8       9       9       8
       9       9       8       9       9       8       9       9       8       9
       9       8       9       9       8       9       9       8       9       9
       8       9       9       8       9       9       8       9       9       8
       9       9       8       9       9       8       9       9       8       9
       9       8       9       9       8       9       9       8       9       9
       8       9       9       8       9       9       8       9       9       8
       9       9       8       9       9       8       9       9       8       9
       9       8       9       9       8       9       9       8       9       9
       8       9       9       8       9       9       8       9       9       8
       9       9       8       9       9       8       9       9       8       9
       9       8       9       9       8       9       9       8       9       9
       8       9       9       8       9       9       8       9       9       8
       9       9       8       9       9       8       9       9       8       9
       9       8       9       9       8       9       9       8       9       9
       8       9       9       8       9       9       8       9       9       8
       9       9       8       9       9       8       9       9       8       9
       9       8       9       9       8       9       9       8       9       9
       8       9       9       8       9       9       8       9       9       8
       9       9       8       9       9       8       9       9       8       9
       9       8       9       9       8       9       9       8       9       9
       8       9       9       8       9       9       8       9       9       8
       9       9       8       9       9       8       9       9       8       9
       9       8       9       9       8       9       9       8       9       9
       8       9       9       8       9       9       8       9       9       8
       9       9       8       9       9       8       9       9       8       9
       9       8       9       9       8       9       9       8       9       9
       8       9       9       8       9       9       8       9       9       8
       9       9       8       9       9       8       9       9       8       9
       9       8       9       9       8       9       9       8       9       9
       8       9       9       8       9       9       8       9       9       8
       9       9       8       9       9       8       9       9       8       9
       9       8       9       9       8       9       9       8       9       9
       8       9       9       8       9       9       8       9       9       8
       9       9       8       9       9       8       9       9       8       9
       9       8       9       9       8       9       9       8       9       9
       8       9       9       8       9       9       8       9       9       8
       9       9       8       9       9       8       9       9       8       9
       9       8       9       9       8       9       9       8       9       9
       8       9       9       8       9       9       8       9       9       8
       9       9       8       9       9       8       9       9       8       9
       9       8       9       9       8       9       9       8       9       9
       8       9       9       8       9       9       8       9       9       8
       9       9       8       9       9       8       9       9       8       9
       9       8       9       9       8       9       9       8       9       9
       8       9       9       8       9       9       8       9       9       8
       9       9       8       9       9       8       9       9       8       9
       9       8       9       9       8       9       9       8       9       9
       8       9       9       8       9       9       8       9       9       8
       9       9       8       9       9       8       9       9       8       9
       9       8       9       9       8       9       9       8       9       9
       8       9       9       8       9       9       8       9       9       8
       9       9       8       9       9       8       9       9       8       9
       9       8       9       9       8       9       9       8       9       9
       8       9       9       8       9       9       8       9       9       8
       9       9       8       9       9       8       9       9       8       9
       9       8       9       9       8       9       9       8       9       9
       8       9       9       8       9       9       8       9       9       8
       9       9       8       9       9       8       9       9       8       9
       9       8       9       9       8       9       9       8       9       9
       8       9       9       8       9       9       8       9       9       8
       9       9       8       9       9       8       9       9       8       9
       9       8       9       9       8       9       9       8       9       9
       8       9       9       8       9       9       8       9       9       8
       9       9       8       9       9       8       9       9       8       9
       9       8       9       9       8       9       9       8       9       9
       8       9       9       8       9       9       8       9       9       8
       9       9       8       9       9       8       9       9       8       9
       9       8       9       9       8       9       9       8       9       9
       8       9       9       8       9       9       8       9       9       8
       9       9       8       9       9       8       9       9       8       9
       9       8       9       9       8       9       9       8       9       9
       8       9       9       8       9       9       8       9       9       8
       9       9       8       9       9       8       9       9       8       9
       9       8       9       9       8       9       9       8       9       9
       8       9       9       8       9       9       8       9       9       8
       9       9       8       9       9       8       9       9       8       9
       9       8       9       9       8       9       9       8       9       9
       8       9       9       8       9       9       8       9       9       8
       9       9       8       9       9       8       9       9       8       9
       9       8       9       9       8       9       9       8       9       9
       8       9       9       8       9       9       8       9       9       8
       9       9       8       9       9       8       9       9       8       9
       9       8       9       9       8       9       9       8       9       9
       8       9       9       8       9       9       8       9       9       8
       9       9       8       9       9       8       9       9       8       9
       9       8       9       9       8       9       9       8       9       9
       8       9       9       8       9       9       8       9       9       8
       9       9       8       9       9       8       9       9       8       9
       9       8       9       9       8       9       9       8       9       9
       8       9       9       8       9       9       8       9       9       8
       9       9       8       9       9       8       9       9       8       9
       9       8       9       9       8       9       9       8       9       9
       8       9       9       8       9       9       8       9       9       8
       9       9       8       9       9       8       9       9       8       9
       9       8       9       9       8       9       9       8       9       9
       8       9       9       8       9       9       8       9       9       8
       9       9       8       9       9       8       9       9       8       9
       9       8       9       9       8       9       9       8       9       9
       8       9       9       8       9       9       8       9       9       8
       9       9       8       9       9       8       9       9       8       9
       9       8       9       9       8       9       9       8       9       9
       8       9       9       8       9       9       8       9       9       8
       9       9       8       9       9       8       9       9       8       9
       9       8       9       9       8       9       9       8       9       9
       8       9       9       8       9       9       8       9       9       8
       9       9       8       9       9       8       9       9       8       9
       9       8       9       9       8       9       9       8       9       9
       8       9       9       8       9       9       8       9       9       8
       9       9       8       9       9       8       9       9       8       9
       9       8       9       9       8       9       9       8       9       9
       8       9       9       8       9       9       8       9       9       8
       9       9       8       9       9       8       9       9       8       9
       9       8       9       9       8       9       9       8       9       9
       8       9       9       8       9       9       8       9       9       8
       9       9       8       9       9       8       9       9       8       9
       9       8       9       9       8       9       9       8       9       9
       8       9       9       8       9       9       8       9       9       8
       9       9       8       9       9       8       9       9       8       9
       9       8       9       9       8       9       9       8       9       9
       8       9       9       8       9       9       8       9       9       8
       9       9       8       9       9       8       9       9       8       9
       9       8       9       9       8       9       9       8       9       9
       8       9       9       8       9       9       8       9       9       8
       9       9       8       9       9       8       9       9       8       9
       9       8       9       9       8       9       9       8       9       9
       8       9       9       8       9       9       8       9       9       8
       9       9       8       9       9       8       9       9       8       9
       9       8       9       9       8       9       9       8       9       9
       8       9       9       8       9       9       8       9       9       8
       9       9       8       9       9       8       9       9       8       9
       9       8       9       9       8       9       9       8       9       9
       8       9       9       8       9       9       8       9       9       8
       9       9       8       9       9       8       9       9       8       9
       9       8       9       9       8       9       9       8       9       9
       8       9       9       8       9       9       8       9       9       8
       9       9       8       9       9       8       9       9       8       9
       9       8       9       9       8       9       9       8       9       9
       8       9       9       8       9       9       8       9       9       8
       9       9       8       9       9       8       9       9       8       9
       9       8       9       9       8       9       9       8       9       9
       8       9       9       8       9       9       8       9       9       8
       9       9       8       9       9       8       9       9       8       9
       9       8       9       9       8       9       9       8       9       9
       8       9       9       8       9       9       8       9       9       8
       9       9       8       9       9       8       9       9       8       9
       9       8       9       9       8       9       9       8       9       9
       8       9       9       8       9       9       8       9       9       8
       9       9       8       9       9       8       9       9       8       9
       9       8       9       9       8       9       9       8       9       9
       8       9       9       8       9       9       8       9       9       8
       9       9       8       9       9       8       9       9       8       9
       9       8       9       9       8       9       9       8       9       9
       8       9       9       8       9       9       8       9       9       8
       9       9       8       9       9       8       9       9       8       9
       9       8       9       9       8       9       9       8       9       9
       8       9       9       8       9       9       8       9       9       8
       9       9       8       9       9       8       9       9       8       9
       9       8       9       9       8       9       9       8       9       9
       8       9       9       8       9       9       8       9       9       8
       9       9       8       9       9       8       9       9       8       9
       9       8       9       9       8       9       9       8       9       9
       8       9       9       8       9       9       8       9       9       8
       9       9       8       9       9       8       9       9       8       9
       9       8       9       9       8       9       9       8       9       9
       8       9       9       8       9       9       8       9       9       8
       9       9       8       9       9       8       9       9       8       9
       9       8       9       9       8       9       9       8       9       9
       8       9       9       8       9       9       8       9       9       8
       9       9       8       9       9       8       9       9       8       9
       9       8       9       9       8       9       9       8       9       9
       8       9       9       8       9       9       8       9       9       8
       9       9       8       9       9       8       9       9       8       9
       9       8       9       9       8       9       9       8       9       9
       8       9       9       8       9       9       8       9       9       8
       9       9       8       9       9       8       9       9       8       9
       9       8       9       9       8       9       9       8       9       9
       8       9       9       8       9       9       8       9       9       8
       9       9       8       9       9       8       9       9       8       9
       9       8       9       9       8       9       9       8       9       9
       8       9       9       8       9       9       8       9       9       8
       9       9       8       9       9       8       9       9       8       9
       9       8       9       9       8       9       9       8       9       9
       8       9       9       8       9       9       8       9       9       8
       9       9       8       9       9       8       9       9       8       9
       9       8       9       9       8       9       9       8       9       9
       8       9       9       8       9       9       8       9       9       8
       9       9       8       9       9       8       9       9       8       9
       9       8       9       9       8       9       9       8       9       9
       8       9       9       8       9       9       8       9       9       8
       9       9       8       9       9       8       9       9       8       9
       9       8       9       9       8       9       9       8       9       9
       8       9       9       8       9       9       8       9       9       8
       9       9       8       9       9       8       9       9       8       9
       9       8       9       9       8       9       9       8       9       9
       8       9       9       8       9       9       8       9       9       8
       9       9       8       9       9       8       9       9       8       9
       9       8       9       9       8       9       9       8       9       9
       8       9       9       8       9       9       8       9       9       8
       9       9       8       9       9       8       9       9       8       9
       9       8       9       9       8       9       9       8       9       9
       8       9       9       8       9       9       8       9       9       8
       9       9       8       9       9       8       9       9       8       9
       9       8       9       9       8       9       9       8       9       9
       8       9       9       8       9       9       8       9       9       8
       9       9       8       9       9       8       9       9       8       9
       9       8       9       9       8       9       9       8       9       9
       8       9       9       8       9       9       8       9       9       8
       9       9       8       9       9       8       9       9       8       9
       9       8       9       9       8       9       9       8       9       9
       8       9       9       8       9       9       8       9       9       8
       9       9       8       9       9       8       9       9       8       9
       9       8       9       9       8       9       9       8       9       9
       8       9       9       8       9       9       8       9       9       8
       9       9       8       9       9       8       9       9       8       9
       9       8       9       9       8       9       9       8       9       9
       8       9       9       8       9       9       8       9       9       8
       9       9       8       9       9       8       9       9       8       9
       9       8       9       9       8       9       9       8       9       9
       8       9       9       8       9       9       8       9       9       8
       9       9       8       9       9       8       9       9       8       9
       9       8       9       9       8       9       9       8       9       9
       8       9       9       8       9       9       8       9       9       8
       9       9       8       9       9       8       9       9       8       9
       9       8       9       9       8       9       9       8       9       9
       8       9       9       8       9       9       8       9       9       8
       9       9       8       9       9       8       9       9       8       9
       9       8       9       9       8       9       9       8       9       9
       8       9       9       8       9       9       8       9       9       8
       9       9       8       9       9       8       9       9       8       9
       9       8       9       9       8       9       9       8       9       9
       8       9       9       8       9       9       8       9       9       8
       9       9       8       9       9       8       9       9       8       9
       9       8       9       9       8       9       9       8       9       9
       8       9       9       8       9       9       8       9       9       8
       9       9       8       9       9       8       9       9       8       9
       9       8       9       9       8       9       9       8       9       9
       8       9       9       8       9       9       8       9       9       8
       9       9       8       9       9       8       9       9       8       9
       9       8       9       9       8       9       9       8       9       9
       8       9       9       8       9       9       8       9       9       8
       9       9       8       9       9       8       9       9       8       9
       9       8       9       9       8       9       9       8       9       9
       8       9       9       8       9       9       8       9       9       8
       9       9       8       9       9       8       9       9       8       9
       9       8       9       9       8       9       9       8       9       9
       8       9       9       8       9       9       8       9       9       8
       9       9       8       9       9       8       9       9       8       9
       9       8       9       9       8       9       9       8       9       9
       8       9       9       8       9       9       8       9       9       8
       9       9       8       9       9       8       9       9       8       9
       9       8       9       9       8       9       9       8       9       9
       8       9       9       8       9       9       8       9       9       8
       9       9       8       9       9       8       9       9       8       9
       9       8       9       9       8       9       9       8       9       9
       8       9       9       8       9       9       8       9       9       8
       9       9       8       9       9       8       9       9       8       9
       9       8       9       9       8       9       9       8       9       9
       8       9       9       8       9       9       8       9       9       8
       9       9       8       9       9       8       9       9       8       9
       9       8       9       9       8       9       9       8       9       9
       8       9       9       8       9       9       8       9       9       8
       9       9       8       9       9       8       9       9       8       9
       9       8       9       9       8       9       9       8       9       9
       8       9       9       8       9       9       8       9       9       8
       9       9       8       9       9       8       9       9       8       9
       9       8       9       9       8       9       9       8       9       9
       8       9       9       8       9       9       8       9       9       8
       9       9       8       9       9       8       9       9       8       9
       9       8       9       9       8       9       9       8       9       9
       8       9       9       8       9       9       8       9       9       8
       9       9       8       9       9       8       9       9       8       9
       9       8       9       9       8       9       9       8       9       9
       8       9       9       8       9       9       8       9       9       8
       9       9       8       9       9       8       9       9       8       9
       9       8       9       9       8       9       9       8       9       9
       8       9       9       8       9       9       8       9       9       8
       9       9       8       9       9       8       9       9       8       9
       9       8       9       9       8       9       9       8       9       9
       8       9       9       8       9       9       8       9       9       8
       9       9       8       9       9       8       9       9       8       9
       9       8       9       9       8       9       9       8       9       9
       8       9       9       8       9       9       8       9       9       8
       9       9       8       9       9       8       9       9       8       9
       9       8       9       9       8       9       9       8       9       9
       8       9       9       8       9       9       8       9       9       8
       9       9       8       9       9       8       9       9       8       9
       9       8       9       9       8       9       9       8       9       9
       8       9       9       8       9       9       8       9       9       8
       9       9       8       9       9       8       9       9       8       9
       9       8       9       9       8       9       9       8       9       9
       8       9       9       8       9       9       8       9       9       8
       9       9       8       9       9       8       9       9       8       9
       9       8       9       9       8       9       9       8       9       9
       8       9       9       8       9       9       8       9       9       8
       9       9       8       9       9       8       9       9       8       9
       9       8       9       9       8       9       9       8       9       9
       8       9       9       8       9       9       8       9       9       8
       9       9       8       9       9       8       9       9       8       9
       9       8       9       9       8       9       9       8       9       9
       8       9       9       8       9       9       8       9       9       8
       9       9       8       9       9       8       9       9       8       9
       9       8       9       9       8       9       9       8       9       9
       8       9       9       8       9       9       8       9       9       8
       9       9       8       9       9       8       9       9       8       9
       9       8       9       9       8       9       9       8       9       9
       8       9       9       8       9       9       8       9       9       8
       9       9       8       9       9       8       9       9       8       9
       9       8       9       9       8       9       9       8       9       9
       8       9       9       8       9       9       8       9       9       8
       9       9       8       9       9       8       9       9       8       9
       9       8       9       9       8       9       9       8       9       9
       8       9       9       8       9       9       8       9       9       8
       9       9       8       9       9       8       9       9       8       9
       9       8       9       9       8       9       9       8       9       9
       8       9       9       8       9       9       8       9       9       8
       9       9       8       9       9       8       9       9       8       9
       9       8       9       9       8       9       9       8       9       9
       8       9       9       8       9       9       8       9       9       8
       9       9       8       9       9       8       9       9       8       9
       9       8       9       9       8       9       9       8       9       9
       8       9       9       8       9       9       8       9       9       8
       9       9       8       9       9       8       9       9       8       9
       9       8       9       9       8       9       9       8       9       9
       8       9       9       8       9       9       8       9       9       8
       9       9       8       9       9       8       9       9       8       9
       9       8       9       9       8       9       9       8       9       9
       8       9       9       8       9       9       8       9       9       8
       9       9       8       9       9       8       9       9       8       9
       9       8       9       9       8       9       9       8       9       9
       8       9       9       8       9       9       8       9       9       8
       9       9       8       9       9       8       9       9       8       9
       9       8       9       9       8       9       9       8       9       9
       8       9       9       8       9       9       8       9       9       8
       9       9       8       9       9       8       9       9       8       9
       9       8       9       9       8       9       9       8       9       9
       8       9       9       8       9       9       8       9       9       8
       9       9       8       9       9       8       9       9       8       9
       9       8       9       9       8       9       9       8       9       9
       8       9       9       8       9       9       8       9       9       8
       9       9       8       9       9       8       9       9       8       9
       9       8       9       9       8       9       9       8       9       9
       8       9       9       8       9       9       8       9       9       8
       9       9       8       9       9       8       9       9       8       9
       9       8       9       9       8       9       9       8       9       9
       8       9       9       8       9       9       8       9       9       8
       9       9       8       9       9       8       9       9       8       9
       9       8       9       9       8       9       9       8       9       9
       8       9       9       8       9       9       8       9       9       8
       9       9       8       9       9       8       9       9       8       9
       9       8       9       9       8       9       9       8       9       9
       8       9       9       8       9       9       8       9       9       8
       9       9       8       9       9       8       9       9       8       9
       9       8       9       9       8       9       9       8       9       9
       8       9       9       8       9       9       8       9       9       8
       9       9       8       9       9       8       9       9       8       9
       9       8       9       9       8       9       9       8       9       9
       8       9       9       8       9       9       8       9       9       8
       9       9       8       9       9       8       9       9       8       9
       9       8       9       9       8       9       9       8       9       9
       8       9       9       8       9       9       8       9       9       8
       9       9       8       9       9       8       9       9       8       9
       9       8       9       9       8       9       9       8       9       9
       8       9       9       8       9       9       8       9       9       8
       9       9       8       9       9       8       9       9       8       9
       9       8       9       9       8       9       9       8       9       9
       8       9       9       8       9       9       8       9       9       8
       9       9       8       9       9       8       9       9       8       9
       9       8       9       9       8       9       9       8       9       9
       8       9       9       8       9       9       8       9       9       8
       9       9       8       9       9       8       9       9       8       9
       9       8       9       9       8       9       9       8       9       9
       8       9       9       8       9       9       8       9       9       8
       9       9       8       9       9       8       9       9       8       9
       9       8       9       9       8       9       9       8       9       9
       8       9       9       8       9       9       8       9       9       8
       9       9       8       9       9       8       9       9       8       9
       9       8       9       9       8       9       9       8       9       9
       8       9       9       8       9       9       8       9       9       8
       9       9       8       9       9       8       9       9       8       9
       9       8       9       9       8       9       9       8       9       9
       8       9       9       8       9       9       8       9       9       8
       9       9       8       9       9       8       9       9       8       9
       9       8       9       9       8       9       9       8       9       9
       8       9       9       8       9       9       8       9       9       8
       9       9       8       9       9       8       9       9       8       9
       9       8       9       9       8       9       9       8       9       9
       8       9       9       8       9       9       8       9       9       8
       9       9       8       9       9       8       9       9       8       9
       9       8       9       9       8       9       9       8       9       9
       8       9       9       8       9       9       8       9       9       8
       9       9       8       9       9       8       9       9       8       9
       9       8       9       9       8       9       9       8       9       9
       8       9       9       8       9       9       8       9       9       8
       9       9       8       9       9       8       9       9       8       9
       9       8       9       9       8       9       9       8       9       9
       8       9       9       8       9       9       8       9       9       8
       9       9       8       9       9       8       9       9       8       9
       9       8       9       9       8       9       9       8       9       9
       8       9       9       8       9       9       8       9       9       8
       9       9       8       9       9       8       9       9       8       9
       9       8       9       9       8       9       9       8       9       9
       8       9       9       8       9       9       8       9       9       8
       9       9       8       9       9       8       9       9       8       9
       9       8       9       9       8       9       9       8       9       9
       8       9       9       8       9       9       8       9       9       8
       9       9       8       9       9       8       9       9       8       9
       9       8       9       9       8       9       9       8       9       9
       8       9       9       8       9       9       8       9       9       8
       9       9       8       9       9       8       9       9       8       9
       9       8       9       9       8       9       9       8       9       9
       8       9       9       8       9       9       8       9       9       8
       9       9       8       9       9       8       9       9       8       9
       9       8       9       9       8       9       9       8       9       9
       8       9       9       8       9       9       8       9       9       8
       9       9       8       9       9       8       9       9       8       9
       9       8       9       9       8       9       9       8       9       9
       8       9       9       8       9       9       8       9       9       8
       9       9       8       9       9       8       9       9       8       9
       9       8       9       9       8       9       9       8       9       9
       8       9       9       8       9       9       8       9       9       8
       9       9       8       9       9       8       9       9       8       9
       9       8       9       9       8       9       9       8       9       9
       8       9       9       8       9       9       8       9       9       8
       9       9       8       9       9       8       9       9       8       9
       9       8       9       9       8       9       9       8       9       9
       8       9       9       8       9       9       8       9       9       8
       9       9       8       9       9       8       9       9       8       9
       9       8       9       9       8       9       9       8       9       9
       8       9       9       8       9       9       8       9       9       8
       9       9       8       9       9       8       9       9       8       9
       9       8       9       9       8       9       9       8       9       9
       8       9       9       8       9       9       8       9       9       8
       9       9       8       9       9       8       9       9       8       9
       9       8       9       9       8       9       9       8       9       9
       8       9       9       8       9       9       8       9       9       8
       9       9       8       9       9       8       9       9       8       9
       9       8       9       9       8       9       9       8       9       9
       8       9       9       8       9       9       8       9       9       8
       9       9       8       9       9       8       9       9       8       9
       9       8       9       9       8       9       9       8       9       9
       8       9       9       8       9       9       8       9       9       8
       9       9       8       9       9       8       9       9       8       9
       9       8       9       9       8       9       9       8       9       9
       8       9       9       8       9       9       8       9       9       8
       9       9       8       9       9       8       9       9       8       9
       9       8       9       9       8       9       9       8       9       9
       8       9       9       8       9       9       8       9       9       8
       9       9       8       9       9       8       9       9       8       9
       9       8       9       9       8       9       9       8       9       9
       8       9       9       8       9       9       8       9       9       8
       9       9       8       9       9       8       9       9       8       9
       9       8       9       9       8       9       9       8       9       9
       8       9       9       8       9       9       8       9       9       8
       9       9       8       9       9       8       9       9       8       9
       9       8       9       9       8       9       9       8       9       9
       8       9       9       8       9       9       8       9       9       8
       9       9       8       9       9       8       9       9       8       9
       9       8       9       9       8       9       9       8       9       9
       8       9       9       8       9       9       8       9       9       8
       9       9       8       9       9       8       9       9       8       9
       9       8       9       9       8       9       9       8       9       9
       8       9       9       8       9       9       8       9       9       8
       9       9       8       9       9       8       9       9       8       9
       9       8       9       9       8       9       9       8       9       9
       8       9       9       8       9       9       8       9       9       8
       9       9       8       9       9       8       9       9       8       9
       9       8       9       9       8       9       9       8       9       9
       8       9       9       8       9       9       8       9       9       8
       9       9       8       9       9       8       9       9       8       9
       9       8       9       9       8       9       9       8       9       9
       8       9       9       8       9       9       8       9       9       8
       9       9       8       9       9       8       9       9       8       9
       9       8       9       9       8       9       9       8       9       9
       8       9       9       8       9       9       8       9       9       8
       9       9       8       9       9       8       9       9       8       9
       9       8       9       9       8       9       9       8       9       9
       8       9       9       8       9       9       8       9       9       8
       9       9       8       9       9       8       9       9       8       9
       9       8       9       9       8       9       9       8       9       9
       8       9       9       8       9       9       8       9       9       8
       9       9       8       9       9       8       9       9       8       9
       9       8       9       9       8       9       9       8       9       9
       8       9       9       8       9       9       8       9       9       8
       9       9       8       9       9       8       9       9       8       9
       9       8       9       9       8       9       9       8       9       9
       8       9       9       8       9       9       8       9       9       8
       9       9       8       9       9       8       9       9       8       9
       9       8       9       9       8       9       9       8       9       9
       8       9       9       8       9       9       8       9       9       8
       9       9       8       9       9       8       9       9       8       9
       9       8       9       9       8       9       9       8       9       9
       8       9       9       8       9       9       8       9       9       8
       9       9       8       9       9       8       9       9       8       9
       9       8       9       9       8       9       9       8       9       9
       8       9       9       8       9       9       8       9       9       8
       9       9       8       9       9       8       9       9       8       9
       9       8       9       9       8       9       9       8       9       9
       8       9       9       8       9       9       8       9       9       8
       9       9       8       9       9       8       9       9       8       9
       9       8       9       9       8       9       9       8       9       9
       8       9       9       8       9       9       8       9       9       8
       9       9       8       9       9       8       9       9       8       9
       9       8       9       9       8       9       9       8       9       9
       8       9       9       8       9       9       8       9       9       8
       9       9       8       9       9       8       9       9       8       9
       9       8       9       9       8       9       9       8       9       9
       8       9       9       8       9       9       8       9       9       8
       9       9       8       9       9       8       9       9       8       9
       9       8       9       9       8       9       9       8       9       9
       8       9       9       8       9       9       8       9       9       8
       9       9       8       9       9       8       9       9       8       9
       9       8       9       9       8       9       9       8       9       9
       8       9       9       8       9       9       8       9       9       8
       9       9       8       9       9       8       9       9       8       9
       9       8       9       9       8       9       9       8       9       9
       8       9       9       8       9       9       8       9       9       8
       9       9       8       9       9       8       9       9       8       9
       9       8       9       9       8       9       9       8       9       9
       8       9       9       8       9       9       8       9       9       8
       9       9       8       9       9       8       9       9       8       9
       9       8       9       9       8       9       9       8       9       9
       8       9       9       8       9       9       8       9       9       8
       9       9       8       9       9       8       9       9       8       9
       9       8       9       9       8       9       9       8       9       9
       8       9       9       8       9       9       8       9       9       8
       9       9       8       9       9       8       9       9       8       9
       9       8       9       9       8       9       9       8       9       9
       8       9       9       8       9       9       8       9       9       8
       9       9       8       9       9       8       9       9       8       9
       9       8       9       9       8       9       9       8       9       9
       8       9       9       8       9       9       8       9       9       8
       9       9       8       9       9       8       9       9       8       9
       9       8       9       9       8       9       9       8       9       9
       8       9       9       8       9       9       8       9       9       8
       9       9       8       9       9       8       9       9       8       9
       9       8       9       9       8       9       9       8       9       9
       8       9       9       8       9       9       8       9       9       8
       9       9       8       9       9       8       9       9       8       9
       9       8       9       9       8       9       9       8       9       9
       8       9       9       8       9       9       8       9       9       8
       9       9       8       9       9       8       9       9       8       9
       9       8       9       9       8       9       9       8       9       9
       8       9       9       8       9       9       8       9       9       8
       9       9       8       9       9       8       9       9       8       9
       9       8       9       9       8       9       9       8       9       9
       8       9       9       8       9       9       8       9       9       8
       9       9       8       9       9       8       9       9       8       9
       9       8       9       9       8       9       9       8       9       9
       8       9       9       8       9       9       8       9       9       8
       9       9       8       9       9       8       9       9       8       9
       9       8       9       9       8       9       9       8       9       9
       8       9       9       8       9       9       8       9       9       8
       9       9       8       9       9       8       9       9       8       9
       9       8       9       9       8       9       9       8       9       9
       8       9       9       8       9       9       8       9       9       8
       9       9       8       9       9       8       9       9       8       9
       9       8       9       9       8       9       9       8       9       9
       8       9       9       8       9       9       8       9       9       8
       9       9       8       9       9       8       9       9       8       9
       9       8       9       9       8       9       9       8       9       9
       8       9       9       8       9       9       8       9       9       8
       9       9       8       9       9       8       9       9       8       9
       9       8       9       9       8       9       9       8       9       9
       8       9       9       8       9       9       8       9       9       8
       9       9       8       9       9       8       9       9       8       9
       9       8       9       9       8       9       9       8       9       9
       8       9       9       8       9       9       8       9       9       8
       9       9       8       9       9       8       9       9       8       9
       9       8       9       9       8       9       9       8       9       9
       8       9       9       8       9       9       8       9       9       8
       9       9       8       9       9       8       9       9       8       9
       9       8       9       9       8       9       9       8       9       9
       8       9       9       8       9       9       8       9       9       8
       9       9       8       9       9       8       9       9       8       9
       9       8       9       9       8       9       9       8       9       9
       8       9       9       8       9       9       8       9       9       8
       9       9       8       9       9       8       9       9       8       9
       9       8       9       9       8       9       9       8       9       9
       8       9       9       8       9       9       8       9       9       8
       9       9       8       9       9       8       9       9       8       9
       9       8       9       9       8       9       9       8       9       9
       8       9       9       8       9       9       8       9       9       8
       9       9       8       9       9       8       9       9       8       9
       9       8       9       9       8       9       9       8       9       9
       8       9       9       8       9       9       8       9       9       8
       9       9       8       9       9       8       9       9       8       9
       9       8       9       9       8       9       9       8       9       9
       8       9       9       8       9       9       8       9       9       8
       9       9       8       9       9       8       9       9       8       9
       9       8       9       9       8       9       9       8       9       9
       8       9       9       8       9       9       8       9       9       8
       9       9       8       9       9       8       9       9       8       9
       9       8       9       9       8       9       9       8       9       9
       8       9       9       8       9       9       8       9       9       8
       9       9       8       9       9       8       9       9       8       9
       9       8       9       9       8       9       9       8       9       9
       8       9       9       8       9       9       8       9       9       8
       9       9       8       9       9       8       9       9       8       9
       9       8       9       9       8       9       9       8       9       9
       8       9       9       8       9       9       8       9       9       8
       9       9       8       9       9       8       9       9       8       9
       9       8       9       9       8       9       9       8       9       9
       8       9       9       8       9       9       8       9       9       8
       9       9       8       9       9       8       9       9       8       9
       9       8       9       9       8       9       9       8       9       9
       8       9       9       8       9       9       8       9       9       8
       9       9       8       9       9       8       9       9       8       9
       9       8       9       9       8       9       9       8       9       9
       8       9       9       8       9       9       8       9       9       8
       9       9       8       9       9       8       9       9       8       9
       9       8       9       9       8       9       9       8       9       9
       8       9       9       8       9       9       8       9       9       8
       9       9       8       9       9       8       9       9       8       9
       9       8       9       9       8       9       9       8       9       9
       8       9       9       8       9       9       8       9       9       8
       9       9       8       9       9       8       9       9       8       9
       9       8       9       9       8       9       9       8       9       9
       8       9       9       8       9       9       8       9       9       8
       9       9       8       9       9       8       9       9       8       9
       9       8       9       9       8       9       9       8       9       9
       8       9       9       8       9       9       8       9       9       8
       9       9       8       9       9       8       9       9       8       9
       9       8       9       9       8       9       9       8       9       9
       8       9       9       8       9       9       8       9       9       8
       9       9       8       9       9       8       9       9       8       9
       9       8       9       9       8       9       9       8       9       9
       8       9       9       8       9       9       8       9       9       8
       9       9       8       9       9       8       9       9       8       9
       9       8       9       9       8       9       9       8       9       9
       8       9       9       8       9       9       8       9       9       8
       9       9       8       9       9       8       9       9       8       9
       9       8       9       9       8       9       9       8       9       9
       8       9       9       8       9       9       8       9       9       8
       9       9       8       9       9       8       9       9       8       9
       9       8       9       9       8       9       9       8       9       9
       8       9       9       8       9       9       8       9       9       8
       9       9       8       9       9       8       9       9       8       9
       9       8       9       9       8       9       9       8       9       9
       8       9       9       8       9       9       8       9       9       8
       9       9       8       9       9       8       9       9       8       9
       9       8       9       9       8       9       9       8       9       9
       8       9       9       8       9       9       8       9       9       8
       9       9       8       9       9       8       9       9       8       9
       9       8       9       9       8       9       9       8       9       9
       8       9       9       8       9       9       8       9       9       8
       9       9       8       9       9       8       9       9       8       9
       9       8       9       9       8       9       9       8       9       9
       8       9       9       8       9       9       8       9       9       8
       9       9       8       9       9       8       9       9       8       9
       9       8       9       9       8       9       9       8       9       9
       8       9       9       8       9       9       8       9       9       8
       9       9       8       9       9       8       9       9       8       9
       9       8       9       9       8       9       9       8       9       9
       8       9       9       8       9       9       8       9       9       8
       9       9       8       9       9       8       9       9       8       9
       9       8       9       9       8       9       9       8       9       9
       8       9       9       8       9       9       8       9       9       8
       9       9       8       9       9       8       9       9       8       9
       9       8       9       9       8       9       9       8       9       9
       8       9       9       8       9       9       8       9       9       8
       9       9       8       9       9       8       9       9       8       9
       9       8       9       9       8       9       9       8       9       9
       8       9       9       8       9       9       8       9       9       8
       9       9       8       9       9       8       9       9       8       9
       9       8       9       9       8       9       9       8       9       9
       8       9       9       8       9       9       8       9       9       8
       9       9       8       9       9       8       9       9       8       9
       9       8       9       9       8       9       9       8       9       9
       8       9       9       8       9       9       8       9       9       8
       9       9       8       9       9       8       9       9       8       9
       9       8       9       9       8       9       9       8       9       9
       8       9       9       8       9       9       8       9       9       8
       9       9       8       9       9       8       9       9       8       9
       9       8       9       9       8       9       9       8       9       9
       8       9       9       8       9       9       8       9       9       8
       9       9       8       9       9       8       9       9       8       9
       9       8       9       9       8       9       9       8       9       9
       8       9       9       8       9       9       8       9       9       8
       9       9       8       9       9       8       9       9       8       9
       9       8       9       9       8       9       9       8       9       9
       8       9       9       8       9       9       8       9       9       8
       9       9       8       9       9       8       9       9       8       9
       9       8       9       9       8       9       9       8       9       9
       8       9       9       8       9       9       8       9       9       8
       9       9       8       9       9       8       9       9       8       9
       9       8       9       9       8       9       9       8       9       9
       8       9       9       8       9       9       8       9       9       8
       9       9       8       9       9       8       9       9       8       9
       9       8       9       9       8       9       9       8       9       9
       8       9       9       8       9       9       8       9       9       8
       9       9       8       9       9       8       9       9       8       9
       9       8       9       9       8       9       9       8       9       9
       8       9       9       8       9       9       8       9       9       8
       9       9       8       9       9       8       9       9       8       9
       9       8       9       9       8       9       9       8       9       9
       8       9       9       8       9       9       8       9       9       8
       9       9       8       9       9       8       9       9       8       9
       9       8       9       9       8       9       9       8       9       9
       8       9       9       8       9       9       8       9       9       8
       9       9       8       9       9       8       9       9       8       9
       9       8       9       9       8       9       9       8       9       9
       8       9       9       8       9       9       8       9       9       8
       9       9       8       9       9       8       9       9       8       9
       9       8       9       9       8       9       9       8       9       9
       8       9       9       8       9       9       8       9       9       8
       9       9       8       9       9       8       9       9       8       9
       9       8       9       9       8       9       9       8       9       9
       8       9       9       8       9       9       8       9       9       8
       9       9       8       9       9       8       9       9       8       9
       9       8       9       9       8       9       9       8       9       9
       8       9       9       8       9       9       8       9       9       8
       9       9       8       9       9       8       9       9       8       9
       9       8       9       9       8       9       9       8       9       9
       8       9       9       8       9       9       8       9       9       8
       9       9       8       9       9       8       9       9       8       9
       9       8       9       9       8       9       9       8       9       9
       8       9       9       8       9       9       8       9       9       8
       9       9       8       9       9       8       9       9       8       9
       9       8       9       9       8       9       9       8       9       9
       8       9       9       8       9       9       8       9       9       8
       9       9       8       9       9       8       9       9       8       9
       9       8       9       9       8       9       9       8       9       9
       8       9       9       8       9       9       8       9       9       8
       9       9       8       9       9       8       9       9       8       9
       9       8       9       9       8       9       9       8       9       9
       8       9       9       8       9       9       8       9       9       8
       9       9       8       9       9       8       9       9       8       9
       9       8       9       9       8       9       9       8       9       9
       8       9       9       8       9       9       8       9       9       8
       9       9       8       9       9       8       9       9       8       9
       9       8       9       9       8       9       9       8       9       9
       8       9       9       8       9       9       8       9       9       8
       9       9       8       9       9       8       9       9       8       9
       9       8       9       9       8       9       9       8       9       9
       8       9       9       8       9       9       8       9       9       8
       9       9       8       9       9       8       9       9       8       9
       9       8       9       9       8       9       9       8       9       9
       8       9       9       8       9       9       8       9       9       8
       9       9       8       9       9       8       9       9       8       9
       9       8       9       9       8       9       9       8       9       9
       8       9       9       8       9       9       8       9       9       8
       9       9       8       9       9       8       9       9       8       9
       9       8       9       9       8       9       9       8       9       9
       8       9       9       8       9       9       8       9       9       8
       9       9       8       9       9       8       9       9       8       9
       9       8       9       9       8       9       9       8       9       9
       8       9       9       8       9       9       8       9       9       8
       9       9       8       9       9       8       9       9       8       9
       9       8       9       9       8       9       9       8       9       9
       8       9       9       8       9       9       8       9       9       8
       9       9       8       9       9       8       9       9       8       9
       9       8       9       9       8       9       9       8       9       9
       8       9       9       8       9       9       8       9       9       8
       9       9       8       9       9       8       9       9       8       9
       9       8       9       9       8       9       9       8       9       9
       8       9       9       8       9       9       8       9       9       8
       9       9       8       9       9       8       9       9       8       9
       9       8       9       9       8       9       9       8       9       9
       8       9       9       8       9       9       8       9       9       8
       9       9       8       9       9       8       9       9       8       9
       9       8       9       9       8       9       9       8       9       9
       8       9       9       8       9       9       8       9       9       8
       9       9       8       9       9       8       9       9       8       9
       9       8       9       9       8       9       9       8       9       9
       8       9       9       8       9       9       8       9       9       8
       9       9       8       9       9       8       9       9       8       9
       9       8       9       9       8       9       9       8       9       9
       8       9       9       8       9       9       8       9       9       8
       9       9       8       9       9       8       9       9       8       9
       9       8       9       9       8       9       9       8       9       9
       8       9       9       8       9       9       8       9       9       8
       9       9       8       9       9       8       9       9       8       9
       9       8       9       9       8       9       9       8       9       9
       8       9       9       8       9       9       8       9       9       8
       9       9       8       9       9       8       9       9       8       9
       9       8       9       9       8       9       9       8       9       9
       8       9       9       8       9       9       8       9       9       8
       9       9       8       9       9       8       9       9       8       9
       9       8       9       9       8       9       9       8       9       9
       8       9       9       8       9       9       8       9       9       8
       9       9       8       9       9       8       9       9       8       9
       9       8       9       9       8       9       9       8       9       9
       8       9       9       8       9       9       8       9       9       8
       9       9       8       9       9       8       9       9       8       9
       9       8       9       9       8       9       9       8       9       9
       8       9       9       8       9       9       8       9       9       8
       9       9       8       9       9       8       9       9       8       9
       9       8       9       9       8       9       9       8       9       9
       8       9       9       8       9       9       8       9       9       8
       9       9       8       9       9       8       9       9       8       9
       9       8       9       9       8       9       9       8       9       9
       8       9       9       8       9       9       8       9       9       8
       9       9       8       9       9       8       9       9       8       9
       9       8       9       9       8       9       9       8       9       9
       8       9       9       8       9       9       8       9       9       8
       9       9       8       9       9       8       9       9       8       9
       9       8       9       9       8       9       9       8       9       9
       8       9       9       8       9       9       8       9       9       8
       9       9       8       9       9       8       9       9       8       9
       9       8       9       9       8       9       9       8       9       9
       8       9       9       8       9       9       8       9       9       8
       9       9       8       9       9       8       9       9       8       9
       9       8       9       9       8       9       9       8       9       9
       8       9       9       8       9       9       8       9       9       8
       9       9       8       9       9       8       9       9       8       9
       9       8       9       9       8       9       9       8       9       9
       8       9       9       8       9       9       8       9       9       8
       9       9       8       9       9       8       9       9       8       9
       9       8       9       9       8       9       9       8       9       9
       8       9       9       8       9       9       8       9       9       8
       9       9       8       9       9       8       9       9       8       9
       9       8       9       9       8       9       9       8       9       9
       8       9       9       8       9       9       8       9       9       8
       9       9       8       9       9       8       9       9       8       9
       9       8       9       9       8       9       9       8       9       9
       8       9       9       8       9       9       8       9       9       8
       9       9       8       9       9       8       9       9       8       9
       9       8       9       9       8       9       9       8       9       9
       8       9       9       8       9       9       8       9       9       8
       9       9       8       9       9       8       9       9       8       9
       9       8       9       9       8       9       9       8       9       9
       8       9       9       8       9       9       8       9       9       8
       9       9       8       9       9       8       9       9       8       9
       9       8       9       9       8       9       9       8       9       9
       8       9       9       8       9       9       8       9       9       8
       9       9       8       9       9       8       9       9       8       9
       9       8       9       9       8       9       9       8       9       9
       8       9       9       8       9       9       8       9       9       8
       9       9       8       9       9       8       9       9       8       9
       9       8       9       9       8       9       9       8       9       9
       8       9       9       8       9       9       8       9       9       8
       9       9       8       9       9       8       9       9       8       9
       9       8       9       9       8       9       9       8       9       9
       8       9       9       8       9       9       8       9       9       8
       9       9       8       9       9       8       9       9       8       9
       9       8       9       9       8       9       9       8       9       9
       8       9       9       8       9       9       8       9       9       8
       9       9       8       9       9       8       9       9       8       9
       9       8       9       9       8       9       9       8       9       9
       8       9       9       8       9       9       8       9       9       8
       9       9       8       9       9       8       9       9       8       9
       9       8       9       9       8       9       9       8       9       9
       8       9       9       8       9       9       8       9       9       8
       9       9       8       9       9       8       9       9       8       9
       9       8       9       9       8       9       9       8       9       9
       8       9       9       8       9       9       8       9       9       8
       9       9       8       9       9       8       9       9       8       9
       9       8       9       9       8       9       9       8       9       9
       8       9       9       8       9       9       8       9       9       8
       9       9       8       9       9       8       9       9       8       9
       9       8       9       9       8       9       9       8       9       9
       8       9       9       8       9       9       8       9       9       8
       9       9       8       9       9       8       9       9       8       9
       9       8       9       9       8       9       9       8       9       9
       8       9       9       8       9       9       8       9       9       8
       9       9       8       9       9       8       9       9       8       9
       9       8       9       9       8       9       9       8       9       9
       8       9       9       8       9       9       8       9       9       8
       9       9       8       9       9       8       9       9       8       9
       9       8       9       9       8       9       9       8       9       9
       8       9       9       8       9       9       8       9       9       8
       9       9       8       9       9       8       9       9       8       9
       9       8       9       9       8       9       9       8       9       9
       8       9       9       8       9       9       8       9       9       8
       9       9       8       9       9       8       9       9       8       9
       9       8       9       9       8       9       9       8       9       9
       8       9       9       8       9       9       8       9       9       8
       9       9       8       9       9       8       9       9       8       9
       9       8       9       9       8       9       9       8       9       9
       8       9       9       8       9       9       8       9       9       8
       9       9       8       9       9       8       9       9       8       9
       9       8       9       9       8       9       9       8       9       9
       8       9       9       8       9       9       8       9       9       8
       9       9       8       9       9       8       9       9       8       9
       9       8       9       9       8       9       9       8       9       9
       8       9       9       8       9       9       8       9       9       8
       9       9       8       9       9       8       9       9       8       9
       9       8       9       9       8       9       9       8       9       9
       8       9       9       8       9       9       8       9       9       8
       9       9       8       9       9       8       9       9       8       9
       9       8       9       9       8       9       9       8       9       9
       8       9       9       8       9       9       8       9       9       8
       9       9       8       9       9       8       9       9       8       9
       9       8       9       9       8       9       9       8       9       9
       8       9       9       8       9       9       8       9       9       8
       9       9       8       9       9       8       9       9       8       9
       9       8       9       9       8       9       9       8       9       9
       8       9       9       8       9       9       8       9       9       8
       9       9       8       9       9       8       9       9       8       9
       9       8       9       9       8       9       9       8       9       9
       8       9       9       8       9       9       8       9       9       8
       9       9       8       9       9       8       9       9       8       9
       9       8       9       9       8       9       9       8       9       9
       8       9       9       8       9       9       8       9       9       8
       9       9       8       9       9       8       9       9       8       9
       9       8       9       9       8       9       9       8       9       9
       8       9       9       8       9       9       8       9       9       8
       9       9       8       9       9       8       9       9       8       9
       9       8       9       9       8       9       9       8       9       9
       8       9       9       8       9       9       8       9       9       8
       9       9       8       9       9       8       9       9       8       9
       9       8       9       9       8       9       9       8       9       9
       8       9       9       8       9       9       8       9       9       8
       9       9       8       9       9       8       9       9       8       9
       9       8       9       9       8       9       9       8       9       9
       8       9       9       8       9       9       8       9       9       8
       9       9       8       9       9       8       9       9       8       9
       9       8       9       9       8       9       9       8       9       9
       8       9       9       8       9       9       8       9       9       8
       9       9       8       9       9       8       9       9       8       9
       9       8       9       9       8       9       9       8       9       9
       8       9       9       8       9       9       8       9       9       8
       9       9       8       9       9       8       9       9       8       9
       9       8       9       9       8       9       9       8       9       9
       8       9       9       8       9       9       8       9       9       8
       9       9       8       9       9       8       9       9       8       9
       9       8       9       9       8       9       9       8       9       9
       8       9       9       8       9       9       8       9       9       8
       9       9       8       9       9       8       9       9       8       9
       9       8       9       9       8       9       9       8       9       9
       8       9       9       8       9       9       8       9       9       8
       9       9       8       9       9       8       9       9       8       9
       9       8       9       9       8       9       9       8       9       9
       8       9       9       8       9       9       8       9       9       8
       9       9       8       9       9       8       9       9       8       9
       9       8       9       9       8       9       9       8       9       9
       8       9       9       8       9       9       8       9       9       8
       9       9       8       9       9       8       9       9       8       9
       9       8       9       9       8       9       9       8       9       9
       8       9       9       8       9       9       8       9       9       8
       9       9       8       9       9       8       9       9       8       9
       9       8       9       9       8       9       9       8       9       9
       8       9       9       8       9       9       8       9       9       8
       9       9       8       9       9       8       9       9       8       9
       9       8       9       9       8       9       9       8       9       9
       8       9       9       8       9       9       8       9       9       8
       9       9       8       9       9       8       9       9       8       9
       9       8       9       9       8       9       9       8       9       9
       8       9       9       8       9       9       8       9       9       8
       9       9       8       9       9       8       9       9       8       9
       9       8       9       9       8       9       9       8       9       9
       8       9       9       8       9       9       8       9       9       8
       9       9       8       9       9       8       9       9       8       9
       9       8       9       9       8       9       9       8       9       9
       8       9       9       8       9       9       8       9       9       8
       9       9       8       9       9       8       9       9       8       9
       9       8       9       9       8       9       9       8       9       9
       8       9       9       8       9       9       8       9       9       8
       9       9       8       9       9       8       9       9       8       9
       9       8       9       9       8       9       9       8       9       9
       8       9       9       8       9       9       8       9       9       8
       9       9       8       9       9       8       9       9       8       9
       9       8       9       9       8       9       9       8       9       9
       8       9       9       8       9       9       8       9       9       8
       9       9       8       9       9       8       9       9       8       9
       9       8       9       9       8       9       9       8       9       9
       8       9       9       8       9       9       8       9       9       8
       9       9       8       9       9       8       9       9       8       9
       9       8       9       9       8       9       9       8       9       9
       8       9       9       8       9       9       8       9       9       8
       9       9       8       9       9       8       9       9       8       9
       9       8       9       9       8       9       9       8       9       9
       8       9       9       8       9       9       8       9       9       8
       9       9       8       9       9       8       9       9       8       9
       9       8       9       9       8       9       9       8       9       9
       8       9       9       8       9       9       8       9       9       8
       9       9       8       9       9       8       9       9       8       9
       9       8       9       9       8       9       9       8       9       9
       8       9       9       8       9       9       8       9       9       8
       9       9       8       9       9       8       9       9       8       9
       9       8       9       9       8       9       9       8       9       9
       8       9       9       8       9       9       8       9       9       8
       9       9       8       9       9       8       9       9       8       9
       9       8       9       9       8       9       9       8       9       9
       8       9       9       8       9       9       8       9       9       8
       9       9       8       9       9       8       9       9       8       9
       9       8       9       9       8       9       9       8       9       9
       8       9       9       8       9       9       8       9       9       8
       9       9       8       9       9       8       9       9       8       9
       9       8       9       9       8       9       9       8       9       9
       8       9       9       8       9       9       8       9       9       8
       9       9       8       9       9       8       9       9       8       9
       9       8       9       9       8       9       9       8       9       9
       8       9       9       8       9       9       8       9       9       8
       9       9       8       9       9       8       9       9       8       9
       9       8       9       9       8       9       9       8       9       9
       8       9       9       8       9       9       8       9       9       8
       9       9       8       9       9       8       9       9       8       9
       9       8       9       9       8       9       9       8       9       9
       8       9       9       8       9       9       8       9       9       8
       9       9       8       9       9       8       9       9       8       9
       9       8       9       9       8       9       9       8       9       9
       8       9       9       8       9       9       8       9       9       8
       9       9       8       9       9       8       9       9       8       9
       9       8       9       9       8       9       9       8       9       9
       8       9       9       8       9       9       8       9       9       8
       9       9       8       9       9       8       9       9       8       9
       9       8       9       9       8       9       9       8       9       9
       8       9       9       8       9       9       8       9       9       8
       9       9       8       9       9       8       9       9       8       9
       9       8       9       9       8       9       9       8       9       9
       8       9       9       8       9       9       8       9       9       8
       9       9       8       9       9       8       9       9       8       9
       9       8       9       9       8       9       9       8       9       9
       8       9       9       8       9       9       8       9       9       8
       9       9       8       9       9       8       9       9       8       9
       9       8       9       9       8       9       9       8       9       9
       8       9       9       8       9       9       8       9       9       8
       9       9       8       9       9       8       9       9       8       9
       9       8       9       9       8       9       9       8       9       9
       8       9       9       8       9       9       8       9       9       8
       9       9       8       9       9       8       9       9       8       9
       9       8       9       9       8       9       9       8       9       9
       8       9       9       8       9       9       8       9       9       8
       9       9       8       9       9       8       9       9       8       9
       9       8       9       9       8       9       9       8       9       9
       8       9       9       8       9       9       8       9       9       8
       9       9       8       9       9       8       9       9       8       9
       9       8       9       9       8       9       9       8       9       9
       8       9       9       8       9       9       8       9       9       8
       9       9       8       9       9       8       9       9       8       9
       9       8       9       9       8       9       9       8       9       9
       8       9       9       8       9       9       8       9       9       8
       9       9       8       9       9       8       9       9       8       9
       9       8       9       9       8       9       9       8       9       9
       8       9       9       8       9       9       8       9       9       8
       9       9       8       9       9       8       9       9       8       9
       9       8       9       9       8       9       9       8       9       9
       8       9       9       8       9       9       8       9       9       8
       9       9       8       9       9       8       9       9       8       9
       9       8       9       9       8       9       9       8       9       9
       8       9       9       8       9       9       8       9       9       8
       9       9       8       9       9       8       9       9       8       9
       9       8       9       9       8       9       9       8       9       9
       8       9       9       8       9       9       8       9       9       8
       9       9       8       9       9       8       9       9       8       9
       9       8       9       9       8       9       9       8       9       9
       8       9       9       8       9       9       8       9       9       8
       9       9       8       9       9       8       9       9       8       9
       9       8       9       9       8       9       9       8       9       9
       8       9       9       8       9       9       8       9       9       8
       9       9       8       9       9       8       9       9       8       9
       9       8       9       9       8       9       9       8       9       9
       8       9       9       8       9       9       8       9       9       8
       9       9       8       9       9       8       9       9       8       9
       9       8       9       9       8       9       9       8       9       9
       8       9       9       8       9       9       8       9       9       8
       9       9       8       9       9       8       9       9       8       9
       9       8       9       9       8       9       9       8       9       9
       8       9       9       8       9       9       8       9       9       8
       9       9       8       9       9       8       9       9       8       9
       9       8       9       9       8       9       9       8       9       9
       8       9       9       8       9       9       8       9       9       8
       9       9       8       9       9       8       9       9       8       9
       9       8       9       9       8       9       9       8       9       9
       8       9       9       8       9       9       8       9       9       8
       9       9       8       9       9       8       9       9       8       9
       9       8       9       9       8       9       9       8       9       9
       8       9       9       8       9       9       8       9       9       8
       9       9       8       9       9       8       9       9       8       9
       9       8       9       9       8       9       9       8       9       9
       8       9       9       8       9       9       8       9       9       8
       9       9       8       9       9       8       9       9       8       9
       9       8       9       9       8       9       9       8       9       9
       8       9       9       8       9       9       8       9       9       8
       9       9       8       9       9       8       9       9       8       9
       9       8       9       9       8       9       9       8       9       9
       8       9       9       8       9       9       8       9       9       8
       9       9       8       9       9       8       9       9       8       9
       9       8       9       9       8       9       9       8       9       9
       8       9       9       8       9       9       8       9       9       8
       9       9       8       9       9       8       9       9       8       9
       9       8       9       9       8       9       9       8       9       9
       8       9       9       8       9       9       8       9       9       8
       9       9       8       9       9       8       9       9       8       9
       9       8       9       9       8       9       9       8       9       9
       8       9       9       8       9       9       8       9       9       8
       9       9       8       9       9       8       9       9       8       9
       9       8       9       9       8       9       9       8       9       9
       8       9       9       8       9       9       8       9       9       8
       9       9       8       9       9       8       9       9       8       9
       9       8       9       9       8       9       9       8       9       9
       8       9       9       8       9       9       8       9       9       8
       9       9       8       9       9       8       9       9       8       9
       9       8       9       9       8       9       9       8       9       9
       8       9       9       8       9       9       8       9       9       8
       9       9       8       9       9       8       9       9       8       9
       9       8       9       9       8       9       9       8       9       9
       8       9       9       8       9       9       8       9       9       8
       9       9       8       9       9       8       9       9       8       9
       9       8       9       9       8       9       9       8       9       9
       8       9       9       8       9       9       8       9       9       8
       9       9       8       9       9       8       9       9       8       9
       9       8       9       9       8       9       9       8       9       9
       8       9       9       8       9       9       8       9       9       8
       9       9       8       9       9       8       9       9       8       9
       9       8       9       9       8       9       9       8       9       9
       8       9       9       8       9       9       8       9       9       8
       9       9       8       9       9       8       9       9       8       9
       9       8       9       9       8       9       9       8       9       9
       8       9       9       8       9       9       8       9       9       8
       9       9       8       9       9       8       9       9       8       9
       9       8       9       9       8       9       9       8       9       9
       8       9       9       8       9       9       8       9       9       8
       9       9       8       9       9       8       9       9       8       9
       9       8       9       9       8       9       9       8       9       9
       8       9       9       8       9       9       8       9       9       8
       9       9       8       9       9       8       9       9       8       9
       9       8       9       9       8       9       9       8       9       9
       8       9       9       8       9       9       8       9       9       8
       9       9       8       9       9       8       9       9       8       9
       9       8       9       9       8       9       9       8       9       9
       8       9       9       8       9       9       8       9       9       8
       9       9       8       9       9       8       9       9       8       9
       9       8       9       9       8       9       9       8       9       9
       8       9       9       8       9       9       8       9       9       8
       9       9       8       9       9       8       9       9       8       9
       9       8       9       9       8       9       9       8       9       9
       8       9       9       8       9       9       8       9       9       8
       9       9       8       9       9       8       9       9       8       9
       9       8       9       9       8       9       9       8       9       9
       8       9       9       8       9       9       8       9       9       8
       9       9       8       9       9       8       9       9       8       9
       9       8       9       9       8       9       9       8       9       9
       8       9       9       8       9       9       8       9       9       8
       9       9       8       9       9       8       9       9       8       9
       9       8       9       9       8       9       9       8       9       9
       8       9       9       8       9       9       8       9       9       8
       9       9       8       9       9       8       9       9       8       9
       9       8       9       9       8       9       9       8       9       9
       8       9       9       8       9       9       8       9       9       8
       9       9       8       9       9       8       9       9       8       9
       9       8       9       9       8       9       9       8       9       9
       8       9       9       8       9       9       8       9       9       8
       9       9       8       9       9       8       9       9       8       9
       9       8       9       9       8       9       9       8       9       9
       8       9       9       8       9       9       8       9       9       8
       9       9       8       9       9       8       9       9       8       9
       9       8       9       9       8       9       9       8       9       9
       8       9       9       8       9       9       8       9       9       8
       9       9       8       9       9       8       9       9       8       9
       9       8       9       9       8       9       9       8       9       9
       8       9       9       8       9       9       8       9       9       8
       9       9       8       9       9       8       9       9       8       9
       9       8       9       9       8       9       9       8       9       9
       8       9       9       8       9       9       8       9       9       8
       9       9       8       9       9       8       9       9       8       9
       9       8       9       9       8       9       9       8       9       9
       8       9       9       8       9       9       8       9       9       8
       9       9       8       9       9       8       9       9       8       9
       9       8       9       9       8       9       9       8       9       9
       8       9       9       8       9       9       8       9       9       8
       9       9       8       9       9       8       9       9       8       9
       9       8       9       9       8       9       9       8       9       9
       8       9       9       8       9       9       8       9       9       8
       9       9       8       9       9       8       9       9       8       9
       9       8       9       9       8       9       9       8       9       9
       8       9       9       8       9       9       8       9       9       8
       9       9       8       9       9       8       9       9       8       9
       9       8       9       9       8       9       9       8       9       9
       8       9       9       8       9       9       8       9       9       8
       9       9       8       9       9       8       9       9       8       9
       9       8       9       9       8       9       9       8       9       9
       8       9       9       8       9       9       8       9       9       8
       9       9       8       9       9       8       9       9       8       9
       9       8       9       9       8       9       9       8       9       9
       8       9       9       8       9       9       8       9       9       8
       9       9       8       9       9       8       9       9       8       9
       9       8       9       9       8       9       9       8       9       9
       8       9       9       8       9       9       8       9       9       8
       9       9       8       9       9       8       9       9       8       9
       9       8       9       9       8       9       9       8       9       9
       8       9       9       8       9       9       8       9       9       8
       9       9       8       9       9       8       9       9       8       9
       9       8       9       9       8       9       9       8       9       9
       8       9       9       8       9       9       8       9       9       8
       9       9       8       9       9       8       9       9       8       9
       9       8       9       9       8       9       9       8       9       9
       8       9       9       8       9       9       8       9       9       8
       9       9       8       9       9       8       9       9       8       9
       9       8       9       9       8       9       9       8       9       9
       8       9       9       8       9       9       8       9       9       8
       9       9       8       9       9       8       9       9       8       9
       9       8       9       9       8       9       9       8       9       9
       8       9       9       8       9       9       8       9       9       8
       9       9       8       9       9       8       9       9       8       9
       9       8       9       9       8       9       9       8       9       9
       8       9       9       8       9       9       8       9       9       8
       9       9       8       9       9       8       9       9       8       9
       9       8       9       9       8       9       9       8       9       9
       8       9       9       8       9       9       8       9       9       8
       9       9       8       9       9       8       9       9       8       9
       9       8       9       9       8       9       9       8       9       9
       8       9       9       8       9       9       8       9       9       8
       9       9       8       9       9       8       9       9       8       9
       9       8       9       9       8       9       9       8       9       9
       8       9       9       8       9       9       8       9       9       8
       9       9       8       9       9       8       9       9       8       9
       9       8       9       9       8       9       9       8       9       9
       8       9       9       8       9       9       8       9       9       8
       9       9       8       9       9       8       9       9       8       9
       9       8       9       9       8       9       9       8       9       9
       8       9       9       8       9       9       8       9       9       8
       9       9       8       9       9       8       9       9       8       9
       9       8       9       9       8       9       9       8       9       9
       8       9       9       8       9       9       8       9       9       8
       9       9       8       9       9       8       9       9       8       9
       9       8       9       9       8       9       9       8       9       9
       8       9       9       8       9       9       8       9       9       8
       9       9       8       9       9       8       9       9       8       9
       9       8       9       9       8       9       9       8       9       9
       8       9       9       8       9       9       8       9       9       8
       9       9       8       9       9       8       9       9       8       9
       9       8       9       9       8       9       9       8       9       9
       8       9       9       8       9       9       8       9       9       8
       9       9       8       9       9       8       9       9       8       9
       9       8       9       9       8       9       9       8       9       9
       8       9       9       8       9       9       8       9       9       8
       9       9       8       9       9       8       9       9       8       9
       9       8       9       9       8       9       9       8       9       9
       8       9       9       8       9       9       8       9       9       8
       9       9       8       9       9       8       9       9       8       9
       9       8       9       9       8       9       9       8       9       9
       8       9       9       8       9       9       8       9       9       8
       9       9       8       9       9       8       9       9       8       9
       9       8       9       9       8       9       9       8       9       9
       8       9       9       8       9       9       8       9       9       8
       9       9       8       9       9       8       9       9       8       9
       9       8       9       9       8       9       9       8       9       9
       8       9       9       8       9       9       8       9       9       8
       9       9       8       9       9       8       9       9       8       9
       9       8       9       9       8       9       9       8       9       9
       8       9       9       8       9       9       8       9       9       8
       9       9       8       9       9       8       9       9       8       9
       9       8       9       9       8       9       9       8       9       9
       8       9       9       8       9       9       8       9       9       8
       9       9       8       9       9       8       9       9       8       9
       9       8       9       9       8       9       9       8       9       9
       8       9       9       8       9       9       8       9       9       8
       9       9       8       9       9       8       9       9       8       9
       9       8       9       9       8       9       9       8       9       9
       8       9       9       8       9       9       8       9       9       8
       9       9       8       9       9       8       9       9       8       9
       9       8       9       9       8       9       9       8       9       9
       8       9       9       8       9       9       8       9       9       8
       9       9       8       9       9       8       9       9       8       9
       9       8       9       9       8       9       9       8       9       9
       8       9       9       8       9       9       8       9       9       8
       9       9       8       9       9       8       9       9       8       9
       9       8       9       9       8       9       9       8       9       9
       8       9       9       8       9       9       8       9       9       8
       9       9       8       9       9       8       9       9       8       9
       9       8       9       9       8       9       9       8       9       9
       8       9       9       8       9       9       8       9       9       8
       9       9       8       9       9       8       9       9       8       9
       9       8       9       9       8       9       9       8       9       9
       8       9       9       8       9       9       8       9       9       8
       9       9       8       9       9       8       9       9       8       9
       9       8       9       9       8       9       9       8       9       9
       8       9       9       8       9       9       8       9       9       8
       9       9       8       9       9       8       9       9       8       9
       9       8       9       9       8       9       9       8       9       9
       8       9       9       8       9       9       8       9       9       8
       9       9       8       9       9       8       9       9       8       9
       9       8       9       9       8       9       9       8       9       9
       8       9       9       8       9       9       8       9       9       8
       9       9       8       9       9       8       9       9       8       9
       9       8       9       9       8       9       9       8       9       9
       8       9       9       8       9       9       8       9       9       8
       9       9       8       9       9       8       9       9       8       9
       9       8       9       9       8       9       9       8       9       9
       8       9       9       8       9       9       8       9       9       8
       9       9       8       9       9       8       9       9       8       9
       9       8       9       9       8       9       9       8       9       9
       8       9       9       8       9       9       8       9       9       8
       9       9       8       9       9       8       9       9       8       9
       9       8       9       9       8       9       9       8       9       9
       8       9       9       8       9       9       8       9       9       8
       9       9       8       9       9       8       9       9       8       9
       9       8       9       9       8       9       9       8       9       9
       8       9       9       8       9       9       8       9       9       8
       9       9       8       9       9       8       9       9       8       9
       9       8       9       9       8       9       9       8       9       9
       8       9       9       8       9       9       8       9       9       8
       9       9       8       9       9       8       9       9       8       9
       9       8       9       9       8       9       9       8       9       9
       8       9       9       8       9       9       8       9       9       8
       9       9       8       9       9       8       9       9       8       9
       9       8       9       9       8       9       9       8       9       9
       8       9       9       8       9       9       8       9       9       8
       9       9       8       9       9       8       9       9       8       9
       9       8       9       9       8       9       9       8       9       9
       8       9       9       8       9       9       8       9       9       8
       9       9       8       9       9       8       9       9       8       9
       9       8       9       9       8       9       9       8       9       9
       8       9       9       8       9       9       8       9       9       8
       9       9       8       9       9       8       9       9       8       9
       9       8       9       9       8       9       9       8       9       9
       8       9       9       8       9       9       8       9       9       8
       9       9       8       9       9       8       9       9       8       9
       9       8       9       9       8       9       9       8       9       9
       8       9       9       8       9       9       8       9       9       8
       9       9       8       9       9       8       9       9       8       9
       9       8       9       9       8       9       9       8       9       9
       8       9       9       8       9       9       8       9       9       8
       9       9       8       9       9       8       9       9       8       9
       9       8       9       9       8       9       9       8       9       9
       8       9       9       8       9       9       8       9       9       8
       9       9       8       9       9       8       9       9       8       9
       9       8       9       9       8       9       9       8       9       9
       8       9       9       8       9       9       8       9       9       8
       9       9       8       9       9       8       9       9       8       9
       9       8       9       9       8       9       9       8       9       9
       8       9       9       8       9       9       8       9       9       8
       9       9       8       9       9       8       9       9       8       9
       9       8       9       9       8       9       9       8       9       9
       8       9       9       8       9       9       8       9       9       8
       9       9       8       9       9       8       9       9       8       9
       9       8       9       9       8       9       9       8       9       9
       8       9       9       8       9       9       8       9       9       8
       9       9       8       9       9       8       9       9       8       9
       9       8       9       9       8       9       9       8       9       9
       8       9       9       8       9       9       8       9       9       8
       9       9       8       9       9       8       9       9       8       9
       9       8       9       9       8       9       9       8       9       9
       8       9       9       8       9       9       8       9       9       8
       9       9       8       9       9       8       9       9       8       9
       9       8       9       9       8       9       9       8       9       9
       8       9       9       8       9       9       8       9       9       8
       9       9       8       9       9       8       9       9       8       9
       9       8       9       9       8       9       9       8       9       9
       8       9       9       8       9       9       8       9       9       8
       9       9       8       9       9       8       9       9       8       9
       9       8       9       9       8       9       9       8       9       9
       8       9       9       8       9       9       8       9       9       8
       9       9       8       9       9       8       9       9       8       9
       9       8       9       9       8       9       9       8       9       9
       8       9       9       8       9       9       8       9       9       8
       9       9       8       9       9       8       9       9       8       9
       9       8       9       9       8       9       9       8       9       9
       8       9       9       8       9       9       8       9       9       8
       9       9       8       9       9       8       9       9       8       9
       9       8       9       9       8       9       9       8       9       9
       8       9       9       8       9       9       8       9       9       8
       9       9       8       9       9       8       9       9       8       9
       9       8       9       9       8       9       9       8       9       9
       8       9       9       8       9       9       8       9       9       8
       9       9       8       9       9       8       9       9       8       9
       9       8       9       9       8       9       9       8       9       9
       8       9       9       8       9       9       8       9       9       8
       9       9       8       9       9       8       9       9       8       9
       9       8       9       9       8       9       9       8       9       9
       8       9       9       8       9       9       8       9       9       8
       9       9       8       9       9       8       9       9       8       9
       9       8       9       9       8       9       9       8       9       9
       8       9       9       8       9       9       8       9       9       8
       9       9       8       9       9       8       9       9       8       9
       9       8       9       9       8       9       9       8       9       9
       8       9       9       8       9       9       8       9       9       8
       9       9       8       9       9       8       9       9       8       9
       9       8       9       9       8       9       9       8       9       9
       8       9       9       8       9       9       8       9       9       8
       9       9       8       9       9       8       9       9       8       9
       9       8       9       9       8       9       9       8       9       9
       8       9       9       8       9       9       8       9       9       8
       9       9       8       9       9       8       9       9       8       9
       9       8       9       9       8       9       9       8       9       9
       8       9       9       8       9       9       8       9       9       8
       9       9       8       9       9       8       9       9       8       9
       9       8       9       9       8       9       9       8       9       9
       8       9       9       8       9       9       8       9       9       8
       9       9       8       9       9       8       9       9       8       9
       9       8       9       9       8       9       9       8       9       9
       8       9       9       8       9       9       8       9       9       8
       9       9       8       9       9       8       9       9       8       9
       9       8       9       9       8       9       9       8       9       9
       8       9       9       8       9       9       8       9       9       8
       9       9       8       9       9       8       9       9       8       9
       9       8       9       9       8       9       9       8       9       9
       8       9       9       8       9       9       8       9       9       8
       9       9       8       9       9       8       9       9       8       9
       9       8       9       9       8       9       9       8       9       9
       8       9       9       8       9       9       8       9       9       8
       9       9       8       9       9       8       9       9       8       9
       9       8       9       9       8       9       9       8       9       9
       8       9       9       8       9       9       8       9       9       8
       9       9       8       9       9       8       9       9       8       9
       9       8       9       9       8       9       9       8       9       9
       8       9       9       8       9       9       8       9       9       8
       9       9       8       9       9       8       9       9       8       9
       9       8       9       9       8       9       9       8       9       9
       8       9       9       8       9       9       8       9       9       8
       9       9       8       9       9       8       9       9       8       9
       9       8       9       9       8       9       9       8       9       9
       8       9       9       8       9       9       8       9       9       8
       9       9       8       9       9       8       9       9       8       9
       9       8       9       9       8       9       9       8       9       9
       8       9       9       8       9       9       8       9       9       8
       9       9       8       9       9       8       9       9       8       9
       9       8       9       9       8       9       9       8       9       9
       8       9       9       8       9       9       8       9       9       8
       9       9       8       9       9       8       9       9       8       9
       9       8       9       9       8       9       9       8       9       9
       8       9       9       8       9       9       8       9       9       8
       9       9       8       9       9       8       9       9       8       9
       9       8       9       9       8       9       9       8       9       9
       8       9       9       8       9       9       8       9       9       8
       9       9       8       9       9       8       9       9       8       9
       9       8       9       9       8       9       9       8       9       9
       8       9       9       8       9       9       8       9       9       8
       9       9       8       9       9       8       9       9       8       9
       9       8       9       9       8       9       9       8       9       9
       8       9       9       8       9       9       8       9       9       8
       9       9       8       9       9       8       9       9       8       9
       9       8       9       9       8       9       9       8       9       9
       8       9       9       8       9       9       8       9       9       8
       9       9       8       9       9       8       9       9       8       9
       9       8       9       9       8       9       9       8       9       9
       8       9       9       8       9       9       8       9       9       8
       9       9       8       9       9       8       9       9       8       9
       9       8       9       9       8       9       9       8       9       9
       8       9       9       8       9       9       8       9       9       8
       9       9       8       9       9       8       9       9       8       9
       9       8       9       9       8       9       9       8       9       9
       8       9       9       8       9       9       8       9       9       8
       9       9       8       9       9       8       9       9       8       9
       9       8       9       9       8       9       9       8       9       9
       8       9       9       8       9       9       8       9       9       8
       9       9       8       9       9       8       9       9       8       9
       9       8       9       9       8       9       9       8       9       9
       8       9       9       8       9       9       8       9       9       8
       9       9       8       9       9       8       9       9       8       9
       9       8       9       9       8       9       9       8       9       9
       8       9       9       8       9       9       8       9       9       8
       9       9       8       9       9       8       9       9       8       9
       9       8       9       9       8       9       9       8       9       9
       8       9       9       8       9       9       8       9       9       8
       9       9       8       9       9       8       9       9       8       9
       9       8       9       9       8       9       9       8       9       9
       8       9       9       8       9       9       8       9       9       8
       9       9       8       9       9       8       9       9       8       9
       9       8       9       9       8       9       9       8       9       9
       8       9       9       8       9       9       8       9       9       8
       9       9       8       9       9       8       9       9       8       9
       9       8       9       9       8       9       9       8       9       9
       8       9       9       8       9       9       8       9       9       8
       9       9       8       9       9       8       9       9       8       9
       9       8       9       9       8       9       9       8       9       9
       8       9       9       8       9       9       8       9       9       8
       9       9       8       9       9       8       9       9       8       9
       9       8       9       9       8       9       9       8       9       9
       8       9       9       8       9       9       8       9       9       8
       9       9       8       9       9       8       9       9       8       9
       9       8       9       9       8       9       9       8       9       9
       8       9       9       8       9       9       8       9       9       8
       9       9       8       9       9       8       9       9       8       9
       9       8       9       9       8       9       9       8       9       9
       8       9       9       8       9       9       8       9       9       8
       9       9       8       9       9       8       9       9       8       9
       9       8       9       9       8       9       9       8       9       9
       8       9       9       8       9       9       8       9       9       8
       9       9       8       9       9       8       9       9       8       9
       9       8       9       9       8       9       9       8       9       9
       8       9       9       8       9       9       8       9       9       8
       9       9       8       9       9       8       9       9       8       9
       9       8       9       9       8       9       9       8       9       9
       8       9       9       8       9       9       8       9       9       8
       9       9       8       9       9       8       9       9       8       9
       9       8       9       9       8       9       9       8       9       9
       8       9       9       8       9       9       8       9       9       8
       9       9       8       9       9       8       9       9       8       9
       9       8       9       9       8       9       9       8       9       9
       8       9       9       8       9       9       8       9       9       8
       9       9       8       9       9       8       9       9       8       9
       9       8       9       9       8       9       9       8       9       9
       8       9       9       8       9       9       8       9       9       8
       9       9       8       9       9       8       9       9       8       9
       9       8       9       9       8       9       9       8       9       9
       8       9       9       8       9       9       8       9       9       8
       9       9       8       9       9       8       9       9       8       9
       9       8       9       9       8       9       9       8       9       9
       8       9       9       8       9       9       8       9       9       8
       9       9       8       9       9       8       9       9       8       9
       9       8       9       9       8       9       9       8       9       9
       8       9       9       8       9       9       8       9       9       8
       9       9       8       9       9       8       9       9       8       9
       9       8       9       9       8       9       9       8       9       9
       8       9       9       8       9       9       8       9       9       8
       9       9       8       9       9       8       9       9       8       9
       9       8       9       9       8       9       9       8       9       9
       8       9       9       8       9       9       8       9       9       8
       9       9       8       9       9       8       9       9       8       9
       9       8       9       9       8       9       9       8       9       9
       8       9       9       8       9       9       8       9       9       8
       9       9       8       9       9       8       9       9       8       9
       9       8       9       9       8       9       9       8       9       9
       8       9       9       8       9       9       8       9       9       8
       9       9       8       9       9       8       9       9       8       9
       9       8       9       9       8       9       9       8       9       9
       8       9       9       8       9       9       8       9       9       8
       9       9       8       9       9       8       9       9       8       9
       9       8       9       9       8       9       9       8       9       9
       8       9       9       8       9       9       8       9       9       8
       9       9       8       9       9       8       9       9       8       9
       9       8       9       9       8       9       9       8       9       9
       8       9       9       8       9       9       8       9       9       8
       9       9       8       9       9       8       9       9       8       9
       9       8       9       9       8       9       9       8       9       9
       8       9       9       8       9       9       8       9       9       8
       9       9       8       9       9       8       9       9       8       9
       9       8       9       9       8       9       9       8       9       9
       8       9       9       8       9       9       8       9       9       8
       9       9       8       9       9       8       9       9       8       9
       9       8       9       9       8       9       9       8       9       9
       8       9       9       8       9       9       8       9       9       8
       9       9       8       9       9       8       9       9       8       9
       9       8       9       9       8       9       9       8       9       9
       8       9       9       8       9       9       8       9       9       8
       9       9       8       9       9       8       9       9       8       9
       9       8       9       9       8       9       9       8       9       9
       8       9       9       8       9       9       8       9       9       8
       9       9       8       9       9       8       9       9       8       9
       9       8       9       9       8       9       9       8       9       9
       8       9       9       8       9       9       8       9       9       8
       9       9       8       9       9       8       9       9       8       9
       9       8       9       9       8       9       9       8       9       9
       8       9       9       8       9       9       8       9       9       8
       9       9       8       9       9       8       9       9       8       9
       9       8       9       9       8       9       9       8       9       9
       8       9       9       8       9       9       8       9       9       8
       9       9       8       9       9       8       9       9       8       9
       9       8       9       9       8       9       9       8       9       9
       8       9       9       8       9       9       8       9       9       8
       9       9       8       9       9       8       9       9       8       9
       9       8       9       9       8       9       9       8       9       9
       8       9       9       8       9       9       8       9       9       8
       9       9       8       9       9       8       9       9       8       9
       9       8       9       9       8       9       9       8       9       9
       8       9       9       8       9       9       8       9       9       8
       9       9       8       9       9       8       9       9       8       9
       9       8       9       9       8       9       9       8       9       9
       8       9       9       8       9       9       8       9       9       8
       9       9       8       9       9       8       9       9       8       9
       9       8       9       9       8       9       9       8       9       9
       8       9       9       8       9       9       8       9       9       8
       9       9       8       9       9       8       9       9       8       9
       9       8       9       9       8       9       9       8       9       9
       8       9       9       8       9       9       8       9       9       8
       9       9       8       9       9       8       9       9       8       9
       9       8       9       9       8       9       9       8       9       9
       8       9       9       8       9       9       8       9       9       8
       9       9       8       9       9       8       9       9       8       9
       9       8       9       9       8       9       9       8       9       9
       8       9       9       8       9       9       8       9       9       8
       9       9       8       9       9       8       9       9       8       9
       9       8       9       9       8       9       9       8       9       9
       8       9       9       8       9       9       8       9       9       8
       9       9       8       9       9       8       9       9       8       9
       9       8       9       9       8       9       9       8       9       9
       8       9       9       8       9       9       8       9       9       8
       9       9       8       9       9       8       9       9       8       9
       9       8       9       9       8       9       9       8       9       9
       8       9       9       8       9       9       8       9       9       8
       9       9       8       9       9       8       9       9       8       9
       9       8       9       9       8       9       9       8       9       9
       8       9       9       8       9       9       8       9       9       8
       9       9       8       9       9       8       9       9       8       9
       9       8       9       9       8       9       9       8       9       9
       8       9       9       8       9       9       8       9       9       8
       9       9       8       9       9       8       9       9       8       9
       9       8       9       9       8       9       9       8       9       9
       8       9       9       8       9       9       8       9       9       8
       9       9       8       9       9       8       9       9       8       9
       9       8       9       9       8       9       9       8       9       9
       8       9       9       8       9       9       8       9       9       8
       9       9       8       9       9       8       9       9       8       9
       9       8       9       9       8       9       9       8       9       9
       8       9       9       8       9       9       8       9       9       8
       9       9       8       9       9       8       9       9       8       9
       9       8       9       9       8       9       9       8       9       9
       8       9       9       8       9       9       8       9       9       8
       9       9       8       9       9       8       9       9       8       9
       9       8       9       9       8       9       9       8       9       9
       8       9       9       8       9       9       8       9       9       8
       9       9       8       9       9       8       9       9       8       9
       9       8       9       9       8       9       9       8       9       9
       8       9       9       8       9       9       8       9       9       8
       9       9       8       9       9       8       9       9       8       9
       9       8       9       9       8       9       9       8       9       9
       8       9       9       8       9       9       8       9       9       8
       9       9       8       9       9       8       9       9       8       9
       9       8       9       9       8       9       9       8       9       9
       8       9       9       8       9       9       8       9       9       8
       9       9       8       9       9       8       9       9       8       9
       9       8       9       9       8       9       9       8       9       9
       8       9       9       8       9       9       8       9       9       8
       9       9       8       9       9       8       9       9       8       9
       9       8       9       9       8       9       9       8       9       9
       8       9       9       8       9       9       8       9       9       8
       9       9       8       9       9       8       9       9       8       9
       9       8       9       9       8       9       9       8       9       9
       8       9       9       8       9       9       8       9       9       8
       9       9       8       9       9       8       9       9       8       9
       9       8       9       9       8       9       9       8       9       9
       8       9       9       8       9       9       8       9       9       8
       9       9       8       9       9       8       9       9       8       9
       9       8       9       9       8       9       9       8       9       9
       8       9       9       8       9       9       8       9       9       8
       9       9       8       9       9       8       9       9       8       9
       9       8       9       9       8       9       9       8       9       9
       8       9       9       8       9       9       8       9       9       8
       9       9       8       9       9       8       9       9       8       9
       9       8       9       9       8       9       9       8       9       9
       8       9       9       8       9       9       8       9       9       8
       9       9       8       9       9       8       9       9       8       9
       9       8       9       9       8       9       9       8       9       9
       8       9       9       8       9       9       8       9       9       8
       9       9       8       9       9       8       9       9       8       9
       9       8       9       9       8       9       9       8       9       9
       8       9       9       8       9       9       8       9       9       8
       9       9       8       9       9       8       9       9       8       9
       9       8       9       9       8       9       9       8       9       9
       8       9       9       8       9       9       8       9       9       8
       9       9       8       9       9       8       9       9       8       9
       9       8       9       9       8       9       9       8       9       9
       8       9       9       8       9       9       8       9       9       8
       9       9       8       9       9       8       9       9       8       9
       9       8       9       9       8       9       9       8       9       9
       8       9       9       8       9       9       8       9       9       8
       9       9       8       9       9       8       9       9       8       9
       9       8       9       9       8       9       9       8       9       9
       8       9       9       8       9       9       8       9       9       8
       9       9       8       9       9       8       9       9       8       9
       9       8       9       9       8       9       9       8       9       9
       8       9       9       8       9       9       8       9       9       8
       9       9       8       9       9       8       9       9       8       9
       9       8       9       9       8       9       9       8       9       9
       8       9       9       8       9       9       8       9       9       8
       9       9       8       9       9       8       9       9       8       9
       9       8       9       9       8       9       9       8       9       9
       8       9       9       8       9       9       8       9       9       8
       9       9       8       9       9       8       9       9       8       9
       9       8       9       9       8       9       9       8       9       9
       8       9       9       8       9       9       8       9       9       8
       9       9       8       9       9       8       9       9       8       9
       9       8       9       9       8       9       9       8       9       9
       8       9       9       8       9       9       8       9       9       8
       9       9       8       9       9       8       9       9       8       9
       9       8       9       9       8       9       9       8       9       9
       8       9       9       8       9       9       8       9       9       8
       9       9       8       9       9       8       9       9       8       9
       9       8       9       9       8       9       9       8       9       9
       8       9       9       8       9       9       8       9       9       8
       9       9       8       9       9       8       9       9       8       9
       9       8       9       9       8       9       9       8       9       9
       8       9       9       8       9       9       8       9       9       8
       9       9       8       9       9       8       9       9       8       9
       9       8       9       9       8       9       9       8       9       9
       8       9       9       8       9       9       8       9       9       8
       9       9       8       9       9       8       9       9       8       9
       9       8       9       9       8       9       9       8       9       9
       8       9       9       8       9       9       8       9       9       8
       9       9       8       9       9       8       9       9       8       9
       9       8       9       9       8       9       9       8       9       9
       8       9       9       8       9       9       8       9       9       8
       9       9       8       9       9       8       9       9       8       9
       9       8       9       9       8       9       9       8       9       9
       8       9       9       8       9       9       8       9       9       8
       9       9       8       9       9       8       9       9       8       9
       9       8       9       9       8       9       9       8       9       9
       8       9       9       8       9       9       8       9       9       8
       9       9       8       9       9       8       9       9       8       9
       9       8       9       9       8       9       9       8       9       9
       8       9       9       8       9       9       8       9       9       8
       9       9       8       9       9       8       9       9       8       9
       9       8       9       9       8       9       9       8       9       9
       8       9       9       8       9       9       8       9       9       8
       9       9       8       9       9       8       9       9       8       9
       9       8       9       9       8       9       9       8       9       9
       8       9       9       8       9       9       8       9       9       8
       9       9       8       9       9       8       9       9       8       9
       9       8       9       9       8       9       9       8       9       9
       8       9       9       8       9       9       8       9       9       8
       9       9       8       9       9       8       9       9       8       9
       9       8       9       9       8       9       9       8       9       9
       8       9       9       8       9       9       8       9       9       8
       9       9       8       9       9       8       9       9       8       9
       9       8       9       9       8       9       9       8       9       9
       8       9       9       8       9       9       8       9       9       8
       9       9       8       9       9       8       9       9       8       9
       9       8       9       9       8       9       9       8       9       9
       8       9       9       8       9       9       8       9       9       8
       9       9       8       9       9       8       9       9       8       9
       9       8       9       9       8       9       9       8       9       9
       8       9       9       8       9       9       8       9       9       8
       9       9       8       9       9       8       9       9       8       9
       9       8       9       9       8       9       9       8       9       9
       8       9       9       8       9       9       8       9       9       8
       9       9       8       9       9       8       9       9       8       9
       9       8       9       9       8       9       9       8       9       9
       8       9       9       8       9       9       8       9       9       8
       9       9       8       9       9       8       9       9       8       9
       9       8       9       9       8       9       9       8       9       9
       8       9       9       8       9       9       8       9       9       8
       9       9       8       9       9       8       9       9       8       9
       9       8       9       9       8       9       9       8       9       9
       8       9       9       8       9       9       8       9       9       8
       9       9       8       9       9       8       9       9       8       9
       9       8       9       9       8       9       9       8       9       9
       8       9       9       8       9       9       8       9       9       8
       9       9       8       9       9       8       9       9       8       9
       9       8       9       9       8       9       9       8       9       9
       8       9       9       8       9       9       8       9       9       8
       9       9       8       9       9       8       9       9       8       9
       9       8       9       9       8       9       9       8       9       9
       8       9       9       8       9       9       8       9       9       8
       9       9       8       9       9       8       9       9       8       9
       9       8       9       9       8       9       9       8       9       9
       8       9       9       8       9       9       8       9       9       8
       9       9       8       9       9       8       9       9       8       9
       9       8       9       9       8       9       9       8       9       9
       8       9       9       8       9       9       8       9       9       8
       9       9       8       9       9       8       9       9       8       9
       9       8       9       9       8       9       9       8       9       9
       8       9       9       8       9       9       8       9       9       8
       9       9       8       9       9       8       9       9       8       9
       9       8       9       9       8       9       9       8       9       9
       8       9       9       8       9       9       8       9       9       8
       9       9       8       9       9       8       9       9       8       9
       9       8       9       9       8       9       9       8       9       9
       8       9       9       8       9       9       8       9       9       8
       9       9       8       9       9       8       9       9       8       9
       9       8       9       9       8       9       9       8       9       9
       8       9       9       8       9       9       8       9       9       8
       9       9       8       9       9       8       9       9       8       9
       9       8       9       9       8       9       9       8       9       9
       8       9       9       8       9       9       8       9       9       8
       9       9       8       9       9       8       9       9       8       9
       9       8       9       9       8       9       9       8       9       9
       8       9       9       8       9       9       8       9       9       8
       9       9       8       9       9       8       9       9       8       9
       9       8       9       9       8       9       9       8       9       9
       8       9       9       8       9       9       8       9       9       8
       9       9       8       9       9       8       9       9       8       9
       9       8       9       9       8       9       9       8       9       9
       8       9       9       8       9       9       8       9       9       8
       9       9       8       9       9       8       9       9       8       9
       9       8       9       9       8       9       9       8       9       9
       8       9       9       8       9       9       8       9       9       8
       9       9       8       9       9       8       9       9       8       9
       9       8       9       9       8       9       9       8       9       9
       8       9       9       8       9       9       8       9       9       8
       9       9       8       9       9       8       9       9       8       9
       9       8       9       9       8       9       9       8       9       9
       8       9       9       8       9       9       8       9       9       8
       9       9       8       9       9       8       9       9       8       9
       9       8       9       9       8       9       9       8       9       9
       8       9       9       8       9       9       8       9       9       8
       9       9       8       9       9       8       9       9       8       9
       9       8       9       9       8       9       9       8       9       9
       8       9       9       8       9       9       8       9       9       8
       9       9       8       9       9       8       9       9       8       9
       9       8       9       9       8       9       9       8       9       9
       8       9       9       8       9       9       8       9       9       8
       9       9       8       9       9       8       9       9       8       9
       9       8       9       9       8       9       9       8       9       9
       8       9       9       8       9       9       8       9       9       8
       9       9       8       9       9       8       9       9       8       9
       9       8       9       9       8       9       9       8       9       9
       8       9       9       8       9       9       8       9       9       8
       9       9       8       9       9       8       9       9       8       9
       9       8       9       9       8       9       9       8       9       9
       8       9       9       8       9       9       8       9       9       8
       9       9       8       9       9       8       9       9       8       9
       9       8       9       9       8       9       9       8       9       9
       8       9       9       8       9       9       8       9       9       8
       9       9       8       9       9       8       9       9       8       9
       9       8       9       9       8       9       9       8       9       9
       8       9       9       8       9       9       8       9       9       8
       9       9       8       9       9       8       9       9       8       9
       9       8       9       9       8       9       9       8       9       9
       8       9       9       8       9       9       8       9       9       8
       9       9       8       9       9       8       9       9       8       9
       9       8       9       9       8       9       9       8       9       9
       8       9       9       8       9       9       8       9       9       8
       9       9       8       9       9       8       9       9       8       9
       9       8       9       9       8       9       9       8       9       9
       8       9       9       8       9       9       8       9       9       8
       9       9       8       9       9       8       9       9       8       9
       9       8       9       9       8       9       9       8       9       9
       8       9       9       8       9       9       8       9       9       8
       9       9       8       9       9       8       9       9       8       9
       9       8       9       9       8       9       9       8       9       9
       8       9       9       8       9       9       8       9       9       8
       9       9       8       9       9       8       9       9       8       9
       9       8       9       9       8       9       9       8       9       9
       8       9       9       8       9       9       8       9       9       8
       9       9       8       9       9       8       9       9       8       9
       9       8       9       9       8       9       9       8       9       9
       8       9       9       8       9       9       8       9       9       8
       9       9       8       9       9       8       9       9       8       9
       9       8       9       9       8       9       9       8       9       9
       8       9       9       8       9       9       8       9       9       8
       9       9       8       9       9       8       9       9       8       9
       9       8       9       9       8       9       9       8       9       9
       8       9       9       8       9       9       8       9       9       8
       9       9       8       9       9       8       9       9       8       9
       9       8       9       9       8       9       9       8       9       9
       8       9       9       8       9       9       8       9       9       8
       9       9       8       9       9       8       9       9       8       9
       9       8       9       9       8       9       9       8       9       9
       8       9       9       8       9       9       8       9       9       8
       9       9       8       9       9       8       9       9       8       9
       9       8       9       9       8       9       9       8       9       9
       8       9       9       8       9       9       8       9       9       8
       9       9       8       9       9       8       9       9       8       9
       9       8       9       9       8       9       9       8       9       9
       8       9       9       8       9       9       8       9       9       8
       9       9       8       9       9       8       9       9       8       9
       9       8       9       9       8       9       9       8       9       9
       8       9       9       8       9       9       8       9       9       8
       9       9       8       9       9       8       9       9       8       9
       9       8       9       9       8       9       9       8       9       9
       8       9       9       8       9       9       8       9       9       8
       9       9       8       9       9       8       9       9       8       9
       9       8       9       9       8       9       9       8       9       9
       8       9       9       8       9       9       8       9       9       8
       9       9       8       9       9       8       9       9       8       9
       9       8       9       9       8       9       9       8       9       9
       8       9       9       8       9       9       8       9       9       8
       9       9       8       9       9       8       9       9       8       9
       9       8       9       9       8       9       9       8       9       9
       8       9       9       8       9       9       8       9       9       8
       9       9       8       9       9       8       9       9       8       9
       9       8       9       9       8       9       9       8       9       9
       8       9       9       8       9       9       8       9       9       8
       9       9       8       9       9       8       9       9       8       9
       9       8       9       9       8       9       9       8       9       9
       8       9       9       8       9       9       8       9       9       8
       9       9       8       9       9       8       9       9       8       9
       9       8       9       9       8       9       9       8       9       9
       8       9       9       8       9       9       8       9       9       8
       9       9       8       9       9       8       9       9       8       9
       9       8       9       9       8       9       9       8       9       9
       8       9       9       8       9       9       8       9       9       8
       9       9       8       9       9       8       9       9       8       9
       9       8       9       9       8       9       9       8       9       9
       8       9       9       8       9       9       8       9       9       8
       9       9       8       9       9       8       9       9       8       9
       9       8       9       9       8       9       9       8       9       9
       8       9       9       8       9       9       8       9       9       8
       9       9       8       9       9       8       9       9       8       9
       9       8       9       9       8       9       9       8       9       9
       8       9       9       8       9       9       8       9       9       8
       9       9       8       9       9       8       9       9       8       9
       9       8       9       9       8       9       9       8       9       9
       8       9       9       8       9       9       8       9       9       8
       9       9       8       9       9       8       9       9       8       9
       9       8       9       9       8       9       9       8       9       9
       8       9       9       8       9       9       8       9       9       8
       9       9       8       9       9       8       9       9       8       9
       9       8       9       9       8       9       9       8       9       9
       8       9       9       8       9       9       8       9       9       8
       9       9       8       9       9       8       9       9       8       9
       9       8       9       9       8       9       9       8       9       9
       8       9       9       8       9       9       8       9       9       8
       9       9       8       9       9       8       9       9       8       9
       9       8       9       9       8       9       9       8       9       9
       8       9       9       8       9       9       8       9       9       8
       9       9       8       9       9       8       9       9       8       9
       9       8       9       9       8       9       9       8       9       9
       8       9       9       8       9       9       8       9       9       8
       9       9       8       9       9       8       9       9       8       9
       9       8       9       9       8       9       9       8       9       9
       8       9       9       8       9       9       8       9       9       8
       9       9       8       9       9       8       9       9       8       9
       9       8       9       9       8       9       9       8       9       9
       8       9       9       8       9       9       8       9       9       8
       9       9       8       9       9       8       9       9       8       9
       9       8       9       9       8       9       9       8       9       9
       8       9       9       8       9       9       8       9       9       8
       9       9       8       9       9       8       9       9       8       9
       9       8       9       9       8       9       9       8       9       9
       8       9       9       8       9       9       8       9       9       8
       9       9       8       9       9       8       9       9       8       9
       9       8       9       9       8       9       9       8       9       9
       8       9       9       8       9       9       8       9       9       8
       9       9       8       9       9       8       9       9       8       9
       9       8       9       9       8       9       9       8       9       9
       8       9       9       8       9       9       8       9       9       8
       9       9       8       9       9       8       9       9       8       9
       9       8       9       9       8       9       9       8       9       9
       8       9       9       8       9       9       8       9       9       8
       9       9       8       9       9       8       9       9       8       9
       9       8       9       9       8       9       9       8       9       9
       8       9       9       8       9       9       8       9       9       8
       9       9       8       9       9       8       9       9       8       9
       9       8       9       9       8       9       9       8       9       9
       8       9       9       8       9       9       8       9       9       8
       9       9       8       9       9       8       9       9       8       9
       9       8       9       9       8       9       9       8       9       9
       8       9       9       8       9       9       8       9       9       8
       9       9       8       9       9       8       9       9       8       9
       9       8       9       9       8       9       9       8       9       9
       8       9       9       8       9       9       8       9       9       8
       9       9       8       9       9       8       9       9       8       9
       9       8       9       9       8       9       9       8       9       9
       8       9       9       8       9       9       8       9       9       8
       9       9       8       9       9       8       9       9       8       9
       9       8       9       9       8       9       9       8       9       9
       8       9       9       8       9       9       8       9       9       8
       9       9       8       9       9       8       9       9       8       9
       9       8       9       9       8       9       9       8       9       9
       8       9       9       8       9       9       8       9       9       8
       9       9       8       9       9       8       9       9       8       9
       9       8       9       9       8       9       9       8       9       9
       8       9       9       8       9       9       8       9       9       8
       9       9       8       9       9       8       9       9       8       9
       9       8       9       9       8       9       9       8       9       9
       8       9       9       8       9       9       8       9       9       8
       9       9       8       9       9       8       9       9       8       9
       9       8       9       9       8       9       9       8       9       9
       8       9       9       8       9       9       8       9       9       8
       9       9       8       9       9       8       9       9       8       9
       9       8       9       9       8       9       9       8       9       9
       8       9       9       8       9       9       8       9       9       8
       9       9       8       9       9       8       9       9       8       9
       9       8       9       9       8       9       9       8       9       9
       8       9       9       8       9       9       8       9       9       8
       9       9       8       9       9       8       9       9       8       9
       9       8       9       9       8       9       9       8       9       9
       8       9       9       8       9       9       8       9       9       8
       9       9       8       9       9       8       9       9       8       9
       9       8       9       9       8       9       9       8       9       9
       8       9       9       8       9       9       8       9       9       8
       9       9       8       9       9       8       9       9       8       9
       9       8       9       9       8       9       9       8       9       9
       8       9       9       8       9       9       8       9       9       8
       9       9       8       9       9       8       9       9       8       9
       9       8       9       9       8       9       9       8       9       9
       8       9       9       8       9       9       8       9       9       8
       9       9       8       9       9       8       9       9       8       9
       9       8       9       9       8       9       9       8       9       9
       8       9       9       8       9       9       8       9       9       8
       9       9       8       9       9       8       9       9       8       9
       9       8       9       9       8       9       9       8       9       9
       8       9       9       8       9       9       8       9       9       8
       9       9       8       9       9       8       9       9       8       9
       9       8       9       9       8       9       9       8       9       9
       8       9       9       8       9       9       8       9       9       8
       9       9       8       9       9       8       9       9       8       9
       9       8       9       9       8       9       9       8       9       9
       8       9       9       8       9       9       8       9       9       8
       9       9       8       9       9       8       9       9       8       9
       9       8       9       9       8       9       9       8       9       9
       8       9       9       8       9       9       8       9       9       8
       9       9       8       9       9       8       9       9       8       9
       9       8       9       9       8       9       9       8       9       9
       8       9       9       8       9       9       8       9       9       8
       9       9       8       9       9       8       9       9       8       9
       9       8       9       9       8       9       9       8       9       9
       8       9       9       8       9       9       8       9       9       8
       9       9       8       9       9       8       9       9       8       9
       9       8       9       9       8       9       9       8       9       9
       8       9       9       8       9       9       8       9       9       8
       9       9       8       9       9       8       9       9       8       9
       9       8       9       9       8       9       9       8       9       9
       8       9       9       8       9       9       8       9       9       8
       9       9       8       9       9       8       9       9       8       9
       9       8       9       9       8       9       9       8       9       9
       8       9       9       8       9       9       8       9       9       8
       9       9       8       9       9       8       9       9       8       9
       9       8       9       9       8       9       9       8       9       9
       8       9       9       8       9       9       8       9       9       8
       9       9       8       9       9       8       9       9       8       9
       9       8       9       9       8       9       9       8       9       9
       8       9       9       8       9       9       8       9       9       8
       9       9       8       9       9       8       9       9       8       9
       9       8       9       9       8       9       9       8       9       9
       8       9       9       8       9       9       8       9       9       8
       9       9       8       9       9       8       9       9       8       9
       9       8       9       9       8       9       9       8       9       9
       8       9       9       8       9       9       8       9       9       8
       9       9       8       9       9       8       9       9       8       9
       9       8       9       9       8       9       9       8       9       9
       8       9       9       8       9       9       8       9       9       8
       9       9       8       9       9       8       9       9       8       9
       9       8       9       9       8       9       9       8       9       9
       8       9       9       8       9       9       8       9       9       8
       9       9       8       9       9       8       9       9       8       9
       9       8       9       9       8       9       9       8       9       9
       8       9       9       8       9       9       8       9       9       8
       9       9       8       9       9       8       9       9       8       9
       9       8       9       9       8       9       9       8       9       9
       8       9       9       8       9       9       8       9       9       8
       9       9       8       9       9       8       9       9       8       9
       9       8       9       9       8       9       9       8       9       9
       8       9       9       8       9       9       8       9       9       8
       9       9       8       9       9       8       9       9       8       9
       9       8       9       9       8       9       9       8       9       9
       8       9       9       8       9       9       8       9       9       8
       9       9       8       9       9       8       9       9       8       9
       9       8       9       9       8       9       9       8       9       9
       8       9       9       8       9       9       8       9       9       8
       9       9       8       9       9       8       9       9       8       9
       9       8       9       9       8       9       9       8       9       9
       8       9       9       8       9       9       8       9       9       8
       9       9       8       9       9       8       9       9       8       9
       9       8       9       9       8       9       9       8       9       9
       8       9       9       8       9       9       8       9       9       8
       9       9       8       9       9       8       9       9       8       9
       9       8       9       9       8       9       9       8       9       9
       8       9       9       8       9       9       8       9       9       8
       9       9       8       9       9       8       9       9       8       9
       9       8       9       9       8       9       9       8       9       9
       8       9       9       8       9       9       8       9       9       8
       9       9       8       9       9       8       9       9       8       9
       9       8       9       9       8       9       9       8       9       9
       8       9       9       8       9       9       8       9       9       8
       9       9       8       9       9       8       9       9       8       9
       9       8       9       9       8       9       9       8       9       9
       8       9       9       8       9       9       8       9       9       8
       9       9       8       9       9       8       9       9       8       9
       9       8       9       9       8       9       9       8       9       9
       8       9       9       8       9       9       8       9       9       8
       9       9       8       9       9       8       9       9       8       9
       9       8       9       9       8       9       9       8       9       9
       8       9       9       8       9       9       8       9       9       8
       9       9       8       9       9       8       9       9       8       9
       9       8       9       9       8       9       9       8       9       9
       8       9       9       8       9       9       8       9       9       8
       9       9       8       9       9       8       9       9       8       9
       9       8       9       9       8       9       9       8       9       9
       8       9       9       8       9       9       8       9       9       8
       9       9       8       9       9       8       9       9       8       9
       9       8       9       9       8       9       9       8       9       9
       8       9       9       8       9       9       8       9       9       8
       9       9       8       9       9       8       9       9       8       9
       9       8       9       9       8       9       9       8       9       9
       8       9       9       8       9       9       8       9       9       8
       9       9       8       9       9       8       9       9       8       9
       9       8       9       9       8       9       9       8       9       9
       8       9       9       8       9       9       8       9       9       8
       9       9       8       9       9       8       9       9       8       9
       9       8       9       9       8       9       9       8       9       9
       8       9       9       8       9       9       8       9       9       8
       9       9       8       9       9       8       9       9       8       9
       9       8       9       9       8       9       9       8       9       9
       8       9       9       8       9       9       8       9       9       8
       9       9       8       9       9       8       9       9       8       9
       9       8       9       9       8       9       9       8       9       9
       8       9       9       8       9       9       8       9       9       8
       9       9       8       9       9       8       9       9       8       9
       9       8       9       9       8       9       9       8       9       9
       8       9       9       8       9       9       8       9       9       8
       9       9       8       9       9       8       9       9       8       9
       9       8       9       9       8       9       9       8       9       9
       8       9       9       8       9       9       8       9       9       8
       9       9       8       9       9       8       9       9       8       9
       9       8       9       9       8       9       9       8       9       9
       8       9       9       8       9       9       8       9       9       8
       9       9       8       9       9       8       9       9       8       9
       9       8       9       9       8       9       9       8       9       9
       8       9       9       8       9       9       8       9       9       8
       9       9       8       9       9       8       9       9       8       9
       9       8       9       9       8       9       9       8       9       9
       8       9       9       8       9       9       8       9       9       8
       9       9       8       9       9       8       9       9       8       9
       9       8       9       9       8       9       9       8       9       9
       8       9       9       8       9       9       8       9       9       8
       9       9       8       9       9       8       9       9       8       9
       9       8       9       9       8       9       9       8       9       9
       8       9       9       8       9       9       8       9       9       8
       9       9       8       9       9       8       9       9       8       9
       9       8       9       9       8       9       9       8       9       9
       8       9       9       8       9       9       8       9       9       8
       9       9       8       9       9       8       9       9       8       9
       9       8       9       9       8       9       9       8       9       9
       8       9       9       8       9       9       8       9       9       8
       9       9       8       9       9       8       9       9       8       9
       9       8       9       9       8       9       9       8       9       9
       8       9       9       8       9       9       8       9       9       8
       9       9       8       9       9       8       9       9       8       9
       9       8       9       9       8       9       9       8       9       9
       8       9       9       8       9       9       8       9       9       8
       9       9       8       9       9       8       9       9       8       9
       9       8       9       9       8       9       9       8       9       9
       8       9       9       8       9       9       8       9       9       8
       9       9       8       9       9       8       9       9       8       9
       9       8       9       9       8       9       9       8       9       9
       8       9       9       8       9       9       8       9       9       8
       9       9       8       9       9       8       9       9       8       9
       9       8       9       9       8       9       9       8       9       9
       8       9       9       8       9       9       8       9       9       8
       9       9       8       9       9       8       9       9       8       9
       9       8       9       9       8       9       9       8       9       9
       8       9       9       8       9       9       8       9       9       8
       9       9       8       9       9       8       9       9       8       9
       9       8       9       9       8       9       9       8       9       9
       8       9       9       8       9       9       8       9       9       8
       9       9       8       9       9       8       9       9       8       9
       9       8       9       9       8       9       9       8       9       9
       8       9       9       8       9       9       8       9       9       8
       9       9       8       9       9       8       9       9       8       9
       9       8       9       9       8       9       9       8       9       9
       8       9       9       8       9       9       8       9       9       8
       9       9       8       9       9       8       9       9       8       9
       9       8       9       9       8       9       9       8       9       9
       8       9       9       8       9       9       8       9       9       8
       9       9       8       9       9       8       9       9       8       9
       9       8       9       9       8       9       9       8       9       9
       8       9       9       8       9       9       8       9       9       8
       9       9       8       9       9       8       9       9       8       9
       9       8       9       9       8       9       9       8       9       9
       8       9       9       8       9       9       8       9       9       8
       9       9       8       9       9       8       9       9       8       9
       9       8       9       9       8       9       9       8       9       9
       8       9       9       8       9       9       8       9       9       8
       9       9       8       9       9       8       9       9       8       9
       9       8       9       9       8       9       9       8       9       9
       8       9       9       8       9       9       8       9       9       8
       9       9       8       9       9       8       9       9       8       9
       9       8       9       9       8       9       9       8       9       9
       8       9       9       8       9       9       8       9       9       8
       9       9       8       9       9       8       9       9       8       9
       9       8       9       9       8       9       9       8       9       9
       8       9       9       8       9       9       8       9       9       8
       9       9       8       9       9       8       9       9       8       9
       9       8       9       9       8       9       9       8       9       9
       8       9       9       8       9       9       8       9       9       8
       9       9       8       9       9       8       9       9       8       9
       9       8       9       9       8       9       9       8       9       9
       8       9       9       8       9       9       8       9       9       8
       9       9       8       9       9       8       9       9       8       9
       9       8       9       9       8       9       9       8       9       9
       8       9       9       8       9       9       8       9       9       8
       9       9       8       9       9       8       9       9       8       9
       9       8       9       9       8       9       9       8       9       9
       8       9       9       8       9       9       8       9       9       8
       9       9       8       9       9       8       9       9       8       9
       9       8       9       9       8       9       9       8       9       9
       8       9       9       8       9       9       8       9       9       8
       9       9       8       9       9       8       9       9       8       9
       9       8       9       9       8       9       9       8       9       9
       8       9       9       8       9       9       8       9       9       8
       9       9       8       9       9       8       9       9       8       9
       9       8       9       9       8       9       9       8       9       9
       8       9       9       8       9       9       8       9       9       8
       9       9       8       9       9       8       9       9       8       9
       9       8       9       9       8       9       9       8       9       9
       8       9       9       8       9       9       8       9       9       8
       9       9       8       9       9       8       9       9       8       9
       9       8       9       9       8       9       9       8       9       9
       8       9       9       8       9       9       8       9       9       8
       9       9       8       9       9       8       9       9       8       9
       9       8       9       9       8       9       9       8       9       9
       8       9       9       8       9       9       8       9       9       8
       9       9       8       9       9       8       9       9       8       9
       9       8       9       9       8       9       9       8       9       9
       8       9       9       8       9       9       8       9       9       8
       9       9       8       9       9       8       9       9       8       9
       9       8       9       9       8       9       9       8       9       9
       8       9       9       8       9       9       8       9       9       8
       9       9       8       9       9       8       9       9       8       9
       9       8       9       9       8       9       9       8       9       9
       8       9       9       8       9       9       8       9       9       8
       9       9       8       9       9       8       9       9       8       9
       9       8       9       9       8       9       9       8       9       9
       8       9       9       8       9       9       8       9       9       8
       9       9       8       9       9       8       9       9       8       9
       9       8       9       9       8       9       9       8       9       9
       8       9       9       8       9       9       8       9       9       8
       9       9       8       9       9       8       9       9       8       9
       9       8       9       9       8       9       9       8       9       9
       8       9       9       8       9       9       8       9       9       8
       9       9       8       9       9       8       9       9       8       9
       9       8       9       9       8       9       9       8       9       9
       8       9       9       8       9       9       8       9       9       8
       9       9       8       9       9       8       9       9       8       9
       9       8       9       9       8       9       9       8       9       9
       8       9       9       8       9       9       8       9       9       8
       9       9       8       9       9       8       9       9       8       9
       9       8       9       9       8       9       9       8       9       9
       8       9       9       8       9       9       8       9       9       8
       9       9       8       9       9       8       9       9       8       9
       9       8       9       9       8       9       9       8       9       9
       8       9       9       8       9       9       8       9       9       8
       9       9       8       9       9       8       9       9       8       9
       9       8       9       9       8       9       9       8       9       9
       8       9       9       8       9       9       8       9       9       8
       9       9       8       9       9       8       9       9       8       9
       9       8       9       9       8       9       9       8       9       9
       8       9       9       8       9       9       8       9       9       8
       9       9       8       9       9       8       9       9       8       9
       9       8       9       9       8       9       9       8       9       9
       8       9       9       8       9       9       8       9       9       8
       9       9       8       9       9       8       9       9       8       9
       9       8       9       9       8       9       9       8       9       9
       8       9       9       8       9       9       8       9       9       8
       9       9       8       9       9       8       9       9       8       9
       9       8       9       9       8       9       9       8       9       9
       8       9       9       8       9       9       8       9       9       8
       9       9       8       9       9       8       9       9       8       9
       9       8       9       9       8       9       9       8       9       9
       8       9       9       8       9       9       8       9       9       8
       9       9       8       9       9       8       9       9       8       9
       9       8       9       9       8       9       9       8       9       9
       8       9       9       8       9       9       8       9       9       8
       9       9       8       9       9       8       9       9       8       9
       9       8       9       9       8       9       9       8       9       9
       8       9       9       8       9       9       8       9       9       8
       9       9       8       9       9       8       9       9       8       9
       9       8       9       9       8       9       9       8       9       9
       8       9       9       8       9       9       8       9       9       8
       9       9       8       9       9       8       9       9       8       9
       9       8       9       9       8       9       9       8       9       9
       8       9       9       8       9       9       8       9       9       8
       9       9       8       9       9       8       9       9       8       9
       9       8       9       9       8       9       9       8       9       9
       8       9       9       8       9       9       8       9       9       8
       9       9       8       9       9       8       9       9       8       9
       9       8       9       9       8       9       9       8       9       9
       8       9       9       8       9       9       8       9       9       8
       9       9       8       9       9       8       9       9       8       9
       9       8       9       9       8       9       9       8       9       9
       8       9       9       8       9       9       8       9       9       8
       9       9       8       9       9       8       9       9       8       9
       9       8       9       9       8       9       9       8       9       9
       8       9       9       8       9       9       8       9       9       8
       9       9       8       9       9       8       9       9       8       9
       9       8       9       9       8       9       9       8       9       9
       8       9       9       8       9       9       8       9       9       8
       9       9       8       9       9       8       9       9       8       9
       9       8       9       9       8       9       9       8       9       9
       8       9       9       8       9       9       8       9       9       8
       9       9       8       9       9       8       9       9       8       9
       9       8       9       9       8       9       9       8       9       9
       8       9       9       8       9       9       8       9       9       8
       9       9       8       9       9       8       9       9       8       9
       9       8       9       9       8       9       9       8       9       9
       8       9       9       8       9       9       8       9       9       8
       9       9       8       9       9       8       9       9       8       9
       9       8       9       9       8       9       9       8       9       9
       8       9       9       8       9       9       8       9       9       8
       9       9       8       9       9       8       9       9       8       9
       9       8       9       9       8       9       9       8       9       9
       8       9       9       8       9       9       8       9       9       8
       9       9       8       9       9       8       9       9       8       9
       9       8       9       9       8       9       9       8       9       9
       8       9       9       8       9       9       8       9       9       8
       9       9       8       9       9       8       9       9       8       9
       9       8       9       9       8       9       9       8       9       9
       8       9       9       8       9       9       8       9       9       8
       9       9       8       9       9       8       9       9       8       9
       9       8       9       9       8       9       9       8       9       9
       8       9       9       8       9       9       8       9       9       8
       9       9       8       9       9       8       9       9       8       9
       9       8       9       9       8       9       9       8       9       9
       8       9       9       8       9       9       8       9       9       8
       9       9       8       9       9       8       9       9       8       9
       9       8       9       9       8       9       9       8       9       9
       8       9       9       8       9       9       8       9       9       8
       9       9       8       9       9       8       9       9       8       9
       9       8       9       9       8       9       9       8       9       9
       8       9       9       8       9       9       8       9       9       8
       9       9       8       9       9       8       9       9       8       9
       9       8       9       9       8       9       9       8       9       9
       8       9       9       8       9       9       8       9       9       8
       9       9       8       9       9       8       9       9       8       9
       9       8       9       9       8       9       9       8       9       9
       8       9       9       8       9       9       8       9       9       8
       9       9       8       9       9       8       9       9       8       9
       9       8       9       9       8       9       9       8       9       9
       8       9       9       8       9       9       8       9       9       8
       9       9       8       9       9       8       9       9       8       9
       9       8       9       9       8       9       9       8       9       9
       8       9       9       8       9       9       8       9       9       8
       9       9       8       9       9       8       9       9       8       9
       9       8       9       9       8       9       9       8       9       9
       8       9       9       8       9       9       8       9       9       8
       9       9       8       9       9       8       9       9       8       9
       9       8       9       9       8       9       9       8       9       9
       8       9       9       8       9       9       8       9       9       8
       9       9       8       9       9       8       9       9       8       9
       9       8       9       9       8       9       9       8       9       9
       8       9       9       8       9       9       8       9       9       8
       9       9       8       9       9       8       9       9       8       9
       9       8       9       9       8       9       9       8       9       9
       8       9       9       8       9       9       8       9       9       8
       9       9       8       9       9       8       9       9       8       9
       9       8       9       9       8       9       9       8       9       9
       8       9       9       8       9       9       8       9       9       8
       9       9       8       9       9       8       9       9       8       9
       9       8       9       9       8       9       9       8       9       9
       8       9       9       8       9       9       8       9       9       8
       9       9       8       9       9       8       9       9       8       9
       9       8       9       9       8       9       9       8       9       9
       8       9       9       8       9       9       8       9       9       8
       9       9       8       9       9       8       9       9       8       9
       9       8       9       9       8       9       9       8       9       9
       8       9       9       8       9       9       8       9       9       8
       9       9       8       9       9       8       9       9       8       9
       9       8       9       9       8       9       9       8       9       9
       8       9       9       8       9       9       8       9       9       8
       9       9       8       9       9       8       9       9       8       9
       9       8       9       9       8       9       9       8       9       9
       8       9       9       8       9       9       8       9       9       8
       9       9       8       9       9       8       9       9       8       9
       9       8       9       9       8       9       9       8       9       9
       8       9       9       8       9       9       8       9       9       8
       9       9       8       9       9       8       9       9       8       9
       9       8       9       9       8       9       9       8       9       9
       8       9       9       8       9       9       8       9       9       8
       9       9       8       9       9       8       9       9       8       9
       9       8       9       9       8       9       9       8       9       9
       8       9       9       8       9       9       8       9       9       8
       9       9       8       9       9       8       9       9       8       9
       9       8       9       9       8       9       9       8       9       9
       8       9       9       8       9       9       8       9       9       8
       9       9       8       9       9       8       9       9       8       9
       9       8       9       9       8       9       9       8       9       9
       8       9       9       8       9       9       8       9       9       8
       9       9       8       9       9       8       9       9       8       9
       9       8       9       9       8       9       9       8       9       9
       8       9       9       8       9       9       8       9       9       8
       9       9       8       9       9       8       9       9       8       9
       9       8       9       9       8       9       9       8       9       9
       8       9       9       8       9       9       8       9       9       8
       9       9       8       9       9       8       9       9       8       9
       9       8       9       9       8       9       9       8       9       9
       8       9       9       8       9       9       8       9       9       8
       9       9       8       9       9       8       9       9       8       9
       9       8       9       9       8       9       9       8       9       9
       8       9       9       8       9       9       8       9       9       8
       9       9       8       9       9       8       9       9       8       9
       9       8       9       9       8       9       9       8       9       9
       8       9       9       8       9       9       8       9       9       8
       9       9       8       9       9       8       9       9       8       9
       9       8       9       9       8       9       9       8       9       9
       8       9       9       8       9       9       8       9       9       8
       9       9       8       9       9       8       9       9       8       9
       9       8       9       9       8       9       9       8       9       9
       8       9       9       8       9       9       8       9       9       8
       9       9       8       9       9       8       9       9       8       9
       9       8       9       9       8       9       9       8       9       9
       8       9       9       8       9       9       8       9       9       8
       9       9       8       9       9       8       9       9       8       9
       9       8       9       9       8       9       9       8       9       9
       8       9       9       8       9       9       8       9       9       8
       9       9       8       9       9       8       9       9       8       9
       9       8       9       9       8       9       9       8       9       9
       8       9       9       8       9       9       8       9       9       8
       9       9       8       9       9       8       9       9       8       9
       9       8       9       9       8       9       9       8       9       9
       8       9       9       8       9       9       8       9       9       8
       9       9       8       9       9       8       9       9       8       9
       9       8       9       9       8       9       9       8       9       9
       8       9       9       8       9       9       8       9       9       8
       9       9       8       9       9       8       9       9       8       9
       9       8       9       9       8       9       9       8       9       9
       8       9       9       8       9       9       8       9       9       8
       9       9       8       9       9       8       9       9       8       9
       9       8       9       9       8       9       9       8       9       9
       8       9       9       8       9       9       8       9       9       8
       9       9       8       9       9       8       9       9       8       9
       9       8       9       9       8       9       9       8       9       9
       8       9       9       8       9       9       8       9       9       8
       9       9       8       9       9       8       9       9       8       9
       9       8       9       9       8       9       9       8       9       9
       8       9       9       8       9       9       8       9       9       8
       9       9       8       9       9       8       9       9       8       9
       9       8       9       9       8       9       9       8       9       9
       8       9       9       8       9       9       8       9       9       8
       9       9       8       9       9       8       9       9       8       9
       9       8       9       9       8       9       9       8       9       9
       8       9       9       8       9       9       8       9       9       8
       9       9       8       9       9       8       9       9       8       9
       9       8       9       9       8       9       9       8       9       9
       8       9       9       8       9       9       8       9       9       8
       9       9       8       9       9       8       9       9       8       9
       9       8       9       9       8       9       9       8       9       9
       8       9       9       8       9       9       8       9       9       8
       9       9       8       9       9       8       9       9       8       9
       9       8       9       9       8       9       9       8       9       9
       8       9       9       8       9       9       8       9       9       8
       9       9       8       9       9       8       9       9       8       9
       9       8       9       9       8       9       9       8       9       9
       8       9       9       8       9       9       8       9       9       8
       9       9       8       9       9       8       9       9       8       9
       9       8       9       9       8       9       9       8       9       9
       8       9       9       8       9       9       8       9       9       8
       9       9       8       9       9       8       9       9       8       9
       9       8       9       9       8       9       9       8       9       9
       8       9       9       8       9       9       8       9       9       8
       9       9       8       9       9       8       9       9       8       9
       9       8       9       9       8       9       9       8       9       9
       8       9       9       8       9       9       8       9       9       8
       9       9       8       9       9       8       9       9       8       9
       9       8       9       9       8       9       9       8       9       9
       8       9       9       8       9       9       8       9       9       8
       9       9       8       9       9       8       9       9       8       9
       9       8       9       9       8       9       9       8       9       9
       8       9       9       8       9       9       8       9       9       8
       9       9       8       9       9       8       9       9       8       9
       9       8       9       9       8       9       9       8       9       9
       8       9       9       8       9       9       8       9       9       8
       9       9       8       9       9       8       9       9       8       9
       9       8       9       9       8       9       9       8       9       9
       8       9       9       8       9       9       8       9       9       8
       9       9       8       9       9       8       9       9       8       9
       9       8       9       9       8       9       9       8       9       9
       8       9       9       8       9       9       8       9       9       8
       9       9       8       9       9       8       9       9       8       9
       9       8       9       9       8       9       9       8       9       9
       8       9       9       8       9       9       8       9       9       8
       9       9       8       9       9       8       9       9       8       9
       9       8       9       9       8       9       9       8       9       9
       8       9       9       8       9       9       8       9       9       8
       9       9       8       9       9       8       9       9       8       9
       9       8       9       9       8       9       9       8       9       9
       8       9       9       8       9       9       8       9       9       8
       9       9       8       9       9       8       9       9       8       9
       9       8       9       9       8       9       9       8       9       9
       8       9       9       8       9       9       8       9       9       8
       9       9       8       9       9       8       9       9       8       9
       9       8       9       9       8       9       9       8       9       9
       8       9       9       8       9       9       8       9       9       8
       9       9       8       9       9       8       9       9       8       9
       9       8       9       9       8       9       9       8       9       9
       8       9       9       8       9       9       8       9       9       8
       9       9       8       9       9       8       9       9       8       9
       9       8       9       9       8       9       9       8       9       9
       8       9       9       8       9       9       8       9       9       8
       9       9       8       9       9       8       9       9       8       9
       9       8       9       9       8       9       9       8       9       9
       8       9       9       8       9       9       8       9       9       8
       9       9       8       9       9       8       9       9       8       9
       9       8       9       9       8       9       9       8       9       9
       8       9       9       8       9       9       8       9       9       8
       9       9       8       9       9       8       9       9       8       9
       9       8       9       9       8       9       9       8       9       9
       8       9       9       8       9       9       8       9       9       8
       9       9       8       9       9       8       9       9       8       9
       9       8       9       9       8       9       9       8       9       9
       8       9       9       8       9       9       8       9       9       8
       9       9       8       9       9       8       9       9       8       9
       9       8       9       9       8       9       9       8       9       9
       8       9       9       8       9       9       8       9       9       8
       9       9       8       9       9       8       9       9       8       9
       9       8       9       9       8       9       9       8       9       9
       8       9       9       8       9       9       8       9       9       8
       9       9       8       9       9       8       9       9       8       9
       9       8       9       9       8       9       9       8       9       9
       8       9       9       8       9       9       8       9       9       8
       9       9       8       9       9       8       9       9       8       9
       9       8       9       9       8       9       9       8       9       9
       8       9       9       8       9       9       8       9       9       8
       9       9       8       9       9       8       9       9       8       9
       9       8       9       9       8       9       9       8       9       9
       8       9       9       8       9       9       8       9       9       8
       9       9       8       9       9       8       9       9       8       9
       9       8       9       9       8       9       9       8       9       9
       8       9       9       8       9       9       8       9       9       8
       9       9       8       9       9       8       9       9       8       9
       9       8       9       9       8       9       9       8       9       9
       8       9       9       8       9       9       8       9       9       8
       9       9       8       9       9       8       9       9       8       9
       9       8       9       9       8       9       9       8       9       9
       8       9       9       8       9       9       8       9       9       8
       9       9       8       9       9       8       9       9       8       9
       9       8       9       9       8       9       9       8       9       9
       8       9       9       8       9       9       8       9       9       8
       9       9       8       9       9       8       9       9       8       9
       9       8       9       9       8       9       9       8       9       9
       8       9       9       8       9       9       8       9       9       8
       9       9       8       9       9       8       9       9       8       9
       9       8       9       9       8       9       9       8       9       9
       8       9       9       8       9       9       8       9       9       8
       9       9       8       9       9       8       9       9       8       9
       9       8       9       9       8       9       9       8       9       9
       8       9       9       8       9       9       8       9       9       8
       9       9       8       9       9       8       9       9       8       9
       9       8       9       9       8       9       9       8       9       9
       8       9       9       8       9       9       8       9       9       8
       9       9       8       9       9       8       9       9       8       9
       9       8       9       9       8       9       9       8       9       9
       8       9       9       8       9       9       8       9       9       8
       9       9       8       9       9       8       9       9       8       9
       9       8       9       9       8       9       9       8       9       9
       8       9       9       8       9       9       8       9       9       8
       9       9       8       9       9       8       9       9       8       9
       9       8       9       9       8       9       9       8       9       9
       8       9       9       8       9       9       8       9       9       8
       9       9       8       9       9       8       9       9       8       9
       9       8       9       9       8       9       9       8       9       9
       8       9       9       8       9       9       8       9       9       8
       9       9       8       9       9       8       9       9       8       9
       9       8       9       9       8       9       9       8       9       9
       8       9       9       8       9       9       8       9       9       8
       9       9       8       9       9       8       9       9       8       9
       9       8       9       9       8       9       9       8       9       9
       8       9       9       8       9       9       8       9       9       8
       9       9       8       9       9       8       9       9       8       9
       9       8       9       9       8       9       9       8       9       9
       8       9       9       8       9       9       8       9       9       8
       9       9       8       9       9       8       9       9       8       9
       9       8       9       9       8       9       9       8       9       9
       8       9       9       8       9       9       8       9       9       8
       9       9       8       9       9       8       9       9       8       9
       9       8       9       9       8       9       9       8       9       9
       8       9       9       8       9       9       8       9       9       8
       9       9       8       9       9       8       9       9       8       9
       9       8       9       9       8       9       9       8       9       9
       8       9       9       8       9       9       8       9       9       8
       9       9       8       9       9       8       9       9       8       9
       9       8       9       9       8       9       9       8       9       9
       8       9       9       8       9       9       8       9       9       8
       9       9       8       9       9       8       9       9       8       9
       9       8       9       9       8       9       9       8       9       9
       8       9       9       8       9       9       8       9       9       8
       9       9       8       9       9       8       9       9       8       9
       9       8       9       9       8       9       9       8       9       9
       8       9       9       8       9       9       8       9       9       8
       9       9       8       9       9       8       9       9       8       9
       9       8       9       9       8       9       9       8       9       9
       8       9       9       8       9       9       8       9       9       8
       9       9       8       9       9       8       9       9       8       9
       9       8       9       9       8       9       9       8       9       9
       8       9       9       8       9       9       8       9       9       8
       9       9       8       9       9       8       9       9       8       9
       9       8       9       9       8       9       9       8       9       9
       8       9       9       8       9       9       8       9       9       8
       9       9       8       9       9       8       9       9       8       9
       9       8       9       9       8       9       9       8       9       9
       8       9       9       8       9       9       8       9       9       8
       9       9       8       9       9       8       9       9       8       9
       9       8       9       9       8       9       9       8       9       9
       8       9       9       8       9       9       8       9       9       8
       9       9       8       9       9       8       9       9       8       9
       9       8       9       9       8       9       9       8       9       9
       8       9       9       8       9       9       8       9       9       8
       9       9       8       9       9       8       9       9       8       9
       9       8       9       9       8       9       9       8       9       9
       8       9       9       8       9       9       8       9       9       8
       9       9       8       9       9       8       9       9       8       9
       9       8       9       9       8       9       9       8       9       9
       8       9       9       8       9       9       8       9       9       8
       9       9       8       9       9       8       9       9       8       9
       9       8       9       9       8       9       9       8       9       9
       8       9       9       8       9       9       8       9       9       8
       9       9       8       9       9       8       9       9       8       9
       9       8       9       9       8       9       9       8       9       9
       8       9       9       8       9       9       8       9       9       8
       9       9       8       9       9       8       9       9       8       9
       9       8       9       9       8       9       9       8       9       9
       8       9       9       8       9       9       8       9       9       8
       9       9       8       9       9       8       9       9       8       9
       9       8       9       9       8       9       9       8       9       9
       8       9       9       8       9       9       8       9       9       8
       9       9       8       9       9       8       9       9       8       9
       9       8       9       9       8       9       9       8       9       9
       8       9       9       8       9       9       8       9       9       8
       9       9       8       9       9       8       9       9       8       9
       9       8       9       9       8       9       9       8       9       9
       8       9       9       8       9       9       8       9       9       8
       9       9       8       9       9       8       9       9       8       9
       9       8       9       9       8       9       9       8       9       9
       8       9       9       8       9       9       8       9       9       8
       9       9       8       9       9       8       9       9       8       9
       9       8       9       9       8       9       9       8       9       9
       8       9       9       8       9       9       8       9       9       8
       9       9       8       9       9       8       9       9       8       9
       9       8       9       9       8       9       9       8       9       9
       8       9       9       8       9       9       8       9       9       8
       9       9       8       9       9       8       9       9       8       9
       9       8       9       9       8       9       9       8       9       9
       8       9       9       8       9       9       8       9       9       8
       9       9       8       9       9       8       9       9       8       9
       9       8       9       9       8       9       9       8       9       9
       8       9       9       8       9       9       8       9       9       8
       9       9       8       9       9       8       9       9       8       9
       9       8       9       9       8       9       9       8       9       9
       8       9       9       8       9       9       8       9       9       8
       9       9       8       9       9       8       9       9       8       9
       9       8       9       9       8       9       9       8       9       9
       8       9       9       8       9       9       8       9       9       8
       9       9       8       9       9       8       9       9       8       9
       9       8       9       9       8       9       9       8       9       9
       8       9       9       8       9       9       8       9       9       8
       9       9       8       9       9       8       9       9       8       9
       9       8       9       9       8       9       9       8       9       9
       8       9       9       8       9       9       8       9       9       8
       9       9       8       9       9       8       9       9       8       9
       9       8       9       9       8       9       9       8       9       9
       8       9       9       8       9       9       8       9       9       8
       9       9       8       9       9       8       9       9       8       9
       9       8       9       9       8       9       9       8       9       9
       8       9       9       8       9       9       8       9       9       8
       9       9       8       9       9       8       9       9       8       9
       9       8       9       9       8       9       9       8       9       9
       8       9       9       8       9       9       8       9       9       8
       9       9       8       9       9       8       9       9       8       9
       9       8       9       9       8       9       9       8       9       9
       8       9       9       8       9       9       8       9       9       8
       9       9       8       9       9       8       9       9       8       9
       9       8       9       9       8       9       9       8       9       9
       8       9       9       8       9       9       8       9       9       8
       9       9       8       9       9       8       9       9       8       9
       9       8       9       9       8       9       9       8       9       9
       8       9       9       8       9       9       8       9       9       8
       9       9       8       9       9       8       9       9       8       9
       9       8       9       9       8       9       9       8       9       9
       8       9       9       8       9       9       8       9       9       8
       9       9       8       9       9       8       9       9       8       9
       9       8       9       9       8       9       9       8       9       9
       8       9       9       8       9       9       8       9       9       8
       9       9       8       9       9       8       9       9       8       9
       9       8       9       9       8       9       9       8       9       9
       8       9       9       8       9       9       8       9       9       8
       9       9       8       9       9       8       9       9       8       9
       9       8       9       9       8       9       9       8       9       9
       8       9       9       8       9       9       8       9       9       8
       9       9       8       9       9       8       9       9       8       9
       9       8       9       9       8       9       9       8       9       9
       8       9       9       8       9       9       8       9       9       8
       9       9       8       9       9       8       9       9       8       9
       9       8       9       9       8       9       9       8       9       9
       8       9       9       8       9       9       8       9       9       8
       9       9       8       9       9       8       9       9       8       9
       9       8       9       9       8       9       9       8       9       9
       8       9       9       8       9       9       8       9       9       8
       9       9       8       9       9       8       9       9       8       9
       9       8       9       9       8       9       9       8       9       9
       8       9       9       8       9       9       8       9       9       8
       9       9       8       9       9       8       9       9       8       9
       9       8       9       9       8       9       9       8       9       9
       8       9       9       8       9       9       8       9       9       8
       9       9       8       9       9       8       9       9       8       9
       9       8       9       9       8       9       9       8       9       9
       8       9       9       8       9       9       8       9       9       8
       9       9       8       9       9       8       9       9       8       9
       9       8       9       9       8       9       9       8       9       9
       8       9       9       8       9       9       8       9       9       8
       9       9       8       9       9       8       9       9       8       9
       9       8       9       9       8       9       9       8       9       9
       8       9       9       8       9       9       8       9       9       8
       9       9       8       9       9       8       9       9       8       9
       9       8       9       9       8       9       9       8       9       9
       8       9       9       8       9       9       8       9       9       8
       9       9       8       9       9       8       9       9       8       9
       9       8       9       9       8       9       9       8       9       9
       8       9       9       8       9       9       8       9       9       8
       9       9       8       9       9       8       9       9       8       9
       9       8       9       9       8       9       9       8       9       9
       8       9       9       8       9       9       8       9       9       8
       9       9       8       9       9       8       9       9       8       9
       9       8       9       9       8       9       9       8       9       9
       8       9       9       8       9       9       8       9       9       8
       9       9       8       9       9       8       9       9       8       9
       9       8       9       9       8       9       9       8       9       9
       8       9       9       8       9       9       8       9       9       8
       9       9       8       9       9       8       9       9       8       9
       9       8       9       9       8       9       9       8       9       9
       8       9       9       8       9       9       8       9       9       8
       9       9       8       9       9       8       9       9       8       9
       9       8       9       9       8       9       9       8       9       9
       8       9       9       8       9       9       8       9       9       8
       9       9       8       9       9       8       9       9       8       9
       9       8       9       9       8       9       9       8       9       9
       8       9       9       8       9       9       8       9       9       8
       9       9       8       9       9       8       9       9       8       9
       9       8       9       9       8       9       9       8       9       9
       8       9       9       8       9       9       8       9       9       8
       9       9       8       9       9       8       9       9       8       9
       9       8       9       9       8       9       9       8       9       9
       8       9       9       8       9       9       8       9       9       8
       9       9       8       9       9       8       9       9       8       9
       9       8       9       9       8       9       9       8       9       9
       8       9       9       8       9       9       8       9       9       8
       9       9       8       9       9       8       9       9       8       9
       9       8       9       9       8       9       9       8       9       9
       8       9       9       8       9       9       8       9       9       8
       9       9       8       9       9       8       9       9       8       9
       9       8       9       9       8       9       9       8       9       9
       8       9       9       8       9       9       8       9       9       8
       9       9       8       9       9       8       9       9       8       9
       9       8       9       9       8       9       9       8       9       9
       8       9       9       8       9       9       8       9       9       8
       9       9       8       9       9       8       9       9       8       9
       9       8       9       9       8       9       9       8       9       9
       8       9       9       8       9       9       8       9       9       8
       9       9       8       9       9       8       9       9       8       9
       9       8       9       9       8       9       9       8       9       9
       8       9       9       8       9       9       8       9       9       8
       9       9       8       9       9       8       9       9       8       9
       9       8       9       9       8       9       9       8       9       9
       8       9       9       8       9       9       8       9       9       8
       9       9       8       9       9       8       9       9       8       9
       9       8       9       9       8       9       9       8       9       9
       8       9       9       8       9       9       8       9       9       8
       9       9       8       9       9       8       9       9       8       9
       9       8       9       9       8       9       9       8       9       9
       8       9       9       8       9       9       8       9       9       8
       9       9       8       9       9       8       9       9       8       9
       9       8       9       9       8       9       9       8       9       9
       8       9       9       8       9       9       8       9       9       8
       9       9       8       9       9       8       9       9       8       9
       9       8       9       9       8       9       9       8       9       9
       8       9       9       8       9       9       8       9       9       8
       9       9       8       9       9       8       9       9       8       9
       9       8       9       9       8       9       9       8       9       9
       8       9       9       8       9       9       8       9       9       8
       9       9       8       9       9       8       9       9       8       9
       9       8       9       9       8       9       9       8       9       9
       8       9       9       8       9       9       8       9       9       8
       9       9       8       9       9       8       9       9       8       9
       9       8       9       9       8       9       9       8       9       9
       8       9       9       8       9       9       8       9       9       8
       9       9       8       9       9       8       9       9       8       9
       9       8       9       9       8       9       9       8       9       9
       8       9       9       8       9       9       8       9       9       8
       9       9       8       9       9       8       9       9       8       9
       9       8       9       9       8       9       9       8       9       9
       8       9       9       8       9       9       8       9       9       8
       9       9       8       9       9       8       9       9       8       9
       9       8       9       9       8       9       9       8       9       9
       8       9       9       8       9       9       8       9       9       8
       9       9       8       9       9       8       9       9       8       9
       9       8       9       9       8       9       9       8       9       9
       8       9       9       8       9       9       8       9       9       8
       9       9       8       9       9       8       9       9       8       9
       9       8       9       9       8       9       9       8       9       9
       8       9       9       8       9       9       8       9       9       8
       9       9       8       9       9       8       9       9       8       9
       9       8       9       9       8       9       9       8       9       9
       8       9       9       8       9       9       8       9       9       8
       9       9       8       9       9       8       9       9       8       9
       9       8       9       9       8       9       9       8       9       9
       8       9       9       8       9       9       8       9       9       8
       9       9       8       9       9       8       9       9       8       9
       9       8       9       9       8       9       9       8       9       9
       8       9       9       8       9       9       8       9       9       8
       9       9       8       9       9       8       9       9       8       9
       9       8       9       9       8       9       9       8       9       9
       8       9       9       8       9       9       8       9       9       8
       9       9       8       9       9       8       9       9       8       9
       9       8       9       9       8       9       9       8       9       9
       8       9       9       8       9       9       8       9       9       8
       9       9       8       9       9       8       9       9       8       9
       9       8       9       9       8       9       9       8       9       9
       8       9       9       8       9       9       8       9       9       8
       9       9       8       9       9       8       9       9       8       9
       9       8       9       9       8       9       9       8       9       9
       8       9       9       8       9       9       8       9       9       8
       9       9       8       9       9       8       9       9       8       9
       9       8       9       9       8       9       9       8       9       9
       8       9       9       8       9       9       8       9       9       8
       9       9       8       9       9       8       9       9       8       9
       9       8       9       9       8       9       9       8       9       9
       8       9       9       8       9       9       8       9       9       8
       9       9       8       9       9       8       9       9       8       9
       9       8       9       9       8       9       9       8       9       9
       8       9       9       8       9       9       8       9       9       8
       9       9       8       9       9       8       9       9       8       9
       9       8       9       9       8       9       9       8       9       9
       8       9       9       8       9       9       8       9       9       8
       9       9       8       9       9       8       9       9       8       9
       9       8       9       9       8       9       9       8       9       9
       8       9       9       8       9       9       8       9       9       8
       9       9       8       9       9       8       9       9       8       9
       9       8       9       9       8       9       9       8       9       9
       8       9       9       8       9       9       8       9       9       8
       9       9       8       9       9       8       9       9       8       9
       9       8       9       9       8       9       9       8       9       9
       8       9       9       8       9       9       8       9       9       8
       9       9       8       9       9       8       9       9       8       9
       9       8       9       9       8       9       9       8       9       9
       8       9       9       8       9       9       8       9       9       8
       9       9       8       9       9       8       9       9       8       9
       9       8       9       9       8       9       9       8       9       9
       8       9       9       8       9       9       8       9       9       8
       9       9       8       9       9       8       9       9       8       9
       9       8       9       9       8       9       9       8       9       9
       8       9       9       8       9       9       8       9       9       8
       9       9       8       9       9       8       9       9       8       9
       9       8       9       9       8       9       9       8       9       9
       8       9       9       8       9       9       8       9       9       8
       9       9       8       9       9       8       9       9       8       9
       9       8       9       9       8       9       9       8       9       9
       8       9       9       8       9       9       8       9       9       8
       9       9       8       9       9       8       9       9       8       9
       9       8       9       9       8       9       9       8       9       9
       8       9       9       8       9       9       8       9       9       8
       9       9       8       9       9       8       9       9       8       9
       9       8       9       9       8       9       9       8       9       9
       8       9       9       8       9       9       8       9       9       8
       9       9       8       9       9       8       9       9       8       9
       9       8       9       9       8       9       9       8       9       9
       8       9       9       8       9       9       8       9       9       8
       9       9       8       9       9       8       9       9       8       9
       9       8       9       9       8       9       9       8       9       9
       8       9       9       8       9       9       8       9       9       8
       9       9       8       9       9       8       9       9       8       9
       9       8       9       9       8       9       9       8       9       9
       8       9       9       8       9       9       8       9       9       8
       9       9       8       9       9       8       9       9       8       9
       9       8       9       9       8       9       9       8       9       9
       8       9       9       8       9       9       8       9       9       8
       9       9       8       9       9       8       9       9       8       9
       9       8       9       9       8       9       9       8       9       9
       8       9       9       8       9       9       8       9       9       8
       9       9       8       9       9       8       9       9       8       9
       9       8       9       9       8       9       9       8       9       9
       8       9       9       8       9       9       8       9       9       8
       9       9       8       9       9       8       9       9       8       9
       9       8       9       9       8       9       9       8       9       9
       8       9       9       8       9       9       8       9       9       8
       9       9       8       9       9       8       9       9       8       9
       9       8       9       9       8       9       9       8       9       9
       8       9       9       8       9       9       8       9       9       8
       9       9       8       9       9       8       9       9       8       9
       9       8       9       9       8       9       9       8       9       9
       8       9       9       8       9       9       8       9       9       8
       9       9       8       9       9       8       9       9       8       9
       9       8       9       9       8       9       9       8       9       9
       8       9       9       8       9       9       8       9       9       8
       9       9       8       9       9       8       9       9       8       9
       9       8       9       9       8       9       9       8       9       9
       8       9       9       8       9       9       8       9       9       8
       9       9       8       9       9       8       9       9       8       9
       9       8       9       9       8       9       9       8       9       9
       8       9       9       8       9       9       8       9       9       8
       9       9       8       9       9       8       9       9       8       9
       9       8       9       9       8       9       9       8       9       9
       8       9       9       8       9       9       8       9       9       8
       9       9       8       9       9       8       9       9       8       9
       9       8       9       9       8       9       9       8       9       9
       8       9       9       8       9       9       8       9       9       8
       9       9       8       9       9       8       9       9       8       9
       9       8       9       9       8       9       9       8       9       9
       8       9       9       8       9       9       8       9       9       8
       9       9       8       9       9       8       9       9       8       9
       9       8       9       9       8       9       9       8       9       9
       8       9       9       8       9       9       8       9       9       8
       9       9       8       9       9       8       9       9       8       9
       9       8       9       9       8       9       9       8       9       9
       8       9       9       8       9       9       8       9       9       8
       9       9       8       9       9       8       9       9       8       9
       9       8       9       9       8       9       9       8       9       9
       8       9       9       8       9       9       8       9       9       8
       9       9       8       9       9       8       9       9       8       9
       9       8       9       9       8       9       9       8       9       9
       8       9       9       8       9       9       8       9       9       8
       9       9       8       9       9       8       9       9       8       9
       9       8       9       9       8       9       9       8       9       9
       8       9       9       8       9       9       8       9       9       8
       9       9       8       9       9       8       9       9       8       9
       9       8       9       9       8       9       9       8       9       9
       8       9       9       8       9       9       8       9       9       8
       9       9       8       9       9       8       9       9       8       9
       9       8       9       9       8       9       9       8       9       9
       8       9       9       8       9       9       8       9       9       8
       9       9       8       9       9       8       9       9       8       9
       9       8       9       9       8       9       9       8       9       9
       8       9       9       8       9       9       8       9       9       8
       9       9       8       9       9       8       9       9       8       9
       9       8       9       9       8       9       9       8       9       9
       8       9       9       8       9       9       8       9       9       8
       9       9       8       9       9       8       9       9       8       9
       9       8       9       9       8       9       9       8       9       9
       8       9       9       8       9       9       8       9       9       8
       9       9       8       9       9       8       9       9       8       9
       9       8       9       9       8       9       9       8       9       9
       8       9       9       8       9       9       8       9       9       8
       9       9       8       9       9       8       9       9       8       9
       9       8       9       9       8       9       9       8       9       9
       8       9       9       8       9       9       8       9       9       8
       9       9       8       9       9       8       9       9       8       9
       9       8       9       9       8       9       9       8       9       9
       8       9       9       8       9       9       8       9       9       8
       9       9       8       9       9       8       9       9       8       9
       9       8       9       9       8       9       9       8       9       9
       8       9       9       8       9       9       8       9       9       8
       9       9       8       9       9       8       9       9       8       9
       9       8       9       9       8       9       9       8       9       9
       8       9       9       8       9       9       8       9       9       8
       9       9       8       9       9       8       9       9       8       9
       9       8       9       9       8       9       9       8       9       9
       8       9       9       8       9       9       8       9       9       8
       9       9       8       9       9       8       9       9       8       9
       9       8       9       9       8       9       9       8       9       9
       8       9       9       8       9       9       8       9       9       8
       9       9       8       9       9       8       9       9       8       9
       9       8       9       9       8       9       9       8       9       9
       8       9       9       8       9       9       8       9       9       8
       9       9       8       9       9       8       9       9       8       9
       9       8       9       9       8       9       9       8       9       9
       8       9       9       8       9       9       8       9       9       8
       9       9       8       9       9       8       9       9       8       9
       9       8       9       9       8       9       9       8       9       9
       8       9       9       8       9       9       8       9       9       8
       9       9       8       9       9       8       9       9       8       9
       9       8       9       9       8       9       9       8       9       9
       8       9       9       8       9       9       8       9       9       8
       9       9       8       9       9       8       9       9       8       9
       9       8       9       9       8       9       9       8       9       9
       8       9       9       8       9       9       8       9       9       8
       9       9       8       9       9       8       9       9       8       9
       9       8       9       9       8       9       9       8       9       9
       8       9       9       8       9       9       8       9       9       8
       9       9       8       9       9       8       9       9       8       9
       9       8       9       9       8       9       9       8       9       9
       8       9       9       8       9       9       8       9       9       8
       9       9       8       9       9       8       9       9       8       9
       9       8       9       9       8       9       9       8       9       9
       8       9       9       8       9       9       8       9       9       8
       9       9       8       9       9       8       9       9       8       9
       9       8       9       9       8       9       9       8       9       9
       8       9       9       8       9       9       8       9       9       8
       9       9       8       9       9       8       9       9       8       9
       9       8       9       9       8       9       9       8       9       9
       8       9       9       8       9       9       8       9       9       8
       9       9       8       9       9       8       9       9       8       9
       9       8       9       9       8       9       9       8       9       9
       8       9       9       8       9       9       8       9       9       8
       9       9       8       9       9       8       9       9       8       9
       9       8       9       9       8       9       9       8       9       9
       8       9       9       8       9       9       8       9       9       8
       9       9       8       9       9       8       9       9       8       9
       9       8       9       9       8       9       9       8       9       9
       8       9       9       8       9       9       8       9       9       8
       9       9       8       9       9       8       9       9       8       9
       9       8       9       9       8       9       9       8       9       9
       8       9       9       8       9       9       8       9       9       8
       9       9       8       9       9       8       9       9       8       9
       9       8       9       9       8       9       9       8       9       9
       8       9       9       8       9       9       8       9       9       8
       9       9       8       9       9       8       9       9       8       9
       9       8       9       9       8       9       9       8       9       9
       8       9       9       8       9       9       8       9       9       8
       9       9       8       9       9       8       9       9       8       9
       9       8       9       9       8       9       9       8       9       9
       8       9       9       8       9       9       8       9       9       8
       9       9       8       9       9       8       9       9       8       9
       9       8       9       9       8       9       9       8       9       9
       8       9       9       8       9       9       8       9       9       8
       9       9       8       9       9       8       9       9       8       9
       9       8       9       9       8       9       9       8       9       9
       8       9       9       8       9       9       8       9       9       8
       9       9       8       9       9       8       9       9       8       9
       9       8       9       9       8       9       9       8       9       9
       8       9       9       8       9       9       8       9       9       8
       9       9       8       9       9       8       9       9       8       9
       9       8       9       9       8       9       9       8       9       9
       8       9       9       8       9       9       8       9       9       8
       9       9       8       9       9       8       9       9       8       9
       9       8       9       9       8       9       9       8       9       9
       8       9       9       8       9       9       8       9       9       8
       9       9       8       9       9       8       9       9       8       9
       9       8       9       9       8       9       9       8       9       9
       8       9       9       8       9       9       8       9       9       8
       9       9       8       9       9       8       9       9       8       9
       9       8       9       9       8       9       9       8       9       9
       8       9       9       8       9       9       8       9       9       8
       9       9       8       9       9       8       9       9       8       9
       9       8       9       9       8       9       9       8       9       9
       8       9       9       8       9       9       8       9       9       8
       9       9       8       9       9       8       9       9       8       9
       9       8       9       9       8       9       9       8       9       9
       8       9       9       8       9       9       8       9       9       8
       9       9       8       9       9       8       9       9       8       9
       9       8       9       9       8       9       9       8       9       9
       8       9       9       8       9       9       8       9       9       8
       9       9       8       9       9       8       9       9       8       9
       9       8       9       9       8       9       9       8       9       9
       8       9       9       8       9       9       8       9       9       8
       9       9       8       9       9       8       9       9       8       9
       9       8       9       9       8       9       9       8       9       9
       8       9       9       8       9       9       8       9       9       8
       9       9       8       9       9       8       9       9       8       9
       9       8       9       9       8       9       9       8       9       9
       8       9       9       8       9       9       8       9       9       8
       9       9       8       9       9       8       9       9       8       9
       9       8       9       9       8       9       9       8       9       9
       8       9       9       8       9       9       8       9       9       8
       9       9       8       9       9       8       9       9       8       9
       9       8       9       9       8       9       9       8       9       9
       8       9       9       8       9       9       8       9       9       8
       9       9       8       9       9       8       9       9       8       9
       9       8       9       9       8       9       9       8       9       9
       8       9       9       8       9       9       8       9       9       8
       9       9       8       9       9       8       9       9       8       9
       9       8       9       9       8       9       9       8       9       9
       8       9       9       8       9       9       8       9       9       8
       9       9       8       9       9       8       9       9       8       9
       9       8       9       9       8       9       9       8       9       9
       8       9       9       8       9       9       8       9       9       8
       9       9       8       9       9       8       9       9       8       9
       9       8       9       9       8       9       9       8       9       9
       8       9       9       8       9       9       8       9       9       8
       9       9       8       9       9       8       9       9       8       9
       9       8       9       9       8       9       9       8       9       9
       8       9       9       8       9       9       8       9       9       8
       9       9       8       9       9       8       9       9       8       9
       9       8       9       9       8       9       9       8       9       9
       8       9       9       8       9       9       8       9       9       8
       9       9       8       9       9       8       9       9       8       9
       9       8       9       9       8       9       9       8       9       9
       8       9       9       8       9       9       8       9       9       8
       9       9       8       9       9       8       9       9       8       9
       9       8       9       9       8       9       9       8       9       9
       8       9       9       8       9       9       8       9       9       8
       9       9       8       9       9       8       9       9       8       9
       9       8       9       9       8       9       9       8       9       9
       8       9       9       8       9       9       8       9       9       8
       9       9       8       9       9       8       9       9       8       9
       9       8       9       9       8       9       9       8       9       9
       8       9       9       8       9       9       8       9       9       8
       9       9       8       9       9       8       9       9       8       9
       9       8       9       9       8       9       9       8       9       9
       8       9       9       8       9       9       8       9       9       8
       9       9       8       9       9       8       9       9       8       9
       9       8       9       9       8       9       9       8       9       9
       8       9       9       8       9       9       8       9       9       8
       9       9       8       9       9       8       9       9       8       9
       9       8       9       9       8       9       9       8       9       9
       8       9       9       8       9       9       8       9       9       8
       9       9       8       9       9       8       9       9       8       9
       9       8       9       9       8       9       9       8       9       9
       8       9       9       8       9       9       8       9       9       8
       9       9       8       9       9       8       9       9       8       9
       9       8       9       9       8       9       9       8       9       9
       8       9       9       8       9       9       8       9       9       8
       9       9       8       9       9       8       9       9       8       9
       9       8       9       9       8       9       9       8       9       9
       8       9       9       8       9       9       8       9       9       8
       9       9       8       9       9       8       9       9       8       9
       9       8       9       9       8       9       9       8       9       9
       8       9       9       8       9       9       8       9       9       8
       9       9       8       9       9       8       9       9       8       9
       9       8       9       9       8       9       9       8       9       9
       8       9       9       8       9       9       8       9       9       8
       9       9       8       9       9       8       9       9       8       9
       9       8       9       9       8       9       9       8       9       9
       8       9       9       8       9       9       8       9       9       8
       9       9       8       9       9       8       9       9       8       9
       9       8       9       9       8       9       9       8       9       9
       8       9       9       8       9       9       8       9       9       8
       9       9       8       9       9       8       9       9       8       9
       9       8       9       9       8       9       9       8       9       9
       8       9       9       8       9       9       8       9       9       8
       9       9       8       9       9       8       9       9       8       9
       9       8       9       9       8       9       9       8       9       9
       8       9       9       8       9       9       8       9       9       8
       9       9       8       9       9       8       9       9       8       9
       9       8       9       9       8       9       9       8       9       9
       8       9       9       8       9       9       8       9       9       8
       9       9       8       9       9       8       9       9       8       9
       9       8       9       9       8       9       9       8       9       9
       8       9       9       8       9       9       8       9       9       8
       9       9       8       9       9       8       9       9       8       9
       9       8       9       9       8       9       9       8       9       9
       8       9       9       8       9       9       8       9       9       8
       9       9       8       9       9       8       9       9       8       9
       9       8       9       9       8       9       9       8       9       9
       8       9       9       8       9       9       8       9       9       8
       9       9       8       9       9       8       9       9       8       9
       9       8       9       9       8       9       9       8       9       9
       8       9       9       8       9       9       8       9       9       8
       9       9       8       9       9       8       9       9       8       9
       9       8       9       9       8       9       9       8       9       9
       8       9       9       8       9       9       8       9       9       8
       9       9       8       9       9       8       9       9       8       9
       9       8       9       9       8       9       9       8       9       9
       8       9       9       8       9       9       8       9       9       8
       9       9       8       9       9       8       9       9       8       9
       9       8       9       9       8       9       9       8       9       9
       8       9       9       8       9       9       8       9       9       8
       9       9       8       9       9       8       9       9       8       9
       9       8       9       9       8       9       9       8       9       9
       8       9       9       8       9       9       8       9       9       8
       9       9       8       9       9       8       9       9       8       9
       9       8       9       9       8       9       9       8       9       9
       8       9       9       8       9       9       8       9       9       8
       9       9       8       9       9       8       9       9       8       9
       9       8       9       9       8       9       9       8       9       9
       8       9       9       8       9       9       8       9       9       8
       9       9       8       9       9       8       9       9       8       9
       9       8       9       9       8       9       9       8       9       9
       8       9       9       8       9       9       8       9       9       8
       9       9       8       9       9       8       9       9       8       9
       9       8       9       9       8       9       9       8       9       9
       8       9       9       8       9       9       8       9       9       8
       9       9       8       9       9       8       9       9       8       9
       9       8       9       9       8       9       9       8       9       9
       8       9       9       8       9       9       8       9       9       8
       9       9       8       9       9       8       9       9       8       9
       9       8       9       9       8       9       9       8       9       9
       8       9       9       8       9       9       8       9       9       8
       9       9       8       9       9       8       9       9       8       9
       9       8       9       9       8       9       9       8       9       9
       8       9       9       8       9       9       8       9       9       8
       9       9       8       9       9       8       9       9       8       9
       9       8       9       9       8       9       9       8       9       9
       8       9       9       8       9       9       8       9       9       8
       9       9       8       9       9       8       9       9       8       9
       9       8       9       9       8       9       9       8       9       9
       8       9       9       8       9       9       8       9       9       8
       9       9       8       9       9       8       9       9       8       9
       9       8       9       9       8       9       9       8       9       9
       8       9       9       8       9       9       8       9       9       8
       9       9       8       9       9       8       9       9       8       9
       9       8       9       9       8       9       9       8       9       9
       8       9       9       8       9       9       8       9       9       8
       9       9       8       9       9       8       9       9       8       9
       9       8       9       9       8       9       9       8       9       9
       8       9       9       8       9       9       8       9       9       8
       9       9       8       9       9       8       9       9       8       9
       9       8       9       9       8       9       9       8       9       9
       8       9       9       8       9       9       8       9       9       8
       9       9       8       9       9       8       9       9       8       9
       9       8       9       9       8       9       9       8       9       9
       8       9       9       8       9       9       8       9       9       8
       9       9       8       9       9       8       9       9       8       9
       9       8       9       9       8       9       9       8       9       9
       8       9       9       8       9       9       8       9       9       8
       9       9       8       9       9       8       9       9       8       9
       9       8       9       9       8       9       9       8       9       9
       8       9       9       8       9       9       8       9       9       8
       9       9       8       9       9       8       9       9       8       9
       9       8       9       9       8       9       9       8       9       9
       8       9       9       8       9       9       8       9       9       8
       9       9       8       9       9       8       9       9       8       9
       9       8       9       9       8       9       9       8       9       9
       8       9       9       8       9       9       8       9       9       8
       9       9       8       9       9       8       9       9       8       9
       9       8       9       9       8       9       9       8       9       9
       8       9       9       8       9       9       8       9       9       8
       9       9       8       9       9       8       9       9       8       9
       9       8       9       9       8       9       9       8       9       9
       8       9       9       8       9       9       8       9       9       8
       9       9       8       9       9       8       9       9       8       9
       9       8       9       9       8       9       9       8       9       9
       8       9       9       8       9       9       8       9       9       8
       9       9       8       9       9       8       9       9       8       9
       9       8       9       9       8       9       9       8       9       9
       8       9       9       8       9       9       8       9       9       8
       9       9       8       9       9       8       9       9       8       9
       9       8       9       9       8       9       9       8       9       9
       8       9       9       8       9       9       8       9       9       8
       9       9       8       9       9       8       9       9       8       9
       9       8       9       9       8       9       9       8       9       9
       8       9       9       8       9       9       8       9       9       8
       9       9       8       9       9       8       9       9       8       9
       9       8       9       9       8       9       9       8       9       9
       8       9       9       8       9       9       8       9       9       8
       9       9       8       9       9       8       9       9       8       9
       9       8       9       9       8       9       9       8       9       9
       8       9       9       8       9       9       8       9       9       8
       9       9       8       9       9       8       9       9       8       9
       9       8       9       9       8       9       9       8       9       9
       8       9       9       8       9       9       8       9       9       8
       9       9       8       9       9       8       9       9       8       9
       9       8       9       9       8       9       9       8       9       9
       8       9       9       8       9       9       8       9       9       8
       9       9       8       9       9       8       9       9       8       9
       9       8       9       9       8       9       9       8       9       9
       8       9       9       8       9       9       8       9       9       8
       9       9       8       9       9       8       9       9       8       9
       9       8       9       9       8       9       9       8       9       9
       8       9       9       8       9       9       8       9       9       8
       9       9       8       9       9       8       9       9       8       9
       9       8       9       9       8       9       9       8       9       9
       8       9       9       8       9       9       8       9       9       8
       9       9       8       9       9       8       9       9       8       9
       9       8       9       9       8       9       9       8       9       9
       8       9       9       8       9       9       8       9       9       8
       9       9       8       9       9       8       9       9       8       9
       9       8       9       9       8       9       9       8       9       9
       8       9       9       8       9       9       8       9       9       8
       9       9       8       9       9       8       9       9       8       9
       9       8       9       9       8       9       9       8       9       9
       8       9       9       8       9       9       8       9       9       8
       9       9       8       9       9       8       9       9       8       9
       9       8       9       9       8       9       9       8       9       9
       8       9       9       8       9       9       8       9       9       8
       9       9       8       9       9       8       9       9       8       9
       9       8       9       9       8       9       9       8       9       9
       8       9       9       8       9       9       8       9       9       8
       9       9       8       9       9       8       9       9       8       9
       9       8       9       9       8       9       9       8       9       9
       8       9       9       8       9       9       8       9       9       8
       9       9       8       9       9       8       9       9       8       9
       9       8       9       9       8       9       9       8       9       9
       8       9       9       8       9       9       8       9       9       8
       9       9       8       9       9       8       9       9       8       9
       9       8       9       9       8       9       9       8       9       9
       8       9       9       8       9       9       8       9       9       8
       9       9       8       9       9       8       9       9       8       9
       9       8       9       9       8       9       9       8       9       9
       8       9       9       8       9       9       8       9       9       8
       9       9       8       9       9       8       9       9       8       9
       9       8       9       9       8       9       9       8       9       9
       8       9       9       8       9       9       8       9       9       8
       9       9       8       9       9       8       9       9       8       9
       9       8       9       9       8       9       9       8       9       9
       8       9       9       8       9       9       8       9       9       8
       9       9       8       9       9       8       9       9       8       9
       9       8       9       9       8       9       9       8       9       9
       8       9       9       8       9       9       8       9       9       8
       9       9       8       9       9       8       9       9       8       9
       9       8       9       9       8       9       9       8       9       9
       8       9       9       8       9       9       8       9       9       8
       9       9       8       9       9       8       9       9       8       9
       9       8       9       9       8       9       9       8       9       9
       8       9       9       8       9       9       8       9       9       8
       9       9       8       9       9       8       9       9       8       9
       9       8       9       9       8       9       9       8       9       9
       8       9       9       8       9       9       8       9       9       8
       9       9       8       9       9       8       9       9       8       9
       9       8       9       9       8       9       9       8       9       9
       8       9       9       8       9       9       8       9       9       8
       9       9       8       9       9       8       9       9       8       9
       9       8       9       9       8       9       9       8       9       9
       8       9       9       8       9       9       8       9       9       8
       9       9       8       9       9       8       9       9       8       9
       9       8       9       9       8       9       9       8       9       9
       8       9       9       8       9       9       8       9       9       8
       9       9       8       9       9       8       9       9       8       9
       9       8       9       9       8       9       9       8       9       9
       8       9       9       8       9       9       8       9       9       8
       9       9       8       9       9       8       9       9       8       9
       9       8       9       9       8       9       9       8       9       9
       8       9       9       8       9       9       8       9       9       8
       9       9       8       9       9       8       9       9       8       9
       9       8       9       9       8       9       9       8       9       9
       8       9       9       8       9       9       8       9       9       8
       9       9       8       9       9       8       9       9       8       9
       9       8       9       9       8       9       9       8       9       9
       8       9       9       8       9       9       8       9       9       8
       9       9       8       9       9       8       9       9       8       9
       9       8       9       9       8       9       9       8       9       9
       8       9       9       8       9       9       8       9       9       8
       9       9       8       9       9       8       9       9       8       9
       9       8       9       9       8       9       9       8       9       9
       8       9       9       8       9       9       8       9       9       8
       9       9       8       9       9       8       9       9       8       9
       9       8       9       9       8       9       9       8       9       9
       8       9       9       8       9       9       8       9       9       8
       9       9       8       9       9       8       9       9       8       9
       9       8       9       9       8       9       9       8       9       9
       8       9       9       8       9       9       8       9       9       8
       9       9       8       9       9       8       9       9       8       9
       9       8       9       9       8       9       9       8       9       9
       8       9       9       8       9       9       8       9       9       8
       9       9       8       9       9       8       9       9       8       9
       9       8       9       9       8       9       9       8       9       9
       8       9       9       8       9       9       8       9       9       8
       9       9       8       9       9       8       9       9       8       9
       9       8       9       9       8       9       9       8       9       9
       8       9       9       8       9       9       8       9       9       8
       9       9       8       9       9       8       9       9       8       9
       9       8       9       9       8       9       9       8       9       9
       8       9       9       8       9       9       8       9       9       8
       9       9       8       9       9       8       9       9       8       9
       9       8       9       9       8       9       9       8       9       9
       8       9       9       8       9       9       8       9       9       8
       9       9       8       9       9       8       9       9       8       9
       9       8       9       9       8       9       9       8       9       9
       8       9       9       8       9       9       8       9       9       8
       9       9       8       9       9       8       9       9       8       9
       9       8       9       9       8       9       9       8       9       9
       8       9       9       8       9       9       8       9       9       8
       9       9       8       9       9       8       9       9       8       9
       9       8       9       9       8       9       9       8       9       9
       8       9       9       8       9       9       8       9       9       8
       9       9       8       9       9       8       9       9       8       9
       9       8       9       9       8       9       9       8       9       9
       8       9       9       8       9       9       8       9       9       8
       9       9       8       9       9       8       9       9       8       9
       9       8       9       9       8       9       9       8       9       9
       8       9       9       8       9       9       8       9       9       8
       9       9       8       9       9       8       9       9       8       9
       9       8       9       9       8       9       9       8       9       9
       8       9       9       8       9       9       8       9       9       8
       9       9       8       9       9       8       9       9       8       9
       9       8       9       9       8       9       9       8       9       9
       8       9       9       8       9       9       8       9       9       8
       9       9       8       9       9       8       9       9       8       9
       9       8       9       9       8       9       9       8       9       9
       8       9       9       8       9       9       8       9       9       8
       9       9       8       9       9       8       9       9       8       9
       9       8       9       9       8       9       9       8       9       9
       8       9       9       8       9       9       8       9       9       8
       9       9       8       9       9       8       9       9       8       9
       9       8       9       9       8       9       9       8       9       9
       8       9       9       8       9       9       8       9       9       8
       9       9       8       9       9       8       9       9       8       9
       9       8       9       9       8       9       9       8       9       9
       8       9       9       8       9       9       8       9       9       8
       9       9       8       9       9       8       9       9       8       9
       9       8       9       9       8       9       9       8       9       9
       8       9       9       8       9       9       8       9       9       8
       9       9       8       9       9       8       9       9       8       9
       9       8       9       9       8       9       9       8       9       9
       8       9       9       8       9       9       8       9       9       8
       9       9       8       9       9       8       9       9       8       9
       9       8       9       9       8       9       9       8       9       9
       8       9       9       8       9       9       8       9       9       8
       9       9       8       9       9       8       9       9       8       9
       9       8       9       9       8       9       9       8       9       9
       8       9       9       8       9       9       8       9       9       8
       9       9       8       9       9       8       9       9       8       9
       9       8       9       9       8       9       9       8       9       9
       8       9       9       8       9       9       8       9       9       8
       9       9       8       9       9       8       9       9       8       9
       9       8       9       9       8       9       9       8       9       9
       8       9       9       8       9       9       8       9       9       8
       9       9       8       9       9       8       9       9       8       9
       9       8       9       9       8       9       9       8       9       9
       8       9       9       8       9       9       8       9       9       8
       9       9       8       9       9       8       9       9       8       9
       9       8       9       9       8       9       9       8       9       9
       8       9       9       8       9       9       8       9       9       8
       9       9       8       9       9       8       9       9       8       9
       9       8       9       9       8       9       9       8       9       9
       8       9       9       8       9       9       8       9       9       8
       9       9       8       9       9       8       9       9       8       9
       9       8       9       9       8       9       9       8       9       9
       8       9       9       8       9       9       8       9       9       8
       9       9       8       9       9       8       9       9       8       9
       9       8       9       9       8       9       9       8       9       9
       8       9       9       8       9       9       8       9       9       8
       9       9       8       9       9       8       9       9       8       9
       9       8       9       9       8       9       9       8       9       9
       8       9       9       8       9       9       8       9       9       8
       9       9       8       9       9       8       9       9       8       9
       9       8       9       9       8       9       9       8       9       9
       8       9       9       8       9       9       8       9       9       8
       9       9       8       9       9       8       9       9       8       9
       9       8       9       9       8       9       9       8       9       9
       8       9       9       8       9       9       8       9       9       8
       9       9       8       9       9       8       9       9       8       9
       9       8       9       9       8       9       9       8       9       9
       8       9       9       8       9       9       8       9       9       8
       9       9       8       9       9       8       9       9       8       9
       9       8       9       9       8       9       9       8       9       9
       8       9       9       8       9       9       8       9       9       8
       9       9       8       9       9       8       9       9       8       9
       9       8       9       9       8       9       9       8       9       9
       8       9       9       8       9       9       8       9       9       8
       9       9       8       9       9       8       9       9       8       9
       9       8       9       9       8       9       9       8       9       9
       8       9       9       8       9       9       8       9       9       8
       9       9       8       9       9       8       9       9       8       9
       9       8       9       9       8       9       9       8       9       9
       8       9       9       8       9       9       8       9       9       8
       9       9       8       9       9       8       9       9       8       9
       9       8       9       9       8       9       9       8       9       9
       8       9       9       8       9       9       8       9       9       8
       9       9       8       9       9       8       9       9       8       9
       9       8       9       9       8       9       9       8       9       9
       8       9       9       8       9       9       8       9       9       8
       9       9       8       9       9       8       9       9       8       9
       9       8       9       9       8       9       9       8       9       9
       8       9       9       8       9       9       8       9       9       8
       9       9       8       9       9       8       9       9       8       9
       9       8       9       9       8       9       9       8       9       9
       8       9       9       8       9       9       8       9       9       8
       9       9       8       9       9       8       9       9       8       9
       9       8       9       9       8       9       9       8       9       9
       8       9       9       8       9       9       8       9       9       8
       9       9       8       9       9       8       9       9       8       9
       9       8       9       9       8       9       9       8       9       9
       8       9       9       8       9       9       8       9       9       8
       9       9       8       9       9       8       9       9       8       9
       9       8       9       9       8       9       9       8       9       9
       8       9       9       8       9       9       8       9       9       8
       9       9       8       9       9       8       9       9       8       9
       9       8       9       9       8       9       9       8       9       9
       8       9       9       8       9       9       8       9       9       8
       9       9       8       9       9       8       9       9       8       9
       9       8       9       9       8       9       9       8       9       9
       8       9       9       8       9       9       8       9       9       8
       9       9       8       9       9       8       9       9       8       9
       9       8       9       9       8       9       9       8       9       9
       8       9       9       8       9       9       8       9       9       8
       9       9       8       9       9       8       9       9       8       9
       9       8       9       9       8       9       9       8       9       9
       8       9       9       8       9       9       8       9       9       8
       9       9       8       9       9       8       9       9       8       9
       9       8       9       9       8       9       9       8       9       9
       8       9       9       8       9       9       8       9       9       8
       9       9       8       9       9       8       9       9       8       9
       9       8       9       9       8       9       9       8       9       9
       8       9       9       8       9       9       8       9       9       8
       9       9       8       9       9       8       9       9       8       9
       9       8       9       9       8       9       9       8       9       9
       8       9       9       8       9       9       8       9       9       8
       9       9       8       9       9       8       9       9       8       9
       9       8       9       9       8       9       9       8       9       9
       8       9       9       8       9       9       8       9       9       8
       9       9       8       9       9       8       9       9       8       9
       9       8       9       9       8       9       9       8       9       9
       8       9       9       8       9       9       8       9       9       8
       9       9       8       9       9       8       9       9       8       9
       9       8       9       9       8       9       9       8       9       9
       8       9       9       8       9       9       8       9       9       8
       9       9       8       9       9       8       9       9       8       9
       9       8       9       9       8       9       9       8       9       9
       8       9       9       8       9       9       8       9       9       8
       9       9       8       9       9       8       9       9       8       9
       9       8       9       9       8       9       9       8       9       9
       8       9       9       8       9       9       8       9       9       8
       9       9       8       9       9       8       9       9       8       9
       9       8       9       9       8       9       9       8       9       9
       8       9       9       8       9       9       8       9       9       8
       9       9       8       9       9       8       9       9       8       9
       9       8       9       9       8       9       9       8       9       9
       8       9       9       8       9       9       8       9       9       8
       9       9       8       9       9       8       9       9       8       9
       9       8       9       9       8       9       9       8       9       9
       8       9       9       8       9       9       8       9       9       8
       9       9       8       9       9       8       9       9       8       9
       9       8       9       9       8       9       9       8       9       9
       8       9       9       8       9       9       8       9       9       8
       9       9       8       9       9       8       9       9       8       9
       9       8       9       9       8       9       9       8       9       9
       8       9       9       8       9       9       8       9       9       8
       9       9       8       9       9       8       9       9       8       9
       9       8       9       9       8       9       9       8       9       9
       8       9       9       8       9       9       8       9       9       8
       9       9       8       9       9       8       9       9       8       9
       9       8       9       9       8       9       9       8       9       9
       8       9       9       8       9       9       8       9       9       8
       9       9       8       9       9       8       9       9       8       9
       9       8       9       9       8       9       9       8       9       9
       8       9       9       8       9       9       8       9       9       8
       9       9       8       9       9       8       9       9       8       9
       9       8       9       9       8       9       9       8       9       9
       8       9       9       8       9       9       8       9       9       8
       9       9       8       9       9       8       9       9       8       9
       9       8       9       9       8       9       9       8       9       9
       8       9       9       8       9       9       8       9       9       8
       9       9       8       9       9       8       9       9       8       9
       9       8       9       9       8       9       9       8       9       9
       8       9       9       8       9       9       8       9       9       8
       9       9       8       9       9       8       9       9       8       9
       9       8       9       9       8       9       9       8       9       9
       8       9       9       8       9       9       8       9       9       8
       9       9       8       9       9       8       9       9       8       9
       9       8       9       9       8       9       9       8       9       9
       8       9       9       8       9       9       8       9       9       8
       9       9       8       9       9       8       9       9       8       9
       9       8       9       9       8       9       9       8       9       9
       8       9       9       8       9       9       8       9       9       8
       9       9       8       9       9       8       9       9       8       9
       9       8       9       9       8       9       9       8       9       9
       8       9       9       8       9       9       8       9       9       8
       9       9       8       9       9       8       9       9       8       9
       9       8       9       9       8       9       9       8       9       9
       8       9       9       8       9       9       8       9       9       8
       9       9       8       9       9       8       9       9       8       9
       9       8       9       9       8       9       9       8       9       9
       8       9       9       8       9       9       8       9       9       8
       9       9       8       9       9       8       9       9       8       9
       9       8       9       9       8       9       9       8       9       9
       8       9       9       8       9       9       8       9       9       8
       9       9       8       9       9       8       9       9       8       9
       9       8       9       9       8       9       9       8       9       9
       8       9       9       8       9       9       8       9       9       8
       9       9       8       9       9       8       9       9       8       9
       9       8       9       9       8       9       9       8       9       9
       8       9       9       8       9       9       8       9       9       8
       9       9       8       9       9       8       9       9       8       9
       9       8       9       9       8       9       9       8       9       9
       8       9       9       8       9       9       8       9       9       8
       9       9       8       9       9       8       9       9       8       9
       9       8       9       9       8       9       9       8       9       9
       8       9       9       8       9       9       8       9       9       8
       9       9       8       9       9       8       9       9       8       9
       9       8       9       9       8       9       9       8       9       9
       8       9       9       8       9       9       8       9       9       8
       9       9       8       9       9       8       9       9       8       9
       9       8       9       9       8       9       9       8       9       9
       8       9       9       8       9       9       8       9       9       8
       9       9       8       9       9       8       9       9       8       9
       9       8       9       9       8       9       9       8       9       9
       8       9       9       8       9       9       8       9       9       8
       9       9       8       9       9       8       9       9       8       9
       9       8       9       9       8       9       9       8       9       9
       8       9       9       8       9       9       8       9       9       8
       9       9       8       9       9       8       9       9       8       9
       9       8       9       9       8       9       9       8       9       9
       8       9       9       8       9       9       8       9       9       8
       9       9       8       9       9       8       9       9       8       9
       9       8       9       9       8       9       9       8       9       9
       8       9       9       8       9       9       8       9       9       8
       9       9       8       9       9       8       9       9       8       9
       9       8       9       9       8       9       9       8       9       9
       8       9       9       8       9       9       8       9       9       8
       9       9       8       9       9       8       9       9       8       9
       9       8       9       9       8       9       9       8       9       9
       8       9       9       8       9       9       8       9       9       8
       9       9       8       9       9       8       9       9       8       9
       9       8       9       9       8       9       9       8       9       9
       8       9       9       8       9       9       8       9       9       8
       9       9       8       9       9       8       9       9       8       9
       9       8       9       9       8       9       9       8       9       9
       8       9       9       8       9       9       8       9       9       8
       9       9       8       9       9       8       9       9       8       9
       9       8       9       9       8       9       9       8       9       9
       8       9       9       8       9       9       8       9       9       8
       9       9       8       9       9       8       9       9       8       9
       9       8       9       9       8       9       9       8       9       9
       8       9       9       8       9       9       8       9       9       8
       9       9       8       9       9       8       9       9       8       9
       9       8       9       9       8       9       9       8       9       9
       8       9       9       8       9       9       8       9       9       8
       9       9       8       9       9       8       9       9       8       9
       9       8       9       9       8       9       9       8       9       9
       8       9       9       8       9       9       8       9       9       8
       9       9       8       9       9       8       9       9       8       9
       9       8       9       9       8       9       9       8       9       9
       8       9       9       8       9       9       8       9       9       8
       9       9       8       9       9       8       9       9       8       9
       9       8       9       9       8       9       9       8       9       9
       8       9       9       8       9       9       8       9       9       8
       9       9       8       9       9       8       9       9       8       9
       9       8       9       9       8       9       9       8       9       9
       8       9       9       8       9       9       8       9       9       8
       9       9       8       9       9       8       9       9       8       9
       9       8       9       9       8       9       9       8       9       9
       8       9       9       8       9       9       8       9       9       8
       9       9       8       9       9       8       9       9       8       9
       9       8       9       9       8       9       9       8       9       9
       8       9       9       8       9       9       8       9       9       8
       9       9       8       9       9       8       9       9       8       9
       9       8       9       9       8       9       9       8       9       9
       8       9       9       8       9       9       8       9       9       8
       9       9       8       9       9       8       9       9       8       9
       9       8       9       9       8       9       9       8       9       9
       8       9       9       8       9       9       8       9       9       8
       9       9       8       9       9       8       9       9       8       9
       9       8       9       9       8       9       9       8       9       9
       8       9       9       8       9       9       8       9       9       8
       9       9       8       9       9       8       9       9       8       9
       9       8       9       9       8       9       9       8       9       9
       8       9       9       8       9       9       8       9       9       8
       9       9       8       9       9       8       9       9       8       9
       9       8       9       9       8       9       9       8       9       9
       8       9       9       8       9       9       8       9       9       8
       9       9       8       9       9       8       9       9       8       9
       9       8       9       9       8       9       9       8       9       9
       8       9       9       8       9       9       8       9       9       8
       9       9       8       9       9       8       9       9       8       9
       9       8       9       9       8       9       9       8       9       9
       8       9       9       8       9       9       8       9       9       8
       9       9       8       9       9       8       9       9       8       9
       9       8       9       9       8       9       9       8       9       9
       8       9       9       8       9       9       8       9       9       8
       9       9       8       9       9       8       9       9       8       9
       9       8       9       9       8       9       9       8       9       9
       8       9       9       8       9       9       8       9       9       8
       9       9       8       9       9       8       9       9       8       9
       9       8       9       9       8       9       9       8       9       9
       8       9       9       8       9       9       8       9       9       8
       9       9       8       9       9       8       9       9       8       9
       9       8       9       9       8       9       9       8       9       9
       8       9       9       8       9       9       8       9       9       8
       9       9       8       9       9       8       9       9       8       9
       9       8       9       9       8       9       9       8       9       9
       8       9       9       8       9       9       8       9       9       8
       9       9       8       9       9       8       9       9       8       9
       9       8       9       9       8       9       9       8       9       9
       8       9       9       8       9       9       8       9       9       8
       9       9       8       9       9       8       9       9       8       9
       9       8       9       9       8       9       9       8       9       9
       8       9       9       8       9       9       8       9       9       8
       9       9       8       9       9       8       9       9       8       9
       9       8       9       9       8       9       9       8       9       9
       8       9       9       8       9       9       8       9       9       8
       9       9       8       9       9       8       9       9       8       9
       9       8       9       9       8       9       9       8       9       9
       8       9       9       8       9       9       8       9       9       8
       9       9       8       9       9       8       9       9       8       9
       9       8       9       9       8       9       9       8       9       9
       8       9       9       8       9       9       8       9       9       8
       9       9       8       9       9       8       9       9       8       9
       9       8       9       9       8       9       9       8       9       9
       8       9       9       8       9       9       8       9       9       8
       9       9       8       9       9       8       9       9       8       9
       9       8       9       9       8       9       9       8       9       9
       8       9       9       8       9       9       8       9       9       8
       9       9       8       9       9       8       9       9       8       9
       9       8       9       9       8       9       9       8       9       9
       8       9       9       8       9       9       8       9       9       8
       9       9       8       9       9       8       9       9       8       9
       9       8       9       9       8       9       9       8       9       9
       8       9       9       8       9       9       8       9       9       8
       9       9       8       9       9       8       9       9       8       9
       9       8       9       9       8       9       9       8       9       9
       8       9       9       8       9       9       8       9       9       8
       9       9       8       9       9       8       9       9       8       9
       9       8       9       9       8       9       9       8       9       9
       8       9       9       8       9       9       8       9       9       8
       9       9       8       9       9       8       9       9       8       9
       9       8       9       9       8       9       9       8       9       9
       8       9       9       8       9       9       8       9       9       8
       9       9       8       9       9       8       9       9       8       9
       9       8       9       9       8       9       9       8       9       9
       8       9       9       8       9       9       8       9       9       8
       9       9       8       9       9       8       9       9       8       9
       9       8       9       9       8       9       9       8       9       9
       8       9       9       8       9       9       8       9       9       8
       9       9       8       9       9       8       9       9       8       9
       9       8       9       9       8       9       9       8       9       9
       8       9       9       8       9       9       8       9       9       8
       9       9       8       9       9       8       9       9       8       9
       9       8       9       9       8       9       9       8       9       9
       8       9       9       8       9       9       8       9       9       8
       9       9       8       9       9       8       9       9       8       9
       9       8       9       9       8       9       9       8       9       9
       8       9       9       8       9       9       8       9       9       8
       9       9       8       9       9       8       9       9       8       9
       9       8       9       9       8       9       9       8       9       9
       8       9       9       8       9       9       8       9       9       8
       9       9       8       9       9       8       9       9       8       9
       9       8       9       9       8       9       9       8       9       9
       8       9       9       8       9       9       8       9       9       8
       9       9       8       9       9       8       9       9       8       9
       9       8       9       9       8       9       9       8       9       9
       8       9       9       8       9       9       8       9       9       8
       9       9       8       9       9       8       9       9       8       9
       9       8       9       9       8       9       9       8       9       9
       8       9       9       8       9       9       8       9       9       8
       9       9       8       9       9       8       9       9       8       9
       9       8       9       9       8       9       9       8       9       9
       8       9       9       8       9       9       8       9       9       8
       9       9       8       9       9       8       9       9       8       9
       9       8       9       9       8       9       9       8       9       9
       8       9       9       8       9       9       8       9       9       8
       9       9       8       9       9       8       9       9       8       9
       9       8       9       9       8       9       9       8       9       9
       8       9       9       8       9       9       8       9       9       8
       9       9       8       9       9       8       9       9       8       9
       9       8       9       9       8       9       9       8       9       9
       8       9       9       8       9       9       8       9       9       8
       9       9       8       9       9       8       9       9       8       9
       9       8       9       9       8       9       9       8       9       9
       8       9       9       8       9       9       8       9       9       8
       9       9       8       9       9       8       9       9       8       9
       9       8       9       9       8       9       9       8       9       9
       8       9       9       8       9       9       8       9       9       8
       9       9       8       9       9       8       9       9       8       9
       9       8       9       9       8       9       9       8       9       9
       8       9       9       8       9       9       8       9       9       8
       9       9       8       9       9       8       9       9       8       9
       9       8       9       9       8       9       9       8       9       9
       8       9       9       8       9       9       8       9       9       8
       9       9       8       9       9       8       9       9       8       9
       9       8       9       9       8       9       9       8       9       9
       8       9       9       8       9       9       8       9       9       8
       9       9       8       9       9       8       9       9       8       9
       9       8       9       9       8       9       9       8       9       9
       8       9       9       8       9       9       8       9       9       8
       9       9       8       9       9       8       9       9       8       9
       9       8       9       9       8       9       9       8       9       9
       8       9       9       8       9       9       8       9       9       8
       9       9       8       9       9       8       9       9       8       9
       9       8       9       9       8       9       9       8       9       9
       8       9       9       8       9       9       8       9       9       8
       9       9       8       9       9       8       9       9       8       9
       9       8       9       9       8       9       9       8       9       9
       8       9       9       8       9       9       8       9       9       8
       9       9       8       9       9       8       9       9       8       9
       9       8       9       9       8       9       9       8       9       9
       8       9       9       8       9       9       8       9       9       8
       9       9       8       9       9       8       9       9       8       9
       9       8       9       9       8       9       9       8       9       9
       8       9       9       8       9       9       8       9       9       8
       9       9       8       9       9       8       9       9       8       9
       9       8       9       9       8       9       9       8       9       9
       8       9       9       8       9       9       8       9       9       8
       9       9       8       9       9       8       9       9       8       9
       9       8       9       9       8       9       9       8       9       9
       8       9       9       8       9       9       8       9       9       8
       9       9       8       9       9       8       9       9       8       9
       9       8       9       9       8       9       9       8       9       9
       8       9       9       8       9       9       8       9       9       8
       9       9       8       9       9       8       9       9       8       9
       9       8       9       9       8       9       9       8       9       9
       8       9       9       8       9       9       8       9       9       8
       9       9       8       9       9       8       9       9       8       9
       9       8       9       9       8       9       9       8       9       9
       8       9       9       8       9       9       8       9       9       8
       9       9       8       9       9       8       9       9       8       9
       9       8       9       9       8       9       9       8       9       9
       8       9       9       8       9       9       8       9       9       8
       9       9       8       9       9       8       9       9       8       9
       9       8       9       9       8       9       9       8       9       9
       8       9       9       8       9       9       8       9       9       8
       9       9       8       9       9       8       9       9       8       9
       9       8       9       9       8       9       9       8       9       9
       8       9       9       8       9       9       8       9       9       8
       9       9       8       9       9       8       9       9       8       9
       9       8       9       9       8       9       9       8       9       9
       8       9       9       8       9       9       8       9       9       8
       9       9       8       9       9       8       9       9       8       9
       9       8       9       9       8       9       9       8       9       9
       8       9       9       8       9       9       8       9       9       8
       9       9       8       9       9       8       9       9       8       9
       9       8       9       9       8       9       9       8       9       9
       8       9       9       8       9       9       8       9       9       8
       9       9       8       9       9       8       9       9       8       9
       9       8       9       9       8       9       9       8       9       9
       8       9       9       8       9       9       8       9       9       8
       9       9       8       9       9       8       9       9       8       9
       9       8       9       9       8       9       9       8       9       9
       8       9       9       8       9       9       8       9       9       8
       9       9       8       9       9       8       9       9       8       9
       9       8       9       9       8       9       9       8       9       9
       8       9       9       8       9       9       8       9       9       8
       9       9       8       9       9       8       9       9       8       9
       9       8       9       9       8       9       9       8       9       9
       8       9       9       8       9       9       8       9       9       8
       9       9       8       9       9       8       9       9       8       9
       9       8       9       9       8       9       9       8       9       9
       8       9       9       8       9       9       8       9       9       8
       9       9       8       9       9       8       9       9       8       9
       9       8       9       9       8       9       9       8       9       9
       8       9       9       8       9       9       8       9       9       8
       9       9       8       9       9       8       9       9       8       9
       9       8       9       9       8       9       9       8       9       9
       8       9       9       8       9       9       8       9       9       8
       9       9       8       9       9       8       9       9       8       9
       9       8       9       9       8       9       9       8       9       9
       8       9       9       8       9       9       8       9       9       8
       9       9       8       9       9       8       9       9       8       9
       9       8       9       9       8       9       9       8       9       9
       8       9       9       8       9       9       8       9       9       8
       9       9       8       9       9       8       9       9       8       9
       9       8       9       9       8       9       9       8       9       9
       8       9       9       8       9       9       8       9       9       8
       9       9       8       9       9       8       9       9       8       9
       9       8       9       9       8       9       9       8       9       9
       8       9       9       8       9       9       8       9       9       8
       9       9       8       9       9       8       9       9       8       9
       9       8       9       9       8       9       9       8       9       9
       8       9       9       8       9       9       8       9       9       8
       9       9       8       9       9       8       9       9       8       9
       9       8       9       9       8       9       9       8       9       9
       8       9       9       8       9       9       8       9       9       8
       9       9       8       9       9       8       9       9       8       9
       9       8       9       9       8       9       9       8       9       9
       8       9       9       8       9       9       8       9       9       8
       9       9       8       9       9       8       9       9       8       9
       9       8       9       9       8       9       9       8       9       9
       8       9       9       8       9       9       8       9       9       8
       9       9       8       9       9       8       9       9       8       9
       9       8       9       9       8       9       9       8       9       9
       8       9       9       8       9       9       8       9       9       8
       9       9       8       9       9       8       9       9       8       9
       9       8       9       9       8       9       9       8       9       9
       8       9       9       8       9       9       8       9       9       8
       9       9       8       9       9       8       9       9       8       9
       9       8       9       9       8       9       9       8       9       9
       8       9       9       8       9       9       8       9       9       8
       9       9       8       9       9       8       9       9       8       9
       9       8       9       9       8       9       9       8       9       9
       8       9       9       8       9       9       8       9       9       8
       9       9       8       9       9       8       9       9       8       9
       9       8       9       9       8       9       9       8       9       9
       8       9       9       8       9       9       8       9       9       8
       9       9       8       9       9       8       9       9       8       9
       9       8       9       9       8       9       9       8       9       9
       8       9       9       8       9       9       8       9       9       8
       9       9       8       9       9       8       9       9       8       9
       9       8       9       9       8       9       9       8       9       9
       8       9       9       8       9       9       8       9       9       8
       9       9       8       9       9       8       9       9       8       9
       9       8       9       9       8       9       9       8       9       9
       8       9       9       8       9       9       8       9       9       8
       9       9       8       9       9       8       9       9       8       9
       9       8       9       9       8       9       9       8       9       9
       8       9       9       8       9       9       8       9       9       8
       9       9       8       9       9       8       9       9       8       9
       9       8       9       9       8       9       9       8       9       9
       8       9       9       8       9       9       8       9       9       8
       9       9       8       9       9       8       9       9       8       9
       9       8       9       9       8       9       9       8       9       9
       8       9       9       8       9       9       8       9       9       8
       9       9       8       9       9       8       9       9       8       9
       9       8       9       9       8       9       9       8       9       9
       8       9       9       8       9       9       8       9       9       8
       9       9       8       9       9       8       9       9       8       9
       9       8       9       9       8       9       9       8       9       9
       8       9       9       8       9       9       8       9       9       8
       9       9       8       9       9       8       9       9       8       9
       9       8       9       9       8       9       9       8       9       9
       8       9       9       8       9       9       8       9       9       8
       9       9       8       9       9       8       9       9       8       9
       9       8       9       9       8       9       9       8       9       9
       8       9       9       8       9       9       8       9       9       8
       9       9       8       9       9       8       9       9       8       9
       9       8       9       9       8       9       9       8       9       9
       8       9       9       8       9       9       8       9       9       8
       9       9       8       9       9       8       9       9       8       9
       9       8       9       9       8       9       9       8       9       9
       8       9       9       8       9       9       8       9       9       8
       9       9       8       9       9       8       9       9       8       9
       9       8       9       9       8       9       9       8       9       9
       8       9       9       8       9       9       8       9       9       8
       9       9       8       9       9       8       9       9       8       9
       9       8       9       9       8       9       9       8       9       9
       8       9       9       8       9       9       8       9       9       8
       9       9       8       9       9       8       9       9       8       9
       9       8       9       9       8       9       9       8       9       9
       8       9       9       8       9       9       8       9       9       8
       9       9       8       9       9       8       9       9       8       9
       9       8       9       9       8       9       9       8       9       9
       8       9       9       8       9       9       8       9       9       8
       9       9       8       9       9       8       9       9       8       9
       9       8       9       9       8       9       9       8       9       9
       8       9       9       8       9       9       8       9       9       8
       9       9       8       9       9       8       9       9       8       9
       9       8       9       9       8       9       9       8       9       9
       8       9       9       8       9       9       8       9       9       8
       9       9       8       9       9       8       9       9       8       9
       9       8       9       9       8       9       9       8       9       9
       8       9       9       8       9       9       8       9       9       8
       9       9       8       9       9       8       9       9       8       9
       9       8       9       9       8       9       9       8       9       9
       8       9       9       8       9       9       8       9       9       8
       9       9       8       9       9       8       9       9       8       9
       9       8       9       9       8       9       9       8       9       9
       8       9       9       8       9       9       8       9       9       8
       9       9       8       9       9       8       9       9       8       9
       9       8       9       9       8       9       9       8       9       9
       8       9       9       8       9       9       8       9       9       8
       9       9       8       9       9       8       9       9       8       9
       9       8       9       9       8       9       9       8       9       9
       8       9       9       8       9       9       8       9       9       8
       9       9       8       9       9       8       9       9       8       9
       9       8       9       9       8       9       9       8       9       9
       8       9       9       8       9       9       8       9       9       8
       9       9       8       9       9       8       9       9       8       9
       9       8       9       9       8       9       9       8       9       9
       8       9       9       8       9       9       8       9       9       8
       9       9       8       9       9       8       9       9       8       9
       9       8       9       9       8       9       9       8       9       9
       8       9       9       8       9       9       8       9       9       8
       9       9       8       9       9       8       9       9       8       9
       9       8       9       9       8       9       9       8       9       9
       8       9       9       8       9       9       8       9       9       8
       9       9       8       9       9       8       9       9       8       9
       9       8       9       9       8       9       9       8       9       9
       8       9       9       8       9       9       8       9       9       8
       9       9       8       9       9       8       9       9       8       9
       9       8       9       9       8       9       9       8       9       9
       8       9       9       8       9       9       8       9       9       8
       9       9       8       9       9       8       9       9       8       9
       9       8       9       9       8       9       9       8       9       9
       8       9       9       8       9       9       8       9       9       8
       9       9       8       9       9       8       9       9       8       9
       9       8       9       9       8       9       9       8       9       9
       8       9       9       8       9       9       8       9       9       8
       9       9       8       9       9       8       9       9       8       9
       9       8       9       9       8       9       9       8       9       9
       8       9       9       8       9       9       8       9       9       8
       9       9       8       9       9       8       9       9       8       9
       9       8       9       9       8       9       9       8       9       9
       8       9       9       8       9       9       8       9       9       8
       9       9       8       9       9       8       9       9       8       9
       9       8       9       9       8       9       9       8       9       9
       8       9       9       8       9       9       8       9       9       8
       9       9       8       9       9       8       9       9       8       9
       9       8       9       9       8       9       9       8       9       9
       8       9       9       8       9       9       8       9       9       8
       9       9       8       9       9       8       9       9       8       9
       9       8       9       9       8       9       9       8       9       9
       8       9       9       8       9       9       8       9       9       8
       9       9       8       9       9       8       9       9       8       9
       9       8       9       9       8       9       9       8       9       9
       8       9       9       8       9       9       8       9       9       8
       9       9       8       9       9       8       9       9       8       9
       9       8       9       9       8       9       9       8       9       9
       8       9       9       8       9       9       8       9       9       8
       9       9       8       9       9       8       9       9       8       9
       9       8       9       9       8       9       9       8       9       9
       8       9       9       8       9       9       8       9       9       8
       9       9       8       9       9       8       9       9       8       9
       9       8       9       9       8       9       9       8       9       9
       8       9       9       8       9       9       8       9       9       8
       9       9       8       9       9       8       9       9       8       9
       9       8       9       9       8       9       9       8       9       9
       8       9       9       8       9       9       8       9       9       8
       9       9       8       9       9       8       9       9       8       9
       9       8       9       9       8       9       9       8       9       9
       8       9       9       8       9       9       8       9       9       8
       9       9       8       9       9       8       9       9       8       9
       9       8       9       9       8       9       9       8       9       9
       8       9       9       8       9       9       8       9       9       8
       9       9       8       9       9       8       9       9       8       9
       9       8       9       9       8       9       9       8       9       9
       8       9       9       8       9       9       8       9       9       8
       9       9       8       9       9       8       9       9       8       9
       9       8       9       9       8       9       9       8       9       9
       8       9       9       8       9       9       8       9       9       8
       9       9       8       9       9       8       9       9       8       9
       9       8       9       9       8       9       9       8       9       9
       8       9       9       8       9       9       8       9       9       8
       9       9       8       9       9       8       9       9       8       9
       9       8       9       9       8       9       9       8       9       9
       8       9       9       8       9       9       8       9       9       8
       9       9       8       9       9       8       9       9       8       9
       9       8       9       9       8       9       9       8       9       9
       8       9       9       8       9       9       8       9       9       8
       9       9       8       9       9       8       9       9       8       9
       9       8       9       9       8       9       9       8       9       9
       8       9       9       8       9       9       8       9       9       8
       9       9       8       9       9       8       9       9       8       9
       9       8       9       9       8       9       9       8       9       9
       8       9       9       8       9       9       8       9       9       8
       9       9       8       9       9       8       9       9       8       9
       9       8       9       9       8       9       9       8       9       9
       8       9       9       8       9       9       8       9       9       8
       9       9       8       9       9       8       9       9       8       9
       9       8       9       9       8       9       9       8       9       9
       8       9       9       8       9       9       8       9       9       8
       9       9       8       9       9       8       9       9       8       9
       9       8       9       9       8       9       9       8       9       9
       8       9       9       8       9       9       8       9       9       8
       9       9       8       9       9       8       9       9       8       9
       9       8       9       9       8       9       9       8       9       9
       8       9       9       8       9       9       8       9       9       8
       9       9       8       9       9       8       9       9       8       9
       9       8       9       9       8       9       9       8       9       9
       8       9       9       8       9       9       8       9       9       8
       9       9       8       9       9       8       9       9       8       9
       9       8       9       9       8       9       9       8       9       9
       8       9       9       8       9       9       8       9       9       8
       9       9       8       9       9       8       9       9       8       9
       9       8       9       9       8       9       9       8       9       9
       8       9       9       8       9       9       8       9       9       8
       9       9       8       9       9       8       9       9       8       9
       9       8       9       9       8       9       9       8       9       9
       8       9       9       8       9       9       8       9       9       8
       9       9       8       9       9       8       9       9       8       9
       9       8       9       9       8       9       9       8       9       9
       8       9       9       8       9       9       8       9       9       8
       9       9       8       9       9       8       9       9       8       9
       9       8       9       9       8       9       9       8       9       9
       8       9       9       8       9       9       8       9       9       8
       9       9       8       9       9       8       9       9       8       9
       9       8       9       9       8       9       9       8       9       9
       8       9       9       8       9       9       8       9       9       8
       9       9       8       9       9       8       9       9       8       9
       9       8       9       9       8       9       9       8       9       9
       8       9       9       8       9       9       8       9       9       8
       9       9       8       9       9       8       9       9       8       9
       9       8       9       9       8       9       9       8       9       9
       8       9       9       8       9       9       8       9       9       8
       9       9       8       9       9       8       9       9       8       9
       9       8       9       9       8       9       9       8       9       9
       8       9       9       8       9       9       8       9       9       8
       9       9       8       9       9       8       9       9       8       9
       9       8       9       9       8       9       9       8       9       9
       8       9       9       8       9       9       8       9       9       8
       9       9       8       9       9       8       9       9       8       9
       9       8       9       9       8       9       9       8       9       9
       8       9       9       8       9       9       8       9       9       8
       9       9       8       9       9       8       9       9       8       9
       9       8       9       9       8       9       9       8       9       9
       8       9       9       8       9       9       8       9       9       8
       9       9       8       9       9       8       9       9       8       9
       9       8       9       9       8       9       9       8       9       9
       8       9       9       8       9       9       8       9       9       8
       9       9       8       9       9       8       9       9       8       9
       9       8       9       9       8       9       9       8       9       9
       8       9       9       8       9       9       8       9       9       8
       9       9       8       9       9       8       9       9       8       9
       9       8       9       9       8       9       9       8       9       9
       8       9       9       8       9       9       8       9       9       8
       9       9       8       9       9       8       9       9       8       9
       9       8       9       9       8       9       9       8       9       9
       8       9       9       8       9       9       8       9       9       8
       9       9       8       9       9       8       9       9       8       9
       9       8       9       9       8       9       9       8       9       9
       8       9       9       8       9       9       8       9       9       8
       9       9       8       9       9       8       9       9       8       9
       9       8       9       9       8       9       9       8       9       9
       8       9       9       8       9       9       8       9       9       8
       9       9       8       9       9       8       9       9       8       9
       9       8       9       9       8       9       9       8       9       9
       8       9       9       8       9       9       8       9       9       8
       9       9       8       9       9       8       9       9       8       9
       9       8       9       9       8       9       9       8       9       9
       8       9       9       8       9       9       8       9       9       8
       9       9       8       9       9       8       9       9       8       9
       9       8       9       9       8       9       9       8       9       9
       8       9       9       8       9       9       8       9       9       8
       9       9       8       9       9       8       9       9       8       9
       9       8       9       9       8       9       9       8       9       9
       8       9       9       8       9       9       8       9       9       8
       9       9       8       9       9       8       9       9       8       9
       9       8       9       9       8       9       9       8       9       9
       8       9       9       8       9       9       8       9       9       8
       9       9       8       9       9       8       9       9       8       9
       9       8       9       9       8       9       9       8       9       9
       8       9       9       8       9       9       8       9       9       8
       9       9       8       9       9       8       9       9       8       9
       9       8       9       9       8       9       9       8       9       9
       8       9       9       8       9       9       8       9       9       8
       9       9       8       9       9       8       9       9       8       9
       9       8       9       9       8       9       9       8       9       9
       8       9       9       8       9       9       8       9       9       8
       9       9       8       9       9       8       9       9       8       9
       9       8       9       9       8       9       9       8       9       9
       8       9       9       8       9       9       8       9       9       8
       9       9       8       9       9       8       9       9       8       9
       9       8       9       9       8       9       9       8       9       9
       8       9       9       8       9       9       8       9       9       8
       9       9       8       9       9       8       9       9       8       9
       9       8       9       9       8       9       9       8       9       9
       8       9       9       8       9       9       8       9       9       8
       9       9       8       9       9       8       9       9       8       9
       9       8       9       9       8       9       9       8       9       9
       8       9       9       8       9       9       8       9       9       8
       9       9       8       9       9       8       9       9       8       9
       9       8       9       9       8       9       9       8       9       9
       8       9       9       8       9       9       8       9       9       8
       9       9       8       9       9       8       9       9       8       9
       9       8       9       9       8       9       9       8       9       9
       8       9       9       8       9       9       8       9       9       8
       9       9       8       9       9       8       9       9       8       9
       9       8       9       9       8       9       9       8       9       9
       8       9       9       8       9       9       8       9       9       8
       9       9       8       9       9       8       9       9       8       9
       9       8       9       9       8       9       9       8       9       9
       8       9       9       8       9       9       8       9       9       8
       9       9       8       9       9       8       9       9       8       9
       9       8       9       9       8       9       9       8       9       9
       8       9       9       8       9       9       8       9       9       8
       9       9       8       9       9       8       9       9       8       9
       9       8       9       9       8       9       9       8       9       9
       8       9       9       8       9       9       8       9       9       8
       9       9       8       9       9       8       9       9       8       9
       9       8       9       9       8       9       9       8       9       9
       8       9       9       8       9       9       8       9       9       8
       9       9       8       9       9       8       9       9       8       9
       9       8       9       9       8       9       9       8       9       9
       8       9       9       8       9       9       8       9       9       8
       9       9       8       9       9       8       9       9       8       9
       9       8       9       9       8       9       9       8       9       9
       8       9       9       8       9       9       8       9       9       8
       9       9       8       9       9       8       9       9       8       9
       9       8       9       9       8       9       9       8       9       9
       8       9       9       8       9       9       8       9       9       8
       9       9       8       9       9       8       9       9       8       9
       9       8       9       9       8       9       9       8       9       9
       8       9       9       8       9       9       8       9       9       8
       9       9       8       9       9       8       9       9       8       9
       9       8       9       9       8       9       9       8       9       9
       8       9       9       8       9       9       8       9       9       8
       9       9       8       9       9       8       9       9       8       9
       9       8       9       9       8       9       9       8       9       9
       8       9       9       8       9       9       8       9       9       8
       9       9       8       9       9       8       9       9       8       9
       9       8       9       9       8       9       9       8       9       9
       8       9       9       8       9       9       8       9       9       8
       9       9       8       9       9       8       9       9       8       9
       9       8       9       9       8       9       9       8       9       9
       8       9       9       8       9       9       8       9       9       8
       9       9       8       9       9       8       9       9       8       9
       9       8       9       9       8       9       9       8       9       9
       8       9       9       8       9       9       8       9       9       8
       9       9       8       9       9       8       9       9       8       9
       9       8       9       9       8       9       9       8       9       9
       8       9       9       8       9       9       8       9       9       8
       9       9       8       9       9       8       9       9       8       9
       9       8       9       9       8       9       9       8       9       9
       8       9       9       8       9       9       8       9       9       8
       9       9       8       9       9       8       9       9       8       9
       9       8       9       9       8       9       9       8       9       9
       8       9       9       8       9       9       8       9       9       8
       9       9       8       9       9       8       9       9       8       9
       9       8       9       9       8       9       9       8       9       9
       8       9       9       8       9       9       8       9       9       8
       9       9       8       9       9       8       9       9       8       9
       9       8       9       9       8       9       9       8       9       9
       8       9       9       8       9       9       8       9       9       8
       9       9       8       9       9       8       9       9       8       9
       9       8       9       9       8       9       9       8       9       9
       8       9       9       8       9       9       8       9       9       8
       9       9       8       9       9       8       9       9       8       9
       9       8       9       9       8       9       9       8       9       9
       8       9       9       8       9       9       8       9       9       8
       9       9       8       9       9       8       9       9       8       9
       9       8       9       9       8       9       9       8       9       9
       8       9       9       8       9       9       8       9       9       8
       9       9       8       9       9       8       9       9       8       9
       9       8       9       9       8       9       9       8       9       9
       8       9       9       8       9       9       8       9       9       8
       9       9       8       9       9       8       9       9       8       9
       9       8       9       9       8       9       9       8       9       9
       8       9       9       8       9       9       8       9       9       8
       9       9       8       9       9       8       9       9       8       9
       9       8       9       9       8       9       9       8       9       9
       8       9       9       8       9       9       8       9       9       8
       9       9       8       9       9       8       9       9       8       9
       9       8       9       9       8       9       9       8       9       9
       8       9       9       8       9       9       8       9       9       8
       9       9       8       9       9       8       9       9       8       9
       9       8       9       9       8       9       9       8       9       9
       8       9       9       8       9       9       8       9       9       8
       9       9       8       9       9       8       9       9       8       9
       9       8       9       9       8       9       9       8       9       9
       8       9       9       8       9       9       8       9       9       8
       9       9       8       9       9       8       9       9       8       9
       9       8       9       9       8       9       9       8       9       9
       8       9       9       8       9       9       8       9       9       8
       9       9       8       9       9       8       9       9       8       9
       9       8       9       9       8       9       9       8       9       9
       8       9       9       8       9       9       8       9       9       8
       9       9       8       9       9       8       9       9       8       9
       9       8       9       9       8       9       9       8       9       9
       8       9       9       8       9       9       8       9       9       8
       9       9       8       9       9       8       9       9       8       9
       9       8       9       9       8       9       9       8       9       9
       8       9       9       8       9       9       8       9       9       8
       9       9       8       9       9       8       9       9       8       9
       9       8       9       9       8       9       9       8       9       9
       8       9       9       8       9       9       8       9       9       8
       9       9       8       9       9       8       9       9       8       9
       9       8       9       9       8       9       9       8       9       9
       8       9       9       8       9       9       8       9       9       8
       9       9       8       9       9       8       9       9       8       9
       9       8       9       9       8       9       9       8       9       9
       8       9       9       8       9       9       8       9       9       8
       9       9       8       9       9       8       9       9       8       9
       9       8       9       9       8       9       9       8       9       9
       8       9       9       8       9       9       8       9       9       8
       9       9       8       9       9       8       9       9       8       9
       9       8       9       9       8       9       9       8       9       9
       8       9       9       8       9       9       8       9       9       8
       9       9       8       9       9       8       9       9       8       9
       9       8       9       9       8       9       9       8       9       9
       8       9       9       8       9       9       8       9       9       8
       9       9       8       9       9       8       9       9       8       9
       9       8       9       9       8       9       9       8       9       9
       8       9       9       8       9       9       8       9       9       8
       9       9       8       9       9       8       9       9       8       9
       9       8       9       9       8       9       9       8       9       9
       8       9       9       8       9       9       8       9       9       8
       9       9       8       9       9       8       9       9       8       9
       9       8       9       9       8       9       9       8       9       9
       8       9       9       8       9       9       8       9       9       8
       9       9       8       9       9       8       9       9       8       9
       9       8       9       9       8       9       9       8       9       9
       8       9       9       8       9       9       8       9       9       8
       9       9       8       9       9       8       9       9       8       9
       9       8       9       9       8       9       9       8       9       9
       8       9       9       8       9       9       8       9       9       8
       9       9       8       9       9       8       9       9       8       9
       9       8       9       9       8       9       9       8       9       9
       8       9       9       8       9       9       8       9       9       8
       9       9       8       9       9       8       9       9       8       9
       9       8       9       9       8       9       9       8       9       9
       8       9       9       8       9       9       8       9       9       8
       9       9       8       9       9       8       9       9       8       9
       9       8       9       9       8       9       9       8       9       9
       8       9       9       8       9       9       8       9       9       8
       9       9       8       9       9       8       9       9       8       9
       9       8       9       9       8       9       9       8       9       9
       8       9       9       8       9       9       8       9       9       8
       9       9       8       9       9       8       9       9       8       9
       9       8       9       9       8       9       9       8       9       9
       8       9       9       8       9       9       8       9       9       8
       9       9       8       9       9       8       9       9       8       9
       9       8       9       9       8       9       9       8       9       9
       8       9       9       8       9       9       8       9       9       8
       9       9       8       9       9       8       9       9       8       9
       9       8       9       9       8       9       9       8       9       9
       8       9       9       8       9       9       8       9       9       8
       9       9       8       9       9       8       9       9       8       9
       9       8       9       9       8       9       9       8       9       9
       8       9       9       8       9       9       8       9       9       8
       9       9       8       9       9       8       9       9       8       9
       9       8       9       9       8       9       9       8       9       9
       8       9       9       8       9       9       8       9       9       8
       9       9       8       9       9       8       9       9       8       9
       9       8       9       9       8       9       9       8       9       9
       8       9       9       8       9       9       8       9       9       8
       9       9       8       9       9       8       9       9       8       9
       9       8       9       9       8       9       9       8       9       9
       8       9       9       8       9       9       8       9       9       8
       9       9       8       9       9       8       9       9       8       9
       9       8       9       9       8       9       9       8       9       9
       8       9       9       8       9       9       8       9       9       8
       9       9       8       9       9       8       9       9       8       9
       9       8       9       9       8       9       9       8       9       9
       8       9       9       8       9       9       8       9       9       8
       9       9       8       9       9       8       9       9       8       9
       9       8       9       9       8       9       9       8       9       9
       8       9       9       8       9       9       8       9       9       8
       9       9       8       9       9       8       9       9       8       9
       9       8       9       9       8       9       9       8       9       9
       8       9       9       8       9       9       8       9       9       8
       9       9       8       9       9       8       9       9       8       9
       9       8       9       9       8       9       9       8       9       9
       8       9       9       8       9       9       8       9       9       8
       9       9       8       9       9       8       9       9       8       9
       9       8       9       9       8       9       9       8       9       9
       8       9       9       8       9       9       8       9       9       8
       9       9       8       9       9       8       9       9       8       9
       9       8       9       9       8       9       9       8       9       9
       8       9       9       8       9       9       8       9       9       8
       9       9       8       9       9       8       9       9       8       9
       9       8       9       9       8       9       9       8       9       9
       8       9       9       8       9       9       8       9       9       8
       9       9       8       9       9       8       9       9       8       9
       9       8       9       9       8       9       9       8       9       9
       8       9       9       8       9       9       8       9       9       8
       9       9       8       9       9       8       9       9       8       9
       9       8       9       9       8       9       9       8       9       9
       8       9       9       8       9       9       8       9       9       8
       9       9       8       9       9       8       9       9       8       9
       9       8       9       9       8       9       9       8       9       9
       8       9       9       8       9       9       8       9       9       8
       9       9       8       9       9       8       9       9       8       9
       9       8       9       9       8       9       9       8       9       9
       8       9       9       8       9       9       8       9       9       8
       9       9       8       9       9       8       9       9       8       9
       9       8       9       9       8       9       9       8       9       9
       8       9       9       8       9       9       8       9       9       8
       9       9       8       9       9       8       9       9       8       9
       9       8       9       9       8       9       9       8       9       9
       8       9       9       8       9       9       8       9       9       8
       9       9       8       9       9       8       9       9       8       9
       9       8       9       9       8       9       9       8       9       9
       8       9       9       8       9       9       8       9       9       8
       9       9       8       9       9       8       9       9       8       9
       9       8       9       9       8       9       9       8       9       9
       8       9       9       8       9       9       8       9       9       8
       9       9       8       9       9       8       9       9       8       9
       9       8       9       9       8       9       9       8       9       9
       8       9       9       8       9       9       8       9       9       8
       9       9       8       9       9       8       9       9       8       9
       9       8       9       9       8       9       9       8       9       9
       8       9       9       8       9       9       8       9       9       8
       9       9       8       9       9       8       9       9       8       9
       9       8       9       9       8       9       9       8       9       9
       8       9       9       8       9       9       8       9       9       8
       9       9       8       9       9       8       9       9       8       9
       9       8       9       9       8       9       9       8       9       9
       8       9       9       8       9       9       8       9       9       8
       9       9       8       9       9       8       9       9       8       9
       9       8       9       9       8       9       9       8       9       9
       8       9       9       8       9       9       8       9       9       8
       9       9       8       9       9       8       9       9       8       9
       9       8       9       9       8       9       9       8       9       9
       8       9       9       8       9       9       8       9       9       8
       9       9       8       9       9       8       9       9       8       9
       9       8       9       9       8       9       9       8       9       9
       8       9       9       8       9       9       8       9       9       8
       9       9       8       9       9       8       9       9       8       9
       9       8       9       9       8       9       9       8       9       9
       8       9       9       8       9       9       8       9       9       8
       9       9       8       9       9       8       9       9       8       9
       9       8       9       9       8       9       9       8       9       9
       8       9       9       8       9       9       8       9       9       8
       9       9       8       9       9       8       9       9       8       9
       9       8       9       9       8       9       9       8       9       9
       8       9       9       8       9       9       8       9       9       8
       9       9       8       9       9       8       9       9       8       9
       9       8       9       9       8       9       9       8       9       9
       8       9       9       8       9       9       8       9       9       8
       9       9       8       9       9       8       9       9       8       9
       9       8       9       9       8       9       9       8       9       9
       8       9       9       8       9       9       8       9       9       8
       9       9       8       9       9       8       9       9       8       9
       9       8       9       9       8       9       9       8       9       9
       8       9       9       8       9       9       8       9       9       8
       9       9       8       9       9       8       9       9       8       9
       9       8       9       9       8       9       9       8       9       9
       8       9       9       8       9       9       8       9       9       8
       9       9       8       9       9       8       9       9       8       9
       9       8       9       9       8       9       9       8       9       9
       8       9       9       8       9       9       8       9       9       8
       9       9       8       9       9       8       9       9       8       9
       9       8       9       9       8       9       9       8       9       9
       8       9       9       8       9       9       8       9       9       8
       9       9       8       9       9       8       9       9       8       9
       9       8       9       9       8       9       9       8       9       9
       8       9       9       8       9       9       8       9       9       8
       9       9       8       9       9       8       9       9       8       9
       9       8       9       9       8       9       9       8       9       9
       8       9       9       8       9       9       8       9       9       8
       9       9       8       9       9       8       9       9       8       9
       9       8       9       9       8       9       9       8       9       9
       8       9       9       8       9       9       8       9       9       8
       9       9       8       9       9       8       9       9       8       9
       9       8       9       9       8       9       9       8       9       9
       8       9       9       8       9       9       8       9       9       8
       9       9       8       9       9       8       9       9       8       9
       9       8       9       9       8       9       9       8       9       9
       8       9       9       8       9       9       8       9       9       8
       9       9       8       9       9       8       9       9       8       9
       9       8       9       9       8       9       9       8       9       9
       8       9       9       8       9       9       8       9       9       8
       9       9       8       9       9       8       9       9       8       9
       9       8       9       9       8       9       9       8       9       9
       8       9       9       8       9       9       8       9       9       8
       9       9       8       9       9       8       9       9       8       9
       9       8       9       9       8       9       9       8       9       9
       8       9       9       8       9       9       8       9       9       8
       9       9       8       9       9       8       9       9       8       9
       9       8       9       9       8       9       9       8       9       9
       8       9       9       8       9       9       8       9       9       8
       9       9       8       9       9       8       9       9       8       9
       9       8       9       9       8       9       9       8       9       9
       8       9       9       8       9       9       8       9       9       8
       9       9       8       9       9       8       9       9       8       9
       9       8       9       9       8       9       9       8       9       9
       8       9       9       8       9       9       8       9       9       8
       9       9       8       9       9       8       9       9       8       9
       9       8       9       9       8       9       9       8       9       9
       8       9       9       8       9       9       8       9       9       8
       9       9       8       9       9       8       9       9       8       9
       9       8       9       9       8       9       9       8       9       9
       8       9       9       8       9       9       8       9       9       8
       9       9       8       9       9       8       9       9       8       9
       9       8       9       9       8       9       9       8       9       9
       8       9       9       8       9       9       8       9       9       8
       9       9       8       9       9       8       9       9       8       9
       9       8       9       9       8       9       9       8       9       9
       8       9       9       8       9       9       8       9       9       8
       9       9       8       9       9       8       9       9       8       9
       9       8       9       9       8       9       9       8       9       9
       8       9       9       8       9       9       8       9       9       8
       9       9       8       9       9       8       9       9       8       9
       9       8       9       9       8       9       9       8       9       9
       8       9       9       8       9       9       8       9       9       8
       9       9       8       9       9       8       9       9       8       9
       9       8       9       9       8       9       9       8       9       9
       8       9       9       8       9       9       8       9       9       8
       9       9       8       9       9       8       9       9       8       9
       9       8       9       9       8       9       9       8       9       9
       8       9       9       8       9       9       8       9       9       8
       9       9       8       9       9       8       9       9       8       9
       9       8       9       9       8       9       9       8       9       9
       8       9       9       8       9       9       8       9       9       8
       9       9       8       9       9       8       9       9       8       9
       9       8       9       9       8       9       9       8       9       9
       8       9       9       8       9       9       8       9       9       8
       9       9       8       9       9       8       9       9       8       9
       9       8       9       9       8       9       9       8       9       9
       8       9       9       8       9       9       8       9       9       8
       9       9       8       9       9       8       9       9       8       9
       9       8       9       9       8       9       9       8       9       9
       8       9       9       8       9       9       8       9       9       8
       9       9       8       9       9       8       9       9       8       9
       9       8       9       9       8       9       9       8       9       9
       8       9       9       8       9       9       8       9       9       8
       9       9       8       9       9       8       9       9       8       9
       9       8       9       9       8       9       9       8       9       9
       8       9       9       8       9       9       8       9       9       8
       9       9       8       9       9       8       9       9       8       9
       9       8       9       9       8       9       9       8       9       9
       8       9       9       8       9       9       8       9       9       8
       9       9       8       9       9       8       9       9       8       9
       9       8       9       9       8       9       9       8       9       9
       8       9       9       8       9       9       8       9       9       8
       9       9       8       9       9       8       9       9       8       9
       9       8       9       9       8       9       9       8       9       9
       8       9       9       8       9       9       8       9       9       8
       9       9       8       9       9       8       9       9       8       9
       9       8       9       9       8       9       9       8       9       9
       8       9       9       8       9       9       8       9       9       8
       9       9       8       9       9       8       9       9       8       9
       9       8       9       9       8       9       9       8       9       9
       8       9       9       8       9       9       8       9       9       8
       9       9       8       9       9       8       9       9       8       9
       9       8       9       9       8       9       9       8       9       9
       8       9       9       8       9       9       8       9       9       8
       9       9       8       9       9       8       9       9       8       9
       9       8       9       9       8       9       9       8       9       9
       8       9       9       8       9       9       8       9       9       8
       9       9       8       9       9       8       9       9       8       9
       9       8       9       9       8       9       9       8       9       9
       8       9       9       8       9       9       8       9       9       8
       9       9       8       9       9       8       9       9       8       9
       9       8       9       9       8       9       9       8       9       9
       8       9       9       8       9       9       8       9       9       8
       9       9       8       9       9       8       9       9       8       9
       9       8       9       9       8       9       9       8       9       9
       8       9       9       8       9       9       8       9       9       8
       9       9       8       9       9       8       9       9       8       9
       9       8       9       9       8       9       9       8       9       9
       8       9       9       8       9       9       8       9       9       8
       9       9       8       9       9       8       9       9       8       9
       9       8       9       9       8       9       9       8       9       9
       8       9       9       8       9       9       8       9       9       8
       9       9       8       9       9       8       9       9       8       9
       9       8       9       9       8       9       9       8       9       9
       8       9       9       8       9       9       8       9       9       8
       9       9       8       9       9       8       9       9       8       9
       9       8       9       9       8       9       9       8       9       9
       8       9       9       8       9       9       8       9       9       8
       9       9       8       9       9       8       9       9       8       9
       9       8       9       9       8       9       9       8       9       9
       8       9       9       8       9       9       8       9       9       8
       9       9       8       9       9       8       9       9       8       9
       9       8       9       9       8       9       9       8       9       9
       8       9       9       8       9       9       8       9       9       8
       9       9       8       9       9       8       9       9       8       9
       9       8       9       9       8       9       9       8       9       9
       8       9       9       8       9       9       8       9       9       8
       9       9       8       9       9       8       9       9       8       9
       9       8       9       9       8       9       9       8       9       9
       8       9       9       8       9       9       8       9       9       8
       9       9       8       9       9       8       9       9       8       9
       9       8       9       9       8       9       9       8       9       9
       8       9       9       8       9       9       8       9       9       8
       9       9       8       9       9       8       9       9       8       9
       9       8       9       9       8       9       9       8       9       9
       8       9       9       8       9       9       8       9       9       8
       9       9       8       9       9       8       9       9       8       9
       9       8       9       9       8       9       9       8       9       9
       8       9       9       8       9       9       8       9       9       8
       9       9       8       9       9       8       9       9       8       9
       9       8       9       9       8       9       9       8       9       9
       8       9       9       8       9       9       8       9       9       8
       9       9       8       9       9       8       9       9       8       9
       9       8       9       9       8       9       9       8       9       9
       8       9       9       8       9       9       8       9       9       8
       9       9       8       9       9       8       9       9       8       9
       9       8       9       9       8       9       9       8       9       9
       8       9       9       8       9       9       8       9       9       8
       9       9       8       9       9       8       9       9       8       9
       9       8       9       9       8       9       9       8       9       9
       8       9       9       8       9       9       8       9       9       8
       9       9       8       9       9       8       9       9       8       9
       9       8       9       9       8       9       9       8       9       9
       8       9       9       8       9       9       8       9       9       8
       9       9       8       9       9       8       9       9       8       9
       9       8       9       9       8       9       9       8       9       9
       8       9       9       8       9       9       8       9       9       8
       9       9       8       9       9       8       9       9       8       9
       9       8       9       9       8       9       9       8       9       9
       8       9       9       8       9       9       8       9       9       8
       9       9       8       9       9       8       9       9       8       9
       9       8       9       9       8       9       9       8       9       9
       8       9       9       8       9       9       8       9       9       8
       9       9       8       9       9       8       9       9       8       9
       9       8       9       9       8       9       9       8       9       9
       8       9       9       8       9       9       8       9       9       8
       9       9       8       9       9       8       9       9       8       9
       9       8       9       9       8       9       9       8       9       9
       8       9       9       8       9       9       8       9       9       8
       9       9       8       9       9       8       9       9       8       9
       9       8       9       9       8       9       9       8       9       9
       8       9       9       8       9       9       8       9       9       8
       9       9       8       9       9       8       9       9       8       9
       9       8       9       9       8       9       9       8       9       9
       8       9       9       8       9       9       8       9       9       8
       9       9       8       9       9       8       9       9       8       9
       9       8       9       9       8       9       9       8       9       9
       8       9       9       8       9       9       8       9       9       8
       9       9       8       9       9       8       9       9       8       9
       9       8       9       9       8       9       9       8       9       9
       8       9       9       8       9       9       8       9       9       8
       9       9       8       9       9       8       9       9       8       9
       9       8       9       9       8       9       9       8       9       9
       8       9       9       8       9       9       8       9       9       8
       9       9       8       9       9       8       9       9       8       9
       9       8       9       9       8       9       9       8       9       9
       8       9       9       8       9       9       8       9       9       8
       9       9       8       9       9       8       9       9       8       9
       9       8       9       9       8       9       9       8       9       9
       8       9       9       8       9       9       8       9       9       8
       9       9       8       9       9       8       9       9       8       9
       9       8       9       9       8       9       9       8       9       9
       8       9       9       8       9       9       8       9       9       8
       9       9       8       9       9       8       9       9       8       9
       9       8       9       9       8       9       9       8       9       9
       8       9       9       8       9       9       8       9       9       8
       9       9       8       9       9       8       9       9       8       9
       9       8       9       9       8       9       9       8       9       9
       8       9       9       8       9       9       8       9       9       8
       9       9       8       9       9       8       9       9       8       9
       9       8       9       9       8       9       9       8       9       9
       8       9       9       8       9       9       8       9       9       8
       9       9       8       9       9       8       9       9       8       9
       9       8       9       9       8       9       9       8       9       9
       8       9       9       8       9       9       8       9       9       8
       9       9       8       9       9       8       9       9       8       9
       9       8       9       9       8       9       9       8       9       9
       8       9       9       8       9       9       8       9       9       8
       9       9       8       9       9       8       9       9       8       9
       9       8       9       9       8       9       9       8       9       9
       8       9       9       8       9       9       8       9       9       8
       9       9       8       9       9       8       9       9       8       9
       9       8       9       9       8       9       9       8       9       9
       8       9       9       8       9       9       8       9       9       8
       9       9       8       9       9       8       9       9       8       9
       9       8       9       9       8       9       9       8       9       9
       8       9       9       8       9       9       8       9       9       8
       9       9       8       9       9       8       9       9       8       9
       9       8       9       9       8       9       9       8       9       9
       8       9       9       8       9       9       8       9       9       8
       9       9       8       9       9       8       9       9       8       9
       9       8       9       9       8       9       9       8       9       9
       8       9       9       8       9       9       8       9       9       8
       9       9       8       9       9       8       9       9       8       9
       9       8       9       9       8       9       9       8       9       9
       8       9       9       8       9       9       8       9       9       8
       9       9       8       9       9       8       9       9       8       9
       9       8       9       9       8       9       9       8       9       9
       8       9       9       8       9       9       8       9       9       8
       9       9       8       9       9       8       9       9       8       9
       9       8       9       9       8       9       9       8       9       9
       8       9       9       8       9       9       8       9       9       8
       9       9       8       9       9       8       9       9       8       9
       9       8       9       9       8       9       9       8       9       9
       8       9       9       8       9       9       8       9       9       8
       9       9       8       9       9       8       9       9       8       9
       9       8       9       9       8       9       9       8       9       9
       8       9       9       8       9       9       8       9       9       8
       9       9       8       9       9       8       9       9       8       9
       9       8       9       9       8       9       9       8       9       9
       8       9       9       8       9       9       8       9       9       8
       9       9       8       9       9       8       9       9       8       9
       9       8       9       9       8       9       9       8       9       9
       8       9       9       8       9       9       8       9       9       8
       9       9       8       9       9       8       9       9       8       9
       9       8       9       9       8       9       9       8       9       9
       8       9       9       8       9       9       8       9       9       8
       9       9       8       9       9       8       9       9       8       9
       9       8       9       9       8       9       9       8       9       9
       8       9       9       8       9       9       8       9       9       8
       9       9       8       9       9       8       9       9       8       9
       9       8       9       9       8       9       9       8       9       9
       8       9       9       8       9       9       8       9       9       8
       9       9       8       9       9       8       9       9       8       9
       9       8       9       9       8       9       9       8       9       9
       8       9       9       8       9       9       8       9       9       8
       9       9       8       9       9       8       9       9       8       9
       9       8       9       9       8       9       9       8       9       9
       8       9       9       8       9       9       8       9       9       8
       9       9       8       9       9       8       9       9       8       9
       9       8       9       9       8       9       9       8       9       9
       8       9       9       8       9       9       8       9       9       8
       9       9       8       9       9       8       9       9       8       9
       9       8       9       9       8       9       9       8       9       9
       8       9       9       8       9       9       8       9       9       8
       9       9       8       9       9       8       9       9       8       9
       9       8       9       9       8       9       9       8       9       9
       8       9       9       8       9       9       8       9       9       8
       9       9       8       9       9       8       9       9       8       9
       9       8       9       9       8       9       9       8       9       9
       8       9       9       8       9       9       8       9       9       8
       9       9       8       9       9       8       9       9       8       9
       9       8       9       9       8       9       9       8       9       9
       8       9       9       8       9       9       8       9       9       8
       9       9       8       9       9       8       9       9       8       9
       9       8       9       9       8       9       9       8       9       9
       8       9       9       8       9       9       8       9       9       8
       9       9       8       9       9       8       9       9       8       9
       9       8       9       9       8       9       9       8       9       9
       8       9       9       8       9       9       8       9       9       8
       9       9       8       9       9       8       9       9       8       9
       9       8       9       9       8       9       9       8       9       9
       8       9       9       8       9       9       8       9       9       8
       9       9       8       9       9       8       9       9       8       9
       9       8       9       9       8       9       9       8       9       9
       8       9       9       8       9       9       8       9       9       8
       9       9       8       9       9       8       9       9       8       9
       9       8       9       9       8       9       9       8       9       9
       8       9       9       8       9       9       8       9       9       8
       9       9       8       9       9       8       9       9       8       9
       9       8       9       9       8       9       9       8       9       9
       8       9       9       8       9       9       8       9       9       8
       9       9       8       9       9       8       9       9       8       9
       9       8       9       9       8       9       9       8       9       9
       8       9       9       8       9       9       8       9       9       8
       9       9       8       9       9       8       9       9       8       9
       9       8       9       9       8       9       9       8       9       9
       8       9       9       8       9       9       8       9       9       8
       9       9       8       9       9       8       9       9       8       9
       9       8       9       9       8       9       9       8       9       9
       8       9       9       8       9       9       8       9       9       8
       9       9       8       9       9       8       9       9       8       9
       9       8       9       9       8       9       9       8       9       9
       8       9       9       8       9       9       8       9       9       8
       9       9       8       9       9       8       9       9       8       9
       9       8       9       9       8       9       9       8       9       9
       8       9       9       8       9       9       8       9       9       8
       9       9       8       9       9       8       9       9       8       9
       9       8       9       9       8       9       9       8       9       9
       8       9       9       8       9       9       8       9       9       8
       9       9       8       9       9       8       9       9       8       9
       9       8       9       9       8       9       9       8       9       9
       8       9       9       8       9       9       8       9       9       8
       9       9       8       9       9       8       9       9       8       9
       9       8       9       9       8       9       9       8       9       9
       8       9       9       8       9       9       8       9       9       8
       9       9       8       9       9       8       9       9       8       9
       9       8       9       9       8       9       9       8       9       9
       8       9       9       8       9       9       8       9       9       8
       9       9       8       9       9       8       9       9       8       9
       9       8       9       9       8       9       9       8       9       9
       8       9       9       8       9       9       8       9       9       8
       9       9       8       9       9       8       9       9       8       9
       9       8       9       9       8       9       9       8       9       9
       8       9       9       8       9       9       8       9       9       8
       9       9       8       9       9       8       9       9       8       9
       9       8       9       9       8       9       9       8       9       9
       8       9       9       8       9       9       8       9       9       8
       9       9       8       9       9       8       9       9       8       9
       9       8       9       9       8       9       9       8       9       9
       8       9       9       8       9       9       8       9       9       8
       9       9       8       9       9       8       9       9       8       9
       9       8       9       9       8       9       9       8       9       9
       8       9       9       8       9       9       8       9       9       8
       9       9       8       9       9       8       9       9       8       9
       9       8       9       9       8       9       9       8       9       9
       8       9       9       8       9       9       8       9       9       8
       9       9       8       9       9       8       9       9       8       9
       9       8       9       9       8       9       9       8       9       9
       8       9       9       8       9       9       8       9       9       8
       9       9       8       9       9       8       9       9       8       9
       9       8       9       9       8       9       9       8       9       9
       8       9       9       8       9       9       8       9       9       8
       9       9       8       9       9       8       9       9       8       9
       9       8       9       9       8       9       9       8       9       9
       8       9       9       8       9       9       8       9       9       8
       9       9       8       9       9       8       9       9       8       9
       9       8       9       9       8       9       9       8       9       9
       8       9       9       8       9       9       8       9       9       8
       9       9       8       9       9       8       9       9       8       9
       9       8       9       9       8       9       9       8       9       9
       8       9       9       8       9       9       8       9       9       8
       9       9       8       9       9       8       9       9       8       9
       9       8       9       9       8       9       9       8       9       9
       8       9       9       8       9       9       8       9       9       8
       9       9       8       9       9       8       9       9       8       9
       9       8       9       9       8       9       9       8       9       9
       8       9       9       8       9       9       8       9       9       8
       9       9       8       9       9       8       9       9       8       9
       9       8       9       9       8       9       9       8       9       9
       8       9       9       8       9       9       8       9       9       8
       9       9       8       9       9       8       9       9       8       9
       9       8       9       9       8       9       9       8       9       9
       8       9       9       8       9       9       8       9       9       8
       9       9       8       9       9       8       9       9       8       9
       9       8       9       9       8       9       9       8       9       9
       8       9       9       8       9       9       8       9       9       8
       9       9       8       9       9       8       9       9       8       9
       9       8       9       9       8       9       9       8       9       9
       8       9       9       8       9       9       8       9       9       8
       9       9       8       9       9       8       9       9       8       9
       9       8       9       9       8       9       9       8       9       9
       8       9       9       8       9       9       8       9       9       8
       9       9       8       9       9       8       9       9       8       9
       9       8       9       9       8       9       9       8       9       9
       8       9       9       8       9       9       8       9       9       8
       9       9       8       9       9       8       9       9       8       9
       9       8       9       9       8       9       9       8       9       9
       8       9       9       8       9       9       8       9       9       8
       9       9       8       9       9       8       9       9       8       9
       9       8       9       9       8       9       9       8       9       9
       8       9       9       8       9       9       8       9       9       8
       9       9       8       9       9       8       9       9       8       9
       9       8       9       9       8       9       9       8       9       9
       8       9       9       8       9       9       8       9       9       8
       9       9       8       9       9       8       9       9       8       9
       9       8       9       9       8       9       9       8       9       9
       8       9       9       8       9       9       8       9       9       8
       9       9       8       9       9       8       9       9       8       9
       9       8       9       9       8       9       9       8       9       9
       8       9       9       8       9       9       8       9       9       8
       9       9       8       9       9       8       9       9       8       9
       9       8       9       9       8       9       9       8       9       9
       8       9       9       8       9       9       8       9       9       8
       9       9       8       9       9       8       9       9       8       9
       9       8       9       9       8       9       9       8       9       9
       8       9       9       8       9       9       8       9       9       8
       9       9       8       9       9       8       9       9       8       9
       9       8       9       9       8       9       9       8       9       9
       8       9       9       8       9       9       8       9       9       8
       9       9       8       9       9       8       9       9       8       9
       9       8       9       9       8       9       9       8       9       9
       8       9       9       8       9       9       8       9       9       8
       9       9       8       9       9       8       9       9       8       9
       9       8       9       9       8       9       9       8       9       9
       8       9       9       8       9       9       8       9       9       8
       9       9       8       9       9       8       9       9       8       9
       9       8       9       9       8       9       9       8       9       9
       8       9       9       8       9       9       8       9       9       8
       9       9       8       9       9       8       9       9       8       9
       9       8       9       9       8       9       9       8       9       9
       8       9       9       8       9       9       8       9       9       8
       9       9       8       9       9       8       9       9       8       9
       9       8       9       9       8       9       9       8       9       9
       8       9       9       8       9       9       8       9       9       8
       9       9       8       9       9       8       9       9       8       9
       9       8       9       9       8       9       9       8       9       9
       8       9       9       8       9       9       8       9       9       8
       9       9       8       9       9       8       9       9       8       9
       9       8       9       9       8       9       9       8       9       9
       8       9       9       8       9       9       8       9       9       8
       9       9       8       9       9       8       9       9       8       9
       9       8       9       9       8       9       9       8       9       9
       8       9       9       8       9       9       8       9       9       8
       9       9       8       9       9       8       9       9       8       9
       9       8       9       9       8       9       9       8       9       9
       8       9       9       8       9       9       8       9       9       8
       9       9       8       9       9       8       9       9       8       9
       9       8       9       9       8       9       9       8       9       9
       8       9       9       8       9       9       8       9       9       8
       9       9       8       9       9       8       9       9       8       9
       9       8       9       9       8       9       9       8       9       9
       8       9       9       8       9       9       8       9       9       8
       9       9       8       9       9       8       9       9       8       9
       9       8       9       9       8       9       9       8       9       9
       8       9       9       8       9       9       8       9       9       8
       9       9       8       9       9       8       9       9       8       9
       9       8       9       9       8       9       9       8       9       9
       8       9       9       8       9       9       8       9       9       8
       9       9       8       9       9       8       9       9       8       9
       9       8       9       9       8       9       9       8       9       9
       8       9       9       8       9       9       8       9       9       8
       9       9       8       9       9       8       9       9       8       9
       9       8       9       9       8       9       9       8       9       9
       8       9       9       8       9       9       8       9       9       8
       9       9       8       9       9       8       9       9       8       9
       9       8       9       9       8       9       9       8       9       9
       8       9       9       8       9       9       8       9       9       8
       9       9       8       9       9       8       9       9       8       9
       9       8       9       9       8       9       9       8       9       9
       8       9       9       8       9       9       8       9       9       8
       9       9       8       9       9       8       9       9       8       9
       9       8       9       9       8       9       9       8       9       9
       8       9       9       8       9       9       8       9       9       8
       9       9       8       9       9       8       9       9       8       9
       9       8       9       9       8       9       9       8       9       9
       8       9       9       8       9       9       8       9       9       8
       9       9       8       9       9       8       9       9       8       9
       9       8       9       9       8       9       9       8       9       9
       8       9       9       8       9       9       8       9       9       8
       9       9       8       9       9       8       9       9       8       9
       9       8       9       9       8       9       9       8       9       9
       8       9       9       8       9       9       8       9       9       8
       9       9       8       9       9       8       9       9       8       9
       9       8       9       9       8       9       9       8       9       9
       8       9       9       8       9       9       8       9       9       8
       9       9       8       9       9       8       9       9       8       9
       9       8       9       9       8       9       9       8       9       9
       8       9       9       8       9       9       8       9       9       8
       9       9       8       9       9       8       9       9       8       9
       9       8       9       9       8       9       9       8       9       9
       8       9       9       8       9       9       8       9       9       8
       9       9       8       9       9       8       9       9       8       9
       9       8       9       9       8       9       9       8       9       9
       8       9       9       8       9       9       8       9       9       8
       9       9       8       9       9       8       9       9       8       9
       9       8       9       9       8       9       9       8       9       9
       8       9       9       8       9       9       8       9       9       8
       9       9       8       9       9       8       9       9       8       9
       9       8       9       9       8       9       9       8       9       9
       8       9       9       8       9       9       8       9       9       8
       9       9       8       9       9       8       9       9       8       9
       9       8       9       9       8       9       9       8       9       9
       8       9       9       8       9       9       8       9       9       8
       9       9       8       9       9       8       9       9       8       9
       9       8       9       9       8       9       9       8       9       9
       8       9       9       8       9       9       8       9       9       8
       9       9       8       9       9       8       9       9       8       9
       9       8       9       9       8       9       9       8       9       9
       8       9       9       8       9       9       8       9       9       8
       9       9       8       9       9       8       9       9       8       9
       9       8       9       9       8       9       9       8       9       9
       8       9       9       8       9       9       8       9       9       8
       9       9       8       9       9       8       9       9       8       9
       9       8       9       9       8       9       9       8       9       9
       8       9       9       8       9       9       8       9       9       8
       9       9       8       9       9       8       9       9       8       9
       9       8       9       9       8       9       9       8       9       9
       8       9       9       8       9       9       8       9       9       8
       9       9       8       9       9       8       9       9       8       9
       9       8       9       9       8       9       9       8       9       9
       8       9       9       8       9       9       8       9       9       8
       9       9       8       9       9       8       9       9       8       9
       9       8       9       9       8       9       9       8       9       9
       8       9       9       8       9       9       8       9       9       8
       9       9       8       9       9       8       9       9       8       9
       9       8       9       9       8       9       9       8       9       9
       8       9       9       8       9       9       8       9       9       8
       9       9       8       9       9       8       9       9       8       9
       9       8       9       9       8       9       9       8       9       9
       8       9       9       8       9       9       8       9       9       8
       9       9       8       9       9       8       9       9       8       9
       9       8       9       9       8       9       9       8       9       9
       8       9       9       8       9       9       8       9       9       8
       9       9       8       9       9       8       9       9       8       9
       9       8       9       9       8       9       9       8       9       9
       8       9       9       8       9       9       8       9       9       8
       9       9       8       9       9       8       9       9       8       9
       9       8       9       9       8       9       9       8       9       9
       8       9       9       8       9       9       8       9       9       8
       9       9       8       9       9       8       9       9       8       9
       9       8       9       9       8       9       9       8       9       9
       8       9       9       8       9       9       8       9       9       8
       9       9       8       9       9       8       9       9       8       9
       9       8       9       9       8       9       9       8       9       9
       8       9       9       8       9       9       8       9       9       8
       9       9       8       9       9       8       9       9       8       9
       9       8       9       9       8       9       9       8       9       9
       8       9       9       8       9       9       8       9       9       8
       9       9       8       9       9       8       9       9       8       9
       9       8       9       9       8       9       9       8       9       9
       8       9       9       8       9       9       8       9       9       8
       9       9       8       9       9       8       9       9       8       9
       9       8       9       9       8       9       9       8       9       9
       8       9       9       8       9       9       8       9       9       8
       9       9       8       9       9       8       9       9       8       9
       9       8       9       9       8       9       9       8       9       9
       8       9       9       8       9       9       8       9       9       8
       9       9       8       9       9       8       9       9       8       9
       9       8       9       9       8       9       9       8       9       9
       8       9       9       8       9       9       8       9       9       8
       9       9       8       9       9       8       9       9       8       9
       9       8       9       9       8       9       9       8       9       9
       8       9       9       8       9       9       8       9       9       8
       9       9       8       9       9       8       9       9       8       9
       9       8       9       9       8       9       9       8       9       9
       8       9       9       8       9       9       8       9       9       8
       9       9       8       9       9       8       9       9       8       9
       9       8       9       9       8       9       9       8       9       9
       8       9       9       8       9       9       8       9       9       8
       9       9       8       9       9       8       9       9       8       9
       9       8       9       9       8       9       9       8       9       9
       8       9       9       8       9       9       8       9       9       8
       9       9       8       9       9       8       9       9       8       9
       9       8       9       9       8       9       9       8       9       9
       8       9       9       8       9       9       8       9       9       8
       9       9       8       9       9       8       9       9       8       9
       9       8       9       9       8       9       9       8       9       9
       8       9       9       8       9       9       8       9       9       8
       9       9       8       9       9       8       9       9       8       9
       9       8       9       9       8       9       9       8       9       9
       8       9       9       8       9       9       8       9       9       8
       9       9       8       9       9       8       9       9       8       9
       9       8       9       9       8       9       9       8       9       9
       8       9       9       8       9       9       8       9       9       8
       9       9       8       9       9       8       9       9       8       9
       9       8       9       9       8       9       9       8       9       9
       8       9       9       8       9       9       8       9       9       8
       9       9       8       9       9       8       9       9       8       9
       9       8       9       9       8       9       9       8       9       9
       8       9       9       8       9       9       8       9       9       8
       9       9       8       9       9       8       9       9       8       9
       9       8       9       9       8       9       9       8       9       9
       8       9       9       8       9       9       8       9       9       8
       9       9       8       9       9       8       9       9       8       9
       9       8       9       9       8       9       9       8       9       9
       8       9       9       8       9       9       8       9       9       8
       9       9       8       9       9       8       9       9       8       9
       9       8       9       9       8       9       9       8       9       9
       8       9       9       8       9       9       8       9       9       8
       9       9       8       9       9       8       9       9       8       9
       9       8       9       9       8       9       9       8       9       9
       8       9       9       8       9       9       8       9       9       8
       9       9       8       9       9       8       9       9       8       9
       9       8       9       9       8       9       9       8       9       9
       8       9       9       8       9       9       8       9       9       8
       9       9       8       9       9       8       9       9       8       9
       9       8       9       9       8       9       9       8       9       9
       8       9       9       8       9       9       8       9       9       8
       9       9       8       9       9       8       9       9       8       9
       9       8       9       9       8       9       9       8       9       9
       8       9       9       8       9       9       8       9       9       8
       9       9       8       9       9       8       9       9       8       9
       9       8       9       9       8       9       9       8       9       9
       8       9       9       8       9       9       8       9       9       8
       9       9       8       9       9       8       9       9       8       9
       9       8       9       9       8       9       9       8       9       9
       8       9       9       8       9       9       8       9       9       8
       9       9       8       9       9       8       9       9       8       9
       9       8       9       9       8       9       9       8       9       9
       8       9       9       8       9       9       8       9       9       8
       9       9       8       9       9       8       9       9       8       9
       9       8       9       9       8       9       9       8       9       9
       8       9       9       8       9       9       8       9       9       8
       9       9       8       9       9       8       9       9       8       9
       9       8       9       9       8       9       9       8       9       9
       8       9       9       8       9       9       8       9       9       8
       9       9       8       9       9       8       9       9       8       9
       9       8       9       9       8       9       9       8       9       9
       8       9       9       8       9       9       8       9       9       8
       9       9       8       9       9       8       9       9       8       9
       9       8       9       9       8       9       9       8       9       9
       8       9       9       8       9       9       8       9       9       8
       9       9       8       9       9       8       9       9       8       9
       9       8       9       9       8       9       9       8       9       9
       8       9       9       8       9       9       8       9       9       8
       9       9       8       9       9       8       9       9       8       9
       9       8       9       9       8       9       9       8       9       9
       8       9       9       8       9       9       8       9       9       8
       9       9       8       9       9       8       9       9       8       9
       9       8       9       9       8       9       9       8       9       9
       8       9       9       8       9       9       8       9       9       8
       9       9       8       9       9       8       9       9       8       9
       9       8       9       9       8       9       9       8       9       9
       8       9       9       8       9       9       8       9       9       8
       9       9       8       9       9       8       9       9       8       9
       9       8       9       9       8       9       9       8       9       9
       8       9       9       8       9       9       8       9       9       8
       9       9       8       9       9       8       9       9       8       9
       9       8       9       9       8       9       9       8       9       9
       8       9       9       8       9       9       8       9       9       8
       9       9       8       9       9       8       9       9       8       9
       9       8       9       9       8       9       9       8       9       9
       8       9       9       8       9       9       8       9       9       8
       9       9       8       9       9       8       9       9       8       9
       9       8       9       9       8       9       9       8       9       9
       8       9       9       8       9       9       8       9       9       8
       9       9       8       9       9       8       9       9       8       9
       9       8       9       9       8       9       9       8       9       9
       8       9       9       8       9       9       8       9       9       8
       9       9       8       9       9       8       9       9       8       9
       9       8       9       9       8       9       9       8       9       9
       8       9       9       8       9       9       8       9       9       8
       9       9       8       9       9       8       9       9       8       9
       9       8       9       9       8       9       9       8       9       9
       8       9       9       8       9       9       8       9       9       8
       9       9       8       9       9       8       9       9       8       9
       9       8       9       9       8       9       9       8       9       9
       8       9       9       8       9       9       8       9       9       8
       9       9       8       9       9       8       9       9       8       9
       9       8       9       9       8       9       9       8       9       9
       8       9       9       8       9       9       8       9       9       8
       9       9       8       9       9       8       9       9       8       9
       9       8       9       9       8       9       9       8       9       9
       8       9       9       8       9       9       8       9       9       8
       9       9       8       9       9       8       9       9       8       9
       9       8       9       9       8       9       9       8       9       9
       8       9       9       8       9       9       8       9       9       8
       9       9       8       9       9       8       9       9       8       9
       9       8       9       9       8       9       9       8       9       9
       8       9       9       8       9       9       8       9       9       8
       9       9       8       9       9       8       9       9       8       9
       9       8       9       9       8       9       9       8       9       9
       8       9       9       8       9       9       8       9       9       8
       9       9       8       9       9       8       9       9       8       9
       9       8       9       9       8       9       9       8       9       9
       8       9       9       8       9       9       8       9       9       8
       9       9       8       9       9       8       9       9       8       9
       9       8       9       9       8       9       9       8       9       9
       8       9       9       8       9       9       8       9       9       8
       9       9       8       9       9       8       9       9       8       9
       9       8       9       9       8       9       9       8       9       9
       8       9       9       8       9       9       8       9       9       8
       9       9       8       9       9       8       9       9       8       9
       9       8       9       9       8       9       9       8       9       9
       8       9       9       8       9       9       8       9       9       8
       9       9       8       9       9       8       9       9       8       9
       9       8       9       9       8       9       9       8       9       9
       8       9       9       8       9       9       8       9       9       8
       9       9       8       9       9       8       9       9       8       9
       9       8       9       9       8       9       9       8       9       9
       8       9       9       8       9       9       8       9       9       8
       9       9       8       9       9       8       9       9       8       9
       9       8       9       9       8       9       9       8       9       9
       8       9       9       8       9       9       8       9       9       8
       9       9       8       9       9       8       9       9       8       9
       9       8       9       9       8       9       9       8       9       9
       8       9       9       8       9       9       8       9       9       8
       9       9       8       9       9       8       9       9       8       9
       9       8       9       9       8       9       9       8       9       9
       8       9       9       8       9       9       8       9       9       8
       9       9       8       9       9       8       9       9       8       9
       9       8       9       9       8       9       9       8       9       9
       8       9       9       8       9       9       8       9       9       8
       9       9       8       9       9       8       9       9       8       9
       9       8       9       9       8       9       9       8       9       9
       8       9       9       8       9       9       8       9       9       8
       9       9       8       9       9       8       9       9       8       9
       9       8       9       9       8       9       9       8       9       9
       8       9       9       8       9       9       8       9       9       8
       9       9       8       9       9       8       9       9       8       9
       9       8       9       9       8       9       9       8       9       9
       8       9       9       8       9       9       8       9       9       8
       9       9       8       9       9       8       9       9       8       9
       9       8       9       9       8       9       9       8       9       9
       8       9       9       8       9       9       8       9       9       8
       9       9       8       9       9       8       9       9       8       9
       9       8       9       9       8       9       9       8       9       9
       8       9       9       8       9       9       8       9       9       8
       9       9       8       9       9       8       9       9       8       9
       9       8       9       9       8       9       9       8       9       9
       8       9       9       8       9       9       8       9       9       8
       9       9       8       9       9       8       9       9       8       9
       9       8       9       9       8       9       9       8       9       9
       8       9       9       8       9       9       8       9       9       8
       9       9       8       9       9       8       9       9       8       9
       9       8       9       9       8       9       9       8       9       9
       8       9       9       8       9       9       8       9       9       8
       9       9       8       9       9       8       9       9       8       9
       9       8       9       9       8       9       9       8       9       9
       8       9       9       8       9       9       8       9       9       8
       9       9       8       9       9       8       9       9       8       9
       9       8       9       9       8       9       9       8       9       9
       8       9       9       8       9       9       8       9       9       8
       9       9       8       9       9       8       9       9       8       9
       9       8       9       9       8       9       9       8       9       9
       8       9       9       8       9       9       8       9       9       8
       9       9       8       9       9       8       9       9       8       9
       9       8       9       9       8       9       9       8       9       9
       8       9       9       8       9       9       8       9       9       8
       9       9       8       9       9       8       9       9       8       9
       9       8       9       9       8       9       9       8       9       9
       8       9       9       8       9       9       8       9       9       8
       9       9       8       9       9       8       9       9       8       9
       9       8       9       9       8       9       9       8       9       9
       8       9       9       8       9       9       8       9       9       8
       9       9       8       9       9       8       9       9       8       9
       9       8       9       9       8       9       9       8       9       9
       8       9       9       8       9       9       8       9       9       8
       9       9       8       9       9       8       9       9       8       9
       9       8       9       9       8       9       9       8       9       9
       8       9       9       8       9       9       8       9       9       8
       9       9       8       9       9       8       9       9       8       9
       9       8       9       9       8       9       9       8       9       9
       8       9       9       8       9       9       8       9       9       8
       9       9       8       9       9       8       9       9       8       9
       9       8       9       9       8       9       9       8       9       9
       8       9       9       8       9       9       8       9       9       8
       9       9       8       9       9       8       9       9       8       9
       9       8       9       9       8       9       9       8       9       9
       8       9       9       8       9       9       8       9       9       8
       9       9       8       9       9       8       9       9       8       9
       9       8       9       9       8       9       9       8       9       9
       8       9       9       8       9       9       8       9       9       8
       9       9       8       9       9       8       9       9       8       9
       9       8       9       9       8       9       9       8       9       9
       8       9       9       8       9       9       8       9       9       8
       9       9       8       9       9       8       9       9       8       9
       9       8       9       9       8       9       9       8       9       9
       8       9       9       8       9       9       8       9       9       8
       9       9       8       9       9       8       9       9       8       9
       9       8       9       9       8       9       9       8       9       9
       8       9       9       8       9       9       8       9       9       8
       9       9       8       9       9       8       9       9       8       9
       9       8       9       9       8       9       9       8       9       9
       8       9       9       8       9       9       8       9       9       8
       9       9       8       9       9       8       9       9       8       9
       9       8       9       9       8       9       9       8       9       9
       8       9       9       8       9       9       8       9       9       8
       9       9       8       9       9       8       9       9       8       9
       9       8       9       9       8       9       9       8       9       9
       8       9       9       8       9       9       8       9       9       8
       9       9       8       9       9       8       9       9       8       9
       9       8       9       9       8       9       9       8       9       9
       8       9       9       8       9       9       8       9       9       8
       9       9       8       9       9       8       9       9       8       9
       9       8       9       9       8       9       9       8       9       9
       8       9       9       8       9       9       8       9       9       8
       9       9       8       9       9       8       9       9       8       9
       9       8       9       9       8       9       9       8       9       9
       8       9       9       8       9       9       8       9       9       8
       9       9       8       9       9       8       9       9       8       9
       9       8       9       9       8       9       9       8       9       9
       8       9       9       8       9       9       8       9       9       8
       9       9       8       9       9       8       9       9       8       9
       9       8       9       9       8       9       9       8       9       9
       8       9       9       8       9       9       8       9       9       8
       9       9       8       9       9       8       9       9       8       9
       9       8       9       9       8       9       9       8       9       9
       8       9       9       8       9       9       8       9       9       8
       9       9       8       9       9       8       9       9       8       9
       9       8       9       9       8       9       9       8       9       9
       8       9       9       8       9       9       8       9       9       8
       9       9       8       9       9       8       9       9       8       9
       9       8       9       9       8       9       9       8       9       9
       8       9       9       8       9       9       8       9       9       8
       9       9       8       9       9       8       9       9       8       9
       9       8       9       9       8       9       9       8       9       9
       8       9       9       8       9       9       8       9       9       8
       9       9       8       9       9       8       9       9       8       9
       9       8       9       9       8       9       9       8       9       9
       8       9       9       8       9       9       8       9       9       8
       9       9       8       9       9       8       9       9       8       9
       9       8       9       9       8       9       9       8       9       9
       8       9       9       8       9       9       8       9       9       8
       9       9       8       9       9       8       9       9       8       9
       9       8       9       9       8       9       9       8       9       9
       8       9       9       8       9       9       8       9       9       8
       9       9       8       9       9       8       9       9       8       9
       9       8       9       9       8       9       9       8       9       9
       8       9       9       8       9       9       8       9       9       8
       9       9       8       9       9       8       9       9       8       9
       9       8       9       9       8       9       9       8       9       9
       8       9       9       8       9       9       8       9       9       8
       9       9       8       9       9       8       9       9       8       9
       9       8       9       9       8       9       9       8       9       9
       8       9       9       8       9       9       8       9       9       8
       9       9       8       9       9       8       9       9       8       9
       9       8       9       9       8       9       9       8       9       9
       8       9       9       8       9       9       8       9       9       8
       9       9       8       9       9       8       9       9       8       9
       9       8       9       9       8       9       9       8       9       9
       8       9       9       8       9       9       8       9       9       8
       9       9       8       9       9       8       9       9       8       9
       9       8       9       9       8       9       9       8       9       9
       8       9       9       8       9       9       8       9       9       8
       9       9       8       9       9       8       9       9       8       9
       9       8       9       9       8       9       9       8       9       9
       8       9       9       8       9       9       8       9       9       8
       9       9       8       9       9       8       9       9       8       9
       9       8       9       9       8       9       9       8       9       9
       8       9       9       8       9       9       8       9       9       8
       9       9       8       9       9       8       9       9       8       9
       9       8       9       9       8       9       9       8       9       9
       8       9       9       8       9       9       8       9       9       8
       9       9       8       9       9       8       9       9       8       9
       9       8       9       9       8       9       9       8       9       9
       8       9       9       8       9       9       8       9       9       8
       9       9       8       9       9       8       9       9       8       9
       9       8       9       9       8       9       9       8       9       9
       8       9       9       8       9       9       8       9       9       8
       9       9       8       9       9       8       9       9       8       9
       9       8       9       9       8       9       9       8       9       9
       8       9       9       8       9       9       8       9       9       8
       9       9       8       9       9       8       9       9       8       9
       9       8       9       9       8       9       9       8       9       9
       8       9       9       8       9       9       8       9       9       8
       9       9       8       9       9       8       9       9       8       9
       9       8       9       9       8       9       9       8       9       9
       8       9       9       8       9       9       8       9       9       8
       9       9       8       9       9       8       9       9       8       9
       9       8       9       9       8       9       9       8       9       9
       8       9       9       8       9       9       8       9       9       8
       9       9       8       9       9       8       9       9       8       9
       9       8       9       9       8       9       9       8       9       9
       8       9       9       8       9       9       8       9       9       8
       9       9       8       9       9       8       9       9       8       9
       9       8       9       9       8       9       9       8       9       9
       8       9       9       8       9       9       8       9       9       8
       9       9       8       9       9       8       9       9       8       9
       9       8       9       9       8       9       9       8       9       9
       8       9       9       8       9       9       8       9       9       8
       9       9       8       9       9       8       9       9       8       9
       9       8       9       9       8       9       9       8       9       9
       8       9       9       8       9       9       8       9       9       8
       9       9       8       9       9       8       9       9       8       9
       9       8       9       9       8       9       9       8       9       9
       8       9       9       8       9       9       8       9       9       8
       9       9       8       9       9       8       9       9       8       9
       9       8       9       9       8       9       9       8       9       9
       8       9       9       8       9       9       8       9       9       8
       9       9       8       9       9       8       9       9       8       9
       9       8       9       9       8       9       9       8       9       9
       8       9       9       8       9       9       8       9       9       8
       9       9       8       9       9       8       9       9       8       9
       9       8       9       9       8       9       9       8       9       9
       8       9       9       8       9       9       8       9       9       8
       9       9       8       9       9       8       9       9       8       9
       9       8       9       9       8       9       9       8       9       9
       8       9       9       8       9       9       8       9       9       8
       9       9       8       9       9       8       9       9       8       9
       9       8       9       9       8       9       9       8       9       9
       8       9       9       8       9       9       8       9       9       8
       9       9       8       9       9       8       9       9       8       9
       9       8       9       9       8       9       9       8       9       9
       8       9       9       8       9       9       8       9       9       8
       9       9       8       9       9       8       9       9       8       9
       9       8       9       9       8       9       9       8       9       9
       8       9       9       8       9       9       8       9       9       8
       9       9       8       9       9       8       9       9       8       9
       9       8       9       9       8       9       9       8       9       9
       8       9       9       8       9       9       8       9       9       8
       9       9       8       9       9       8       9       9       8       9
       9       8       9       9       8       9       9       8       9       9
       8       9       9       8       9       9       8       9       9       8
       9       9       8       9       9       8       9       9       8       9
       9       8       9       9       8       9       9       8       9       9
       8       9       9       8       9       9       8       9       9       8
       9       9       8       9       9       8       9       9       8       9
       9       8       9       9       8       9       9       8       9       9
       8       9       9       8       9       9       8       9       9       8
       9       9       8       9       9       8       9       9       8       9
       9       8       9       9       8       9       9       8       9       9
       8       9       9       8       9       9       8       9       9       8
       9       9       8       9       9       8       9       9       8       9
       9       8       9       9       8       9       9       8       9       9
       8       9       9       8       9       9       8       9       9       8
       9       9       8       9       9       8       9       9       8       9
       9       8       9       9       8       9       9       8       9       9
       8       9       9       8       9       9       8       9       9       8
       9       9       8       9       9       8       9       9       8       9
       9       8       9       9       8       9       9       8       9       9
       8       9       9       8       9       9       8       9       9       8
       9       9       8       9       9       8       9       9       8       9
       9       8       9       9       8       9       9       8       9       9
       8       9       9       8       9       9       8       9       9       8
       9       9       8       9       9       8       9       9       8       9
       9       8       9       9       8       9       9       8       9       9
       8       9       9       8       9       9       8       9       9       8
       9       9       8       9       9       8       9       9       8       9
       9       8       9       9       8       9       9       8       9       9
       8       9       9       8       9       9       8       9       9       8
       9       9       8       9       9       8       9       9       8       9
       9       8       9       9       8       9       9       8       9       9
       8       9       9       8       9       9       8       9       9       8
       9       9       8       9       9       8       9       9       8       9
       9       8       9       9       8       9       9       8       9       9
       8       9       9       8       9       9       8       9       9       8
       9       9       8       9       9       8       9       9       8       9
       9       8       9       9       8       9       9       8       9       9
       8       9       9       8       9       9       8       9       9       8
       9       9       8       9       9       8       9       9       8       9
       9       8       9       9       8       9       9       8       9       9
       8       9       9       8       9       9       8       9       9       8
       9       9       8       9       9       8       9       9       8       9
       9       8       9       9       8       9       9       8       9       9
       8       9       9       8       9       9       8       9       9       8
       9       9       8       9       9       8       9       9       8       9
       9       8       9       9       8       9       9       8       9       9
       8       9       9       8       9       9       8       9       9       8
       9       9       8       9       9       8       9       9       8       9
       9       8       9       9       8       9       9       8       9       9
       8       9       9       8       9       9       8       9       9       8
       9       9       8       9       9       8       9       9       8       9
       9       8       9       9       8       9       9       8       9       9
       8       9       9       8       9       9       8       9       9       8
       9       9       8       9       9       8       9       9       8       9
       9       8       9       9       8       9       9       8       9       9
       8       9       9       8       9       9       8       9       9       8
       9       9       8       9       9       8       9       9       8       9
       9       8       9       9       8       9       9       8       9       9
       8       9       9       8       9       9       8       9       9       8
       9       9       8       9       9       8       9       9       8       9
       9       8       9       9       8       9       9       8       9       9
       8       9       9       8       9       9       8       9       9       8
       9       9       8       9       9       8       9       9       8       9
       9       8       9       9       8       9       9       8       9       9
       8       9       9       8       9       9       8       9       9       8
       9       9       8       9       9       8       9       9       8       9
       9       8       9       9       8       9       9       8       9       9
       8       9       9       8       9       9       8       9       9       8
       9       9       8       9       9       8       9       9       8       9
       9       8       9       9       8       9       9       8       9       9
       8       9       9       8       9       9       8       9       9       8
       9       9       8       9       9       8       9       9       8       9
       9       8       9       9       8       9       9       8       9       9
       8       9       9       8       9       9       8       9       9       8
       9       9       8       9       9       8       9       9       8       9
       9       8       9       9       8       9       9       8       9       9
       8       9       9       8       9       9       8       9       9       8
       9       9       8       9       9       8       9       9       8       9
       9       8       9       9       8       9       9       8       9       9
       8       9       9       8       9       9       8       9       9       8
       9       9       8       9       9       8       9       9       8       9
       9       8       9       9       8       9       9       8       9       9
       8       9       9       8       9       9       8       9       9       8
       9       9       8       9       9       8       9       9       8       9
       9       8       9       9       8       9       9       8       9       9
       8       9       9       8       9       9       8       9       9       8
       9       9       8       9       9       8       9       9       8       9
       9       8       9       9       8       9       9       8       9       9
       8       9       9       8       9       9       8       9       9       8
       9       9       8       9       9       8       9       9       8       9
       9       8       9       9       8       9       9       8       9       9
       8       9       9       8       9       9       8       9       9       8
       9       9       8       9       9       8       9       9       8       9
       9       8       9       9       8       9       9       8       9       9
       8       9       9       8       9       9       8       9       9       8
       9       9       8       9       9       8       9       9       8       9
       9       8       9       9       8       9       9       8       9       9
       8       9       9       8       9       9       8       9       9       8
       9       9       8       9       9       8       9       9       8       9
       9       8       9       9       8       9       9       8       9       9
       8       9       9       8       9       9       8       9       9       8
       9       9       8       9       9       8       9       9       8       9
       9       8       9       9       8       9       9       8       9       9
       8       9       9       8       9       9       8       9       9       8
       9       9       8       9       9       8       9       9       8       9
       9       8       9       9       8       9       9       8       9       9
       8       9       9       8       9       9       8       9       9       8
       9       9       8       9       9       8       9       9       8       9
       9       8       9       9       8       9       9       8       9       9
       8       9       9       8       9       9       8       9       9       8
       9       9       8       9       9       8       9       9       8       9
       9       8       9       9       8       9       9       8       9       9
       8       9       9       8       9       9       8       9       9       8
       9       9       8       9       9       8       9       9       8       9
       9       8       9       9       8       9       9       8       9       9
       8       9       9       8       9       9       8       9       9       8
       9       9       8       9       9       8       9       9       8       9
       9       8       9       9       8       9       9       8       9       9
       8       9       9       8       9       9       8       9       9       8
       9       9       8       9       9       8       9       9       8       9
       9       8       9       9       8       9       9       8       9       9
       8       9       9       8       9       9       8       9       9       8
       9       9       8       9       9       8       9       9       8       9
       9       8       9       9       8       9       9       8       9       9
       8       9       9       8       9       9       8       9       9       8
       9       9       8       9       9       8       9       9       8       9
       9       8       9       9       8       9       9       8       9       9
       8       9       9       8       9       9       8       9       9       8
       9       9       8       9       9       8       9       9       8       9
       9       8       9       9       8       9       9       8       9       9
       8       9       9       8       9       9       8       9       9       8
       9       9       8       9       9       8       9       9       8       9
       9       8       9       9       8       9       9       8       9       9
       8       9       9       8       9       9       8       9       9       8
       9       9       8       9       9       8       9       9       8       9
       9       8       9       9       8       9       9       8       9       9
       8       9       9       8       9       9       8       9       9       8
       9       9       8       9       9       8       9       9       8       9
       9       8       9       9       8       9       9       8       9       9
       8       9       9       8       9       9       8       9       9       8
       9       9       8       9       9       8       9       9       8       9
       9       8       9       9       8       9       9       8       9       9
       8       9       9       8       9       9       8       9       9       8
       9       9       8       9       9       8       9       9       8       9
       9       8       9       9       8       9       9       8       9       9
       8       9       9       8       9       9       8       9       9       8
       9       9       8       9       9       8       9       9       8       9
       9       8       9       9       8       9       9       8       9       9
       8       9       9       8       9       9       8       9       9       8
       9       9       8       9       9       8       9       9       8       9
       9       8       9       9       8       9       9       8       9       9
       8       9       9       8       9       9       8       9       9       8
       9       9       8       9       9       8       9       9       8       9
       9       8       9       9       8       9       9       8       9       9
       8       9       9       8       9       9       8       9       9       8
       9       9       8       9       9       8       9       9       8       9
       9       8       9       9       8       9       9       8       9       9
       8       9       9       8       9       9       8       9       9       8
       9       9       8       9       9       8       9       9       8       9
       9       8       9       9       8       9       9       8       9       9
       8       9       9       8       9       9       8       9       9       8
       9       9       8       9       9       8       9       9       8       9
       9       8       9       9       8       9       9       8       9       9
       8       9       9       8       9       9       8       9       9       8
       9       9       8       9       9       8       9       9       8       9
       9       8       9       9       8       9       9       8       9       9
       8       9       9       8       9       9       8       9       9       8
       9       9       8       9       9       8       9       9       8       9
       9       8       9       9       8       9       9       8       9       9
       8       9       9       8       9       9       8       9       9       8
       9       9       8       9       9       8       9       9       8       9
       9       8       9       9       8       9       9       8       9       9
       8       9       9       8       9       9       8       9       9       8
       9       9       8       9       9       8       9       9       8       9
       9       8       9       9       8       9       9       8       9       9
       8       9       9       8       9       9       8       9       9       8
       9       9       8       9       9       8       9       9       8       9
       9       8       9       9       8       9       9       8       9       9
       8       9       9       8       9       9       8       9       9       8
       9       9       8       9       9       8       9       9       8       9
       9       8       9       9       8       9       9       8       9       9
       8       9       9       8       9       9       8       9       9       8
       9       9       8       9       9       8       9       9       8       9
       9       8       9       9       8       9       9       8       9       9
       8       9       9       8       9       9       8       9       9       8
       9       9       8       9       9       8       9       9       8       9
       9       8       9       9       8       9       9       8       9       9
       8       9       9       8       9       9       8       9       9       8
       9       9       8       9       9       8       9       9       8       9
       9       8       9       9       8       9       9       8       9       9
       8       9       9       8       9       9       8       9       9       8
       9       9       8       9       9       8       9       9       8       9
       9       8       9       9       8       9       9       8       9       9
       8       9       9       8       9       9       8       9       9       8
       9       9       8       9       9       8       9       9       8       9
       9       8       9       9       8       9       9       8       9       9
       8       9       9       8       9       9       8       9       9       8
       9       9       8       9       9       8       9       9       8       9
       9       8       9       9       8       9       9       8       9       9
       8       9       9       8       9       9       8       9       9       8
       9       9       8       9       9       8       9       9       8       9
       9       8       9       9       8       9       9       8       9       9
       8       9       9       8       9       9       8       9       9       8
       9       9       8       9       9       8       9       9       8       9
       9       8       9       9       8       9       9       8       9       9
       8       9       9       8       9       9       8       9       9       8
       9       9       8       9       9       8       9       9       8       9
       9       8       9       9       8       9       9       8       9       9
       8       9       9       8       9       9       8       9       9       8
       9       9       8       9       9       8       9       9       8       9
       9       8       9       9       8       9       9       8       9       9
       8       9       9       8       9       9       8       9       9       8
       9       9       8       9       9       8       9       9       8       9
       9       8       9       9       8       9       9       8       9       9
       8       9       9       8       9       9       8       9       9       8
       9       9       8       9       9       8       9       9       8       9
       9       8       9       9       8       9       9       8       9       9
       8       9       9       8       9       9       8       9       9       8
       9       9       8       9       9       8       9       9       8       9
       9       8       9       9       8       9       9       8       9       9
       8       9       9       8       9       9       8       9       9       8
       9       9       8       9       9       8       9       9       8       9
       9       8       9       9       8       9       9       8       9       9
       8       9       9       8       9       9       8       9       9       8
       9       9       8       9       9       8       9       9       8       9
       9       8       9       9       8       9       9       8       9       9
       8       9       9       8       9       9       8       9       9       8
       9       9       8       9       9       8       9       9       8       9
       9       8       9       9       8       9       9       8       9       9
       8       9       9       8       9       9       8       9       9       8
       9       9       8       9       9       8       9       9       8       9
       9       8       9       9       8       9       9       8       9       9
       8       9       9       8       9       9       8       9       9       8
       9       9       8       9       9       8       9       9       8       9
       9       8       9       9       8       9       9       8       9       9
       8       9       9       8       9       9       8       9       9       8
       9       9       8       9       9       8       9       9       8       9
       9       8       9       9       8       9       9       8       9       9
       8       9       9       8       9       9       8       9       9       8
       9       9       8       9       9       8       9       9       8       9
       9       8       9       9       8       9       9       8       9       9
       8       9       9       8       9       9       8       9       9       8
       9       9       8       9       9       8       9       9       8       9
       9       8       9       9       8       9       9       8       9       9
       8       9       9       8       9       9       8       9       9       8
       9       9       8       9       9       8       9       9       8       9
       9       8       9       9       8       9       9       8       9       9
       8       9       9       8       9       9       8       9       9       8
       9       9       8       9       9       8       9       9       8       9
       9       8       9       9       8       9       9       8       9       9
       8       9       9       8       9       9       8       9       9       8
       9       9       8       9       9       8       9       9       8       9
       9       8       9       9       8       9       9       8       9       9
       8       9       9       8       9       9       8       9       9       8
       9       9       8       9       9       8       9       9       8       9
       9       8       9       9       8       9       9       8       9       9
       8       9       9       8       9       9       8       9       9       8
       9       9       8       9       9       8       9       9       8       9
       9       8       9       9       8       9       9       8       9       9
       8       9       9       8       9       9       8       9       9       8
       9       9       8       9       9       8       9       9       8       9
       9       8       9       9       8       9       9       8       9       9
       8       9       9       8       9       9       8       9       9       8
       9       9       8       9       9       8       9       9       8       9
       9       8       9       9       8       9       9       8       9       9
       8       9       9       8       9       9       8       9       9       8
       9       9       8       9       9       8       9       9       8       9
       9       8       9       9       8       9       9       8       9       9
       8       9       9       8       9       9       8       9       9       8
       9       9       8       9       9       8       9       9       8       9
       9       8       9       9       8       9       9       8       9       9
       8       9       9       8       9       9       8       9       9       8
       9       9       8       9       9       8       9       9       8       9
       9       8       9       9       8       9       9       8       9       9
       8       9       9       8       9       9       8       9       9       8
       9       9       8       9       9       8       9       9       8       9
       9       8       9       9       8       9       9       8       9       9
       8       9       9       8       9       9       8       9       9       8
       9       9       8       9       9       8       9       9       8       9
       9       8       9       9       8       9       9       8       9       9
       8       9       9       8       9       9       8       9       9       8
       9       9       8       9       9       8       9       9       8       9
       9       8       9       9       8       9       9       8       9       9
       8       9       9       8       9       9       8       9       9       8
       9       9       8       9       9       8       9       9       8       9
       9       8       9       9       8       9       9       8       9       9
       8       9       9       8       9       9       8       9       9       8
       9       9       8       9       9       8       9       9       8       9
       9       8       9       9       8       9       9       8       9       9
       8       9       9       8       9       9       8       9       9       8
       9       9       8       9       9       8       9       9       8       9
       9       8       9       9       8       9       9       8       9       9
       8       9       9       8       9       9       8       9       9       8
       9       9       8       9       9       8       9       9       8       9
       9       8       9       9       8       9       9       8       9       9
       8       9       9       8       9       9       8       9       9       8
       9       9       8       9       9       8       9       9       8       9
       9       8       9       9       8       9       9       8       9       9
       8       9       9       8       9       9       8       9       9       8
       9       9       8       9       9       8       9       9       8       9
       9       8       9       9       8       9       9       8       9       9
       8       9       9       8       9       9       8       9       9       8
       9       9       8       9       9       8       9       9       8       9
       9       8       9       9       8       9       9       8       9       9
       8       9       9       8       9       9       8       9       9       8
       9       9       8       9       9       8       9       9       8       9
       9       8       9       9       8       9       9       8       9       9
       8       9       9       8       9       9       8       9       9       8
       9       9       8       9       9       8       9       9       8       9
       9       8       9       9       8       9       9       8       9       9
       8       9       9       8       9       9       8       9       9       8
       9       9       8       9       9       8       9       9       8       9
       9       8       9       9       8       9       9       8       9       9
       8       9       9       8       9       9       8       9       9       8
       9       9       8       9       9       8       9       9       8       9
       9       8       9       9       8       9       9       8       9       9
       8       9       9       8       9       9       8       9       9       8
       9       9       8       9       9       8       9       9       8       9
       9       8       9       9       8       9       9       8       9       9
       8       9       9       8       9       9       8       9       9       8
       9       9       8       9       9       8       9       9       8       9
       9       8       9       9       8       9       9       8       9       9
       8       9       9       8       9       9       8       9       9       8
       9       9       8       9       9       8       9       9       8       9
       9       8       9       9       8       9       9       8       9       9
       8       9       9       8       9       9       8       9       9       8
       9       9       8       9       9       8       9       9       8       9
       9       8       9       9       8       9       9       8       9       9
       8       9       9       8       9       9       8       9       9       8
       9       9       8       9       9       8       9       9       8       9
       9       8       9       9       8       9       9       8       9       9
       8       9       9       8       9       9       8       9       9       8
       9       9       8       9       9       8       9       9       8       9
       9       8       9       9       8       9       9       8       9       9
       8       9       9       8       9       9       8       9       9       8
       9       9       8       9       9       8       9       9       8       9
       9       8       9       9       8       9       9       8       9       9
       8       9       9       8       9       9       8       9       9       8
       9       9       8       9       9       8       9       9       8       9
       9       8       9       9       8       9       9       8       9       9
       8       9       9       8       9       9       8       9       9       8
       9       9       8       9       9       8       9       9       8       9
       9       8       9       9       8       9       9       8       9       9
       8       9       9       8       9       9       8       9       9       8
       9       9       8       9       9       8       9       9       8       9
       9       8       9       9       8       9       9       8       9       9
       8       9       9       8       9       9       8       9       9       8
       9       9       8       9       9       8       9       9       8       9
       9       8       9       9       8       9       9       8       9       9
       8       9       9       8       9       9       8       9       9       8
       9       9       8       9       9       8       9       9       8       9
       9       8       9       9       8       9       9       8       9       9
       8       9       9       8       9       9       8       9       9       8
       9       9       8       9       9       8       9       9       8       9
       9       8       9       9       8       9       9       8       9       9
       8       9       9       8       9       9       8       9       9       8
       9       9       8       9       9       8       9       9       8       9
       9       8       9       9       8       9       9       8       9       9
       8       9       9       8       9       9       8       9       9       8
       9       9       8       9       9       8       9       9       8       9
       9       8       9       9       8       9       9       8       9       9
       8       9       9       8       9       9       8       9       9       8
       9       9       8       9       9       8       9       9       8       9
       9       8       9       9       8       9       9       8       9       9
       8       9       9       8       9       9       8       9       9       8
       9       9       8       9       9       8       9       9       8       9
       9       8       9       9       8       9       9       8       9       9
       8       9       9       8       9       9       8       9       9       8
       9       9       8       9       9       8       9       9       8       9
       9       8       9       9       8       9       9       8       9       9
       8       9       9       8       9       9       8       9       9       8
       9       9       8       9       9       8       9       9       8       9
       9       8       9       9       8       9       9       8       9       9
       8       9       9       8       9       9       8       9       9       8
       9       9       8       9       9       8       9       9       8       9
       9       8       9       9       8       9       9       8       9       9
       8       9       9       8       9       9       8       9       9       8
       9       9       8       9       9       8       9       9       8       9
       9       8       9       9       8       9       9       8       9       9
       8       9       9       8       9       9       8       9       9       8
       9       9       8       9       9       8       9       9       8       9
       9       8       9       9       8       9       9       8       9       9
       8       9       9       8       9       9       8       9       9       8
       9       9       8       9       9       8       9       9       8       9
       9       8       9       9       8       9       9       8       9       9
       8       9       9       8       9       9       8       9       9       8
       9       9       8       9       9       8       9       9       8       9
       9       8       9       9       8       9       9       8       9       9
       8       9       9       8       9       9       8       9       9       8
       9       9       8       9       9       8       9       9       8       9
       9       8       9       9       8       9       9       8       9       9
       8       9       9       8       9       9       8       9       9       8
       9       9       8       9       9       8       9       9       8       9
       9       8       9       9       8       9       9       8       9       9
       8       9       9       8       9       9       8       9       9       8
       9       9       8       9       9       8       9       9       8       9
       9       8       9       9       8       9       9       8       9       9
       8       9       9       8       9       9       8       9       9       8
       9       9       8       9       9       8       9       9       8       9
       9       8       9       9       8       9       9       8       9       9
       8       9       9       8       9       9       8       9       9       8
       9       9       8       9       9       8       9       9       8       9
       9       8       9       9       8       9       9       8       9       9
       8       9       9       8       9       9       8       9       9       8
       9       9       8       9       9       8       9       9       8       9
       9       8       9       9       8       9       9       8       9       9
       8       9       9       8       9       9       8       9       9       8
       9       9       8       9       9       8       9       9       8       9
       9       8       9       9       8       9       9       8       9       9
       8       9       9       8       9       9       8       9       9       8
       9       9       8       9       9       8       9       9       8       9
       9       8       9       9       8       9       9       8       9       9
       8       9       9       8       9       9       8       9       9       8
       9       9       8       9       9       8       9       9       8       9
       9       8       9       9       8       9       9       8       9       9
       8       9       9       8       9       9       8       9       9       8
       9       9       8       9       9       8       9       9       8       9
       9       8       9       9       8       9       9       8       9       9
       8       9       9       8       9       9       8       9       9       8
       9       9       8       9       9       8       9       9       8       9
       9       8       9       9       8       9       9       8       9       9
       8       9       9       8       9       9       8       9       9       8
       9       9       8       9       9       8       9       9       8       9
       9       8       9       9       8       9       9       8       9       9
       8       9       9       8       9       9       8       9       9       8
       9       9       8       9       9       8       9       9       8       9
       9       8       9       9       8       9       9       8       9       9
       8       9       9       8       9       9       8       9       9       8
       9       9       8       9       9       8       9       9       8       9
       9       8       9       9       8       9       9       8       9       9
       8       9       9       8       9       9       8       9       9       8
       9       9       8       9       9       8       9       9       8       9
       9       8       9       9       8       9       9       8       9       9
       8       9       9       8       9       9       8       9       9       8
       9       9       8       9       9       8       9       9       8       9
       9       8       9       9       8       9       9       8       9       9
       8       9       9       8       9       9       8       9       9       8
       9       9       8       9       9       8       9       9       8       9
       9       8       9       9       8       9       9       8       9       9
       8       9       9       8       9       9       8       9       9       8
       9       9       8       9       9       8       9       9       8       9
       9       8       9       9       8       9       9       8       9       9
       8       9       9       8       9       9       8       9       9       8
       9       9       8       9       9       8       9       9       8       9
       9       8       9       9       8       9       9       8       9       9
       8       9       9       8       9       9       8       9       9       8
       9       9       8       9       9       8       9       9       8       9
       9       8       9       9       8       9       9       8       9       9
       8       9       9       8       9       9       8       9       9       8
       9       9       8       9       9       8       9       9       8       9
       9       8       9       9       8       9       9       8       9       9
       8       9       9       8       9       9       8       9       9       8
       9       9       8       9       9       8       9       9       8       9
       9       8       9       9       8       9       9       8       9       9
       8       9       9       8       9       9       8       9       9       8
       9       9       8       9       9       8       9       9       8       9
       9       8       9       9       8       9       9       8       9       9
       8       9       9       8       9       9       8       9       9       8
       9       9       8       9       9       8       9       9       8       9
       9       8       9       9       8       9       9       8       9       9
       8       9       9       8       9       9       8       9       9       8
       9       9       8       9       9       8       9       9       8       9
       9       8       9       9       8       9       9       8       9       9
       8       9       9       8       9       9       8       9       9       8
       9       9       8       9       9       8       9       9       8       9
       9       8       9       9       8       9       9       8       9       9
       8       9       9       8       9       9       8       9       9       8
       9       9       8       9       9       8       9       9       8       9
       9       8       9       9       8       9       9       8       9       9
       8       9       9       8       9       9       8       9       9       8
       9       9       8       9       9       8       9       9       8       9
       9       8       9       9       8       9       9       8       9       9
       8       9       9       8       9       9       8       9       9       8
       9       9       8       9       9       8       9       9       8       9
       9       8       9       9       8       9       9       8       9       9
       8       9       9       8       9       9       8       9       9       8
       9       9       8       9       9       8       9       9       8       9
       9       8       9       9       8       9       9       8       9       9
       8       9       9       8       9       9       8       9       9       8
       9       9       8       9       9       8       9       9       8       9
       9       8       9       9       8       9       9       8       9       9
       8       9       9       8       9       9       8       9       9       8
       9       9       8       9       9       8       9       9       8       9
       9       8       9       9       8       9       9       8       9       9
       8       9       9       8       9       9       8       9       9       8
       9       9       8       9       9       8       9       9       8       9
       9       8       9       9       8       9       9       8       9       9
       8       9       9       8       9       9       8       9       9       8
       9       9       8       9       9       8       9       9       8       9
       9       8       9       9       8       9       9       8       9       9
       8       9       9       8       9       9       8       9       9       8
       9       9       8       9       9       8       9       9       8       9
       9       8       9       9       8       9       9       8       9       9
       8       9       9       8       9       9       8       9       9       8
       9       9       8       9       9       8       9       9       8       9
       9       8       9       9       8       9       9       8       9       9
       8       9       9       8       9       9       8       9       9       8
       9       9       8       9       9       8       9       9       8       9
       9       8       9       9       8       9       9       8       9       9
       8       9       9       8       9       9       8       9       9       8
       9       9       8       9       9       8       9       9       8       9
       9       8       9       9       8       9       9       8       9       9
       8       9       9       8       9       9       8       9       9       8
       9       9       8       9       9       8       9       9       8       9
       9       8       9       9       8       9       9       8       9       9
       8       9       9       8       9       9       8       9       9       8
       9       9       8       9       9       8       9       9       8       9
       9       8       9       9       8       9       9       8       9       9
       8       9       9       8       9       9       8       9       9       8
       9       9       8       9       9       8       9       9       8       9
       9       8       9       9       8       9       9       8       9       9
       8       9       9       8       9       9       8       9       9       8
       9       9       8       9       9       8       9       9       8       9
       9       8       9       9       8       9       9       8       9       9
       8       9       9       8       9       9       8       9       9       8
       9       9       8       9       9       8       9       9       8       9
       9       8       9       9       8       9       9       8       9       9
       8       9       9       8       9       9       8       9       9       8
       9       9       8       9       9       8       9       9       8       9
       9       8       9       9       8       9       9       8       9       9
       8       9       9       8       9       9       8       9       9       8
       9       9       8       9       9       8       9       9       8       9
       9       8       9       9       8       9       9       8       9       9
       8       9       9       8       9       9       8       9       9       8
       9       9       8       9       9       8       9       9       8       9
       9       8       9       9       8       9       9       8       9       9
       8       9       9       8       9       9       8       9       9       8
       9       9       8       9       9       8       9       9       8       9
       9       8       9       9       8       9       9       8       9       9
       8       9       9       8       9       9       8       9       9       8
       9       9       8       9       9       8       9       9       8       9
       9       8       9       9       8       9       9       8       9       9
       8       9       9       8       9       9       8       9       9       8
       9       9       8       9       9       8       9       9       8       9
       9       8       9       9       8       9       9       8       9       9
       8       9       9       8       9       9       8       9       9       8
       9       9       8       9       9       8       9       9       8       9
       9       8       9       9       8       9       9       8       9       9
       8       9       9       8       9       9       8       9       9       8
       9       9       8       9       9       8       9       9       8       9
       9       8       9       9       8       9       9       8       9       9
       8       9       9       8       9       9       8       9       9       8
       9       9       8       9       9       8       9       9       8       9
       9       8       9       9       8       9       9       8       9       9
       8       9       9       8       9       9       8       9       9       8
       9       9       8       9       9       8       9       9       8       9
       9       8       9       9       8       9       9       8       9       9
       8       9       9       8       9       9       8       9       9       8
       9       9       8       9       9       8       9       9       8       9
       9       8       9       9       8       9       9       8       9       9
       8       9       9       8       9       9       8       9       9       8
       9       9       8       9       9       8       9       9       8       9
       9       8       9       9       8       9       9       8       9       9
       8       9       9       8       9       9       8       9       9       8
       9       9       8       9       9       8       9       9       8       9
       9       8       9       9       8       9       9       8       9       9
       8       9       9       8       9       9       8       9       9       8
       9       9       8       9       9       8       9       9       8       9
       9       8       9       9       8       9       9       8       9       9
       8       9       9       8       9       9       8       9       9       8
       9       9       8       9       9       8       9       9       8       9
       9       8       9       9       8       9       9       8       9       9
       8       9       9       8       9       9       8       9       9       8
       9       9       8       9       9       8       9       9       8       9
       9       8       9       9       8       9       9       8       9       9
       8       9       9       8       9       9       8       9       9       8
       9       9       8       9       9       8       9       9       8       9
       9       8       9       9       8       9       9       8       9       9
       8       9       9       8       9       9       8       9       9       8
       9       9       8       9       9       8       9       9       8       9
       9       8       9       9       8       9       9       8       9       9
       8       9       9       8       9       9       8       9       9       8
       9       9       8       9       9       8       9       9       8       9
       9       8       9       9       8       9       9       8       9       9
       8       9       9       8       9       9       8       9       9       8
       9       9       8       9       9       8       9       9       8       9
       9       8       9       9       8       9       9       8       9       9
       8       9       9       8       9       9       8       9       9       8
       9       9       8       9       9       8       9       9       8       9
       9       8       9       9       8       9       9       8       9       9
       8       9       9       8       9       9       8       9       9       8
       9       9       8       9       9       8       9       9       8       9
       9       8       9       9       8       9       9       8       9       9
       8       9       9       8       9       9       8       9       9       8
       9       9       8       9       9       8       9       9       8       9
       9       8       9       9       8       9       9       8       9       9
       8       9       9       8       9       9       8       9       9       8
       9       9       8       9       9       8       9       9       8       9
       9       8       9       9       8       9       9       8       9       9
       8       9       9       8       9       9       8       9       9       8
       9       9       8       9       9       8       9       9       8       9
       9       8       9       9       8       9       9       8       9       9
       8       9       9       8       9       9       8       9       9       8
       9       9       8       9       9       8       9       9       8       9
       9       8       9       9       8       9       9       8       9       9
       8       9       9       8       9       9       8       9       9       8
       9       9       8       9       9       8       9       9       8       9
       9       8       9       9       8       9       9       8       9       9
       8       9       9       8       9       9       8       9       9       8
       9       9       8       9       9       8       9       9       8       9
       9       8       9       9       8       9       9       8       9       9
       8       9       9       8       9       9       8       9       9       8
       9       9       8       9       9       8       9       9       8       9
       9       8       9       9       8       9       9       8       9       9
       8       9       9       8       9       9       8       9       9       8
       9       9       8       9       9       8       9       9       8       9
       9       8       9       9       8       9       9       8       9       9
       8       9       9       8       9       9       8       9       9       8
       9       9       8       9       9       8       9       9       8       9
       9       8       9       9       8       9       9       8       9       9
       8       9       9       8       9       9       8       9       9       8
       9       9       8       9       9       8       9       9       8       9
       9       8       9       9       8       9       9       8       9       9
       8       9       9       8       9       9       8       9       9       8
       9       9       8       9       9       8       9       9       8       9
       9       8       9       9       8       9       9       8       9       9
       8       9       9       8       9       9       8       9       9       8
       9       9       8       9       9       8       9       9       8       9
       9       8       9       9       8       9       9       8       9       9
       8       9       9       8       9       9       8       9       9       8
       9       9       8       9       9       8       9       9       8       9
       9       8       9       9       8       9       9       8       9       9
       8       9       9       8       9       9       8       9       9       8
       9       9       8       9       9       8       9       9       8       9
       9       8       9       9       8       9       9       8       9       9
       8       9       9       8       9       9       8       9       9       8
       9       9       8       9       9       8       9       9       8       9
       9       8       9       9       8       9       9       8       9       9
       8       9       9       8       9       9       8       9       9       8
       9       9       8       9       9       8       9       9       8       9
       9       8       9       9       8       9       9       8       9       9
       8       9       9       8       9       9       8       9       9       8
       9       9       8       9       9       8       9       9       8       9
       9       8       9       9       8       9       9       8       9       9
       8       9       9       8       9       9       8       9       9       8
       9       9       8       9       9       8       9       9       8       9
       9       8       9       9       8       9       9       8       9       9
       8       9       9       8       9       9       8       9       9       8
       9       9       8       9       9       8       9       9       8       9
       9       8       9       9       8       9       9       8       9       9
       8       9       9       8       9       9       8       9       9       8
       9       9       8       9       9       8       9       9       8       9
       9       8       9       9       8       9       9       8       9       9
       8       9       9       8       9       9       8       9       9       8
       9       9       8       9       9       8       9       9       8       9
       9       8       9       9       8       9       9       8       9       9
       8       9       9       8       9       9       8       9       9       8
       9       9       8       9       9       8       9       9       8       9
       9       8       9       9       8       9       9       8       9       9
       8       9       9       8       9       9       8       9       9       8
       9       9       8       9       9       8       9       9       8       9
       9       8       9       9       8       9       9       8       9       9
       8       9       9       8       9       9       8       9       9       8
       9       9       8       9       9       8       9       9       8       9
       9       8       9       9       8       9       9       8       9       9
       8       9       9       8       9       9       8       9       9       8
       9       9       8       9       9       8       9       9       8       9
       9       8       9       9       8       9       9       8       9       9
       8       9       9       8       9       9       8       9       9       8
       9       9       8       9       9       8       9       9       8       9
       9       8       9       9       8       9       9       8       9       9
       8       9       9       8       9       9       8       9       9       8
       9       9       8       9       9       8       9       9       8       9
       9       8       9       9       8       9       9       8       9       9
       8       9       9       8       9       9       8       9       9       8
       9       9       8       9       9       8       9       9       8       9
       9       8       9       9       8       9       9       8       9       9
       8       9       9       8       9       9       8       9       9       8
       9       9       8       9       9       8       9       9       8       9
       9       8       9       9       8       9       9       8       9       9
       8       9       9       8       9       9       8       9       9       8
       9       9       8       9       9       8       9       9       8       9
       9       8       9       9       8       9       9       8       9       9
       8       9       9       8       9       9       8       9       9       8
       9       9       8       9       9       8       9       9       8       9
       9       8       9       9       8       9       9       8       9       9
       8       9       9       8       9       9       8       9       9       8
       9       9       8       9       9       8       9       9       8       9
       9       8       9       9       8       9       9       8       9       9
       8       9       9       8       9       9       8       9       9       8
       9       9       8       9       9       8       9       9       8       9
       9       8       9       9       8       9       9       8       9       9
       8       9       9       8       9       9       8       9       9       8
       9       9       8       9       9       8       9       9       8       9
       9       8       9       9       8       9       9       8       9       9
       8       9       9       8       9       9       8       9       9       8
       9       9       8       9       9       8       9       9       8       9
       9       8       9       9       8       9       9       8       9       9
       8       9       9       8       9       9       8       9       9       8
       9       9       8       9       9       8       9       9       8       9
       9       8       9       9       8       9       9       8       9       9
       8       9       9       8       9       9       8       9       9       8
       9       9       8       9       9       8       9       9       8       9
       9       8       9       9       8       9       9       8       9       9
       8       9       9       8       9       9       8       9       9       8
       9       9       8       9       9       8       9       9       8       9
       9       8       9       9       8       9       9       8       9       9
       8       9       9       8       9       9       8       9       9       8
       9       9       8       9       9       8       9       9       8       9
       9       8       9       9       8       9       9       8       9       9
       8       9       9       8       9       9       8       9       9       8
       9       9       8       9       9       8       9       9       8       9
       9       8       9       9       8       9       9       8       9       9
       8       9       9       8       9       9       8       9       9       8
       9       9       8       9       9       8       9       9       8       9
       9       8       9       9       8       9       9       8       9       9
       8       9       9       8       9       9       8       9       9       8
       9       9       8       9       9       8       9       9       8       9
       9       8       9       9       8       9       9       8       9       9
       8       9       9       8       9       9       8       9       9       8
       9       9       8       9       9       8       9       9       8       9
       9       8       9       9       8       9       9       8       9       9
       8       9       9       8       9       9       8       9       9       8
       9       9       8       9       9       8       9       9       8       9
       9       8       9       9       8       9       9       8       9       9
       8       9       9       8       9       9       8       9       9       8
       9       9       8       9       9       8       9       9       8       9
       9       8       9       9       8       9       9       8       9       9
       8       9       9       8       9       9       8       9       9       8
       9       9       8       9       9       8       9       9       8       9
       9       8       9       9       8       9       9       8       9       9
       8       9       9       8       9       9       8       9       9       8
       9       9       8       9       9       8       9       9       8       9
       9       8       9       9       8       9       9       8       9       9
       8       9       9       8       9       9       8       9       9       8
       9       9       8       9       9       8       9       9       8       9
       9       8       9       9       8       9       9       8       9       9
       8       9       9       8       9       9       8       9       9       8
       9       9       8       9       9       8       9       9       8       9
       9       8       9       9       8       9       9       8       9       9
       8       9       9       8       9       9       8       9       9       8
       9       9       8       9       9       8       9       9       8       9
       9       8       9       9       8       9       9       8       9       9
       8       9       9       8       9       9       8       9       9       8
       9       9       8       9       9       8       9       9       8       9
       9       8       9       9       8       9       9       8       9       9
       8       9       9       8       9       9       8       9       9       8
       9       9       8       9       9       8       9       9       8       9
       9       8       9       9       8       9       9       8       9       9
       8       9       9       8       9       9       8       9       9       8
       9       9       8       9       9       8       9       9       8       9
       9       8       9       9       8       9       9       8       9       9
       8       9       9       8       9       9       8       9       9       8
       9       9       8       9       9       8       9       9       8       9
       9       8       9       9       8       9       9       8       9       9
       8       9       9       8       9       9       8       9       9       8
       9       9       8       9       9       8       9       9       8       9
       9       8       9       9       8       9       9       8       9       9
       8       9       9       8       9       9       8       9       9       8
       9       9       8       9       9       8       9       9       8       9
       9       8       9       9       8       9       9       8       9       9
       8       9       9       8       9       9       8       9       9       8
       9       9       8       9       9       8       9       9       8       9
       9       8       9       9       8       9       9       8       9       9
       8       9       9       8       9       9       8       9       9       8
       9       9       8       9       9       8       9       9       8       9
       9       8       9       9       8       9       9       8       9       9
       8       9       9       8       9       9       8       9       9       8
       9       9       8       9       9       8       9       9       8       9
       9       8       9       9       8       9       9       8       9       9
       8       9       9       8       9       9       8       9       9       8
       9       9       8       9       9       8       9       9       8       9
       9       8       9       9       8       9       9       8       9       9
       8       9       9       8       9       9       8       9       9       8
       9       9       8       9       9       8       9       9       8       9
       9       8       9       9       8       9       9       8       9       9
       8       9       9       8       9       9       8       9       9       8
       9       9       8       9       9       8       9       9       8       9
       9       8       9       9       8       9       9       8       9       9
       8       9       9       8       9       9       8       9       9       8
       9       9       8       9       9       8       9       9       8       9
       9       8       9       9       8       9       9       8       9       9
       8       9       9       8       9       9       8       9       9       8
       9       9       8       9       9       8       9       9       8       9
       9       8       9       9       8       9       9       8       9       9
       8       9       9       8       9       9       8       9       9       8
       9       9       8       9       9       8       9       9       8       9
       9       8       9       9       8       9       9       8       9       9
       8       9       9       8       9       9       8       9       9       8
       9       9       8       9       9       8       9       9       8       9
       9       8       9       9       8       9       9       8       9       9
       8       9       9       8       9       9       8       9       9       8
       9       9       8       9       9       8       9       9       8       9
       9       8       9       9       8       9       9       8       9       9
       8       9       9       8       9       9       8       9       9       8
       9       9       8       9       9       8       9       9       8       9
       9       8       9       9       8       9       9       8       9       9
       8       9       9       8       9       9       8       9       9       8
       9       9       8       9       9       8       9       9       8       9
       9       8       9       9       8       9       9       8       9       9
       8       9       9       8       9       9       8       9       9       8
       9       9       8       9       9       8       9       9       8       9
       9       8       9       9       8       9       9       8       9       9
       8       9       9       8       9       9       8       9       9       8
       9       9       8       9       9       8       9       9       8       9
       9       8       9       9       8       9       9       8       9       9
       8       9       9       8       9       9       8       9       9       8
       9       9       8       9       9       8       9       9       8       9
       9       8       9       9       8       9       9       8       9       9
       8       9       9       8       9       9       8       9       9       8
       9       9       8       9       9       8       9       9       8       9
       9       8       9       9       8       9       9       8       9       9
       8       9       9       8       9       9       8       9       9       8
       9       9       8       9       9       8       9       9       8       9
       9       8       9       9       8       9       9       8       9       9
       8       9       9       8       9       9       8       9       9       8
       9       9       8       9       9       8       9       9       8       9
       9       8       9       9       8       9       9       8       9       9
       8       9       9       8       9       9       8       9       9       8
       9       9       8       9       9       8       9       9       8       9
       9       8       9       9       8       9       9       8       9       9
       8       9       9       8       9       9       8       9       9       8
       9       9       8       9       9       8       9       9       8       9
       9       8       9       9       8       9       9       8       9       9
       8       9       9       8       9       9       8       9       9       8
       9       9       8       9       9       8       9       9       8       9
       9       8       9       9       8       9       9       8       9       9
       8       9       9       8       9       9       8       9       9       8
       9       9       8       9       9       8       9       9       8       9
       9       8       9       9       8       9       9       8       9       9
       8       9       9       8       9       9       8       9       9       8
       9       9       8       9       9       8       9       9       8       9
       9       8       9       9       8       9       9       8       9       9
       8       9       9       8       9       9       8       9       9       8
       9       9       8       9       9       8       9       9       8       9
       9       8       9       9       8       9       9       8       9       9
       8       9       9       8       9       9       8       9       9       8
       9       9       8       9       9       8       9       9       8       9
       9       8       9       9       8       9       9       8       9       9
       8       9       9       8       9       9       8       9       9       8
       9       9       8       9       9       8       9       9       8       9
       9       8       9       9       8       9       9       8       9       9
       8       9       9       8       9       9       8       9       9       8
       9       9       8       9       9       8       9       9       8       9
       9       8       9       9       8       9       9       8       9       9
       8       9       9       8       9       9       8       9       9       8
       9       9       8       9       9       8       9       9       8       9
       9       8       9       9       8       9       9       8       9       9
       8       9       9       8       9       9       8       9       9       8
       9       9       8       9       9       8       9       9       8       9
       9       8       9       9       8       9       9       8       9       9
       8       9       9       8       9       9       8       9       9       8
       9       9       8       9       9       8       9       9       8       9
       9       8       9       9       8       9       9       8       9       9
       8       9       9       8       9       9       8       9       9       8
       9       9       8       9       9       8       9       9       8       9
       9       8       9       9       8       9       9       8       9       9
       8       9       9       8       9       9       8       9       9       8
       9       9       8       9       9       8       9       9       8       9
       9       8       9       9       8       9       9       8       9       9
       8       9       9       8       9       9       8       9       9       8
       9       9       8       9       9       8       9       9       8       9
       9       8       9       9       8       9       9       8       9       9
       8       9       9       8       9       9       8       9       9       8
       9       9       8       9       9       8       9       9       8       9
       9       8       9       9       8       9       9       8       9       9
       8       9       9       8       9       9       8       9       9       8
       9       9       8       9       9       8       9       9       8       9
       9       8       9       9       8       9       9       8       9       9
       8       9       9       8       9       9       8       9       9       8
       9       9       8       9       9       8       9       9       8       9
       9       8       9       9       8       9       9       8       9       9
       8       9       9       8       9       9       8       9       9       8
       9       9       8       9       9       8       9       9       8       9
       9       8       9       9       8       9       9       8       9       9
       8       9       9       8       9       9       8       9       9       8
       9       9       8       9       9       8       9       9       8       9
       9       8       9       9       8       9       9       8       9       9
       8       9       9       8       9       9       8       9       9       8
       9       9       8       9       9       8       9       9       8       9
       9       8       9       9       8       9       9       8       9       9
       8       9       9       8       9       9       8       9       9       8
       9       9       8       9       9       8       9       9       8       9
       9       8       9       9       8       9       9       8       9       9
       8       9       9       8       9       9       8       9       9       8
       9       9       8       9       9       8       9       9       8       9
       9       8       9       9       8       9       9       8       9       9
       8       9       9       8       9       9       8       9       9       8
       9       9       8       9       9       8       9       9       8       9
       9       8       9       9       8       9       9       8       9       9
       8       9       9       8       9       9       8       9       9       8
       9       9       8       9       9       8       9       9       8       9
       9       8       9       9       8       9       9       8       9       9
       8       9       9       8       9       9       8       9       9       8
       9       9       8       9       9       8       9       9       8       9
       9       8       9       9       8       9       9       8       9       9
       8       9       9       8       9       9       8       9       9       8
       9       9       8       9       9       8       9       9       8       9
       9       8       9       9       8       9       9       8       9       9
       8       9       9       8       9       9       8       9       9       8
       9       9       8       9       9       8       9       9       8       9
       9       8       9       9       8       9       9       8       9       9
       8       9       9       8       9       9       8       9       9       8
       9       9       8       9       9       8       9       9       8       9
       9       8       9       9       8       9       9       8       9       9
       8       9       9       8       9       9       8       9       9       8
       9       9       8       9       9       8       9       9       8       9
       9       8       9       9       8       9       9       8       9       9
       8       9       9       8       9       9       8       9       9       8
       9       9       8       9       9       8       9       9       8       9
       9       8       9       9       8       9       9       8       9       9
       8       9       9       8       9       9       8       9       9       8
       9       9       8       9       9       8       9       9       8       9
       9       8       9       9       8       9       9       8       9       9
       8       9       9       8       9       9       8       9       9       8
       9       9       8       9       9       8       9       9       8       9
       9       8       9       9       8       9       9       8       9       9
       8       9       9       8       9       9       8       9       9       8
       9       9       8       9       9       8       9       9       8       9
       9       8       9       9       8       9       9       8       9       9
       8       9       9       8       9       9       8       9       9       8
       9       9       8       9       9       8       9       9       8       9
       9       8       9       9       8       9       9       8       9       9
       8       9       9       8       9       9       8       9       9       8
       9       9       8       9       9       8       9       9       8       9
       9       8       9       9       8       9       9       8       9       9
       8       9       9       8       9       9       8       9       9       8
       9       9       8       9       9       8       9       9       8       9
       9       8       9       9       8       9       9       8       9       9
       8       9       9       8       9       9       8       9       9       8
       9       9       8       9       9       8       9       9       8       9
       9       8       9       9       8       9       9       8       9       9
       8       9       9       8       9       9       8       9       9       8
       9       9       8       9       9       8       9       9       8       9
       9       8       9       9       8       9       9       8       9       9
       8       9       9       8       9       9       8       9       9       8
       9       9       8       9       9       8       9       9       8       9
       9       8       9       9       8       9       9       8       9       9
       8       9       9       8       9       9       8       9       9       8
       9       9       8       9       9       8       9       9       8       9
       9       8       9       9       8       9       9       8       9       9
       8       9       9       8       9       9       8       9       9       8
       9       9       8       9       9       8       9       9       8       9
       9       8       9       9       8       9       9       8       9       9
       8       9       9       8       9       9       8       9       9       8
       9       9       8       9       9       8       9       9       8       9
       9       8       9       9       8       9       9       8       9       9
       8       9       9       8       9       9       8       9       9       8
       9       9       8       9       9       8       9       9       8       9
       9       8       9       9       8       9       9       8       9       9
       8       9       9       8       9       9       8       9       9       8
       9       9       8       9       9       8       9       9       8       9
       9       8       9       9       8       9       9       8       9       9
       8       9       9       8       9       9       8       9       9       8
       9       9       8       9       9       8       9       9       8       9
       9       8       9       9       8       9       9       8       9       9
       8       9       9       8       9       9       8       9       9       8
       9       9       8       9       9       8       9       9       8       9
       9       8       9       9       8       9       9       8       9       9
       8       9       9       8       9       9       8       9       9       8
       9       9       8       9       9       8       9       9       8       9
       9       8       9       9       8       9       9       8       9       9
       8       9       9       8       9       9       8       9       9       8
       9       9       8       9       9       8       9       9       8       9
       9       8       9       9       8       9       9       8       9       9
       8       9       9       8       9       9       8       9       9       8
       9       9       8       9       9       8       9       9       8       9
       9       8       9       9       8       9       9       8       9       9
       8       9       9       8       9       9       8       9       9       8
       9       9       8       9       9       8       9       9       8       9
       9       8       9       9       8       9       9       8       9       9
       8       9       9       8       9       9       8       9       9       8
       9       9       8       9       9       8       9       9       8       9
       9       8       9       9       8       9       9       8       9       9
       8       9       9       8       9       9       8       9       9       8
       9       9       8       9       9       8       9       9       8       9
       9       8       9       9       8       9       9       8       9       9
       8       9       9       8       9       9       8       9       9       8
       9       9       8       9       9       8       9       9       8       9
       9       8       9       9       8       9       9       8       9       9
       8       9       9       8       9       9       8       9       9       8
       9       9       8       9       9       8       9       9       8       9
       9       8       9       9       8       9       9       8       9       9
       8       9       9       8       9       9       8       9       9       8
       9       9       8       9       9       8       9       9       8       9
       9       8       9       9       8       9       9       8       9       9
       8       9       9       8       9       9       8       9       9       8
       9       9       8       9       9       8       9       9       8       9
       9       8       9       9       8       9       9       8       9       9
       8       9       9       8       9       9       8       9       9       8
       9       9       8       9       9       8       9       9       8       9
       9       8       9       9       8       9       9       8       9       9
       8       9       9       8       9       9       8       9       9       8
       9       9       8       9       9       8       9       9       8       9
       9       8       9       9       8       9       9       8       9       9
       8       9       9       8       9       9       8       9       9       8
       9       9       8       9       9       8       9       9       8       9
       9       8       9       9       8       9       9       8       9       9
       8       9       9       8       9       9       8       9       9       8
       9       9       8       9       9       8       9       9       8       9
       9       8       9       9       8       9       9       8       9       9
       8       9       9       8       9       9       8       9       9       8
       9       9       8       9       9       8       9       9       8       9
       9       8       9       9       8       9       9       8       9       9
       8       9       9       8       9       9       8       9       9       8
       9       9       8       9       9       8       9       9       8       9
       9       8       9       9       8       9       9       8       9       9
       8       9       9       8       9       9       8       9       9       8
       9       9       8       9       9       8       9       9       8       9
       9       8       9       9       8       9       9       8       9       9
       8       9       9       8       9       9       8       9       9       8
       9       9       8       9       9       8       9       9       8       9
       9       8       9       9       8       9       9       8       9       9
       8       9       9       8       9       9       8       9       9       8
       9       9       8       9       9       8       9       9       8       9
       9       8       9       9       8       9       9       8       9       9
       8       9       9       8       9       9       8       9       9       8
       9       9       8       9       9       8       9       9       8       9
       9       8       9       9       8       9       9       8       9       9
       8       9       9       8       9       9       8       9       9       8
       9       9       8       9       9       8       9       9       8       9
       9       8       9       9       8       9       9       8       9       9
       8       9       9       8       9       9       8       9       9       8
       9       9       8       9       9       8       9       9       8       9
       9       8       9       9       8       9       9       8       9       9
       8       9       9       8       9       9       8       9       9       8
       9       9       8       9       9       8       9       9       8       9
       9       8       9       9       8       9       9       8       9       9
       8       9       9       8       9       9       8       9       9       8
       9       9       8       9       9       8       9       9       8       9
       9       8       9       9       8       9       9       8       9       9
       8       9       9       8       9       9       8       9       9       8
       9       9       8       9       9       8       9       9       8       9
       9       8       9       9       8       9       9       8       9       9
       8       9       9       8       9       9       8       9       9       8
       9       9       8       9       9       8       9       9       8       9
       9       8       9       9       8       9       9       8       9       9
       8       9       9       8       9       9       8       9       9       8
       9       9       8       9       9       8       9       9       8       9
       9       8       9       9       8       9       9       8       9       9
       8       9       9       8       9       9       8       9       9       8
       9       9       8       9       9       8       9       9       8       9
       9       8       9       9       8       9       9       8       9       9
       8       9       9       8       9       9       8       9       9       8
       9       9       8       9       9       8       9       9       8       9
       9       8       9       9       8       9       9       8       9       9
       8       9       9       8       9       9       8       9       9       8
       9       9       8       9       9       8       9       9       8       9
       9       8       9       9       8       9       9       8       9       9
       8       9       9       8       9       9       8       9       9       8
       9       9       8       9       9       8       9       9       8       9
       9       8       9       9       8       9       9       8       9       9
       8       9       9       8       9       9       8       9       9       8
       9       9       8       9       9       8       9       9       8       9
       9       8       9       9       8       9       9       8       9       9
       8       9       9       8       9       9       8       9       9       8
       9       9       8       9       9       8       9       9       8       9
       9       8       9       9       8       9       9       8       9       9
       8       9       9       8       9       9       8       9       9       8
       9       9       8       9       9       8       9       9       8       9
       9       8       9       9       8       9       9       8       9       9
       8       9       9       8       9       9       8       9       9       8
       9       9       8       9       9       8       9       9       8       9
       9       8       9       9       8       9       9       8       9       9
       8       9       9       8       9       9       8       9       9       8
       9       9       8       9       9       8       9       9       8       9
       9       8       9       9       8       9       9       8       9       9
       8       9       9       8       9       9       8       9       9       8
       9       9       8       9       9       8       9       9       8       9
       9       8       9       9       8       9       9       8       9       9
       8       9       9       8       9       9       8       9       9       8
       9       9       8       9       9       8       9       9       8       9
       9       8       9       9       8       9       9       8       9       9
       8       9       9       8       9       9       8       9       9       8
       9       9       8       9       9       8       9       9       8       9
       9       8       9       9       8       9       9       8       9       9
       8       9       9       8       9       9       8       9       9       8
       9       9       8       9       9       8       9       9       8       9
       9       8       9       9       8       9       9       8       9       9
       8       9       9       8       9       9       8       9       9       8
       9       9       8       9       9       8       9       9       8       9
       9       8       9       9       8       9       9       8       9       9
       8       9       9       8       9       9       8       9       9       8
       9       9       8       9       9       8       9       9       8       9
       9       8       9       9       8       9       9       8       9       9
       8       9       9       8       9       9       8       9       9       8
       9       9       8       9       9       8       9       9       8       9
       9       8       9       9       8       9       9       8       9       9
       8       9       9       8       9       9       8       9       9       8
       9       9       8       9       9       8       9       9       8       9
       9       8       9       9       8       9       9       8       9       9
       8       9       9       8       9       9       8       9       9       8
       9       9       8       9       9       8       9       9       8       9
       9       8       9       9       8       9       9       8       9       9
       8       9       9       8       9       9       8       9       9       8
       9       9       8       9       9       8       9       9       8       9
       9       8       9       9       8       9       9       8       9       9
       8       9       9       8       9       9       8       9       9       8
       9       9       8       9       9       8       9       9       8       9
       9       8       9       9       8       9       9       8       9       9
       8       9       9       8       9       9       8       9       9       8
       9       9       8       9       9       8       9       9       8       9
       9       8       9       9       8       9       9       8       9       9
       8       9       9       8       9       9       8       9       9       8
       9       9       8       9       9       8       9       9       8       9
       9       8       9       9       8       9       9       8       9       9
       8       9       9       8       9       9       8       9       9       8
       9       9       8       9       9       8       9       9       8       9
       9       8       9       9       8       9       9       8       9       9
       8       9       9       8       9       9       8       9       9       8
       9       9       8       9       9       8       9       9       8       9
       9       8       9       9       8       9       9       8       9       9
       8       9       9       8       9       9       8       9       9       8
       9       9       8       9       9       8       9       9       8       9
       9       8       9       9       8       9       9       8       9       9
       8       9       9       8       9       9       8       9       9       8
       9       9       8       9       9       8       9       9       8       9
       9       8       9       9       8       9       9       8       9       9
       8       9       9       8       9       9       8       9       9       8
       9       9       8       9       9       8       9       9       8       9
       9       8       9       9       8       9       9       8       9       9
       8       9       9       8       9       9       8       9       9       8
       9       9       8       9       9       8       9       9       8       9
       9       8       9       9       8       9       9       8       9       9
       8       9       9       8       9       9       8       9       9       8
       9       9       8       9       9       8       9       9       8       9
       9       8       9       9       8       9       9       8       9       9
       8       9       9       8       9       9       8       9       9       8
       9       9       8       9       9       8       9       9       8       9
       9       8       9       9       8       9       9       8       9       9
       8       9       9       8       9       9       8       9       9       8
       9       9       8       9       9       8       9       9       8       9
       9       8       9       9       8       9       9       8       9       9
       8       9       9       8       9       9       8       9       9       8
       9       9       8       9       9       8       9       9       8       9
       9       8       9       9       8       9       9       8       9       9
       8       9       9       8       9       9       8       9       9       8
       9       9       8       9       9       8       9       9       8       9
       9       8       9       9       8       9       9       8       9       9
       8       9       9       8       9       9       8       9       9       8
       9       9       8       9       9       8       9       9       8       9
       9       8       9       9       8       9       9       8       9       9
       8       9       9       8       9       9       8       9       9       8
       9       9       8       9       9       8       9       9       8       9
       9       8       9       9       8       9       9       8       9       9
       8       9       9       8       9       9       8       9       9       8
       9       9       8       9       9       8       9       9       8       9
       9       8       9       9       8       9       9       8       9       9
       8       9       9       8       9       9       8       9       9       8
       9       9       8       9       9       8       9       9       8       9
       9       8       9       9       8       9       9       8       9       9
       8       9       9       8       9       9       8       9       9       8
       9       9       8       9       9       8       9       9       8       9
       9       8       9       9       8       9       9       8       9       9
       8       9       9       8       9       9       8       9       9       8
       9       9       8       9       9       8       9       9       8       9
       9       8       9       9       8       9       9       8       9       9
       8       9       9       8       9       9       8       9       9       8
       9       9       8       9       9       8       9       9       8       9
       9       8       9       9       8       9       9       8       9       9
       8       9       9       8       9       9       8       9       9       8
       9       9       8       9       9       8       9       9       8       9
       9       8       9       9       8       9       9       8       9       9
       8       9       9       8       9       9       8       9       9       8
       9       9       8       9       9       8       9       9       8       9
       9       8       9       9       8       9       9       8       9       9
       8       9       9       8       9       9       8       9       9       8
       9       9       8       9       9       8       9       9       8       9
       9       8       9       9       8       9       9       8       9       9
       8       9       9       8       9       9       8       9       9       8
       9       9       8       9       9       8       9       9       8       9
       9       8       9       9       8       9       9       8       9       9
       8       9       9       8       9       9       8       9       9       8
       9       9       8       9       9       8       9       9       8       9
       9       8       9       9       8       9       9       8       9       9
       8       9       9       8       9       9       8       9       9       8
       9       9       8       9       9       8       9       9       8       9
       9       8       9       9       8       9       9       8       9       9
       8       9       9       8       9       9       8       9       9       8
       9       9       8       9       9       8       9       9       8       9
       9       8       9       9       8       9       9       8       9       9
       8       9       9       8       9       9       8       9       9       8
       9       9       8       9       9       8       9       9       8       9
       9       8       9       9       8       9       9       8       9       9
       8       9       9       8       9       9       8       9       9       8
       9       9       8       9       9       8       9       9       8       9
       9       8       9       9       8       9       9       8       9       9
       8       9       9       8       9       9       8       9       9       8
       9       9       8       9       9       8       9       9       8       9
       9       8       9       9       8       9       9       8       9       9
       8       9       9       8       9       9       8       9       9       8
       9       9       8       9       9       8       9       9       8       9
       9       8       9       9       8       9       9       8       9       9
       8       9       9       8       9       9       8       9       9       8
       9       9       8       9       9       8       9       9       8       9
       9       8       9       9       8       9       9       8       9       9
       8       9       9       8       9       9       8       9       9       8
       9       9       8       9       9       8       9       9       8       9
       9       8       9       9       8       9       9       8       9       9
       8       9       9       8       9       9       8       9       9       8
       9       9       8       9       9       8       9       9       8       9
       9       8       9       9       8       9       9       8       9       9
       8       9       9       8       9       9       8       9       9       8
       9       9       8       9       9       8       9       9       8       9
       9       8       9       9       8       9       9       8       9       9
       8       9       9       8       9       9       8       9       9       8
       9       9       8       9       9       8       9       9       8       9
       9       8       9       9       8       9       9       8       9       9
       8       9       9       8       9       9       8       9       9       8
       9       9       8       9       9       8       9       9       8       9
       9       8       9       9       8       9       9       8       9       9
       8       9       9       8       9       9       8       9       9       8
       9       9       8       9       9       8       9       9       8       9
       9       8       9       9       8       9       9       8       9       9
       8       9       9       8       9       9       8       9       9       8
       9       9       8       9       9       8       9       9       8       9
       9       8       9       9       8       9       9       8       9       9
       8       9       9       8       9       9       8       9       9       8
       9       9       8       9       9       8       9       9       8       9
       9       8       9       9       8       9       9       8       9       9
       8       9       9       8       9       9       8       9       9       8
       9       9       8       9       9       8       9       9       8       9
       9       8       9       9       8       9       9       8       9       9
       8       9       9       8       9       9       8       9       9       8
       9       9       8       9       9       8       9       9       8       9
       9       8       9       9       8       9       9       8       9       9
       8       9       9       8       9       9       8       9       9       8
       9       9       8       9       9       8       9       9       8       9
       9       8       9       9       8       9       9       8       9       9
       8       9       9       8       9       9       8       9       9       8
       9       9       8       9       9       8       9       9       8       9
       9       8       9       9       8       9       9       8       9       9
       8       9       9       8       9       9       8       9       9       8
       9       9       8       9       9       8       9       9       8       9
       9       8       9       9       8       9       9       8       9       9
       8       9       9       8       9       9       8       9       9       8
       9       9       8       9       9       8       9       9       8       9
       9       8       9       9       8       9       9       8       9       9
       8       9       9       8       9       9       8       9       9       8
       9       9       8       9       9       8       9       9       8       9
       9       8       9       9       8       9       9       8       9       9
       8       9       9       8       9       9       8       9       9       8
       9       9       8       9       9       8       9       9       8       9
       9       8       9       9       8       9       9       8       9       9
       8       9       9       8       9       9       8       9       9       8
       9       9       8       9       9       8       9       9       8       9
       9       8       9       9       8       9       9       8       9       9
       8       9       9       8       9       9       8       9       9       8
       9       9       8       9       9       8       9       9       8       9
       9       8       9       9       8       9       9       8       9       9
       8       9       9       8       9       9       8       9       9       8
       9       9       8       9       9       8       9       9       8       9
       9       8       9       9       8       9       9       8       9       9
       8       9       9       8       9       9       8       9       9       8
       9       9       8       9       9       8       9       9       8       9
       9       8       9       9       8       9       9       8       9       9
       8       9       9       8       9       9       8       9       9       8
       9       9       8       9       9       8       9       9       8       9
       9       8       9       9       8       9       9       8       9       9
       8       9       9       8       9       9       8       9       9       8
       9       9       8       9       9       8       9       9       8       9
       9       8       9       9       8       9       9       8       9       9
       8       9       9       8       9       9       8       9       9       8
       9       9       8       9       9       8       9       9       8       9
       9       8       9       9       8       9       9       8       9       9
       8       9       9       8       9       9       8       9       9       8
       9       9       8       9       9       8       9       9       8       9
       9       8       9       9       8       9       9       8       9       9
       8       9       9       8       9       9       8       9       9       8
       9       9       8       9       9       8       9       9       8       9
       9       8       9       9       8       9       9       8       9       9
       8       9       9       8       9       9       8       9       9       8
       9       9       8       9       9       8       9       9       8       9
       9       8       9       9       8       9       9       8       9       9
       8       9       9       8       9       9       8       9       9       8
       9       9       8       9       9       8       9       9       8       9
       9       8       9       9       8       9       9       8       9       9
       8       9       9       8       9       9       8       9       9       8
       9       9       8       9       9       8       9       9       8       9
       9       8       9       9       8       9       9       8       9       9
       8       9       9       8       9       9       8       9       9       8
       9       9       8       9       9       8       9       9       8       9
       9       8       9       9       8       9       9       8       9       9
       8       9       9       8       9       9       8       9       9       8
       9       9       8       9       9       8       9       9       8       9
       9       8       9       9       8       9       9       8       9       9
       8       9       9       8       9       9       8       9       9       8
       9       9       8       9       9       8       9       9       8       9
       9       8       9       9       8       9       9       8       9       9
       8       9       9       8       9       9       8       9       9       8
       9       9       8       9       9       8       9       9       8       9
       9       8       9       9       8       9       9       8       9       9
       8       9       9       8       9       9       8       9       9       8
       9       9       8       9       9       8       9       9       8       9
       9       8       9       9       8       9       9       8       9       9
       8       9       9       8       9       9       8       9       9       8
       9       9       8       9       9       8       9       9       8       9
       9       8       9       9       8       9       9       8       9       9
       8       9       9       8       9       9       8       9       9       8
       9       9       8       9       9       8       9       9       8       9
       9       8       9       9       8       9       9       8       9       9
       8       9       9       8       9       9       8       9       9       8
       9       9       8       9       9       8       9       9       8       9
       9       8       9       9       8       9       9       8       9       9
       8       9       9       8       9       9       8       9       9       8
       9       9       8       9       9       8       9       9       8       9
       9       8       9       9       8       9       9       8       9       9
       8       9       9       8       9       9       8       9       9       8
       9       9       8       9       9       8       9       9       8       9
       9       8       9       9       8       9       9       8       9       9
       8       9       9       8       9       9       8       9       9       8
       9       9       8       9       9       8       9       9       8       9
       9       8       9       9       8       9       9       8       9       9
       8       9       9       8       9       9       8       9       9       8
       9       9       8       9       9       8       9       9       8       9
       9       8       9       9       8       9       9       8       9       9
       8       9       9       8       9       9       8       9       9       8
       9       9       8       9       9       8       9       9       8       9
       9       8       9       9       8       9       9       8       9       9
       8       9       9       8       9       9       8       9       9       8
       9       9       8       9       9       8       9       9       8       9
       9       8       9       9       8       9       9       8       9       9
       8       9       9       8       9       9       8       9       9       8
       9       9       8       9       9       8       9       9       8       9
       9       8       9       9       8       9       9       8       9       9
       8       9       9       8       9       9       8       9       9       8
       9       9       8       9       9       8       9       9       8       9
       9       8       9       9       8       9       9       8       9       9
       8       9       9       8       9       9       8       9       9       8
       9       9       8       9       9       8       9       9       8       9
       9       8       9       9       8       9       9       8       9       9
       8       9       9       8       9       9       8       9       9       8
       9       9       8       9       9       8       9       9       8       9
       9       8       9       9       8       9       9       8       9       9
       8       9       9       8       9       9       8       9       9       8
       9       9       8       9       9       8       9       9       8       9
       9       8       9       9       8       9       9       8       9       9
       8       9       9       8       9       9       8       9       9       8
       9       9       8       9       9       8       9       9       8       9
       9       8       9       9       8       9       9       8       9       9
       8       9       9       8       9       9       8       9       9       8
       9       9       8       9       9       8       9       9       8       9
       9       8       9       9       8       9       9       8       9       9
       8       9       9       8       9       9       8       9       9       8
       9       9       8       9       9       8       9       9       8       9
       9       8       9       9       8       9       9       8       9       9
       8       9       9       8       9       9       8       9       9       8
       9       9       8       9       9       8       9       9       8       9
       9       8       9       9       8       9       9       8       9       9
       8       9       9       8       9       9       8       9       9       8
       9       9       8       9       9       8       9       9       8       9
       9       8       9       9       8       9       9       8       9       9
       8       9       9       8       9       9       8       9       9       8
       9       9       8       9       9       8       9       9       8       9
       9       8       9       9       8       9       9       8       9       9
       8       9       9       8       9       9       8       9       9       8
       9       9       8       9       9       8       9       9       8       9
       9       8       9       9       8       9       9       8       9       9
       8       9       9       8       9       9       8       9       9       8
       9       9       8       9       9       8       9       9       8       9
       9       8       9       9       8       9       9       8       9       9
       8       9       9       8       9       9       8       9       9       8
       9       9       8       9       9       8       9       9       8       9
       9       8       9       9       8       9       9       8       9       9
       8       9       9       8       9       9       8       9       9       8
       9       9       8       9       9       8       9       9       8       9
       9       8       9       9       8       9       9       8       9       9
       8       9       9       8       9       9       8       9       9       8
       9       9       8       9       9       8       9       9       8       9
       9       8       9       9       8       9       9       8       9       9
       8       9       9       8       9       9       8       9       9       8
       9       9       8       9       9       8       9       9       8       9
       9       8       9       9       8       9       9       8       9       9
       8       9       9       8       9       9       8       9       9       8
       9       9       8       9       9       8       9       9       8       9
       9       8       9       9       8       9       9       8       9       9
       8       9       9       8       9       9       8       9       9       8
       9       9       8       9       9       8       9       9       8       9
       9       8       9       9       8       9       9       8       9       9
       8       9       9       8       9       9       8       9       9       8
       9       9       8       9       9       8       9       9       8       9
       9       8       9       9       8       9       9       8       9       9
       8       9       9       8       9       9       8       9       9       8
       9       9       8       9       9       8       9       9       8       9
       9       8       9       9       8       9       9       8       9       9
       8       9       9       8       9       9       8       9       9       8
       9       9       8       9       9       8       9       9       8       9
       9       8       9       9       8       9       9       8       9       9
       8       9       9       8       9       9       8       9       9       8
       9       9       8       9       9       8       9       9       8       9
       9       8       9       9       8       9       9       8       9       9
       8       9       9       8       9       9       8       9       9       8
       9       9       8       9       9       8       9       9       8       9
       9       8       9       9       8       9       9       8       9       9
       8       9       9       8       9       9       8       9       9       8
       9       9       8       9       9       8       9       9       8       9
       9       8       9       9       8       9       9       8       9       9
       8       9       9       8       9       9       8       9       9       8
       9       9       8       9       9       8       9       9       8       9
       9       8       9       9       8       9       9       8       9       9
       8       9       9       8       9       9       8       9       9       8
       9       9       8       9       9       8       9       9       8       9
       9       8       9       9       8       9       9       8       9       9
       8       9       9       8       9       9       8       9       9       8
       9       9       8       9       9       8       9       9       8       9
       9       8       9       9       8       9       9       8       9       9
       8       9       9       8       9       9       8       9       9       8
       9       9       8       9       9       8       9       9       8       9
       9       8       9       9       8       9       9       8       9       9
       8       9       9       8       9       9       8       9       9       8
       9       9       8       9       9       8       9       9       8       9
       9       8       9       9       8       9       9       8       9       9
       8       9       9       8       9       9       8       9       9       8
       9       9       8       9       9       8       9       9       8       9
       9       8       9       9       8       9       9       8       9       9
       8       9       9       8       9       9       8       9       9       8
       9       9       8       9       9       8       9       9       8       9
       9       8       9       9       8       9       9       8       9       9
       8       9       9       8       9       9       8       9       9       8
       9       9       8       9       9       8       9       9       8       9
       9       8       9       9       8       9       9       8       9       9
       8       9       9       8       9       9       8       9       9       8
       9       9       8       9       9       8       9       9       8       9
       9       8       9       9       8       9       9       8       9       9
       8       9       9       8       9       9       8       9       9       8
       9       9       8       9       9       8       9       9       8       9
       9       8       9       9       8       9       9       8       9       9
       8       9       9       8       9       9       8       9       9       8
       9       9       8       9       9       8       9       9       8       9
       9       8       9       9       8       9       9       8       9       9
       8       9       9       8       9       9       8       9       9       8
       9       9       8       9       9       8       9       9       8       9
       9       8       9       9       8       9       9       8       9       9
       8       9       9       8       9       9       8       9       9       8
       9       9       8       9       9       8       9       9       8       9
       9       8       9       9       8       9       9       8       9       9
       8       9       9       8       9       9       8       9       9       8
       9       9       8       9       9       8       9       9       8       9
       9       8       9       9       8       9       9       8       9       9
       8       9       9       8       9       9       8       9       9       8
       9       9       8       9       9       8       9       9       8       9
       9       8       9       9       8       9       9       8       9       9
       8       9       9       8       9       9       8       9       9       8
       9       9       8       9       9       8       9       9       8       9
       9       8       9       9       8       9       9       8       9       9
       8       9       9       8       9       9       8       9       9       8
       9       9       8       9       9       8       9       9       8       9
       9       8       9       9       8       9       9       8       9       9
       8       9       9       8       9       9       8       9       9       8
       9       9       8       9       9       8       9       9       8       9
       9       8       9       9       8       9       9       8       9       9
       8       9       9       8       9       9       8       9       9       8
       9       9       8       9       9       8       9       9       8       9
       9       8       9       9       8       9       9       8       9       9
       8       9       9       8       9       9       8       9       9       8
       9       9       8       9       9       8       9       9       8       9
       9       8       9       9       8       9       9       8       9       9
       8       9       9       8       9       9       8       9       9       8
       9       9       8       9       9       8       9       9       8       9
       9       8       9       9       8       9       9       8       9       9
       8       9       9       8       9       9       8       9       9       8
       9       9       8       9       9       8       9       9       8       9
       9       8       9       9       8       9       9       8       9       9
       8       9       9       8       9       9       8       9       9       8
       9       9       8       9       9       8       9       9       8       9
       9       8       9       9       8       9       9       8       9       9
       8       9       9       8       9       9       8       9       9       8
       9       9       8       9       9       8       9       9       8       9
       9       8       9       9       8       9       9       8       9       9
       8       9       9       8       9       9       8       9       9       8
       9       9       8       9       9       8       9       9       8       9
       9       8       9       9       8       9       9       8       9       9
       8       9       9       8       9       9       8       9       9       8
       9       9       8       9       9       8       9       9       8       9
       9       8       9       9       8       9       9       8       9       9
       8       9       9       8       9       9       8       9       9       8
       9       9       8       9       9       8       9       9       8       9
       9       8       9       9       8       9       9       8       9       9
       8       9       9       8       9       9       8       9       9       8
       9       9       8       9       9       8       9       9       8       9
       9       8       9       9       8       9       9       8       9       9
       8       9       9       8       9       9       8       9       9       8
       9       9       8       9       9       8       9       9       8       9
       9       8       9       9       8       9       9       8       9       9
       8       9       9       8       9       9       8       9       9       8
       9       9       8       9       9       8       9       9       8       9
       9       8       9       9       8       9       9       8       9       9
       8       9       9       8       9       9       8       9       9       8
       9       9       8       9       9       8       9       9       8       9
       9       8       9       9       8       9       9       8       9       9
       8       9       9       8       9       9       8       9       9       8
       9       9       8       9       9       8       9       9       8       9
       9       8       9       9       8       9       9       8       9       9
       8       9       9       8       9       9       8       9       9       8
       9       9       8       9       9       8       9       9       8       9
       9       8       9       9       8       9       9       8       9       9
       8       9       9       8       9       9       8       9       9       8
       9       9       8       9       9       8       9       9       8       9
       9       8       9       9       8       9       9       8       9       9
       8       9       9       8       9       9       8       9       9       8
       9       9       8       9       9       8       9       9       8       9
       9       8       9       9       8       9       9       8       9       9
       8       9       9       8       9       9       8       9       9       8
       9       9       8       9       9       8       9       9       8       9
       9       8       9       9       8       9       9       8       9       9
       8       9       9       8       9       9       8       9       9       8
       9       9       8       9       9       8       9       9       8       9
       9       8       9       9       8       9       9       8       9       9
       8       9       9       8       9       9       8       9       9       8
       9       9       8       9       9       8       9       9       8       9
       9       8       9       9       8       9       9       8       9       9
       8       9       9       8       9       9       8       9       9       8
       9       9       8       9       9       8       9       9       8       9
       9       8       9       9       8       9       9       8       9       9
       8       9       9       8       9       9       8       9       9       8
       9       9       8       9       9       8       9       9       8       9
       9       8       9       9       8       9       9       8       9       9
       8       9       9       8       9       9       8       9       9       8
       9       9       8       9       9       8       9       9       8       9
       9       8       9       9       8       9       9       8       9       9
       8       9       9       8       9       9       8       9       9       8
       9       9       8       9       9       8       9       9       8       9
       9       8       9       9       8       9       9       8       9       9
       8       9       9       8       9       9       8       9       9       8
       9       9       8       9       9       8       9       9       8       9
       9       8       9       9       8       9       9       8       9       9
       8       9       9       8       9       9       8       9       9       8
       9       9       8       9       9       8       9       9       8       9
       9       8       9       9       8       9       9       8       9       9
       8       9       9       8       9       9       8       9       9       8
       9       9       8       9       9       8       9       9       8       9
       9       8       9       9       8       9       9       8       9       9
       8       9       9       8       9       9       8       9       9       8
       9       9       8       9       9       8       9       9       8       9
       9       8       9       9       8       9       9       8       9       9
       8       9       9       8       9       9       8       9       9       8
       9       9       8       9       9       8       9       9       8       9
       9       8       9       9       8       9       9       8       9       9
       8       9       9       8       9       9       8       9       9       8
       9       9       8       9       9       8       9       9       8       9
       9       8       9       9       8       9       9       8       9       9
       8       9       9       8       9       9       8       9       9       8
       9       9       8       9       9       8       9       9       8       9
       9       8       9       9       8       9       9       8       9       9
       8       9       9       8       9       9       8       9       9       8
       9       9       8       9       9       8       9       9       8       9
       9       8       9       9       8       9       9       8       9       9
       8       9       9       8       9       9       8       9       9       8
       9       9       8       9       9       8       9       9       8       9
       9       8       9       9       8       9       9       8       9       9
       8       9       9       8       9       9       8       9       9       8
       9       9       8       9       9       8       9       9       8       9
       9       8       9       9       8       9       9       8       9       9
       8       9       9       8       9       9       8       9       9       8
       9       9       8       9       9       8       9       9       8       9
       9       8       9       9       8       9       9       8       9       9
       8       9       9       8       9       9       8       9       9       8
       9       9       8       9       9       8       9       9       8       9
       9       8       9       9       8       9       9       8       9       9
       8       9       9       8       9       9       8       9       9       8
       9       9       8       9       9       8       9       9       8       9
       9       8       9       9       8       9       9       8       9       9
       8       9       9       8       9       9       8       9       9       8
       9       9       8       9       9       8       9       9       8       9
       9       8       9       9       8       9       9       8       9       9
       8       9       9       8       9       9       8       9       9       8
       9       9       8       9       9       8       9       9       8       9
       9       8       9       9       8       9       9       8       9       9
       8       9       9       8       9       9       8       9       9       8
       9       9       8       9       9       8       9       9       8       9
       9       8       9       9       8       9       9       8       9       9
       8       9       9       8       9       9       8       9       9       8
       9       9       8       9       9       8       9       9       8       9
       9       8       9       9       8       9       9       8       9       9
       8       9       9       8       9       9       8       9       9       8
       9       9       8       9       9       8       9       9       8       9
       9       8       9       9       8       9       9       8       9       9
       8       9       9       8       9       9       8       9       9       8
       9       9       8       9       9       8       9       9       8       9
       9       8       9       9       8       9       9       8       9       9
       8       9       9       8       9       9       8       9       9       8
       9       9       8       9       9       8       9       9       8       9
       9       8       9       9       8       9       9       8       9       9
       8       9       9       8       9       9       8       9       9       8
       9       9       8       9       9       8       9       9       8       9
       9       8       9       9       8       9       9       8       9       9
       8       9       9       8       9       9       8       9       9       8
       9       9       8       9       9       8       9       9       8       9
       9       8       9       9       8       9       9       8       9       9
       8       9       9       8       9       9       8       9       9       8
       9       9       8       9       9       8       9       9       8       9
       9       8       9       9       8       9       9       8       9       9
       8       9       9       8       9       9       8       9       9       8
       9       9       8       9       9       8       9       9       8       9
       9       8       9       9       8       9       9       8       9       9
       8       9       9       8       9       9       8       9       9       8
       9       9       8       9       9       8       9       9       8       9
       9       8       9       9       8       9       9       8       9       9
       8       9       9       8       9       9       8       9       9       8
       9       9       8       9       9       8       9       9       8       9
       9       8       9       9       8       9       9       8       9       9
       8       9       9       8       9       9       8       9       9       8
       9       9       8       9       9       8       9       9       8       9
       9       8       9       9       8       9       9       8       9       9
       8       9       9       8       9       9       8       9       9       8
       9       9       8       9       9       8       9       9       8       9
       9       8       9       9       8       9       9       8       9       9
       8       9       9       8       9       9       8       9       9       8
       9       9       8       9       9       8       9       9       8       9
       9       8       9       9       8       9       9       8       9       9
       8       9       9       8       9       9       8       9       9       8
       9       9       8       9       9       8       9       9       8       9
       9       8       9       9       8       9       9       8       9       9
       8       9       9       8       9       9       8       9       9       8
       9       9       8       9       9       8       9       9       8       9
       9       8       9       9       8       9       9       8       9       9
       8       9       9       8       9       9       8       9       9       8
       9       9       8       9       9       8       9       9       8       9
       9       8       9       9       8       9       9       8       9       9
       8       9       9       8       9       9       8       9       9       8
       9       9       8       9       9       8       9       9       8       9
       9       8       9       9       8       9       9       8       9       9
       8       9       9       8       9       9       8       9       9       8
       9       9       8       9       9       8       9       9       8       9
       9       8       9       9       8       9       9       8       9       9
       8       9       9       8       9       9       8       9       9       8
       9       9       8       9       9       8       9       9       8       9
       9       8       9       9       8       9       9       8       9       9
       8       9       9       8       9       9       8       9       9       8
       9       9       8       9       9       8       9       9       8       9
       9       8       9       9       8       9       9       8       9       9
       8       9       9       8       9       9       8       9       9       8
       9       9       8       9       9       8       9       9       8       9
       9       8       9       9       8       9       9       8       9       9
       8       9       9       8       9       9       8       9       9       8
       9       9       8       9       9       8       9       9       8       9
       9       8       9       9       8       9       9       8       9       9
       8       9       9       8       9       9       8       9       9       8
       9       9       8       9       9       8       9       9       8       9
       9       8       9       9       8       9       9       8       9       9
       8       9       9       8       9       9       8       9       9       8
       9       9       8       9       9       8       9       9       8       9
       9       8       9       9       8       9       9       8       9       9
       8       9       9       8       9       9       8       9       9       8
       9       9       8       9       9       8       9       9       8       9
       9       8       9       9       8       9       9       8       9       9
       8       9       9       8       9       9       8       9       9       8
       9       9       8       9       9       8       9       9       8       9
       9       8       9       9       8       9       9       8       9       9
       8       9       9       8       9       9       8       9       9       8
       9       9       8       9       9       8       9       9       8       9
       9       8       9       9       8       9       9       8       9       9
       8       9       9       8       9       9       8       9       9       8
       9       9       8       9       9       8       9       9       8       9
       9       8       9       9       8       9       9       8       9       9
       8       9       9       8       9       9       8       9       9       8
       9       9       8       9       9       8       9       9       8       9
       9       8       9       9       8       9       9       8       9       9
       8       9       9       8       9       9       8       9       9       8
       9       9       8       9       9       8       9       9       8       9
       9       8       9       9       8       9       9       8       9       9
       8       9       9       8       9       9       8       9       9       8
       9       9       8       9       9       8       9       9       8       9
       9       8       9       9       8       9       9       8       9       9
       8       9       9       8       9       9       8       9       9       8
       9       9       8       9       9       8       9       9       8       9
       9       8       9       9       8       9       9       8       9       9
       8       9       9       8       9       9       8       9       9       8
       9       9       8       9       9       8       9       9       8       9
       9       8       9       9       8       9       9       8       9       9
       8       9       9       8       9       9       8       9       9       8
       9       9       8       9       9       8       9       9       8       9
       9       8       9       9       8       9       9       8       9       9
       8       9       9       8       9       9       8       9       9       8
       9       9       8       9       9       8       9       9       8       9
       9       8       9       9       8       9       9       8       9       9
       8       9       9       8       9       9       8       9       9       8
       9       9       8       9       9       8       9       9       8       9
       9       8       9       9       8       9       9       8       9       9
       8       9       9       8       9       9       8       9       9       8
       9       9       8       9       9       8       9       9       8       9
       9       8       9       9       8       9       9       8       9       9
       8       9       9       8       9       9       8       9       9       8
       9       9       8       9       9       8       9       9       8       9
       9       8       9       9       8       9       9       8       9       9
       8       9       9       8       9       9       8       9       9       8
       9       9       8       9       9       8       9       9       8       9
       9       8       9       9       8       9       9       8       9       9
       8       9       9       8       9       9       8       9       9       8
       9       9       8       9       9       8       9       9       8       9
       9       8       9       9       8       9       9       8       9       9
       8       9       9       8       9       9       8       9       9       8
       9       9       8       9       9       8       9       9       8       9
       9       8       9       9       8       9       9       8       9       9
       8       9       9       8       9       9       8       9       9       8
       9       9       8       9       9       8       9       9       8       9
       9       8       9       9       8       9       9       8       9       9
       8       9       9       8       9       9       8       9       9       8
       9       9       8       9       9       8       9       9       8       9
       9       8       9       9       8       9       9       8       9       9
       8       9       9       8       9       9       8       9       9       8
       9       9       8       9       9       8       9       9       8       9
       9       8       9       9       8       9       9       8       9       9
       8       9       9       8       9       9       8       9       9       8
       9       9       8       9       9       8       9       9       8       9
       9       8       9       9       8       9       9       8       9       9
       8       9       9       8       9       9       8       9       9       8
       9       9       8       9       9       8       9       9       8       9
       9       8       9       9       8       9       9       8       9       9
       8       9       9       8       9       9       8       9       9       8
       9       9       8       9       9       8       9       9       8       9
       9       8       9       9       8       9       9       8       9       9
       8       9       9       8       9       9       8       9       9       8
       9       9       8       9       9       8       9       9       8       9
       9       8       9       9       8       9       9       8       9       9
       8       9       9       8       9       9       8       9       9       8
       9       9       8       9       9       8       9       9       8       9
       9       8       9       9       8       9       9       8       9       9
       8       9       9       8       9       9       8       9       9       8
       9       9       8       9       9       8       9       9       8       9
       9       8       9       9       8       9       9       8       9       9
       8       9       9       8       9       9       8       9       9       8
       9       9       8       9       9       8       9       9       8       9
       9       8       9       9       8       9       9       8       9       9
       8       9       9       8       9       9       8       9       9       8
       9       9       8       9       9       8       9       9       8       9
       9       8       9       9       8       9       9       8       9       9
       8       9       9       8       9       9       8       9       9       8
       9       9       8       9       9       8       9       9       8       9
       9       8       9       9       8       9       9       8       9       9
       8       9       9       8       9       9       8       9       9       8
       9       9       8       9       9       8       9       9       8       9
       9       8       9       9       8       9       9       8       9       9
       8       9       9       8       9       9       8       9       9       8
       9       9       8       9       9       8       9       9       8       9
       9       8       9       9       8       9       9       8       9       9
       8       9       9       8       9       9       8       9       9       8
       9       9       8       9       9       8       9       9       8       9
       9       8       9       9       8       9       9       8       9       9
       8       9       9       8       9       9       8       9       9       8
       9       9       8       9       9       8       9       9       8       9
       9       8       9       9       8       9       9       8       9       9
       8       9       9       8       9       9       8       9       9       8
       9       9       8       9       9       8       9       9       8       9
       9       8       9       9       8       9       9       8       9       9
       8       9       9       8       9       9       8       9       9       8
       9       9       8       9       9       8       9       9       8       9
       9       8       9       9       8       9       9       8       9       9
       8       9       9       8       9       9       8       9       9       8
       9       9       8       9       9       8       9       9       8       9
       9       8       9       9       8       9       9       8       9       9
       8       9       9       8       9       9       8       9       9       8
       9       9       8       9       9       8       9       9       8       9
       9       8       9       9       8       9       9       8       9       9
       8       9       9       8       9       9       8       9       9       8
       9       9       8       9       9       8       9       9       8       9
       9       8       9       9       8       9       9       8       9       9
       8       9       9       8       9       9       8       9       9       8
       9       9       8       9       9       8       9       9       8       9
       9       8       9       9       8       9       9       8       9       9
       8       9       9       8       9       9       8       9       9       8
       9       9       8       9       9       8       9       9       8       9
       9       8       9       9       8       9       9       8       9       9
       8       9       9       8       9       9       8       9       9       8
       9       9       8       9       9       8       9       9       8       9
       9       8       9       9       8       9       9       8       9       9
       8       9       9       8       9       9       8       9       9       8
       9       9       8       9       9       8       9       9       8       9
       9       8       9       9       8       9       9       8       9       9
       8       9       9       8       9       9       8       9       9       8
       9       9       8       9       9       8       9       9       8       9
       9       8       9       9       8       9       9       8       9       9
       8       9       9       8       9       9       8       9       9       8
       9       9       8       9       9       8       9       9       8       9
       9       8       9       9       8       9       9       8       9       9
       8       9       9       8       9       9       8       9       9       8
       9       9       8       9       9       8       9       9       8       9
       9       8       9       9       8       9       9       8       9       9
       8       9       9       8       9       9       8       9       9       8
       9       9       8       9       9       8       9       9       8       9
       9       8       9       9       8       9       9       8       9       9
       8       9       9       8       9       9       8       9       9       8
       9       9       8       9       9       8       9       9       8       9
       9       8       9       9       8       9       9       8       9       9
       8       9       9       8       9       9       8       9       9       8
       9       9       8       9       9       8       9       9       8       9
       9       8       9       9       8       9       9       8       9       9
       8       9       9       8       9       9       8       9       9       8
       9       9       8       9       9       8       9       9       8       9
       9       8       9       9       8       9       9       8       9       9
       8       9       9       8       9       9       8       9       9       8
       9       9       8       9       9       8       9       9       8       9
       9       8       9       9       8       9       9       8       9       9
       8       9       9       8       9       9       8       9       9       8
       9       9       8       9       9       8       9       9       8       9
       9       8       9       9       8       9       9       8       9       9
       8       9       9       8       9       9       8       9       9       8
       9       9       8       9       9       8       9       9       8       9
       9       8       9       9       8       9       9       8       9       9
       8       9       9       8       9       9       8       9       9       8
       9       9       8       9       9       8       9       9       8       9
       9       8       9       9       8       9       9       8       9       9
       8       9       9       8       9       9       8       9       9       8
       9       9       8       9       9       8       9       9       8       9
       9       8       9       9       8       9       9       8       9       9
       8       9       9       8       9       9       8       9       9       8
       9       9       8       9       9       8       9       9       8       9
       9       8       9       9       8       9       9       8       9       9
       8       9       9       8       9       9       8       9       9       8
       9       9       8       9       9       8       9       9       8       9
       9       8       9       9       8       9       9       8       9       9
       8       9       9       8       9       9       8       9       9       8
       9       9       8       9       9       8       9       9       8       9
       9       8       9       9       8       9       9       8       9       9
       8       9       9       8       9       9       8       9       9       8
       9       9       8       9       9       8       9       9       8       9
       9       8       9       9       8       9       9       8       9       9
       8       9       9       8       9       9       8       9       9       8
       9       9       8       9       9       8       9       9       8       9
       9       8       9       9       8       9       9       8       9       9
       8       9       9       8       9       9       8       9       9       8
       9       9       8       9       9       8       9       9       8       9
       9       8       9       9       8       9       9       8       9       9
       8       9       9       8       9       9       8       9       9       8
       9       9       8       9       9       8       9       9       8       9
       9       8       9       9       8       9       9       8       9       9
       8       9       9       8       9       9       8       9       9       8
       9       9       8       9       9       8       9       9       8       9
       9       8       9       9       8       9       9       8       9       9
       8       9       9       8       9       9       8       9       9       8
       9       9       8       9       9       8       9       9       8       9
       9       8       9       9       8       9       9       8       9       9
       8       9       9       8       9       9       8       9       9       8
       9       9       8       9       9       8       9       9       8       9
       9       8       9       9       8       9       9       8       9       9
       8       9       9       8       9       9       8       9       9       8
       9       9       8       9       9       8       9       9       8       9
       9       8       9       9       8       9       9       8       9       9
       8       9       9       8       9       9       8       9       9       8
       9       9       8       9       9       8       9       9       8       9
       9       8       9       9       8       9       9       8       9       9
       8       9       9       8       9       9       8       9       9       8
       9       9       8       9       9       8       9       9       8       9
       9       8       9       9       8       9       9       8       9       9
       8       9       9       8       9       9       8       9       9       8
       9       9       8       9       9       8       9       9       8       9
       9       8       9       9       8       9       9       8       9       9
       8       9       9       8       9       9       8       9       9       8
       9       9       8       9       9       8       9       9       8       9
       9       8       9       9       8       9       9       8       9       9
       8       9       9       8       9       9       8       9       9       8
       9       9       8       9       9       8       9       9       8       9
       9       8       9       9       8       9       9       8       9       9
       8       9       9       8       9       9       8       9       9       8
       9       9       8       9       9       8       9       9       8       9
       9       8       9       9       8       9       9       8       9       9
       8       9       9       8       9       9       8       9       9       8
       9       9       8       9       9       8       9       9       8       9
       9       8       9       9       8       9       9       8       9       9
       8       9       9       8       9       9       8       9       9       8
       9       9       8       9       9       8       9       9       8       9
       9       8       9       9       8       9       9       8       9       9
       8       9       9       8       9       9       8       9       9       8
       9       9       8       9       9       8       9       9       8       9
       9       8       9       9       8       9       9       8       9       9
       8       9       9       8       9       9       8       9       9       8
       9       9       8       9       9       8       9       9       8       9
       9       8       9       9       8       9       9       8       9       9
       8       9       9       8       9       9       8       9       9       8
       9       9       8       9       9       8       9       9       8       9
       9       8       9       9       8       9       9       8       9       9
       8       9       9       8       9       9       8       9       9       8
       9       9       8       9       9       8       9       9       8       9
       9       8       9       9       8       9       9       8       9       9
       8       9       9       8       9       9       8       9       9       8
       9       9       8       9       9       8       9       9       8       9
       9       8       9       9       8       9       9       8       9       9
       8       9       9       8       9       9       8       9       9       8
       9       9       8       9       9       8       9       9       8       9
       9       8       9       9       8       9       9       8       9       9
       8       9       9       8       9       9       8       9       9       8
       9       9       8       9       9       8       9       9       8       9
       9       8       9       9       8       9       9       8       9       9
       8       9       9       8       9       9       8       9       9       8
       9       9       8       9       9       8       9       9       8       9
       9       8       9       9       8       9       9       8       9       9
       8       9       9       8       9       9       8       9       9       8
       9       9       8       9       9       8       9       9       8       9
       9       8       9       9       8       9       9       8       9       9
       8       9       9       8       9       9       8       9       9       8
       9       9       8       9       9       8       9       9       8       9
       9       8       9       9       8       9       9       8       9       9
       8       9       9       8       9       9       8       9       9       8
       9       9       8       9       9       8       9       9       8       9
       9       8       9       9       8       9       9       8       9       9
       8       9       9       8       9       9       8       9       9       8
       9       9       8       9       9       8       9       9       8       9
       9       8       9       9       8       9       9       8       9       9
       8       9       9       8       9       9       8       9       9       8
       9       9       8       9       9       8       9       9       8       9
       9       8       9       9       8       9       9       8       9       9
       8       9       9       8       9       9       8       9       9       8
       9       9       8       9       9       8       9       9       8       9
       9       8       9       9       8       9       9       8       9       9
       8       9       9       8       9       9       8       9       9       8
       9       9       8       9       9       8       9       9       8       9
       9       8       9       9       8       9       9       8       9       9
       8       9       9       8       9       9       8       9       9       8
       9       9       8       9       9       8       9       9       8       9
       9       8       9       9       8       9       9       8       9       9
       8       9       9       8       9       9       8       9       9       8
       9       9       8       9       9       8       9       9       8       9
       9       8       9       9       8       9       9       8       9       9
       8       9       9       8       9       9       8       9       9       8
       9       9       8       9       9       8       9       9       8       9
       9       8       9       9       8       9       9       8       9       9
       8       9       9       8       9       9       8       9       9       8
       9       9       8       9       9       8       9       9       8       9
       9       8       9       9       8       9       9       8       9       9
       8       9       9       8       9       9       8       9       9       8
       9       9       8       9       9       8       9       9       8       9
       9       8       9       9       8       9       9       8       9       9
       8       9       9       8       9       9       8       9       9       8
       9       9       8       9       9       8       9       9       8       9
       9       8       9       9       8       9       9       8       9       9
       8       9       9       8       9       9       8       9       9       8
       9       9       8       9       9       8       9       9       8       9
       9       8       9       9       8       9       9       8       9       9
       8       9       9       8       9       9       8       9       9       8
       9       9       8       9       9       8       9       9       8       9
       9       8       9       9       8       9       9       8       9       9
       8       9       9       8       9       9       8       9       9       8
       9       9       8       9       9       8       9       9       8       9
       9       8       9       9       8       9       9       8       9       9
       8       9       9       8       9       9       8       9       9       8
       9       9       8       9       9       8       9       9       8       9
       9       8       9       9       8       9       9       8       9       9
       8       9       9       8       9       9       8       9       9       8
       9       9       8       9       9       8       9       9       8       9
       9       8       9       9       8       9       9       8       9       9
       8       9       9       8       9       9       8       9       9       8
       9       9       8       9       9       8       9       9       8       9
       9       8       9       9       8       9       9       8       9       9
       8       9       9       8       9       9       8       9       9       8
       9       9       8       9       9       8       9       9       8       9
       9       8       9       9       8       9       9       8       9       9
       8       9       9       8       9       9       8       9       9       8
       9       9       8       9       9       8       9       9       8       9
       9       8       9       9       8       9       9       8       9       9
       8       9       9       8       9       9       8       9       9       8
       9       9       8       9       9       8       9       9       8       9
       9       8       9       9       8       9       9       8       9       9
       8       9       9       8       9       9       8       9       9       8
       9       9       8       9       9       8       9       9       8       9
       9       8       9       9       8       9       9       8       9       9
       8       9       9       8       9       9       8       9       9       8
       9       9       8       9       9       8       9       9       8       9
       9       8       9       9       8       9       9       8       9       9
       8       9       9       8       9       9       8       9       9       8
       9       9       8       9       9       8       9       9       8       9
       9       8       9       9       8       9       9       8       9       9
       8       9       9       8       9       9       8       9       9       8
       9       9       8       9       9       8       9       9       8       9
       9       8       9       9       8       9       9       8       9       9
       8       9       9       8       9       9       8       9       9       8
       9       9       8       9       9       8       9       9       8       9
       9       8       9       9       8       9       9       8       9       9
       8       9       9       8       9       9       8       9       9       8
       9       9       8       9       9       8       9       9       8       9
       9       8       9       9       8       9       9       8       9       9
       8       9       9       8       9       9       8       9       9       8
       9       9       8       9       9       8       9       9       8       9
       9       8       9       9       8       9       9       8       9       9
       8       9       9       8       9       9       8       9       9       8
       9       9       8       9       9       8       9       9       8       9
       9       8       9       9       8       9       9       8       9       9
       8       9       9       8       9       9       8       9       9       8
       9       9       8       9       9       8       9       9       8       9
       9       8       9       9       8       9       9       8       9       9
       8       9       9       8       9       9       8       9       9       8
       9       9       8       9       9       8       9       9       8       9
       9       8       9       9       8       9       9       8       9       9
       8       9       9       8       9       9       8       9       9       8
       9       9       8       9       9       8       9       9       8       9
       9       8       9       9       8       9       9       8       9       9
       8       9       9       8       9       9       8       9       9       8
       9       9       8       9       9       8       9       9       8       9
       9       8       9       9       8       9       9       8       9       9
       8       9       9       8       9       9       8       9       9       8
       9       9       8       9       9       8       9       9       8       9
       9       8       9       9       8       9       9       8       9       9
       8       9       9       8       9       9       8       9       9       8
       9       9       8       9       9       8       9       9       8       9
       9       8       9       9       8       9       9       8       9       9
       8       9       9       8       9       9       8       9       9       8
       9       9       8       9       9       8       9       9       8       9
       9       8       9       9       8       9       9       8       9       9
       8       9       9       8       9       9       8       9       9       8
       9       9       8       9       9       8       9       9       8       9
       9       8       9       9       8       9       9       8       9       9
       8       9       9       8       9       9       8       9       9       8
       9       9       8       9       9       8       9       9       8       9
       9       8       9       9       8       9       9       8       9       9
       8       9       9       8       9       9       8       9       9       8
       9       9       8       9       9       8       9       9       8       9
       9       8       9       9       8       9       9       8       9       9
       8       9       9       8       9       9       8       9       9       8
       9       9       8       9       9       8       9       9       8       9
       9       8       9       9       8       9       9       8       9       9
       8       9       9       8       9       9       8       9       9       8
       9       9       8       9       9       8       9       9       8       9
       9       8       9       9       8       9       9       8       9       9
       8       9       9       8       9       9       8       9       9       8
       9       9       8       9       9       8       9       9       8       9
       9       8       9       9       8       9       9       8       9       9
       8       9       9       8       9       9       8       9       9       8
       9       9       8       9       9       8       9       9       8       9
       9       8       9       9       8       9       9       8       9       9
       8       9       9       8       9       9       8       9       9       8
       9       9       8       9       9       8       9       9       8       9
       9       8       9       9       8       9       9       8       9       9
       8       9       9       8       9       9       8       9       9       8
       9       9       8       9       9       8       9       9       8       9
       9       8       9       9       8       9       9       8       9       9
       8       9       9       8       9       9       8       9       9       8
       9       9       8       9       9       8       9       9       8       9
       9       8       9       9       8       9       9       8       9       9
       8       9       9       8       9       9       8       9       9       8
       9       9       8       9       9       8       9       9       8       9
       9       8       9       9       8       9       9       8       9       9
       8       9       9       8       9       9       8       9       9       8
       9       9       8       9       9       8       9       9       8       9
       9       8       9       9       8       9       9       8       9       9
       8       9       9       8       9       9       8       9       9       8
       9       9       8       9       9       8       9       9       8       9
       9       8       9       9       8       9       9       8       9       9
       8       9       9       8       9       9       8       9       9       8
       9       9       8       9       9       8       9       9       8       9
       9       8       9       9       8       9       9       8       9       9
       8       9       9       8       9       9       8       9       9       8
       9       9       8       9       9       8       9       9       8       9
       9       8       9       9       8       9       9       8       9       9
       8       9       9       8       9       9       8       9       9       8
       9       9       8       9       9       8       9       9       8       9
       9       8       9       9       8       9       9       8       9       9
       8       9       9       8       9       9       8       9       9       8
       9       9       8       9       9       8       9       9       8       9
       9       8       9       9       8       9       9       8       9       9
       8       9       9       8       9       9       8       9       9       8
       9       9       8       9       9       8       9       9       8       9
       9       8       9       9       8       9       9       8       9       9
       8       9       9       8       9       9       8       9       9       8
       9       9       8       9       9       8       9       9       8       9
       9       8       9       9       8       9       9       8       9       9
       8       9       9       8       9       9       8       9       9       8
       9       9       8       9       9       8       9       9       8       9
       9       8       9       9       8       9       9       8       9       9
       8       9       9       8       9       9       8       9       9       8
       9       9       8       9       9       8       9       9       8       9
       9       8       9       9       8       9       9       8       9       9
       8       9       9       8       9       9       8       9       9       8
       9       9       8       9       9       8       9       9       8       9
       9       8       9       9       8       9       9       8       9       9
       8       9       9       8       9       9       8       9       9       8
       9       9       8       9       9       8       9       9       8       9
       9       8       9       9       8       9       9       8       9       9
       8       9       9       8       9       9       8       9       9       8
       9       9       8       9       9       8       9       9       8       9
       9       8       9       9       8       9       9       8       9       9
       8       9       9       8       9       9       8       9       9       8
       9       9       8       9       9       8       9       9       8       9
       9       8       9       9       8       9       9       8       9       9
       8       9       9       8       9       9       8       9       9       8
       9       9       8       9       9       8       9       9       8       9
       9       8       9       9       8       9       9       8       9       9
       8       9       9       8       9       9       8       9       9       8
       9       9       8       9       9       8       9       9       8       9
       9       8       9       9       8       9       9       8       9       9
       8       9       9       8       9       9       8       9       9       8
       9       9       8       9       9       8       9       9       8       9
       9       8       9       9       8       9       9       8       9       9
       8       9       9       8       9       9       8       9       9       8
       9       9       8       9       9       8       9       9       8       9
       9       8       9       9       8       9       9       8       9       9
       8       9       9       8       9       9       8       9       9       8
       9       9       8       9       9       8       9       9       8       9
       9       8       9       9       8       9       9       8       9       9
       8       9       9       8       9       9       8       9       9       8
       9       9       8       9       9       8       9       9       8       9
       9       8       9       9       8       9       9       8       9       9
       8       9       9       8       9       9       8       9       9       8
       9       9       8       9       9       8       9       9       8       9
       9       8       9       9       8       9       9       8       9       9
       8       9       9       8       9       9       8       9       9       8
       9       9       8       9       9       8       9       9       8       9
       9       8       9       9       8       9       9       8       9       9
       8       9       9       8       9       9       8       9       9       8
       9       9       8       9       9       8       9       9       8       9
       9       8       9       9       8       9       9       8       9       9
       8       9       9       8       9       9       8       9       9       8
       9       9       8       9       9       8       9       9       8       9
       9       8       9       9       8       9       9       8       9       9
       8       9       9       8       9       9       8       9       9       8
       9       9       8       9       9       8       9       9       8       9
       9       8       9       9       8       9       9       8       9       9
       8       9       9       8       9       9       8       9       9       8
       9       9       8       9       9       8       9       9       8       9
       9       8       9       9       8       9       9       8       9       9
       8       9       9       8       9       9       8       9       9       8
       9       9       8       9       9       8       9       9       8       9
       9       8       9       9       8       9       9       8       9       9
       8       9       9       8       9       9       8       9       9       8
       9       9       8       9       9       8       9       9       8       9
       9       8       9       9       8       9       9       8       9       9
       8       9       9       8       9       9       8       9       9       8
       9       9       8       9       9       8       9       9       8       9
       9       8       9       9       8       9       9       8       9       9
       8       9       9       8       9       9       8       9       9       8
       9       9       8       9       9       8       9       9       8       9
       9       8       9       9       8       9       9       8       9       9
       8       9       9       8       9       9       8       9       9       8
       9       9       8       9       9       8       9       9       8       9
       9       8       9       9       8       9       9       8       9       9
       8       9       9       8       9       9       8       9       9       8
       9       9       8       9       9       8       9       9       8       9
       9       8       9       9       8       9       9       8       9       9
       8       9       9       8       9       9       8       9       9       8
       9       9       8       9       9       8       9       9       8       9
       9       8       9       9       8       9       9       8       9       9
       8       9       9       8       9       9       8       9       9       8
       9       9       8       9       9       8       9       9       8       9
       9       8       9       9       8       9       9       8       9       9
       8       9       9       8       9       9       8       9       9       8
       9       9       8       9       9       8       9       9       8       9
       9       8       9       9       8       9       9       8       9       9
       8       9       9       8       9       9       8       9       9       8
       9       9       8       9       9       8       9       9       8       9
       9       8       9       9       8       9       9       8       9       9
       8       9       9       8       9       9       8       9       9       8
       9       9       8       9       9       8       9       9       8       9
       9       8       9       9       8       9       9       8       9       9
       8       9       9       8       9       9       8       9       9       8
       9       9       8       9       9       8       9       9       8       9
       9       8       9       9       8       9       9       8       9       9
       8       9       9       8       9       9       8       9       9       8
       9       9       8       9       9       8       9       9       8       9
       9       8       9       9       8       9       9       8       9       9
       8       9       9       8       9       9       8       9       9       8
       9       9       8       9       9       8       9       9       8       9
       9       8       9       9       8       9       9       8       9       9
       8       9       9       8       9       9       8       9       9       8
       9       9       8       9       9       8       9       9       8       9
       9       8       9       9       8       9       9       8       9       9
       8       9       9       8       9       9       8       9       9       8
       9       9       8       9       9       8       9       9       8       9
       9       8       9       9       8       9       9       8       9       9
       8       9       9       8       9       9       8       9       9       8
       9       9       8       9       9       8       9       9       8       9
       9       8       9       9       8       9       9       8       9       9
       8       9       9       8       9       9       8       9       9       8
       9       9       8       9       9       8       9       9       8       9
       9       8       9       9       8       9       9       8       9       9
       8       9       9       8       9       9       8       9       9       8
       9       9       8       9       9       8       9       9       8       9
       9       8       9       9       8       9       9       8       9       9
       8       9       9       8       9       9       8       9       9       8
       9       9       8       9       9       8       9       9       8       9
       9       8       9       9
%FLAG NUMBER_EXCLUDED_ATOMS                                                     
%FORMAT(10I8)                                                                   
      20      16       6      15      16       4      14      17       5      13
       4      12       5      11       4       7       2       7       2       7
       2       3       2       1       1       1       1       1       1       1
       1       3       2       1       1       3       2       1       1       1
       1       2       1       1       2       1       1       2       1       1
       2       1       1       2       1       1       2       1       1       2
       1       1       2       1       1       2       1       1       2       1
       1       2       1       1       2       1       1       2       1       1
       2       1       1       2       1       1       2       1       1       2
       1       1       2       1       1       2       1       1       2       1
       1       2       1       1       2       1       1       2       1       1
       2       1       1       2       1       1       2       1       1       2
       1       1       2       1       1       2       1       1       2       1
       1       2       1       1       2       1       1       2       1       1
       2       1       1       2       1       1       2       1       1       2
       1       1       2       1       1       2       1       1       2       1
       1       2       1       1       2       1       1       2       1       1
       2       1       1       2       1       1       2       1       1       2
       1       1       2       1       1       2       1       1       2       1
       1       2       1       1       2       1       1       2       1       1
       2       1       1       2       1       1       2       1       1       2
       1       1       2       1       1       2       1       1       2       1
       1       2       1       1       2       1       1       2       1       1
       2       1       1       2       1       1       2       1       1       2
       1       1       2       1       1       2       1       1       2       1
       1       2       1       1       2       1       1       2       1       1
       2       1       1       2       1       1       2       1       1       2
       1       1       2       1       1       2       1       1       2       1
       1       2       1       1       2       1       1       2       1       1
       2       1       1       2       1       1       2       1       1       2
       1       1       2       1       1       2       1       1       2       1
       1       2       1       1       2       1       1       2       1       1
       2       1       1       2       1       1       2       1       1       2
       1       1       2       1       1       2       1       1       2       1
       1       2       1       1       2       1       1       2       1       1
       2       1       1       2       1       1       2       1       1       2
       1       1       2       1       1       2       1       1       2       1
       1       2       1       1       2       1       1       2       1       1
       2       1       1       2       1       1       2       1       1       2
       1       1       2       1       1       2       1       1       2       1
       1       2       1       1       2       1       1       2       1       1
       2       1       1       2       1       1       2       1       1       2
       1       1       2       1       1       2       1       1       2       1
       1       2       1       1       2       1       1       2       1       1
       2       1       1       2       1       1       2       1       1       2
       1       1       2       1       1       2       1       1       2       1
       1       2       1       1       2       1       1       2       1       1
       2       1       1       2       1       1       2       1       1       2
       1       1       2       1       1       2       1       1       2       1
       1       2       1       1       2       1       1       2       1       1
       2       1       1       2       1       1       2       1       1       2
       1       1       2       1       1       2       1       1       2       1
       1       2       1       1       2       1       1       2       1       1
       2       1       1       2       1       1       2       1       1       2
       1       1       2       1       1       2       1       1       2       1
       1       2       1       1       2       1       1       2       1       1
       2       1       1       2       1       1       2       1       1       2
       1       1       2       1       1       2       1       1       2       1
       1       2       1       1       2       1       1       2       1       1
       2       1       1       2       1       1       2       1       1       2
       1       1       2       1       1       2       1       1       2       1
       1       2       1       1       2       1       1       2       1       1
       2       1       1       2       1       1       2       1       1       2
       1       1       2       1       1       2       1       1       2       1
       1       2       1       1       2       1       1       2       1       1
       2       1       1       2       1       1       2       1       1       2
       1       1       2       1       1       2       1       1       2       1
       1       2       1       1       2       1       1       2       1       1
       2       1       1       2       1       1       2       1       1       2
       1       1       2       1       1       2       1       1       2       1
       1       2       1       1       2       1       1       2       1       1
       2       1       1       2       1       1       2       1       1       2
       1       1       2       1       1       2       1       1       2       1
       1       2       1       1       2       1       1       2       1       1
       2       1       1       2       1       1       2       1       1       2
       1       1       2       1       1       2       1       1       2       1
       1       2       1       1       2       1       1       2       1       1
       2       1       1       2       1       1       2       1       1       2
       1       1       2       1       1       2       1       1       2       1
       1       2       1       1       2       1       1       2       1       1
       2       1       1       2       1       1       2       1       1       2
       1       1       2       1       1       2       1       1       2       1
       1       2       1       1       2       1       1       2       1       1
       2       1       1       2       1       1       2       1       1       2
       1       1       2       1       1       2       1       1       2       1
       1       2       1       1       2       1       1       2       1       1
       2       1       1       2       1       1       2       1       1       2
       1       1       2       1       1       2       1       1       2       1
       1       2       1       1       2       1       1       2       1       1
       2       1       1       2       1       1       2       1       1       2
       1       1       2       1       1       2       1       1       2       1
       1       2       1       1       2       1       1       2       1       1
       2       1       1       2       1       1       2       1       1       2
       1       1       2       1       1       2       1       1       2       1
       1       2       1       1       2       1       1       2       1       1
       2       1       1       2       1       1       2       1       1       2
       1       1       2       1       1       2       1       1       2       1
       1       2       1       1       2       1       1       2       1       1
       2       1       1       2       1       1       2       1       1       2
       1       1       2       1       1       2       1       1       2       1
       1       2       1       1       2       1       1       2       1       1
       2       1       1       2       1       1       2       1       1       2
       1       1       2       1       1       2       1       1       2       1
       1       2       1       1       2       1       1       2       1       1
       2       1       1       2       1       1       2       1       1       2
       1       1       2       1       1       2       1       1       2       1
       1       2       1       1       2       1       1       2       1       1
       2       1       1       2       1       1       2       1       1       2
       1       1       2       1       1       2       1       1       2       1
       1       2       1       1       2       1       1       2       1       1
       2       1       1       2       1       1       2       1       1       2
       1       1       2       1       1       2       1       1       2       1
       1       2       1       1       2       1       1       2       1       1
       2       1       1       2       1       1       2       1       1       2
       1       1       2       1       1       2       1       1       2       1
       1       2       1       1       2       1       1       2       1       1
       2       1       1       2       1       1       2       1       1       2
       1       1       2       1       1       2       1       1       2       1
       1       2       1       1       2       1       1       2       1       1
       2       1       1       2       1       1       2       1       1       2
       1       1       2       1       1       2       1       1       2       1
       1       2       1       1       2       1       1       2       1       1
       2       1       1       2       1       1       2       1       1       2
       1       1       2       1       1       2       1       1       2       1
       1       2       1       1       2       1       1       2       1       1
       2       1       1       2       1       1       2       1       1       2
       1       1       2       1       1       2       1       1       2       1
       1       2       1       1       2       1       1       2       1       1
       2       1       1       2       1       1       2       1       1       2
       1       1       2       1       1       2       1       1       2       1
       1       2       1       1       2       1       1       2       1       1
       2       1       1       2       1       1       2       1       1       2
       1       1       2       1       1       2       1       1       2       1
       1       2       1       1       2       1       1       2       1       1
       2       1       1       2       1       1       2       1       1       2
       1       1       2       1       1       2       1       1       2       1
       1       2       1       1       2       1       1       2       1       1
       2       1       1       2       1       1       2       1       1       2
       1       1       2       1       1       2       1       1       2       1
       1       2       1       1       2       1       1       2       1       1
       2       1       1       2       1       1       2       1       1       2
       1       1       2       1       1       2       1       1       2       1
       1       2       1       1       2       1       1       2       1       1
       2       1       1       2       1       1       2       1       1       2
       1       1       2       1       1       2       1       1       2       1
       1       2       1       1       2       1       1       2       1       1
       2       1       1       2       1       1       2       1       1       2
       1       1       2       1       1       2       1       1       2       1
       1       2       1       1       2       1       1       2       1       1
       2       1       1       2       1       1       2       1       1       2
       1       1       2       1       1       2       1       1       2       1
       1       2       1       1       2       1       1       2       1       1
       2       1       1       2       1       1       2       1       1       2
       1       1       2       1       1       2       1       1       2       1
       1       2       1       1       2       1       1       2       1       1
       2       1       1       2       1       1       2       1       1       2
       1       1       2       1       1       2       1       1       2       1
       1       2       1       1       2       1       1       2       1       1
       2       1       1       2       1       1       2       1       1       2
       1       1       2       1       1       2       1       1       2       1
       1       2       1       1       2       1       1       2       1       1
       2       1       1       2       1       1       2       1       1       2
       1       1       2       1       1       2       1       1       2       1
       1       2       1       1       2       1       1       2       1       1
       2       1       1       2       1       1       2       1       1       2
       1       1       2       1       1       2       1       1       2       1
       1       2       1       1       2       1       1       2       1       1
       2       1       1       2       1       1       2       1       1       2
       1       1       2       1       1       2       1       1       2       1
       1       2       1       1       2       1       1       2       1       1
       2       1       1       2       1       1       2       1       1       2
       1       1       2       1       1       2       1       1       2       1
       1       2       1       1       2       1       1       2       1       1
       2       1       1       2       1       1       2       1       1       2
       1       1       2       1       1       2       1       1       2       1
       1       2       1       1       2       1       1       2       1       1
       2       1       1       2       1       1       2       1       1       2
       1       1       2       1       1       2       1       1       2       1
       1       2       1       1       2       1       1       2       1       1
       2       1       1       2       1       1       2       1       1       2
       1       1       2       1       1       2       1       1       2       1
       1       2       1       1       2       1       1       2       1       1
       2       1       1       2       1       1       2       1       1       2
       1       1       2       1       1       2       1       1       2       1
       1       2       1       1       2       1       1       2       1       1
       2       1       1       2       1       1       2       1       1       2
       1       1       2       1       1       2       1       1       2       1
       1       2       1       1       2       1       1       2       1       1
       2       1       1       2       1       1       2       1       1       2
       1       1       2       1       1       2       1       1       2       1
       1       2       1       1       2       1       1       2       1       1
       2       1       1       2       1       1       2       1       1       2
       1       1       2       1       1       2       1       1       2       1
       1       2       1       1       2       1       1       2       1       1
       2       1       1       2       1       1       2       1       1       2
       1       1       2       1       1       2       1       1       2       1
       1       2       1       1       2       1       1       2       1       1
       2       1       1       2       1       1       2       1       1       2
       1       1       2       1       1       2       1       1       2       1
       1       2       1       1       2       1       1       2       1       1
       2       1       1       2       1       1       2       1       1       2
       1       1       2       1       1       2       1       1       2       1
       1       2       1       1       2       1       1       2       1       1
       2       1       1       2       1       1       2       1       1       2
       1       1       2       1       1       2       1       1       2       1
       1       2       1       1       2       1       1       2       1       1
       2       1       1       2       1       1       2       1       1       2
       1       1       2       1       1       2       1       1       2       1
       1       2       1       1       2       1       1       2       1       1
       2       1       1       2       1       1       2       1       1       2
       1       1       2       1       1       2       1       1       2       1
       1       2       1       1       2       1       1       2       1       1
       2       1       1       2       1       1       2       1       1       2
       1       1       2       1       1       2       1       1       2       1
       1       2       1       1       2       1       1       2       1       1
       2       1       1       2       1       1       2       1       1       2
       1       1       2       1       1       2       1       1       2       1
       1       2       1       1       2       1       1       2       1       1
       2       1       1       2       1       1       2       1       1       2
       1       1       2       1       1       2       1       1       2       1
       1       2       1       1       2       1       1       2       1       1
       2       1       1       2       1       1       2       1       1       2
       1       1       2       1       1       2       1       1       2       1
       1       2       1       1       2       1       1       2       1       1
       2       1       1       2       1       1       2       1       1       2
       1       1       2       1       1       2       1       1       2       1
       1       2       1       1       2       1       1       2       1       1
       2       1       1       2       1       1       2       1       1       2
       1       1       2       1       1       2       1       1       2       1
       1       2       1       1       2       1       1       2       1       1
       2       1       1       2       1       1       2       1       1       2
       1       1       2       1       1       2       1       1       2       1
       1       2       1       1       2       1       1       2       1       1
       2       1       1       2       1       1       2       1       1       2
       1       1       2       1       1       2       1       1       2       1
       1       2       1       1       2       1       1       2       1       1
       2       1       1       2       1       1       2       1       1       2
       1       1       2       1       1       2       1       1       2       1
       1       2       1       1       2       1       1       2       1       1
       2       1       1       2       1       1       2       1       1       2
       1       1       2       1       1       2       1       1       2       1
       1       2       1       1       2       1       1       2       1       1
       2       1       1       2       1       1       2       1       1       2
       1       1       2       1       1       2       1       1       2       1
       1       2       1       1       2       1       1       2       1       1
       2       1       1       2       1       1       2       1       1       2
       1       1       2       1       1       2       1       1       2       1
       1       2       1       1       2       1       1       2       1       1
       2       1       1       2       1       1       2       1       1       2
       1       1       2       1       1       2       1       1       2       1
       1       2       1       1       2       1       1       2       1       1
       2       1       1       2       1       1       2       1       1       2
       1       1       2       1       1       2       1       1       2       1
       1       2       1       1       2       1       1       2       1       1
       2       1       1       2       1       1       2       1       1       2
       1       1       2       1       1       2       1       1       2       1
       1       2       1       1       2       1       1       2       1       1
       2       1       1       2       1       1       2       1       1       2
       1       1       2       1       1       2       1       1       2       1
       1       2       1       1       2       1       1       2       1       1
       2       1       1       2       1       1       2       1       1       2
       1       1       2       1       1       2       1       1       2       1
       1       2       1       1       2       1       1       2       1       1
       2       1       1       2       1       1       2       1       1       2
       1       1       2       1       1       2       1       1       2       1
       1       2       1       1       2       1       1       2       1       1
       2       1       1       2       1       1       2       1       1       2
       1       1       2       1       1       2       1       1       2       1
       1       2       1       1       2       1       1       2       1       1
       2       1       1       2       1       1       2       1       1       2
       1       1       2       1       1       2       1       1       2       1
       1       2       1       1       2       1       1       2       1       1
       2       1       1       2       1       1       2       1       1       2
       1       1       2       1       1       2       1       1       2       1
       1       2       1       1       2       1       1       2       1       1
       2       1       1       2       1       1       2       1       1       2
       1       1       2       1       1       2       1       1       2       1
       1       2       1       1       2       1       1       2       1       1
       2       1       1       2       1       1       2       1       1       2
       1       1       2       1       1       2       1       1       2       1
       1       2       1       1       2       1       1       2       1       1
       2       1       1       2       1       1       2       1       1       2
       1       1       2       1       1       2       1       1       2       1
       1       2       1       1       2       1       1       2       1       1
       2       1       1       2       1       1       2       1       1       2
       1       1       2       1       1       2       1       1       2       1
       1       2       1       1       2       1       1       2       1       1
       2       1       1       2       1       1       2       1       1       2
       1       1       2       1       1       2       1       1       2       1
       1       2       1       1       2       1       1       2       1       1
       2       1       1       2       1       1       2       1       1       2
       1       1       2       1       1       2       1       1       2       1
       1       2       1       1       2       1       1       2       1       1
       2       1       1       2       1       1       2       1       1       2
       1       1       2       1       1       2       1       1       2       1
       1       2       1       1       2       1       1       2       1       1
       2       1       1       2       1       1       2       1       1       2
       1       1       2       1       1       2       1       1       2       1
       1       2       1       1       2       1       1       2       1       1
       2       1       1       2       1       1       2       1       1       2
       1       1       2       1       1       2       1       1       2       1
       1       2       1       1       2       1       1       2       1       1
       2       1       1       2       1       1       2       1       1       2
       1       1       2       1       1       2       1       1       2       1
       1       2       1       1       2       1       1       2       1       1
       2       1       1       2       1       1       2       1       1       2
       1       1       2       1       1       2       1       1       2       1
       1       2       1       1       2       1       1       2       1       1
       2       1       1       2       1       1       2       1       1       2
       1       1       2       1       1       2       1       1       2       1
       1       2       1       1       2       1       1       2       1       1
       2       1       1       2       1       1       2       1       1       2
       1       1       2       1       1       2       1       1       2       1
       1       2       1       1       2       1       1       2       1       1
       2       1       1       2       1       1       2       1       1       2
       1       1       2       1       1       2       1       1       2       1
       1       2       1       1       2       1       1       2       1       1
       2       1       1       2       1       1       2       1       1       2
       1       1       2       1       1       2       1       1       2       1
       1       2       1       1       2       1       1       2       1       1
       2       1       1       2       1       1       2       1       1       2
       1       1       2       1       1       2       1       1       2       1
       1       2       1       1       2       1       1       2       1       1
       2       1       1       2       1       1       2       1       1       2
       1       1       2       1       1       2       1       1       2       1
       1       2       1       1       2       1       1       2       1       1
       2       1       1       2       1       1       2       1       1       2
       1       1       2       1       1       2       1       1       2       1
       1       2       1       1       2       1       1       2       1       1
       2       1       1       2       1       1       2       1       1       2
       1       1       2       1       1       2       1       1       2       1
       1       2       1       1       2       1       1       2       1       1
       2       1       1       2       1       1       2       1       1       2
       1       1       2       1       1       2       1       1       2       1
       1       2       1       1       2       1       1       2       1       1
       2       1       1       2       1       1       2       1       1       2
       1       1       2       1       1       2       1       1       2       1
       1       2       1       1       2       1       1       2       1       1
       2       1       1       2       1       1       2       1       1       2
       1       1       2       1       1       2       1       1       2       1
       1       2       1       1       2       1       1       2       1       1
       2       1       1       2       1       1       2       1       1       2
       1       1       2       1       1       2       1       1       2       1
       1       2       1       1       2       1       1       2       1       1
       2       1       1       2       1       1       2       1       1       2
       1       1       2       1       1       2       1       1       2       1
       1       2       1       1       2       1       1       2       1       1
       2       1       1       2       1       1       2       1       1       2
       1       1       2       1       1       2       1       1       2       1
       1       2       1       1       2       1       1       2       1       1
       2       1       1       2       1       1       2       1       1       2
       1       1       2       1       1       2       1       1       2       1
       1       2       1       1       2       1       1       2       1       1
       2       1       1       2       1       1       2       1       1       2
       1       1       2       1       1       2       1       1       2       1
       1       2       1       1       2       1       1       2       1       1
       2       1       1       2       1       1       2       1       1       2
       1       1       2       1       1       2       1       1       2       1
       1       2       1       1       2       1       1       2       1       1
       2       1       1       2       1       1       2       1       1       2
       1       1       2       1       1       2       1       1       2       1
       1       2       1       1       2       1       1       2       1       1
       2       1       1       2       1       1       2       1       1       2
       1       1       2       1       1       2       1       1       2       1
       1       2       1       1       2       1       1       2       1       1
       2       1       1       2       1       1       2       1       1       2
       1       1       2       1       1       2       1       1       2       1
       1       2       1       1       2       1       1       2       1       1
       2       1       1       2       1       1       2       1       1       2
       1       1       2       1       1       2       1       1       2       1
       1       2       1       1       2       1       1       2       1       1
       2       1       1       2       1       1       2       1       1       2
       1       1       2       1       1       2       1       1       2       1
       1       2       1       1       2       1       1       2       1       1
       2       1       1       2       1       1       2       1       1       2
       1       1       2       1       1       2       1       1       2       1
       1       2       1       1       2       1       1       2       1       1
       2       1       1       2       1       1       2       1       1       2
       1       1       2       1       1       2       1       1       2       1
       1       2       1       1       2       1       1       2       1       1
       2       1       1       2       1       1       2       1       1       2
       1       1       2       1       1       2       1       1       2       1
       1       2       1       1       2       1       1       2       1       1
       2       1       1       2       1       1       2       1       1       2
       1       1       2       1       1       2       1       1       2       1
       1       2       1       1       2       1       1       2       1       1
       2       1       1       2       1       1       2       1       1       2
       1       1       2       1       1       2       1       1       2       1
       1       2       1       1       2       1       1       2       1       1
       2       1       1       2       1       1       2       1       1       2
       1       1       2       1       1       2       1       1       2       1
       1       2       1       1       2       1       1       2       1       1
       2       1       1       2       1       1       2       1       1       2
       1       1       2       1       1       2       1       1       2       1
       1       2       1       1       2       1       1       2       1       1
       2       1       1       2       1       1       2       1       1       2
       1       1       2       1       1       2       1       1       2       1
       1       2       1       1       2       1       1       2       1       1
       2       1       1       2       1       1       2       1       1       2
       1       1       2       1       1       2       1       1       2       1
       1       2       1       1       2       1       1       2       1       1
       2       1       1       2       1       1       2       1       1       2
       1       1       2       1       1       2       1       1       2       1
       1       2       1       1       2       1       1       2       1       1
       2       1       1       2       1       1       2       1       1       2
       1       1       2       1       1       2       1       1       2       1
       1       2       1       1       2       1       1       2       1       1
       2       1       1       2       1       1       2       1       1       2
       1       1       2       1       1       2       1       1       2       1
       1       2       1       1       2       1       1       2       1       1
       2       1       1       2       1       1       2       1       1       2
       1       1       2       1       1       2       1       1       2       1
       1       2       1       1       2       1       1       2       1       1
       2       1       1       2       1       1       2       1       1       2
       1       1       2       1       1       2       1       1       2       1
       1       2       1       1       2       1       1       2       1       1
       2       1       1       2       1       1       2       1       1       2
       1       1       2       1       1       2       1       1       2       1
       1       2       1       1       2       1       1       2       1       1
       2       1       1       2       1       1       2       1       1       2
       1       1       2       1       1       2       1       1       2       1
       1       2       1       1       2       1       1       2       1       1
       2       1       1       2       1       1       2       1       1       2
       1       1       2       1       1       2       1       1       2       1
       1       2       1       1       2       1       1       2       1       1
       2       1       1       2       1       1       2       1       1       2
       1       1       2       1       1       2       1       1       2       1
       1       2       1       1       2       1       1       2       1       1
       2       1       1       2       1       1       2       1       1       2
       1       1       2       1       1       2       1       1       2       1
       1       2       1       1       2       1       1       2       1       1
       2       1       1       2       1       1       2       1       1       2
       1       1       2       1       1       2       1       1       2       1
       1       2       1       1       2       1       1       2       1       1
       2       1       1       2       1       1       2       1       1       2
       1       1       2       1       1       2       1       1       2       1
       1       2       1       1       2       1       1       2       1       1
       2       1       1       2       1       1       2       1       1       2
       1       1       2       1       1       2       1       1       2       1
       1       2       1       1       2       1       1       2       1       1
       2       1       1       2       1       1       2       1       1       2
       1       1       2       1       1       2       1       1       2       1
       1       2       1       1       2       1       1       2       1       1
       2       1       1       2       1       1       2       1       1       2
       1       1       2       1       1       2       1       1       2       1
       1       2       1       1       2       1       1       2       1       1
       2       1       1       2       1       1       2       1       1       2
       1       1       2       1       1       2       1       1       2       1
       1       2       1       1       2       1       1       2       1       1
       2       1       1       2       1       1       2       1       1       2
       1       1       2       1       1       2       1       1       2       1
       1       2       1       1       2       1       1       2       1       1
       2       1       1       2       1       1       2       1       1       2
       1       1       2       1       1       2       1       1       2       1
       1       2       1       1       2       1       1       2       1       1
       2       1       1       2       1       1       2       1       1       2
       1       1       2       1       1       2       1       1       2       1
       1       2       1       1       2       1       1       2       1       1
       2       1       1       2       1       1       2       1       1       2
       1       1       2       1       1       2       1       1       2       1
       1       2       1       1       2       1       1       2       1       1
       2       1       1       2       1       1       2       1       1       2
       1       1       2       1       1       2       1       1       2       1
       1       2       1       1       2       1       1       2       1       1
       2       1       1       2       1       1       2       1       1       2
       1       1       2       1       1       2       1       1       2       1
       1       2       1       1       2       1       1       2       1       1
       2       1       1       2       1       1       2       1       1       2
       1       1       2       1       1       2       1       1       2       1
       1       2       1       1       2       1       1       2       1       1
       2       1       1       2       1       1       2       1       1       2
       1       1       2       1       1       2       1       1       2       1
       1       2       1       1       2       1       1       2       1       1
       2       1       1       2       1       1       2       1       1       2
       1       1       2       1       1       2       1       1       2       1
       1       2       1       1       2       1       1       2       1       1
       2       1       1       2       1       1       2       1       1       2
       1       1       2       1       1       2       1       1       2       1
       1       2       1       1       2       1       1       2       1       1
       2       1       1       2       1       1       2       1       1       2
       1       1       2       1       1       2       1       1       2       1
       1       2       1       1       2       1       1       2       1       1
       2       1       1       2       1       1       2       1       1       2
       1       1       2       1       1       2       1       1       2       1
       1       2       1       1       2       1       1       2       1       1
       2       1       1       2       1       1       2       1       1       2
       1       1       2       1       1       2       1       1       2       1
       1       2       1       1       2       1       1       2       1       1
       2       1       1       2       1       1       2       1       1       2
       1       1       2       1       1       2       1       1       2       1
       1       2       1       1       2       1       1       2       1       1
       2       1       1       2       1       1       2       1       1       2
       1       1       2       1       1       2       1       1       2       1
       1       2       1       1       2       1       1       2       1       1
       2       1       1       2       1       1       2       1       1       2
       1       1       2       1       1       2       1       1       2       1
       1       2       1       1       2       1       1       2       1       1
       2       1       1       2       1       1       2       1       1       2
       1       1       2       1       1       2       1       1       2       1
       1       2       1       1       2       1       1       2       1       1
       2       1       1       2       1       1       2       1       1       2
       1       1       2       1       1       2       1       1       2       1
       1       2       1       1       2       1       1       2       1       1
       2       1       1       2       1       1       2       1       1       2
       1       1       2       1       1       2       1       1       2       1
       1       2       1       1       2       1       1       2       1       1
       2       1       1       2       1       1       2       1       1       2
       1       1       2       1       1       2       1       1       2       1
       1       2       1       1       2       1       1       2       1       1
       2       1       1       2       1       1       2       1       1       2
       1       1       2       1       1       2       1       1       2       1
       1       2       1       1       2       1       1       2       1       1
       2       1       1       2       1       1       2       1       1       2
       1       1       2       1       1       2       1       1       2       1
       1       2       1       1       2       1       1       2       1       1
       2       1       1       2       1       1       2       1       1       2
       1       1       2       1       1       2       1       1       2       1
       1       2       1       1       2       1       1       2       1       1
       2       1       1       2       1       1       2       1       1       2
       1       1       2       1       1       2       1       1       2       1
       1       2       1       1       2       1       1       2       1       1
       2       1       1       2       1       1       2       1       1       2
       1       1       2       1       1       2       1       1       2       1
       1       2       1       1       2       1       1       2       1       1
       2       1       1       2       1       1       2       1       1       2
       1       1       2       1       1       2       1       1       2       1
       1       2       1       1       2       1       1       2       1       1
       2       1       1       2       1       1       2       1       1       2
       1       1       2       1       1       2       1       1       2       1
       1       2       1       1       2       1       1       2       1       1
       2       1       1       2       1       1       2       1       1       2
       1       1       2       1       1       2       1       1       2       1
       1       2       1       1       2       1       1       2       1       1
       2       1       1       2       1       1       2       1       1       2
       1       1       2       1       1       2       1       1       2       1
       1       2       1       1       2       1       1       2       1       1
       2       1       1       2       1       1       2       1       1       2
       1       1       2       1       1       2       1       1       2       1
       1       2       1       1       2       1       1       2       1       1
       2       1       1       2       1       1       2       1       1       2
       1       1       2       1       1       2       1       1       2       1
       1       2       1       1       2       1       1       2       1       1
       2       1       1       2       1       1       2       1       1       2
       1       1       2       1       1       2       1       1       2       1
       1       2       1       1       2       1       1       2       1       1
       2       1       1       2       1       1       2       1       1       2
       1       1       2       1       1       2       1       1       2       1
       1       2       1       1       2       1       1       2       1       1
       2       1       1       2       1       1       2       1       1       2
       1       1       2       1       1       2       1       1       2       1
       1       2       1       1       2       1       1       2       1       1
       2       1       1       2       1       1       2       1       1       2
       1       1       2       1       1       2       1       1       2       1
       1       2       1       1       2       1       1       2       1       1
       2       1       1       2       1       1       2       1       1       2
       1       1       2       1       1       2       1       1       2       1
       1       2       1       1       2       1       1       2       1       1
       2       1       1       2       1       1       2       1       1       2
       1       1       2       1       1       2       1       1       2       1
       1       2       1       1       2       1       1       2       1       1
       2       1       1       2       1       1       2       1       1       2
       1       1       2       1       1       2       1       1       2       1
       1       2       1       1       2       1       1       2       1       1
       2       1       1       2       1       1       2       1       1       2
       1       1       2       1       1       2       1       1       2       1
       1       2       1       1       2       1       1       2       1       1
       2       1       1       2       1       1       2       1       1       2
       1       1       2       1       1       2       1       1       2       1
       1       2       1       1       2       1       1       2       1       1
       2       1       1       2       1       1       2       1       1       2
       1       1       2       1       1       2       1       1       2       1
       1       2       1       1       2       1       1       2       1       1
       2       1       1       2       1       1       2       1       1       2
       1       1       2       1       1       2       1       1       2       1
       1       2       1       1       2       1       1       2       1       1
       2       1       1       2       1       1       2       1       1       2
       1       1       2       1       1       2       1       1       2       1
       1       2       1       1       2       1       1       2       1       1
       2       1       1       2       1       1       2       1       1       2
       1       1       2       1       1       2       1       1       2       1
       1       2       1       1       2       1       1       2       1       1
       2       1       1       2       1       1       2       1       1       2
       1       1       2       1       1       2       1       1       2       1
       1       2       1       1       2       1       1       2       1       1
       2       1       1       2       1       1       2       1       1       2
       1       1       2       1       1       2       1       1       2       1
       1       2       1       1       2       1       1       2       1       1
       2       1       1       2       1       1       2       1       1       2
       1       1       2       1       1       2       1       1       2       1
       1       2       1       1       2       1       1       2       1       1
       2       1       1       2       1       1       2       1       1       2
       1       1       2       1       1       2       1       1       2       1
       1       2       1       1       2       1       1       2       1       1
       2       1       1       2       1       1       2       1       1       2
       1       1       2       1       1       2       1       1       2       1
       1       2       1       1       2       1       1       2       1       1
       2       1       1       2       1       1       2       1       1       2
       1       1       2       1       1       2       1       1       2       1
       1       2       1       1       2       1       1       2       1       1
       2       1       1       2       1       1       2       1       1       2
       1       1       2       1       1       2       1       1       2       1
       1       2       1       1       2       1       1       2       1       1
       2       1       1       2       1       1       2       1       1       2
       1       1       2       1       1       2       1       1       2       1
       1       2       1       1       2       1       1       2       1       1
       2       1       1       2       1       1       2       1       1       2
       1       1       2       1       1       2       1       1       2       1
       1       2       1       1       2       1       1       2       1       1
       2       1       1       2       1       1       2       1       1       2
       1       1       2       1       1       2       1       1       2       1
       1       2       1       1       2       1       1       2       1       1
       2       1       1       2       1       1       2       1       1       2
       1       1       2       1       1       2       1       1       2       1
       1       2       1       1       2       1       1       2       1       1
       2       1       1       2       1       1       2       1       1       2
       1       1       2       1       1       2       1       1       2       1
       1       2       1       1       2       1       1       2       1       1
       2       1       1       2       1       1       2       1       1       2
       1       1       2       1       1       2       1       1       2       1
       1       2       1       1       2       1       1       2       1       1
       2       1       1       2       1       1       2       1       1       2
       1       1       2       1       1       2       1       1       2       1
       1       2       1       1       2       1       1       2       1       1
       2       1       1       2       1       1       2       1       1       2
       1       1       2       1       1       2       1       1       2       1
       1       2       1       1       2       1       1       2       1       1
       2       1       1       2       1       1       2       1       1       2
       1       1       2       1       1       2       1       1       2       1
       1       2       1       1       2       1       1       2       1       1
       2       1       1       2       1       1       2       1       1       2
       1       1       2       1       1       2       1       1       2       1
       1       2       1       1       2       1       1       2       1       1
       2       1       1       2       1       1       2       1       1       2
       1       1       2       1       1       2       1       1       2       1
       1       2       1       1       2       1       1       2       1       1
       2       1       1       2       1       1       2       1       1       2
       1       1       2       1       1       2       1       1       2       1
       1       2       1       1       2       1       1       2       1       1
       2       1       1       2       1       1       2       1       1       2
       1       1       2       1       1       2       1       1       2       1
       1       2       1       1       2       1       1       2       1       1
       2       1       1       2       1       1       2       1       1       2
       1       1       2       1       1       2       1       1       2       1
       1       2       1       1       2       1       1       2       1       1
       2       1       1       2       1       1       2       1       1       2
       1       1       2       1       1       2       1       1       2       1
       1       2       1       1       2       1       1       2       1       1
       2       1       1       2       1       1       2       1       1       2
       1       1       2       1       1       2       1       1       2       1
       1       2       1       1       2       1       1       2       1       1
       2       1       1       2       1       1       2       1       1       2
       1       1       2       1       1       2       1       1       2       1
       1       2       1       1       2       1       1       2       1       1
       2       1       1       2       1       1       2       1       1       2
       1       1       2       1       1       2       1       1       2       1
       1       2       1       1       2       1       1       2       1       1
       2       1       1       2       1       1       2       1       1       2
       1       1       2       1       1       2       1       1       2       1
       1       2       1       1       2       1       1       2       1       1
       2       1       1       2       1       1       2       1       1       2
       1       1       2       1       1       2       1       1       2       1
       1       2       1       1       2       1       1       2       1       1
       2       1       1       2       1       1       2       1       1       2
       1       1       2       1       1       2       1       1       2       1
       1       2       1       1       2       1       1       2       1       1
       2       1       1       2       1       1       2       1       1       2
       1       1       2       1       1       2       1       1       2       1
       1       2       1       1       2       1       1       2       1       1
       2       1       1       2       1       1       2       1       1       2
       1       1       2       1       1       2       1       1       2       1
       1       2       1       1       2       1       1       2       1       1
       2       1       1       2       1       1       2       1       1       2
       1       1       2       1       1       2       1       1       2       1
       1       2       1       1       2       1       1       2       1       1
       2       1       1       2       1       1       2       1       1       2
       1       1       2       1       1       2       1       1       2       1
       1       2       1       1       2       1       1       2       1       1
       2       1       1       2       1       1       2       1       1       2
       1       1       2       1       1       2       1       1       2       1
       1       2       1       1       2       1       1       2       1       1
       2       1       1       2       1       1       2       1       1       2
       1       1       2       1       1       2       1       1       2       1
       1       2       1       1       2       1       1       2       1       1
       2       1       1       2       1       1       2       1       1       2
       1       1       2       1       1       2       1       1       2       1
       1       2       1       1       2       1       1       2       1       1
       2       1       1       2       1       1       2       1       1       2
       1       1       2       1       1       2       1       1       2       1
       1       2       1       1       2       1       1       2       1       1
       2       1       1       2       1       1       2       1       1       2
       1       1       2       1       1       2       1       1       2       1
       1       2       1       1       2       1       1       2       1       1
       2       1       1       2       1       1       2       1       1       2
       1       1       2       1       1       2       1       1       2       1
       1       2       1       1       2       1       1       2       1       1
       2       1       1       2       1       1       2       1       1       2
       1       1       2       1       1       2       1       1       2       1
       1       2       1       1       2       1       1       2       1       1
       2       1       1       2       1       1       2       1       1       2
       1       1       2       1       1       2       1       1       2       1
       1       2       1       1       2       1       1       2       1       1
       2       1       1       2       1       1       2       1       1       2
       1       1       2       1       1       2       1       1       2       1
       1       2       1       1       2       1       1       2       1       1
       2       1       1       2       1       1       2       1       1       2
       1       1       2       1       1       2       1       1       2       1
       1       2       1       1       2       1       1       2       1       1
       2       1       1       2       1       1       2       1       1       2
       1       1       2       1       1       2       1       1       2       1
       1       2       1       1       2       1       1       2       1       1
       2       1       1       2       1       1       2       1       1       2
       1       1       2       1       1       2       1       1       2       1
       1       2       1       1       2       1       1       2       1       1
       2       1       1       2       1       1       2       1       1       2
       1       1       2       1       1       2       1       1       2       1
       1       2       1       1       2       1       1       2       1       1
       2       1       1       2       1       1       2       1       1       2
       1       1       2       1       1       2       1       1       2       1
       1       2       1       1       2       1       1       2       1       1
       2       1       1       2       1       1       2       1       1       2
       1       1       2       1       1       2       1       1       2       1
       1       2       1       1       2       1       1       2       1       1
       2       1       1       2       1       1       2       1       1       2
       1       1       2       1       1       2       1       1       2       1
       1       2       1       1       2       1       1       2       1       1
       2       1       1       2       1       1       2       1       1       2
       1       1       2       1       1       2       1       1       2       1
       1       2       1       1       2       1       1       2       1       1
       2       1       1       2       1       1       2       1       1       2
       1       1       2       1       1       2       1       1       2       1
       1       2       1       1       2       1       1       2       1       1
       2       1       1       2       1       1       2       1       1       2
       1       1       2       1       1       2       1       1       2       1
       1       2       1       1       2       1       1       2       1       1
       2       1       1       2       1       1       2       1       1       2
       1       1       2       1       1       2       1       1       2       1
       1       2       1       1       2       1       1       2       1       1
       2       1       1       2       1       1       2       1       1       2
       1       1       2       1       1       2       1       1       2       1
       1       2       1       1       2       1       1       2       1       1
       2       1       1       2       1       1       2       1       1       2
       1       1       2       1       1       2       1       1       2       1
       1       2       1       1       2       1       1       2       1       1
       2       1       1       2       1       1       2       1       1       2
       1       1       2       1       1       2       1       1       2       1
       1       2       1       1       2       1       1       2       1       1
       2       1       1       2       1       1       2       1       1       2
       1       1       2       1       1       2       1       1       2       1
       1       2       1       1       2       1       1       2       1       1
       2       1       1       2       1       1       2       1       1       2
       1       1       2       1       1       2       1       1       2       1
       1       2       1       1       2       1       1       2       1       1
       2       1       1       2       1       1       2       1       1       2
       1       1       2       1       1       2       1       1       2       1
       1       2       1       1       2       1       1       2       1       1
       2       1       1       2       1       1       2       1       1       2
       1       1       2       1       1       2       1       1       2       1
       1       2       1       1       2       1       1       2       1       1
       2       1       1       2       1       1       2       1       1       2
       1       1       2       1       1       2       1       1       2       1
       1       2       1       1       2       1       1       2       1       1
       2       1       1       2       1       1       2       1       1       2
       1       1       2       1       1       2       1       1       2       1
       1       2       1       1       2       1       1       2       1       1
       2       1       1       2       1       1       2       1       1       2
       1       1       2       1       1       2       1       1       2       1
       1       2       1       1       2       1       1       2       1       1
       2       1       1       2       1       1       2       1       1       2
       1       1       2       1       1       2       1       1       2       1
       1       2       1       1       2       1       1       2       1       1
       2       1       1       2       1       1       2       1       1       2
       1       1       2       1       1       2       1       1       2       1
       1       2       1       1       2       1       1       2       1       1
       2       1       1       2       1       1       2       1       1       2
       1       1       2       1       1       2       1       1       2       1
       1       2       1       1       2       1       1       2       1       1
       2       1       1       2       1       1       2       1       1       2
       1       1       2       1       1       2       1       1       2       1
       1       2       1       1       2       1       1       2       1       1
       2       1       1       2       1       1       2       1       1       2
       1       1       2       1       1       2       1       1       2       1
       1       2       1       1       2       1       1       2       1       1
       2       1       1       2       1       1       2       1       1       2
       1       1       2       1       1       2       1       1       2       1
       1       2       1       1       2       1       1       2       1       1
       2       1       1       2       1       1       2       1       1       2
       1       1       2       1       1       2       1       1       2       1
       1       2       1       1       2       1       1       2       1       1
       2       1       1       2       1       1       2       1       1       2
       1       1       2       1       1       2       1       1       2       1
       1       2       1       1       2       1       1       2       1       1
       2       1       1       2       1       1       2       1       1       2
       1       1       2       1       1       2       1       1       2       1
       1       2       1       1       2       1       1       2       1       1
       2       1       1       2       1       1       2       1       1       2
       1       1       2       1       1       2       1       1       2       1
       1       2       1       1       2       1       1       2       1       1
       2       1       1       2       1       1       2       1       1       2
       1       1       2       1       1       2       1       1       2       1
       1       2       1       1       2       1       1       2       1       1
       2       1       1       2       1       1       2       1       1       2
       1       1       2       1       1       2       1       1       2       1
       1       2       1       1       2       1       1       2       1       1
       2       1       1       2       1       1       2       1       1       2
       1       1       2       1       1       2       1       1       2       1
       1       2       1       1       2       1       1       2       1       1
       2       1       1       2       1       1       2       1       1       2
       1       1       2       1       1       2       1       1       2       1
       1       2       1       1       2       1       1       2       1       1
       2       1       1       2       1       1       2       1       1       2
       1       1       2       1       1       2       1       1       2       1
       1       2       1       1       2       1       1       2       1       1
       2       1       1       2       1       1       2       1       1       2
       1       1       2       1       1       2       1       1       2       1
       1       2       1       1       2       1       1       2       1       1
       2       1       1       2       1       1       2       1       1       2
       1       1       2       1       1       2       1       1       2       1
       1       2       1       1       2       1       1       2       1       1
       2       1       1       2       1       1       2       1       1       2
       1       1       2       1       1       2       1       1       2       1
       1       2       1       1       2       1       1       2       1       1
       2       1       1       2       1       1       2       1       1       2
       1       1       2       1       1       2       1       1       2       1
       1       2       1       1       2       1       1       2       1       1
       2       1       1       2       1       1       2       1       1       2
       1       1       2       1       1       2       1       1       2       1
       1       2       1       1       2       1       1       2       1       1
       2       1       1       2       1       1       2       1       1       2
       1       1       2       1       1       2       1       1       2       1
       1       2       1       1       2       1       1       2       1       1
       2       1       1       2       1       1       2       1       1       2
       1       1       2       1       1       2       1       1       2       1
       1       2       1       1       2       1       1       2       1       1
       2       1       1       2       1       1       2       1       1       2
       1       1       2       1       1       2       1       1       2       1
       1       2       1       1       2       1       1       2       1       1
       2       1       1       2       1       1       2       1       1       2
       1       1       2       1       1       2       1       1       2       1
       1       2       1       1       2       1       1       2       1       1
       2       1       1       2       1       1       2       1       1       2
       1       1       2       1       1       2       1       1       2       1
       1       2       1       1       2       1       1       2       1       1
       2       1       1       2       1       1       2       1       1       2
       1       1       2       1       1       2       1       1       2       1
       1       2       1       1       2       1       1       2       1       1
       2       1       1       2       1       1       2       1       1       2
       1       1       2       1       1       2       1       1       2       1
       1       2       1       1       2       1       1       2       1       1
       2       1       1       2       1       1       2       1       1       2
       1       1       2       1       1       2       1       1       2       1
       1       2       1       1       2       1       1       2       1       1
       2       1       1       2       1       1       2       1       1       2
       1       1       2       1       1       2       1       1       2       1
       1       2       1       1       2       1       1       2       1       1
       2       1       1       2       1       1       2       1       1       2
       1       1       2       1       1       2       1       1       2       1
       1       2       1       1       2       1       1       2       1       1
       2       1       1       2       1       1       2       1       1       2
       1       1       2       1       1       2       1       1       2       1
       1       2       1       1       2       1       1       2       1       1
       2       1       1       2       1       1       2       1       1       2
       1       1       2       1       1       2       1       1       2       1
       1       2       1       1       2       1       1       2       1       1
       2       1       1       2       1       1       2       1       1       2
       1       1       2       1       1       2       1       1       2       1
       1       2       1       1       2       1       1       2       1       1
       2       1       1       2       1       1       2       1       1       2
       1       1       2       1       1       2       1       1       2       1
       1       2       1       1       2       1       1       2       1       1
       2       1       1       2       1       1       2       1       1       2
       1       1       2       1       1       2       1       1       2       1
       1       2       1       1       2       1       1       2       1       1
       2       1       1       2       1       1       2       1       1       2
       1       1       2       1       1       2       1       1       2       1
       1       2       1       1       2       1       1       2       1       1
       2       1       1       2       1       1       2       1       1       2
       1       1       2       1       1       2       1       1       2       1
       1       2       1       1       2       1       1       2       1       1
       2       1       1       2       1       1       2       1       1       2
       1       1       2       1       1       2       1       1       2       1
       1       2       1       1       2       1       1       2       1       1
       2       1       1       2       1       1       2       1       1       2
       1       1       2       1       1       2       1       1       2       1
       1       2       1       1       2       1       1       2       1       1
       2       1       1       2       1       1       2       1       1       2
       1       1       2       1       1       2       1       1       2       1
       1       2       1       1       2       1       1       2       1       1
       2       1       1       2       1       1       2       1       1       2
       1       1       2       1       1       2       1       1       2       1
       1       2       1       1       2       1       1       2       1       1
       2       1       1       2       1       1       2       1       1       2
       1       1       2       1       1       2       1       1       2       1
       1       2       1       1       2       1       1       2       1       1
       2       1       1       2       1       1       2       1       1       2
       1       1       2       1       1       2       1       1       2       1
       1       2       1       1       2       1       1       2       1       1
       2       1       1       2       1       1       2       1       1       2
       1       1       2       1       1       2       1       1       2       1
       1       2       1       1       2       1       1       2       1       1
       2       1       1       2       1       1       2       1       1       2
       1       1       2       1       1       2       1       1       2       1
       1       2       1       1       2       1       1       2       1       1
       2       1       1       2       1       1       2       1       1       2
       1       1       2       1       1       2       1       1       2       1
       1       2       1       1       2       1       1       2       1       1
       2       1       1       2       1       1       2       1       1       2
       1       1       2       1       1       2       1       1       2       1
       1       2       1       1       2       1       1       2       1       1
       2       1       1       2       1       1       2       1       1       2
       1       1       2       1       1       2       1       1       2       1
       1       2       1       1       2       1       1       2       1       1
       2       1       1       2       1       1       2       1       1       2
       1       1       2       1       1       2       1       1       2       1
       1       2       1       1       2       1       1       2       1       1
       2       1       1       2       1       1       2       1       1       2
       1       1       2       1       1       2       1       1       2       1
       1       2       1       1       2       1       1       2       1       1
       2       1       1       2       1       1       2       1       1       2
       1       1       2       1       1       2       1       1       2       1
       1       2       1       1       2       1       1       2       1       1
       2       1       1       2       1       1       2       1       1       2
       1       1       2       1       1       2       1       1       2       1
       1       2       1       1       2       1       1       2       1       1
       2       1       1       2       1       1       2       1       1       2
       1       1       2       1       1       2       1       1       2       1
       1       2       1       1       2       1       1       2       1       1
       2       1       1       2       1       1       2       1       1       2
       1       1       2       1       1       2       1       1       2       1
       1       2       1       1       2       1       1       2       1       1
       2       1       1       2       1       1       2       1       1       2
       1       1       2       1       1       2       1       1       2       1
       1       2       1       1       2       1       1       2       1       1
       2       1       1       2       1       1       2       1       1       2
       1       1       2       1       1       2       1       1       2       1
       1       2       1       1       2       1       1       2       1       1
       2       1       1       2       1       1       2       1       1       2
       1       1       2       1       1       2       1       1       2       1
       1       2       1       1       2       1       1       2       1       1
       2       1       1       2       1       1       2       1       1       2
       1       1       2       1       1       2       1       1       2       1
       1       2       1       1       2       1       1       2       1       1
       2       1       1       2       1       1       2       1       1       2
       1       1       2       1       1       2       1       1       2       1
       1       2       1       1       2       1       1       2       1       1
       2       1       1       2       1       1       2       1       1       2
       1       1       2       1       1       2       1       1       2       1
       1       2       1       1       2       1       1       2       1       1
       2       1       1       2       1       1       2       1       1       2
       1       1       2       1       1       2       1       1       2       1
       1       2       1       1       2       1       1       2       1       1
       2       1       1       2       1       1       2       1       1       2
       1       1       2       1       1       2       1       1       2       1
       1       2       1       1       2       1       1       2       1       1
       2       1       1       2       1       1       2       1       1       2
       1       1       2       1       1       2       1       1       2       1
       1       2       1       1       2       1       1       2       1       1
       2       1       1       2       1       1       2       1       1       2
       1       1       2       1       1       2       1       1       2       1
       1       2       1       1       2       1       1       2       1       1
       2       1       1       2       1       1       2       1       1       2
       1       1       2       1       1       2       1       1       2       1
       1       2       1       1       2       1       1       2       1       1
       2       1       1       2       1       1       2       1       1       2
       1       1       2       1       1       2       1       1       2       1
       1       2       1       1       2       1       1       2       1       1
       2       1       1       2       1       1       2       1       1       2
       1       1       2       1       1       2       1       1       2       1
       1       2       1       1       2       1       1       2       1       1
       2       1       1       2       1       1       2       1       1       2
       1       1       2       1       1       2       1       1       2       1
       1       2       1       1       2       1       1       2       1       1
       2       1       1       2       1       1       2       1       1       2
       1       1       2       1       1       2       1       1       2       1
       1       2       1       1       2       1       1       2       1       1
       2       1       1       2       1       1       2       1       1       2
       1       1       2       1       1       2       1       1       2       1
       1       2       1       1       2       1       1       2       1       1
       2       1       1       2       1       1       2       1       1       2
       1       1       2       1       1       2       1       1       2       1
       1       2       1       1       2       1       1       2       1       1
       2       1       1       2       1       1       2       1       1       2
       1       1       2       1       1       2       1       1       2       1
       1       2       1       1       2       1       1       2       1       1
       2       1       1       2       1       1       2       1       1       2
       1       1       2       1       1       2       1       1       2       1
       1       2       1       1       2       1       1       2       1       1
       2       1       1       2       1       1       2       1       1       2
       1       1       2       1       1       2       1       1       2       1
       1       2       1       1       2       1       1       2       1       1
       2       1       1       2       1       1       2       1       1       2
       1       1       2       1       1       2       1       1       2       1
       1       2       1       1       2       1       1       2       1       1
       2       1       1       2       1       1       2       1       1       2
       1       1       2       1       1       2       1       1       2       1
       1       2       1       1       2       1       1       2       1       1
       2       1       1       2       1       1       2       1       1       2
       1       1       2       1       1       2       1       1       2       1
       1       2       1       1       2       1       1       2       1       1
       2       1       1       2       1       1       2       1       1       2
       1       1       2       1       1       2       1       1       2       1
       1       2       1       1       2       1       1       2       1       1
       2       1       1       2       1       1       2       1       1       2
       1       1       2       1       1       2       1       1       2       1
       1       2       1       1       2       1       1       2       1       1
       2       1       1       2       1       1       2       1       1       2
       1       1       2       1       1       2       1       1       2       1
       1       2       1       1       2       1       1       2       1       1
       2       1       1       2       1       1       2       1       1       2
       1       1       2       1       1       2       1       1       2       1
       1       2       1       1       2       1       1       2       1       1
       2       1       1       2       1       1       2       1       1       2
       1       1       2       1       1       2       1       1       2       1
       1       2       1       1       2       1       1       2       1       1
       2       1       1       2       1       1       2       1       1       2
       1       1       2       1       1       2       1       1       2       1
       1       2       1       1       2       1       1       2       1       1
       2       1       1       2       1       1       2       1       1       2
       1       1       2       1       1       2       1       1       2       1
       1       2       1       1       2       1       1       2       1       1
       2       1       1       2       1       1       2       1       1       2
       1       1       2       1       1       2       1       1       2       1
       1       2       1       1       2       1       1       2       1       1
       2       1       1       2       1       1       2       1       1       2
       1       1       2       1       1       2       1       1       2       1
       1       2       1       1       2       1       1       2       1       1
       2       1       1       2       1       1       2       1       1       2
       1       1       2       1       1       2       1       1       2       1
       1       2       1       1       2       1       1       2       1       1
       2       1       1       2       1       1       2       1       1       2
       1       1       2       1       1       2       1       1       2       1
       1       2       1       1       2       1       1       2       1       1
       2       1       1       2       1       1       2       1       1       2
       1       1       2       1       1       2       1       1       2       1
       1       2       1       1       2       1       1       2       1       1
       2       1       1       2       1       1       2       1       1       2
       1       1       2       1       1       2       1       1       2       1
       1       2       1       1       2       1       1       2       1       1
       2       1       1       2       1       1       2       1       1       2
       1       1       2       1       1       2       1       1       2       1
       1       2       1       1       2       1       1       2       1       1
       2       1       1       2       1       1       2       1       1       2
       1       1       2       1       1       2       1       1       2       1
       1       2       1       1       2       1       1       2       1       1
       2       1       1       2       1       1       2       1       1       2
       1       1       2       1       1       2       1       1       2       1
       1       2       1       1       2       1       1       2       1       1
       2       1       1       2       1       1       2       1       1       2
       1       1       2       1       1       2       1       1       2       1
       1       2       1       1       2       1       1       2       1       1
       2       1       1       2       1       1       2       1       1       2
       1       1       2       1       1       2       1       1       2       1
       1       2       1       1       2       1       1       2       1       1
       2       1       1       2       1       1       2       1       1       2
       1       1       2       1       1       2       1       1       2       1
       1       2       1       1       2       1       1       2       1       1
       2       1       1       2       1       1       2       1       1       2
       1       1       2       1       1       2       1       1       2       1
       1       2       1       1       2       1       1       2       1       1
       2       1       1       2       1       1       2       1       1       2
       1       1       2       1       1       2       1       1       2       1
       1       2       1       1       2       1       1       2       1       1
       2       1       1       2       1       1       2       1       1       2
       1       1       2       1       1       2       1       1       2       1
       1       2       1       1       2       1       1       2       1       1
       2       1       1       2       1       1       2       1       1       2
       1       1       2       1       1       2       1       1       2       1
       1       2       1       1       2       1       1       2       1       1
       2       1       1       2       1       1       2       1       1       2
       1       1       2       1       1       2       1       1       2       1
       1       2       1       1       2       1       1       2       1       1
       2       1       1       2       1       1       2       1       1       2
       1       1       2       1       1       2       1       1       2       1
       1       2       1       1       2       1       1       2       1       1
       2       1       1       2       1       1       2       1       1       2
       1       1       2       1       1       2       1       1       2       1
       1       2       1       1       2       1       1       2       1       1
       2       1       1       2       1       1       2       1       1       2
       1       1       2       1       1       2       1       1       2       1
       1       2       1       1       2       1       1       2       1       1
       2       1       1       2       1       1       2       1       1       2
       1       1       2       1       1       2       1       1       2       1
       1       2       1       1       2       1       1       2       1       1
       2       1       1       2       1       1       2       1       1       2
       1       1       2       1       1       2       1       1       2       1
       1       2       1       1       2       1       1       2       1       1
       2       1       1       2       1       1       2       1       1       2
       1       1       2       1       1       2       1       1       2       1
       1       2       1       1       2       1       1       2       1       1
       2       1       1       2       1       1       2       1       1       2
       1       1       2       1       1       2       1       1       2       1
       1       2       1       1       2       1       1       2       1       1
       2       1       1       2       1       1       2       1       1       2
       1       1       2       1       1       2       1       1       2       1
       1       2       1       1       2       1       1       2       1       1
       2       1       1       2       1       1       2       1       1       2
       1       1       2       1       1       2       1       1       2       1
       1       2       1       1       2       1       1       2       1       1
       2       1       1       2       1       1       2       1       1       2
       1       1       2       1       1       2       1       1       2       1
       1       2       1       1       2       1       1       2       1       1
       2       1       1       2       1       1       2       1       1       2
       1       1       2       1       1       2       1       1       2       1
       1       2       1       1       2       1       1       2       1       1
       2       1       1       2       1       1       2       1       1       2
       1       1       2       1       1       2       1       1       2       1
       1       2       1       1       2       1       1       2       1       1
       2       1       1       2       1       1       2       1       1       2
       1       1       2       1       1       2       1       1       2       1
       1       2       1       1       2       1       1       2       1       1
       2       1       1       2       1       1       2       1       1       2
       1       1       2       1       1       2       1       1       2       1
       1       2       1       1       2       1       1       2       1       1
       2       1       1       2       1       1       2       1       1       2
       1       1       2       1       1       2       1       1       2       1
       1       2       1       1       2       1       1       2       1       1
       2       1       1       2       1       1       2       1       1       2
       1       1       2       1       1       2       1       1       2       1
       1       2       1       1       2       1       1       2       1       1
       2       1       1       2       1       1       2       1       1       2
       1       1       2       1       1       2       1       1       2       1
       1       2       1       1       2       1       1       2       1       1
       2       1       1       2       1       1       2       1       1       2
       1       1       2       1       1       2       1       1       2       1
       1       2       1       1       2       1       1       2       1       1
       2       1       1       2       1       1       2       1       1       2
       1       1       2       1       1       2       1       1       2       1
       1       2       1       1       2       1       1       2       1       1
       2       1       1       2       1       1       2       1       1       2
       1       1       2       1       1       2       1       1       2       1
       1       2       1       1       2       1       1       2       1       1
       2       1       1       2       1       1       2       1       1       2
       1       1       2       1       1       2       1       1       2       1
       1       2       1       1       2       1       1       2       1       1
       2       1       1       2       1       1       2       1       1       2
       1       1       2       1       1       2       1       1       2       1
       1       2       1       1       2       1       1       2       1       1
       2       1       1       2       1       1       2       1       1       2
       1       1       2       1       1       2       1       1       2       1
       1       2       1       1       2       1       1       2       1       1
       2       1       1       2       1       1       2       1       1       2
       1       1       2       1       1       2       1       1       2       1
       1       2       1       1       2       1       1       2       1       1
       2       1       1       2       1       1       2       1       1       2
       1       1       2       1       1       2       1       1       2       1
       1       2       1       1       2       1       1       2       1       1
       2       1       1       2       1       1       2       1       1       2
       1       1       2       1       1       2       1       1       2       1
       1       2       1       1       2       1       1       2       1       1
       2       1       1       2       1       1       2       1       1       2
       1       1       2       1       1       2       1       1       2       1
       1       2       1       1       2       1       1       2       1       1
       2       1       1       2       1       1       2       1       1       2
       1       1       2       1       1       2       1       1       2       1
       1       2       1       1       2       1       1       2       1       1
       2       1       1       2       1       1       2       1       1       2
       1       1       2       1       1       2       1       1       2       1
       1       2       1       1       2       1       1       2       1       1
       2       1       1       2       1       1       2       1       1       2
       1       1       2       1       1       2       1       1       2       1
       1       2       1       1       2       1       1       2       1       1
       2       1       1       2       1       1       2       1       1       2
       1       1       2       1       1       2       1       1       2       1
       1       2       1       1       2       1       1       2       1       1
       2       1       1       2       1       1       2       1       1       2
       1       1       2       1       1       2       1       1       2       1
       1       2       1       1       2       1       1       2       1       1
       2       1       1       2       1       1       2       1       1       2
       1       1       2       1       1       2       1       1       2       1
       1       2       1       1       2       1       1       2       1       1
       2       1       1       2       1       1       2       1       1       2
       1       1       2       1       1       2       1       1       2       1
       1       2       1       1       2       1       1       2       1       1
       2       1       1       2       1       1       2       1       1       2
       1       1       2       1       1       2       1       1       2       1
       1       2       1       1       2       1       1       2       1       1
       2       1       1       2       1       1       2       1       1       2
       1       1       2       1       1       2       1       1       2       1
       1       2       1       1       2       1       1       2       1       1
       2       1       1       2       1       1       2       1       1       2
       1       1       2       1       1       2       1       1       2       1
       1       2       1       1       2       1       1       2       1       1
       2       1       1       2       1       1       2       1       1       2
       1       1       2       1       1       2       1       1       2       1
       1       2       1       1       2       1       1       2       1       1
       2       1       1       2       1       1       2       1       1       2
       1       1       2       1       1       2       1       1       2       1
       1       2       1       1       2       1       1       2       1       1
       2       1       1       2       1       1       2       1       1       2
       1       1       2       1       1       2       1       1       2       1
       1       2       1       1       2       1       1       2       1       1
       2       1       1       2       1       1       2       1       1       2
       1       1       2       1       1       2       1       1       2       1
       1       2       1       1       2       1       1       2       1       1
       2       1       1       2       1       1       2       1       1       2
       1       1       2       1       1       2       1       1       2       1
       1       2       1       1       2       1       1       2       1       1
       2       1       1       2       1       1       2       1       1       2
       1       1       2       1       1       2       1       1       2       1
       1       2       1       1       2       1       1       2       1       1
       2       1       1       2       1       1       2       1       1       2
       1       1       2       1       1       2       1       1       2       1
       1       2       1       1       2       1       1       2       1       1
       2       1       1       2       1       1       2       1       1       2
       1       1       2       1       1       2       1       1       2       1
       1       2       1       1       2       1       1       2       1       1
       2       1       1       2       1       1       2       1       1       2
       1       1       2       1       1       2       1       1       2       1
       1       2       1       1       2       1       1       2       1       1
       2       1       1       2       1       1       2       1       1       2
       1       1       2       1       1       2       1       1       2       1
       1       2       1       1       2       1       1       2       1       1
       2       1       1       2       1       1       2       1       1       2
       1       1       2       1       1       2       1       1       2       1
       1       2       1       1       2       1       1       2       1       1
       2       1       1       2       1       1       2       1       1       2
       1       1       2       1       1       2       1       1       2       1
       1       2       1       1       2       1       1       2       1       1
       2       1       1       2       1       1       2       1       1       2
       1       1       2       1       1       2       1       1       2       1
       1       2       1       1       2       1       1       2       1       1
       2       1       1       2       1       1       2       1       1       2
       1       1       2       1       1       2       1       1       2       1
       1       2       1       1       2       1       1       2       1       1
       2       1       1       2       1       1       2       1       1       2
       1       1       2       1       1       2       1       1       2       1
       1       2       1       1       2       1       1       2       1       1
       2       1       1       2       1       1       2       1       1       2
       1       1       2       1       1       2       1       1       2       1
       1       2       1       1       2       1       1       2       1       1
       2       1       1       2       1       1       2       1       1       2
       1       1       2       1       1       2       1       1       2       1
       1       2       1       1       2       1       1       2       1       1
       2       1       1       2       1       1       2       1       1       2
       1       1       2       1       1       2       1       1       2       1
       1       2       1       1       2       1       1       2       1       1
       2       1       1       2       1       1       2       1       1       2
       1       1       2       1       1       2       1       1       2       1
       1       2       1       1       2       1       1       2       1       1
       2       1       1       2       1       1       2       1       1       2
       1       1       2       1       1       2       1       1       2       1
       1       2       1       1       2       1       1       2       1       1
       2       1       1       2       1       1       2       1       1       2
       1       1       2       1       1       2       1       1       2       1
       1       2       1       1       2       1       1       2       1       1
       2       1       1       2       1       1       2       1       1       2
       1       1       2       1       1       2       1       1       2       1
       1       2       1       1       2       1       1       2       1       1
       2       1       1       2       1       1       2       1       1       2
       1       1       2       1       1       2       1       1       2       1
       1       2       1       1       2       1       1       2       1       1
       2       1       1       2       1       1       2       1       1       2
       1       1       2       1       1       2       1       1       2       1
       1       2       1       1       2       1       1       2       1       1
       2       1       1       2       1       1       2       1       1       2
       1       1       2       1       1       2       1       1       2       1
       1       2       1       1       2       1       1       2       1       1
       2       1       1       2       1       1       2       1       1       2
       1       1       2       1       1       2       1       1       2       1
       1       2       1       1       2       1       1       2       1       1
       2       1       1       2       1       1       2       1       1       2
       1       1       2       1       1       2       1       1       2       1
       1       2       1       1       2       1       1       2       1       1
       2       1       1       2       1       1       2       1       1       2
       1       1       2       1       1       2       1       1       2       1
       1       2       1       1       2       1       1       2       1       1
       2       1       1       2       1       1       2       1       1       2
       1       1       2       1       1       2       1       1       2       1
       1       2       1       1       2       1       1       2       1       1
       2       1       1       2       1       1       2       1       1       2
       1       1       2       1       1       2       1       1       2       1
       1       2       1       1       2       1       1       2       1       1
       2       1       1       2       1       1       2       1       1       2
       1       1       2       1       1       2       1       1       2       1
       1       2       1       1       2       1       1       2       1       1
       2       1       1       2       1       1       2       1       1       2
       1       1       2       1       1       2       1       1       2       1
       1       2       1       1       2       1       1       2       1       1
       2       1       1       2       1       1       2       1       1       2
       1       1       2       1       1       2       1       1       2       1
       1       2       1       1       2       1       1       2       1       1
       2       1       1       2       1       1       2       1       1       2
       1       1       2       1       1       2       1       1       2       1
       1       2       1       1       2       1       1       2       1       1
       2       1       1       2       1       1       2       1       1       2
       1       1       2       1       1       2       1       1       2       1
       1       2       1       1       2       1       1       2       1       1
       2       1       1       2       1       1       2       1       1       2
       1       1       2       1       1       2       1       1       2       1
       1       2       1       1       2       1       1       2       1       1
       2       1       1       2       1       1       2       1       1       2
       1       1       2       1       1       2       1       1       2       1
       1       2       1       1       2       1       1       2       1       1
       2       1       1       2       1       1       2       1       1       2
       1       1       2       1       1       2       1       1       2       1
       1       2       1       1       2       1       1       2       1       1
       2       1       1       2       1       1       2       1       1       2
       1       1       2       1       1       2       1       1       2       1
       1       2       1       1       2       1       1       2       1       1
       2       1       1       2       1       1       2       1       1       2
       1       1       2       1       1       2       1       1       2       1
       1       2       1       1       2       1       1       2       1       1
       2       1       1       2       1       1       2       1       1       2
       1       1       2       1       1       2       1       1       2       1
       1       2       1       1       2       1       1       2       1       1
       2       1       1       2       1       1       2       1       1       2
       1       1       2       1       1       2       1       1       2       1
       1       2       1       1       2       1       1       2       1       1
       2       1       1       2       1       1       2       1       1       2
       1       1       2       1       1       2       1       1       2       1
       1       2       1       1       2       1       1       2       1       1
       2       1       1       2       1       1       2       1       1       2
       1       1       2       1       1       2       1       1       2       1
       1       2       1       1       2       1       1       2       1       1
       2       1       1       2       1       1       2       1       1       2
       1       1       2       1       1       2       1       1       2       1
       1       2       1       1       2       1       1       2       1       1
       2       1       1       2       1       1       2       1       1       2
       1       1       2       1       1       2       1       1       2       1
       1       2       1       1       2       1       1       2       1       1
       2       1       1       2       1       1       2       1       1       2
       1       1       2       1       1       2       1       1       2       1
       1       2       1       1       2       1       1       2       1       1
       2       1       1       2       1       1       2       1       1       2
       1       1       2       1       1       2       1       1       2       1
       1       2       1       1       2       1       1       2       1       1
       2       1       1       2       1       1       2       1       1       2
       1       1       2       1       1       2       1       1       2       1
       1       2       1       1       2       1       1       2       1       1
       2       1       1       2       1       1       2       1       1       2
       1       1       2       1       1       2       1       1       2       1
       1       2       1       1       2       1       1       2       1       1
       2       1       1       2       1       1       2       1       1       2
       1       1       2       1       1       2       1       1       2       1
       1       2       1       1       2       1       1       2       1       1
       2       1       1       2       1       1       2       1       1       2
       1       1       2       1       1       2       1       1       2       1
       1       2       1       1       2       1       1       2       1       1
       2       1       1       2       1       1       2       1       1       2
       1       1       2       1       1       2       1       1       2       1
       1       2       1       1       2       1       1       2       1       1
       2       1       1       2       1       1       2       1       1       2
       1       1       2       1       1       2       1       1       2       1
       1       2       1       1       2       1       1       2       1       1
       2       1       1       2       1       1       2       1       1       2
       1       1       2       1       1       2       1       1       2       1
       1       2       1       1       2       1       1       2       1       1
       2       1       1       2       1       1       2       1       1       2
       1       1       2       1       1       2       1       1       2       1
       1       2       1       1       2       1       1       2       1       1
       2       1       1       2       1       1       2       1       1       2
       1       1       2       1       1       2       1       1       2       1
       1       2       1       1       2       1       1       2       1       1
       2       1       1       2       1       1       2       1       1       2
       1       1       2       1       1       2       1       1       2       1
       1       2       1       1       2       1       1       2       1       1
       2       1       1       2       1       1       2       1       1       2
       1       1       2       1       1       2       1       1       2       1
       1       2       1       1       2       1       1       2       1       1
       2       1       1       2       1       1       2       1       1       2
       1       1       2       1       1       2       1       1       2       1
       1       2       1       1       2       1       1       2       1       1
       2       1       1       2       1       1       2       1       1       2
       1       1       2       1       1       2       1       1       2       1
       1       2       1       1       2       1       1       2       1       1
       2       1       1       2       1       1       2       1       1       2
       1       1       2       1       1       2       1       1       2       1
       1       2       1       1       2       1       1       2       1       1
       2       1       1       2       1       1       2       1       1       2
       1       1       2       1       1       2       1       1       2       1
       1       2       1       1       2       1       1       2       1       1
       2       1       1       2       1       1       2       1       1       2
       1       1       2       1       1       2       1       1       2       1
       1       2       1       1       2       1       1       2       1       1
       2       1       1       2       1       1       2       1       1       2
       1       1       2       1       1       2       1       1       2       1
       1       2       1       1       2       1       1       2       1       1
       2       1       1       2       1       1       2       1       1       2
       1       1       2       1       1       2       1       1       2       1
       1       2       1       1       2       1       1       2       1       1
       2       1       1       2       1       1       2       1       1       2
       1       1       2       1       1       2       1       1       2       1
       1       2       1       1       2       1       1       2       1       1
       2       1       1       2       1       1       2       1       1       2
       1       1       2       1       1       2       1       1       2       1
       1       2       1       1       2       1       1       2       1       1
       2       1       1       2       1       1       2       1       1       2
       1       1       2       1       1       2       1       1       2       1
       1       2       1       1       2       1       1       2       1       1
       2       1       1       2       1       1       2       1       1       2
       1       1       2       1       1       2       1       1       2       1
       1       2       1       1       2       1       1       2       1       1
       2       1       1       2       1       1       2       1       1       2
       1       1       2       1       1       2       1       1       2       1
       1       2       1       1       2       1       1       2       1       1
       2       1       1       2       1       1       2       1       1       2
       1       1       2       1       1       2       1       1       2       1
       1       2       1       1       2       1       1       2       1       1
       2       1       1       2       1       1       2       1       1       2
       1       1       2       1       1       2       1       1       2       1
       1       2       1       1       2       1       1       2       1       1
       2       1       1       2       1       1       2       1       1       2
       1       1       2       1       1       2       1       1       2       1
       1       2       1       1       2       1       1       2       1       1
       2       1       1       2       1       1       2       1       1       2
       1       1       2       1       1       2       1       1       2       1
       1       2       1       1       2       1       1       2       1       1
       2       1       1       2       1       1       2       1       1       2
       1       1       2       1       1       2       1       1       2       1
       1       2       1       1       2       1       1       2       1       1
       2       1       1       2       1       1       2       1       1       2
       1       1       2       1       1       2       1       1       2       1
       1       2       1       1       2       1       1       2       1       1
       2       1       1       2       1       1       2       1       1       2
       1       1       2       1       1       2       1       1       2       1
       1       2       1       1       2       1       1       2       1       1
       2       1       1       2       1       1       2       1       1       2
       1       1       2       1       1       2       1       1       2       1
       1       2       1       1       2       1       1       2       1       1
       2       1       1       2       1       1       2       1       1       2
       1       1       2       1       1       2       1       1       2       1
       1       2       1       1       2       1       1       2       1       1
       2       1       1       2       1       1       2       1       1       2
       1       1       2       1       1       2       1       1       2       1
       1       2       1       1       2       1       1       2       1       1
       2       1       1       2       1       1       2       1       1       2
       1       1       2       1       1       2       1       1       2       1
       1       2       1       1       2       1       1       2       1       1
       2       1       1       2       1       1       2       1       1       2
       1       1       2       1       1       2       1       1       2       1
       1       2       1       1       2       1       1       2       1       1
       2       1       1       2       1       1       2       1       1       2
       1       1       2       1       1       2       1       1       2       1
       1       2       1       1       2       1       1       2       1       1
       2       1       1       2       1       1       2       1       1       2
       1       1       2       1       1       2       1       1       2       1
       1       2       1       1       2       1       1       2       1       1
       2       1       1       2       1       1       2       1       1       2
       1       1       2       1       1       2       1       1       2       1
       1       2       1       1       2       1       1       2       1       1
       2       1       1       2       1       1       2       1       1       2
       1       1       2       1       1       2       1       1       2       1
       1       2       1       1       2       1       1       2       1       1
       2       1       1       2       1       1       2       1       1       2
       1       1       2       1       1       2       1       1       2       1
       1       2       1       1       2       1       1       2       1       1
       2       1       1       2       1       1       2       1       1       2
       1       1       2       1       1       2       1       1       2       1
       1       2       1       1       2       1       1       2       1       1
       2       1       1       2       1       1       2       1       1       2
       1       1       2       1       1       2       1       1       2       1
       1       2       1       1       2       1       1       2       1       1
       2       1       1       2       1       1       2       1       1       2
       1       1       2       1       1       2       1       1       2       1
       1       2       1       1       2       1       1       2       1       1
       2       1       1       2       1       1       2       1       1       2
       1       1       2       1       1       2       1       1       2       1
       1       2       1       1       2       1       1       2       1       1
       2       1       1       2       1       1       2       1       1       2
       1       1       2       1       1       2       1       1       2       1
       1       2       1       1       2       1       1       2       1       1
       2       1       1       2       1       1       2       1       1       2
       1       1       2       1       1       2       1       1       2       1
       1       2       1       1       2       1       1       2       1       1
       2       1       1       2       1       1       2       1       1       2
       1       1       2       1       1       2       1       1       2       1
       1       2       1       1       2       1       1       2       1       1
       2       1       1       2       1       1       2       1       1       2
       1       1       2       1       1       2       1       1       2       1
       1       2       1       1       2       1       1       2       1       1
       2       1       1       2       1       1       2       1       1       2
       1       1       2       1       1       2       1       1       2       1
       1       2       1       1       2       1       1       2       1       1
       2       1       1       2       1       1       2       1       1       2
       1       1       2       1       1       2       1       1       2       1
       1       2       1       1       2       1       1       2       1       1
       2       1       1       2       1       1       2       1       1       2
       1       1       2       1       1       2       1       1       2       1
       1       2       1       1       2       1       1       2       1       1
       2       1       1       2       1       1       2       1       1       2
       1       1       2       1       1       2       1       1       2       1
       1       2       1       1       2       1       1       2       1       1
       2       1       1       2       1       1       2       1       1       2
       1       1       2       1       1       2       1       1       2       1
       1       2       1       1       2       1       1       2       1       1
       2       1       1       2       1       1       2       1       1       2
       1       1       2       1       1       2       1       1       2       1
       1       2       1       1       2       1       1       2       1       1
       2       1       1       2       1       1       2       1       1       2
       1       1       2       1       1       2       1       1       2       1
       1       2       1       1       2       1       1       2       1       1
       2       1       1       2       1       1       2       1       1       2
       1       1       2       1       1       2       1       1       2       1
       1       2       1       1       2       1       1       2       1       1
       2       1       1       2       1       1       2       1       1       2
       1       1       2       1       1       2       1       1       2       1
       1       2       1       1       2       1       1       2       1       1
       2       1       1       2       1       1       2       1       1       2
       1       1       2       1       1       2       1       1       2       1
       1       2       1       1       2       1       1       2       1       1
       2       1       1       2       1       1       2       1       1       2
       1       1       2       1       1       2       1       1       2       1
       1       2       1       1       2       1       1       2       1       1
       2       1       1       2       1       1       2       1       1       2
       1       1       2       1       1       2       1       1       2       1
       1       2       1       1       2       1       1       2       1       1
       2       1       1       2       1       1       2       1       1       2
       1       1       2       1       1       2       1       1       2       1
       1       2       1       1       2       1       1       2       1       1
       2       1       1       2       1       1       2       1       1       2
       1       1       2       1       1       2       1       1       2       1
       1       2       1       1       2       1       1       2       1       1
       2       1       1       2       1       1       2       1       1       2
       1       1       2       1       1       2       1       1       2       1
       1       2       1       1       2       1       1       2       1       1
       2       1       1       2       1       1       2       1       1       2
       1       1       2       1       1       2       1       1       2       1
       1       2       1       1       2       1       1       2       1       1
       2       1       1       2       1       1       2       1       1       2
       1       1       2       1       1       2       1       1       2       1
       1       2       1       1       2       1       1       2       1       1
       2       1       1       2       1       1       2       1       1       2
       1       1       2       1       1       2       1       1       2       1
       1       2       1       1       2       1       1       2       1       1
       2       1       1       2       1       1       2       1       1       2
       1       1       2       1       1       2       1       1       2       1
       1       2       1       1       2       1       1       2       1       1
       2       1       1       2       1       1       2       1       1       2
       1       1       2       1       1       2       1       1       2       1
       1       2       1       1       2       1       1       2       1       1
       2       1       1       2       1       1       2       1       1       2
       1       1       2       1       1       2       1       1       2       1
       1       2       1       1       2       1       1       2       1       1
       2       1       1       2       1       1       2       1       1       2
       1       1       2       1       1       2       1       1       2       1
       1       2       1       1       2       1       1       2       1       1
       2       1       1       2       1       1       2       1       1       2
       1       1       2       1       1       2       1       1       2       1
       1       2       1       1       2       1       1       2       1       1
       2       1       1       2       1       1       2       1       1       2
       1       1       2       1       1       2       1       1       2       1
       1       2       1       1       2       1       1       2       1       1
       2       1       1       2       1       1       2       1       1       2
       1       1       2       1       1       2       1       1       2       1
       1       2       1       1       2       1       1       2       1       1
       2       1       1       2       1       1       2       1       1       2
       1       1       2       1       1       2       1       1       2       1
       1       2       1       1       2       1       1       2       1       1
       2       1       1       2       1       1       2       1       1       2
       1       1       2       1       1       2       1       1       2       1
       1       2       1       1       2       1       1       2       1       1
       2       1       1       2       1       1       2       1       1       2
       1       1       2       1       1       2       1       1       2       1
       1       2       1       1       2       1       1       2       1       1
       2       1       1       2       1       1       2       1       1       2
       1       1       2       1       1       2       1       1       2       1
       1       2       1       1       2       1       1       2       1       1
       2       1       1       2       1       1       2       1       1       2
       1       1       2       1       1       2       1       1       2       1
       1       2       1       1       2       1       1       2       1       1
       2       1       1       2       1       1       2       1       1       2
       1       1       2       1       1       2       1       1       2       1
       1       2       1       1       2       1       1       2       1       1
       2       1       1       2       1       1       2       1       1       2
       1       1       2       1       1       2       1       1       2       1
       1       2       1       1       2       1       1       2       1       1
       2       1       1       2       1       1       2       1       1       2
       1       1       2       1       1       2       1       1       2       1
       1       2       1       1       2       1       1       2       1       1
       2       1       1       2       1       1       2       1       1       2
       1       1       2       1       1       2       1       1       2       1
       1       2       1       1       2       1       1       2       1       1
       2       1       1       2       1       1       2       1       1       2
       1       1       2       1       1       2       1       1       2       1
       1       2       1       1       2       1       1       2       1       1
       2       1       1       2       1       1       2       1       1       2
       1       1       2       1       1       2       1       1       2       1
       1       2       1       1       2       1       1       2       1       1
       2       1       1       2       1       1       2       1       1       2
       1       1       2       1       1       2       1       1       2       1
       1       2       1       1       2       1       1       2       1       1
       2       1       1       2       1       1       2       1       1       2
       1       1       2       1       1       2       1       1       2       1
       1       2       1       1       2       1       1       2       1       1
       2       1       1       2       1       1       2       1       1       2
       1       1       2       1       1       2       1       1       2       1
       1       2       1       1       2       1       1       2       1       1
       2       1       1       2       1       1       2       1       1       2
       1       1       2       1       1       2       1       1       2       1
       1       2       1       1       2       1       1       2       1       1
       2       1       1       2       1       1       2       1       1       2
       1       1       2       1       1       2       1       1       2       1
       1       2       1       1       2       1       1       2       1       1
       2       1       1       2       1       1       2       1       1       2
       1       1       2       1       1       2       1       1       2       1
       1       2       1       1       2       1       1       2       1       1
       2       1       1       2       1       1       2       1       1       2
       1       1       2       1       1       2       1       1       2       1
       1       2       1       1       2       1       1       2       1       1
       2       1       1       2       1       1       2       1       1       2
       1       1       2       1       1       2       1       1       2       1
       1       2       1       1       2       1       1       2       1       1
       2       1       1       2       1       1       2       1       1       2
       1       1       2       1       1       2       1       1       2       1
       1       2       1       1       2       1       1       2       1       1
       2       1       1       2       1       1       2       1       1       2
       1       1       2       1       1       2       1       1       2       1
       1       2       1       1       2       1       1       2       1       1
       2       1       1       2       1       1       2       1       1       2
       1       1       2       1       1       2       1       1       2       1
       1       2       1       1       2       1       1       2       1       1
       2       1       1       2       1       1       2       1       1       2
       1       1       2       1       1       2       1       1       2       1
       1       2       1       1       2       1       1       2       1       1
       2       1       1       2       1       1       2       1       1       2
       1       1       2       1       1       2       1       1       2       1
       1       2       1       1       2       1       1       2       1       1
       2       1       1       2       1       1       2       1       1       2
       1       1       2       1       1       2       1       1       2       1
       1       2       1       1       2       1       1       2       1       1
       2       1       1       2       1       1       2       1       1       2
       1       1       2       1       1       2       1       1       2       1
       1       2       1       1       2       1       1       2       1       1
       2       1       1       2       1       1       2       1       1       2
       1       1       2       1       1       2       1       1       2       1
       1       2       1       1       2       1       1       2       1       1
       2       1       1       2       1       1       2       1       1       2
       1       1       2       1       1       2       1       1       2       1
       1       2       1       1       2       1       1       2       1       1
       2       1       1       2       1       1       2       1       1       2
       1       1       2       1       1       2       1       1       2       1
       1       2       1       1       2       1       1       2       1       1
       2       1       1       2       1       1       2       1       1       2
       1       1       2       1       1       2       1       1       2       1
       1       2       1       1       2       1       1       2       1       1
       2       1       1       2       1       1       2       1       1       2
       1       1       2       1       1       2       1       1       2       1
       1       2       1       1       2       1       1       2       1       1
       2       1       1       2       1       1       2       1       1       2
       1       1       2       1       1       2       1       1       2       1
       1       2       1       1       2       1       1       2       1       1
       2       1       1       2       1       1       2       1       1       2
       1       1       2       1       1       2       1       1       2       1
       1       2       1       1       2       1       1       2       1       1
       2       1       1       2       1       1       2       1       1       2
       1       1       2       1       1       2       1       1       2       1
       1       2       1       1       2       1       1       2       1       1
       2       1       1       2       1       1       2       1       1       2
       1       1       2       1       1       2       1       1       2       1
       1       2       1       1       2       1       1       2       1       1
       2       1       1       2       1       1       2       1       1       2
       1       1       2       1       1       2       1       1       2       1
       1       2       1       1       2       1       1       2       1       1
       2       1       1       2       1       1       2       1       1       2
       1       1       2       1       1       2       1       1       2       1
       1       2       1       1       2       1       1       2       1       1
       2       1       1       2       1       1       2       1       1       2
       1       1       2       1       1       2       1       1       2       1
       1       2       1       1       2       1       1       2       1       1
       2       1       1       2       1       1       2       1       1       2
       1       1       2       1       1       2       1       1       2       1
       1       2       1       1       2       1       1       2       1       1
       2       1       1       2       1       1       2       1       1       2
       1       1       2       1       1       2       1       1       2       1
       1       2       1       1       2       1       1       2       1       1
       2       1       1       2       1       1       2       1       1       2
       1       1       2       1       1       2       1       1       2       1
       1       2       1       1       2       1       1       2       1       1
       2       1       1       2       1       1       2       1       1       2
       1       1       2       1       1       2       1       1       2       1
       1       2       1       1       2       1       1       2       1       1
       2       1       1       2       1       1       2       1       1       2
       1       1       2       1       1       2       1       1       2       1
       1       2       1       1       2       1       1       2       1       1
       2       1       1       2       1       1       2       1       1       2
       1       1       2       1       1       2       1       1       2       1
       1       2       1       1       2       1       1       2       1       1
       2       1       1       2       1       1       2       1       1       2
       1       1       2       1       1       2       1       1       2       1
       1       2       1       1       2       1       1       2       1       1
       2       1       1       2       1       1       2       1       1       2
       1       1       2       1       1       2       1       1       2       1
       1       2       1       1       2       1       1       2       1       1
       2       1       1       2       1       1       2       1       1       2
       1       1       2       1       1       2       1       1       2       1
       1       2       1       1       2       1       1       2       1       1
       2       1       1       2       1       1       2       1       1       2
       1       1       2       1       1       2       1       1       2       1
       1       2       1       1       2       1       1       2       1       1
       2       1       1       2       1       1       2       1       1       2
       1       1       2       1       1       2       1       1       2       1
       1       2       1       1       2       1       1       2       1       1
       2       1       1       2       1       1       2       1       1       2
       1       1       2       1       1       2       1       1       2       1
       1       2       1       1       2       1       1       2       1       1
       2       1       1       2       1       1       2       1       1       2
       1       1       2       1       1       2       1       1       2       1
       1       2       1       1       2       1       1       2       1       1
       2       1       1       2       1       1       2       1       1       2
       1       1       2       1       1       2       1       1       2       1
       1       2       1       1       2       1       1       2       1       1
       2       1       1       2       1       1       2       1       1       2
       1       1       2       1       1       2       1       1       2       1
       1       2       1       1       2       1       1       2       1       1
       2       1       1       2       1       1       2       1       1       2
       1       1       2       1       1       2       1       1       2       1
       1       2       1       1       2       1       1       2       1       1
       2       1       1       2       1       1       2       1       1       2
       1       1       2       1       1       2       1       1       2       1
       1       2       1       1       2       1       1       2       1       1
       2       1       1       2       1       1       2       1       1       2
       1       1       2       1       1       2       1       1       2       1
       1       2       1       1       2       1       1       2       1       1
       2       1       1       2       1       1       2       1       1       2
       1       1       2       1       1       2       1       1       2       1
       1       2       1       1       2       1       1       2       1       1
       2       1       1       2       1       1       2       1       1       2
       1       1       2       1       1       2       1       1       2       1
       1       2       1       1       2       1       1       2       1       1
       2       1       1       2       1       1       2       1       1       2
       1       1       2       1       1       2       1       1       2       1
       1       2       1       1       2       1       1       2       1       1
       2       1       1       2       1       1       2       1       1       2
       1       1       2       1       1       2       1       1       2       1
       1       2       1       1       2       1       1       2       1       1
       2       1       1       2       1       1       2       1       1       2
       1       1       2       1       1       2       1       1       2       1
       1       2       1       1       2       1       1       2       1       1
       2       1       1       2       1       1       2       1       1       2
       1       1       2       1       1       2       1       1       2       1
       1       2       1       1       2       1       1       2       1       1
       2       1       1       2       1       1       2       1       1       2
       1       1       2       1       1       2       1       1       2       1
       1       2       1       1       2       1       1       2       1       1
       2       1       1       2       1       1       2       1       1       2
       1       1       2       1       1       2       1       1       2       1
       1       2       1       1       2       1       1       2       1       1
       2       1       1       2       1       1       2       1       1       2
       1       1       2       1       1       2       1       1       2       1
       1       2       1       1       2       1       1       2       1       1
       2       1       1       2       1       1       2       1       1       2
       1       1       2       1       1       2       1       1       2       1
       1       2       1       1       2       1       1       2       1       1
       2       1       1       2       1       1       2       1       1       2
       1       1       2       1       1       2       1       1       2       1
       1       2       1       1       2       1       1       2       1       1
       2       1       1       2       1       1       2       1       1       2
       1       1       2       1       1       2       1       1       2       1
       1       2       1       1       2       1       1       2       1       1
       2       1       1       2       1       1       2       1       1       2
       1       1       2       1       1       2       1       1       2       1
       1       2       1       1       2       1       1       2       1       1
       2       1       1       2       1       1       2       1       1       2
       1       1       2       1       1       2       1       1       2       1
       1       2       1       1       2       1       1       2       1       1
       2       1       1       2       1       1       2       1       1       2
       1       1       2       1       1       2       1       1       2       1
       1       2       1       1       2       1       1       2       1       1
       2       1       1       2       1       1       2       1       1       2
       1       1       2       1       1       2       1       1       2       1
       1       2       1       1       2       1       1       2       1       1
       2       1       1       2       1       1       2       1       1       2
       1       1       2       1       1       2       1       1       2       1
       1       2       1       1       2       1       1       2       1       1
       2       1       1       2       1       1       2       1       1       2
       1       1       2       1       1       2       1       1       2       1
       1       2       1       1       2       1       1       2       1       1
       2       1       1       2       1       1       2       1       1       2
       1       1       2       1       1       2       1       1       2       1
       1       2       1       1       2       1       1       2       1       1
       2       1       1       2       1       1       2       1       1       2
       1       1       2       1       1       2       1       1       2       1
       1       2       1       1       2       1       1       2       1       1
       2       1       1       2       1       1       2       1       1       2
       1       1       2       1       1       2       1       1       2       1
       1       2       1       1       2       1       1       2       1       1
       2       1       1       2       1       1       2       1       1       2
       1       1       2       1       1       2       1       1       2       1
       1       2       1       1       2       1       1       2       1       1
       2       1       1       2       1       1       2       1       1       2
       1       1       2       1       1       2       1       1       2       1
       1       2       1       1       2       1       1       2       1       1
       2       1       1       2       1       1       2       1       1       2
       1       1       2       1       1       2       1       1       2       1
       1       2       1       1       2       1       1       2       1       1
       2       1       1       2       1       1       2       1       1       2
       1       1       2       1       1       2       1       1       2       1
       1       2       1       1       2       1       1       2       1       1
       2       1       1       2       1       1       2       1       1       2
       1       1       2       1       1       2       1       1       2       1
       1       2       1       1       2       1       1       2       1       1
       2       1       1       2       1       1       2       1       1       2
       1       1       2       1       1       2       1       1       2       1
       1       2       1       1       2       1       1       2       1       1
       2       1       1       2       1       1       2       1       1       2
       1       1       2       1       1       2       1       1       2       1
       1       2       1       1       2       1       1       2       1       1
       2       1       1       2       1       1       2       1       1       2
       1       1       2       1       1       2       1       1       2       1
       1       2       1       1       2       1       1       2       1       1
       2       1       1       2       1       1       2       1       1       2
       1       1       2       1       1       2       1       1       2       1
       1       2       1       1       2       1       1       2       1       1
       2       1       1       2       1       1       2       1       1       2
       1       1       2       1       1       2       1       1       2       1
       1       2       1       1       2       1       1       2       1       1
       2       1       1       2       1       1       2       1       1       2
       1       1       2       1       1       2       1       1       2       1
       1       2       1       1       2       1       1       2       1       1
       2       1       1       2       1       1       2       1       1       2
       1       1       2       1       1       2       1       1       2       1
       1       2       1       1       2       1       1       2       1       1
       2       1       1       2       1       1       2       1       1       2
       1       1       2       1       1       2       1       1       2       1
       1       2       1       1       2       1       1       2       1       1
       2       1       1       2       1       1       2       1       1       2
       1       1       2       1       1       2       1       1       2       1
       1       2       1       1       2       1       1       2       1       1
       2       1       1       2       1       1       2       1       1       2
       1       1       2       1       1       2       1       1       2       1
       1       2       1       1       2       1       1       2       1       1
       2       1       1       2       1       1       2       1       1       2
       1       1       2       1       1       2       1       1       2       1
       1       2       1       1       2       1       1       2       1       1
       2       1       1       2       1       1       2       1       1       2
       1       1       2       1       1       2       1       1       2       1
       1       2       1       1       2       1       1       2       1       1
       2       1       1       2       1       1       2       1       1       2
       1       1       2       1       1       2       1       1       2       1
       1       2       1       1       2       1       1       2       1       1
       2       1       1       2       1       1       2       1       1       2
       1       1       2       1       1       2       1       1       2       1
       1       2       1       1       2       1       1       2       1       1
       2       1       1       2       1       1       2       1       1       2
       1       1       2       1       1       2       1       1       2       1
       1       2       1       1       2       1       1       2       1       1
       2       1       1       2       1       1       2       1       1       2
       1       1       2       1       1       2       1       1       2       1
       1       2       1       1       2       1       1       2       1       1
       2       1       1       2       1       1       2       1       1       2
       1       1       2       1       1       2       1       1       2       1
       1       2       1       1       2       1       1       2       1       1
       2       1       1       2       1       1       2       1       1       2
       1       1       2       1       1       2       1       1       2       1
       1       2       1       1       2       1       1       2       1       1
       2       1       1       2       1       1       2       1       1       2
       1       1       2       1       1       2       1       1       2       1
       1       2       1       1       2       1       1       2       1       1
       2       1       1       2       1       1       2       1       1       2
       1       1       2       1       1       2       1       1       2       1
       1       2       1       1       2       1       1       2       1       1
       2       1       1       2       1       1       2       1       1       2
       1       1       2       1       1       2       1       1       2       1
       1       2       1       1       2       1       1       2       1       1
       2       1       1       2       1       1       2       1       1       2
       1       1       2       1       1       2       1       1       2       1
       1       2       1       1       2       1       1       2       1       1
       2       1       1       2       1       1       2       1       1       2
       1       1       2       1       1       2       1       1       2       1
       1       2       1       1       2       1       1       2       1       1
       2       1       1       2       1       1       2       1       1       2
       1       1       2       1       1       2       1       1       2       1
       1       2       1       1       2       1       1       2       1       1
       2       1       1       2       1       1       2       1       1       2
       1       1       2       1       1       2       1       1       2       1
       1       2       1       1       2       1       1       2       1       1
       2       1       1       2       1       1       2       1       1       2
       1       1       2       1       1       2       1       1       2       1
       1       2       1       1       2       1       1       2       1       1
       2       1       1       2       1       1       2       1       1       2
       1       1       2       1       1       2       1       1       2       1
       1       2       1       1       2       1       1       2       1       1
       2       1       1       2       1       1       2       1       1       2
       1       1       2       1       1       2       1       1       2       1
       1       2       1       1       2       1       1       2       1       1
       2       1       1       2       1       1       2       1       1       2
       1       1       2       1       1       2       1       1       2       1
       1       2       1       1       2       1       1       2       1       1
       2       1       1       2       1       1       2       1       1       2
       1       1       2       1       1       2       1       1       2       1
       1       2       1       1       2       1       1       2       1       1
       2       1       1       2       1       1       2       1       1       2
       1       1       2       1       1       2       1       1       2       1
       1       2       1       1       2       1       1       2       1       1
       2       1       1       2       1       1       2       1       1       2
       1       1       2       1       1       2       1       1       2       1
       1       2       1       1       2       1       1       2       1       1
       2       1       1       2       1       1       2       1       1       2
       1       1       2       1       1       2       1       1       2       1
       1       2       1       1       2       1       1       2       1       1
       2       1       1       2       1       1       2       1       1       2
       1       1       2       1       1       2       1       1       2       1
       1       2       1       1       2       1       1       2       1       1
       2       1       1       2       1       1       2       1       1       2
       1       1       2       1       1       2       1       1       2       1
       1       2       1       1       2       1       1       2       1       1
       2       1       1       2       1       1       2       1       1       2
       1       1       2       1       1       2       1       1       2       1
       1       2       1       1       2       1       1       2       1       1
       2       1       1       2       1       1       2       1       1       2
       1       1       2       1       1       2       1       1       2       1
       1       2       1       1       2       1       1       2       1       1
       2       1       1       2       1       1       2       1       1       2
       1       1       2       1       1       2       1       1       2       1
       1       2       1       1       2       1       1       2       1       1
       2       1       1       2       1       1       2       1       1       2
       1       1       2       1       1       2       1       1       2       1
       1       2       1       1       2       1       1       2       1       1
       2       1       1       2       1       1       2       1       1       2
       1       1       2       1       1       2       1       1       2       1
       1       2       1       1       2       1       1       2       1       1
       2       1       1       2       1       1       2       1       1       2
       1       1       2       1       1       2       1       1       2       1
       1       2       1       1       2       1       1       2       1       1
       2       1       1       2       1       1       2       1       1       2
       1       1       2       1       1       2       1       1       2       1
       1       2       1       1       2       1       1       2       1       1
       2       1       1       2       1       1       2       1       1       2
       1       1       2       1       1       2       1       1       2       1
       1       2       1       1       2       1       1       2       1       1
       2       1       1       2       1       1       2       1       1       2
       1       1       2       1       1       2       1       1       2       1
       1       2       1       1       2       1       1       2       1       1
       2       1       1       2       1       1       2       1       1       2
       1       1       2       1       1       2       1       1       2       1
       1       2       1       1       2       1       1       2       1       1
       2       1       1       2       1       1       2       1       1       2
       1       1       2       1       1       2       1       1       2       1
       1       2       1       1       2       1       1       2       1       1
       2       1       1       2       1       1       2       1       1       2
       1       1       2       1       1       2       1       1       2       1
       1       2       1       1       2       1       1       2       1       1
       2       1       1       2       1       1       2       1       1       2
       1       1       2       1       1       2       1       1       2       1
       1       2       1       1       2       1       1       2       1       1
       2       1       1       2       1       1       2       1       1       2
       1       1       2       1       1       2       1       1       2       1
       1       2       1       1       2       1       1       2       1       1
       2       1       1       2       1       1       2       1       1       2
       1       1       2       1       1       2       1       1       2       1
       1       2       1       1       2       1       1       2       1       1
       2       1       1       2       1       1       2       1       1       2
       1       1       2       1       1       2       1       1       2       1
       1       2       1       1       2       1       1       2       1       1
       2       1       1       2       1       1       2       1       1       2
       1       1       2       1       1       2       1       1       2       1
       1       2       1       1       2       1       1       2       1       1
       2       1       1       2       1       1       2       1       1       2
       1       1       2       1       1       2       1       1       2       1
       1       2       1       1       2       1       1       2       1       1
       2       1       1       2       1       1       2       1       1       2
       1       1       2       1       1       2       1       1       2       1
       1       2       1       1       2       1       1       2       1       1
       2       1       1       2       1       1       2       1       1       2
       1       1       2       1       1       2       1       1       2       1
       1       2       1       1       2       1       1       2       1       1
       2       1       1       2       1       1       2       1       1       2
       1       1       2       1       1       2       1       1       2       1
       1       2       1       1       2       1       1       2       1       1
       2       1       1       2       1       1       2       1       1       2
       1       1       2       1       1       2       1       1       2       1
       1       2       1       1       2       1       1       2       1       1
       2       1       1       2       1       1       2       1       1       2
       1       1       2       1       1       2       1       1       2       1
       1       2       1       1       2       1       1       2       1       1
       2       1       1       2       1       1       2       1       1       2
       1       1       2       1       1       2       1       1       2       1
       1       2       1       1       2       1       1       2       1       1
       2       1       1       2       1       1       2       1       1       2
       1       1       2       1       1       2       1       1       2       1
       1       2       1       1       2       1       1       2       1       1
       2       1       1       2       1       1       2       1       1       2
       1       1       2       1       1       2       1       1       2       1
       1       2       1       1       2       1       1       2       1       1
       2       1       1       2       1       1       2       1       1       2
       1       1       2       1       1       2       1       1       2       1
       1       2       1       1       2       1       1       2       1       1
       2       1       1       2       1       1       2       1       1       2
       1       1       2       1       1       2       1       1       2       1
       1       2       1       1       2       1       1       2       1       1
       2       1       1       2       1       1       2       1       1       2
       1       1       2       1       1       2       1       1       2       1
       1       2       1       1       2       1       1       2       1       1
       2       1       1       2       1       1       2       1       1       2
       1       1       2       1       1       2       1       1       2       1
       1       2       1       1       2       1       1       2       1       1
       2       1       1       2       1       1       2       1       1       2
       1       1       2       1       1       2       1       1       2       1
       1       2       1       1       2       1       1       2       1       1
       2       1       1       2       1       1       2       1       1       2
       1       1       2       1       1       2       1       1       2       1
       1       2       1       1       2       1       1       2       1       1
       2       1       1       2       1       1       2       1       1       2
       1       1       2       1       1       2       1       1       2       1
       1       2       1       1       2       1       1       2       1       1
       2       1       1       2       1       1       2       1       1       2
       1       1       2       1       1       2       1       1       2       1
       1       2       1       1       2       1       1       2       1       1
       2       1       1       2       1       1       2       1       1       2
       1       1       2       1       1       2       1       1       2       1
       1       2       1       1       2       1       1       2       1       1
       2       1       1       2       1       1       2       1       1       2
       1       1       2       1       1       2       1       1       2       1
       1       2       1       1       2       1       1       2       1       1
       2       1       1       2       1       1       2       1       1       2
       1       1       2       1       1       2       1       1       2       1
       1       2       1       1       2       1       1       2       1       1
       2       1       1       2       1       1       2       1       1       2
       1       1       2       1       1       2       1       1       2       1
       1       2       1       1       2       1       1       2       1       1
       2       1       1       2       1       1       2       1       1       2
       1       1       2       1       1       2       1       1       2       1
       1       2       1       1       2       1       1       2       1       1
       2       1       1       2       1       1       2       1       1       2
       1       1       2       1       1       2       1       1       2       1
       1       2       1       1       2       1       1       2       1       1
       2       1       1       2       1       1       2       1       1       2
       1       1       2       1       1       2       1       1       2       1
       1       2       1       1       2       1       1       2       1       1
       2       1       1       2       1       1       2       1       1       2
       1       1       2       1       1       2       1       1       2       1
       1       2       1       1       2       1       1       2       1       1
       2       1       1       2       1       1       2       1       1       2
       1       1       2       1       1       2       1       1       2       1
       1       2       1       1       2       1       1       2       1       1
       2       1       1       2       1       1       2       1       1       2
       1       1       2       1       1       2       1       1       2       1
       1       2       1       1       2       1       1       2       1       1
       2       1       1       2       1       1       2       1       1       2
       1       1       2       1       1       2       1       1       2       1
       1       2       1       1       2       1       1       2       1       1
       2       1       1       2       1       1       2       1       1       2
       1       1       2       1       1       2       1       1       2       1
       1       2       1       1       2       1       1       2       1       1
       2       1       1       2       1       1       2       1       1       2
       1       1       2       1       1       2       1       1       2       1
       1       2       1       1       2       1       1       2       1       1
       2       1       1       2       1       1       2       1       1       2
       1       1       2       1       1       2       1       1       2       1
       1       2       1       1       2       1       1       2       1       1
       2       1       1       2       1       1       2       1       1       2
       1       1       2       1       1       2       1       1       2       1
       1       2       1       1       2       1       1       2       1       1
       2       1       1       2       1       1       2       1       1       2
       1       1       2       1       1       2       1       1       2       1
       1       2       1       1       2       1       1       2       1       1
       2       1       1       2       1       1       2       1       1       2
       1       1       2       1       1       2       1       1       2       1
       1       2       1       1       2       1       1       2       1       1
       2       1       1       2       1       1       2       1       1       2
       1       1       2       1       1       2       1       1       2       1
       1       2       1       1       2       1       1       2       1       1
       2       1       1       2       1       1       2       1       1       2
       1       1       2       1       1       2       1       1       2       1
       1       2       1       1       2       1       1       2       1       1
       2       1       1       2       1       1       2       1       1       2
       1       1       2       1       1       2       1       1       2       1
       1       2       1       1       2       1       1       2       1       1
       2       1       1       2       1       1       2       1       1       2
       1       1       2       1       1       2       1       1       2       1
       1       2       1       1       2       1       1       2       1       1
       2       1       1       2       1       1       2       1       1       2
       1       1       2       1       1       2       1       1       2       1
       1       2       1       1       2       1       1       2       1       1
       2       1       1       2       1       1       2       1       1       2
       1       1       2       1       1       2       1       1       2       1
       1       2       1       1       2       1       1       2       1       1
       2       1       1       2       1       1       2       1       1       2
       1       1       2       1       1       2       1       1       2       1
       1       2       1       1       2       1       1       2       1       1
       2       1       1       2       1       1       2       1       1       2
       1       1       2       1       1       2       1       1       2       1
       1       2       1       1       2       1       1       2       1       1
       2       1       1       2       1       1       2       1       1       2
       1       1       2       1       1       2       1       1       2       1
       1       2       1       1       2       1       1       2       1       1
       2       1       1       2       1       1       2       1       1       2
       1       1       2       1       1       2       1       1       2       1
       1       2       1       1       2       1       1       2       1       1
       2       1       1       2       1       1       2       1       1       2
       1       1       2       1       1       2       1       1       2       1
       1       2       1       1       2       1       1       2       1       1
       2       1       1       2       1       1       2       1       1       2
       1       1       2       1       1       2       1       1       2       1
       1       2       1       1       2       1       1       2       1       1
       2       1       1       2       1       1       2       1       1       2
       1       1       2       1       1       2       1       1       2       1
       1       2       1       1       2       1       1       2       1       1
       2       1       1       2       1       1       2       1       1       2
       1       1       2       1       1       2       1       1       2       1
       1       2       1       1       2       1       1       2       1       1
       2       1       1       2       1       1       2       1       1       2
       1       1       2       1       1       2       1       1       2       1
       1       2       1       1       2       1       1       2       1       1
       2       1       1       2       1       1       2       1       1       2
       1       1       2       1       1       2       1       1       2       1
       1       2       1       1       2       1       1       2       1       1
       2       1       1       2       1       1       2       1       1       2
       1       1       2       1       1       2       1       1       2       1
       1       2       1       1       2       1       1       2       1       1
       2       1       1       2       1       1       2       1       1       2
       1       1       2       1       1       2       1       1       2       1
       1       2       1       1       2       1       1       2       1       1
       2       1       1       2       1       1       2       1       1       2
       1       1       2       1       1       2       1       1       2       1
       1       2       1       1       2       1       1       2       1       1
       2       1       1       2       1       1       2       1       1       2
       1       1       2       1       1       2       1       1       2       1
       1       2       1       1       2       1       1       2       1       1
       2       1       1       2       1       1       2       1       1       2
       1       1       2       1       1       2       1       1       2       1
       1       2       1       1       2       1       1       2       1       1
       2       1       1       2       1       1       2       1       1       2
       1       1       2       1       1       2       1       1       2       1
       1       2       1       1       2       1       1       2       1       1
       2       1       1       2       1       1       2       1       1       2
       1       1       2       1       1       2       1       1       2       1
       1       2       1       1       2       1       1       2       1       1
       2       1       1       2       1       1       2       1       1       2
       1       1       2       1       1       2       1       1       2       1
       1       2       1       1       2       1       1       2       1       1
       2       1       1       2       1       1       2       1       1       2
       1       1       2       1       1       2       1       1       2       1
       1       2       1       1       2       1       1       2       1       1
       2       1       1       2       1       1       2       1       1       2
       1       1       2       1       1       2       1       1       2       1
       1       2       1       1       2       1       1       2       1       1
       2       1       1       2       1       1       2       1       1       2
       1       1       2       1       1       2       1       1       2       1
       1       2       1       1       2       1       1       2       1       1
       2       1       1       2       1       1       2       1       1       2
       1       1       2       1       1       2       1       1       2       1
       1       2       1       1       2       1       1       2       1       1
       2       1       1       2       1       1       2       1       1       2
       1       1       2       1       1       2       1       1       2       1
       1       2       1       1       2       1       1       2       1       1
       2       1       1       2       1       1       2       1       1       2
       1       1       2       1       1       2       1       1       2       1
       1       2       1       1       2       1       1       2       1       1
       2       1       1       2       1       1       2       1       1       2
       1       1       2       1       1       2       1       1       2       1
       1       2       1       1       2       1       1       2       1       1
       2       1       1       2       1       1       2       1       1       2
       1       1       2       1       1       2       1       1       2       1
       1       2       1       1       2       1       1       2       1       1
       2       1       1       2       1       1       2       1       1       2
       1       1       2       1       1       2       1       1       2       1
       1       2       1       1       2       1       1       2       1       1
       2       1       1       2       1       1       2       1       1       2
       1       1       2       1       1       2       1       1       2       1
       1       2       1       1       2       1       1       2       1       1
       2       1       1       2       1       1       2       1       1       2
       1       1       2       1       1       2       1       1       2       1
       1       2       1       1       2       1       1       2       1       1
       2       1       1       2       1       1       2       1       1       2
       1       1       2       1       1       2       1       1       2       1
       1       2       1       1       2       1       1       2       1       1
       2       1       1       2       1       1       2       1       1       2
       1       1       2       1       1       2       1       1       2       1
       1       2       1       1       2       1       1       2       1       1
       2       1       1       2       1       1       2       1       1       2
       1       1       2       1       1       2       1       1       2       1
       1       2       1       1       2       1       1       2       1       1
       2       1       1       2       1       1       2       1       1       2
       1       1       2       1       1       2       1       1       2       1
       1       2       1       1       2       1       1       2       1       1
       2       1       1       2       1       1       2       1       1       2
       1       1       2       1       1       2       1       1       2       1
       1       2       1       1       2       1       1       2       1       1
       2       1       1       2       1       1       2       1       1       2
       1       1       2       1       1       2       1       1       2       1
       1       2       1       1       2       1       1       2       1       1
       2       1       1       2       1       1       2       1       1       2
       1       1       2       1       1       2       1       1       2       1
       1       2       1       1       2       1       1       2       1       1
       2       1       1       2       1       1       2       1       1       2
       1       1       2       1       1       2       1       1       2       1
       1       2       1       1       2       1       1       2       1       1
       2       1       1       2       1       1       2       1       1       2
       1       1       2       1       1       2       1       1       2       1
       1       2       1       1       2       1       1       2       1       1
       2       1       1       2       1       1       2       1       1       2
       1       1       2       1       1       2       1       1       2       1
       1       2       1       1       2       1       1       2       1       1
       2       1       1       2       1       1       2       1       1       2
       1       1       2       1       1       2       1       1       2       1
       1       2       1       1       2       1       1       2       1       1
       2       1       1       2       1       1       2       1       1       2
       1       1       2       1       1       2       1       1       2       1
       1       2       1       1       2       1       1       2       1       1
       2       1       1       2       1       1       2       1       1       2
       1       1       2       1       1       2       1       1       2       1
       1       2       1       1       2       1       1       2       1       1
       2       1       1       2       1       1       2       1       1       2
       1       1       2       1       1       2       1       1       2       1
       1       2       1       1       2       1       1       2       1       1
       2       1       1       2       1       1       2       1       1       2
       1       1       2       1       1       2       1       1       2       1
       1       2       1       1       2       1       1       2       1       1
       2       1       1       2       1       1       2       1       1       2
       1       1       2       1       1       2       1       1       2       1
       1       2       1       1       2       1       1       2       1       1
       2       1       1       2       1       1       2       1       1       2
       1       1       2       1       1       2       1       1       2       1
       1       2       1       1       2       1       1       2       1       1
       2       1       1       2       1       1       2       1       1       2
       1       1       2       1       1       2       1       1       2       1
       1       2       1       1       2       1       1       2       1       1
       2       1       1       2       1       1       2       1       1       2
       1       1       2       1       1       2       1       1       2       1
       1       2       1       1       2       1       1       2       1       1
       2       1       1       2       1       1       2       1       1       2
       1       1       2       1       1       2       1       1       2       1
       1       2       1       1       2       1       1       2       1       1
       2       1       1       2       1       1       2       1       1       2
       1       1       2       1       1       2       1       1       2       1
       1       2       1       1       2       1       1       2       1       1
       2       1       1       2       1       1       2       1       1       2
       1       1       2       1       1       2       1       1       2       1
       1       2       1       1       2       1       1       2       1       1
       2       1       1       2       1       1       2       1       1       2
       1       1       2       1       1       2       1       1       2       1
       1       2       1       1       2       1       1       2       1       1
       2       1       1       2       1       1       2       1       1       2
       1       1       2       1       1       2       1       1       2       1
       1       2       1       1       2       1       1       2       1       1
       2       1       1       2       1       1       2       1       1       2
       1       1       2       1       1       2       1       1       2       1
       1       2       1       1       2       1       1       2       1       1
       2       1       1       2       1       1       2       1       1       2
       1       1       2       1       1       2       1       1       2       1
       1       2       1       1       2       1       1       2       1       1
       2       1       1       2       1       1       2       1       1       2
       1       1       2       1       1       2       1       1       2       1
       1       2       1       1       2       1       1       2       1       1
       2       1       1       2       1       1       2       1       1       2
       1       1       2       1       1       2       1       1       2       1
       1       2       1       1       2       1       1       2       1       1
       2       1       1       2       1       1       2       1       1       2
       1       1       2       1       1       2       1       1       2       1
       1       2       1       1       2       1       1       2       1       1
       2       1       1       2       1       1       2       1       1       2
       1       1       2       1       1       2       1       1       2       1
       1       2       1       1       2       1       1       2       1       1
       2       1       1       2       1       1       2       1       1       2
       1       1       2       1       1       2       1       1       2       1
       1       2       1       1       2       1       1       2       1       1
       2       1       1       2       1       1       2       1       1       2
       1       1       2       1       1       2       1       1       2       1
       1       2       1       1       2       1       1       2       1       1
       2       1       1       2       1       1       2       1       1       2
       1       1       2       1       1       2       1       1       2       1
       1       2       1       1       2       1       1       2       1       1
       2       1       1       2       1       1       2       1       1       2
       1       1       2       1       1       2       1       1       2       1
       1       2       1       1       2       1       1       2       1       1
       2       1       1       2       1       1       2       1       1       2
       1       1       2       1       1       2       1       1       2       1
       1       2       1       1       2       1       1       2       1       1
       2       1       1       2       1       1       2       1       1       2
       1       1       2       1       1       2       1       1       2       1
       1       2       1       1       2       1       1       2       1       1
       2       1       1       2       1       1       2       1       1       2
       1       1       2       1       1       2       1       1       2       1
       1       2       1       1       2       1       1       2       1       1
       2       1       1       2       1       1       2       1       1       2
       1       1       2       1       1       2       1       1       2       1
       1       2       1       1       2       1       1       2       1       1
       2       1       1       2       1       1       2       1       1       2
       1       1       2       1       1       2       1       1       2       1
       1       2       1       1       2       1       1       2       1       1
       2       1       1       2       1       1       2       1       1       2
       1       1       2       1       1       2       1       1       2       1
       1       2       1       1       2       1       1       2       1       1
       2       1       1       2       1       1       2       1       1       2
       1       1       2       1       1       2       1       1       2       1
       1       2       1       1       2       1       1       2       1       1
       2       1       1       2       1       1       2       1       1       2
       1       1       2       1       1       2       1       1       2       1
       1       2       1       1       2       1       1       2       1       1
       2       1       1       2       1       1       2       1       1       2
       1       1       2       1       1       2       1       1       2       1
       1       2       1       1       2       1       1       2       1       1
       2       1       1       2       1       1       2       1       1       2
       1       1       2       1       1       2       1       1       2       1
       1       2       1       1       2       1       1       2       1       1
       2       1       1       2       1       1       2       1       1       2
       1       1       2       1       1       2       1       1       2       1
       1       2       1       1       2       1       1       2       1       1
       2       1       1       2       1       1       2       1       1       2
       1       1       2       1       1       2       1       1       2       1
       1       2       1       1       2       1       1       2       1       1
       2       1       1       2       1       1       2       1       1       2
       1       1       2       1       1       2       1       1       2       1
       1       2       1       1       2       1       1       2       1       1
       2       1       1       2       1       1       2       1       1       2
       1       1       2       1       1       2       1       1       2       1
       1       2       1       1       2       1       1       2       1       1
       2       1       1       2       1       1       2       1       1       2
       1       1       2       1       1       2       1       1       2       1
       1       2       1       1       2       1       1       2       1       1
       2       1       1       2       1       1       2       1       1       2
       1       1       2       1       1       2       1       1       2       1
       1       2       1       1       2       1       1       2       1       1
       2       1       1       2       1       1       2       1       1       2
       1       1       2       1       1       2       1       1       2       1
       1       2       1       1       2       1       1       2       1       1
       2       1       1       2       1       1       2       1       1       2
       1       1       2       1       1       2       1       1       2       1
       1       2       1       1       2       1       1       2       1       1
       2       1       1       2       1       1       2       1       1       2
       1       1       2       1       1       2       1       1       2       1
       1       2       1       1       2       1       1       2       1       1
       2       1       1       2       1       1       2       1       1       2
       1       1       2       1       1       2       1       1       2       1
       1       2       1       1       2       1       1       2       1       1
       2       1       1       2       1       1       2       1       1       2
       1       1       2       1       1       2       1       1       2       1
       1       2       1       1       2       1       1       2       1       1
       2       1       1       2       1       1       2       1       1       2
       1       1       2       1       1       2       1       1       2       1
       1       2       1       1       2       1       1       2       1       1
       2       1       1       2       1       1       2       1       1       2
       1       1       2       1       1       2       1       1       2       1
       1       2       1       1       2       1       1       2       1       1
       2       1       1       2       1       1       2       1       1       2
       1       1       2       1       1       2       1       1       2       1
       1       2       1       1       2       1       1       2       1       1
       2       1       1       2       1       1       2       1       1       2
       1       1       2       1       1       2       1       1       2       1
       1       2       1       1       2       1       1       2       1       1
       2       1       1       2       1       1       2       1       1       2
       1       1       2       1       1       2       1       1       2       1
       1       2       1       1       2       1       1       2       1       1
       2       1       1       2       1       1       2       1       1       2
       1       1       2       1       1       2       1       1       2       1
       1       2       1       1       2       1       1       2       1       1
       2       1       1       2       1       1       2       1       1       2
       1       1       2       1       1       2       1       1       2       1
       1       2       1       1       2       1       1       2       1       1
       2       1       1       2       1       1       2       1       1       2
       1       1       2       1       1       2       1       1       2       1
       1       2       1       1       2       1       1       2       1       1
       2       1       1       2       1       1       2       1       1       2
       1       1       2       1       1       2       1       1       2       1
       1       2       1       1       2       1       1       2       1       1
       2       1       1       2       1       1       2       1       1       2
       1       1       2       1       1       2       1       1       2       1
       1       2       1       1       2       1       1       2       1       1
       2       1       1       2       1       1       2       1       1       2
       1       1       2       1       1       2       1       1       2       1
       1       2       1       1       2       1       1       2       1       1
       2       1       1       2       1       1       2       1       1       2
       1       1       2       1       1       2       1       1       2       1
       1       2       1       1       2       1       1       2       1       1
       2       1       1       2       1       1       2       1       1       2
       1       1       2       1       1       2       1       1       2       1
       1       2       1       1       2       1       1       2       1       1
       2       1       1       2       1       1       2       1       1       2
       1       1       2       1       1       2       1       1       2       1
       1       2       1       1       2       1       1       2       1       1
       2       1       1       2       1       1       2       1       1       2
       1       1       2       1       1       2       1       1       2       1
       1       2       1       1       2       1       1       2       1       1
       2       1       1       2       1       1       2       1       1       2
       1       1       2       1       1       2       1       1       2       1
       1       2       1       1       2       1       1       2       1       1
       2       1       1       2       1       1       2       1       1       2
       1       1       2       1       1       2       1       1       2       1
       1       2       1       1       2       1       1       2       1       1
       2       1       1       2       1       1       2       1       1       2
       1       1       2       1       1       2       1       1       2       1
       1       2       1       1       2       1       1       2       1       1
       2       1       1       2       1       1       2       1       1       2
       1       1       2       1       1       2       1       1       2       1
       1       2       1       1       2       1       1       2       1       1
       2       1       1       2       1       1       2       1       1       2
       1       1       2       1       1       2       1       1       2       1
       1       2       1       1       2       1       1       2       1       1
       2       1       1       2       1       1       2       1       1       2
       1       1       2       1       1       2       1       1       2       1
       1       2       1       1       2       1       1       2       1       1
       2       1       1       2       1       1       2       1       1       2
       1       1       2       1       1       2       1       1       2       1
       1       2       1       1       2       1       1       2       1       1
       2       1       1       2       1       1       2       1       1       2
       1       1       2       1       1       2       1       1       2       1
       1       2       1       1       2       1       1       2       1       1
       2       1       1       2       1       1       2       1       1       2
       1       1       2       1       1       2       1       1       2       1
       1       2       1       1       2       1       1       2       1       1
       2       1       1       2       1       1       2       1       1       2
       1       1       2       1       1       2       1       1       2       1
       1       2       1       1       2       1       1       2       1       1
       2       1       1       2       1       1       2       1       1       2
       1       1       2       1       1       2       1       1       2       1
       1       2       1       1       2       1       1       2       1       1
       2       1       1       2       1       1       2       1       1       2
       1       1       2       1       1       2       1       1       2       1
       1       2       1       1       2       1       1       2       1       1
       2       1       1       2       1       1       2       1       1       2
       1       1       2       1       1       2       1       1       2       1
       1       2       1       1       2       1       1       2       1       1
       2       1       1       2       1       1       2       1       1       2
       1       1       2       1       1       2       1       1       2       1
       1       2       1       1       2       1       1       2       1       1
       2       1       1       2       1       1       2       1       1       2
       1       1       2       1       1       2       1       1       2       1
       1       2       1       1       2       1       1       2       1       1
       2       1       1       2       1       1       2       1       1       2
       1       1       2       1       1       2       1       1       2       1
       1       2       1       1       2       1       1       2       1       1
       2       1       1       2       1       1       2       1       1       2
       1       1       2       1       1       2       1       1       2       1
       1       2       1       1       2       1       1       2       1       1
       2       1       1       2       1       1       2       1       1       2
       1       1       2       1       1       2       1       1       2       1
       1       2       1       1       2       1       1       2       1       1
       2       1       1       2       1       1       2       1       1       2
       1       1       2       1       1       2       1       1       2       1
       1       2       1       1       2       1       1       2       1       1
       2       1       1       2       1       1       2       1       1       2
       1       1       2       1       1       2       1       1       2       1
       1       2       1       1       2       1       1       2       1       1
       2       1       1       2       1       1       2       1       1       2
       1       1       2       1       1       2       1       1       2       1
       1       2       1       1       2       1       1       2       1       1
       2       1       1       2       1       1       2       1       1       2
       1       1       2       1       1       2       1       1       2       1
       1       2       1       1       2       1       1       2       1       1
       2       1       1       2       1       1       2       1       1       2
       1       1       2       1       1       2       1       1       2       1
       1       2       1       1       2       1       1       2       1       1
       2       1       1       2       1       1       2       1       1       2
       1       1       2       1       1       2       1       1       2       1
       1       2       1       1       2       1       1       2       1       1
       2       1       1       2       1       1       2       1       1       2
       1       1       2       1       1       2       1       1       2       1
       1       2       1       1       2       1       1       2       1       1
       2       1       1       2       1       1       2       1       1       2
       1       1       2       1       1       2       1       1       2       1
       1       2       1       1       2       1       1       2       1       1
       2       1       1       2       1       1       2       1       1       2
       1       1       2       1       1       2       1       1       2       1
       1       2       1       1       2       1       1       2       1       1
       2       1       1       2       1       1       2       1       1       2
       1       1       2       1       1       2       1       1       2       1
       1       2       1       1       2       1       1       2       1       1
       2       1       1       2       1       1       2       1       1       2
       1       1       2       1       1       2       1       1       2       1
       1       2       1       1       2       1       1       2       1       1
       2       1       1       2       1       1       2       1       1       2
       1       1       2       1       1       2       1       1       2       1
       1       2       1       1       2       1       1       2       1       1
       2       1       1       2       1       1       2       1       1       2
       1       1       2       1       1       2       1       1       2       1
       1       2       1       1       2       1       1       2       1       1
       2       1       1       2       1       1       2       1       1       2
       1       1       2       1       1       2       1       1       2       1
       1       2       1       1       2       1       1       2       1       1
       2       1       1       2       1       1       2       1       1       2
       1       1       2       1       1       2       1       1       2       1
       1       2       1       1       2       1       1       2       1       1
       2       1       1       2       1       1       2       1       1       2
       1       1       2       1       1       2       1       1       2       1
       1       2       1       1       2       1       1       2       1       1
       2       1       1       2       1       1       2       1       1       2
       1       1       2       1       1       2       1       1       2       1
       1       2       1       1       2       1       1       2       1       1
       2       1       1       2       1       1       2       1       1       2
       1       1       2       1       1       2       1       1       2       1
       1       2       1       1       2       1       1       2       1       1
       2       1       1       2       1       1       2       1       1       2
       1       1       2       1       1       2       1       1       2       1
       1       2       1       1       2       1       1       2       1       1
       2       1       1       2       1       1       2       1       1       2
       1       1       2       1       1       2       1       1       2       1
       1       2       1       1       2       1       1       2       1       1
       2       1       1       2       1       1       2       1       1       2
       1       1       2       1       1       2       1       1       2       1
       1       2       1       1       2       1       1       2       1       1
       2       1       1       2       1       1       2       1       1       2
       1       1       2       1       1       2       1       1       2       1
       1       2       1       1       2       1       1       2       1       1
       2       1       1       2       1       1       2       1       1       2
       1       1       2       1       1       2       1       1       2       1
       1       2       1       1       2       1       1       2       1       1
       2       1       1       2       1       1       2       1       1       2
       1       1       2       1       1       2       1       1       2       1
       1       2       1       1       2       1       1       2       1       1
       2       1       1       2       1       1       2       1       1       2
       1       1       2       1       1       2       1       1       2       1
       1       2       1       1       2       1       1       2       1       1
       2       1       1       2       1       1       2       1       1       2
       1       1       2       1       1       2       1       1       2       1
       1       2       1       1       2       1       1       2       1       1
       2       1       1       2       1       1       2       1       1       2
       1       1       2       1       1       2       1       1       2       1
       1       2       1       1       2       1       1       2       1       1
       2       1       1       2       1       1       2       1       1       2
       1       1       2       1       1       2       1       1       2       1
       1       2       1       1       2       1       1       2       1       1
       2       1       1       2       1       1       2       1       1       2
       1       1       2       1       1       2       1       1       2       1
       1       2       1       1       2       1       1       2       1       1
       2       1       1       2       1       1       2       1       1       2
       1       1       2       1       1       2       1       1       2       1
       1       2       1       1       2       1       1       2       1       1
       2       1       1       2       1       1       2       1       1       2
       1       1       2       1       1       2       1       1       2       1
       1       2       1       1       2       1       1       2       1       1
       2       1       1       2       1       1       2       1       1       2
       1       1       2       1       1       2       1       1       2       1
       1       2       1       1       2       1       1       2       1       1
       2       1       1       2       1       1       2       1       1       2
       1       1       2       1       1       2       1       1       2       1
       1       2       1       1       2       1       1       2       1       1
       2       1       1       2       1       1       2       1       1       2
       1       1       2       1       1       2       1       1       2       1
       1       2       1       1       2       1       1       2       1       1
       2       1       1       2       1       1       2       1       1       2
       1       1       2       1       1       2       1       1       2       1
       1       2       1       1       2       1       1       2       1       1
       2       1       1       2       1       1       2       1       1       2
       1       1       2       1       1       2       1       1       2       1
       1       2       1       1       2       1       1       2       1       1
       2       1       1       2       1       1       2       1       1       2
       1       1       2       1       1       2       1       1       2       1
       1       2       1       1       2       1       1       2       1       1
       2       1       1       2       1       1       2       1       1       2
       1       1       2       1       1       2       1       1       2       1
       1       2       1       1       2       1       1       2       1       1
       2       1       1       2       1       1       2       1       1       2
       1       1       2       1       1       2       1       1       2       1
       1       2       1       1       2       1       1       2       1       1
       2       1       1       2       1       1       2       1       1       2
       1       1       2       1       1       2       1       1       2       1
       1       2       1       1       2       1       1       2       1       1
       2       1       1       2       1       1       2       1       1       2
       1       1       2       1       1       2       1       1       2       1
       1       2       1       1       2       1       1       2       1       1
       2       1       1       2       1       1       2       1       1       2
       1       1       2       1       1       2       1       1       2       1
       1       2       1       1       2       1       1       2       1       1
       2       1       1       2       1       1       2       1       1       2
       1       1       2       1       1       2       1       1       2       1
       1       2       1       1       2       1       1       2       1       1
       2       1       1       2       1       1       2       1       1       2
       1       1       2       1       1       2       1       1       2       1
       1       2       1       1       2       1       1       2       1       1
       2       1       1       2       1       1       2       1       1       2
       1       1       2       1       1       2       1       1       2       1
       1       2       1       1       2       1       1       2       1       1
       2       1       1       2       1       1       2       1       1       2
       1       1       2       1       1       2       1       1       2       1
       1       2       1       1       2       1       1       2       1       1
       2       1       1       2       1       1       2       1       1       2
       1       1       2       1       1       2       1       1       2       1
       1       2       1       1       2       1       1       2       1       1
       2       1       1       2       1       1       2       1       1       2
       1       1       2       1       1       2       1       1       2       1
       1       2       1       1       2       1       1       2       1       1
       2       1       1       2       1       1       2       1       1       2
       1       1       2       1       1       2       1       1       2       1
       1       2       1       1       2       1       1       2       1       1
       2       1       1       2       1       1       2       1       1       2
       1       1       2       1       1       2       1       1       2       1
       1       2       1       1       2       1       1       2       1       1
       2       1       1       2       1       1       2       1       1       2
       1       1       2       1       1       2       1       1       2       1
       1       2       1       1       2       1       1       2       1       1
       2       1       1       2       1       1       2       1       1       2
       1       1       2       1       1       2       1       1       2       1
       1       2       1       1       2       1       1       2       1       1
       2       1       1       2       1       1       2       1       1       2
       1       1       2       1       1       2       1       1       2       1
       1       2       1       1       2       1       1       2       1       1
       2       1       1       2       1       1       2       1       1       2
       1       1       2       1       1       2       1       1       2       1
       1       2       1       1       2       1       1       2       1       1
       2       1       1       2       1       1       2       1       1       2
       1       1       2       1       1       2       1       1       2       1
       1       2       1       1       2       1       1       2       1       1
       2       1       1       2       1       1       2       1       1       2
       1       1       2       1       1       2       1       1       2       1
       1       2       1       1       2       1       1       2       1       1
       2       1       1       2       1       1       2       1       1       2
       1       1       2       1       1       2       1       1       2       1
       1       2       1       1       2       1       1       2       1       1
       2       1       1       2       1       1       2       1       1       2
       1       1       2       1       1       2       1       1       2       1
       1       2       1       1       2       1       1       2       1       1
       2       1       1       2       1       1       2       1       1       2
       1       1       2       1       1       2       1       1       2       1
       1       2       1       1       2       1       1       2       1       1
       2       1       1       2       1       1       2       1       1       2
       1       1       2       1       1       2       1       1       2       1
       1       2       1       1       2       1       1       2       1       1
       2       1       1       2       1       1       2       1       1       2
       1       1       2       1       1       2       1       1       2       1
       1       2       1       1       2       1       1       2       1       1
       2       1       1       2       1       1       2       1       1       2
       1       1       2       1       1       2       1       1       2       1
       1       2       1       1       2       1       1       2       1       1
       2       1       1       2       1       1       2       1       1       2
       1       1       2       1       1       2       1       1       2       1
       1       2       1       1       2       1       1       2       1       1
       2       1       1       2       1       1       2       1       1       2
       1       1       2       1       1       2       1       1       2       1
       1       2       1       1       2       1       1       2       1       1
       2       1       1       2       1       1       2       1       1       2
       1       1       2       1       1       2       1       1       2       1
       1       2       1       1       2       1       1       2       1       1
       2       1       1       2       1       1       2       1       1       2
       1       1       2       1       1       2       1       1       2       1
       1       2       1       1       2       1       1       2       1       1
       2       1       1       2       1       1       2       1       1       2
       1       1       2       1       1       2       1       1       2       1
       1       2       1       1       2       1       1       2       1       1
       2       1       1       2       1       1       2       1       1       2
       1       1       2       1       1       2       1       1       2       1
       1       2       1       1       2       1       1       2       1       1
       2       1       1       2       1       1       2       1       1       2
       1       1       2       1       1       2       1       1       2       1
       1       2       1       1       2       1       1       2       1       1
       2       1       1       2       1       1       2       1       1       2
       1       1       2       1       1       2       1       1       2       1
       1       2       1       1       2       1       1       2       1       1
       2       1       1       2       1       1       2       1       1       2
       1       1       2       1       1       2       1       1       2       1
       1       2       1       1       2       1       1       2       1       1
       2       1       1       2       1       1       2       1       1       2
       1       1       2       1       1       2       1       1       2       1
       1       2       1       1       2       1       1       2       1       1
       2       1       1       2       1       1       2       1       1       2
       1       1       2       1       1       2       1       1       2       1
       1       2       1       1       2       1       1       2       1       1
       2       1       1       2       1       1       2       1       1       2
       1       1       2       1       1       2       1       1       2       1
       1       2       1       1       2       1       1       2       1       1
       2       1       1       2       1       1       2       1       1       2
       1       1       2       1       1       2       1       1       2       1
       1       2       1       1       2       1       1       2       1       1
       2       1       1       2       1       1       2       1       1       2
       1       1       2       1       1       2       1       1       2       1
       1       2       1       1       2       1       1       2       1       1
       2       1       1       2       1       1       2       1       1       2
       1       1       2       1       1       2       1       1       2       1
       1       2       1       1       2       1       1       2       1       1
       2       1       1       2       1       1       2       1       1       2
       1       1       2       1       1       2       1       1       2       1
       1       2       1       1       2       1       1       2       1       1
       2       1       1       2       1       1       2       1       1       2
       1       1       2       1       1       2       1       1       2       1
       1       2       1       1       2       1       1       2       1       1
       2       1       1       2       1       1       2       1       1       2
       1       1       2       1       1       2       1       1       2       1
       1       2       1       1       2       1       1       2       1       1
       2       1       1       2       1       1       2       1       1       2
       1       1       2       1       1       2       1       1       2       1
       1       2       1       1       2       1       1       2       1       1
       2       1       1       2       1       1       2       1       1       2
       1       1       2       1       1       2       1       1       2       1
       1       2       1       1       2       1       1       2       1       1
       2       1       1       2       1       1       2       1       1       2
       1       1       2       1       1       2       1       1       2       1
       1       2       1       1       2       1       1       2       1       1
       2       1       1       2       1       1       2       1       1       2
       1       1       2       1       1       2       1       1       2       1
       1       2       1       1       2       1       1       2       1       1
       2       1       1       2       1       1       2       1       1       2
       1       1       2       1       1       2       1       1       2       1
       1       2       1       1       2       1       1       2       1       1
       2       1       1       2       1       1       2       1       1       2
       1       1       2       1       1       2       1       1       2       1
       1       2       1       1       2       1       1       2       1       1
       2       1       1       2       1       1       2       1       1       2
       1       1       2       1       1       2       1       1       2       1
       1       2       1       1       2       1       1       2       1       1
       2       1       1       2       1       1       2       1       1       2
       1       1       2       1       1       2       1       1       2       1
       1       2       1       1       2       1       1       2       1       1
       2       1       1       2       1       1       2       1       1       2
       1       1       2       1       1       2       1       1       2       1
       1       2       1       1       2       1       1       2       1       1
       2       1       1       2       1       1       2       1       1       2
       1       1       2       1       1       2       1       1       2       1
       1       2       1       1       2       1       1       2       1       1
       2       1       1       2       1       1       2       1       1       2
       1       1       2       1       1       2       1       1       2       1
       1       2       1       1       2       1       1       2       1       1
       2       1       1       2       1       1       2       1       1       2
       1       1       2       1       1       2       1       1       2       1
       1       2       1       1       2       1       1       2       1       1
       2       1       1       2       1       1       2       1       1       2
       1       1       2       1       1       2       1       1       2       1
       1       2       1       1       2       1       1       2       1       1
       2       1       1       2       1       1       2       1       1       2
       1       1       2       1       1       2       1       1       2       1
       1       2       1       1       2       1       1       2       1       1
       2       1       1       2       1       1       2       1       1       2
       1       1       2       1       1       2       1       1       2       1
       1       2       1       1       2       1       1       2       1       1
       2       1       1       2       1       1       2       1       1       2
       1       1       2       1       1       2       1       1       2       1
       1       2       1       1       2       1       1       2       1       1
       2       1       1       2       1       1       2       1       1       2
       1       1       2       1       1       2       1       1       2       1
       1       2       1       1       2       1       1       2       1       1
       2       1       1       2       1       1       2       1       1       2
       1       1       2       1       1       2       1       1       2       1
       1       2       1       1       2       1       1       2       1       1
       2       1       1       2       1       1       2       1       1       2
       1       1       2       1       1       2       1       1       2       1
       1       2       1       1       2       1       1       2       1       1
       2       1       1       2       1       1       2       1       1       2
       1       1       2       1       1       2       1       1       2       1
       1       2       1       1       2       1       1       2       1       1
       2       1       1       2       1       1       2       1       1       2
       1       1       2       1       1       2       1       1       2       1
       1       2       1       1       2       1       1       2       1       1
       2       1       1       2       1       1       2       1       1       2
       1       1       2       1       1       2       1       1       2       1
       1       2       1       1       2       1       1       2       1       1
       2       1       1       2       1       1       2       1       1       2
       1       1       2       1       1       2       1       1       2       1
       1       2       1       1       2       1       1       2       1       1
       2       1       1       2       1       1       2       1       1       2
       1       1       2       1       1       2       1       1       2       1
       1       2       1       1       2       1       1       2       1       1
       2       1       1       2       1       1       2       1       1       2
       1       1       2       1       1       2       1       1       2       1
       1       2       1       1       2       1       1       2       1       1
       2       1       1       2       1       1       2       1       1       2
       1       1       2       1       1       2       1       1       2       1
       1       2       1       1       2       1       1       2       1       1
       2       1       1       2       1       1       2       1       1       2
       1       1       2       1       1       2       1       1       2       1
       1       2       1       1       2       1       1       2       1       1
       2       1       1       2       1       1       2       1       1       2
       1       1       2       1       1       2       1       1       2       1
       1       2       1       1       2       1       1       2       1       1
       2       1       1       2       1       1       2       1       1       2
       1       1       2       1       1       2       1       1       2       1
       1       2       1       1       2       1       1       2       1       1
       2       1       1       2       1       1       2       1       1       2
       1       1       2       1       1       2       1       1       2       1
       1       2       1       1       2       1       1       2       1       1
       2       1       1       2       1       1       2       1       1       2
       1       1       2       1       1       2       1       1       2       1
       1       2       1       1       2       1       1       2       1       1
       2       1       1       2       1       1       2       1       1       2
       1       1       2       1       1       2       1       1       2       1
       1       2       1       1       2       1       1       2       1       1
       2       1       1       2       1       1       2       1       1       2
       1       1       2       1       1       2       1       1       2       1
       1       2       1       1       2       1       1       2       1       1
       2       1       1       2       1       1       2       1       1       2
       1       1       2       1       1       2       1       1       2       1
       1       2       1       1       2       1       1       2       1       1
       2       1       1       2       1       1       2       1       1       2
       1       1       2       1       1       2       1       1       2       1
       1       2       1       1       2       1       1       2       1       1
       2       1       1       2       1       1       2       1       1       2
       1       1       2       1       1       2       1       1       2       1
       1       2       1       1       2       1       1       2       1       1
       2       1       1       2       1       1       2       1       1       2
       1       1       2       1       1       2       1       1       2       1
       1       2       1       1       2       1       1       2       1       1
       2       1       1       2       1       1       2       1       1       2
       1       1       2       1       1       2       1       1       2       1
       1       2       1       1       2       1       1       2       1       1
       2       1       1       2       1       1       2       1       1       2
       1       1       2       1       1       2       1       1       2       1
       1       2       1       1       2       1       1       2       1       1
       2       1       1       2       1       1       2       1       1       2
       1       1       2       1       1       2       1       1       2       1
       1       2       1       1       2       1       1       2       1       1
       2       1       1       2       1       1       2       1       1       2
       1       1       2       1       1       2       1       1       2       1
       1       2       1       1       2       1       1       2       1       1
       2       1       1       2       1       1       2       1       1       2
       1       1       2       1       1       2       1       1       2       1
       1       2       1       1       2       1       1       2       1       1
       2       1       1       2       1       1       2       1       1       2
       1       1       2       1       1       2       1       1       2       1
       1       2       1       1       2       1       1       2       1       1
       2       1       1       2       1       1       2       1       1       2
       1       1       2       1       1       2       1       1       2       1
       1       2       1       1       2       1       1       2       1       1
       2       1       1       2       1       1       2       1       1       2
       1       1       2       1       1       2       1       1       2       1
       1       2       1       1       2       1       1       2       1       1
       2       1       1       2       1       1       2       1       1       2
       1       1       2       1       1       2       1       1       2       1
       1       2       1       1       2       1       1       2       1       1
       2       1       1       2       1       1       2       1       1       2
       1       1       2       1       1       2       1       1       2       1
       1       2       1       1       2       1       1       2       1       1
       2       1       1       2       1       1       2       1       1       2
       1       1       2       1       1       2       1       1       2       1
       1       2       1       1       2       1       1       2       1       1
       2       1       1       2       1       1       2       1       1       2
       1       1       2       1       1       2       1       1       2       1
       1       2       1       1       2       1       1       2       1       1
       2       1       1       2       1       1       2       1       1       2
       1       1       2       1       1       2       1       1       2       1
       1       2       1       1       2       1       1       2       1       1
       2       1       1       2       1       1       2       1       1       2
       1       1       2       1       1       2       1       1       2       1
       1       2       1       1       2       1       1       2       1       1
       2       1       1       2       1       1       2       1       1       2
       1       1       2       1       1       2       1       1       2       1
       1       2       1       1       2       1       1       2       1       1
       2       1       1       2       1       1       2       1       1       2
       1       1       2       1       1       2       1       1       2       1
       1       2       1       1       2       1       1       2       1       1
       2       1       1       2       1       1       2       1       1       2
       1       1       2       1       1       2       1       1       2       1
       1       2       1       1       2       1       1       2       1       1
       2       1       1       2       1       1       2       1       1       2
       1       1       2       1       1       2       1       1       2       1
       1       2       1       1       2       1       1       2       1       1
       2       1       1       2       1       1       2       1       1       2
       1       1       2       1       1       2       1       1       2       1
       1       2       1       1       2       1       1       2       1       1
       2       1       1       2       1       1       2       1       1       2
       1       1       2       1       1       2       1       1       2       1
       1       2       1       1       2       1       1       2       1       1
       2       1       1       2       1       1       2       1       1       2
       1       1       2       1       1       2       1       1       2       1
       1       2       1       1       2       1       1       2       1       1
       2       1       1       2       1       1       2       1       1       2
       1       1       2       1       1       2       1       1       2       1
       1       2       1       1       2       1       1       2       1       1
       2       1       1       2       1       1       2       1       1       2
       1       1       2       1       1       2       1       1       2       1
       1       2       1       1       2       1       1       2       1       1
       2       1       1       2       1       1       2       1       1       2
       1       1       2       1       1       2       1       1       2       1
       1       2       1       1       2       1       1       2       1       1
       2       1       1       2       1       1       2       1       1       2
       1       1       2       1       1       2       1       1       2       1
       1       2       1       1       2       1       1       2       1       1
       2       1       1       2       1       1       2       1       1       2
       1       1       2       1       1       2       1       1       2       1
       1       2       1       1       2       1       1       2       1       1
       2       1       1       2       1       1       2       1       1       2
       1       1       2       1       1       2       1       1       2       1
       1       2       1       1       2       1       1       2       1       1
       2       1       1       2       1       1       2       1       1       2
       1       1       2       1       1       2       1       1       2       1
       1       2       1       1       2       1       1       2       1       1
       2       1       1       2       1       1       2       1       1       2
       1       1       2       1       1       2       1       1       2       1
       1       2       1       1       2       1       1       2       1       1
       2       1       1       2       1       1       2       1       1       2
       1       1       2       1       1       2       1       1       2       1
       1       2       1       1       2       1       1       2       1       1
       2       1       1       2       1       1       2       1       1       2
       1       1       2       1       1       2       1       1       2       1
       1       2       1       1       2       1       1       2       1       1
       2       1       1       2       1       1       2       1       1       2
       1       1       2       1       1       2       1       1       2       1
       1       2       1       1       2       1       1       2       1       1
       2       1       1       2       1       1       2       1       1       2
       1       1       2       1       1       2       1       1       2       1
       1       2       1       1       2       1       1       2       1       1
       2       1       1       2       1       1       2       1       1       2
       1       1       2       1       1       2       1       1       2       1
       1       2       1       1       2       1       1       2       1       1
       2       1       1       2       1       1       2       1       1       2
       1       1       2       1       1       2       1       1       2       1
       1       2       1       1       2       1       1       2       1       1
       2       1       1       2       1       1       2       1       1       2
       1       1       2       1       1       2       1       1       2       1
       1       2       1       1       2       1       1       2       1       1
       2       1       1       2       1       1       2       1       1       2
       1       1       2       1       1       2       1       1       2       1
       1       2       1       1       2       1       1       2       1       1
       2       1       1       2       1       1       2       1       1       2
       1       1       2       1       1       2       1       1       2       1
       1       2       1       1       2       1       1       2       1       1
       2       1       1       2       1       1       2       1       1       2
       1       1       2       1       1       2       1       1       2       1
       1       2       1       1       2       1       1       2       1       1
       2       1       1       2       1       1       2       1       1       2
       1       1       2       1       1       2       1       1       2       1
       1       2       1       1       2       1       1       2       1       1
       2       1       1       2       1       1       2       1       1       2
       1       1       2       1       1       2       1       1       2       1
       1       2       1       1       2       1       1       2       1       1
       2       1       1       2       1       1       2       1       1       2
       1       1       2       1       1       2       1       1       2       1
       1       2       1       1       2       1       1       2       1       1
       2       1       1       2       1       1       2       1       1       2
       1       1       2       1       1       2       1       1       2       1
       1       2       1       1       2       1       1       2       1       1
       2       1       1       2       1       1       2       1       1       2
       1       1       2       1       1       2       1       1       2       1
       1       2       1       1       2       1       1       2       1       1
       2       1       1       2       1       1       2       1       1       2
       1       1       2       1       1       2       1       1       2       1
       1       2       1       1       2       1       1       2       1       1
       2       1       1       2       1       1       2       1       1       2
       1       1       2       1       1       2       1       1       2       1
       1       2       1       1       2       1       1       2       1       1
       2       1       1       2       1       1       2       1       1       2
       1       1       2       1       1       2       1       1       2       1
       1       2       1       1       2       1       1       2       1       1
       2       1       1       2       1       1       2       1       1       2
       1       1       2       1       1       2       1       1       2       1
       1       2       1       1       2       1       1       2       1       1
       2       1       1       2       1       1       2       1       1       2
       1       1       2       1       1       2       1       1       2       1
       1       2       1       1       2       1       1       2       1       1
       2       1       1       2       1       1       2       1       1       2
       1       1       2       1       1       2       1       1       2       1
       1       2       1       1       2       1       1       2       1       1
       2       1       1       2       1       1       2       1       1       2
       1       1       2       1       1       2       1       1       2       1
       1       2       1       1       2       1       1       2       1       1
       2       1       1       2       1       1       2       1       1       2
       1       1       2       1       1       2       1       1       2       1
       1       2       1       1       2       1       1       2       1       1
       2       1       1       2       1       1       2       1       1       2
       1       1       2       1       1       2       1       1       2       1
       1       2       1       1       2       1       1       2       1       1
       2       1       1       2       1       1       2       1       1       2
       1       1       2       1       1       2       1       1       2       1
       1       2       1       1       2       1       1       2       1       1
       2       1       1       2       1       1       2       1       1       2
       1       1       2       1       1       2       1       1       2       1
       1       2       1       1       2       1       1       2       1       1
       2       1       1       2       1       1       2       1       1       2
       1       1       2       1       1       2       1       1       2       1
       1       2       1       1       2       1       1       2       1       1
       2       1       1       2       1       1       2       1       1       2
       1       1       2       1       1       2       1       1       2       1
       1       2       1       1       2       1       1       2       1       1
       2       1       1       2       1       1       2       1       1       2
       1       1       2       1       1       2       1       1       2       1
       1       2       1       1       2       1       1       2       1       1
       2       1       1       2       1       1       2       1       1       2
       1       1       2       1       1       2       1       1       2       1
       1       2       1       1       2       1       1       2       1       1
       2       1       1       2       1       1       2       1       1       2
       1       1       2       1       1       2       1       1       2       1
       1       2       1       1       2       1       1       2       1       1
       2       1       1       2       1       1       2       1       1       2
       1       1       2       1       1       2       1       1       2       1
       1       2       1       1       2       1       1       2       1       1
       2       1       1       2       1       1       2       1       1       2
       1       1       2       1       1       2       1       1       2       1
       1       2       1       1       2       1       1       2       1       1
       2       1       1       2       1       1       2       1       1       2
       1       1       2       1       1       2       1       1       2       1
       1       2       1       1       2       1       1       2       1       1
       2       1       1       2       1       1       2       1       1       2
       1       1       2       1       1       2       1       1       2       1
       1       2       1       1       2       1       1       2       1       1
       2       1       1       2       1       1       2       1       1       2
       1       1       2       1       1       2       1       1       2       1
       1       2       1       1       2       1       1       2       1       1
       2       1       1       2       1       1       2       1       1       2
       1       1       2       1       1       2       1       1       2       1
       1       2       1       1       2       1       1       2       1       1
       2       1       1       2       1       1       2       1       1       2
       1       1       2       1       1       2       1       1       2       1
       1       2       1       1       2       1       1       2       1       1
       2       1       1       2       1       1       2       1       1       2
       1       1       2       1       1       2       1       1       2       1
       1       2       1       1       2       1       1       2       1       1
       2       1       1       2       1       1       2       1       1       2
       1       1       2       1       1       2       1       1       2       1
       1       2       1       1       2       1       1       2       1       1
       2       1       1       2       1       1       2       1       1       2
       1       1       2       1       1       2       1       1       2       1
       1       2       1       1       2       1       1       2       1       1
       2       1       1       2       1       1       2       1       1       2
       1       1       2       1       1       2       1       1       2       1
       1       2       1       1       2       1       1       2       1       1
       2       1       1       2       1       1       2       1       1       2
       1       1       2       1       1       2       1       1       2       1
       1       2       1       1       2       1       1       2       1       1
       2       1       1       2       1       1       2       1       1       2
       1       1       2       1       1       2       1       1       2       1
       1       2       1       1       2       1       1       2       1       1
       2       1       1       2       1       1       2       1       1       2
       1       1       2       1       1       2       1       1       2       1
       1       2       1       1       2       1       1       2       1       1
       2       1       1       2       1       1       2       1       1       2
       1       1       2       1       1       2       1       1       2       1
       1       2       1       1       2       1       1       2       1       1
       2       1       1       2       1       1       2       1       1       2
       1       1       2       1       1       2       1       1       2       1
       1       2       1       1       2       1       1       2       1       1
       2       1       1       2       1       1       2       1       1       2
       1       1       2       1       1       2       1       1       2       1
       1       2       1       1       2       1       1       2       1       1
       2       1       1       2       1       1       2       1       1       2
       1       1       2       1       1       2       1       1       2       1
       1       2       1       1       2       1       1       2       1       1
       2       1       1       2       1       1       2       1       1       2
       1       1       2       1       1       2       1       1       2       1
       1       2       1       1       2       1       1       2       1       1
       2       1       1       2       1       1       2       1       1       2
       1       1       2       1       1       2       1       1       2       1
       1       2       1       1       2       1       1       2       1       1
       2       1       1       2       1       1       2       1       1       2
       1       1       2       1       1       2       1       1       2       1
       1       2       1       1       2       1       1       2       1       1
       2       1       1       2       1       1       2       1       1       2
       1       1       2       1       1       2       1       1       2       1
       1       2       1       1       2       1       1       2       1       1
       2       1       1       2       1       1       2       1       1       2
       1       1       2       1       1       2       1       1       2       1
       1       2       1       1       2       1       1       2       1       1
       2       1       1       2       1       1       2       1       1       2
       1       1       2       1       1       2       1       1       2       1
       1       2       1       1       2       1       1       2       1       1
       2       1       1       2       1       1       2       1       1       2
       1       1       2       1       1       2       1       1       2       1
       1       2       1       1       2       1       1       2       1       1
       2       1       1       2       1       1       2       1       1       2
       1       1       2       1       1       2       1       1       2       1
       1       2       1       1       2       1       1       2       1       1
       2       1       1       2       1       1       2       1       1       2
       1       1       2       1       1       2       1       1       2       1
       1       2       1       1       2       1       1       2       1       1
       2       1       1       2       1       1       2       1       1       2
       1       1       2       1       1       2       1       1       2       1
       1       2       1       1       2       1       1       2       1       1
       2       1       1       2       1       1       2       1       1       2
       1       1       2       1       1       2       1       1       2       1
       1       2       1       1       2       1       1       2       1       1
       2       1       1       2       1       1       2       1       1       2
       1       1       2       1       1       2       1       1       2       1
       1       2       1       1       2       1       1       2       1       1
       2       1       1       2       1       1       2       1       1       2
       1       1       2       1       1       2       1       1       2       1
       1       2       1       1       2       1       1       2       1       1
       2       1       1       2       1       1       2       1       1       2
       1       1       2       1       1       2       1       1       2       1
       1       2       1       1       2       1       1       2       1       1
       2       1       1       2       1       1       2       1       1       2
       1       1       2       1       1       2       1       1       2       1
       1       2       1       1       2       1       1       2       1       1
       2       1       1       2       1       1       2       1       1       2
       1       1       2       1       1       2       1       1       2       1
       1       2       1       1       2       1       1       2       1       1
       2       1       1       2       1       1       2       1       1       2
       1       1       2       1       1       2       1       1       2       1
       1       2       1       1       2       1       1       2       1       1
       2       1       1       2       1       1       2       1       1       2
       1       1       2       1       1       2       1       1       2       1
       1       2       1       1       2       1       1       2       1       1
       2       1       1       2       1       1       2       1       1       2
       1       1       2       1       1       2       1       1       2       1
       1       2       1       1       2       1       1       2       1       1
       2       1       1       2       1       1       2       1       1       2
       1       1       2       1       1       2       1       1       2       1
       1       2       1       1       2       1       1       2       1       1
       2       1       1       2       1       1       2       1       1       2
       1       1       2       1       1       2       1       1       2       1
       1       2       1       1       2       1       1       2       1       1
       2       1       1       2       1       1       2       1       1       2
       1       1       2       1       1       2       1       1       2       1
       1       2       1       1       2       1       1       2       1       1
       2       1       1       2       1       1       2       1       1       2
       1       1       2       1       1       2       1       1       2       1
       1       2       1       1       2       1       1       2       1       1
       2       1       1       2       1       1       2       1       1       2
       1       1       2       1       1       2       1       1       2       1
       1       2       1       1       2       1       1       2       1       1
       2       1       1       2       1       1       2       1       1       2
       1       1       2       1       1       2       1       1       2       1
       1       2       1       1       2       1       1       2       1       1
       2       1       1       2       1       1       2       1       1       2
       1       1       2       1       1       2       1       1       2       1
       1       2       1       1       2       1       1       2       1       1
       2       1       1       2       1       1       2       1       1       2
       1       1       2       1       1       2       1       1       2       1
       1       2       1       1       2       1       1       2       1       1
       2       1       1       2       1       1       2       1       1       2
       1       1       2       1       1       2       1       1       2       1
       1       2       1       1       2       1       1       2       1       1
       2       1       1       2       1       1       2       1       1       2
       1       1       2       1       1       2       1       1       2       1
       1       2       1       1       2       1       1       2       1       1
       2       1       1       2       1       1       2       1       1       2
       1       1       2       1       1       2       1       1       2       1
       1       2       1       1       2       1       1       2       1       1
       2       1       1       2       1       1       2       1       1       2
       1       1       2       1       1       2       1       1       2       1
       1       2       1       1       2       1       1       2       1       1
       2       1       1       2       1       1       2       1       1       2
       1       1       2       1       1       2       1       1       2       1
       1       2       1       1       2       1       1       2       1       1
       2       1       1       2       1       1       2       1       1       2
       1       1       2       1       1       2       1       1       2       1
       1       2       1       1       2       1       1       2       1       1
       2       1       1       2       1       1       2       1       1       2
       1       1       2       1       1       2       1       1       2       1
       1       2       1       1       2       1       1       2       1       1
       2       1       1       2       1       1       2       1       1       2
       1       1       2       1       1       2       1       1       2       1
       1       2       1       1       2       1       1       2       1       1
       2       1       1       2       1       1       2       1       1       2
       1       1       2       1       1       2       1       1       2       1
       1       2       1       1       2       1       1       2       1       1
       2       1       1       2       1       1       2       1       1       2
       1       1       2       1       1       2       1       1       2       1
       1       2       1       1       2       1       1       2       1       1
       2       1       1       2       1       1       2       1       1       2
       1       1       2       1       1       2       1       1       2       1
       1       2       1       1       2       1       1       2       1       1
       2       1       1       2       1       1       2       1       1       2
       1       1       2       1       1       2       1       1       2       1
       1       2       1       1       2       1       1       2       1       1
       2       1       1       2       1       1       2       1       1       2
       1       1       2       1       1       2       1       1       2       1
       1       2       1       1       2       1       1       2       1       1
       2       1       1       2       1       1       2       1       1       2
       1       1       2       1       1       2       1       1       2       1
       1       2       1       1       2       1       1       2       1       1
       2       1       1       2       1       1       2       1       1       2
       1       1       2       1       1       2       1       1       2       1
       1       2       1       1       2       1       1       2       1       1
       2       1       1       2       1       1       2       1       1       2
       1       1       2       1       1       2       1       1       2       1
       1       2       1       1       2       1       1       2       1       1
       2       1       1       2       1       1       2       1       1       2
       1       1       2       1       1       2       1       1       2       1
       1       2       1       1       2       1       1       2       1       1
       2       1       1       2       1       1       2       1       1       2
       1       1       2       1       1       2       1       1       2       1
       1       2       1       1       2       1       1       2       1       1
       2       1       1       2       1       1       2       1       1       2
       1       1       2       1       1       2       1       1       2       1
       1       2       1       1       2       1       1       2       1       1
       2       1       1       2       1       1       2       1       1       2
       1       1       2       1       1       2       1       1       2       1
       1       2       1       1       2       1       1       2       1       1
       2       1       1       2       1       1       2       1       1       2
       1       1       2       1       1       2       1       1       2       1
       1       2       1       1       2       1       1       2       1       1
       2       1       1       2       1       1       2       1       1       2
       1       1       2       1       1       2       1       1       2       1
       1       2       1       1       2       1       1       2       1       1
       2       1       1       2       1       1       2       1       1       2
       1       1       2       1       1       2       1       1       2       1
       1       2       1       1       2       1       1       2       1       1
       2       1       1       2       1       1       2       1       1       2
       1       1       2       1       1       2       1       1       2       1
       1       2       1       1       2       1       1       2       1       1
       2       1       1       2       1       1       2       1       1       2
       1       1       2       1       1       2       1       1       2       1
       1       2       1       1       2       1       1       2       1       1
       2       1       1       2       1       1       2       1       1       2
       1       1       2       1       1       2       1       1       2       1
       1       2       1       1       2       1       1       2       1       1
       2       1       1       2       1       1       2       1       1       2
       1       1       2       1       1       2       1       1       2       1
       1       2       1       1       2       1       1       2       1       1
       2       1       1       2       1       1       2       1       1       2
       1       1       2       1       1       2       1       1       2       1
       1       2       1       1       2       1       1       2       1       1
       2       1       1       2       1       1       2       1       1       2
       1       1       2       1       1       2       1       1       2       1
       1       2       1       1       2       1       1       2       1       1
       2       1       1       2       1       1       2       1       1       2
       1       1       2       1       1       2       1       1       2       1
       1       2       1       1       2       1       1       2       1       1
       2       1       1       2       1       1       2       1       1       2
       1       1       2       1       1       2       1       1       2       1
       1       2       1       1       2       1       1       2       1       1
       2       1       1       2       1       1       2       1       1       2
       1       1       2       1       1       2       1       1       2       1
       1       2       1       1       2       1       1       2       1       1
       2       1       1       2       1       1       2       1       1       2
       1       1       2       1       1       2       1       1       2       1
       1       2       1       1       2       1       1       2       1       1
       2       1       1       2       1       1       2       1       1       2
       1       1       2       1       1       2       1       1       2       1
       1       2       1       1       2       1       1       2       1       1
       2       1       1       2       1       1       2       1       1       2
       1       1       2       1       1       2       1       1       2       1
       1       2       1       1       2       1       1       2       1       1
       2       1       1       2       1       1       2       1       1       2
       1       1       2       1       1       2       1       1       2       1
       1       2       1       1       2       1       1       2       1       1
       2       1       1       2       1       1       2       1       1       2
       1       1       2       1       1       2       1       1       2       1
       1       2       1       1       2       1       1       2       1       1
       2       1       1       2       1       1       2       1       1       2
       1       1       2       1       1       2       1       1       2       1
       1       2       1       1       2       1       1       2       1       1
       2       1       1       2       1       1       2       1       1       2
       1       1       2       1       1       2       1       1       2       1
       1       2       1       1       2       1       1       2       1       1
       2       1       1       2       1       1       2       1       1       2
       1       1       2       1       1       2       1       1       2       1
       1       2       1       1       2       1       1       2       1       1
       2       1       1       2       1       1       2       1       1       2
       1       1       2       1       1       2       1       1       2       1
       1       2       1       1       2       1       1       2       1       1
       2       1       1       2       1       1       2       1       1       2
       1       1       2       1       1       2       1       1       2       1
       1       2       1       1       2       1       1       2       1       1
       2       1       1       2       1       1       2       1       1       2
       1       1       2       1       1       2       1       1       2       1
       1       2       1       1       2       1       1       2       1       1
       2       1       1       2       1       1       2       1       1       2
       1       1       2       1       1       2       1       1       2       1
       1       2       1       1       2       1       1       2       1       1
       2       1       1       2       1       1       2       1       1       2
       1       1       2       1       1       2       1       1       2       1
       1       2       1       1       2       1       1       2       1       1
       2       1       1       2       1       1       2       1       1       2
       1       1       2       1       1       2       1       1       2       1
       1       2       1       1       2       1       1       2       1       1
       2       1       1       2       1       1       2       1       1       2
       1       1       2       1       1       2       1       1       2       1
       1       2       1       1       2       1       1       2       1       1
       2       1       1       2       1       1       2       1       1       2
       1       1       2       1       1       2       1       1       2       1
       1       2       1       1       2       1       1       2       1       1
       2       1       1       2       1       1       2       1       1       2
       1       1       2       1       1       2       1       1       2       1
       1       2       1       1       2       1       1       2       1       1
       2       1       1       2       1       1       2       1       1       2
       1       1       2       1       1       2       1       1       2       1
       1       2       1       1       2       1       1       2       1       1
       2       1       1       2       1       1       2       1       1       2
       1       1       2       1       1       2       1       1       2       1
       1       2       1       1       2       1       1       2       1       1
       2       1       1       2       1       1       2       1       1       2
       1       1       2       1       1       2       1       1       2       1
       1       2       1       1       2       1       1       2       1       1
       2       1       1       2       1       1       2       1       1       2
       1       1       2       1       1       2       1       1       2       1
       1       2       1       1       2       1       1       2       1       1
       2       1       1       2       1       1       2       1       1       2
       1       1       2       1       1       2       1       1       2       1
       1       2       1       1       2       1       1       2       1       1
       2       1       1       2       1       1       2       1       1       2
       1       1       2       1       1       2       1       1       2       1
       1       2       1       1       2       1       1       2       1       1
       2       1       1       2       1       1       2       1       1       2
       1       1       2       1       1       2       1       1       2       1
       1       2       1       1       2       1       1       2       1       1
       2       1       1       2       1       1       2       1       1       2
       1       1       2       1       1       2       1       1       2       1
       1       2       1       1       2       1       1       2       1       1
       2       1       1       2       1       1       2       1       1       2
       1       1       2       1       1       2       1       1       2       1
       1       2       1       1       2       1       1       2       1       1
       2       1       1       2       1       1       2       1       1       2
       1       1       2       1       1       2       1       1       2       1
       1       2       1       1       2       1       1       2       1       1
       2       1       1       2       1       1       2       1       1       2
       1       1       2       1       1       2       1       1       2       1
       1       2       1       1       2       1       1       2       1       1
       2       1       1       2       1       1       2       1       1       2
       1       1       2       1       1       2       1       1       2       1
       1       2       1       1       2       1       1       2       1       1
       2       1       1       2       1       1       2       1       1       2
       1       1       2       1       1       2       1       1       2       1
       1       2       1       1       2       1       1       2       1       1
       2       1       1       2       1       1       2       1       1       2
       1       1       2       1       1       2       1       1       2       1
       1       2       1       1       2       1       1       2       1       1
       2       1       1       2       1       1       2       1       1       2
       1       1       2       1       1       2       1       1       2       1
       1       2       1       1       2       1       1       2       1       1
       2       1       1       2       1       1       2       1       1       2
       1       1       2       1       1       2       1       1       2       1
       1       2       1       1       2       1       1       2       1       1
       2       1       1       2       1       1       2       1       1       2
       1       1       2       1       1       2       1       1       2       1
       1       2       1       1       2       1       1       2       1       1
       2       1       1       2       1       1       2       1       1       2
       1       1       2       1       1       2       1       1       2       1
       1       2       1       1       2       1       1       2       1       1
       2       1       1       2       1       1       2       1       1       2
       1       1       2       1       1       2       1       1       2       1
       1       2       1       1       2       1       1       2       1       1
       2       1       1       2       1       1       2       1       1       2
       1       1       2       1       1       2       1       1       2       1
       1       2       1       1       2       1       1       2       1       1
       2       1       1       2       1       1       2       1       1       2
       1       1       2       1       1       2       1       1       2       1
       1       2       1       1       2       1       1       2       1       1
       2       1       1       2       1       1       2       1       1       2
       1       1       2       1       1       2       1       1       2       1
       1       2       1       1       2       1       1       2       1       1
       2       1       1       2       1       1       2       1       1       2
       1       1       2       1       1       2       1       1       2       1
       1       2       1       1       2       1       1       2       1       1
       2       1       1       2       1       1       2       1       1       2
       1       1       2       1       1       2       1       1       2       1
       1       2       1       1       2       1       1       2       1       1
       2       1       1       2       1       1       2       1       1       2
       1       1       2       1       1       2       1       1       2       1
       1       2       1       1       2       1       1       2       1       1
       2       1       1       2       1       1       2       1       1       2
       1       1       2       1       1       2       1       1       2       1
       1       2       1       1       2       1       1       2       1       1
       2       1       1       2       1       1       2       1       1       2
       1       1       2       1       1       2       1       1       2       1
       1       2       1       1       2       1       1       2       1       1
       2       1       1       2       1       1       2       1       1       2
       1       1       2       1       1       2       1       1       2       1
       1       2       1       1       2       1       1       2       1       1
       2       1       1       2       1       1       2       1       1       2
       1       1       2       1       1       2       1       1       2       1
       1       2       1       1       2       1       1       2       1       1
       2       1       1       2       1       1       2       1       1       2
       1       1       2       1       1       2       1       1       2       1
       1       2       1       1       2       1       1       2       1       1
       2       1       1       2       1       1       2       1       1       2
       1       1       2       1       1       2       1       1       2       1
       1       2       1       1       2       1       1       2       1       1
       2       1       1       2       1       1       2       1       1       2
       1       1       2       1       1       2       1       1       2       1
       1       2       1       1       2       1       1       2       1       1
       2       1       1       2       1       1       2       1       1       2
       1       1       2       1       1       2       1       1       2       1
       1       2       1       1       2       1       1       2       1       1
       2       1       1       2       1       1       2       1       1       2
       1       1       2       1       1       2       1       1       2       1
       1       2       1       1       2       1       1       2       1       1
       2       1       1       2       1       1       2       1       1       2
       1       1       2       1       1       2       1       1       2       1
       1       2       1       1       2       1       1       2       1       1
       2       1       1       2       1       1       2       1       1       2
       1       1       2       1       1       2       1       1       2       1
       1       2       1       1       2       1       1       2       1       1
       2       1       1       2       1       1       2       1       1       2
       1       1       2       1       1       2       1       1       2       1
       1       2       1       1       2       1       1       2       1       1
       2       1       1       2       1       1       2       1       1       2
       1       1       2       1       1       2       1       1       2       1
       1       2       1       1       2       1       1       2       1       1
       2       1       1       2       1       1       2       1       1       2
       1       1       2       1       1       2       1       1       2       1
       1       2       1       1       2       1       1       2       1       1
       2       1       1       2       1       1       2       1       1       2
       1       1       2       1       1       2       1       1       2       1
       1       2       1       1       2       1       1       2       1       1
       2       1       1       2       1       1       2       1       1       2
       1       1       2       1       1       2       1       1       2       1
       1       2       1       1       2       1       1       2       1       1
       2       1       1       2       1       1       2       1       1       2
       1       1       2       1       1       2       1       1       2       1
       1       2       1       1       2       1       1       2       1       1
       2       1       1       2       1       1       2       1       1       2
       1       1       2       1       1       2       1       1       2       1
       1       2       1       1       2       1       1       2       1       1
       2       1       1       2       1       1       2       1       1       2
       1       1       2       1       1       2       1       1       2       1
       1       2       1       1       2       1       1       2       1       1
       2       1       1       2       1       1       2       1       1       2
       1       1       2       1       1       2       1       1       2       1
       1       2       1       1       2       1       1       2       1       1
       2       1       1       2       1       1       2       1       1       2
       1       1       2       1       1       2       1       1       2       1
       1       2       1       1       2       1       1       2       1       1
       2       1       1       2       1       1       2       1       1       2
       1       1       2       1       1       2       1       1       2       1
       1       2       1       1       2       1       1       2       1       1
       2       1       1       2       1       1       2       1       1       2
       1       1       2       1       1       2       1       1       2       1
       1       2       1       1       2       1       1       2       1       1
       2       1       1       2       1       1       2       1       1       2
       1       1       2       1       1       2       1       1       2       1
       1       2       1       1       2       1       1       2       1       1
       2       1       1       2       1       1       2       1       1       2
       1       1       2       1       1       2       1       1       2       1
       1       2       1       1       2       1       1       2       1       1
       2       1       1       2       1       1       2       1       1       2
       1       1       2       1       1       2       1       1       2       1
       1       2       1       1       2       1       1       2       1       1
       2       1       1       2       1       1       2       1       1       2
       1       1       2       1       1       2       1       1       2       1
       1       2       1       1       2       1       1       2       1       1
       2       1       1       2       1       1       2       1       1       2
       1       1       2       1       1       2       1       1       2       1
       1       2       1       1       2       1       1       2       1       1
       2       1       1       2       1       1       2       1       1       2
       1       1       2       1       1       2       1       1       2       1
       1       2       1       1       2       1       1       2       1       1
       2       1       1       2       1       1       2       1       1       2
       1       1       2       1       1       2       1       1       2       1
       1       2       1       1       2       1       1       2       1       1
       2       1       1       2       1       1       2       1       1       2
       1       1       2       1       1       2       1       1       2       1
       1       2       1       1       2       1       1       2       1       1
       2       1       1       2       1       1       2       1       1       2
       1       1       2       1       1       2       1       1       2       1
       1       2       1       1       2       1       1       2       1       1
       2       1       1       2       1       1       2       1       1       2
       1       1       2       1       1       2       1       1       2       1
       1       2       1       1       2       1       1       2       1       1
       2       1       1       2       1       1       2       1       1       2
       1       1       2       1       1       2       1       1       2       1
       1       2       1       1       2       1       1       2       1       1
       2       1       1       2       1       1       2       1       1       2
       1       1       2       1       1       2       1       1       2       1
       1       2       1       1       2       1       1       2       1       1
       2       1       1       2       1       1       2       1       1       2
       1       1       2       1       1       2       1       1       2       1
       1       2       1       1       2       1       1       2       1       1
       2       1       1       2       1       1       2       1       1       2
       1       1       2       1       1       2       1       1       2       1
       1       2       1       1       2       1       1       2       1       1
       2       1       1       2       1       1       2       1       1       2
       1       1       2       1       1       2       1       1       2       1
       1       2       1       1       2       1       1       2       1       1
       2       1       1       2       1       1       2       1       1       2
       1       1       2       1       1       2       1       1       2       1
       1       2       1       1       2       1       1       2       1       1
       2       1       1       2       1       1       2       1       1       2
       1       1       2       1       1       2       1       1       2       1
       1       2       1       1       2       1       1       2       1       1
       2       1       1       2       1       1       2       1       1       2
       1       1       2       1       1       2       1       1       2       1
       1       2       1       1       2       1       1       2       1       1
       2       1       1       2       1       1       2       1       1       2
       1       1       2       1       1       2       1       1       2       1
       1       2       1       1       2       1       1       2       1       1
       2       1       1       2       1       1       2       1       1       2
       1       1       2       1       1       2       1       1       2       1
       1       2       1       1       2       1       1       2       1       1
       2       1       1       2       1       1       2       1       1       2
       1       1       2       1       1       2       1       1       2       1
       1       2       1       1       2       1       1       2       1       1
       2       1       1       2       1       1       2       1       1       2
       1       1       2       1       1       2       1       1       2       1
       1       2       1       1       2       1       1       2       1       1
       2       1       1       2       1       1       2       1       1       2
       1       1       2       1       1       2       1       1       2       1
       1       2       1       1       2       1       1       2       1       1
       2       1       1       2       1       1       2       1       1       2
       1       1       2       1       1       2       1       1       2       1
       1       2       1       1       2       1       1       2       1       1
       2       1       1       2       1       1       2       1       1       2
       1       1       2       1       1       2       1       1       2       1
       1       2       1       1       2       1       1       2       1       1
       2       1       1       2       1       1       2       1       1       2
       1       1       2       1       1       2       1       1       2       1
       1       2       1       1       2       1       1       2       1       1
       2       1       1       2       1       1       2       1       1       2
       1       1       2       1       1       2       1       1       2       1
       1       2       1       1       2       1       1       2       1       1
       2       1       1       2       1       1       2       1       1       2
       1       1       2       1       1       2       1       1       2       1
       1       2       1       1       2       1       1       2       1       1
       2       1       1       2       1       1       2       1       1       2
       1       1       2       1       1       2       1       1       2       1
       1       2       1       1       2       1       1       2       1       1
       2       1       1       2       1       1       2       1       1       2
       1       1       2       1       1       2       1       1       2       1
       1       2       1       1       2       1       1       2       1       1
       2       1       1       2       1       1       2       1       1       2
       1       1       2       1       1       2       1       1       2       1
       1       2       1       1       2       1       1       2       1       1
       2       1       1       2       1       1       2       1       1       2
       1       1       2       1       1       2       1       1       2       1
       1       2       1       1       2       1       1       2       1       1
       2       1       1       2       1       1       2       1       1       2
       1       1       2       1       1       2       1       1       2       1
       1       2       1       1       2       1       1       2       1       1
       2       1       1       2       1       1       2       1       1       2
       1       1       2       1       1       2       1       1       2       1
       1       2       1       1       2       1       1       2       1       1
       2       1       1       2       1       1       2       1       1       2
       1       1       2       1       1       2       1       1       2       1
       1       2       1       1       2       1       1       2       1       1
       2       1       1       2       1       1       2       1       1       2
       1       1       2       1       1       2       1       1       2       1
       1       2       1       1       2       1       1       2       1       1
       2       1       1       2       1       1       2       1       1       2
       1       1       2       1       1       2       1       1       2       1
       1       2       1       1       2       1       1       2       1       1
       2       1       1       2       1       1       2       1       1       2
       1       1       2       1       1       2       1       1       2       1
       1       2       1       1       2       1       1       2       1       1
       2       1       1       2       1       1       2       1       1       2
       1       1       2       1       1       2       1       1       2       1
       1       2       1       1       2       1       1       2       1       1
       2       1       1       2       1       1       2       1       1       2
       1       1       2       1       1       2       1       1       2       1
       1       2       1       1       2       1       1       2       1       1
       2       1       1       2       1       1       2       1       1       2
       1       1       2       1       1       2       1       1       2       1
       1       2       1       1       2       1       1       2       1       1
       2       1       1       2       1       1       2       1       1       2
       1       1       2       1       1       2       1       1       2       1
       1       2       1       1       2       1       1       2       1       1
       2       1       1       2       1       1       2       1       1       2
       1       1       2       1       1       2       1       1       2       1
       1       2       1       1       2       1       1       2       1       1
       2       1       1       2       1       1       2       1       1       2
       1       1       2       1       1       2       1       1       2       1
       1       2       1       1       2       1       1       2       1       1
       2       1       1       2       1       1       2       1       1       2
       1       1       2       1       1       2       1       1       2       1
       1       2       1       1       2       1       1       2       1       1
       2       1       1       2       1       1       2       1       1       2
       1       1       2       1       1       2       1       1       2       1
       1       2       1       1       2       1       1       2       1       1
       2       1       1       2       1       1       2       1       1       2
       1       1       2       1       1       2       1       1       2       1
       1       2       1       1       2       1       1       2       1       1
       2       1       1       2       1       1       2       1       1       2
       1       1       2       1       1       2       1       1       2       1
       1       2       1       1       2       1       1       2       1       1
       2       1       1       2       1       1       2       1       1       2
       1       1       2       1       1       2       1       1       2       1
       1       2       1       1       2       1       1       2       1       1
       2       1       1       2       1       1       2       1       1       2
       1       1       2       1       1       2       1       1       2       1
       1       2       1       1       2       1       1       2       1       1
       2       1       1       2       1       1       2       1       1       2
       1       1       2       1       1       2       1       1       2       1
       1       2       1       1       2       1       1       2       1       1
       2       1       1       2       1       1       2       1       1       2
       1       1       2       1       1       2       1       1       2       1
       1       2       1       1       2       1       1       2       1       1
       2       1       1       2       1       1       2       1       1       2
       1       1       2       1       1       2       1       1       2       1
       1       2       1       1       2       1       1       2       1       1
       2       1       1       2       1       1       2       1       1       2
       1       1       2       1       1       2       1       1       2       1
       1       2       1       1       2       1       1       2       1       1
       2       1       1       2       1       1       2       1       1       2
       1       1       2       1       1       2       1       1       2       1
       1       2       1       1       2       1       1       2       1       1
       2       1       1       2       1       1       2       1       1       2
       1       1       2       1       1       2       1       1       2       1
       1       2       1       1       2       1       1       2       1       1
       2       1       1       2       1       1       2       1       1       2
       1       1       2       1       1       2       1       1       2       1
       1       2       1       1       2       1       1       2       1       1
       2       1       1       2       1       1       2       1       1       2
       1       1       2       1       1       2       1       1       2       1
       1       2       1       1       2       1       1       2       1       1
       2       1       1       2       1       1       2       1       1       2
       1       1       2       1       1       2       1       1       2       1
       1       2       1       1       2       1       1       2       1       1
       2       1       1       2       1       1       2       1       1       2
       1       1       2       1       1       2       1       1       2       1
       1       2       1       1       2       1       1       2       1       1
       2       1       1       2       1       1       2       1       1       2
       1       1       2       1       1       2       1       1       2       1
       1       2       1       1       2       1       1       2       1       1
       2       1       1       2       1       1       2       1       1       2
       1       1       2       1       1       2       1       1       2       1
       1       2       1       1       2       1       1       2       1       1
       2       1       1       2       1       1       2       1       1       2
       1       1       2       1       1       2       1       1       2       1
       1       2       1       1       2       1       1       2       1       1
       2       1       1       2       1       1       2       1       1       2
       1       1       2       1       1       2       1       1       2       1
       1       2       1       1       2       1       1       2       1       1
       2       1       1       2       1       1       2       1       1       2
       1       1       2       1       1       2       1       1       2       1
       1       2       1       1       2       1       1       2       1       1
       2       1       1       2       1       1       2       1       1       2
       1       1       2       1       1       2       1       1       2       1
       1       2       1       1       2       1       1       2       1       1
       2       1       1       2       1       1       2       1       1       2
       1       1       2       1       1       2       1       1       2       1
       1       2       1       1       2       1       1       2       1       1
       2       1       1       2       1       1       2       1       1       2
       1       1       2       1       1       2       1       1       2       1
       1       2       1       1       2       1       1       2       1       1
       2       1       1       2       1       1       2       1       1       2
       1       1       2       1       1       2       1       1       2       1
       1       2       1       1       2       1       1       2       1       1
       2       1       1       2       1       1       2       1       1       2
       1       1       2       1       1       2       1       1       2       1
       1       2       1       1       2       1       1       2       1       1
       2       1       1       2       1       1       2       1       1       2
       1       1       2       1       1       2       1       1       2       1
       1       2       1       1       2       1       1       2       1       1
       2       1       1       2       1       1       2       1       1       2
       1       1       2       1       1       2       1       1       2       1
       1       2       1       1       2       1       1       2       1       1
       2       1       1       2       1       1       2       1       1       2
       1       1       2       1       1       2       1       1       2       1
       1       2       1       1       2       1       1       2       1       1
       2       1       1       2       1       1       2       1       1       2
       1       1       2       1       1       2       1       1       2       1
       1       2       1       1       2       1       1       2       1       1
       2       1       1       2       1       1       2       1       1       2
       1       1       2       1       1       2       1       1       2       1
       1       2       1       1       2       1       1       2       1       1
       2       1       1       2       1       1       2       1       1       2
       1       1       2       1       1       2       1       1       2       1
       1       2       1       1       2       1       1       2       1       1
       2       1       1       2       1       1       2       1       1       2
       1       1       2       1       1       2       1       1       2       1
       1       2       1       1       2       1       1       2       1       1
       2       1       1       2       1       1       2       1       1       2
       1       1       2       1       1       2       1       1       2       1
       1       2       1       1       2       1       1       2       1       1
       2       1       1       2       1       1       2       1       1       2
       1       1       2       1       1       2       1       1       2       1
       1       2       1       1       2       1       1       2       1       1
       2       1       1       2       1       1       2       1       1       2
       1       1       2       1       1       2       1       1       2       1
       1       2       1       1       2       1       1       2       1       1
       2       1       1       2       1       1       2       1       1       2
       1       1       2       1       1       2       1       1       2       1
       1       2       1       1       2       1       1       2       1       1
       2       1       1       2       1       1       2       1       1       2
       1       1       2       1       1       2       1       1       2       1
       1       2       1       1       2       1       1       2       1       1
       2       1       1       2       1       1       2       1       1       2
       1       1       2       1       1       2       1       1       2       1
       1       2       1       1       2       1       1       2       1       1
       2       1       1       2       1       1       2       1       1       2
       1       1       2       1       1       2       1       1       2       1
       1       2       1       1       2       1       1       2       1       1
       2       1       1       2       1       1       2       1       1       2
       1       1       2       1       1       2       1       1       2       1
       1       2       1       1       2       1       1       2       1       1
       2       1       1       2       1       1       2       1       1       2
       1       1       2       1       1       2       1       1       2       1
       1       2       1       1       2       1       1       2       1       1
       2       1       1       2       1       1       2       1       1       2
       1       1       2       1       1       2       1       1       2       1
       1       2       1       1       2       1       1       2       1       1
       2       1       1       2       1       1       2       1       1       2
       1       1       2       1       1       2       1       1       2       1
       1       2       1       1       2       1       1       2       1       1
       2       1       1       2       1       1       2       1       1       2
       1       1       2       1       1       2       1       1       2       1
       1       2       1       1       2       1       1       2       1       1
       2       1       1       2       1       1       2       1       1       2
       1       1       2       1       1       2       1       1       2       1
       1       2       1       1       2       1       1       2       1       1
       2       1       1       2       1       1       2       1       1       2
       1       1       2       1       1       2       1       1       2       1
       1       2       1       1       2       1       1       2       1       1
       2       1       1       2       1       1       2       1       1       2
       1       1       2       1       1       2       1       1       2       1
       1       2       1       1       2       1       1       2       1       1
       2       1       1       2       1       1       2       1       1       2
       1       1       2       1       1       2       1       1       2       1
       1       2       1       1       2       1       1       2       1       1
       2       1       1       2       1       1       2       1       1       2
       1       1       2       1       1       2       1       1       2       1
       1       2       1       1       2       1       1       2       1       1
       2       1       1       2       1       1       2       1       1       2
       1       1       2       1       1       2       1       1       2       1
       1       2       1       1       2       1       1       2       1       1
       2       1       1       2       1       1       2       1       1       2
       1       1       2       1       1       2       1       1       2       1
       1       2       1       1       2       1       1       2       1       1
       2       1       1       2       1       1       2       1       1       2
       1       1       2       1       1       2       1       1       2       1
       1       2       1       1       2       1       1       2       1       1
       2       1       1       2       1       1       2       1       1       2
       1       1       2       1       1       2       1       1       2       1
       1       2       1       1       2       1       1       2       1       1
       2       1       1       2       1       1       2       1       1       2
       1       1       2       1       1       2       1       1       2       1
       1       2       1       1       2       1       1       2       1       1
       2       1       1       2       1       1       2       1       1       2
       1       1       2       1       1       2       1       1       2       1
       1       2       1       1       2       1       1       2       1       1
       2       1       1       2       1       1       2       1       1       2
       1       1       2       1       1       2       1       1       2       1
       1       2       1       1       2       1       1       2       1       1
       2       1       1       2       1       1       2       1       1       2
       1       1       2       1       1       2       1       1       2       1
       1       2       1       1       2       1       1       2       1       1
       2       1       1       2       1       1       2       1       1       2
       1       1       2       1       1       2       1       1       2       1
       1       2       1       1       2       1       1       2       1       1
       2       1       1       2       1       1       2       1       1       2
       1       1       2       1       1       2       1       1       2       1
       1       2       1       1       2       1       1       2       1       1
       2       1       1       2       1       1       2       1       1       2
       1       1       2       1       1       2       1       1       2       1
       1       2       1       1       2       1       1       2       1       1
       2       1       1       2       1       1       2       1       1       2
       1       1       2       1       1       2       1       1       2       1
       1       2       1       1       2       1       1       2       1       1
       2       1       1       2       1       1       2       1       1       2
       1       1       2       1       1       2       1       1       2       1
       1       2       1       1       2       1       1       2       1       1
       2       1       1       2       1       1       2       1       1       2
       1       1       2       1       1       2       1       1       2       1
       1       2       1       1       2       1       1       2       1       1
       2       1       1       2       1       1       2       1       1       2
       1       1       2       1       1       2       1       1       2       1
       1       2       1       1       2       1       1       2       1       1
       2       1       1       2       1       1       2       1       1       2
       1       1       2       1       1       2       1       1       2       1
       1       2       1       1       2       1       1       2       1       1
       2       1       1       2       1       1       2       1       1       2
       1       1       2       1       1       2       1       1       2       1
       1       2       1       1       2       1       1       2       1       1
       2       1       1       2       1       1       2       1       1       2
       1       1       2       1       1       2       1       1       2       1
       1       2       1       1       2       1       1       2       1       1
       2       1       1       2       1       1       2       1       1       2
       1       1       2       1       1       2       1       1       2       1
       1       2       1       1       2       1       1       2       1       1
       2       1       1       2       1       1       2       1       1       2
       1       1       2       1       1       2       1       1       2       1
       1       2       1       1       2       1       1       2       1       1
       2       1       1       2       1       1       2       1       1       2
       1       1       2       1       1       2       1       1       2       1
       1       2       1       1       2       1       1       2       1       1
       2       1       1       2       1       1       2       1       1       2
       1       1       2       1       1       2       1       1       2       1
       1       2       1       1       2       1       1       2       1       1
       2       1       1       2       1       1       2       1       1       2
       1       1       2       1       1       2       1       1       2       1
       1       2       1       1       2       1       1       2       1       1
       2       1       1       2       1       1       2       1       1       2
       1       1       2       1       1       2       1       1       2       1
       1       2       1       1       2       1       1       2       1       1
       2       1       1       2       1       1       2       1       1       2
       1       1       2       1       1       2       1       1       2       1
       1       2       1       1       2       1       1       2       1       1
       2       1       1       2       1       1       2       1       1       2
       1       1       2       1       1       2       1       1       2       1
       1       2       1       1       2       1       1       2       1       1
       2       1       1       2       1       1       2       1       1       2
       1       1       2       1       1       2       1       1       2       1
       1       2       1       1       2       1       1       2       1       1
       2       1       1       2       1       1       2       1       1       2
       1       1       2       1       1       2       1       1       2       1
       1       2       1       1       2       1       1       2       1       1
       2       1       1       2       1       1       2       1       1       2
       1       1       2       1       1       2       1       1       2       1
       1       2       1       1       2       1       1       2       1       1
       2       1       1       2       1       1       2       1       1       2
       1       1       2       1       1       2       1       1       2       1
       1       2       1       1       2       1       1       2       1       1
       2       1       1       2       1       1       2       1       1       2
       1       1       2       1       1       2       1       1       2       1
       1       2       1       1       2       1       1       2       1       1
       2       1       1       2       1       1       2       1       1       2
       1       1       2       1       1       2       1       1       2       1
       1       2       1       1       2       1       1       2       1       1
       2       1       1       2       1       1       2       1       1       2
       1       1       2       1       1       2       1       1       2       1
       1       2       1       1       2       1       1       2       1       1
       2       1       1       2       1       1       2       1       1       2
       1       1       2       1       1       2       1       1       2       1
       1       2       1       1       2       1       1       2       1       1
       2       1       1       2       1       1       2       1       1       2
       1       1       2       1       1       2       1       1       2       1
       1       2       1       1       2       1       1       2       1       1
       2       1       1       2       1       1       2       1       1       2
       1       1       2       1       1       2       1       1       2       1
       1       2       1       1       2       1       1       2       1       1
       2       1       1       2       1       1       2       1       1       2
       1       1       2       1       1       2       1       1       2       1
       1       2       1       1       2       1       1       2       1       1
       2       1       1       2       1       1       2       1       1       2
       1       1       2       1       1       2       1       1       2       1
       1       2       1       1       2       1       1       2       1       1
       2       1       1       2       1       1       2       1       1       2
       1       1       2       1       1       2       1       1       2       1
       1       2       1       1       2       1       1       2       1       1
       2       1       1       2       1       1       2       1       1       2
       1       1       2       1       1       2       1       1       2       1
       1       2       1       1       2       1       1       2       1       1
       2       1       1       2       1       1       2       1       1       2
       1       1       2       1       1       2       1       1       2       1
       1       2       1       1       2       1       1       2       1       1
       2       1       1       2       1       1       2       1       1       2
       1       1       2       1       1       2       1       1       2       1
       1       2       1       1       2       1       1       2       1       1
       2       1       1       2       1       1       2       1       1       2
       1       1       2       1       1       2       1       1       2       1
       1       2       1       1       2       1       1       2       1       1
       2       1       1       2       1       1       2       1       1       2
       1       1       2       1       1       2       1       1       2       1
       1       2       1       1       2       1       1       2       1       1
       2       1       1       2       1       1       2       1       1       2
       1       1       2       1       1       2       1       1       2       1
       1       2       1       1       2       1       1       2       1       1
       2       1       1       2       1       1       2       1       1       2
       1       1       2       1       1       2       1       1       2       1
       1       2       1       1       2       1       1       2       1       1
       2       1       1       2       1       1       2       1       1       2
       1       1       2       1       1       2       1       1       2       1
       1       2       1       1       2       1       1       2       1       1
       2       1       1       2       1       1       2       1       1       2
       1       1       2       1       1       2       1       1       2       1
       1       2       1       1       2       1       1       2       1       1
       2       1       1       2       1       1       2       1       1       2
       1       1       2       1       1       2       1       1       2       1
       1       2       1       1       2       1       1       2       1       1
       2       1       1       2       1       1       2       1       1       2
       1       1       2       1       1       2       1       1       2       1
       1       2       1       1       2       1       1       2       1       1
       2       1       1       2       1       1       2       1       1       2
       1       1       2       1       1       2       1       1       2       1
       1       2       1       1       2       1       1       2       1       1
       2       1       1       2       1       1       2       1       1       2
       1       1       2       1       1       2       1       1       2       1
       1       2       1       1       2       1       1       2       1       1
       2       1       1       2       1       1       2       1       1       2
       1       1       2       1       1       2       1       1       2       1
       1       2       1       1       2       1       1       2       1       1
       2       1       1       2       1       1       2       1       1       2
       1       1       2       1       1       2       1       1       2       1
       1       2       1       1       2       1       1       2       1       1
       2       1       1       2       1       1       2       1       1       2
       1       1       2       1       1       2       1       1       2       1
       1       2       1       1       2       1       1       2       1       1
       2       1       1       2       1       1       2       1       1       2
       1       1       2       1       1       2       1       1       2       1
       1       2       1       1       2       1       1       2       1       1
       2       1       1       2       1       1       2       1       1       2
       1       1       2       1       1       2       1       1       2       1
       1       2       1       1       2       1       1       2       1       1
       2       1       1       2       1       1       2       1       1       2
       1       1       2       1       1       2       1       1       2       1
       1       2       1       1       2       1       1       2       1       1
       2       1       1       2       1       1       2       1       1       2
       1       1       2       1       1       2       1       1       2       1
       1       2       1       1       2       1       1       2       1       1
       2       1       1       2       1       1       2       1       1       2
       1       1       2       1       1       2       1       1       2       1
       1       2       1       1       2       1       1       2       1       1
       2       1       1       2       1       1       2       1       1       2
       1       1       2       1       1       2       1       1       2       1
       1       2       1       1       2       1       1       2       1       1
       2       1       1       2       1       1       2       1       1       2
       1       1       2       1       1       2       1       1       2       1
       1       2       1       1       2       1       1       2       1       1
       2       1       1       2       1       1       2       1       1       2
       1       1       2       1       1       2       1       1       2       1
       1       2       1       1       2       1       1       2       1       1
       2       1       1       2       1       1       2       1       1       2
       1       1       2       1       1       2       1       1       2       1
       1       2       1       1       2       1       1       2       1       1
       2       1       1       2       1       1       2       1       1       2
       1       1       2       1       1       2       1       1       2       1
       1       2       1       1       2       1       1       2       1       1
       2       1       1       2       1       1       2       1       1       2
       1       1       2       1       1       2       1       1       2       1
       1       2       1       1       2       1       1       2       1       1
       2       1       1       2       1       1       2       1       1       2
       1       1       2       1       1       2       1       1       2       1
       1       2       1       1       2       1       1       2       1       1
       2       1       1       2       1       1       2       1       1       2
       1       1       2       1       1       2       1       1       2       1
       1       2       1       1       2       1       1       2       1       1
       2       1       1       2       1       1       2       1       1       2
       1       1       2       1       1       2       1       1       2       1
       1       2       1       1       2       1       1       2       1       1
       2       1       1       2       1       1       2       1       1       2
       1       1       2       1       1       2       1       1       2       1
       1       2       1       1       2       1       1       2       1       1
       2       1       1       2       1       1       2       1       1       2
       1       1       2       1       1       2       1       1       2       1
       1       2       1       1       2       1       1       2       1       1
       2       1       1       2       1       1       2       1       1       2
       1       1       2       1       1       2       1       1       2       1
       1       2       1       1       2       1       1       2       1       1
       2       1       1       2       1       1       2       1       1       2
       1       1       2       1       1       2       1       1       2       1
       1       2       1       1       2       1       1       2       1       1
       2       1       1       2       1       1       2       1       1       2
       1       1       2       1       1       2       1       1       2       1
       1       2       1       1       2       1       1       2       1       1
       2       1       1       2       1       1       2       1       1       2
       1       1       2       1       1       2       1       1       2       1
       1       2       1       1       2       1       1       2       1       1
       2       1       1       2       1       1       2       1       1       2
       1       1       2       1       1       2       1       1       2       1
       1       2       1       1       2       1       1       2       1       1
       2       1       1       2       1       1       2       1       1       2
       1       1       2       1       1       2       1       1       2       1
       1       2       1       1       2       1       1       2       1       1
       2       1       1       2       1       1       2       1       1       2
       1       1       2       1       1       2       1       1       2       1
       1       2       1       1       2       1       1       2       1       1
       2       1       1       2       1       1       2       1       1       2
       1       1       2       1       1       2       1       1       2       1
       1       2       1       1       2       1       1       2       1       1
       2       1       1       2       1       1       2       1       1       2
       1       1       2       1       1       2       1       1       2       1
       1       2       1       1       2       1       1       2       1       1
       2       1       1       2       1       1       2       1       1       2
       1       1       2       1       1       2       1       1       2       1
       1       2       1       1       2       1       1       2       1       1
       2       1       1       2       1       1       2       1       1       2
       1       1       2       1       1       2       1       1       2       1
       1       2       1       1       2       1       1       2       1       1
       2       1       1       2       1       1       2       1       1       2
       1       1       2       1       1       2       1       1       2       1
       1       2       1       1       2       1       1       2       1       1
       2       1       1       2       1       1       2       1       1       2
       1       1       2       1       1       2       1       1       2       1
       1       2       1       1       2       1       1       2       1       1
       2       1       1       2       1       1       2       1       1       2
       1       1       2       1       1       2       1       1       2       1
       1       2       1       1       2       1       1       2       1       1
       2       1       1       2       1       1       2       1       1       2
       1       1       2       1       1       2       1       1       2       1
       1       2       1       1       2       1       1       2       1       1
       2       1       1       2       1       1       2       1       1       2
       1       1       2       1       1       2       1       1       2       1
       1       2       1       1       2       1       1       2       1       1
       2       1       1       2       1       1       2       1       1       2
       1       1       2       1       1       2       1       1       2       1
       1       2       1       1       2       1       1       2       1       1
       2       1       1       2       1       1       2       1       1       2
       1       1       2       1       1       2       1       1       2       1
       1       2       1       1       2       1       1       2       1       1
       2       1       1       2       1       1       2       1       1       2
       1       1       2       1       1       2       1       1       2       1
       1       2       1       1       2       1       1       2       1       1
       2       1       1       2       1       1       2       1       1       2
       1       1       2       1       1       2       1       1       2       1
       1       2       1       1       2       1       1       2       1       1
       2       1       1       2       1       1       2       1       1       2
       1       1       2       1       1       2       1       1       2       1
       1       2       1       1       2       1       1       2       1       1
       2       1       1       2       1       1       2       1       1       2
       1       1       2       1       1       2       1       1       2       1
       1       2       1       1       2       1       1       2       1       1
       2       1       1       2       1       1       2       1       1       2
       1       1       2       1       1       2       1       1       2       1
       1       2       1       1       2       1       1       2       1       1
       2       1       1       2       1       1       2       1       1       2
       1       1       2       1       1       2       1       1       2       1
       1       2       1       1       2       1       1       2       1       1
       2       1       1       2       1       1       2       1       1       2
       1       1       2       1       1       2       1       1       2       1
       1       2       1       1       2       1       1       2       1       1
       2       1       1       2       1       1       2       1       1       2
       1       1       2       1       1       2       1       1       2       1
       1       2       1       1       2       1       1       2       1       1
       2       1       1       2       1       1       2       1       1       2
       1       1       2       1       1       2       1       1       2       1
       1       2       1       1       2       1       1       2       1       1
       2       1       1       2       1       1       2       1       1       2
       1       1       2       1       1       2       1       1       2       1
       1       2       1       1       2       1       1       2       1       1
       2       1       1       2       1       1       2       1       1       2
       1       1       2       1       1       2       1       1       2       1
       1       2       1       1       2       1       1       2       1       1
       2       1       1       2       1       1       2       1       1       2
       1       1       2       1       1       2       1       1       2       1
       1       2       1       1       2       1       1       2       1       1
       2       1       1       2       1       1       2       1       1       2
       1       1       2       1       1       2       1       1       2       1
       1       2       1       1       2       1       1       2       1       1
       2       1       1       2       1       1       2       1       1       2
       1       1       2       1       1       2       1       1       2       1
       1       2       1       1       2       1       1       2       1       1
       2       1       1       2       1       1       2       1       1       2
       1       1       2       1       1       2       1       1       2       1
       1       2       1       1       2       1       1       2       1       1
       2       1       1       2       1       1       2       1       1       2
       1       1       2       1       1       2       1       1       2       1
       1       2       1       1       2       1       1       2       1       1
       2       1       1       2       1       1       2       1       1       2
       1       1       2       1       1       2       1       1       2       1
       1       2       1       1       2       1       1       2       1       1
       2       1       1       2       1       1       2       1       1       2
       1       1       2       1       1       2       1       1       2       1
       1       2       1       1       2       1       1       2       1       1
       2       1       1       2       1       1       2       1       1       2
       1       1       2       1       1       2       1       1       2       1
       1       2       1       1       2       1       1       2       1       1
       2       1       1       2       1       1       2       1       1       2
       1       1       2       1       1       2       1       1       2       1
       1       2       1       1       2       1       1       2       1       1
       2       1       1       2       1       1       2       1       1       2
       1       1       2       1       1       2       1       1       2       1
       1       2       1       1       2       1       1       2       1       1
       2       1       1       2       1       1       2       1       1       2
       1       1       2       1       1       2       1       1       2       1
       1       2       1       1       2       1       1       2       1       1
       2       1       1       2       1       1       2       1       1       2
       1       1       2       1       1       2       1       1       2       1
       1       2       1       1       2       1       1       2       1       1
       2       1       1       2       1       1       2       1       1       2
       1       1       2       1       1       2       1       1       2       1
       1       2       1       1       2       1       1       2       1       1
       2       1       1       2       1       1       2       1       1       2
       1       1       2       1       1       2       1       1       2       1
       1       2       1       1       2       1       1       2       1       1
       2       1       1       2       1       1       2       1       1       2
       1       1       2       1       1       2       1       1       2       1
       1       2       1       1       2       1       1       2       1       1
       2       1       1       2       1       1       2       1       1       2
       1       1       2       1       1       2       1       1       2       1
       1       2       1       1       2       1       1       2       1       1
       2       1       1       2       1       1       2       1       1       2
       1       1       2       1       1       2       1       1       2       1
       1       2       1       1       2       1       1       2       1       1
       2       1       1       2       1       1       2       1       1       2
       1       1       2       1       1       2       1       1       2       1
       1       2       1       1       2       1       1       2       1       1
       2       1       1       2       1       1       2       1       1       2
       1       1       2       1       1       2       1       1       2       1
       1       2       1       1       2       1       1       2       1       1
       2       1       1       2       1       1       2       1       1       2
       1       1       2       1       1       2       1       1       2       1
       1       2       1       1       2       1       1       2       1       1
       2       1       1       2       1       1       2       1       1       2
       1       1       2       1       1       2       1       1       2       1
       1       2       1       1       2       1       1       2       1       1
       2       1       1       2       1       1       2       1       1       2
       1       1       2       1       1       2       1       1       2       1
       1       2       1       1       2       1       1       2       1       1
       2       1       1       2       1       1       2       1       1       2
       1       1       2       1       1       2       1       1       2       1
       1       2       1       1       2       1       1       2       1       1
       2       1       1       2       1       1       2       1       1       2
       1       1       2       1       1       2       1       1       2       1
       1       2       1       1       2       1       1       2       1       1
       2       1       1       2       1       1       2       1       1       2
       1       1       2       1       1       2       1       1       2       1
       1       2       1       1       2       1       1       2       1       1
       2       1       1       2       1       1       2       1       1       2
       1       1       2       1       1       2       1       1       2       1
       1       2       1       1       2       1       1       2       1       1
       2       1       1       2       1       1       2       1       1       2
       1       1       2       1       1       2       1       1       2       1
       1       2       1       1       2       1       1       2       1       1
       2       1       1       2       1       1       2       1       1       2
       1       1       2       1       1       2       1       1       2       1
       1       2       1       1       2       1       1       2       1       1
       2       1       1       2       1       1       2       1       1       2
       1       1       2       1       1       2       1       1       2       1
       1       2       1       1       2       1       1       2       1       1
       2       1       1       2       1       1       2       1       1       2
       1       1       2       1       1       2       1       1       2       1
       1       2       1       1       2       1       1       2       1       1
       2       1       1       2       1       1       2       1       1       2
       1       1       2       1       1       2       1       1       2       1
       1       2       1       1       2       1       1       2       1       1
       2       1       1       2       1       1       2       1       1       2
       1       1       2       1       1       2       1       1       2       1
       1       2       1       1       2       1       1       2       1       1
       2       1       1       2       1       1       2       1       1       2
       1       1       2       1       1       2       1       1       2       1
       1       2       1       1       2       1       1       2       1       1
       2       1       1       2       1       1       2       1       1       2
       1       1       2       1       1       2       1       1       2       1
       1       2       1       1       2       1       1       2       1       1
       2       1       1       2       1       1       2       1       1       2
       1       1       2       1       1       2       1       1       2       1
       1       2       1       1       2       1       1       2       1       1
       2       1       1       2       1       1       2       1       1       2
       1       1       2       1       1       2       1       1       2       1
       1       2       1       1       2       1       1       2       1       1
       2       1       1       2       1       1       2       1       1       2
       1       1       2       1       1       2       1       1       2       1
       1       2       1       1       2       1       1       2       1       1
       2       1       1       2       1       1       2       1       1       2
       1       1       2       1       1       2       1       1       2       1
       1       2       1       1       2       1       1       2       1       1
       2       1       1       2       1       1       2       1       1       2
       1       1       2       1       1       2       1       1       2       1
       1       2       1       1       2       1       1       2       1       1
       2       1       1       2       1       1       2       1       1       2
       1       1       2       1       1       2       1       1       2       1
       1       2       1       1       2       1       1       2       1       1
       2       1       1       2       1       1       2       1       1       2
       1       1       2       1       1       2       1       1       2       1
       1       2       1       1       2       1       1       2       1       1
       2       1       1       2       1       1       2       1       1       2
       1       1       2       1       1       2       1       1       2       1
       1       2       1       1       2       1       1       2       1       1
       2       1       1       2       1       1       2       1       1       2
       1       1       2       1       1       2       1       1       2       1
       1       2       1       1       2       1       1       2       1       1
       2       1       1       2       1       1       2       1       1       2
       1       1       2       1       1       2       1       1       2       1
       1       2       1       1       2       1       1       2       1       1
       2       1       1       2       1       1       2       1       1       2
       1       1       2       1       1       2       1       1       2       1
       1       2       1       1       2       1       1       2       1       1
       2       1       1       2       1       1       2       1       1       2
       1       1       2       1       1       2       1       1       2       1
       1       2       1       1       2       1       1       2       1       1
       2       1       1       2       1       1       2       1       1       2
       1       1       2       1       1       2       1       1       2       1
       1       2       1       1       2       1       1       2       1       1
       2       1       1       2       1       1       2       1       1       2
       1       1       2       1       1       2       1       1       2       1
       1       2       1       1       2       1       1       2       1       1
       2       1       1       2       1       1       2       1       1       2
       1       1       2       1       1       2       1       1       2       1
       1       2       1       1       2       1       1       2       1       1
       2       1       1       2       1       1       2       1       1       2
       1       1       2       1       1       2       1       1       2       1
       1       2       1       1       2       1       1       2       1       1
       2       1       1       2       1       1       2       1       1       2
       1       1       2       1       1       2       1       1       2       1
       1       2       1       1       2       1       1       2       1       1
       2       1       1       2       1       1       2       1       1       2
       1       1       2       1       1       2       1       1       2       1
       1       2       1       1       2       1       1       2       1       1
       2       1       1       2       1       1       2       1       1       2
       1       1       2       1       1       2       1       1       2       1
       1       2       1       1       2       1       1       2       1       1
       2       1       1       2       1       1       2       1       1       2
       1       1       2       1       1       2       1       1       2       1
       1       2       1       1       2       1       1       2       1       1
       2       1       1       2       1       1       2       1       1       2
       1       1       2       1       1       2       1       1       2       1
       1       2       1       1       2       1       1       2       1       1
       2       1       1       2       1       1       2       1       1       2
       1       1       2       1       1       2       1       1       2       1
       1       2       1       1       2       1       1       2       1       1
       2       1       1       2       1       1       2       1       1       2
       1       1       2       1       1       2       1       1       2       1
       1       2       1       1       2       1       1       2       1       1
       2       1       1       2       1       1       2       1       1       2
       1       1       2       1       1       2       1       1       2       1
       1       2       1       1       2       1       1       2       1       1
       2       1       1       2       1       1       2       1       1       2
       1       1       2       1       1       2       1       1       2       1
       1       2       1       1       2       1       1       2       1       1
       2       1       1       2       1       1       2       1       1       2
       1       1       2       1       1       2       1       1       2       1
       1       2       1       1       2       1       1       2       1       1
       2       1       1       2       1       1       2       1       1       2
       1       1       2       1       1       2       1       1       2       1
       1       2       1       1       2       1       1       2       1       1
       2       1       1       2       1       1       2       1       1       2
       1       1       2       1       1       2       1       1       2       1
       1       2       1       1       2       1       1       2       1       1
       2       1       1       2       1       1       2       1       1       2
       1       1       2       1       1       2       1       1       2       1
       1       2       1       1       2       1       1       2       1       1
       2       1       1       2       1       1       2       1       1       2
       1       1       2       1       1       2       1       1       2       1
       1       2       1       1       2       1       1       2       1       1
       2       1       1       2       1       1       2       1       1       2
       1       1       2       1       1       2       1       1       2       1
       1       2       1       1       2       1       1       2       1       1
       2       1       1       2       1       1       2       1       1       2
       1       1       2       1       1       2       1       1       2       1
       1       2       1       1       2       1       1       2       1       1
       2       1       1       2       1       1       2       1       1       2
       1       1       2       1       1       2       1       1       2       1
       1       2       1       1       2       1       1       2       1       1
       2       1       1       2       1       1       2       1       1       2
       1       1       2       1       1       2       1       1       2       1
       1       2       1       1       2       1       1       2       1       1
       2       1       1       2       1       1       2       1       1       2
       1       1       2       1       1       2       1       1       2       1
       1       2       1       1       2       1       1       2       1       1
       2       1       1       2       1       1       2       1       1       2
       1       1       2       1       1       2       1       1       2       1
       1       2       1       1       2       1       1       2       1       1
       2       1       1       2       1       1       2       1       1       2
       1       1       2       1       1       2       1       1       2       1
       1       2       1       1       2       1       1       2       1       1
       2       1       1       2       1       1       2       1       1       2
       1       1       2       1       1       2       1       1       2       1
       1       2       1       1       2       1       1       2       1       1
       2       1       1       2       1       1       2       1       1       2
       1       1       2       1       1       2       1       1       2       1
       1       2       1       1       2       1       1       2       1       1
       2       1       1       2       1       1       2       1       1       2
       1       1       2       1       1       2       1       1       2       1
       1       2       1       1       2       1       1       2       1       1
       2       1       1       2       1       1       2       1       1       2
       1       1       2       1       1       2       1       1       2       1
       1       2       1       1       2       1       1       2       1       1
       2       1       1       2       1       1       2       1       1       2
       1       1       2       1       1       2       1       1       2       1
       1       2       1       1       2       1       1       2       1       1
       2       1       1       2       1       1       2       1       1       2
       1       1       2       1       1       2       1       1       2       1
       1       2       1       1       2       1       1       2       1       1
       2       1       1       2       1       1       2       1       1       2
       1       1       2       1       1       2       1       1       2       1
       1       2       1       1       2       1       1       2       1       1
       2       1       1       2       1       1       2       1       1       2
       1       1       2       1       1       2       1       1       2       1
       1       2       1       1       2       1       1       2       1       1
       2       1       1       2       1       1       2       1       1       2
       1       1       2       1       1       2       1       1       2       1
       1       2       1       1       2       1       1       2       1       1
       2       1       1       2       1       1       2       1       1       2
       1       1       2       1       1       2       1       1       2       1
       1       2       1       1       2       1       1       2       1       1
       2       1       1       2       1       1       2       1       1       2
       1       1       2       1       1       2       1       1       2       1
       1       2       1       1       2       1       1       2       1       1
       2       1       1       2       1       1       2       1       1       2
       1       1       2       1       1       2       1       1       2       1
       1       2       1       1       2       1       1       2       1       1
       2       1       1       2       1       1       2       1       1       2
       1       1       2       1       1       2       1       1       2       1
       1       2       1       1       2       1       1       2       1       1
       2       1       1       2       1       1       2       1       1       2
       1       1       2       1       1       2       1       1       2       1
       1       2       1       1       2       1       1       2       1       1
       2       1       1       2       1       1       2       1       1       2
       1       1       2       1       1       2       1       1       2       1
       1       2       1       1       2       1       1       2       1       1
       2       1       1       2       1       1       2       1       1       2
       1       1       2       1       1       2       1       1       2       1
       1       2       1       1       2       1       1       2       1       1
       2       1       1       2       1       1       2       1       1       2
       1       1       2       1       1       2       1       1       2       1
       1       2       1       1       2       1       1       2       1       1
       2       1       1       2       1       1       2       1       1       2
       1       1       2       1       1       2       1       1       2       1
       1       2       1       1       2       1       1       2       1       1
       2       1       1       2       1       1       2       1       1       2
       1       1       2       1       1       2       1       1       2       1
       1       2       1       1       2       1       1       2       1       1
       2       1       1       2       1       1       2       1       1       2
       1       1       2       1       1       2       1       1       2       1
       1       2       1       1       2       1       1       2       1       1
       2       1       1       2       1       1       2       1       1       2
       1       1       2       1       1       2       1       1       2       1
       1       2       1       1       2       1       1       2       1       1
       2       1       1       2       1       1       2       1       1       2
       1       1       2       1       1       2       1       1       2       1
       1       2       1       1       2       1       1       2       1       1
       2       1       1       2       1       1       2       1       1       2
       1       1       2       1       1       2       1       1       2       1
       1       2       1       1       2       1       1       2       1       1
       2       1       1       2       1       1       2       1       1       2
       1       1       2       1       1       2       1       1       2       1
       1       2       1       1       2       1       1       2       1       1
       2       1       1       2       1       1       2       1       1       2
       1       1       2       1       1       2       1       1       2       1
       1       2       1       1       2       1       1       2       1       1
       2       1       1       2       1       1       2       1       1       2
       1       1       2       1       1       2       1       1       2       1
       1       2       1       1       2       1       1       2       1       1
       2       1       1       2       1       1       2       1       1       2
       1       1       2       1       1       2       1       1       2       1
       1       2       1       1       2       1       1       2       1       1
       2       1       1       2       1       1       2       1       1       2
       1       1       2       1       1       2       1       1       2       1
       1       2       1       1       2       1       1       2       1       1
       2       1       1       2       1       1       2       1       1       2
       1       1       2       1       1       2       1       1       2       1
       1       2       1       1       2       1       1       2       1       1
       2       1       1       2       1       1       2       1       1       2
       1       1       2       1       1       2       1       1       2       1
       1       2       1       1       2       1       1       2       1       1
       2       1       1       2       1       1       2       1       1       2
       1       1       2       1       1       2       1       1       2       1
       1       2       1       1       2       1       1       2       1       1
       2       1       1       2       1       1       2       1       1       2
       1       1       2       1       1       2       1       1       2       1
       1       2       1       1       2       1       1       2       1       1
       2       1       1       2       1       1       2       1       1       2
       1       1       2       1       1       2       1       1       2       1
       1       2       1       1       2       1       1       2       1       1
       2       1       1       2       1       1       2       1       1       2
       1       1       2       1       1       2       1       1       2       1
       1       2       1       1       2       1       1       2       1       1
       2       1       1       2       1       1       2       1       1       2
       1       1       2       1       1       2       1       1       2       1
       1       2       1       1       2       1       1       2       1       1
       2       1       1       2       1       1       2       1       1       2
       1       1       2       1       1       2       1       1       2       1
       1       2       1       1       2       1       1       2       1       1
       2       1       1       2       1       1       2       1       1       2
       1       1       2       1       1       2       1       1       2       1
       1       2       1       1       2       1       1       2       1       1
       2       1       1       2       1       1       2       1       1       2
       1       1       2       1       1       2       1       1       2       1
       1       2       1       1       2       1       1       2       1       1
       2       1       1       2       1       1       2       1       1       2
       1       1       2       1       1       2       1       1       2       1
       1       2       1       1       2       1       1       2       1       1
       2       1       1       2       1       1       2       1       1       2
       1       1       2       1       1       2       1       1       2       1
       1       2       1       1       2       1       1       2       1       1
       2       1       1       2       1       1       2       1       1       2
       1       1       2       1       1       2       1       1       2       1
       1       2       1       1       2       1       1       2       1       1
       2       1       1       2       1       1       2       1       1       2
       1       1       2       1       1       2       1       1       2       1
       1       2       1       1       2       1       1       2       1       1
       2       1       1       2       1       1       2       1       1       2
       1       1       2       1       1       2       1       1       2       1
       1       2       1       1       2       1       1       2       1       1
       2       1       1       2       1       1       2       1       1       2
       1       1       2       1       1       2       1       1       2       1
       1       2       1       1       2       1       1       2       1       1
       2       1       1       2       1       1       2       1       1       2
       1       1       2       1       1       2       1       1       2       1
       1       2       1       1       2       1       1       2       1       1
       2       1       1       2       1       1       2       1       1       2
       1       1       2       1       1       2       1       1       2       1
       1       2       1       1       2       1       1       2       1       1
       2       1       1       2       1       1       2       1       1       2
       1       1       2       1       1       2       1       1       2       1
       1       2       1       1       2       1       1       2       1       1
       2       1       1       2       1       1       2       1       1       2
       1       1       2       1       1       2       1       1       2       1
       1       2       1       1       2       1       1       2       1       1
       2       1       1       2       1       1       2       1       1       2
       1       1       2       1       1       2       1       1       2       1
       1       2       1       1       2       1       1       2       1       1
       2       1       1       2       1       1       2       1       1       2
       1       1       2       1       1       2       1       1       2       1
       1       2       1       1       2       1       1       2       1       1
       2       1       1       2       1       1       2       1       1       2
       1       1       2       1       1       2       1       1       2       1
       1       2       1       1       2       1       1       2       1       1
       2       1       1       2       1       1       2       1       1       2
       1       1       2       1       1       2       1       1       2       1
       1       2       1       1       2       1       1       2       1       1
       2       1       1       2       1       1       2       1       1       2
       1       1       2       1       1       2       1       1       2       1
       1       2       1       1       2       1       1       2       1       1
       2       1       1       2       1       1       2       1       1       2
       1       1       2       1       1       2       1       1       2       1
       1       2       1       1       2       1       1       2       1       1
       2       1       1       2       1       1       2       1       1       2
       1       1       2       1       1       2       1       1       2       1
       1       2       1       1       2       1       1       2       1       1
       2       1       1       2       1       1       2       1       1       2
       1       1       2       1       1       2       1       1       2       1
       1       2       1       1       2       1       1       2       1       1
       2       1       1       2       1       1       2       1       1       2
       1       1       2       1       1       2       1       1       2       1
       1       2       1       1       2       1       1       2       1       1
       2       1       1       2       1       1       2       1       1       2
       1       1       2       1       1       2       1       1       2       1
       1       2       1       1       2       1       1       2       1       1
       2       1       1       2       1       1       2       1       1       2
       1       1       2       1       1       2       1       1       2       1
       1       2       1       1       2       1       1       2       1       1
       2       1       1       2       1       1       2       1       1       2
       1       1       2       1       1       2       1       1       2       1
       1       2       1       1       2       1       1       2       1       1
       2       1       1       2       1       1       2       1       1       2
       1       1       2       1       1       2       1       1       2       1
       1       2       1       1       2       1       1       2       1       1
       2       1       1       2       1       1       2       1       1       2
       1       1       2       1       1       2       1       1       2       1
       1       2       1       1       2       1       1       2       1       1
       2       1       1       2       1       1       2       1       1       2
       1       1       2       1       1       2       1       1       2       1
       1       2       1       1       2       1       1       2       1       1
       2       1       1       2       1       1       2       1       1       2
       1       1       2       1       1       2       1       1       2       1
       1       2       1       1       2       1       1       2       1       1
       2       1       1       2       1       1       2       1       1       2
       1       1       2       1       1       2       1       1       2       1
       1       2       1       1       2       1       1       2       1       1
       2       1       1       2       1       1       2       1       1       2
       1       1       2       1       1       2       1       1       2       1
       1       2       1       1       2       1       1       2       1       1
       2       1       1       2       1       1       2       1       1       2
       1       1       2       1       1       2       1       1       2       1
       1       2       1       1       2       1       1       2       1       1
       2       1       1       2       1       1       2       1       1       2
       1       1       2       1       1       2       1       1       2       1
       1       2       1       1       2       1       1       2       1       1
       2       1       1       2       1       1       2       1       1       2
       1       1       2       1       1       2       1       1       2       1
       1       2       1       1       2       1       1       2       1       1
       2       1       1       2       1       1       2       1       1       2
       1       1       2       1       1       2       1       1       2       1
       1       2       1       1       2       1       1       2       1       1
       2       1       1       2       1       1       2       1       1       2
       1       1       2       1       1       2       1       1       2       1
       1       2       1       1       2       1       1       2       1       1
       2       1       1       2       1       1       2       1       1       2
       1       1       2       1       1       2       1       1       2       1
       1       2       1       1       2       1       1       2       1       1
       2       1       1       2       1       1       2       1       1       2
       1       1       2       1       1       2       1       1       2       1
       1       2       1       1       2       1       1       2       1       1
       2       1       1       2       1       1       2       1       1       2
       1       1       2       1       1       2       1       1       2       1
       1       2       1       1       2       1       1       2       1       1
       2       1       1       2       1       1       2       1       1       2
       1       1       2       1       1       2       1       1       2       1
       1       2       1       1       2       1       1       2       1       1
       2       1       1       2       1       1       2       1       1       2
       1       1       2       1       1       2       1       1       2       1
       1       2       1       1       2       1       1       2       1       1
       2       1       1       2       1       1       2       1       1       2
       1       1       2       1       1       2       1       1       2       1
       1       2       1       1       2       1       1       2       1       1
       2       1       1       2       1       1       2       1       1       2
       1       1       2       1       1       2       1       1       2       1
       1       2       1       1       2       1       1       2       1       1
       2       1       1       2       1       1       2       1       1       2
       1       1       2       1       1       2       1       1       2       1
       1       2       1       1       2       1       1       2       1       1
       2       1       1       2       1       1       2       1       1       2
       1       1       2       1       1       2       1       1       2       1
       1       2       1       1       2       1       1       2       1       1
       2       1       1       2       1       1       2       1       1       2
       1       1       2       1       1       2       1       1       2       1
       1       2       1       1       2       1       1       2       1       1
       2       1       1       2       1       1       2       1       1       2
       1       1       2       1       1       2       1       1       2       1
       1       2       1       1       2       1       1       2       1       1
       2       1       1       2       1       1       2       1       1       2
       1       1       2       1       1       2       1       1       2       1
       1       2       1       1       2       1       1       2       1       1
       2       1       1       2       1       1       2       1       1       2
       1       1       2       1       1       2       1       1       2       1
       1       2       1       1       2       1       1       2       1       1
       2       1       1       2       1       1       2       1       1       2
       1       1       2       1       1       2       1       1       2       1
       1       2       1       1       2       1       1       2       1       1
       2       1       1       2       1       1       2       1       1       2
       1       1       2       1       1       2       1       1       2       1
       1       2       1       1       2       1       1       2       1       1
       2       1       1       2       1       1       2       1       1       2
       1       1       2       1       1       2       1       1       2       1
       1       2       1       1       2       1       1       2       1       1
       2       1       1       2       1       1       2       1       1       2
       1       1       2       1       1       2       1       1       2       1
       1       2       1       1       2       1       1       2       1       1
       2       1       1       2       1       1       2       1       1       2
       1       1       2       1       1       2       1       1       2       1
       1       2       1       1       2       1       1       2       1       1
       2       1       1       2       1       1       2       1       1       2
       1       1       2       1       1       2       1       1       2       1
       1       2       1       1       2       1       1       2       1       1
       2       1       1       2       1       1       2       1       1       2
       1       1       2       1       1       2       1       1       2       1
       1       2       1       1       2       1       1       2       1       1
       2       1       1       2       1       1       2       1       1       2
       1       1       2       1       1       2       1       1       2       1
       1       2       1       1       2       1       1       2       1       1
       2       1       1       2       1       1       2       1       1       2
       1       1       2       1       1       2       1       1       2       1
       1       2       1       1       2       1       1       2       1       1
       2       1       1       2       1       1       2       1       1       2
       1       1       2       1       1       2       1       1       2       1
       1       2       1       1       2       1       1       2       1       1
       2       1       1       2       1       1       2       1       1       2
       1       1       2       1       1       2       1       1       2       1
       1       2       1       1       2       1       1       2       1       1
       2       1       1       2       1       1       2       1       1       2
       1       1       2       1       1       2       1       1       2       1
       1       2       1       1       2       1       1       2       1       1
       2       1       1       2       1       1       2       1       1       2
       1       1       2       1       1       2       1       1       2       1
       1       2       1       1       2       1       1       2       1       1
       2       1       1       2       1       1       2       1       1       2
       1       1       2       1       1       2       1       1       2       1
       1       2       1       1       2       1       1       2       1       1
       2       1       1       2       1       1       2       1       1       2
       1       1       2       1       1       2       1       1       2       1
       1       2       1       1       2       1       1       2       1       1
       2       1       1       2       1       1       2       1       1       2
       1       1       2       1       1       2       1       1       2       1
       1       2       1       1       2       1       1       2       1       1
       2       1       1       2       1       1       2       1       1       2
       1       1       2       1       1       2       1       1       2       1
       1       2       1       1       2       1       1       2       1       1
       2       1       1       2       1       1       2       1       1       2
       1       1       2       1       1       2       1       1       2       1
       1       2       1       1       2       1       1       2       1       1
       2       1       1       2       1       1       2       1       1       2
       1       1       2       1       1       2       1       1       2       1
       1       2       1       1       2       1       1       2       1       1
       2       1       1       2       1       1       2       1       1       2
       1       1       2       1       1       2       1       1       2       1
       1       2       1       1       2       1       1       2       1       1
       2       1       1       2       1       1       2       1       1       2
       1       1       2       1       1       2       1       1       2       1
       1       2       1       1       2       1       1       2       1       1
       2       1       1       2       1       1       2       1       1       2
       1       1       2       1       1       2       1       1       2       1
       1       2       1       1       2       1       1       2       1       1
       2       1       1       2       1       1       2       1       1       2
       1       1       2       1       1       2       1       1       2       1
       1       2       1       1       2       1       1       2       1       1
       2       1       1       2       1       1       2       1       1       2
       1       1       2       1       1       2       1       1       2       1
       1       2       1       1       2       1       1       2       1       1
       2       1       1       2       1       1       2       1       1       2
       1       1       2       1       1       2       1       1       2       1
       1       2       1       1       2       1       1       2       1       1
       2       1       1       2       1       1       2       1       1       2
       1       1       2       1       1       2       1       1       2       1
       1       2       1       1       2       1       1       2       1       1
       2       1       1       2       1       1       2       1       1       2
       1       1       2       1       1       2       1       1       2       1
       1       2       1       1       2       1       1       2       1       1
       2       1       1       2       1       1       2       1       1       2
       1       1       2       1       1       2       1       1       2       1
       1       2       1       1       2       1       1       2       1       1
       2       1       1       2       1       1       2       1       1       2
       1       1       2       1       1       2       1       1       2       1
       1       2       1       1       2       1       1       2       1       1
       2       1       1       2       1       1       2       1       1       2
       1       1       2       1       1       2       1       1       2       1
       1       2       1       1       2       1       1       2       1       1
       2       1       1       2       1       1       2       1       1       2
       1       1       2       1       1       2       1       1       2       1
       1       2       1       1       2       1       1       2       1       1
       2       1       1       2       1       1       2       1       1       2
       1       1       2       1       1       2       1       1       2       1
       1       2       1       1       2       1       1       2       1       1
       2       1       1       2       1       1       2       1       1       2
       1       1       2       1       1       2       1       1       2       1
       1       2       1       1       2       1       1       2       1       1
       2       1       1       2       1       1       2       1       1       2
       1       1       2       1       1       2       1       1       2       1
       1       2       1       1       2       1       1       2       1       1
       2       1       1       2       1       1       2       1       1       2
       1       1       2       1       1       2       1       1       2       1
       1       2       1       1       2       1       1       2       1       1
       2       1       1       2       1       1       2       1       1       2
       1       1       2       1       1       2       1       1       2       1
       1       2       1       1       2       1       1       2       1       1
       2       1       1       2       1       1       2       1       1       2
       1       1       2       1       1       2       1       1       2       1
       1       2       1       1       2       1       1       2       1       1
       2       1       1       2       1       1       2       1       1       2
       1       1       2       1       1       2       1       1       2       1
       1       2       1       1       2       1       1       2       1       1
       2       1       1       2       1       1       2       1       1       2
       1       1       2       1       1       2       1       1       2       1
       1       2       1       1       2       1       1       2       1       1
       2       1       1       2       1       1       2       1       1       2
       1       1       2       1       1       2       1       1       2       1
       1       2       1       1       2       1       1       2       1       1
       2       1       1       2       1       1       2       1       1       2
       1       1       2       1       1       2       1       1       2       1
       1       2       1       1       2       1       1       2       1       1
       2       1       1       2       1       1       2       1       1       2
       1       1       2       1       1       2       1       1       2       1
       1       2       1       1       2       1       1       2       1       1
       2       1       1       2       1       1       2       1       1       2
       1       1       2       1       1       2       1       1       2       1
       1       2       1       1       2       1       1       2       1       1
       2       1       1       2       1       1       2       1       1       2
       1       1       2       1       1       2       1       1       2       1
       1       2       1       1       2       1       1       2       1       1
       2       1       1       2       1       1       2       1       1       2
       1       1       2       1       1       2       1       1       2       1
       1       2       1       1       2       1       1       2       1       1
       2       1       1       2       1       1       2       1       1       2
       1       1       2       1       1       2       1       1       2       1
       1       2       1       1       2       1       1       2       1       1
       2       1       1       2       1       1       2       1       1       2
       1       1       2       1       1       2       1       1       2       1
       1       2       1       1       2       1       1       2       1       1
       2       1       1       2       1       1       2       1       1       2
       1       1       2       1       1       2       1       1       2       1
       1       2       1       1       2       1       1       2       1       1
       2       1       1       2       1       1       2       1       1       2
       1       1       2       1       1       2       1       1       2       1
       1       2       1       1       2       1       1       2       1       1
       2       1       1       2       1       1       2       1       1       2
       1       1       2       1       1       2       1       1       2       1
       1       2       1       1       2       1       1       2       1       1
       2       1       1       2       1       1       2       1       1       2
       1       1       2       1       1       2       1       1       2       1
       1       2       1       1       2       1       1       2       1       1
       2       1       1       2       1       1       2       1       1       2
       1       1       2       1       1       2       1       1       2       1
       1       2       1       1       2       1       1       2       1       1
       2       1       1       2       1       1       2       1       1       2
       1       1       2       1       1       2       1       1       2       1
       1       2       1       1       2       1       1       2       1       1
       2       1       1       2       1       1       2       1       1       2
       1       1       2       1       1       2       1       1       2       1
       1       2       1       1       2       1       1       2       1       1
       2       1       1       2       1       1       2       1       1       2
       1       1       2       1       1       2       1       1       2       1
       1       2       1       1       2       1       1       2       1       1
       2       1       1       2       1       1       2       1       1       2
       1       1       2       1       1       2       1       1       2       1
       1       2       1       1       2       1       1       2       1       1
       2       1       1       2       1       1       2       1       1       2
       1       1       2       1       1       2       1       1       2       1
       1       2       1       1       2       1       1       2       1       1
       2       1       1       2       1       1       2       1       1       2
       1       1       2       1       1       2       1       1       2       1
       1       2       1       1       2       1       1       2       1       1
       2       1       1       2       1       1       2       1       1       2
       1       1       2       1       1       2       1       1       2       1
       1       2       1       1       2       1       1       2       1       1
       2       1       1       2       1       1       2       1       1       2
       1       1       2       1       1       2       1       1       2       1
       1       2       1       1       2       1       1       2       1       1
       2       1       1       2       1       1       2       1       1       2
       1       1       2       1       1       2       1       1       2       1
       1       2       1       1       2       1       1       2       1       1
       2       1       1       2       1       1       2       1       1       2
       1       1       2       1       1       2       1       1       2       1
       1       2       1       1       2       1       1       2       1       1
       2       1       1       2       1       1       2       1       1       2
       1       1       2       1       1       2       1       1       2       1
       1       2       1       1       2       1       1       2       1       1
       2       1       1       2       1       1       2       1       1       2
       1       1       2       1       1       2       1       1       2       1
       1       2       1       1       2       1       1       2       1       1
       2       1       1       2       1       1       2       1       1       2
       1       1       2       1       1       2       1       1       2       1
       1       2       1       1       2       1       1       2       1       1
       2       1       1       2       1       1       2       1       1       2
       1       1       2       1       1       2       1       1       2       1
       1       2       1       1       2       1       1       2       1       1
       2       1       1       2       1       1       2       1       1       2
       1       1       2       1       1       2       1       1       2       1
       1       2       1       1       2       1       1       2       1       1
       2       1       1       2       1       1       2       1       1       2
       1       1       2       1       1       2       1       1       2       1
       1       2       1       1       2       1       1       2       1       1
       2       1       1       2       1       1       2       1       1       2
       1       1       2       1       1       2       1       1       2       1
       1       2       1       1       2       1       1       2       1       1
       2       1       1       2       1       1       2       1       1       2
       1       1       2       1       1       2       1       1       2       1
       1       2       1       1       2       1       1       2       1       1
       2       1       1       2       1       1       2       1       1       2
       1       1       2       1       1       2       1       1       2       1
       1       2       1       1       2       1       1       2       1       1
       2       1       1       2       1       1       2       1       1       2
       1       1       2       1       1       2       1       1       2       1
       1       2       1       1       2       1       1       2       1       1
       2       1       1       2       1       1       2       1       1       2
       1       1       2       1       1       2       1       1       2       1
       1       2       1       1       2       1       1       2       1       1
       2       1       1       2       1       1       2       1       1       2
       1       1       2       1       1       2       1       1       2       1
       1       2       1       1       2       1       1       2       1       1
       2       1       1       2       1       1       2       1       1       2
       1       1       2       1       1       2       1       1       2       1
       1       2       1       1       2       1       1       2       1       1
       2       1       1       2       1       1       2       1       1       2
       1       1       2       1       1       2       1       1       2       1
       1       2       1       1       2       1       1       2       1       1
       2       1       1       2       1       1       2       1       1       2
       1       1       2       1       1       2       1       1       2       1
       1       2       1       1       2       1       1       2       1       1
       2       1       1       2       1       1       2       1       1       2
       1       1       2       1       1       2       1       1       2       1
       1       2       1       1       2       1       1       2       1       1
       2       1       1       2       1       1       2       1       1       2
       1       1       2       1       1       2       1       1       2       1
       1       2       1       1       2       1       1       2       1       1
       2       1       1       2       1       1       2       1       1       2
       1       1       2       1       1       2       1       1       2       1
       1       2       1       1       2       1       1       2       1       1
       2       1       1       2       1       1       2       1       1       2
       1       1       2       1       1       2       1       1       2       1
       1       2       1       1       2       1       1       2       1       1
       2       1       1       2       1       1       2       1       1       2
       1       1       2       1       1       2       1       1       2       1
       1       2       1       1       2       1       1       2       1       1
       2       1       1       2       1       1       2       1       1       2
       1       1       2       1       1       2       1       1       2       1
       1       2       1       1       2       1       1       2       1       1
       2       1       1       2       1       1       2       1       1       2
       1       1       2       1       1       2       1       1       2       1
       1       2       1       1       2       1       1       2       1       1
       2       1       1       2       1       1       2       1       1       2
       1       1       2       1       1       2       1       1       2       1
       1       2       1       1       2       1       1       2       1       1
       2       1       1       2       1       1       2       1       1       2
       1       1       2       1       1       2       1       1       2       1
       1       2       1       1       2       1       1       2       1       1
       2       1       1       2       1       1       2       1       1       2
       1       1       2       1       1       2       1       1       2       1
       1       2       1       1       2       1       1       2       1       1
       2       1       1       2       1       1       2       1       1       2
       1       1       2       1       1       2       1       1       2       1
       1       2       1       1       2       1       1       2       1       1
       2       1       1       2       1       1       2       1       1       2
       1       1       2       1       1       2       1       1       2       1
       1       2       1       1       2       1       1       2       1       1
       2       1       1       2       1       1       2       1       1       2
       1       1       2       1       1       2       1       1       2       1
       1       2       1       1       2       1       1       2       1       1
       2       1       1       2       1       1       2       1       1       2
       1       1       2       1       1       2       1       1       2       1
       1       2       1       1       2       1       1       2       1       1
       2       1       1       2       1       1       2       1       1       2
       1       1       2       1       1       2       1       1       2       1
       1       2       1       1       2       1       1       2       1       1
       2       1       1       2       1       1       2       1       1       2
       1       1       2       1       1       2       1       1       2       1
       1       2       1       1       2       1       1       2       1       1
       2       1       1       2       1       1       2       1       1       2
       1       1       2       1       1       2       1       1       2       1
       1       2       1       1       2       1       1       2       1       1
       2       1       1       2       1       1       2       1       1       2
       1       1       2       1       1       2       1       1       2       1
       1       2       1       1       2       1       1       2       1       1
       2       1       1       2       1       1       2       1       1       2
       1       1       2       1       1       2       1       1       2       1
       1       2       1       1       2       1       1       2       1       1
       2       1       1       2       1       1       2       1       1       2
       1       1       2       1       1       2       1       1       2       1
       1       2       1       1       2       1       1       2       1       1
       2       1       1       2       1       1       2       1       1       2
       1       1       2       1       1       2       1       1       2       1
       1       2       1       1       2       1       1       2       1       1
       2       1       1       2       1       1       2       1       1       2
       1       1       2       1       1       2       1       1       2       1
       1       2       1       1       2       1       1       2       1       1
       2       1       1       2       1       1       2       1       1       2
       1       1       2       1       1       2       1       1       2       1
       1       2       1       1       2       1       1       2       1       1
       2       1       1       2       1       1       2       1       1       2
       1       1       2       1       1       2       1       1       2       1
       1       2       1       1       2       1       1       2       1       1
       2       1       1       2       1       1       2       1       1       2
       1       1       2       1       1       2       1       1       2       1
       1       2       1       1       2       1       1       2       1       1
       2       1       1       2       1       1       2       1       1       2
       1       1       2       1       1       2       1       1       2       1
       1       2       1       1       2       1       1       2       1       1
       2       1       1       2       1       1       2       1       1       2
       1       1       2       1       1       2       1       1       2       1
       1       2       1       1       2       1       1       2       1       1
       2       1       1       2       1       1       2       1       1       2
       1       1       2       1       1       2       1       1       2       1
       1       2       1       1       2       1       1       2       1       1
       2       1       1       2       1       1       2       1       1       2
       1       1       2       1       1       2       1       1       2       1
       1       2       1       1       2       1       1       2       1       1
       2       1       1       2       1       1       2       1       1       2
       1       1       2       1       1       2       1       1       2       1
       1       2       1       1       2       1       1       2       1       1
       2       1       1       2       1       1       2       1       1       2
       1       1       2       1       1       2       1       1       2       1
       1       2       1       1       2       1       1       2       1       1
       2       1       1       2       1       1       2       1       1       2
       1       1       2       1       1       2       1       1       2       1
       1       2       1       1       2       1       1       2       1       1
       2       1       1       2       1       1       2       1       1       2
       1       1       2       1       1       2       1       1       2       1
       1       2       1       1       2       1       1       2       1       1
       2       1       1       2       1       1       2       1       1       2
       1       1       2       1       1       2       1       1       2       1
       1       2       1       1       2       1       1       2       1       1
       2       1       1       2       1       1       2       1       1       2
       1       1       2       1       1       2       1       1       2       1
       1       2       1       1       2       1       1       2       1       1
       2       1       1       2       1       1       2       1       1       2
       1       1       2       1       1       2       1       1       2       1
       1       2       1       1       2       1       1       2       1       1
       2       1       1       2       1       1       2       1       1       2
       1       1       2       1       1       2       1       1       2       1
       1       2       1       1       2       1       1       2       1       1
       2       1       1       2       1       1       2       1       1       2
       1       1       2       1       1       2       1       1       2       1
       1       2       1       1       2       1       1       2       1       1
       2       1       1       2       1       1       2       1       1       2
       1       1       2       1       1       2       1       1       2       1
       1       2       1       1       2       1       1       2       1       1
       2       1       1       2       1       1       2       1       1       2
       1       1       2       1       1       2       1       1       2       1
       1       2       1       1       2       1       1       2       1       1
       2       1       1       2       1       1       2       1       1       2
       1       1       2       1       1       2       1       1       2       1
       1       2       1       1       2       1       1       2       1       1
       2       1       1       2       1       1       2       1       1       2
       1       1       2       1       1       2       1       1       2       1
       1       2       1       1       2       1       1       2       1       1
       2       1       1       2       1       1       2       1       1       2
       1       1       2       1       1       2       1       1       2       1
       1       2       1       1       2       1       1       2       1       1
       2       1       1       2       1       1       2       1       1       2
       1       1       2       1       1       2       1       1       2       1
       1       2       1       1       2       1       1       2       1       1
       2       1       1       2       1       1       2       1       1       2
       1       1       2       1       1       2       1       1       2       1
       1       2       1       1       2       1       1       2       1       1
       2       1       1       2       1       1       2       1       1       2
       1       1       2       1       1       2       1       1       2       1
       1       2       1       1       2       1       1       2       1       1
       2       1       1       2       1       1       2       1       1       2
       1       1       2       1       1       2       1       1       2       1
       1       2       1       1       2       1       1       2       1       1
       2       1       1       2       1       1       2       1       1       2
       1       1       2       1       1       2       1       1       2       1
       1       2       1       1       2       1       1       2       1       1
       2       1       1       2       1       1       2       1       1       2
       1       1       2       1       1       2       1       1       2       1
       1       2       1       1       2       1       1       2       1       1
       2       1       1       2       1       1       2       1       1       2
       1       1       2       1       1       2       1       1       2       1
       1       2       1       1       2       1       1       2       1       1
       2       1       1       2       1       1       2       1       1       2
       1       1       2       1       1       2       1       1       2       1
       1       2       1       1       2       1       1       2       1       1
       2       1       1       2       1       1       2       1       1       2
       1       1       2       1       1       2       1       1       2       1
       1       2       1       1       2       1       1       2       1       1
       2       1       1       2       1       1       2       1       1       2
       1       1       2       1       1       2       1       1       2       1
       1       2       1       1       2       1       1       2       1       1
       2       1       1       2       1       1       2       1       1       2
       1       1       2       1       1       2       1       1       2       1
       1       2       1       1       2       1       1       2       1       1
       2       1       1       2       1       1       2       1       1       2
       1       1       2       1       1       2       1       1       2       1
       1       2       1       1       2       1       1       2       1       1
       2       1       1       2       1       1       2       1       1       2
       1       1       2       1       1       2       1       1       2       1
       1       2       1       1       2       1       1       2       1       1
       2       1       1       2       1       1       2       1       1       2
       1       1       2       1       1       2       1       1       2       1
       1       2       1       1       2       1       1       2       1       1
       2       1       1       2       1       1       2       1       1       2
       1       1       2       1       1       2       1       1       2       1
       1       2       1       1       2       1       1       2       1       1
       2       1       1       2       1       1       2       1       1       2
       1       1       2       1       1       2       1       1       2       1
       1       2       1       1       2       1       1       2       1       1
       2       1       1       2       1       1       2       1       1       2
       1       1       2       1       1       2       1       1       2       1
       1       2       1       1       2       1       1       2       1       1
       2       1       1       2       1       1       2       1       1       2
       1       1       2       1       1       2       1       1       2       1
       1       2       1       1       2       1       1       2       1       1
       2       1       1       2       1       1       2       1       1       2
       1       1       2       1       1       2       1       1       2       1
       1       2       1       1       2       1       1       2       1       1
       2       1       1       2       1       1       2       1       1       2
       1       1       2       1       1       2       1       1       2       1
       1       2       1       1       2       1       1       2       1       1
       2       1       1       2       1       1       2       1       1       2
       1       1       2       1       1       2       1       1       2       1
       1       2       1       1       2       1       1       2       1       1
       2       1       1       2       1       1       2       1       1       2
       1       1       2       1       1       2       1       1       2       1
       1       2       1       1       2       1       1       2       1       1
       2       1       1       2       1       1       2       1       1       2
       1       1       2       1       1       2       1       1       2       1
       1       2       1       1       2       1       1       2       1       1
       2       1       1       2       1       1       2       1       1       2
       1       1       2       1       1       2       1       1       2       1
       1       2       1       1       2       1       1       2       1       1
       2       1       1       2       1       1       2       1       1       2
       1       1       2       1       1       2       1       1       2       1
       1       2       1       1       2       1       1       2       1       1
       2       1       1       2       1       1       2       1       1       2
       1       1       2       1       1       2       1       1       2       1
       1       2       1       1       2       1       1       2       1       1
       2       1       1       2       1       1       2       1       1       2
       1       1       2       1       1       2       1       1       2       1
       1       2       1       1       2       1       1       2       1       1
       2       1       1       2       1       1       2       1       1       2
       1       1       2       1       1       2       1       1       2       1
       1       2       1       1       2       1       1       2       1       1
       2       1       1       2       1       1       2       1       1       2
       1       1       2       1       1       2       1       1       2       1
       1       2       1       1       2       1       1       2       1       1
       2       1       1       2       1       1       2       1       1       2
       1       1       2       1       1       2       1       1       2       1
       1       2       1       1       2       1       1       2       1       1
       2       1       1       2       1       1       2       1       1       2
       1       1       2       1       1       2       1       1       2       1
       1       2       1       1       2       1       1       2       1       1
       2       1       1       2       1       1       2       1       1       2
       1       1       2       1       1       2       1       1       2       1
       1       2       1       1       2       1       1       2       1       1
       2       1       1       2       1       1       2       1       1       2
       1       1       2       1       1       2       1       1       2       1
       1       2       1       1       2       1       1       2       1       1
       2       1       1       2       1       1       2       1       1       2
       1       1       2       1       1       2       1       1       2       1
       1       2       1       1       2       1       1       2       1       1
       2       1       1       2       1       1       2       1       1       2
       1       1       2       1       1       2       1       1       2       1
       1       2       1       1       2       1       1       2       1       1
       2       1       1       2       1       1       2       1       1       2
       1       1       2       1       1       2       1       1       2       1
       1       2       1       1       2       1       1       2       1       1
       2       1       1       2       1       1       2       1       1       2
       1       1       2       1       1       2       1       1       2       1
       1       2       1       1       2       1       1       2       1       1
       2       1       1       2       1       1       2       1       1       2
       1       1       2       1       1       2       1       1       2       1
       1       2       1       1       2       1       1       2       1       1
       2       1       1       2       1       1       2       1       1       2
       1       1       2       1       1       2       1       1       2       1
       1       2       1       1       2       1       1       2       1       1
       2       1       1       2       1       1       2       1       1       2
       1       1       2       1       1       2       1       1       2       1
       1       2       1       1       2       1       1       2       1       1
       2       1       1       2       1       1       2       1       1       2
       1       1       2       1       1       2       1       1       2       1
       1       2       1       1       2       1       1       2       1       1
       2       1       1       2       1       1       2       1       1       2
       1       1       2       1       1       2       1       1       2       1
       1       2       1       1       2       1       1       2       1       1
       2       1       1       2       1       1       2       1       1       2
       1       1       2       1       1       2       1       1       2       1
       1       2       1       1       2       1       1       2       1       1
       2       1       1       2       1       1       2       1       1       2
       1       1       2       1       1       2       1       1       2       1
       1       2       1       1       2       1       1       2       1       1
       2       1       1       2       1       1       2       1       1       2
       1       1       2       1       1       2       1       1       2       1
       1       2       1       1       2       1       1       2       1       1
       2       1       1       2       1       1       2       1       1       2
       1       1       2       1       1       2       1       1       2       1
       1       2       1       1       2       1       1       2       1       1
       2       1       1       2       1       1       2       1       1       2
       1       1       2       1       1       2       1       1       2       1
       1       2       1       1       2       1       1       2       1       1
       2       1       1       2       1       1       2       1       1       2
       1       1       2       1       1       2       1       1       2       1
       1       2       1       1       2       1       1       2       1       1
       2       1       1       2       1       1       2       1       1       2
       1       1       2       1       1       2       1       1       2       1
       1       2       1       1       2       1       1       2       1       1
       2       1       1       2       1       1       2       1       1       2
       1       1       2       1       1       2       1       1       2       1
       1       2       1       1       2       1       1       2       1       1
       2       1       1       2       1       1       2       1       1       2
       1       1       2       1       1       2       1       1       2       1
       1       2       1       1       2       1       1       2       1       1
       2       1       1       2       1       1       2       1       1       2
       1       1       2       1       1       2       1       1       2       1
       1       2       1       1       2       1       1       2       1       1
       2       1       1       2       1       1       2       1       1       2
       1       1       2       1       1       2       1       1       2       1
       1       2       1       1       2       1       1       2       1       1
       2       1       1       2       1       1       2       1       1       2
       1       1       2       1       1       2       1       1       2       1
       1       2       1       1       2       1       1       2       1       1
       2       1       1       2       1       1       2       1       1       2
       1       1       2       1       1       2       1       1       2       1
       1       2       1       1       2       1       1       2       1       1
       2       1       1       2       1       1       2       1       1       2
       1       1       2       1       1       2       1       1       2       1
       1       2       1       1       2       1       1       2       1       1
       2       1       1       2       1       1       2       1       1       2
       1       1       2       1       1       2       1       1       2       1
       1       2       1       1       2       1       1       2       1       1
       2       1       1       2       1       1       2       1       1       2
       1       1       2       1       1       2       1       1       2       1
       1       2       1       1       2       1       1       2       1       1
       2       1       1       2       1       1       2       1       1       2
       1       1       2       1       1       2       1       1       2       1
       1       2       1       1       2       1       1       2       1       1
       2       1       1       2       1       1       2       1       1       2
       1       1       2       1       1       2       1       1       2       1
       1       2       1       1       2       1       1       2       1       1
       2       1       1       2       1       1       2       1       1       2
       1       1       2       1       1       2       1       1       2       1
       1       2       1       1       2       1       1       2       1       1
       2       1       1       2       1       1       2       1       1       2
       1       1       2       1       1       2       1       1       2       1
       1       2       1       1       2       1       1       2       1       1
       2       1       1       2       1       1       2       1       1       2
       1       1       2       1       1       2       1       1       2       1
       1       2       1       1       2       1       1       2       1       1
       2       1       1       2       1       1       2       1       1       2
       1       1       2       1       1       2       1       1       2       1
       1       2       1       1       2       1       1       2       1       1
       2       1       1       2       1       1       2       1       1       2
       1       1       2       1       1       2       1       1       2       1
       1       2       1       1       2       1       1       2       1       1
       2       1       1       2       1       1       2       1       1       2
       1       1       2       1       1       2       1       1       2       1
       1       2       1       1       2       1       1       2       1       1
       2       1       1       2       1       1       2       1       1       2
       1       1       2       1       1       2       1       1       2       1
       1       2       1       1       2       1       1       2       1       1
       2       1       1       2       1       1       2       1       1       2
       1       1       2       1       1       2       1       1       2       1
       1       2       1       1       2       1       1       2       1       1
       2       1       1       2       1       1       2       1       1       2
       1       1       2       1       1       2       1       1       2       1
       1       2       1       1       2       1       1       2       1       1
       2       1       1       2       1       1       2       1       1       2
       1       1       2       1       1       2       1       1       2       1
       1       2       1       1       2       1       1       2       1       1
       2       1       1       2       1       1       2       1       1       2
       1       1       2       1       1       2       1       1       2       1
       1       2       1       1       2       1       1       2       1       1
       2       1       1       2       1       1       2       1       1       2
       1       1       2       1       1       2       1       1       2       1
       1       2       1       1       2       1       1       2       1       1
       2       1       1       2       1       1       2       1       1       2
       1       1       2       1       1       2       1       1       2       1
       1       2       1       1       2       1       1       2       1       1
       2       1       1       2       1       1       2       1       1       2
       1       1       2       1       1       2       1       1       2       1
       1       2       1       1       2       1       1       2       1       1
       2       1       1       2       1       1       2       1       1       2
       1       1       2       1       1       2       1       1       2       1
       1       2       1       1       2       1       1       2       1       1
       2       1       1       2       1       1       2       1       1       2
       1       1       2       1       1       2       1       1       2       1
       1       2       1       1       2       1       1       2       1       1
       2       1       1       2       1       1       2       1       1       2
       1       1       2       1       1       2       1       1       2       1
       1       2       1       1       2       1       1       2       1       1
       2       1       1       2       1       1       2       1       1       2
       1       1       2       1       1       2       1       1       2       1
       1       2       1       1       2       1       1       2       1       1
       2       1       1       2       1       1       2       1       1       2
       1       1       2       1       1       2       1       1       2       1
       1       2       1       1       2       1       1       2       1       1
       2       1       1       2       1       1       2       1       1       2
       1       1       2       1       1       2       1       1       2       1
       1       2       1       1       2       1       1       2       1       1
       2       1       1       2       1       1       2       1       1       2
       1       1       2       1       1       2       1       1       2       1
       1       2       1       1       2       1       1       2       1       1
       2       1       1       2       1       1       2       1       1       2
       1       1       2       1       1       2       1       1       2       1
       1       2       1       1       2       1       1       2       1       1
       2       1       1       2       1       1       2       1       1       2
       1       1       2       1       1       2       1       1       2       1
       1       2       1       1       2       1       1       2       1       1
       2       1       1       2       1       1       2       1       1       2
       1       1       2       1       1       2       1       1       2       1
       1       2       1       1       2       1       1       2       1       1
       2       1       1       2       1       1       2       1       1       2
       1       1       2       1       1       2       1       1       2       1
       1       2       1       1       2       1       1       2       1       1
       2       1       1       2       1       1       2       1       1       2
       1       1       2       1       1       2       1       1       2       1
       1       2       1       1       2       1       1       2       1       1
       2       1       1       2       1       1       2       1       1       2
       1       1       2       1       1       2       1       1       2       1
       1       2       1       1       2       1       1       2       1       1
       2       1       1       2       1       1       2       1       1       2
       1       1       2       1       1       2       1       1       2       1
       1       2       1       1       2       1       1       2       1       1
       2       1       1       2       1       1       2       1       1       2
       1       1       2       1       1       2       1       1       2       1
       1       2       1       1       2       1       1       2       1       1
       2       1       1       2       1       1       2       1       1       2
       1       1       2       1       1       2       1       1       2       1
       1       2       1       1       2       1       1       2       1       1
       2       1       1       2       1       1       2       1       1       2
       1       1       2       1       1       2       1       1       2       1
       1       2       1       1       2       1       1       2       1       1
       2       1       1       2       1       1       2       1       1       2
       1       1       2       1       1       2       1       1       2       1
       1       2       1       1       2       1       1       2       1       1
       2       1       1       2       1       1       2       1       1       2
       1       1       2       1       1       2       1       1       2       1
       1       2       1       1       2       1       1       2       1       1
       2       1       1       2       1       1       2       1       1       2
       1       1       2       1       1       2       1       1       2       1
       1       2       1       1       2       1       1       2       1       1
       2       1       1       2       1       1       2       1       1       2
       1       1       2       1       1       2       1       1       2       1
       1       2       1       1       2       1       1       2       1       1
       2       1       1       2       1       1       2       1       1       2
       1       1       2       1       1       2       1       1       2       1
       1       2       1       1       2       1       1       2       1       1
       2       1       1       2       1       1       2       1       1       2
       1       1       2       1       1       2       1       1       2       1
       1       2       1       1       2       1       1       2       1       1
       2       1       1       2       1       1       2       1       1       2
       1       1       2       1       1       2       1       1       2       1
       1       2       1       1       2       1       1       2       1       1
       2       1       1       2       1       1       2       1       1       2
       1       1       2       1       1       2       1       1       2       1
       1       2       1       1       2       1       1       2       1       1
       2       1       1       2       1       1       2       1       1       2
       1       1       2       1       1       2       1       1       2       1
       1       2       1       1       2       1       1       2       1       1
       2       1       1       2       1       1       2       1       1       2
       1       1       2       1       1       2       1       1       2       1
       1       2       1       1       2       1       1       2       1       1
       2       1       1       2       1       1       2       1       1       2
       1       1       2       1       1       2       1       1       2       1
       1       2       1       1       2       1       1       2       1       1
       2       1       1       2       1       1       2       1       1       2
       1       1       2       1       1       2       1       1       2       1
       1       2       1       1       2       1       1       2       1       1
       2       1       1       2       1       1       2       1       1       2
       1       1       2       1       1       2       1       1       2       1
       1       2       1       1       2       1       1       2       1       1
       2       1       1       2       1       1       2       1       1       2
       1       1       2       1       1       2       1       1       2       1
       1       2       1       1       2       1       1       2       1       1
       2       1       1       2       1       1       2       1       1       2
       1       1       2       1       1       2       1       1       2       1
       1       2       1       1       2       1       1       2       1       1
       2       1       1       2       1       1       2       1       1       2
       1       1       2       1       1       2       1       1       2       1
       1       2       1       1       2       1       1       2       1       1
       2       1       1       2       1       1       2       1       1       2
       1       1       2       1       1       2       1       1       2       1
       1       2       1       1       2       1       1       2       1       1
       2       1       1       2       1       1       2       1       1       2
       1       1       2       1       1       2       1       1       2       1
       1       2       1       1       2       1       1       2       1       1
       2       1       1       2       1       1       2       1       1       2
       1       1       2       1       1       2       1       1       2       1
       1       2       1       1       2       1       1       2       1       1
       2       1       1       2       1       1       2       1       1       2
       1       1       2       1       1       2       1       1       2       1
       1       2       1       1       2       1       1       2       1       1
       2       1       1       2       1       1       2       1       1       2
       1       1       2       1       1       2       1       1       2       1
       1       2       1       1       2       1       1       2       1       1
       2       1       1       2       1       1       2       1       1       2
       1       1       2       1       1       2       1       1       2       1
       1       2       1       1       2       1       1       2       1       1
       2       1       1       2       1       1       2       1       1       2
       1       1       2       1       1       2       1       1       2       1
       1       2       1       1       2       1       1       2       1       1
       2       1       1       2       1       1       2       1       1       2
       1       1       2       1       1       2       1       1       2       1
       1       2       1       1       2       1       1       2       1       1
       2       1       1       2       1       1       2       1       1       2
       1       1       2       1       1       2       1       1       2       1
       1       2       1       1       2       1       1       2       1       1
       2       1       1       2       1       1       2       1       1       2
       1       1       2       1       1       2       1       1       2       1
       1       2       1       1       2       1       1       2       1       1
       2       1       1       2       1       1       2       1       1       2
       1       1       2       1       1       2       1       1       2       1
       1       2       1       1       2       1       1       2       1       1
       2       1       1       2       1       1       2       1       1       2
       1       1       2       1       1       2       1       1       2       1
       1       2       1       1       2       1       1       2       1       1
       2       1       1       2       1       1       2       1       1       2
       1       1       2       1       1       2       1       1       2       1
       1       2       1       1       2       1       1       2       1       1
       2       1       1       2       1       1       2       1       1       2
       1       1       2       1       1       2       1       1       2       1
       1       2       1       1       2       1       1       2       1       1
       2       1       1       2       1       1       2       1       1       2
       1       1       2       1       1       2       1       1       2       1
       1       2       1       1       2       1       1       2       1       1
       2       1       1       2       1       1       2       1       1       2
       1       1       2       1       1       2       1       1       2       1
       1       2       1       1       2       1       1       2       1       1
       2       1       1       2       1       1       2       1       1       2
       1       1       2       1       1       2       1       1       2       1
       1       2       1       1       2       1       1       2       1       1
       2       1       1       2       1       1       2       1       1       2
       1       1       2       1       1       2       1       1       2       1
       1       2       1       1       2       1       1       2       1       1
       2       1       1       2       1       1       2       1       1       2
       1       1       2       1       1       2       1       1       2       1
       1       2       1       1       2       1       1       2       1       1
       2       1       1       2       1       1       2       1       1       2
       1       1       2       1       1       2       1       1       2       1
       1       2       1       1       2       1       1       2       1       1
       2       1       1       2       1       1       2       1       1       2
       1       1       2       1       1       2       1       1       2       1
       1       2       1       1       2       1       1       2       1       1
       2       1       1       2       1       1       2       1       1       2
       1       1       2       1       1       2       1       1       2       1
       1       2       1       1       2       1       1       2       1       1
       2       1       1       2       1       1       2       1       1       2
       1       1       2       1       1       2       1       1       2       1
       1       2       1       1       2       1       1       2       1       1
       2       1       1       2       1       1       2       1       1       2
       1       1       2       1       1       2       1       1       2       1
       1       2       1       1       2       1       1       2       1       1
       2       1       1       2       1       1       2       1       1       2
       1       1       2       1       1       2       1       1       2       1
       1       2       1       1       2       1       1       2       1       1
       2       1       1       2       1       1       2       1       1       2
       1       1       2       1       1       2       1       1       2       1
       1       2       1       1       2       1       1       2       1       1
       2       1       1       2       1       1       2       1       1       2
       1       1       2       1       1       2       1       1       2       1
       1       2       1       1       2       1       1       2       1       1
       2       1       1       2       1       1       2       1       1       2
       1       1       2       1       1       2       1       1       2       1
       1       2       1       1       2       1       1       2       1       1
       2       1       1       2       1       1       2       1       1       2
       1       1       2       1       1       2       1       1       2       1
       1       2       1       1       2       1       1       2       1       1
       2       1       1       2       1       1       2       1       1       2
       1       1       2       1       1       2       1       1       2       1
       1       2       1       1       2       1       1       2       1       1
       2       1       1       2       1       1       2       1       1       2
       1       1       2       1       1       2       1       1       2       1
       1       2       1       1       2       1       1       2       1       1
       2       1       1       2       1       1       2       1       1       2
       1       1       2       1       1       2       1       1       2       1
       1       2       1       1       2       1       1       2       1       1
       2       1       1       2       1       1       2       1       1       2
       1       1       2       1       1       2       1       1       2       1
       1       2       1       1       2       1       1       2       1       1
       2       1       1       2       1       1       2       1       1       2
       1       1       2       1       1       2       1       1       2       1
       1       2       1       1       2       1       1       2       1       1
       2       1       1       2       1       1       2       1       1       2
       1       1       2       1       1       2       1       1       2       1
       1       2       1       1       2       1       1       2       1       1
       2       1       1       2       1       1       2       1       1       2
       1       1       2       1       1       2       1       1       2       1
       1       2       1       1       2       1       1       2       1       1
       2       1       1       2       1       1       2       1       1       2
       1       1       2       1       1       2       1       1       2       1
       1       2       1       1       2       1       1       2       1       1
       2       1       1       2       1       1       2       1       1       2
       1       1       2       1       1       2       1       1       2       1
       1       2       1       1       2       1       1       2       1       1
       2       1       1       2       1       1       2       1       1       2
       1       1       2       1       1       2       1       1       2       1
       1       2       1       1       2       1       1       2       1       1
       2       1       1       2       1       1       2       1       1       2
       1       1       2       1       1       2       1       1       2       1
       1       2       1       1       2       1       1       2       1       1
       2       1       1       2       1       1       2       1       1       2
       1       1       2       1       1       2       1       1       2       1
       1       2       1       1       2       1       1       2       1       1
       2       1       1       2       1       1       2       1       1       2
       1       1       2       1       1       2       1       1       2       1
       1       2       1       1       2       1       1       2       1       1
       2       1       1       2       1       1       2       1       1       2
       1       1       2       1       1       2       1       1       2       1
       1       2       1       1       2       1       1       2       1       1
       2       1       1       2       1       1       2       1       1       2
       1       1       2       1       1       2       1       1       2       1
       1       2       1       1       2       1       1       2       1       1
       2       1       1       2       1       1       2       1       1       2
       1       1       2       1       1       2       1       1       2       1
       1       2       1       1       2       1       1       2       1       1
       2       1       1       2       1       1       2       1       1       2
       1       1       2       1       1       2       1       1       2       1
       1       2       1       1       2       1       1       2       1       1
       2       1       1       2       1       1       2       1       1       2
       1       1       2       1       1       2       1       1       2       1
       1       2       1       1       2       1       1       2       1       1
       2       1       1       2       1       1       2       1       1       2
       1       1       2       1       1       2       1       1       2       1
       1       2       1       1       2       1       1       2       1       1
       2       1       1       2       1       1       2       1       1       2
       1       1       2       1       1       2       1       1       2       1
       1       2       1       1       2       1       1       2       1       1
       2       1       1       2       1       1       2       1       1       2
       1       1       2       1       1       2       1       1       2       1
       1       2       1       1       2       1       1       2       1       1
       2       1       1       2       1       1       2       1       1       2
       1       1       2       1       1       2       1       1       2       1
       1       2       1       1       2       1       1       2       1       1
       2       1       1       2       1       1       2       1       1       2
       1       1       2       1       1       2       1       1       2       1
       1       2       1       1       2       1       1       2       1       1
       2       1       1       2       1       1       2       1       1       2
       1       1       2       1       1       2       1       1       2       1
       1       2       1       1       2       1       1       2       1       1
       2       1       1       2       1       1       2       1       1       2
       1       1       2       1       1       2       1       1       2       1
       1       2       1       1       2       1       1       2       1       1
       2       1       1       2       1       1       2       1       1       2
       1       1       2       1       1       2       1       1       2       1
       1       2       1       1       2       1       1       2       1       1
       2       1       1       2       1       1       2       1       1       2
       1       1       2       1       1       2       1       1       2       1
       1       2       1       1       2       1       1       2       1       1
       2       1       1       2       1       1       2       1       1       2
       1       1       2       1       1       2       1       1       2       1
       1       2       1       1       2       1       1       2       1       1
       2       1       1       2       1       1       2       1       1       2
       1       1       2       1       1       2       1       1       2       1
       1       2       1       1       2       1       1       2       1       1
       2       1       1       2       1       1       2       1       1       2
       1       1       2       1       1       2       1       1       2       1
       1       2       1       1       2       1       1       2       1       1
       2       1       1       2       1       1       2       1       1       2
       1       1       2       1       1       2       1       1       2       1
       1       2       1       1       2       1       1       2       1       1
       2       1       1       2       1       1       2       1       1       2
       1       1       2       1       1       2       1       1       2       1
       1       2       1       1       2       1       1       2       1       1
       2       1       1       2       1       1       2       1       1       2
       1       1       2       1       1       2       1       1       2       1
       1       2       1       1       2       1       1       2       1       1
       2       1       1       2       1       1       2       1       1       2
       1       1       2       1       1       2       1       1       2       1
       1       2       1       1       2       1       1       2       1       1
       2       1       1       2       1       1       2       1       1       2
       1       1       2       1       1       2       1       1       2       1
       1       2       1       1       2       1       1       2       1       1
       2       1       1       2       1       1       2       1       1       2
       1       1       2       1       1       2       1       1       2       1
       1       2       1       1       2       1       1       2       1       1
       2       1       1       2       1       1       2       1       1       2
       1       1       2       1       1       2       1       1       2       1
       1       2       1       1       2       1       1       2       1       1
       2       1       1       2       1       1       2       1       1       2
       1       1       2       1       1       2       1       1       2       1
       1       2       1       1       2       1       1       2       1       1
       2       1       1       2       1       1       2       1       1       2
       1       1       2       1       1       2       1       1       2       1
       1       2       1       1       2       1       1       2       1       1
       2       1       1       2       1       1       2       1       1       2
       1       1       2       1       1       2       1       1       2       1
       1       2       1       1       2       1       1       2       1       1
       2       1       1       2       1       1       2       1       1       2
       1       1       2       1       1       2       1       1       2       1
       1       2       1       1       2       1       1       2       1       1
       2       1       1       2       1       1       2       1       1       2
       1       1       2       1       1       2       1       1       2       1
       1       2       1       1       2       1       1       2       1       1
       2       1       1       2       1       1       2       1       1       2
       1       1       2       1       1       2       1       1       2       1
       1       2       1       1       2       1       1       2       1       1
       2       1       1       2       1       1       2       1       1       2
       1       1       2       1       1       2       1       1       2       1
       1       2       1       1       2       1       1       2       1       1
       2       1       1       2       1       1       2       1       1       2
       1       1       2       1       1       2       1       1       2       1
       1       2       1       1       2       1       1       2       1       1
       2       1       1       2       1       1       2       1       1       2
       1       1       2       1       1       2       1       1       2       1
       1       2       1       1       2       1       1       2       1       1
       2       1       1       2       1       1       2       1       1       2
       1       1       2       1       1       2       1       1       2       1
       1       2       1       1       2       1       1       2       1       1
       2       1       1       2       1       1       2       1       1       2
       1       1       2       1       1       2       1       1       2       1
       1       2       1       1       2       1       1       2       1       1
       2       1       1       2       1       1       2       1       1       2
       1       1       2       1       1       2       1       1       2       1
       1       2       1       1       2       1       1       2       1       1
       2       1       1       2       1       1       2       1       1       2
       1       1       2       1       1       2       1       1       2       1
       1       2       1       1       2       1       1       2       1       1
       2       1       1       2       1       1       2       1       1       2
       1       1       2       1       1       2       1       1       2       1
       1       2       1       1       2       1       1       2       1       1
       2       1       1       2       1       1       2       1       1       2
       1       1       2       1       1       2       1       1       2       1
       1       2       1       1       2       1       1       2       1       1
       2       1       1       2       1       1       2       1       1       2
       1       1       2       1       1       2       1       1       2       1
       1       2       1       1       2       1       1       2       1       1
       2       1       1       2       1       1       2       1       1       2
       1       1       2       1       1       2       1       1       2       1
       1       2       1       1       2       1       1       2       1       1
       2       1       1       2       1       1       2       1       1       2
       1       1       2       1       1       2       1       1       2       1
       1       2       1       1       2       1       1       2       1       1
       2       1       1       2       1       1       2       1       1       2
       1       1       2       1       1       2       1       1       2       1
       1       2       1       1       2       1       1       2       1       1
       2       1       1       2       1       1       2       1       1       2
       1       1       2       1       1       2       1       1       2       1
       1       2       1       1       2       1       1       2       1       1
       2       1       1       2       1       1       2       1       1       2
       1       1       2       1       1       2       1       1       2       1
       1       2       1       1       2       1       1       2       1       1
       2       1       1       2       1       1       2       1       1       2
       1       1       2       1       1       2       1       1       2       1
       1       2       1       1       2       1       1       2       1       1
       2       1       1       2       1       1       2       1       1       2
       1       1       2       1       1       2       1       1       2       1
       1       2       1       1       2       1       1       2       1       1
       2       1       1       2       1       1       2       1       1       2
       1       1       2       1       1       2       1       1       2       1
       1       2       1       1       2       1       1       2       1       1
       2       1       1       2       1       1       2       1       1       2
       1       1       2       1       1       2       1       1       2       1
       1       2       1       1       2       1       1       2       1       1
       2       1       1       2       1       1       2       1       1       2
       1       1       2       1       1       2       1       1       2       1
       1       2       1       1       2       1       1       2       1       1
       2       1       1       2       1       1       2       1       1       2
       1       1       2       1       1       2       1       1       2       1
       1       2       1       1       2       1       1       2       1       1
       2       1       1       2       1       1       2       1       1       2
       1       1       2       1       1       2       1       1       2       1
       1       2       1       1       2       1       1       2       1       1
       2       1       1       2       1       1       2       1       1       2
       1       1       2       1       1       2       1       1       2       1
       1       2       1       1       2       1       1       2       1       1
       2       1       1       2       1       1       2       1       1       2
       1       1       2       1       1       2       1       1       2       1
       1       2       1       1       2       1       1       2       1       1
       2       1       1       2       1       1       2       1       1       2
       1       1       2       1       1       2       1       1       2       1
       1       2       1       1       2       1       1       2       1       1
       2       1       1       2       1       1       2       1       1       2
       1       1       2       1       1       2       1       1       2       1
       1       2       1       1       2       1       1       2       1       1
       2       1       1       2       1       1       2       1       1       2
       1       1       2       1       1       2       1       1       2       1
       1       2       1       1       2       1       1       2       1       1
       2       1       1       2       1       1       2       1       1       2
       1       1       2       1       1       2       1       1       2       1
       1       2       1       1       2       1       1       2       1       1
       2       1       1       2       1       1       2       1       1       2
       1       1       2       1       1       2       1       1       2       1
       1       2       1       1       2       1       1       2       1       1
       2       1       1       2       1       1       2       1       1       2
       1       1       2       1       1       2       1       1       2       1
       1       2       1       1       2       1       1       2       1       1
       2       1       1       2       1       1       2       1       1       2
       1       1       2       1       1       2       1       1       2       1
       1       2       1       1       2       1       1       2       1       1
       2       1       1       2       1       1       2       1       1       2
       1       1       2       1       1       2       1       1       2       1
       1       2       1       1       2       1       1       2       1       1
       2       1       1       2       1       1       2       1       1       2
       1       1       2       1       1       2       1       1       2       1
       1       2       1       1       2       1       1       2       1       1
       2       1       1       2       1       1       2       1       1       2
       1       1       2       1       1       2       1       1       2       1
       1       2       1       1       2       1       1       2       1       1
       2       1       1       2       1       1       2       1       1       2
       1       1       2       1       1       2       1       1       2       1
       1       2       1       1       2       1       1       2       1       1
       2       1       1       2       1       1       2       1       1       2
       1       1       2       1       1       2       1       1       2       1
       1       2       1       1       2       1       1       2       1       1
       2       1       1       2       1       1       2       1       1       2
       1       1       2       1       1       2       1       1       2       1
       1       2       1       1       2       1       1       2       1       1
       2       1       1       2       1       1       2       1       1       2
       1       1       2       1       1       2       1       1       2       1
       1       2       1       1       2       1       1       2       1       1
       2       1       1       2       1       1       2       1       1       2
       1       1       2       1       1       2       1       1       2       1
       1       2       1       1       2       1       1       2       1       1
       2       1       1       2       1       1       2       1       1       2
       1       1       2       1       1       2       1       1       2       1
       1       2       1       1       2       1       1       2       1       1
       2       1       1       2       1       1       2       1       1       2
       1       1       2       1       1       2       1       1       2       1
       1       2       1       1       2       1       1       2       1       1
       2       1       1       2       1       1       2       1       1       2
       1       1       2       1       1       2       1       1       2       1
       1       2       1       1       2       1       1       2       1       1
       2       1       1       2       1       1       2       1       1       2
       1       1       2       1       1       2       1       1       2       1
       1       2       1       1       2       1       1       2       1       1
       2       1       1       2       1       1       2       1       1       2
       1       1       2       1       1       2       1       1       2       1
       1       2       1       1       2       1       1       2       1       1
       2       1       1       2       1       1       2       1       1       2
       1       1       2       1       1       2       1       1       2       1
       1       2       1       1       2       1       1       2       1       1
       2       1       1       2       1       1       2       1       1       2
       1       1       2       1       1       2       1       1       2       1
       1       2       1       1       2       1       1       2       1       1
       2       1       1       2       1       1       2       1       1       2
       1       1       2       1       1       2       1       1       2       1
       1       2       1       1       2       1       1       2       1       1
       2       1       1       2       1       1       2       1       1       2
       1       1       2       1       1       2       1       1       2       1
       1       2       1       1       2       1       1       2       1       1
       2       1       1       2       1       1       2       1       1       2
       1       1       2       1       1       2       1       1       2       1
       1       2       1       1       2       1       1       2       1       1
       2       1       1       2       1       1       2       1       1       2
       1       1       2       1       1       2       1       1       2       1
       1       2       1       1       2       1       1       2       1       1
       2       1       1       2       1       1       2       1       1       2
       1       1       2       1       1       2       1       1       2       1
       1       2       1       1       2       1       1       2       1       1
       2       1       1       2       1       1       2       1       1       2
       1       1       2       1       1       2       1       1       2       1
       1       2       1       1       2       1       1       2       1       1
       2       1       1       2       1       1       2       1       1       2
       1       1       2       1       1       2       1       1       2       1
       1       2       1       1       2       1       1       2       1       1
       2       1       1       2       1       1       2       1       1       2
       1       1       2       1       1       2       1       1       2       1
       1       2       1       1       2       1       1       2       1       1
       2       1       1       2       1       1       2       1       1       2
       1       1       2       1       1       2       1       1       2       1
       1       2       1       1       2       1       1       2       1       1
       2       1       1       2       1       1       2       1       1       2
       1       1       2       1       1       2       1       1       2       1
       1       2       1       1       2       1       1       2       1       1
       2       1       1       2       1       1       2       1       1       2
       1       1       2       1       1       2       1       1       2       1
       1       2       1       1       2       1       1       2       1       1
       2       1       1       2       1       1       2       1       1       2
       1       1       2       1       1       2       1       1       2       1
       1       2       1       1       2       1       1       2       1       1
       2       1       1       2       1       1       2       1       1       2
       1       1       2       1       1       2       1       1       2       1
       1       2       1       1       2       1       1       2       1       1
       2       1       1       2       1       1       2       1       1       2
       1       1       2       1       1       2       1       1       2       1
       1       2       1       1       2       1       1       2       1       1
       2       1       1       2       1       1       2       1       1       2
       1       1       2       1       1       2       1       1       2       1
       1       2       1       1       2       1       1       2       1       1
       2       1       1       2       1       1       2       1       1       2
       1       1       2       1       1       2       1       1       2       1
       1       2       1       1       2       1       1       2       1       1
       2       1       1       2       1       1       2       1       1       2
       1       1       2       1       1       2       1       1       2       1
       1       2       1       1       2       1       1       2       1       1
       2       1       1       2       1       1       2       1       1       2
       1       1       2       1       1       2       1       1       2       1
       1       2       1       1       2       1       1       2       1       1
       2       1       1       2       1       1       2       1       1       2
       1       1       2       1       1       2       1       1       2       1
       1       2       1       1       2       1       1       2       1       1
       2       1       1       2       1       1       2       1       1       2
       1       1       2       1       1       2       1       1       2       1
       1       2       1       1       2       1       1       2       1       1
       2       1       1       2       1       1       2       1       1       2
       1       1       2       1       1       2       1       1       2       1
       1       2       1       1       2       1       1       2       1       1
       2       1       1       2       1       1       2       1       1       2
       1       1       2       1       1       2       1       1       2       1
       1       2       1       1       2       1       1       2       1       1
       2       1       1       2       1       1       2       1       1       2
       1       1       2       1       1       2       1       1       2       1
       1       2       1       1       2       1       1       2       1       1
       2       1       1       2       1       1       2       1       1       2
       1       1       2       1       1       2       1       1       2       1
       1       2       1       1       2       1       1       2       1       1
       2       1       1       2       1       1       2       1       1       2
       1       1       2       1       1       2       1       1       2       1
       1       2       1       1       2       1       1       2       1       1
       2       1       1       2       1       1       2       1       1       2
       1       1       2       1       1       2       1       1       2       1
       1       2       1       1       2       1       1       2       1       1
       2       1       1       2       1       1       2       1       1       2
       1       1       2       1       1       2       1       1       2       1
       1       2       1       1       2       1       1       2       1       1
       2       1       1       2       1       1       2       1       1       2
       1       1       2       1       1       2       1       1       2       1
       1       2       1       1       2       1       1       2       1       1
       2       1       1       2       1       1       2       1       1       2
       1       1       2       1       1       2       1       1       2       1
       1       2       1       1       2       1       1       2       1       1
       2       1       1       2       1       1       2       1       1       2
       1       1       2       1       1       2       1       1       2       1
       1       2       1       1       2       1       1       2       1       1
       2       1       1       2       1       1       2       1       1       2
       1       1       2       1       1       2       1       1       2       1
       1       2       1       1       2       1       1       2       1       1
       2       1       1       2       1       1       2       1       1       2
       1       1       2       1       1       2       1       1       2       1
       1       2       1       1       2       1       1       2       1       1
       2       1       1       2       1       1       2       1       1       2
       1       1       2       1       1       2       1       1       2       1
       1       2       1       1       2       1       1       2       1       1
       2       1       1       2       1       1       2       1       1       2
       1       1       2       1       1       2       1       1       2       1
       1       2       1       1       2       1       1       2       1       1
       2       1       1       2       1       1       2       1       1       2
       1       1       2       1       1       2       1       1       2       1
       1       2       1       1       2       1       1       2       1       1
       2       1       1       2       1       1       2       1       1       2
       1       1       2       1       1       2       1       1       2       1
       1       2       1       1       2       1       1       2       1       1
       2       1       1       2       1       1       2       1       1       2
       1       1       2       1       1       2       1       1       2       1
       1       2       1       1       2       1       1       2       1       1
       2       1       1       2       1       1       2       1       1       2
       1       1       2       1       1       2       1       1       2       1
       1       2       1       1       2       1       1       2       1       1
       2       1       1       2       1       1       2       1       1       2
       1       1       2       1       1       2       1       1       2       1
       1       2       1       1       2       1       1       2       1       1
       2       1       1       2       1       1       2       1       1       2
       1       1       2       1       1       2       1       1       2       1
       1       2       1       1       2       1       1       2       1       1
       2       1       1       2       1       1       2       1       1       2
       1       1       2       1       1       2       1       1       2       1
       1       2       1       1       2       1       1       2       1       1
       2       1       1       2       1       1       2       1       1       2
       1       1       2       1       1       2       1       1       2       1
       1       2       1       1       2       1       1       2       1       1
       2       1       1       2       1       1       2       1       1       2
       1       1       2       1       1       2       1       1       2       1
       1       2       1       1       2       1       1       2       1       1
       2       1       1       2       1       1       2       1       1       2
       1       1       2       1       1       2       1       1       2       1
       1       2       1       1       2       1       1       2       1       1
       2       1       1       2       1       1       2       1       1       2
       1       1       2       1       1       2       1       1       2       1
       1       2       1       1       2       1       1       2       1       1
       2       1       1       2       1       1       2       1       1       2
       1       1       2       1       1       2       1       1       2       1
       1       2       1       1       2       1       1       2       1       1
       2       1       1       2       1       1       2       1       1       2
       1       1       2       1       1       2       1       1       2       1
       1       2       1       1       2       1       1       2       1       1
       2       1       1       2       1       1       2       1       1       2
       1       1       2       1       1       2       1       1       2       1
       1       2       1       1       2       1       1       2       1       1
       2       1       1       2       1       1       2       1       1       2
       1       1       2       1       1       2       1       1       2       1
       1       2       1       1       2       1       1       2       1       1
       2       1       1       2       1       1       2       1       1       2
       1       1       2       1       1       2       1       1       2       1
       1       2       1       1       2       1       1       2       1       1
       2       1       1       2       1       1       2       1       1       2
       1       1       2       1       1       2       1       1       2       1
       1       2       1       1       2       1       1       2       1       1
       2       1       1       2       1       1       2       1       1       2
       1       1       2       1       1       2       1       1       2       1
       1       2       1       1       2       1       1       2       1       1
       2       1       1       2       1       1       2       1       1       2
       1       1       2       1       1       2       1       1       2       1
       1       2       1       1       2       1       1       2       1       1
       2       1       1       2       1       1       2       1       1       2
       1       1       2       1       1       2       1       1       2       1
       1       2       1       1       2       1       1       2       1       1
       2       1       1       2       1       1       2       1       1       2
       1       1       2       1       1       2       1       1       2       1
       1       2       1       1       2       1       1       2       1       1
       2       1       1       2       1       1       2       1       1       2
       1       1       2       1       1       2       1       1       2       1
       1       2       1       1       2       1       1       2       1       1
       2       1       1       2       1       1       2       1       1       2
       1       1       2       1       1       2       1       1       2       1
       1       2       1       1       2       1       1       2       1       1
       2       1       1       2       1       1       2       1       1       2
       1       1       2       1       1       2       1       1       2       1
       1       2       1       1       2       1       1       2       1       1
       2       1       1       2       1       1       2       1       1       2
       1       1       2       1       1       2       1       1       2       1
       1       2       1       1       2       1       1       2       1       1
       2       1       1       2       1       1       2       1       1       2
       1       1       2       1       1       2       1       1       2       1
       1       2       1       1       2       1       1       2       1       1
       2       1       1       2       1       1       2       1       1       2
       1       1       2       1       1       2       1       1       2       1
       1       2       1       1       2       1       1       2       1       1
       2       1       1       2       1       1       2       1       1       2
       1       1       2       1       1       2       1       1       2       1
       1       2       1       1       2       1       1       2       1       1
       2       1       1       2       1       1       2       1       1       2
       1       1       2       1       1       2       1       1       2       1
       1       2       1       1       2       1       1       2       1       1
       2       1       1       2       1       1       2       1       1       2
       1       1       2       1       1       2       1       1       2       1
       1       2       1       1       2       1       1       2       1       1
       2       1       1       2       1       1       2       1       1       2
       1       1       2       1       1       2       1       1       2       1
       1       2       1       1       2       1       1       2       1       1
       2       1       1       2       1       1       2       1       1       2
       1       1       2       1       1       2       1       1       2       1
       1       2       1       1       2       1       1       2       1       1
       2       1       1       2       1       1       2       1       1       2
       1       1       2       1       1       2       1       1       2       1
       1       2       1       1       2       1       1       2       1       1
       2       1       1       2       1       1       2       1       1       2
       1       1       2       1       1       2       1       1       2       1
       1       2       1       1       2       1       1       2       1       1
       2       1       1       2       1       1       2       1       1       2
       1       1       2       1       1       2       1       1       2       1
       1       2       1       1       2       1       1       2       1       1
       2       1       1       2       1       1       2       1       1       2
       1       1       2       1       1       2       1       1       2       1
       1       2       1       1       2       1       1       2       1       1
       2       1       1       2       1       1       2       1       1       2
       1       1       2       1       1       2       1       1       2       1
       1       2       1       1       2       1       1       2       1       1
       2       1       1       2       1       1       2       1       1       2
       1       1       2       1       1       2       1       1       2       1
       1       2       1       1       2       1       1       2       1       1
       2       1       1       2       1       1       2       1       1       2
       1       1       2       1       1       2       1       1       2       1
       1       2       1       1       2       1       1       2       1       1
       2       1       1       2       1       1       2       1       1       2
       1       1       2       1       1       2       1       1       2       1
       1       2       1       1       2       1       1       2       1       1
       2       1       1       2       1       1       2       1       1       2
       1       1       2       1       1       2       1       1       2       1
       1       2       1       1       2       1       1       2       1       1
       2       1       1       2       1       1       2       1       1       2
       1       1       2       1       1       2       1       1       2       1
       1       2       1       1       2       1       1       2       1       1
       2       1       1       2       1       1       2       1       1       2
       1       1       2       1       1       2       1       1       2       1
       1       2       1       1       2       1       1       2       1       1
       2       1       1       2       1       1       2       1       1       2
       1       1       2       1       1       2       1       1       2       1
       1       2       1       1       2       1       1       2       1       1
       2       1       1       2       1       1       2       1       1       2
       1       1       2       1       1       2       1       1       2       1
       1       2       1       1       2       1       1       2       1       1
       2       1       1       2       1       1       2       1       1       2
       1       1       2       1       1       2       1       1       2       1
       1       2       1       1       2       1       1       2       1       1
       2       1       1       2       1       1       2       1       1       2
       1       1       2       1       1       2       1       1       2       1
       1       2       1       1       2       1       1       2       1       1
       2       1       1       2       1       1       2       1       1       2
       1       1       2       1       1       2       1       1       2       1
       1       2       1       1       2       1       1       2       1       1
       2       1       1       2       1       1       2       1       1       2
       1       1       2       1       1       2       1       1       2       1
       1       2       1       1       2       1       1       2       1       1
       2       1       1       2       1       1       2       1       1       2
       1       1       2       1       1       2       1       1       2       1
       1       2       1       1       2       1       1       2       1       1
       2       1       1       2       1       1       2       1       1       2
       1       1       2       1       1       2       1       1       2       1
       1       2       1       1       2       1       1       2       1       1
       2       1       1       2       1       1       2       1       1       2
       1       1       2       1       1       2       1       1       2       1
       1       2       1       1       2       1       1       2       1       1
       2       1       1       2       1       1       2       1       1       2
       1       1       2       1       1       2       1       1       2       1
       1       2       1       1       2       1       1       2       1       1
       2       1       1       2       1       1       2       1       1       2
       1       1       2       1       1       2       1       1       2       1
       1       2       1       1       2       1       1       2       1       1
       2       1       1       2       1       1       2       1       1       2
       1       1       2       1       1       2       1       1       2       1
       1       2       1       1       2       1       1       2       1       1
       2       1       1       2       1       1       2       1       1       2
       1       1       2       1       1       2       1       1       2       1
       1       2       1       1       2       1       1       2       1       1
       2       1       1       2       1       1       2       1       1       2
       1       1       2       1       1       2       1       1       2       1
       1       2       1       1       2       1       1       2       1       1
       2       1       1       2       1       1       2       1       1       2
       1       1       2       1       1       2       1       1       2       1
       1       2       1       1       2       1       1       2       1       1
       2       1       1       2       1       1       2       1       1       2
       1       1       2       1       1       2       1       1       2       1
       1       2       1       1       2       1       1       2       1       1
       2       1       1       2       1       1       2       1       1       2
       1       1       2       1       1       2       1       1       2       1
       1       2       1       1       2       1       1       2       1       1
       2       1       1       2       1       1       2       1       1       2
       1       1       2       1       1       2       1       1       2       1
       1       2       1       1       2       1       1       2       1       1
       2       1       1       2       1       1       2       1       1       2
       1       1       2       1       1       2       1       1       2       1
       1       2       1       1       2       1       1       2       1       1
       2       1       1       2       1       1       2       1       1       2
       1       1       2       1       1       2       1       1       2       1
       1       2       1       1       2       1       1       2       1       1
       2       1       1       2       1       1       2       1       1       2
       1       1       2       1       1       2       1       1       2       1
       1       2       1       1       2       1       1       2       1       1
       2       1       1       2       1       1       2       1       1       2
       1       1       2       1       1       2       1       1       2       1
       1       2       1       1       2       1       1       2       1       1
       2       1       1       2       1       1       2       1       1       2
       1       1       2       1       1       2       1       1       2       1
       1       2       1       1       2       1       1       2       1       1
       2       1       1       2       1       1       2       1       1       2
       1       1       2       1       1       2       1       1       2       1
       1       2       1       1       2       1       1       2       1       1
       2       1       1       2       1       1       2       1       1       2
       1       1       2       1       1       2       1       1       2       1
       1       2       1       1       2       1       1       2       1       1
       2       1       1       2       1       1       2       1       1       2
       1       1       2       1       1       2       1       1       2       1
       1       2       1       1       2       1       1       2       1       1
       2       1       1       2       1       1       2       1       1       2
       1       1       2       1       1       2       1       1       2       1
       1       2       1       1       2       1       1       2       1       1
       2       1       1       2       1       1       2       1       1       2
       1       1       2       1       1       2       1       1       2       1
       1       2       1       1       2       1       1       2       1       1
       2       1       1       2       1       1       2       1       1       2
       1       1       2       1       1       2       1       1       2       1
       1       2       1       1       2       1       1       2       1       1
       2       1       1       2       1       1       2       1       1       2
       1       1       2       1       1       2       1       1       2       1
       1       2       1       1       2       1       1       2       1       1
       2       1       1       2       1       1       2       1       1       2
       1       1       2       1       1       2       1       1       2       1
       1       2       1       1       2       1       1       2       1       1
       2       1       1       2       1       1       2       1       1       2
       1       1       2       1       1       2       1       1       2       1
       1       2       1       1       2       1       1       2       1       1
       2       1       1       2       1       1       2       1       1       2
       1       1       2       1       1       2       1       1       2       1
       1       2       1       1       2       1       1       2       1       1
       2       1       1       2       1       1       2       1       1       2
       1       1       2       1       1       2       1       1       2       1
       1       2       1       1       2       1       1       2       1       1
       2       1       1       2       1       1       2       1       1       2
       1       1       2       1       1       2       1       1       2       1
       1       2       1       1       2       1       1       2       1       1
       2       1       1       2       1       1       2       1       1       2
       1       1       2       1       1       2       1       1       2       1
       1       2       1       1       2       1       1       2       1       1
       2       1       1       2       1       1       2       1       1       2
       1       1       2       1       1       2       1       1       2       1
       1       2       1       1       2       1       1       2       1       1
       2       1       1       2       1       1       2       1       1       2
       1       1       2       1       1       2       1       1       2       1
       1       2       1       1       2       1       1       2       1       1
       2       1       1       2       1       1       2       1       1       2
       1       1       2       1       1       2       1       1       2       1
       1       2       1       1       2       1       1       2       1       1
       2       1       1       2       1       1       2       1       1       2
       1       1       2       1       1       2       1       1       2       1
       1       2       1       1       2       1       1       2       1       1
       2       1       1       2       1       1       2       1       1       2
       1       1       2       1       1       2       1       1       2       1
       1       2       1       1       2       1       1       2       1       1
       2       1       1       2       1       1       2       1       1       2
       1       1       2       1       1       2       1       1       2       1
       1       2       1       1       2       1       1       2       1       1
       2       1       1       2       1       1       2       1       1       2
       1       1       2       1       1       2       1       1       2       1
       1       2       1       1       2       1       1       2       1       1
       2       1       1       2       1       1       2       1       1       2
       1       1       2       1       1       2       1       1       2       1
       1       2       1       1       2       1       1       2       1       1
       2       1       1       2       1       1       2       1       1       2
       1       1       2       1       1       2       1       1       2       1
       1       2       1       1       2       1       1       2       1       1
       2       1       1       2       1       1       2       1       1       2
       1       1       2       1       1       2       1       1       2       1
       1       2       1       1       2       1       1       2       1       1
       2       1       1       2       1       1       2       1       1       2
       1       1       2       1       1       2       1       1       2       1
       1       2       1       1       2       1       1       2       1       1
       2       1       1       2       1       1       2       1       1       2
       1       1       2       1       1       2       1       1       2       1
       1       2       1       1       2       1       1       2       1       1
       2       1       1       2       1       1       2       1       1       2
       1       1       2       1       1       2       1       1       2       1
       1       2       1       1       2       1       1       2       1       1
       2       1       1       2       1       1       2       1       1       2
       1       1       2       1       1       2       1       1       2       1
       1       2       1       1       2       1       1       2       1       1
       2       1       1       2       1       1       2       1       1       2
       1       1       2       1       1       2       1       1       2       1
       1       2       1       1       2       1       1       2       1       1
       2       1       1       2       1       1       2       1       1       2
       1       1       2       1       1       2       1       1       2       1
       1       2       1       1       2       1       1       2       1       1
       2       1       1       2       1       1       2       1       1       2
       1       1       2       1       1       2       1       1       2       1
       1       2       1       1       2       1       1       2       1       1
       2       1       1       2       1       1       2       1       1       2
       1       1       2       1       1       2       1       1       2       1
       1       2       1       1       2       1       1       2       1       1
       2       1       1       2       1       1       2       1       1       2
       1       1       2       1       1       2       1       1       2       1
       1       2       1       1       2       1       1       2       1       1
       2       1       1       2       1       1       2       1       1       2
       1       1       2       1       1       2       1       1       2       1
       1       2       1       1       2       1       1       2       1       1
       2       1       1       2       1       1       2       1       1       2
       1       1       2       1       1       2       1       1       2       1
       1       2       1       1       2       1       1       2       1       1
       2       1       1       2       1       1       2       1       1       2
       1       1       2       1       1       2       1       1       2       1
       1       2       1       1       2       1       1       2       1       1
       2       1       1       2       1       1       2       1       1       2
       1       1       2       1       1       2       1       1       2       1
       1       2       1       1       2       1       1       2       1       1
       2       1       1       2       1       1       2       1       1       2
       1       1       2       1       1       2       1       1       2       1
       1       2       1       1       2       1       1       2       1       1
       2       1       1       2       1       1       2       1       1       2
       1       1       2       1       1       2       1       1       2       1
       1       2       1       1       2       1       1       2       1       1
       2       1       1       2       1       1       2       1       1       2
       1       1       2       1       1       2       1       1       2       1
       1       2       1       1       2       1       1       2       1       1
       2       1       1       2       1       1       2       1       1       2
       1       1       2       1       1       2       1       1       2       1
       1       2       1       1       2       1       1       2       1       1
       2       1       1       2       1       1       2       1       1       2
       1       1       2       1       1       2       1       1       2       1
       1       2       1       1       2       1       1       2       1       1
       2       1       1       2       1       1       2       1       1       2
       1       1       2       1       1       2       1       1       2       1
       1       2       1       1       2       1       1       2       1       1
       2       1       1       2       1       1       2       1       1       2
       1       1       2       1       1       2       1       1       2       1
       1       2       1       1       2       1       1       2       1       1
       2       1       1       2       1       1       2       1       1       2
       1       1       2       1       1       2       1       1       2       1
       1       2       1       1       2       1       1       2       1       1
       2       1       1       2       1       1       2       1       1       2
       1       1       2       1       1       2       1       1       2       1
       1       2       1       1       2       1       1       2       1       1
       2       1       1       2       1       1       2       1       1       2
       1       1       2       1       1       2       1       1       2       1
       1       2       1       1       2       1       1       2       1       1
       2       1       1       2       1       1       2       1       1       2
       1       1       2       1       1       2       1       1       2       1
       1       2       1       1       2       1       1       2       1       1
       2       1       1       2       1       1       2       1       1       2
       1       1       2       1       1       2       1       1       2       1
       1       2       1       1       2       1       1       2       1       1
       2       1       1       2       1       1       2       1       1       2
       1       1       2       1       1       2       1       1       2       1
       1       2       1       1       2       1       1       2       1       1
       2       1       1       2       1       1       2       1       1       2
       1       1       2       1       1       2       1       1       2       1
       1       2       1       1       2       1       1       2       1       1
       2       1       1       2       1       1       2       1       1       2
       1       1       2       1       1       2       1       1       2       1
       1       2       1       1       2       1       1       2       1       1
       2       1       1       2       1       1       2       1       1       2
       1       1       2       1       1       2       1       1       2       1
       1       2       1       1       2       1       1       2       1       1
       2       1       1       2       1       1       2       1       1       2
       1       1       2       1       1       2       1       1       2       1
       1       2       1       1       2       1       1       2       1       1
       2       1       1       2       1       1       2       1       1       2
       1       1       2       1       1       2       1       1       2       1
       1       2       1       1       2       1       1       2       1       1
       2       1       1       2       1       1       2       1       1       2
       1       1       2       1       1       2       1       1       2       1
       1       2       1       1       2       1       1       2       1       1
       2       1       1       2       1       1       2       1       1       2
       1       1       2       1       1       2       1       1       2       1
       1       2       1       1       2       1       1       2       1       1
       2       1       1       2       1       1       2       1       1       2
       1       1       2       1       1       2       1       1       2       1
       1       2       1       1       2       1       1       2       1       1
       2       1       1       2       1       1       2       1       1       2
       1       1       2       1       1       2       1       1       2       1
       1       2       1       1       2       1       1       2       1       1
       2       1       1       2       1       1       2       1       1       2
       1       1       2       1       1       2       1       1       2       1
       1       2       1       1       2       1       1       2       1       1
       2       1       1       2       1       1       2       1       1       2
       1       1       2       1       1       2       1       1       2       1
       1       2       1       1       2       1       1       2       1       1
       2       1       1       2       1       1       2       1       1       2
       1       1       2       1       1       2       1       1       2       1
       1       2       1       1       2       1       1       2       1       1
       2       1       1       2       1       1       2       1       1       2
       1       1       2       1       1       2       1       1       2       1
       1       2       1       1       2       1       1       2       1       1
       2       1       1       2       1       1       2       1       1       2
       1       1       2       1       1       2       1       1       2       1
       1       2       1       1       2       1       1       2       1       1
       2       1       1       2       1       1       2       1       1       2
       1       1       2       1       1       2       1       1       2       1
       1       2       1       1       2       1       1       2       1       1
       2       1       1       2       1       1       2       1       1       2
       1       1       2       1       1       2       1       1       2       1
       1       2       1       1       2       1       1       2       1       1
       2       1       1       2       1       1       2       1       1       2
       1       1       2       1       1       2       1       1       2       1
       1       2       1       1       2       1       1       2       1       1
       2       1       1       2       1       1       2       1       1       2
       1       1       2       1       1       2       1       1       2       1
       1       2       1       1       2       1       1       2       1       1
       2       1       1       2       1       1       2       1       1       2
       1       1       2       1       1       2       1       1       2       1
       1       2       1       1       2       1       1       2       1       1
       2       1       1       2       1       1       2       1       1       2
       1       1       2       1       1       2       1       1       2       1
       1       2       1       1       2       1       1       2       1       1
       2       1       1       2       1       1       2       1       1       2
       1       1       2       1       1       2       1       1       2       1
       1       2       1       1       2       1       1       2       1       1
       2       1       1       2       1       1       2       1       1       2
       1       1       2       1       1       2       1       1       2       1
       1       2       1       1       2       1       1       2       1       1
       2       1       1       2       1       1       2       1       1       2
       1       1       2       1       1       2       1       1       2       1
       1       2       1       1       2       1       1       2       1       1
       2       1       1       2       1       1       2       1       1       2
       1       1       2       1       1       2       1       1       2       1
       1       2       1       1       2       1       1       2       1       1
       2       1       1       2       1       1       2       1       1       2
       1       1       2       1       1       2       1       1       2       1
       1       2       1       1       2       1       1       2       1       1
       2       1       1       2       1       1       2       1       1       2
       1       1       2       1       1       2       1       1       2       1
       1       2       1       1       2       1       1       2       1       1
       2       1       1       2       1       1       2       1       1       2
       1       1       2       1       1       2       1       1       2       1
       1       2       1       1       2       1       1       2       1       1
       2       1       1       2       1       1       2       1       1       2
       1       1       2       1       1       2       1       1       2       1
       1       2       1       1       2       1       1       2       1       1
       2       1       1       2       1       1       2       1       1       2
       1       1       2       1       1       2       1       1       2       1
       1       2       1       1       2       1       1       2       1       1
       2       1       1       2       1       1       2       1       1       2
       1       1       2       1       1       2       1       1       2       1
       1       2       1       1       2       1       1       2       1       1
       2       1       1       2       1       1       2       1       1       2
       1       1       2       1       1       2       1       1       2       1
       1       2       1       1       2       1       1       2       1       1
       2       1       1       2       1       1       2       1       1       2
       1       1       2       1       1       2       1       1       2       1
       1       2       1       1       2       1       1       2       1       1
       2       1       1       2       1       1       2       1       1       2
       1       1       2       1       1       2       1       1       2       1
       1       2       1       1       2       1       1       2       1       1
       2       1       1       2       1       1       2       1       1       2
       1       1       2       1       1       2       1       1       2       1
       1       2       1       1       2       1       1       2       1       1
       2       1       1       2       1       1       2       1       1       2
       1       1       2       1       1       2       1       1       2       1
       1       2       1       1       2       1       1       2       1       1
       2       1       1       2       1       1       2       1       1       2
       1       1       2       1       1       2       1       1       2       1
       1       2       1       1       2       1       1       2       1       1
       2       1       1       2       1       1       2       1       1       2
       1       1       2       1       1       2       1       1       2       1
       1       2       1       1       2       1       1       2       1       1
       2       1       1       2       1       1       2       1       1       2
       1       1       2       1       1       2       1       1       2       1
       1       2       1       1       2       1       1       2       1       1
       2       1       1       2       1       1       2       1       1       2
       1       1       2       1       1       2       1       1       2       1
       1       2       1       1       2       1       1       2       1       1
       2       1       1       2       1       1       2       1       1       2
       1       1       2       1       1       2       1       1       2       1
       1       2       1       1       2       1       1       2       1       1
       2       1       1       2       1       1       2       1       1       2
       1       1       2       1       1       2       1       1       2       1
       1       2       1       1       2       1       1       2       1       1
       2       1       1       2       1       1       2       1       1       2
       1       1       2       1       1       2       1       1       2       1
       1       2       1       1       2       1       1       2       1       1
       2       1       1       2       1       1       2       1       1       2
       1       1       2       1       1       2       1       1       2       1
       1       2       1       1       2       1       1       2       1       1
       2       1       1       2       1       1       2       1       1       2
       1       1       2       1       1       2       1       1       2       1
       1       2       1       1       2       1       1       2       1       1
       2       1       1       2       1       1       2       1       1       2
       1       1       2       1       1       2       1       1       2       1
       1       2       1       1       2       1       1       2       1       1
       2       1       1       2       1       1       2       1       1       2
       1       1       2       1       1       2       1       1       2       1
       1       2       1       1       2       1       1       2       1       1
       2       1       1       2       1       1       2       1       1       2
       1       1       2       1       1       2       1       1       2       1
       1       2       1       1       2       1       1       2       1       1
       2       1       1       2       1       1       2       1       1       2
       1       1       2       1       1       2       1       1       2       1
       1       2       1       1       2       1       1       2       1       1
       2       1       1       2       1       1       2       1       1       2
       1       1       2       1       1       2       1       1       2       1
       1       2       1       1       2       1       1       2       1       1
       2       1       1       2       1       1       2       1       1       2
       1       1       2       1       1       2       1       1       2       1
       1       2       1       1       2       1       1       2       1       1
       2       1       1       2       1       1       2       1       1       2
       1       1       2       1       1       2       1       1       2       1
       1       2       1       1       2       1       1       2       1       1
       2       1       1       2       1       1       2       1       1       2
       1       1       2       1       1       2       1       1       2       1
       1       2       1       1       2       1       1       2       1       1
       2       1       1       2       1       1       2       1       1       2
       1       1       2       1       1       2       1       1       2       1
       1       2       1       1       2       1       1       2       1       1
       2       1       1       2       1       1       2       1       1       2
       1       1       2       1       1       2       1       1       2       1
       1       2       1       1       2       1       1       2       1       1
       2       1       1       2       1       1       2       1       1       2
       1       1       2       1       1       2       1       1       2       1
       1       2       1       1       2       1       1       2       1       1
       2       1       1       2       1       1       2       1       1       2
       1       1       2       1       1       2       1       1       2       1
       1       2       1       1       2       1       1       2       1       1
       2       1       1       2       1       1       2       1       1       2
       1       1       2       1       1       2       1       1       2       1
       1       2       1       1       2       1       1       2       1       1
       2       1       1       2       1       1       2       1       1       2
       1       1       2       1       1       2       1       1       2       1
       1       2       1       1       2       1       1       2       1       1
       2       1       1       2       1       1       2       1       1       2
       1       1       2       1       1       2       1       1       2       1
       1       2       1       1       2       1       1       2       1       1
       2       1       1       2       1       1       2       1       1       2
       1       1       2       1       1       2       1       1       2       1
       1       2       1       1       2       1       1       2       1       1
       2       1       1       2       1       1       2       1       1       2
       1       1       2       1       1       2       1       1       2       1
       1       2       1       1       2       1       1       2       1       1
       2       1       1       2       1       1       2       1       1       2
       1       1       2       1       1       2       1       1       2       1
       1       2       1       1       2       1       1       2       1       1
       2       1       1       2       1       1       2       1       1       2
       1       1       2       1       1       2       1       1       2       1
       1       2       1       1       2       1       1       2       1       1
       2       1       1       2       1       1       2       1       1       2
       1       1       2       1       1       2       1       1       2       1
       1       2       1       1       2       1       1       2       1       1
       2       1       1       2       1       1       2       1       1       2
       1       1       2       1       1       2       1       1       2       1
       1       2       1       1       2       1       1       2       1       1
       2       1       1       2       1       1       2       1       1       2
       1       1       2       1       1       2       1       1       2       1
       1       2       1       1       2       1       1       2       1       1
       2       1       1       2       1       1       2       1       1       2
       1       1       2       1       1       2       1       1       2       1
       1       2       1       1       2       1       1       2       1       1
       2       1       1       2       1       1       2       1       1       2
       1       1       2       1       1       2       1       1       2       1
       1       2       1       1       2       1       1       2       1       1
       2       1       1       2       1       1       2       1       1       2
       1       1       2       1       1       2       1       1       2       1
       1       2       1       1       2       1       1       2       1       1
       2       1       1       2       1       1       2       1       1       2
       1       1       2       1       1       2       1       1       2       1
       1       2       1       1       2       1       1       2       1       1
       2       1       1       2       1       1       2       1       1       2
       1       1       2       1       1       2       1       1       2       1
       1       2       1       1       2       1       1       2       1       1
       2       1       1       2       1       1       2       1       1       2
       1       1       2       1       1       2       1       1       2       1
       1       2       1       1       2       1       1       2       1       1
       2       1       1       2       1       1       2       1       1       2
       1       1       2       1       1       2       1       1       2       1
       1       2       1       1       2       1       1       2       1       1
       2       1       1       2       1       1       2       1       1       2
       1       1       2       1       1       2       1       1       2       1
       1       2       1       1       2       1       1       2       1       1
       2       1       1       2       1       1       2       1       1       2
       1       1       2       1       1       2       1       1       2       1
       1       2       1       1       2       1       1       2       1       1
       2       1       1       2       1       1       2       1       1       2
       1       1       2       1       1       2       1       1       2       1
       1       2       1       1       2       1       1       2       1       1
       2       1       1       2       1       1       2       1       1       2
       1       1       2       1       1       2       1       1       2       1
       1       2       1       1       2       1       1       2       1       1
       2       1       1       2       1       1       2       1       1       2
       1       1       2       1       1       2       1       1       2       1
       1       2       1       1       2       1       1       2       1       1
       2       1       1       2       1       1       2       1       1       2
       1       1       2       1       1       2       1       1       2       1
       1       2       1       1       2       1       1       2       1       1
       2       1       1       2       1       1       2       1       1       2
       1       1       2       1       1       2       1       1       2       1
       1       2       1       1       2       1       1       2       1       1
       2       1       1       2       1       1       2       1       1       2
       1       1       2       1       1       2       1       1       2       1
       1       2       1       1       2       1       1       2       1       1
       2       1       1       2       1       1       2       1       1       2
       1       1       2       1       1       2       1       1       2       1
       1       2       1       1       2       1       1       2       1       1
       2       1       1       2       1       1       2       1       1       2
       1       1       2       1       1       2       1       1       2       1
       1       2       1       1       2       1       1       2       1       1
       2       1       1       2       1       1       2       1       1       2
       1       1       2       1       1       2       1       1       2       1
       1       2       1       1       2       1       1       2       1       1
       2       1       1       2       1       1       2       1       1       2
       1       1       2       1       1       2       1       1       2       1
       1       2       1       1       2       1       1       2       1       1
       2       1       1       2       1       1       2       1       1       2
       1       1       2       1       1       2       1       1       2       1
       1       2       1       1       2       1       1       2       1       1
       2       1       1       2       1       1       2       1       1       2
       1       1       2       1       1       2       1       1       2       1
       1       2       1       1       2       1       1       2       1       1
       2       1       1       2       1       1       2       1       1       2
       1       1       2       1       1       2       1       1       2       1
       1       2       1       1       2       1       1       2       1       1
       2       1       1       2       1       1       2       1       1       2
       1       1       2       1       1       2       1       1       2       1
       1       2       1       1       2       1       1       2       1       1
       2       1       1       2       1       1       2       1       1       2
       1       1       2       1       1       2       1       1       2       1
       1       2       1       1       2       1       1       2       1       1
       2       1       1       2       1       1       2       1       1       2
       1       1       2       1       1       2       1       1       2       1
       1       2       1       1       2       1       1       2       1       1
       2       1       1       2       1       1       2       1       1       2
       1       1       2       1       1       2       1       1       2       1
       1       2       1       1       2       1       1       2       1       1
       2       1       1       2       1       1       2       1       1       2
       1       1       2       1       1       2       1       1       2       1
       1       2       1       1       2       1       1       2       1       1
       2       1       1       2       1       1       2       1       1       2
       1       1       2       1       1       2       1       1       2       1
       1       2       1       1       2       1       1       2       1       1
       2       1       1       2       1       1       2       1       1       2
       1       1       2       1       1       2       1       1       2       1
       1       2       1       1       2       1       1       2       1       1
       2       1       1       2       1       1       2       1       1       2
       1       1       2       1       1       2       1       1       2       1
       1       2       1       1       2       1       1       2       1       1
       2       1       1       2       1       1       2       1       1       2
       1       1       2       1       1       2       1       1       2       1
       1       2       1       1       2       1       1       2       1       1
       2       1       1       2       1       1       2       1       1       2
       1       1       2       1       1       2       1       1       2       1
       1       2       1       1       2       1       1       2       1       1
       2       1       1       2       1       1       2       1       1       2
       1       1       2       1       1       2       1       1       2       1
       1       2       1       1       2       1       1       2       1       1
       2       1       1       2       1       1       2       1       1       2
       1       1       2       1       1       2       1       1       2       1
       1       2       1       1       2       1       1       2       1       1
       2       1       1       2       1       1       2       1       1       2
       1       1       2       1       1       2       1       1       2       1
       1       2       1       1       2       1       1       2       1       1
       2       1       1       2       1       1       2       1       1       2
       1       1       2       1       1       2       1       1       2       1
       1       2       1       1       2       1       1       2       1       1
       2       1       1       2       1       1       2       1       1       2
       1       1       2       1       1       2       1       1       2       1
       1       2       1       1       2       1       1       2       1       1
       2       1       1       2       1       1       2       1       1       2
       1       1       2       1       1       2       1       1       2       1
       1       2       1       1       2       1       1       2       1       1
       2       1       1       2       1       1       2       1       1       2
       1       1       2       1       1       2       1       1       2       1
       1       2       1       1       2       1       1       2       1       1
       2       1       1       2       1       1       2       1       1       2
       1       1       2       1       1       2       1       1       2       1
       1       2       1       1       2       1       1       2       1       1
       2       1       1       2       1       1       2       1       1       2
       1       1       2       1       1       2       1       1       2       1
       1       2       1       1       2       1       1       2       1       1
       2       1       1       2       1       1       2       1       1       2
       1       1       2       1       1       2       1       1       2       1
       1       2       1       1       2       1       1       2       1       1
       2       1       1       2       1       1       2       1       1       2
       1       1       2       1       1       2       1       1       2       1
       1       2       1       1       2       1       1       2       1       1
       2       1       1       2       1       1       2       1       1       2
       1       1       2       1       1       2       1       1       2       1
       1       2       1       1       2       1       1       2       1       1
       2       1       1       2       1       1       2       1       1       2
       1       1       2       1       1       2       1       1       2       1
       1       2       1       1       2       1       1       2       1       1
       2       1       1       2       1       1       2       1       1       2
       1       1       2       1       1       2       1       1       2       1
       1       2       1       1       2       1       1       2       1       1
       2       1       1       2       1       1       2       1       1       2
       1       1       2       1       1       2       1       1       2       1
       1       2       1       1       2       1       1       2       1       1
       2       1       1       2       1       1       2       1       1       2
       1       1       2       1       1       2       1       1       2       1
       1       2       1       1       2       1       1       2       1       1
       2       1       1       2       1       1       2       1       1       2
       1       1       2       1       1       2       1       1       2       1
       1       2       1       1       2       1       1       2       1       1
       2       1       1       2       1       1       2       1       1       2
       1       1       2       1       1       2       1       1       2       1
       1       2       1       1       2       1       1       2       1       1
       2       1       1       2       1       1       2       1       1       2
       1       1       2       1       1       2       1       1       2       1
       1       2       1       1       2       1       1       2       1       1
       2       1       1       2       1       1       2       1       1       2
       1       1       2       1       1       2       1       1       2       1
       1       2       1       1       2       1       1       2       1       1
       2       1       1       2       1       1       2       1       1       2
       1       1       2       1       1       2       1       1       2       1
       1       2       1       1       2       1       1       2       1       1
       2       1       1       2       1       1       2       1       1       2
       1       1       2       1       1       2       1       1       2       1
       1       2       1       1       2       1       1       2       1       1
       2       1       1       2       1       1       2       1       1       2
       1       1       2       1       1       2       1       1       2       1
       1       2       1       1       2       1       1       2       1       1
       2       1       1       2       1       1       2       1       1       2
       1       1       2       1       1       2       1       1       2       1
       1       2       1       1       2       1       1       2       1       1
       2       1       1       2       1       1       2       1       1       2
       1       1       2       1       1       2       1       1       2       1
       1       2       1       1       2       1       1       2       1       1
       2       1       1       2       1       1       2       1       1       2
       1       1       2       1       1       2       1       1       2       1
       1       2       1       1       2       1       1       2       1       1
       2       1       1       2       1       1       2       1       1       2
       1       1       2       1       1       2       1       1       2       1
       1       2       1       1       2       1       1       2       1       1
       2       1       1       2       1       1       2       1       1       2
       1       1       2       1       1       2       1       1       2       1
       1       2       1       1       2       1       1       2       1       1
       2       1       1       2       1       1       2       1       1       2
       1       1       2       1       1       2       1       1       2       1
       1       2       1       1       2       1       1       2       1       1
       2       1       1       2       1       1       2       1       1       2
       1       1       2       1       1       2       1       1       2       1
       1       2       1       1       2       1       1       2       1       1
       2       1       1       2       1       1       2       1       1       2
       1       1       2       1       1       2       1       1       2       1
       1       2       1       1       2       1       1       2       1       1
       2       1       1       2       1       1       2       1       1       2
       1       1       2       1       1       2       1       1       2       1
       1       2       1       1       2       1       1       2       1       1
       2       1       1       2       1       1       2       1       1       2
       1       1       2       1       1       2       1       1       2       1
       1       2       1       1       2       1       1       2       1       1
       2       1       1       2       1       1       2       1       1       2
       1       1       2       1       1       2       1       1       2       1
       1       2       1       1       2       1       1       2       1       1
       2       1       1       2       1       1       2       1       1       2
       1       1       2       1       1       2       1       1       2       1
       1       2       1       1       2       1       1       2       1       1
       2       1       1       2       1       1       2       1       1       2
       1       1       2       1       1       2       1       1       2       1
       1       2       1       1       2       1       1       2       1       1
       2       1       1       2       1       1       2       1       1       2
       1       1       2       1       1       2       1       1       2       1
       1       2       1       1       2       1       1       2       1       1
       2       1       1       2       1       1       2       1       1       2
       1       1       2       1       1       2       1       1       2       1
       1       2       1       1       2       1       1       2       1       1
       2       1       1       2       1       1       2       1       1       2
       1       1       2       1       1       2       1       1       2       1
       1       2       1       1       2       1       1       2       1       1
       2       1       1       2       1       1       2       1       1       2
       1       1       2       1       1       2       1       1       2       1
       1       2       1       1       2       1       1       2       1       1
       2       1       1       2       1       1       2       1       1       2
       1       1       2       1       1       2       1       1       2       1
       1       2       1       1       2       1       1       2       1       1
       2       1       1       2       1       1       2       1       1       2
       1       1       2       1       1       2       1       1       2       1
       1       2       1       1       2       1       1       2       1       1
       2       1       1       2       1       1       2       1       1       2
       1       1       2       1       1       2       1       1       2       1
       1       2       1       1       2       1       1       2       1       1
       2       1       1       2       1       1       2       1       1       2
       1       1       2       1       1       2       1       1       2       1
       1       2       1       1       2       1       1       2       1       1
       2       1       1       2       1       1       2       1       1       2
       1       1       2       1       1       2       1       1       2       1
       1       2       1       1       2       1       1       2       1       1
       2       1       1       2       1       1       2       1       1       2
       1       1       2       1       1       2       1       1       2       1
       1       2       1       1       2       1       1       2       1       1
       2       1       1       2       1       1       2       1       1       2
       1       1       2       1       1       2       1       1       2       1
       1       2       1       1       2       1       1       2       1       1
       2       1       1       2       1       1       2       1       1       2
       1       1       2       1       1       2       1       1       2       1
       1       2       1       1       2       1       1       2       1       1
       2       1       1       2       1       1       2       1       1       2
       1       1       2       1       1       2       1       1       2       1
       1       2       1       1       2       1       1       2       1       1
       2       1       1       2       1       1       2       1       1       2
       1       1       2       1       1       2       1       1       2       1
       1       2       1       1       2       1       1       2       1       1
       2       1       1       2       1       1       2       1       1       2
       1       1       2       1       1       2       1       1       2       1
       1       2       1       1       2       1       1       2       1       1
       2       1       1       2       1       1       2       1       1       2
       1       1       2       1       1       2       1       1       2       1
       1       2       1       1       2       1       1       2       1       1
       2       1       1       2       1       1       2       1       1       2
       1       1       2       1       1       2       1       1       2       1
       1       2       1       1       2       1       1       2       1       1
       2       1       1       2       1       1       2       1       1       2
       1       1       2       1       1       2       1       1       2       1
       1       2       1       1       2       1       1       2       1       1
       2       1       1       2       1       1       2       1       1       2
       1       1       2       1       1       2       1       1       2       1
       1       2       1       1       2       1       1       2       1       1
       2       1       1       2       1       1       2       1       1       2
       1       1       2       1       1       2       1       1       2       1
       1       2       1       1       2       1       1       2       1       1
       2       1       1       2       1       1       2       1       1       2
       1       1       2       1       1       2       1       1       2       1
       1       2       1       1       2       1       1       2       1       1
       2       1       1       2       1       1       2       1       1       2
       1       1       2       1       1       2       1       1       2       1
       1       2       1       1       2       1       1       2       1       1
       2       1       1       2       1       1       2       1       1       2
       1       1       2       1       1       2       1       1       2       1
       1       2       1       1       2       1       1       2       1       1
       2       1       1       2       1       1       2       1       1       2
       1       1       2       1       1       2       1       1       2       1
       1       2       1       1       2       1       1       2       1       1
       2       1       1       2       1       1       2       1       1       2
       1       1       2       1       1       2       1       1       2       1
       1       2       1       1       2       1       1       2       1       1
       2       1       1       2       1       1       2       1       1       2
       1       1       2       1       1       2       1       1       2       1
       1       2       1       1       2       1       1       2       1       1
       2       1       1       2       1       1       2       1       1       2
       1       1       2       1       1       2       1       1       2       1
       1       2       1       1       2       1       1       2       1       1
       2       1       1       2       1       1       2       1       1       2
       1       1       2       1       1       2       1       1       2       1
       1       2       1       1       2       1       1       2       1       1
       2       1       1       2       1       1       2       1       1       2
       1       1       2       1       1       2       1       1       2       1
       1       2       1       1       2       1       1       2       1       1
       2       1       1       2       1       1       2       1       1       2
       1       1       2       1       1       2       1       1       2       1
       1       2       1       1       2       1       1       2       1       1
       2       1       1       2       1       1       2       1       1       2
       1       1       2       1       1       2       1       1       2       1
       1       2       1       1       2       1       1       2       1       1
       2       1       1       2       1       1       2       1       1       2
       1       1       2       1       1       2       1       1       2       1
       1       2       1       1       2       1       1       2       1       1
       2       1       1       2       1       1       2       1       1       2
       1       1       2       1       1       2       1       1       2       1
       1       2       1       1       2       1       1       2       1       1
       2       1       1       2       1       1       2       1       1       2
       1       1       2       1       1       2       1       1       2       1
       1       2       1       1       2       1       1       2       1       1
       2       1       1       2       1       1       2       1       1       2
       1       1       2       1       1       2       1       1       2       1
       1       2       1       1       2       1       1       2       1       1
       2       1       1       2       1       1       2       1       1       2
       1       1       2       1       1       2       1       1       2       1
       1       2       1       1       2       1       1       2       1       1
       2       1       1       2       1       1       2       1       1       2
       1       1       2       1       1       2       1       1       2       1
       1       2       1       1       2       1       1       2       1       1
       2       1       1       2       1       1       2       1       1       2
       1       1       2       1       1       2       1       1       2       1
       1       2       1       1       2       1       1       2       1       1
       2       1       1       2       1       1       2       1       1       2
       1       1       2       1       1       2       1       1       2       1
       1       2       1       1       2       1       1       2       1       1
       2       1       1       2       1       1       2       1       1       2
       1       1       2       1       1       2       1       1       2       1
       1       2       1       1       2       1       1       2       1       1
       2       1       1       2       1       1       2       1       1       2
       1       1       2       1       1       2       1       1       2       1
       1       2       1       1       2       1       1       2       1       1
       2       1       1       2       1       1       2       1       1       2
       1       1       2       1       1       2       1       1       2       1
       1       2       1       1       2       1       1       2       1       1
       2       1       1       2       1       1       2       1       1       2
       1       1       2       1       1       2       1       1       2       1
       1       2       1       1       2       1       1       2       1       1
       2       1       1       2       1       1       2       1       1       2
       1       1       2       1       1       2       1       1       2       1
       1       2       1       1       2       1       1       2       1       1
       2       1       1       2       1       1       2       1       1       2
       1       1       2       1       1       2       1       1       2       1
       1       2       1       1       2       1       1       2       1       1
       2       1       1       2       1       1       2       1       1       2
       1       1       2       1       1       2       1       1       2       1
       1       2       1       1       2       1       1       2       1       1
       2       1       1       2       1       1       2       1       1       2
       1       1       2       1       1       2       1       1       2       1
       1       2       1       1       2       1       1       2       1       1
       2       1       1       2       1       1       2       1       1       2
       1       1       2       1       1       2       1       1       2       1
       1       2       1       1       2       1       1       2       1       1
       2       1       1       2       1       1       2       1       1       2
       1       1       2       1       1       2       1       1       2       1
       1       2       1       1       2       1       1       2       1       1
       2       1       1       2       1       1       2       1       1       2
       1       1       2       1       1       2       1       1       2       1
       1       2       1       1       2       1       1       2       1       1
       2       1       1       2       1       1       2       1       1       2
       1       1       2       1       1       2       1       1       2       1
       1       2       1       1       2       1       1       2       1       1
       2       1       1       2       1       1       2       1       1       2
       1       1       2       1       1       2       1       1       2       1
       1       2       1       1       2       1       1       2       1       1
       2       1       1       2       1       1       2       1       1       2
       1       1       2       1       1       2       1       1       2       1
       1       2       1       1       2       1       1       2       1       1
       2       1       1       2       1       1       2       1       1       2
       1       1       2       1       1       2       1       1       2       1
       1       2       1       1       2       1       1       2       1       1
       2       1       1       2       1       1       2       1       1       2
       1       1       2       1       1       2       1       1       2       1
       1       2       1       1       2       1       1       2       1       1
       2       1       1       2       1       1       2       1       1       2
       1       1       2       1       1       2       1       1       2       1
       1       2       1       1       2       1       1       2       1       1
       2       1       1       2       1       1       2       1       1       2
       1       1       2       1       1       2       1       1       2       1
       1       2       1       1       2       1       1       2       1       1
       2       1       1       2       1       1       2       1       1       2
       1       1       2       1       1       2       1       1       2       1
       1       2       1       1       2       1       1       2       1       1
       2       1       1       2       1       1       2       1       1       2
       1       1       2       1       1       2       1       1       2       1
       1       2       1       1       2       1       1       2       1       1
       2       1       1       2       1       1       2       1       1       2
       1       1       2       1       1       2       1       1       2       1
       1       2       1       1       2       1       1       2       1       1
       2       1       1       2       1       1       2       1       1       2
       1       1       2       1       1       2       1       1       2       1
       1       2       1       1       2       1       1       2       1       1
       2       1       1       2       1       1       2       1       1       2
       1       1       2       1       1       2       1       1       2       1
       1       2       1       1       2       1       1       2       1       1
       2       1       1       2       1       1       2       1       1       2
       1       1       2       1       1       2       1       1       2       1
       1       2       1       1       2       1       1       2       1       1
       2       1       1       2       1       1       2       1       1       2
       1       1       2       1       1       2       1       1       2       1
       1       2       1       1       2       1       1       2       1       1
       2       1       1       2       1       1       2       1       1       2
       1       1       2       1       1       2       1       1       2       1
       1       2       1       1       2       1       1       2       1       1
       2       1       1       2       1       1       2       1       1       2
       1       1       2       1       1       2       1       1       2       1
       1       2       1       1       2       1       1       2       1       1
       2       1       1       2       1       1       2       1       1       2
       1       1       2       1       1       2       1       1       2       1
       1       2       1       1       2       1       1       2       1       1
       2       1       1       2       1       1       2       1       1       2
       1       1       2       1       1       2       1       1       2       1
       1       2       1       1       2       1       1       2       1       1
       2       1       1       2       1       1       2       1       1       2
       1       1       2       1       1       2       1       1       2       1
       1       2       1       1       2       1       1       2       1       1
       2       1       1       2       1       1       2       1       1       2
       1       1       2       1       1       2       1       1       2       1
       1       2       1       1       2       1       1       2       1       1
       2       1       1       2       1       1       2       1       1       2
       1       1       2       1       1       2       1       1       2       1
       1       2       1       1       2       1       1       2       1       1
       2       1       1       2       1       1       2       1       1       2
       1       1       2       1       1       2       1       1       2       1
       1       2       1       1       2       1       1       2       1       1
       2       1       1       2       1       1       2       1       1       2
       1       1       2       1       1       2       1       1       2       1
       1       2       1       1       2       1       1       2       1       1
       2       1       1       2       1       1       2       1       1       2
       1       1       2       1       1       2       1       1       2       1
       1       2       1       1       2       1       1       2       1       1
       2       1       1       2       1       1       2       1       1       2
       1       1       2       1       1       2       1       1       2       1
       1       2       1       1       2       1       1       2       1       1
       2       1       1       2       1       1       2       1       1       2
       1       1       2       1       1       2       1       1       2       1
       1       2       1       1       2       1       1       2       1       1
       2       1       1       2       1       1       2       1       1       2
       1       1       2       1       1       2       1       1       2       1
       1       2       1       1       2       1       1       2       1       1
       2       1       1       2       1       1       2       1       1       2
       1       1       2       1       1       2       1       1       2       1
       1       2       1       1       2       1       1       2       1       1
       2       1       1       2       1       1       2       1       1       2
       1       1       2       1       1       2       1       1       2       1
       1       2       1       1       2       1       1       2       1       1
       2       1       1       2       1       1       2       1       1       2
       1       1       2       1       1       2       1       1       2       1
       1       2       1       1       2       1       1       2       1       1
       2       1       1       2       1       1       2       1       1       2
       1       1       2       1       1       2       1       1       2       1
       1       2       1       1       2       1       1       2       1       1
       2       1       1       2       1       1       2       1       1       2
       1       1       2       1       1       2       1       1       2       1
       1       2       1       1       2       1       1       2       1       1
       2       1       1       2       1       1       2       1       1       2
       1       1       2       1       1       2       1       1       2       1
       1       2       1       1       2       1       1       2       1       1
       2       1       1       2       1       1       2       1       1       2
       1       1       2       1       1       2       1       1       2       1
       1       2       1       1       2       1       1       2       1       1
       2       1       1       2       1       1       2       1       1       2
       1       1       2       1       1       2       1       1       2       1
       1       2       1       1       2       1       1       2       1       1
       2       1       1       2       1       1       2       1       1       2
       1       1       2       1       1       2       1       1       2       1
       1       2       1       1       2       1       1       2       1       1
       2       1       1       2       1       1       2       1       1       2
       1       1       2       1       1       2       1       1       2       1
       1       2       1       1       2       1       1       2       1       1
       2       1       1       2       1       1       2       1       1       2
       1       1       2       1       1       2       1       1       2       1
       1       2       1       1       2       1       1       2       1       1
       2       1       1       2       1       1       2       1       1       2
       1       1       2       1       1       2       1       1       2       1
       1       2       1       1       2       1       1       2       1       1
       2       1       1       2       1       1       2       1       1       2
       1       1       2       1       1       2       1       1       2       1
       1       2       1       1       2       1       1       2       1       1
       2       1       1       2       1       1       2       1       1       2
       1       1       2       1       1       2       1       1       2       1
       1       2       1       1       2       1       1       2       1       1
       2       1       1       2       1       1       2       1       1       2
       1       1       2       1       1       2       1       1       2       1
       1       2       1       1       2       1       1       2       1       1
       2       1       1       2       1       1       2       1       1       2
       1       1       2       1       1       2       1       1       2       1
       1       2       1       1       2       1       1       2       1       1
       2       1       1       2       1       1       2       1       1       2
       1       1       2       1       1       2       1       1       2       1
       1       2       1       1       2       1       1       2       1       1
       2       1       1       2       1       1       2       1       1       2
       1       1       2       1       1       2       1       1       2       1
       1       2       1       1       2       1       1       2       1       1
       2       1       1       2       1       1       2       1       1       2
       1       1       2       1       1       2       1       1       2       1
       1       2       1       1       2       1       1       2       1       1
       2       1       1       2       1       1       2       1       1       2
       1       1       2       1       1       2       1       1       2       1
       1       2       1       1       2       1       1       2       1       1
       2       1       1       2       1       1       2       1       1       2
       1       1       2       1       1       2       1       1       2       1
       1       2       1       1       2       1       1       2       1       1
       2       1       1       2       1       1       2       1       1       2
       1       1       2       1       1       2       1       1       2       1
       1       2       1       1       2       1       1       2       1       1
       2       1       1       2       1       1       2       1       1       2
       1       1       2       1       1       2       1       1       2       1
       1       2       1       1       2       1       1       2       1       1
       2       1       1       2       1       1       2       1       1       2
       1       1       2       1       1       2       1       1       2       1
       1       2       1       1       2       1       1       2       1       1
       2       1       1       2       1       1       2       1       1       2
       1       1       2       1       1       2       1       1       2       1
       1       2       1       1       2       1       1       2       1       1
       2       1       1       2       1       1       2       1       1       2
       1       1       2       1       1       2       1       1       2       1
       1       2       1       1       2       1       1       2       1       1
       2       1       1       2       1       1       2       1       1       2
       1       1       2       1       1       2       1       1       2       1
       1       2       1       1       2       1       1       2       1       1
       2       1       1       2       1       1       2       1       1       2
       1       1       2       1       1       2       1       1       2       1
       1       2       1       1       2       1       1       2       1       1
       2       1       1       2       1       1       2       1       1       2
       1       1       2       1       1       2       1       1       2       1
       1       2       1       1       2       1       1       2       1       1
       2       1       1       2       1       1       2       1       1       2
       1       1       2       1       1       2       1       1       2       1
       1       2       1       1       2       1       1       2       1       1
       2       1       1       2       1       1       2       1       1       2
       1       1       2       1       1       2       1       1       2       1
       1       2       1       1       2       1       1       2       1       1
       2       1       1       2       1       1       2       1       1       2
       1       1       2       1       1       2       1       1       2       1
       1       2       1       1       2       1       1       2       1       1
       2       1       1       2       1       1       2       1       1       2
       1       1       2       1       1       2       1       1       2       1
       1       2       1       1       2       1       1       2       1       1
       2       1       1       2       1       1       2       1       1       2
       1       1       2       1       1       2       1       1       2       1
       1       2       1       1       2       1       1       2       1       1
       2       1       1       2       1       1       2       1       1       2
       1       1       2       1       1       2       1       1       2       1
       1       2       1       1       2       1       1       2       1       1
       2       1       1       2       1       1       2       1       1       2
       1       1       2       1       1       2       1       1       2       1
       1       2       1       1       2       1       1       2       1       1
       2       1       1       2       1       1       2       1       1       2
       1       1       2       1       1       2       1       1       2       1
       1       2       1       1       2       1       1       2       1       1
       2       1       1       2       1       1       2       1       1       2
       1       1       2       1       1       2       1       1       2       1
       1       2       1       1       2       1       1       2       1       1
       2       1       1       2       1       1       2       1       1       2
       1       1       2       1       1       2       1       1       2       1
       1       2       1       1       2       1       1       2       1       1
       2       1       1       2       1       1       2       1       1       2
       1       1       2       1       1       2       1       1       2       1
       1       2       1       1       2       1       1       2       1       1
       2       1       1       2       1       1       2       1       1       2
       1       1       2       1       1       2       1       1       2       1
       1       2       1       1       2       1       1       2       1       1
       2       1       1       2       1       1       2       1       1       2
       1       1       2       1       1       2       1       1       2       1
       1       2       1       1       2       1       1       2       1       1
       2       1       1       2       1       1       2       1       1       2
       1       1       2       1       1       2       1       1       2       1
       1       2       1       1       2       1       1       2       1       1
       2       1       1       2       1       1       2       1       1       2
       1       1       2       1       1       2       1       1       2       1
       1       2       1       1       2       1       1       2       1       1
       2       1       1       2       1       1       2       1       1       2
       1       1       2       1       1       2       1       1       2       1
       1       2       1       1       2       1       1       2       1       1
       2       1       1       2       1       1       2       1       1       2
       1       1       2       1       1       2       1       1       2       1
       1       2       1       1       2       1       1       2       1       1
       2       1       1       2       1       1       2       1       1       2
       1       1       2       1       1       2       1       1       2       1
       1       2       1       1       2       1       1       2       1       1
       2       1       1       2       1       1       2       1       1       2
       1       1       2       1       1       2       1       1       2       1
       1       2       1       1       2       1       1       2       1       1
       2       1       1       2       1       1       2       1       1       2
       1       1       2       1       1       2       1       1       2       1
       1       2       1       1       2       1       1       2       1       1
       2       1       1       2       1       1       2       1       1       2
       1       1       2       1       1       2       1       1       2       1
       1       2       1       1       2       1       1       2       1       1
       2       1       1       2       1       1       2       1       1       2
       1       1       2       1       1       2       1       1       2       1
       1       2       1       1       2       1       1       2       1       1
       2       1       1       2       1       1       2       1       1       2
       1       1       2       1       1       2       1       1       2       1
       1       2       1       1       2       1       1       2       1       1
       2       1       1       2       1       1       2       1       1       2
       1       1       2       1       1       2       1       1       2       1
       1       2       1       1       2       1       1       2       1       1
       2       1       1       2       1       1       2       1       1       2
       1       1       2       1       1       2       1       1       2       1
       1       2       1       1       2       1       1       2       1       1
       2       1       1       2       1       1       2       1       1       2
       1       1       2       1       1       2       1       1       2       1
       1       2       1       1       2       1       1       2       1       1
       2       1       1       2       1       1       2       1       1       2
       1       1       2       1       1       2       1       1       2       1
       1       2       1       1       2       1       1       2       1       1
       2       1       1       2       1       1       2       1       1       2
       1       1       2       1       1       2       1       1       2       1
       1       2       1       1       2       1       1       2       1       1
       2       1       1       2       1       1       2       1       1       2
       1       1       2       1       1       2       1       1       2       1
       1       2       1       1       2       1       1       2       1       1
       2       1       1       2       1       1       2       1       1       2
       1       1       2       1       1       2       1       1       2       1
       1       2       1       1       2       1       1       2       1       1
       2       1       1       2       1       1       2       1       1       2
       1       1       2       1       1       2       1       1       2       1
       1       2       1       1       2       1       1       2       1       1
       2       1       1       2       1       1       2       1       1       2
       1       1       2       1       1       2       1       1       2       1
       1       2       1       1       2       1       1       2       1       1
       2       1       1       2       1       1       2       1       1       2
       1       1       2       1       1       2       1       1       2       1
       1       2       1       1       2       1       1       2       1       1
       2       1       1       2       1       1       2       1       1       2
       1       1       2       1       1       2       1       1       2       1
       1       2       1       1       2       1       1       2       1       1
       2       1       1       2       1       1       2       1       1       2
       1       1       2       1       1       2       1       1       2       1
       1       2       1       1       2       1       1       2       1       1
       2       1       1       2       1       1       2       1       1       2
       1       1       2       1       1       2       1       1       2       1
       1       2       1       1       2       1       1       2       1       1
       2       1       1       2       1       1       2       1       1       2
       1       1       2       1       1       2       1       1       2       1
       1       2       1       1       2       1       1       2       1       1
       2       1       1       2       1       1       2       1       1       2
       1       1       2       1       1       2       1       1       2       1
       1       2       1       1       2       1       1       2       1       1
       2       1       1       2       1       1       2       1       1       2
       1       1       2       1       1       2       1       1       2       1
       1       2       1       1       2       1       1       2       1       1
       2       1       1       2       1       1       2       1       1       2
       1       1       2       1       1       2       1       1       2       1
       1       2       1       1       2       1       1       2       1       1
       2       1       1       2       1       1       2       1       1       2
       1       1       2       1       1       2       1       1       2       1
       1       2       1       1       2       1       1       2       1       1
       2       1       1       2       1       1       2       1       1       2
       1       1       2       1       1       2       1       1       2       1
       1       2       1       1       2       1       1       2       1       1
       2       1       1       2       1       1       2       1       1       2
       1       1       2       1       1       2       1       1       2       1
       1       2       1       1       2       1       1       2       1       1
       2       1       1       2       1       1       2       1       1       2
       1       1       2       1       1       2       1       1       2       1
       1       2       1       1       2       1       1       2       1       1
       2       1       1       2       1       1       2       1       1       2
       1       1       2       1       1       2       1       1       2       1
       1       2       1       1       2       1       1       2       1       1
       2       1       1       2       1       1       2       1       1       2
       1       1       2       1       1       2       1       1       2       1
       1       2       1       1       2       1       1       2       1       1
       2       1       1       2       1       1       2       1       1       2
       1       1       2       1       1       2       1       1       2       1
       1       2       1       1       2       1       1       2       1       1
       2       1       1       2       1       1       2       1       1       2
       1       1       2       1       1       2       1       1       2       1
       1       2       1       1       2       1       1       2       1       1
       2       1       1       2       1       1       2       1       1       2
       1       1       2       1       1       2       1       1       2       1
       1       2       1       1       2       1       1       2       1       1
       2       1       1       2       1       1       2       1       1       2
       1       1       2       1       1       2       1       1       2       1
       1       2       1       1       2       1       1       2       1       1
       2       1       1       2       1       1       2       1       1       2
       1       1       2       1       1       2       1       1       2       1
       1       2       1       1       2       1       1       2       1       1
       2       1       1       2       1       1       2       1       1       2
       1       1       2       1       1       2       1       1       2       1
       1       2       1       1       2       1       1       2       1       1
       2       1       1       2       1       1       2       1       1       2
       1       1       2       1       1       2       1       1       2       1
       1       2       1       1       2       1       1       2       1       1
       2       1       1       2       1       1       2       1       1       2
       1       1       2       1       1       2       1       1       2       1
       1       2       1       1       2       1       1       2       1       1
       2       1       1       2       1       1       2       1       1       2
       1       1       2       1       1       2       1       1       2       1
       1       2       1       1       2       1       1       2       1       1
       2       1       1       2       1       1       2       1       1       2
       1       1       2       1       1       2       1       1       2       1
       1       2       1       1       2       1       1       2       1       1
       2       1       1       2       1       1       2       1       1       2
       1       1       2       1       1       2       1       1       2       1
       1       2       1       1       2       1       1       2       1       1
       2       1       1       2       1       1       2       1       1       2
       1       1       2       1       1       2       1       1       2       1
       1       2       1       1       2       1       1       2       1       1
       2       1       1       2       1       1       2       1       1       2
       1       1       2       1       1       2       1       1       2       1
       1       2       1       1       2       1       1       2       1       1
       2       1       1       2       1       1       2       1       1       2
       1       1       2       1       1       2       1       1       2       1
       1       2       1       1       2       1       1       2       1       1
       2       1       1       2       1       1       2       1       1       2
       1       1       2       1       1       2       1       1       2       1
       1       2       1       1       2       1       1       2       1       1
       2       1       1       2       1       1       2       1       1       2
       1       1       2       1       1       2       1       1       2       1
       1       2       1       1       2       1       1       2       1       1
       2       1       1       2       1       1       2       1       1       2
       1       1       2       1       1       2       1       1       2       1
       1       2       1       1       2       1       1       2       1       1
       2       1       1       2       1       1       2       1       1       2
       1       1       2       1       1       2       1       1       2       1
       1       2       1       1       2       1       1       2       1       1
       2       1       1       2       1       1       2       1       1       2
       1       1       2       1       1       2       1       1       2       1
       1       2       1       1       2       1       1       2       1       1
       2       1       1       2       1       1       2       1       1       2
       1       1       2       1       1       2       1       1       2       1
       1       2       1       1       2       1       1       2       1       1
       2       1       1       2       1       1       2       1       1       2
       1       1       2       1       1       2       1       1       2       1
       1       2       1       1       2       1       1       2       1       1
       2       1       1       2       1       1       2       1       1       2
       1       1       2       1       1       2       1       1       2       1
       1       2       1       1       2       1       1       2       1       1
       2       1       1       2       1       1       2       1       1       2
       1       1       2       1       1       2       1       1       2       1
       1       2       1       1       2       1       1       2       1       1
       2       1       1       2       1       1       2       1       1       2
       1       1       2       1       1       2       1       1       2       1
       1       2       1       1       2       1       1       2       1       1
       2       1       1       2       1       1       2       1       1       2
       1       1       2       1       1       2       1       1       2       1
       1       2       1       1       2       1       1       2       1       1
       2       1       1       2       1       1       2       1       1       2
       1       1       2       1       1       2       1       1       2       1
       1       2       1       1       2       1       1       2       1       1
       2       1       1       2       1       1       2       1       1       2
       1       1       2       1       1       2       1       1       2       1
       1       2       1       1       2       1       1       2       1       1
       2       1       1       2       1       1       2       1       1       2
       1       1       2       1       1       2       1       1       2       1
       1       2       1       1       2       1       1       2       1       1
       2       1       1       2       1       1       2       1       1       2
       1       1       2       1       1       2       1       1       2       1
       1       2       1       1       2       1       1       2       1       1
       2       1       1       2       1       1       2       1       1       2
       1       1       2       1       1       2       1       1       2       1
       1       2       1       1       2       1       1       2       1       1
       2       1       1       2       1       1       2       1       1       2
       1       1       2       1       1       2       1       1       2       1
       1       2       1       1       2       1       1       2       1       1
       2       1       1       2       1       1       2       1       1       2
       1       1       2       1       1       2       1       1       2       1
       1       2       1       1       2       1       1       2       1       1
       2       1       1       2       1       1       2       1       1       2
       1       1       2       1       1       2       1       1       2       1
       1       2       1       1       2       1       1       2       1       1
       2       1       1       2       1       1       2       1       1       2
       1       1       2       1       1       2       1       1       2       1
       1       2       1       1       2       1       1       2       1       1
       2       1       1       2       1       1       2       1       1       2
       1       1       2       1       1       2       1       1       2       1
       1       2       1       1       2       1       1       2       1       1
       2       1       1       2       1       1       2       1       1       2
       1       1       2       1       1       2       1       1       2       1
       1       2       1       1       2       1       1       2       1       1
       2       1       1       2       1       1       2       1       1       2
       1       1       2       1       1       2       1       1       2       1
       1       2       1       1       2       1       1       2       1       1
       2       1       1       2       1       1       2       1       1       2
       1       1       2       1       1       2       1       1       2       1
       1       2       1       1       2       1       1       2       1       1
       2       1       1       2       1       1       2       1       1       2
       1       1       2       1       1       2       1       1       2       1
       1       2       1       1       2       1       1       2       1       1
       2       1       1       2       1       1       2       1       1       2
       1       1       2       1       1       2       1       1       2       1
       1       2       1       1       2       1       1       2       1       1
       2       1       1       2       1       1       2       1       1       2
       1       1       2       1       1       2       1       1       2       1
       1       2       1       1       2       1       1       2       1       1
       2       1       1       2       1       1       2       1       1       2
       1       1       2       1       1       2       1       1       2       1
       1       2       1       1       2       1       1       2       1       1
       2       1       1       2       1       1       2       1       1       2
       1       1       2       1       1       2       1       1       2       1
       1       2       1       1       2       1       1       2       1       1
       2       1       1       2       1       1       2       1       1       2
       1       1       2       1       1       2       1       1       2       1
       1       2       1       1       2       1       1       2       1       1
       2       1       1       2       1       1       2       1       1       2
       1       1       2       1       1       2       1       1       2       1
       1       2       1       1       2       1       1       2       1       1
       2       1       1       2       1       1       2       1       1       2
       1       1       2       1       1       2       1       1       2       1
       1       2       1       1       2       1       1       2       1       1
       2       1       1       2       1       1       2       1       1       2
       1       1       2       1       1       2       1       1       2       1
       1       2       1       1       2       1       1       2       1       1
       2       1       1       2       1       1       2       1       1       2
       1       1       2       1       1       2       1       1       2       1
       1       2       1       1       2       1       1       2       1       1
       2       1       1       2       1       1       2       1       1       2
       1       1       2       1       1       2       1       1       2       1
       1       2       1       1       2       1       1       2       1       1
       2       1       1       2       1       1       2       1       1       2
       1       1       2       1       1       2       1       1       2       1
       1       2       1       1       2       1       1       2       1       1
       2       1       1       2       1       1       2       1       1       2
       1       1       2       1       1       2       1       1       2       1
       1       2       1       1       2       1       1       2       1       1
       2       1       1       2       1       1       2       1       1       2
       1       1       2       1       1       2       1       1       2       1
       1       2       1       1       2       1       1       2       1       1
       2       1       1       2       1       1       2       1       1       2
       1       1       2       1       1       2       1       1       2       1
       1       2       1       1       2       1       1       2       1       1
       2       1       1       2       1       1       2       1       1       2
       1       1       2       1       1       2       1       1       2       1
       1       2       1       1       2       1       1       2       1       1
       2       1       1       2       1       1       2       1       1       2
       1       1       2       1       1       2       1       1       2       1
       1       2       1       1       2       1       1       2       1       1
       2       1       1       2       1       1       2       1       1       2
       1       1       2       1       1       2       1       1       2       1
       1       2       1       1       2       1       1       2       1       1
       2       1       1       2       1       1       2       1       1       2
       1       1       2       1       1       2       1       1       2       1
       1       2       1       1       2       1       1       2       1       1
       2       1       1       2       1       1       2       1       1       2
       1       1       2       1       1       2       1       1       2       1
       1       2       1       1       2       1       1       2       1       1
       2       1       1       2       1       1       2       1       1       2
       1       1       2       1       1       2       1       1       2       1
       1       2       1       1       2       1       1       2       1       1
       2       1       1       2       1       1       2       1       1       2
       1       1       2       1       1       2       1       1       2       1
       1       2       1       1       2       1       1       2       1       1
       2       1       1       2       1       1       2       1       1       2
       1       1       2       1       1       2       1       1       2       1
       1       2       1       1       2       1       1       2       1       1
       2       1       1       2       1       1       2       1       1       2
       1       1       2       1       1       2       1       1       2       1
       1       2       1       1       2       1       1       2       1       1
       2       1       1       2       1       1       2       1       1       2
       1       1       2       1       1       2       1       1       2       1
       1       2       1       1       2       1       1       2       1       1
       2       1       1       2       1       1       2       1       1       2
       1       1       2       1       1       2       1       1       2       1
       1       2       1       1       2       1       1       2       1       1
       2       1       1       2       1       1       2       1       1       2
       1       1       2       1       1       2       1       1       2       1
       1       2       1       1       2       1       1       2       1       1
       2       1       1       2       1       1       2       1       1       2
       1       1       2       1       1       2       1       1       2       1
       1       2       1       1       2       1       1       2       1       1
       2       1       1       2       1       1       2       1       1       2
       1       1       2       1       1       2       1       1       2       1
       1       2       1       1       2       1       1       2       1       1
       2       1       1       2       1       1       2       1       1       2
       1       1       2       1       1       2       1       1       2       1
       1       2       1       1       2       1       1       2       1       1
       2       1       1       2       1       1       2       1       1       2
       1       1       2       1       1       2       1       1       2       1
       1       2       1       1       2       1       1       2       1       1
       2       1       1       2       1       1       2       1       1       2
       1       1       2       1       1       2       1       1       2       1
       1       2       1       1       2       1       1       2       1       1
       2       1       1       2       1       1       2       1       1       2
       1       1       2       1       1       2       1       1       2       1
       1       2       1       1       2       1       1       2       1       1
       2       1       1       2       1       1       2       1       1       2
       1       1       2       1       1       2       1       1       2       1
       1       2       1       1       2       1       1       2       1       1
       2       1       1       2       1       1       2       1       1       2
       1       1       2       1       1       2       1       1       2       1
       1       2       1       1       2       1       1       2       1       1
       2       1       1       2       1       1       2       1       1       2
       1       1       2       1       1       2       1       1       2       1
       1       2       1       1       2       1       1       2       1       1
       2       1       1       2       1       1       2       1       1       2
       1       1       2       1       1       2       1       1       2       1
       1       2       1       1       2       1       1       2       1       1
       2       1       1       2       1       1       2       1       1       2
       1       1       2       1       1       2       1       1       2       1
       1       2       1       1       2       1       1       2       1       1
       2       1       1       2       1       1       2       1       1       2
       1       1       2       1       1       2       1       1       2       1
       1       2       1       1       2       1       1       2       1       1
       2       1       1       2       1       1       2       1       1       2
       1       1       2       1       1       2       1       1       2       1
       1       2       1       1       2       1       1       2       1       1
       2       1       1       2       1       1       2       1       1       2
       1       1       2       1       1       2       1       1       2       1
       1       2       1       1       2       1       1       2       1       1
       2       1       1       2       1       1       2       1       1       2
       1       1       2       1       1       2       1       1       2       1
       1       2       1       1       2       1       1       2       1       1
       2       1       1       2       1       1       2       1       1       2
       1       1       2       1       1       2       1       1       2       1
       1       2       1       1       2       1       1       2       1       1
       2       1       1       2       1       1       2       1       1       2
       1       1       2       1       1       2       1       1       2       1
       1       2       1       1       2       1       1       2       1       1
       2       1       1       2       1       1       2       1       1       2
       1       1       2       1       1       2       1       1       2       1
       1       2       1       1       2       1       1       2       1       1
       2       1       1       2       1       1       2       1       1       2
       1       1       2       1       1       2       1       1       2       1
       1       2       1       1       2       1       1       2       1       1
       2       1       1       2       1       1       2       1       1       2
       1       1       2       1       1       2       1       1       2       1
       1       2       1       1       2       1       1       2       1       1
       2       1       1       2       1       1       2       1       1       2
       1       1       2       1       1       2       1       1       2       1
       1       2       1       1       2       1       1       2       1       1
       2       1       1       2       1       1       2       1       1       2
       1       1       2       1       1       2       1       1       2       1
       1       2       1       1       2       1       1       2       1       1
       2       1       1       2       1       1       2       1       1       2
       1       1       2       1       1       2       1       1       2       1
       1       2       1       1       2       1       1       2       1       1
       2       1       1       2       1       1       2       1       1       2
       1       1       2       1       1       2       1       1       2       1
       1       2       1       1       2       1       1       2       1       1
       2       1       1       2       1       1       2       1       1       2
       1       1       2       1       1       2       1       1       2       1
       1       2       1       1       2       1       1       2       1       1
       2       1       1       2       1       1       2       1       1       2
       1       1       2       1       1       2       1       1       2       1
       1       2       1       1       2       1       1       2       1       1
       2       1       1       2       1       1       2       1       1       2
       1       1       2       1       1       2       1       1       2       1
       1       2       1       1       2       1       1       2       1       1
       2       1       1       2       1       1       2       1       1       2
       1       1       2       1       1       2       1       1       2       1
       1       2       1       1       2       1       1       2       1       1
       2       1       1       2       1       1       2       1       1       2
       1       1       2       1       1       2       1       1       2       1
       1       2       1       1       2       1       1       2       1       1
       2       1       1       2       1       1       2       1       1       2
       1       1       2       1       1       2       1       1       2       1
       1       2       1       1       2       1       1       2       1       1
       2       1       1       2       1       1       2       1       1       2
       1       1       2       1       1       2       1       1       2       1
       1       2       1       1       2       1       1       2       1       1
       2       1       1       2       1       1       2       1       1       2
       1       1       2       1       1       2       1       1       2       1
       1       2       1       1       2       1       1       2       1       1
       2       1       1       2       1       1       2       1       1       2
       1       1       2       1       1       2       1       1       2       1
       1       2       1       1       2       1       1       2       1       1
       2       1       1       2       1       1       2       1       1       2
       1       1       2       1       1       2       1       1       2       1
       1       2       1       1       2       1       1       2       1       1
       2       1       1       2       1       1       2       1       1       2
       1       1       2       1       1       2       1       1       2       1
       1       2       1       1       2       1       1       2       1       1
       2       1       1       2       1       1       2       1       1       2
       1       1       2       1       1       2       1       1       2       1
       1       2       1       1       2       1       1       2       1       1
       2       1       1       2       1       1       2       1       1       2
       1       1       2       1       1       2       1       1       2       1
       1       2       1       1       2       1       1       2       1       1
       2       1       1       2       1       1       2       1       1       2
       1       1       2       1       1       2       1       1       2       1
       1       2       1       1       2       1       1       2       1       1
       2       1       1       2       1       1       2       1       1       2
       1       1       2       1       1       2       1       1       2       1
       1       2       1       1       2       1       1       2       1       1
       2       1       1       2       1       1       2       1       1       2
       1       1       2       1       1       2       1       1       2       1
       1       2       1       1       2       1       1       2       1       1
       2       1       1       2       1       1       2       1       1       2
       1       1       2       1       1       2       1       1       2       1
       1       2       1       1       2       1       1       2       1       1
       2       1       1       2       1       1       2       1       1       2
       1       1       2       1       1       2       1       1       2       1
       1       2       1       1       2       1       1       2       1       1
       2       1       1       2       1       1       2       1       1       2
       1       1       2       1       1       2       1       1       2       1
       1       2       1       1       2       1       1       2       1       1
       2       1       1       2       1       1       2       1       1       2
       1       1       2       1       1       2       1       1       2       1
       1       2       1       1       2       1       1       2       1       1
       2       1       1       2       1       1       2       1       1       2
       1       1       2       1       1       2       1       1       2       1
       1       2       1       1       2       1       1       2       1       1
       2       1       1       2       1       1       2       1       1       2
       1       1       2       1       1       2       1       1       2       1
       1       2       1       1       2       1       1       2       1       1
       2       1       1       2       1       1       2       1       1       2
       1       1       2       1       1       2       1       1       2       1
       1       2       1       1       2       1       1       2       1       1
       2       1       1       2       1       1       2       1       1       2
       1       1       2       1       1       2       1       1       2       1
       1       2       1       1       2       1       1       2       1       1
       2       1       1       2       1       1       2       1       1       2
       1       1       2       1       1       2       1       1       2       1
       1       2       1       1       2       1       1       2       1       1
       2       1       1       2       1       1       2       1       1       2
       1       1       2       1       1       2       1       1       2       1
       1       2       1       1       2       1       1       2       1       1
       2       1       1       2       1       1       2       1       1       2
       1       1       2       1       1       2       1       1       2       1
       1       2       1       1       2       1       1       2       1       1
       2       1       1       2       1       1       2       1       1       2
       1       1       2       1       1       2       1       1       2       1
       1       2       1       1       2       1       1       2       1       1
       2       1       1       2       1       1       2       1       1       2
       1       1       2       1       1       2       1       1       2       1
       1       2       1       1       2       1       1       2       1       1
       2       1       1       2       1       1       2       1       1       2
       1       1       2       1       1       2       1       1       2       1
       1       2       1       1       2       1       1       2       1       1
       2       1       1       2       1       1       2       1       1       2
       1       1       2       1       1       2       1       1       2       1
       1       2       1       1       2       1       1       2       1       1
       2       1       1       2       1       1       2       1       1       2
       1       1       2       1       1       2       1       1       2       1
       1       2       1       1       2       1       1       2       1       1
       2       1       1       2       1       1       2       1       1       2
       1       1       2       1       1       2       1       1       2       1
       1       2       1       1       2       1       1       2       1       1
       2       1       1       2       1       1       2       1       1       2
       1       1       2       1       1       2       1       1       2       1
       1       2       1       1       2       1       1       2       1       1
       2       1       1       2       1       1       2       1       1       2
       1       1       2       1       1       2       1       1       2       1
       1       2       1       1       2       1       1       2       1       1
       2       1       1       2       1       1       2       1       1       2
       1       1       2       1       1       2       1       1       2       1
       1       2       1       1       2       1       1       2       1       1
       2       1       1       2       1       1       2       1       1       2
       1       1       2       1       1       2       1       1       2       1
       1       2       1       1       2       1       1       2       1       1
       2       1       1       2       1       1       2       1       1       2
       1       1       2       1       1       2       1       1       2       1
       1       2       1       1       2       1       1       2       1       1
       2       1       1       2       1       1       2       1       1       2
       1       1       2       1       1       2       1       1       2       1
       1       2       1       1       2       1       1       2       1       1
       2       1       1       2       1       1       2       1       1       2
       1       1       2       1       1       2       1       1       2       1
       1       2       1       1       2       1       1       2       1       1
       2       1       1       2       1       1       2       1       1       2
       1       1       2       1       1       2       1       1       2       1
       1       2       1       1       2       1       1       2       1       1
       2       1       1       2       1       1       2       1       1       2
       1       1       2       1       1       2       1       1       2       1
       1       2       1       1       2       1       1       2       1       1
       2       1       1       2       1       1       2       1       1       2
       1       1       2       1       1       2       1       1       2       1
       1       2       1       1       2       1       1       2       1       1
       2       1       1       2       1       1       2       1       1       2
       1       1       2       1       1       2       1       1       2       1
       1       2       1       1       2       1       1       2       1       1
       2       1       1       2       1       1       2       1       1       2
       1       1       2       1       1       2       1       1       2       1
       1       2       1       1       2       1       1       2       1       1
       2       1       1       2       1       1       2       1       1       2
       1       1       2       1       1       2       1       1       2       1
       1       2       1       1       2       1       1       2       1       1
       2       1       1       2       1       1       2       1       1       2
       1       1       2       1       1       2       1       1       2       1
       1       2       1       1       2       1       1       2       1       1
       2       1       1       2       1       1       2       1       1       2
       1       1       2       1       1       2       1       1       2       1
       1       2       1       1       2       1       1       2       1       1
       2       1       1       2       1       1       2       1       1       2
       1       1       2       1       1       2       1       1       2       1
       1       2       1       1       2       1       1       2       1       1
       2       1       1       2       1       1       2       1       1       2
       1       1       2       1       1       2       1       1       2       1
       1       2       1       1       2       1       1       2       1       1
       2       1       1       2       1       1       2       1       1       2
       1       1       2       1       1       2       1       1       2       1
       1       2       1       1       2       1       1       2       1       1
       2       1       1       2       1       1       2       1       1       2
       1       1       2       1       1       2       1       1       2       1
       1       2       1       1       2       1       1       2       1       1
       2       1       1       2       1       1       2       1       1       2
       1       1       2       1       1       2       1       1       2       1
       1       2       1       1       2       1       1       2       1       1
       2       1       1       2       1       1       2       1       1       2
       1       1       2       1       1       2       1       1       2       1
       1       2       1       1       2       1       1       2       1       1
       2       1       1       2       1       1       2       1       1       2
       1       1       2       1       1       2       1       1       2       1
       1       2       1       1       2       1       1       2       1       1
       2       1       1       2       1       1       2       1       1       2
       1       1       2       1       1       2       1       1       2       1
       1       2       1       1       2       1       1       2       1       1
       2       1       1       2       1       1       2       1       1       2
       1       1       2       1       1       2       1       1       2       1
       1       2       1       1       2       1       1       2       1       1
       2       1       1       2       1       1       2       1       1       2
       1       1       2       1       1       2       1       1       2       1
       1       2       1       1       2       1       1       2       1       1
       2       1       1       2       1       1       2       1       1       2
       1       1       2       1       1       2       1       1       2       1
       1       2       1       1       2       1       1       2       1       1
       2       1       1       2       1       1       2       1       1       2
       1       1       2       1       1       2       1       1       2       1
       1       2       1       1       2       1       1       2       1       1
       2       1       1       2       1       1       2       1       1       2
       1       1       2       1       1       2       1       1       2       1
       1       2       1       1       2       1       1       2       1       1
       2       1       1       2       1       1       2       1       1       2
       1       1       2       1       1       2       1       1       2       1
       1       2       1       1       2       1       1       2       1       1
       2       1       1       2       1       1       2       1       1       2
       1       1       2       1       1       2       1       1       2       1
       1       2       1       1       2       1       1       2       1       1
       2       1       1       2       1       1       2       1       1       2
       1       1       2       1       1       2       1       1       2       1
       1       2       1       1       2       1       1       2       1       1
       2       1       1       2       1       1       2       1       1       2
       1       1       2       1       1       2       1       1       2       1
       1       2       1       1       2       1       1       2       1       1
       2       1       1       2       1       1       2       1       1       2
       1       1       2       1       1       2       1       1       2       1
       1       2       1       1       2       1       1       2       1       1
       2       1       1       2       1       1       2       1       1       2
       1       1       2       1       1       2       1       1       2       1
       1       2       1       1       2       1       1       2       1       1
       2       1       1       2       1       1       2       1       1       2
       1       1       2       1       1       2       1       1       2       1
       1       2       1       1       2       1       1       2       1       1
       2       1       1       2       1       1       2       1       1       2
       1       1       2       1       1       2       1       1       2       1
       1       2       1       1       2       1       1       2       1       1
       2       1       1       2       1       1       2       1       1       2
       1       1       2       1       1       2       1       1       2       1
       1       2       1       1       2       1       1       2       1       1
       2       1       1       2       1       1       2       1       1       2
       1       1       2       1       1       2       1       1       2       1
       1       2       1       1       2       1       1       2       1       1
       2       1       1       2       1       1       2       1       1       2
       1       1       2       1       1       2       1       1       2       1
       1       2       1       1       2       1       1       2       1       1
       2       1       1       2       1       1       2       1       1       2
       1       1       2       1       1       2       1       1       2       1
       1       2       1       1       2       1       1       2       1       1
       2       1       1       2       1       1       2       1       1       2
       1       1       2       1       1       2       1       1       2       1
       1       2       1       1       2       1       1       2       1       1
       2       1       1       2       1       1       2       1       1       2
       1       1       2       1       1       2       1       1       2       1
       1       2       1       1       2       1       1       2       1       1
       2       1       1       2       1       1       2       1       1       2
       1       1       2       1       1       2       1       1       2       1
       1       2       1       1       2       1       1       2       1       1
       2       1       1       2       1       1       2       1       1       2
       1       1       2       1       1       2       1       1       2       1
       1       2       1       1       2       1       1       2       1       1
       2       1       1       2       1       1       2       1       1       2
       1       1       2       1       1       2       1       1       2       1
       1       2       1       1       2       1       1       2       1       1
       2       1       1       2       1       1       2       1       1       2
       1       1       2       1       1       2       1       1       2       1
       1       2       1       1       2       1       1       2       1       1
       2       1       1       2       1       1       2       1       1       2
       1       1       2       1       1       2       1       1       2       1
       1       2       1       1       2       1       1       2       1       1
       2       1       1       2       1       1       2       1       1       2
       1       1       2       1       1       2       1       1       2       1
       1       2       1       1       2       1       1       2       1       1
       2       1       1       2       1       1       2       1       1       2
       1       1       2       1       1       2       1       1       2       1
       1       2       1       1       2       1       1       2       1       1
       2       1       1       2       1       1       2       1       1       2
       1       1       2       1       1       2       1       1       2       1
       1       2       1       1       2       1       1       2       1       1
       2       1       1       2       1       1       2       1       1       2
       1       1       2       1       1       2       1       1       2       1
       1       2       1       1       2       1       1       2       1       1
       2       1       1       2       1       1       2       1       1       2
       1       1       2       1       1       2       1       1       2       1
       1       2       1       1       2       1       1       2       1       1
       2       1       1       2       1       1       2       1       1       2
       1       1       2       1       1       2       1       1       2       1
       1       2       1       1       2       1       1       2       1       1
       2       1       1       2       1       1       2       1       1       2
       1       1       2       1       1       2       1       1       2       1
       1       2       1       1       2       1       1       2       1       1
       2       1       1       2       1       1       2       1       1       2
       1       1       2       1       1       2       1       1       2       1
       1       2       1       1       2       1       1       2       1       1
       2       1       1       2       1       1       2       1       1       2
       1       1       2       1       1       2       1       1       2       1
       1       2       1       1       2       1       1       2       1       1
       2       1       1       2       1       1       2       1       1       2
       1       1       2       1       1       2       1       1       2       1
       1       2       1       1       2       1       1       2       1       1
       2       1       1       2       1       1       2       1       1       2
       1       1       2       1       1       2       1       1       2       1
       1       2       1       1       2       1       1       2       1       1
       2       1       1       2       1       1       2       1       1       2
       1       1       2       1       1       2       1       1       2       1
       1       2       1       1       2       1       1       2       1       1
       2       1       1       2       1       1       2       1       1       2
       1       1       2       1       1       2       1       1       2       1
       1       2       1       1       2       1       1       2       1       1
       2       1       1       2       1       1       2       1       1       2
       1       1       2       1       1       2       1       1       2       1
       1       2       1       1       2       1       1       2       1       1
       2       1       1       2       1       1       2       1       1       2
       1       1       2       1       1       2       1       1       2       1
       1       2       1       1       2       1       1       2       1       1
       2       1       1       2       1       1       2       1       1       2
       1       1       2       1       1       2       1       1       2       1
       1       2       1       1       2       1       1       2       1       1
       2       1       1       2       1       1       2       1       1       2
       1       1       2       1       1       2       1       1       2       1
       1       2       1       1       2       1       1       2       1       1
       2       1       1       2       1       1       2       1       1       2
       1       1       2       1       1       2       1       1       2       1
       1       2       1       1       2       1       1       2       1       1
       2       1       1       2       1       1       2       1       1       2
       1       1       2       1       1       2       1       1       2       1
       1       2       1       1       2       1       1       2       1       1
       2       1       1       2       1       1       2       1       1       2
       1       1       2       1       1       2       1       1       2       1
       1       2       1       1       2       1       1       2       1       1
       2       1       1       2       1       1       2       1       1       2
       1       1       2       1       1       2       1       1       2       1
       1       2       1       1       2       1       1       2       1       1
       2       1       1       2       1       1       2       1       1       2
       1       1       2       1       1       2       1       1       2       1
       1       2       1       1       2       1       1       2       1       1
       2       1       1       2       1       1       2       1       1       2
       1       1       2       1       1       2       1       1       2       1
       1       2       1       1       2       1       1       2       1       1
       2       1       1       2       1       1       2       1       1       2
       1       1       2       1       1       2       1       1       2       1
       1       2       1       1       2       1       1       2       1       1
       2       1       1       2       1       1       2       1       1       2
       1       1       2       1       1       2       1       1       2       1
       1       2       1       1       2       1       1       2       1       1
       2       1       1       2       1       1       2       1       1       2
       1       1       2       1       1       2       1       1       2       1
       1       2       1       1       2       1       1       2       1       1
       2       1       1       2       1       1       2       1       1       2
       1       1       2       1       1       2       1       1       2       1
       1       2       1       1       2       1       1       2       1       1
       2       1       1       2       1       1       2       1       1       2
       1       1       2       1       1       2       1       1       2       1
       1       2       1       1       2       1       1       2       1       1
       2       1       1       2       1       1       2       1       1       2
       1       1       2       1       1       2       1       1       2       1
       1       2       1       1       2       1       1       2       1       1
       2       1       1       2       1       1       2       1       1       2
       1       1       2       1       1       2       1       1       2       1
       1       2       1       1       2       1       1       2       1       1
       2       1       1       2       1       1       2       1       1       2
       1       1       2       1       1       2       1       1       2       1
       1       2       1       1       2       1       1       2       1       1
       2       1       1       2       1       1       2       1       1       2
       1       1       2       1       1       2       1       1       2       1
       1       2       1       1       2       1       1       2       1       1
       2       1       1       2       1       1       2       1       1       2
       1       1       2       1       1       2       1       1       2       1
       1       2       1       1       2       1       1       2       1       1
       2       1       1       2       1       1       2       1       1       2
       1       1       2       1       1       2       1       1       2       1
       1       2       1       1       2       1       1       2       1       1
       2       1       1       2       1       1       2       1       1       2
       1       1       2       1       1       2       1       1       2       1
       1       2       1       1       2       1       1       2       1       1
       2       1       1       2       1       1       2       1       1       2
       1       1       2       1       1       2       1       1       2       1
       1       2       1       1       2       1       1       2       1       1
       2       1       1       2       1       1       2       1       1       2
       1       1       2       1       1       2       1       1       2       1
       1       2       1       1       2       1       1       2       1       1
       2       1       1       2       1       1       2       1       1       2
       1       1       2       1       1       2       1       1       2       1
       1       2       1       1       2       1       1       2       1       1
       2       1       1       2       1       1       2       1       1       2
       1       1       2       1       1       2       1       1       2       1
       1       2       1       1       2       1       1       2       1       1
       2       1       1       2       1       1       2       1       1       2
       1       1       2       1       1       2       1       1       2       1
       1       2       1       1       2       1       1       2       1       1
       2       1       1       2       1       1       2       1       1       2
       1       1       2       1       1       2       1       1       2       1
       1       2       1       1       2       1       1       2       1       1
       2       1       1       2       1       1       2       1       1       2
       1       1       2       1       1       2       1       1       2       1
       1       2       1       1       2       1       1       2       1       1
       2       1       1       2       1       1       2       1       1       2
       1       1       2       1       1       2       1       1       2       1
       1       2       1       1       2       1       1       2       1       1
       2       1       1       2       1       1       2       1       1       2
       1       1       2       1       1       2       1       1       2       1
       1       2       1       1       2       1       1       2       1       1
       2       1       1       2       1       1       2       1       1       2
       1       1       2       1       1       2       1       1       2       1
       1       2       1       1       2       1       1       2       1       1
       2       1       1       2       1       1       2       1       1       2
       1       1       2       1       1       2       1       1       2       1
       1       2       1       1       2       1       1       2       1       1
       2       1       1       2       1       1       2       1       1       2
       1       1       2       1       1       2       1       1       2       1
       1       2       1       1       2       1       1       2       1       1
       2       1       1       2       1       1       2       1       1       2
       1       1       2       1       1       2       1       1       2       1
       1       2       1       1       2       1       1       2       1       1
       2       1       1       2       1       1       2       1       1       2
       1       1       2       1       1       2       1       1       2       1
       1       2       1       1       2       1       1       2       1       1
       2       1       1       2       1       1       2       1       1       2
       1       1       2       1       1       2       1       1       2       1
       1       2       1       1       2       1       1       2       1       1
       2       1       1       2       1       1       2       1       1       2
       1       1       2       1       1       2       1       1       2       1
       1       2       1       1       2       1       1       2       1       1
       2       1       1       2       1       1       2       1       1       2
       1       1       2       1       1       2       1       1       2       1
       1       2       1       1       2       1       1       2       1       1
       2       1       1       2       1       1       2       1       1       2
       1       1       2       1       1       2       1       1       2       1
       1       2       1       1       2       1       1       2       1       1
       2       1       1       2       1       1       2       1       1       2
       1       1       2       1       1       2       1       1       2       1
       1       2       1       1       2       1       1       2       1       1
       2       1       1       2       1       1       2       1       1       2
       1       1       2       1       1       2       1       1       2       1
       1       2       1       1       2       1       1       2       1       1
       2       1       1       2       1       1       2       1       1       2
       1       1       2       1       1       2       1       1       2       1
       1       2       1       1       2       1       1       2       1       1
       2       1       1       2       1       1       2       1       1       2
       1       1       2       1       1       2       1       1       2       1
       1       2       1       1       2       1       1       2       1       1
       2       1       1       2       1       1       2       1       1       2
       1       1       2       1       1       2       1       1       2       1
       1       2       1       1       2       1       1       2       1       1
       2       1       1       2       1       1       2       1       1       2
       1       1       2       1       1       2       1       1       2       1
       1       2       1       1       2       1       1       2       1       1
       2       1       1       2       1       1       2       1       1       2
       1       1       2       1       1       2       1       1       2       1
       1       2       1       1       2       1       1       2       1       1
       2       1       1       2       1       1       2       1       1       2
       1       1       2       1       1       2       1       1       2       1
       1       2       1       1       2       1       1       2       1       1
       2       1       1       2       1       1       2       1       1       2
       1       1       2       1       1       2       1       1       2       1
       1       2       1       1       2       1       1       2       1       1
       2       1       1       2       1       1       2       1       1       2
       1       1       2       1       1       2       1       1       2       1
       1       2       1       1       2       1       1       2       1       1
       2       1       1       2       1       1       2       1       1       2
       1       1       2       1       1       2       1       1       2       1
       1       2       1       1       2       1       1       2       1       1
       2       1       1       2       1       1       2       1       1       2
       1       1       2       1       1       2       1       1       2       1
       1       2       1       1       2       1       1       2       1       1
       2       1       1       2       1       1       2       1       1       2
       1       1       2       1       1       2       1       1       2       1
       1       2       1       1       2       1       1       2       1       1
       2       1       1       2       1       1       2       1       1       2
       1       1       2       1       1       2       1       1       2       1
       1       2       1       1       2       1       1       2       1       1
       2       1       1       2       1       1       2       1       1       2
       1       1       2       1       1       2       1       1       2       1
       1       2       1       1       2       1       1       2       1       1
       2       1       1       2       1       1       2       1       1       2
       1       1       2       1       1       2       1       1       2       1
       1       2       1       1       2       1       1       2       1       1
       2       1       1       2       1       1       2       1       1       2
       1       1       2       1       1       2       1       1       2       1
       1       2       1       1       2       1       1       2       1       1
       2       1       1       2       1       1       2       1       1       2
       1       1       2       1       1       2       1       1       2       1
       1       2       1       1       2       1       1       2       1       1
       2       1       1       2       1       1       2       1       1       2
       1       1       2       1       1       2       1       1       2       1
       1       2       1       1       2       1       1       2       1       1
       2       1       1       2       1       1       2       1       1       2
       1       1       2       1       1       2       1       1       2       1
       1       2       1       1       2       1       1       2       1       1
       2       1       1       2       1       1       2       1       1       2
       1       1       2       1       1       2       1       1       2       1
       1       2       1       1       2       1       1       2       1       1
       2       1       1       2       1       1       2       1       1       2
       1       1       2       1       1       2       1       1       2       1
       1       2       1       1       2       1       1       2       1       1
       2       1       1       2       1       1       2       1       1       2
       1       1       2       1       1       2       1       1       2       1
       1       2       1       1       2       1       1       2       1       1
       2       1       1       2       1       1       2       1       1       2
       1       1       2       1       1       2       1       1       2       1
       1       2       1       1       2       1       1       2       1       1
       2       1       1       2       1       1       2       1       1       2
       1       1       2       1       1       2       1       1       2       1
       1       2       1       1       2       1       1       2       1       1
       2       1       1       2       1       1       2       1       1       2
       1       1       2       1       1       2       1       1       2       1
       1       2       1       1       2       1       1       2       1       1
       2       1       1       2       1       1       2       1       1       2
       1       1       2       1       1       2       1       1       2       1
       1       2       1       1       2       1       1       2       1       1
       2       1       1       2       1       1       2       1       1       2
       1       1       2       1       1       2       1       1       2       1
       1       2       1       1       2       1       1       2       1       1
       2       1       1       2       1       1       2       1       1       2
       1       1       2       1       1       2       1       1       2       1
       1       2       1       1       2       1       1       2       1       1
       2       1       1       2       1       1       2       1       1       2
       1       1       2       1       1       2       1       1       2       1
       1       2       1       1       2       1       1       2       1       1
       2       1       1       2       1       1       2       1       1       2
       1       1       2       1       1       2       1       1       2       1
       1       2       1       1       2       1       1       2       1       1
       2       1       1       2       1       1       2       1       1       2
       1       1       2       1       1       2       1       1       2       1
       1       2       1       1       2       1       1       2       1       1
       2       1       1       2       1       1       2       1       1       2
       1       1       2       1       1       2       1       1       2       1
       1       2       1       1       2       1       1       2       1       1
       2       1       1       2       1       1       2       1       1       2
       1       1       2       1       1       2       1       1       2       1
       1       2       1       1       2       1       1       2       1       1
       2       1       1       2       1       1       2       1       1       2
       1       1       2       1       1       2       1       1       2       1
       1       2       1       1       2       1       1       2       1       1
       2       1       1       2       1       1       2       1       1       2
       1       1       2       1       1       2       1       1       2       1
       1       2       1       1       2       1       1       2       1       1
       2       1       1       2       1       1       2       1       1       2
       1       1       2       1       1       2       1       1       2       1
       1       2       1       1       2       1       1       2       1       1
       2       1       1       2       1       1       2       1       1       2
       1       1       2       1       1       2       1       1       2       1
       1       2       1       1       2       1       1       2       1       1
       2       1       1       2       1       1       2       1       1       2
       1       1       2       1       1       2       1       1       2       1
       1       2       1       1       2       1       1       2       1       1
       2       1       1       2       1       1       2       1       1       2
       1       1       2       1       1       2       1       1       2       1
       1       2       1       1       2       1       1       2       1       1
       2       1       1       2       1       1       2       1       1       2
       1       1       2       1       1       2       1       1       2       1
       1       2       1       1       2       1       1       2       1       1
       2       1       1       2       1       1       2       1       1       2
       1       1       2       1       1       2       1       1       2       1
       1       2       1       1       2       1       1       2       1       1
       2       1       1       2       1       1       2       1       1       2
       1       1       2       1       1       2       1       1       2       1
       1       2       1       1       2       1       1       2       1       1
       2       1       1       2       1       1       2       1       1       2
       1       1       2       1       1       2       1       1       2       1
       1       2       1       1       2       1       1       2       1       1
       2       1       1       2       1       1       2       1       1       2
       1       1       2       1       1       2       1       1       2       1
       1       2       1       1       2       1       1       2       1       1
       2       1       1       2       1       1       2       1       1       2
       1       1       2       1       1       2       1       1       2       1
       1       2       1       1       2       1       1       2       1       1
       2       1       1       2       1       1       2       1       1       2
       1       1       2       1       1       2       1       1       2       1
       1       2       1       1       2       1       1       2       1       1
       2       1       1       2       1       1       2       1       1       2
       1       1       2       1       1       2       1       1       2       1
       1       2       1       1       2       1       1       2       1       1
       2       1       1       2       1       1       2       1       1       2
       1       1       2       1       1       2       1       1       2       1
       1       2       1       1       2       1       1       2       1       1
       2       1       1       2       1       1       2       1       1       2
       1       1       2       1       1       2       1       1       2       1
       1       2       1       1       2       1       1       2       1       1
       2       1       1       2       1       1       2       1       1       2
       1       1       2       1       1       2       1       1       2       1
       1       2       1       1       2       1       1       2       1       1
       2       1       1       2       1       1       2       1       1       2
       1       1       2       1       1       2       1       1       2       1
       1       2       1       1       2       1       1       2       1       1
       2       1       1       2       1       1       2       1       1       2
       1       1       2       1       1       2       1       1       2       1
       1       2       1       1       2       1       1       2       1       1
       2       1       1       2       1       1       2       1       1       2
       1       1       2       1       1       2       1       1       2       1
       1       2       1       1       2       1       1       2       1       1
       2       1       1       2       1       1       2       1       1       2
       1       1       2       1       1       2       1       1       2       1
       1       2       1       1       2       1       1       2       1       1
       2       1       1       2       1       1       2       1       1       2
       1       1       2       1       1       2       1       1       2       1
       1       2       1       1       2       1       1       2       1       1
       2       1       1       2       1       1       2       1       1       2
       1       1       2       1       1       2       1       1       2       1
       1       2       1       1       2       1       1       2       1       1
       2       1       1       2       1       1       2       1       1       2
       1       1       2       1       1       2       1       1       2       1
       1       2       1       1       2       1       1       2       1       1
       2       1       1       2       1       1       2       1       1       2
       1       1       2       1       1       2       1       1       2       1
       1       2       1       1       2       1       1       2       1       1
       2       1       1       2       1       1       2       1       1       2
       1       1       2       1       1       2       1       1       2       1
       1       2       1       1       2       1       1       2       1       1
       2       1       1       2       1       1       2       1       1       2
       1       1       2       1       1       2       1       1       2       1
       1       2       1       1       2       1       1       2       1       1
       2       1       1       2       1       1       2       1       1       2
       1       1       2       1       1       2       1       1       2       1
       1       2       1       1       2       1       1       2       1       1
       2       1       1       2       1       1       2       1       1       2
       1       1       2       1       1       2       1       1       2       1
       1       2       1       1       2       1       1       2       1       1
       2       1       1       2       1       1       2       1       1       2
       1       1       2       1       1       2       1       1       2       1
       1       2       1       1       2       1       1       2       1       1
       2       1       1       2       1       1       2       1       1       2
       1       1       2       1       1       2       1       1       2       1
       1       2       1       1       2       1       1       2       1       1
       2       1       1       2       1       1       2       1       1       2
       1       1       2       1       1       2       1       1       2       1
       1       2       1       1       2       1       1       2       1       1
       2       1       1       2       1       1       2       1       1       2
       1       1       2       1       1       2       1       1       2       1
       1       2       1       1       2       1       1       2       1       1
       2       1       1       2       1       1       2       1       1       2
       1       1       2       1       1       2       1       1       2       1
       1       2       1       1       2       1       1       2       1       1
       2       1       1       2       1       1       2       1       1       2
       1       1       2       1       1       2       1       1       2       1
       1       2       1       1       2       1       1       2       1       1
       2       1       1       2       1       1       2       1       1       2
       1       1       2       1       1       2       1       1       2       1
       1       2       1       1       2       1       1       2       1       1
       2       1       1       2       1       1       2       1       1       2
       1       1       2       1       1       2       1       1       2       1
       1       2       1       1       2       1       1       2       1       1
       2       1       1       2       1       1       2       1       1       2
       1       1       2       1       1       2       1       1       2       1
       1       2       1       1       2       1       1       2       1       1
       2       1       1       2       1       1       2       1       1       2
       1       1       2       1       1       2       1       1       2       1
       1       2       1       1       2       1       1       2       1       1
       2       1       1       2       1       1       2       1       1       2
       1       1       2       1       1       2       1       1       2       1
       1       2       1       1       2       1       1       2       1       1
       2       1       1       2       1       1       2       1       1       2
       1       1       2       1       1       2       1       1       2       1
       1       2       1       1       2       1       1       2       1       1
       2       1       1       2       1       1       2       1       1       2
       1       1       2       1       1       2       1       1       2       1
       1       2       1       1       2       1       1       2       1       1
       2       1       1       2       1       1       2       1       1       2
       1       1       2       1       1       2       1       1       2       1
       1       2       1       1       2       1       1       2       1       1
       2       1       1       2       1       1       2       1       1       2
       1       1       2       1       1       2       1       1       2       1
       1       2       1       1       2       1       1       2       1       1
       2       1       1       2       1       1       2       1       1       2
       1       1       2       1       1       2       1       1       2       1
       1       2       1       1       2       1       1       2       1       1
       2       1       1       2       1       1       2       1       1       2
       1       1       2       1       1       2       1       1       2       1
       1       2       1       1
%FLAG NONBONDED_PARM_INDEX                                                      
%FORMAT(10I8)                                                                   
       1       2       4       7      11      16      22      29      37       2
       3       5       8      12      17      23      30      38       4       5
       6       9      13      18      24      31      39       7       8       9
      10      14      19      25      32      40      11      12      13      14
      15      20      26      33      41      16      17      18      19      20
      21      27      34      42      22      23      24      25      26      27
      28      35      43      29      30      31      32      33      34      35
      36      44      37      38      39      40      41      42      43      44
      45
%FLAG RESIDUE_LABEL                                                             
%FORMAT(20a4)                                                                   
NOT ZN  Na+ WAT WAT WAT WAT WAT WAT WAT WAT WAT WAT WAT WAT WAT WAT WAT WAT WAT 
WAT WAT WAT WAT WAT WAT WAT WAT WAT WAT WAT WAT WAT WAT WAT WAT WAT WAT WAT WAT 
WAT WAT WAT WAT WAT WAT WAT WAT WAT WAT WAT WAT WAT WAT WAT WAT WAT WAT WAT WAT 
WAT WAT WAT WAT WAT WAT WAT WAT WAT WAT WAT WAT WAT WAT WAT WAT WAT WAT WAT WAT 
WAT WAT WAT WAT WAT WAT WAT WAT WAT WAT WAT WAT WAT WAT WAT WAT WAT WAT WAT WAT 
WAT WAT WAT WAT WAT WAT WAT WAT WAT WAT WAT WAT WAT WAT WAT WAT WAT WAT WAT WAT 
WAT WAT WAT WAT WAT WAT WAT WAT WAT WAT WAT WAT WAT WAT WAT WAT WAT WAT WAT WAT 
WAT WAT WAT WAT WAT WAT WAT WAT WAT WAT WAT WAT WAT WAT WAT WAT WAT WAT WAT WAT 
WAT WAT WAT WAT WAT WAT WAT WAT WAT WAT WAT WAT WAT WAT WAT WAT WAT WAT WAT WAT 
WAT WAT WAT WAT WAT WAT WAT WAT WAT WAT WAT WAT WAT WAT WAT WAT WAT WAT WAT WAT 
WAT WAT WAT WAT WAT WAT WAT WAT WAT WAT WAT WAT WAT WAT WAT WAT WAT WAT WAT WAT 
WAT WAT WAT WAT WAT WAT WAT WAT WAT WAT WAT WAT WAT WAT WAT WAT WAT WAT WAT WAT 
WAT WAT WAT WAT WAT WAT WAT WAT WAT WAT WAT WAT WAT WAT WAT WAT WAT WAT WAT WAT 
WAT WAT WAT WAT WAT WAT WAT WAT WAT WAT WAT WAT WAT WAT WAT WAT WAT WAT WAT WAT 
WAT WAT WAT WAT WAT WAT WAT WAT WAT WAT WAT WAT WAT WAT WAT WAT WAT WAT WAT WAT 
WAT WAT WAT WAT WAT WAT WAT WAT WAT WAT WAT WAT WAT WAT WAT WAT WAT WAT WAT WAT 
WAT WAT WAT WAT WAT WAT WAT WAT WAT WAT WAT WAT WAT WAT WAT WAT WAT WAT WAT WAT 
WAT WAT WAT WAT WAT WAT WAT WAT WAT WAT WAT WAT WAT WAT WAT WAT WAT WAT WAT WAT 
WAT WAT WAT WAT WAT WAT WAT WAT WAT WAT WAT WAT WAT WAT WAT WAT WAT WAT WAT WAT 
WAT WAT WAT WAT WAT WAT WAT WAT WAT WAT WAT WAT WAT WAT WAT WAT WAT WAT WAT WAT 
WAT WAT WAT WAT WAT WAT WAT WAT WAT WAT WAT WAT WAT WAT WAT WAT WAT WAT WAT WAT 
WAT WAT WAT WAT WAT WAT WAT WAT WAT WAT WAT WAT WAT WAT WAT WAT WAT WAT WAT WAT 
WAT WAT WAT WAT WAT WAT WAT WAT WAT WAT WAT WAT WAT WAT WAT WAT WAT WAT WAT WAT 
WAT WAT WAT WAT WAT WAT WAT WAT WAT WAT WAT WAT WAT WAT WAT WAT WAT WAT WAT WAT 
WAT WAT WAT WAT WAT WAT WAT WAT WAT WAT WAT WAT WAT WAT WAT WAT WAT WAT WAT WAT 
WAT WAT WAT WAT WAT WAT WAT WAT WAT WAT WAT WAT WAT WAT WAT WAT WAT WAT WAT WAT 
WAT WAT WAT WAT WAT WAT WAT WAT WAT WAT WAT WAT WAT WAT WAT WAT WAT WAT WAT WAT 
WAT WAT WAT WAT WAT WAT WAT WAT WAT WAT WAT WAT WAT WAT WAT WAT WAT WAT WAT WAT 
WAT WAT WAT WAT WAT WAT WAT WAT WAT WAT WAT WAT WAT WAT WAT WAT WAT WAT WAT WAT 
WAT WAT WAT WAT WAT WAT WAT WAT WAT WAT WAT WAT WAT WAT WAT WAT WAT WAT WAT WAT 
WAT WAT WAT WAT WAT WAT WAT WAT WAT WAT WAT WAT WAT WAT WAT WAT WAT WAT WAT WAT 
WAT WAT WAT WAT WAT WAT WAT WAT WAT WAT WAT WAT WAT WAT WAT WAT WAT WAT WAT WAT 
WAT WAT WAT WAT WAT WAT WAT WAT WAT WAT WAT WAT WAT WAT WAT WAT WAT WAT WAT WAT 
WAT WAT WAT WAT WAT WAT WAT WAT WAT WAT WAT WAT WAT WAT WAT WAT WAT WAT WAT WAT 
WAT WAT WAT WAT WAT WAT WAT WAT WAT WAT WAT WAT WAT WAT WAT WAT WAT WAT WAT WAT 
WAT WAT WAT WAT WAT WAT WAT WAT WAT WAT WAT WAT WAT WAT WAT WAT WAT WAT WAT WAT 
WAT WAT WAT WAT WAT WAT WAT WAT WAT WAT WAT WAT WAT WAT WAT WAT WAT WAT WAT WAT 
WAT WAT WAT WAT WAT WAT WAT WAT WAT WAT WAT WAT WAT WAT WAT WAT WAT WAT WAT WAT 
WAT WAT WAT WAT WAT WAT WAT WAT WAT WAT WAT WAT WAT WAT WAT WAT WAT WAT WAT WAT 
WAT WAT WAT WAT WAT WAT WAT WAT WAT WAT WAT WAT WAT WAT WAT WAT WAT WAT WAT WAT 
WAT WAT WAT WAT WAT WAT WAT WAT WAT WAT WAT WAT WAT WAT WAT WAT WAT WAT WAT WAT 
WAT WAT WAT WAT WAT WAT WAT WAT WAT WAT WAT WAT WAT WAT WAT WAT WAT WAT WAT WAT 
WAT WAT WAT WAT WAT WAT WAT WAT WAT WAT WAT WAT WAT WAT WAT WAT WAT WAT WAT WAT 
WAT WAT WAT WAT WAT WAT WAT WAT WAT WAT WAT WAT WAT WAT WAT WAT WAT WAT WAT WAT 
WAT WAT WAT WAT WAT WAT WAT WAT WAT WAT WAT WAT WAT WAT WAT WAT WAT WAT WAT WAT 
WAT WAT WAT WAT WAT WAT WAT WAT WAT WAT WAT WAT WAT WAT WAT WAT WAT WAT WAT WAT 
WAT WAT WAT WAT WAT WAT WAT WAT WAT WAT WAT WAT WAT WAT WAT WAT WAT WAT WAT WAT 
WAT WAT WAT WAT WAT WAT WAT WAT WAT WAT WAT WAT WAT WAT WAT WAT WAT WAT WAT WAT 
WAT WAT WAT WAT WAT WAT WAT WAT WAT WAT WAT WAT WAT WAT WAT WAT WAT WAT WAT WAT 
WAT WAT WAT WAT WAT WAT WAT WAT WAT WAT WAT WAT WAT WAT WAT WAT WAT WAT WAT WAT 
WAT WAT WAT WAT WAT WAT WAT WAT WAT WAT WAT WAT WAT WAT WAT WAT WAT WAT WAT WAT 
WAT WAT WAT WAT WAT WAT WAT WAT WAT WAT WAT WAT WAT WAT WAT WAT WAT WAT WAT WAT 
WAT WAT WAT WAT WAT WAT WAT WAT WAT WAT WAT WAT WAT WAT WAT WAT WAT WAT WAT WAT 
WAT WAT WAT WAT WAT WAT WAT WAT WAT WAT WAT WAT WAT WAT WAT WAT WAT WAT WAT WAT 
WAT WAT WAT WAT WAT WAT WAT WAT WAT WAT WAT WAT WAT WAT WAT WAT WAT WAT WAT WAT 
WAT WAT WAT WAT WAT WAT WAT WAT WAT WAT WAT WAT WAT WAT WAT WAT WAT WAT WAT WAT 
WAT WAT WAT WAT WAT WAT WAT WAT WAT WAT WAT WAT WAT WAT WAT WAT WAT WAT WAT WAT 
WAT WAT WAT WAT WAT WAT WAT WAT WAT WAT WAT WAT WAT WAT WAT WAT WAT WAT WAT WAT 
WAT WAT WAT WAT WAT WAT WAT WAT WAT WAT WAT WAT WAT WAT WAT WAT WAT WAT WAT WAT 
WAT WAT WAT WAT WAT WAT WAT WAT WAT WAT WAT WAT WAT WAT WAT WAT WAT WAT WAT WAT 
WAT WAT WAT WAT WAT WAT WAT WAT WAT WAT WAT WAT WAT WAT WAT WAT WAT WAT WAT WAT 
WAT WAT WAT WAT WAT WAT WAT WAT WAT WAT WAT WAT WAT WAT WAT WAT WAT WAT WAT WAT 
WAT WAT WAT WAT WAT WAT WAT WAT WAT WAT WAT WAT WAT WAT WAT WAT WAT WAT WAT WAT 
WAT WAT WAT WAT WAT WAT WAT WAT WAT WAT WAT WAT WAT WAT WAT WAT WAT WAT WAT WAT 
WAT WAT WAT WAT WAT WAT WAT WAT WAT WAT WAT WAT WAT WAT WAT WAT WAT WAT WAT WAT 
WAT WAT WAT WAT WAT WAT WAT WAT WAT WAT WAT WAT WAT WAT WAT WAT WAT WAT WAT WAT 
WAT WAT WAT WAT WAT WAT WAT WAT WAT WAT WAT WAT WAT WAT WAT WAT WAT WAT WAT WAT 
WAT WAT WAT WAT WAT WAT WAT WAT WAT WAT WAT WAT WAT WAT WAT WAT WAT WAT WAT WAT 
WAT WAT WAT WAT WAT WAT WAT WAT WAT WAT WAT WAT WAT WAT WAT WAT WAT WAT WAT WAT 
WAT WAT WAT WAT WAT WAT WAT WAT WAT WAT WAT WAT WAT WAT WAT WAT WAT WAT WAT WAT 
WAT WAT WAT WAT WAT WAT WAT WAT WAT WAT WAT WAT WAT WAT WAT WAT WAT WAT WAT WAT 
WAT WAT WAT WAT WAT WAT WAT WAT WAT WAT WAT WAT WAT WAT WAT WAT WAT WAT WAT WAT 
WAT WAT WAT WAT WAT WAT WAT WAT WAT WAT WAT WAT WAT WAT WAT WAT WAT WAT WAT WAT 
WAT WAT WAT WAT WAT WAT WAT WAT WAT WAT WAT WAT WAT WAT WAT WAT WAT WAT WAT WAT 
WAT WAT WAT WAT WAT WAT WAT WAT WAT WAT WAT WAT WAT WAT WAT WAT WAT WAT WAT WAT 
WAT WAT WAT WAT WAT WAT WAT WAT WAT WAT WAT WAT WAT WAT WAT WAT WAT WAT WAT WAT 
WAT WAT WAT WAT WAT WAT WAT WAT WAT WAT WAT WAT WAT WAT WAT WAT WAT WAT WAT WAT 
WAT WAT WAT WAT WAT WAT WAT WAT WAT WAT WAT WAT WAT WAT WAT WAT WAT WAT WAT WAT 
WAT WAT WAT WAT WAT WAT WAT WAT WAT WAT WAT WAT WAT WAT WAT WAT WAT WAT WAT WAT 
WAT WAT WAT WAT WAT WAT WAT WAT WAT WAT WAT WAT WAT WAT WAT WAT WAT WAT WAT WAT 
WAT WAT WAT WAT WAT WAT WAT WAT WAT WAT WAT WAT WAT WAT WAT WAT WAT WAT WAT WAT 
WAT WAT WAT WAT WAT WAT WAT WAT WAT WAT WAT WAT WAT WAT WAT WAT WAT WAT WAT WAT 
WAT WAT WAT WAT WAT WAT WAT WAT WAT WAT WAT WAT WAT WAT WAT WAT WAT WAT WAT WAT 
WAT WAT WAT WAT WAT WAT WAT WAT WAT WAT WAT WAT WAT WAT WAT WAT WAT WAT WAT WAT 
WAT WAT WAT WAT WAT WAT WAT WAT WAT WAT WAT WAT WAT WAT WAT WAT WAT WAT WAT WAT 
WAT WAT WAT WAT WAT WAT WAT WAT WAT WAT WAT WAT WAT WAT WAT WAT WAT WAT WAT WAT 
WAT WAT WAT WAT WAT WAT WAT WAT WAT WAT WAT WAT WAT WAT WAT WAT WAT WAT WAT WAT 
WAT WAT WAT WAT WAT WAT WAT WAT WAT WAT WAT WAT WAT WAT WAT WAT WAT WAT WAT WAT 
WAT WAT WAT WAT WAT WAT WAT WAT WAT WAT WAT WAT WAT WAT WAT WAT WAT WAT WAT WAT 
WAT WAT WAT WAT WAT WAT WAT WAT WAT WAT WAT WAT WAT WAT WAT WAT WAT WAT WAT WAT 
WAT WAT WAT WAT WAT WAT WAT WAT WAT WAT WAT WAT WAT WAT WAT WAT WAT WAT WAT WAT 
WAT WAT WAT WAT WAT WAT WAT WAT WAT WAT WAT WAT WAT WAT WAT WAT WAT WAT WAT WAT 
WAT WAT WAT WAT WAT WAT WAT WAT WAT WAT WAT WAT WAT WAT WAT WAT WAT WAT WAT WAT 
WAT WAT WAT WAT WAT WAT WAT WAT WAT WAT WAT WAT WAT WAT WAT WAT WAT WAT WAT WAT 
WAT WAT WAT WAT WAT WAT WAT WAT WAT WAT WAT WAT WAT WAT WAT WAT WAT WAT WAT WAT 
WAT WAT WAT WAT WAT WAT WAT WAT WAT WAT WAT WAT WAT WAT WAT WAT WAT WAT WAT WAT 
WAT WAT WAT WAT WAT WAT WAT WAT WAT WAT WAT WAT WAT WAT WAT WAT WAT WAT WAT WAT 
WAT WAT WAT WAT WAT WAT WAT WAT WAT WAT WAT WAT WAT WAT WAT WAT WAT WAT WAT WAT 
WAT WAT WAT WAT WAT WAT WAT WAT WAT WAT WAT WAT WAT WAT WAT WAT WAT WAT WAT WAT 
WAT WAT WAT WAT WAT WAT WAT WAT WAT WAT WAT WAT WAT WAT WAT WAT WAT WAT WAT WAT 
WAT WAT WAT WAT WAT WAT WAT WAT WAT WAT WAT WAT WAT WAT WAT WAT WAT WAT WAT WAT 
WAT WAT WAT WAT WAT WAT WAT WAT WAT WAT WAT WAT WAT WAT WAT WAT WAT WAT WAT WAT 
WAT WAT WAT WAT WAT WAT WAT WAT WAT WAT WAT WAT WAT WAT WAT WAT WAT WAT WAT WAT 
WAT WAT WAT WAT WAT WAT WAT WAT WAT WAT WAT WAT WAT WAT WAT WAT WAT WAT WAT WAT 
WAT WAT WAT WAT WAT WAT WAT WAT WAT WAT WAT WAT WAT WAT WAT WAT WAT WAT WAT WAT 
WAT WAT WAT WAT WAT WAT WAT WAT WAT WAT WAT WAT WAT WAT WAT WAT WAT WAT WAT WAT 
WAT WAT WAT WAT WAT WAT WAT WAT WAT WAT WAT WAT WAT WAT WAT WAT WAT WAT WAT WAT 
WAT WAT WAT WAT WAT WAT WAT WAT WAT WAT WAT WAT WAT WAT WAT WAT WAT WAT WAT WAT 
WAT WAT WAT WAT WAT WAT WAT WAT WAT WAT WAT WAT WAT WAT WAT WAT WAT WAT WAT WAT 
WAT WAT WAT WAT WAT WAT WAT WAT WAT WAT WAT WAT WAT WAT WAT WAT WAT WAT WAT WAT 
WAT WAT WAT WAT WAT WAT WAT WAT WAT WAT WAT WAT WAT WAT WAT WAT WAT WAT WAT WAT 
WAT WAT WAT WAT WAT WAT WAT WAT WAT WAT WAT WAT WAT WAT WAT WAT WAT WAT WAT WAT 
WAT WAT WAT WAT WAT WAT WAT WAT WAT WAT WAT WAT WAT WAT WAT WAT WAT WAT WAT WAT 
WAT WAT WAT WAT WAT WAT WAT WAT WAT WAT WAT WAT WAT WAT WAT WAT WAT WAT WAT WAT 
WAT WAT WAT WAT WAT WAT WAT WAT WAT WAT WAT WAT WAT WAT WAT WAT WAT WAT WAT WAT 
WAT WAT WAT WAT WAT WAT WAT WAT WAT WAT WAT WAT WAT WAT WAT WAT WAT WAT WAT WAT 
WAT WAT WAT WAT WAT WAT WAT WAT WAT WAT WAT WAT WAT WAT WAT WAT WAT WAT WAT WAT 
WAT WAT WAT WAT WAT WAT WAT WAT WAT WAT WAT WAT WAT WAT WAT WAT WAT WAT WAT WAT 
WAT WAT WAT WAT WAT WAT WAT WAT WAT WAT WAT WAT WAT WAT WAT WAT WAT WAT WAT WAT 
WAT WAT WAT WAT WAT WAT WAT WAT WAT WAT WAT WAT WAT WAT WAT WAT WAT WAT WAT WAT 
WAT WAT WAT WAT WAT WAT WAT WAT WAT WAT WAT WAT WAT WAT WAT WAT WAT WAT WAT WAT 
WAT WAT WAT WAT WAT WAT WAT WAT WAT WAT WAT WAT WAT WAT WAT WAT WAT WAT WAT WAT 
WAT WAT WAT WAT WAT WAT WAT WAT WAT WAT WAT WAT WAT WAT WAT WAT WAT WAT WAT WAT 
WAT WAT WAT WAT WAT WAT WAT WAT WAT WAT WAT WAT WAT WAT WAT WAT WAT WAT WAT WAT 
WAT WAT WAT WAT WAT WAT WAT WAT WAT WAT WAT WAT WAT WAT WAT WAT WAT WAT WAT WAT 
WAT WAT WAT WAT WAT WAT WAT WAT WAT WAT WAT WAT WAT WAT WAT WAT WAT WAT WAT WAT 
WAT WAT WAT WAT WAT WAT WAT WAT WAT WAT WAT WAT WAT WAT WAT WAT WAT WAT WAT WAT 
WAT WAT WAT WAT WAT WAT WAT WAT WAT WAT WAT WAT WAT WAT WAT WAT WAT WAT WAT WAT 
WAT WAT WAT WAT WAT WAT WAT WAT WAT WAT WAT WAT WAT WAT WAT WAT WAT WAT WAT WAT 
WAT WAT WAT WAT WAT WAT WAT WAT WAT WAT WAT WAT WAT WAT WAT WAT WAT WAT WAT WAT 
WAT WAT WAT WAT WAT WAT WAT WAT WAT WAT WAT WAT WAT WAT WAT WAT WAT WAT WAT WAT 
WAT WAT WAT WAT WAT WAT WAT WAT WAT WAT WAT WAT WAT WAT WAT WAT WAT WAT WAT WAT 
WAT WAT WAT WAT WAT WAT WAT WAT WAT WAT WAT WAT WAT WAT WAT WAT WAT WAT WAT WAT 
WAT WAT WAT WAT WAT WAT WAT WAT WAT WAT WAT WAT WAT WAT WAT WAT WAT WAT WAT WAT 
WAT WAT WAT WAT WAT WAT WAT WAT WAT WAT WAT WAT WAT WAT WAT WAT WAT WAT WAT WAT 
WAT WAT WAT WAT WAT WAT WAT WAT WAT WAT WAT WAT WAT WAT WAT WAT WAT WAT WAT WAT 
WAT WAT WAT WAT WAT WAT WAT WAT WAT WAT WAT WAT WAT WAT WAT WAT WAT WAT WAT WAT 
WAT WAT WAT WAT WAT WAT WAT WAT WAT WAT WAT WAT WAT WAT WAT WAT WAT WAT WAT WAT 
WAT WAT WAT WAT WAT WAT WAT WAT WAT WAT WAT WAT WAT WAT WAT WAT WAT WAT WAT WAT 
WAT WAT WAT WAT WAT WAT WAT WAT WAT WAT WAT WAT WAT WAT WAT WAT WAT WAT WAT WAT 
WAT WAT WAT WAT WAT WAT WAT WAT WAT WAT WAT WAT WAT WAT WAT WAT WAT WAT WAT WAT 
WAT WAT WAT WAT WAT WAT WAT WAT WAT WAT WAT WAT WAT WAT WAT WAT WAT WAT WAT WAT 
WAT WAT WAT WAT WAT WAT WAT WAT WAT WAT WAT WAT WAT WAT WAT WAT WAT WAT WAT WAT 
WAT WAT WAT WAT WAT WAT WAT WAT WAT WAT WAT WAT WAT WAT WAT WAT WAT WAT WAT WAT 
WAT WAT WAT WAT WAT WAT WAT WAT WAT WAT WAT WAT WAT WAT WAT WAT WAT WAT WAT WAT 
WAT WAT WAT WAT WAT WAT WAT WAT WAT WAT WAT WAT WAT WAT WAT WAT WAT WAT WAT WAT 
WAT WAT WAT WAT WAT WAT WAT WAT WAT WAT WAT WAT WAT WAT WAT WAT WAT WAT WAT WAT 
WAT WAT WAT WAT WAT WAT WAT WAT WAT WAT WAT WAT WAT WAT WAT WAT WAT WAT WAT WAT 
WAT WAT WAT WAT WAT WAT WAT WAT WAT WAT WAT WAT WAT WAT WAT WAT WAT WAT WAT WAT 
WAT WAT WAT WAT WAT WAT WAT WAT WAT WAT WAT WAT WAT WAT WAT WAT WAT WAT WAT WAT 
WAT WAT WAT WAT WAT WAT WAT WAT WAT WAT WAT WAT WAT WAT WAT WAT WAT WAT WAT WAT 
WAT WAT WAT WAT WAT WAT WAT WAT WAT WAT WAT WAT WAT WAT WAT WAT WAT WAT WAT WAT 
WAT WAT WAT WAT WAT WAT WAT WAT WAT WAT WAT WAT WAT WAT WAT WAT WAT WAT WAT WAT 
WAT WAT WAT WAT WAT WAT WAT WAT WAT WAT WAT WAT WAT WAT WAT WAT WAT WAT WAT WAT 
WAT WAT WAT WAT WAT WAT WAT WAT WAT WAT WAT WAT WAT WAT WAT WAT WAT WAT WAT WAT 
WAT WAT WAT WAT WAT WAT WAT WAT WAT WAT WAT WAT WAT WAT WAT WAT WAT WAT WAT WAT 
WAT WAT WAT WAT WAT WAT WAT WAT WAT WAT WAT WAT WAT WAT WAT WAT WAT WAT WAT WAT 
WAT WAT WAT WAT WAT WAT WAT WAT WAT WAT WAT WAT WAT WAT WAT WAT WAT WAT WAT WAT 
WAT WAT WAT WAT WAT WAT WAT WAT WAT WAT WAT WAT WAT WAT WAT WAT WAT WAT WAT WAT 
WAT WAT WAT WAT WAT WAT WAT WAT WAT WAT WAT WAT WAT WAT WAT WAT WAT WAT WAT WAT 
WAT WAT WAT WAT WAT WAT WAT WAT WAT WAT WAT WAT WAT WAT WAT WAT WAT WAT WAT WAT 
WAT WAT WAT WAT WAT WAT WAT WAT WAT WAT WAT WAT WAT WAT WAT WAT WAT WAT WAT WAT 
WAT WAT WAT WAT WAT WAT WAT WAT WAT WAT WAT WAT WAT WAT WAT WAT WAT WAT WAT WAT 
WAT WAT WAT WAT WAT WAT WAT WAT WAT WAT WAT WAT WAT WAT WAT WAT WAT WAT WAT WAT 
WAT WAT WAT WAT WAT WAT WAT WAT WAT WAT WAT WAT WAT WAT WAT WAT WAT WAT WAT WAT 
WAT WAT WAT WAT WAT WAT WAT WAT WAT WAT WAT WAT WAT WAT WAT WAT WAT WAT WAT WAT 
WAT WAT WAT WAT WAT WAT WAT WAT WAT WAT WAT WAT WAT WAT WAT WAT WAT WAT WAT WAT 
WAT WAT WAT WAT WAT WAT WAT WAT WAT WAT WAT WAT WAT WAT WAT WAT WAT WAT WAT WAT 
WAT WAT WAT WAT WAT WAT WAT WAT WAT WAT WAT WAT WAT WAT WAT WAT WAT WAT WAT WAT 
WAT WAT WAT WAT WAT WAT WAT WAT WAT WAT WAT WAT WAT WAT WAT WAT WAT WAT WAT WAT 
WAT WAT WAT WAT WAT WAT WAT WAT WAT WAT WAT WAT WAT WAT WAT WAT WAT WAT WAT WAT 
WAT WAT WAT WAT WAT WAT WAT WAT WAT WAT WAT WAT WAT WAT WAT WAT WAT WAT WAT WAT 
WAT WAT WAT WAT WAT WAT WAT WAT WAT WAT WAT WAT WAT WAT WAT WAT WAT WAT WAT WAT 
WAT WAT WAT WAT WAT WAT WAT WAT WAT WAT WAT WAT WAT WAT WAT WAT WAT WAT WAT WAT 
WAT WAT WAT WAT WAT WAT WAT WAT WAT WAT WAT WAT WAT WAT WAT WAT WAT WAT WAT WAT 
WAT WAT WAT WAT WAT WAT WAT WAT WAT WAT WAT WAT WAT WAT WAT WAT WAT WAT WAT WAT 
WAT WAT WAT WAT WAT WAT WAT WAT WAT WAT WAT WAT WAT WAT WAT WAT WAT WAT WAT WAT 
WAT WAT WAT WAT WAT WAT WAT WAT WAT WAT WAT WAT WAT WAT WAT WAT WAT WAT WAT WAT 
WAT WAT WAT WAT WAT WAT WAT WAT WAT WAT WAT WAT WAT WAT WAT WAT WAT WAT WAT WAT 
WAT WAT WAT WAT WAT WAT WAT WAT WAT WAT WAT WAT WAT WAT WAT WAT WAT WAT WAT WAT 
WAT WAT WAT WAT WAT WAT WAT WAT WAT WAT WAT WAT WAT WAT WAT WAT WAT WAT WAT WAT 
WAT WAT WAT WAT WAT WAT WAT WAT WAT WAT WAT WAT WAT WAT WAT WAT WAT WAT WAT WAT 
WAT WAT WAT WAT WAT WAT WAT WAT WAT WAT WAT WAT WAT WAT WAT WAT WAT WAT WAT WAT 
WAT WAT WAT WAT WAT WAT WAT WAT WAT WAT WAT WAT WAT WAT WAT WAT WAT WAT WAT WAT 
WAT WAT WAT WAT WAT WAT WAT WAT WAT WAT WAT WAT WAT WAT WAT WAT WAT WAT WAT WAT 
WAT WAT WAT WAT WAT WAT WAT WAT WAT WAT WAT WAT WAT WAT WAT WAT WAT WAT WAT WAT 
WAT WAT WAT WAT WAT WAT WAT WAT WAT WAT WAT WAT WAT WAT WAT WAT WAT WAT WAT WAT 
WAT WAT WAT WAT WAT WAT WAT WAT WAT WAT WAT WAT WAT WAT WAT WAT WAT WAT WAT WAT 
WAT WAT WAT WAT WAT WAT WAT WAT WAT WAT WAT WAT WAT WAT WAT WAT WAT WAT WAT WAT 
WAT WAT WAT WAT WAT WAT WAT WAT WAT WAT WAT WAT WAT WAT WAT WAT WAT WAT WAT WAT 
WAT WAT WAT WAT WAT WAT WAT WAT WAT WAT WAT WAT WAT WAT WAT WAT WAT WAT WAT WAT 
WAT WAT WAT WAT WAT WAT WAT WAT WAT WAT WAT WAT WAT WAT WAT WAT WAT WAT WAT WAT 
WAT WAT WAT WAT WAT WAT WAT WAT WAT WAT WAT WAT WAT WAT WAT WAT WAT WAT WAT WAT 
WAT WAT WAT WAT WAT WAT WAT WAT WAT WAT WAT WAT WAT WAT WAT WAT WAT WAT WAT WAT 
WAT WAT WAT WAT WAT WAT WAT WAT WAT WAT WAT WAT WAT WAT WAT WAT WAT WAT WAT WAT 
WAT WAT WAT WAT WAT WAT WAT WAT WAT WAT WAT WAT WAT WAT WAT WAT WAT WAT WAT WAT 
WAT WAT WAT WAT WAT WAT WAT WAT WAT WAT WAT WAT WAT WAT WAT WAT WAT WAT WAT WAT 
WAT WAT WAT WAT WAT WAT WAT WAT WAT WAT WAT WAT WAT WAT WAT WAT WAT WAT WAT WAT 
WAT WAT WAT WAT WAT WAT WAT WAT WAT WAT WAT WAT WAT WAT WAT WAT WAT WAT WAT WAT 
WAT WAT WAT WAT WAT WAT WAT WAT WAT WAT WAT WAT WAT WAT WAT WAT WAT WAT WAT WAT 
WAT WAT WAT WAT WAT WAT WAT WAT WAT WAT WAT WAT WAT WAT WAT WAT WAT WAT WAT WAT 
WAT WAT WAT WAT WAT WAT WAT WAT WAT WAT WAT WAT WAT WAT WAT WAT WAT WAT WAT WAT 
WAT WAT WAT WAT WAT WAT WAT WAT WAT WAT WAT WAT WAT WAT WAT WAT WAT WAT WAT WAT 
WAT WAT WAT WAT WAT WAT WAT WAT WAT WAT WAT WAT WAT WAT WAT WAT WAT WAT WAT WAT 
WAT WAT WAT WAT WAT WAT WAT WAT WAT WAT WAT WAT WAT WAT WAT WAT WAT WAT WAT WAT 
WAT WAT WAT WAT WAT WAT WAT WAT WAT WAT WAT WAT WAT WAT WAT WAT WAT WAT WAT WAT 
WAT WAT WAT WAT WAT WAT WAT WAT WAT WAT WAT WAT WAT WAT WAT WAT WAT WAT WAT WAT 
WAT WAT WAT WAT WAT WAT WAT WAT WAT WAT WAT WAT WAT WAT WAT WAT WAT WAT WAT WAT 
WAT WAT WAT WAT WAT WAT WAT WAT WAT WAT WAT WAT WAT WAT WAT WAT WAT WAT WAT WAT 
WAT WAT WAT WAT WAT WAT WAT WAT WAT WAT WAT WAT WAT WAT WAT WAT WAT WAT WAT WAT 
WAT WAT WAT WAT WAT WAT WAT WAT WAT WAT WAT WAT WAT WAT WAT WAT WAT WAT WAT WAT 
WAT WAT WAT WAT WAT WAT WAT WAT WAT WAT WAT WAT WAT WAT WAT WAT WAT WAT WAT WAT 
WAT WAT WAT WAT WAT WAT WAT WAT WAT WAT WAT WAT WAT WAT WAT WAT WAT WAT WAT WAT 
WAT WAT WAT WAT WAT WAT WAT WAT WAT WAT WAT WAT WAT WAT WAT WAT WAT WAT WAT WAT 
WAT WAT WAT WAT WAT WAT WAT WAT WAT WAT WAT WAT WAT WAT WAT WAT WAT WAT WAT WAT 
WAT WAT WAT WAT WAT WAT WAT WAT WAT WAT WAT WAT WAT WAT WAT WAT WAT WAT WAT WAT 
WAT WAT WAT WAT WAT WAT WAT WAT WAT WAT WAT WAT WAT WAT WAT WAT WAT WAT WAT WAT 
WAT WAT WAT WAT WAT WAT WAT WAT WAT WAT WAT WAT WAT WAT WAT WAT WAT WAT WAT WAT 
WAT WAT WAT WAT WAT WAT WAT WAT WAT WAT WAT WAT WAT WAT WAT WAT WAT WAT WAT WAT 
WAT WAT WAT WAT WAT WAT WAT WAT WAT WAT WAT WAT WAT WAT WAT WAT WAT WAT WAT WAT 
WAT WAT WAT WAT WAT WAT WAT WAT WAT WAT WAT WAT WAT WAT WAT WAT WAT WAT WAT WAT 
WAT WAT WAT WAT WAT WAT WAT WAT WAT WAT WAT WAT WAT WAT WAT WAT WAT WAT WAT WAT 
WAT WAT WAT WAT WAT WAT WAT WAT WAT WAT WAT WAT WAT WAT WAT WAT WAT WAT WAT WAT 
WAT WAT WAT WAT WAT WAT WAT WAT WAT WAT WAT WAT WAT WAT WAT WAT WAT WAT WAT WAT 
WAT WAT WAT WAT WAT WAT WAT WAT WAT WAT WAT WAT WAT WAT WAT WAT WAT WAT WAT WAT 
WAT WAT WAT WAT WAT WAT WAT WAT WAT WAT WAT WAT WAT WAT WAT WAT WAT WAT WAT WAT 
WAT WAT WAT WAT WAT WAT WAT WAT WAT WAT WAT WAT WAT WAT WAT WAT WAT WAT WAT WAT 
WAT WAT WAT WAT WAT WAT WAT WAT WAT WAT WAT WAT WAT WAT WAT WAT WAT WAT WAT WAT 
WAT WAT WAT WAT WAT WAT WAT WAT WAT WAT WAT WAT WAT WAT WAT WAT WAT WAT WAT WAT 
WAT WAT WAT WAT WAT WAT WAT WAT WAT WAT WAT WAT WAT WAT WAT WAT WAT WAT WAT WAT 
WAT WAT WAT WAT WAT WAT WAT WAT WAT WAT WAT WAT WAT WAT WAT WAT WAT WAT WAT WAT 
WAT WAT WAT WAT WAT WAT WAT WAT WAT WAT WAT WAT WAT WAT WAT WAT WAT WAT WAT WAT 
WAT WAT WAT WAT WAT WAT WAT WAT WAT WAT WAT WAT WAT WAT WAT WAT WAT WAT WAT WAT 
WAT WAT WAT WAT WAT WAT WAT WAT WAT WAT WAT WAT WAT WAT WAT WAT WAT WAT WAT WAT 
WAT WAT WAT WAT WAT WAT WAT WAT WAT WAT WAT WAT WAT WAT WAT WAT WAT WAT WAT WAT 
WAT WAT WAT WAT WAT WAT WAT WAT WAT WAT WAT WAT WAT WAT WAT WAT WAT WAT WAT WAT 
WAT WAT WAT WAT WAT WAT WAT WAT WAT WAT WAT WAT WAT WAT WAT WAT WAT WAT WAT WAT 
WAT WAT WAT WAT WAT WAT WAT WAT WAT WAT WAT WAT WAT WAT WAT WAT WAT WAT WAT WAT 
WAT WAT WAT WAT WAT WAT WAT WAT WAT WAT WAT WAT WAT WAT WAT WAT WAT WAT WAT WAT 
WAT WAT WAT WAT WAT WAT WAT WAT WAT WAT WAT WAT WAT WAT WAT WAT WAT WAT WAT WAT 
WAT WAT WAT WAT WAT WAT WAT WAT WAT WAT WAT WAT WAT WAT WAT WAT WAT WAT WAT WAT 
WAT WAT WAT WAT WAT WAT WAT WAT WAT WAT WAT WAT WAT WAT WAT WAT WAT WAT WAT WAT 
WAT WAT WAT WAT WAT WAT WAT WAT WAT WAT WAT WAT WAT WAT WAT WAT WAT WAT WAT WAT 
WAT WAT WAT WAT WAT WAT WAT WAT WAT WAT WAT WAT WAT WAT WAT WAT WAT WAT WAT WAT 
WAT WAT WAT WAT WAT WAT WAT WAT WAT WAT WAT WAT WAT WAT WAT WAT WAT WAT WAT WAT 
WAT WAT WAT WAT WAT WAT WAT WAT WAT WAT WAT WAT WAT WAT WAT WAT WAT WAT WAT WAT 
WAT WAT WAT WAT WAT WAT WAT WAT WAT WAT WAT WAT WAT WAT WAT WAT WAT WAT WAT WAT 
WAT WAT WAT WAT WAT WAT WAT WAT WAT WAT WAT WAT WAT WAT WAT WAT WAT WAT WAT WAT 
WAT WAT WAT WAT WAT WAT WAT WAT WAT WAT WAT WAT WAT WAT WAT WAT WAT WAT WAT WAT 
WAT WAT WAT WAT WAT WAT WAT WAT WAT WAT WAT WAT WAT WAT WAT WAT WAT WAT WAT WAT 
WAT WAT WAT WAT WAT WAT WAT WAT WAT WAT WAT WAT WAT WAT WAT WAT WAT WAT WAT WAT 
WAT WAT WAT WAT WAT WAT WAT WAT WAT WAT WAT WAT WAT WAT WAT WAT WAT WAT WAT WAT 
WAT WAT WAT WAT WAT WAT WAT WAT WAT WAT WAT WAT WAT WAT WAT WAT WAT WAT WAT WAT 
WAT WAT WAT WAT WAT WAT WAT WAT WAT WAT WAT WAT WAT WAT WAT WAT WAT WAT WAT WAT 
WAT WAT WAT WAT WAT WAT WAT WAT WAT WAT WAT WAT WAT WAT WAT WAT WAT WAT WAT WAT 
WAT WAT WAT WAT WAT WAT WAT WAT WAT WAT WAT WAT WAT WAT WAT WAT WAT WAT WAT WAT 
WAT WAT WAT WAT WAT WAT WAT WAT WAT WAT WAT WAT WAT WAT WAT WAT WAT WAT WAT WAT 
WAT WAT WAT WAT WAT WAT WAT WAT WAT WAT WAT WAT WAT WAT WAT WAT WAT WAT WAT WAT 
WAT WAT WAT WAT WAT WAT WAT WAT WAT WAT WAT WAT WAT WAT WAT WAT WAT WAT WAT WAT 
WAT WAT WAT WAT WAT WAT WAT WAT WAT WAT WAT WAT WAT WAT WAT WAT WAT WAT WAT WAT 
WAT WAT WAT WAT WAT WAT WAT WAT WAT WAT WAT WAT WAT WAT WAT WAT WAT WAT WAT WAT 
WAT WAT WAT WAT WAT WAT WAT WAT WAT WAT WAT WAT WAT WAT WAT WAT WAT WAT WAT WAT 
WAT WAT WAT WAT WAT WAT WAT WAT WAT WAT WAT WAT WAT WAT WAT WAT WAT WAT WAT WAT 
WAT WAT WAT WAT WAT WAT WAT WAT WAT WAT WAT WAT WAT WAT WAT WAT WAT WAT WAT WAT 
WAT WAT WAT WAT WAT WAT WAT WAT WAT WAT WAT WAT WAT WAT WAT WAT WAT WAT WAT WAT 
WAT WAT WAT WAT WAT WAT WAT WAT WAT WAT WAT WAT WAT WAT WAT WAT WAT WAT WAT WAT 
WAT WAT WAT WAT WAT WAT WAT WAT WAT WAT WAT WAT WAT WAT WAT WAT WAT WAT WAT WAT 
WAT WAT WAT WAT WAT WAT WAT WAT WAT WAT WAT WAT WAT WAT WAT WAT WAT WAT WAT WAT 
WAT WAT WAT WAT WAT WAT WAT WAT WAT WAT WAT WAT WAT WAT WAT WAT WAT WAT WAT WAT 
WAT WAT WAT WAT WAT WAT WAT WAT WAT WAT WAT WAT WAT WAT WAT WAT WAT WAT WAT WAT 
WAT WAT WAT WAT WAT WAT WAT WAT WAT WAT WAT WAT WAT WAT WAT WAT WAT WAT WAT WAT 
WAT WAT WAT WAT WAT WAT WAT WAT WAT WAT WAT WAT WAT WAT WAT WAT WAT WAT WAT WAT 
WAT WAT WAT WAT WAT WAT WAT WAT WAT WAT WAT WAT WAT WAT WAT WAT WAT WAT WAT WAT 
WAT WAT WAT WAT WAT WAT WAT WAT WAT WAT WAT WAT WAT WAT WAT WAT WAT WAT WAT WAT 
WAT WAT WAT WAT WAT WAT WAT WAT WAT WAT WAT WAT WAT WAT WAT WAT WAT WAT WAT WAT 
WAT WAT WAT WAT WAT WAT WAT WAT WAT WAT WAT WAT WAT WAT WAT WAT WAT WAT WAT WAT 
WAT WAT WAT WAT WAT WAT WAT WAT WAT WAT WAT WAT WAT WAT WAT WAT WAT WAT WAT WAT 
WAT WAT WAT WAT WAT WAT WAT WAT WAT WAT WAT WAT WAT WAT WAT WAT WAT WAT WAT WAT 
WAT WAT WAT WAT WAT WAT WAT WAT WAT WAT WAT WAT WAT WAT WAT WAT WAT WAT WAT WAT 
WAT WAT WAT WAT WAT WAT WAT WAT WAT WAT WAT WAT WAT WAT WAT WAT WAT WAT WAT WAT 
WAT WAT WAT WAT WAT WAT WAT WAT WAT WAT WAT WAT WAT WAT WAT WAT WAT WAT WAT WAT 
WAT WAT WAT WAT WAT WAT WAT WAT WAT WAT WAT WAT WAT WAT WAT WAT WAT WAT WAT WAT 
WAT WAT WAT WAT WAT WAT WAT WAT WAT WAT WAT WAT WAT WAT WAT WAT WAT WAT WAT WAT 
WAT WAT WAT WAT WAT WAT WAT WAT WAT WAT WAT WAT WAT WAT WAT WAT WAT WAT WAT WAT 
WAT WAT WAT WAT WAT WAT WAT WAT WAT WAT WAT WAT WAT WAT WAT WAT WAT WAT WAT WAT 
WAT WAT WAT WAT WAT WAT WAT WAT WAT WAT WAT WAT WAT WAT WAT WAT WAT WAT WAT WAT 
WAT WAT WAT WAT WAT WAT WAT WAT WAT WAT WAT WAT WAT WAT WAT WAT WAT WAT WAT WAT 
WAT WAT WAT WAT WAT WAT WAT WAT WAT WAT WAT WAT WAT WAT WAT WAT WAT WAT WAT WAT 
WAT WAT WAT WAT WAT WAT WAT WAT WAT WAT WAT WAT WAT WAT WAT WAT WAT WAT WAT WAT 
WAT WAT WAT WAT WAT WAT WAT WAT WAT WAT WAT WAT WAT WAT WAT WAT WAT WAT WAT WAT 
WAT WAT WAT WAT WAT WAT WAT WAT WAT WAT WAT WAT WAT WAT WAT WAT WAT WAT WAT WAT 
WAT WAT WAT WAT WAT WAT WAT WAT WAT WAT WAT WAT WAT WAT WAT WAT WAT WAT WAT WAT 
WAT WAT WAT WAT WAT WAT WAT WAT WAT WAT WAT WAT WAT WAT WAT WAT WAT WAT WAT WAT 
WAT WAT WAT WAT WAT WAT WAT WAT WAT WAT WAT WAT WAT WAT WAT WAT WAT WAT WAT WAT 
WAT WAT WAT WAT WAT WAT WAT WAT WAT WAT WAT WAT WAT WAT WAT WAT WAT WAT WAT WAT 
WAT WAT WAT WAT WAT WAT WAT WAT WAT WAT WAT WAT WAT WAT WAT WAT WAT WAT WAT WAT 
WAT WAT WAT WAT WAT WAT WAT WAT WAT WAT WAT WAT WAT WAT WAT WAT WAT WAT WAT WAT 
WAT WAT WAT WAT WAT WAT WAT WAT WAT WAT WAT WAT WAT WAT WAT WAT WAT WAT WAT WAT 
WAT WAT WAT WAT WAT WAT WAT WAT WAT WAT WAT WAT WAT WAT WAT WAT WAT WAT WAT WAT 
WAT WAT WAT WAT WAT WAT WAT WAT WAT WAT WAT WAT WAT WAT WAT WAT WAT WAT WAT WAT 
WAT WAT WAT WAT WAT WAT WAT WAT WAT WAT WAT WAT WAT WAT WAT WAT WAT WAT WAT WAT 
WAT WAT WAT WAT WAT WAT WAT WAT WAT WAT WAT WAT WAT WAT WAT WAT WAT WAT WAT WAT 
WAT WAT WAT WAT WAT WAT WAT WAT WAT WAT WAT WAT WAT WAT WAT WAT WAT WAT WAT WAT 
WAT WAT WAT WAT WAT WAT WAT WAT WAT WAT WAT WAT WAT WAT WAT WAT WAT WAT WAT WAT 
WAT WAT WAT WAT WAT WAT WAT WAT WAT WAT WAT WAT WAT WAT WAT WAT WAT WAT WAT WAT 
WAT WAT WAT WAT WAT WAT WAT WAT WAT WAT WAT WAT WAT WAT WAT WAT WAT WAT WAT WAT 
WAT WAT WAT WAT WAT WAT WAT WAT WAT WAT WAT WAT WAT WAT WAT WAT WAT WAT WAT WAT 
WAT WAT WAT WAT WAT WAT WAT WAT WAT WAT WAT WAT WAT WAT WAT WAT WAT WAT WAT WAT 
WAT WAT WAT WAT WAT WAT WAT WAT WAT WAT WAT WAT WAT WAT WAT WAT WAT WAT WAT WAT 
WAT WAT WAT WAT WAT WAT WAT WAT WAT WAT WAT WAT WAT WAT WAT WAT WAT WAT WAT WAT 
WAT WAT WAT WAT WAT WAT WAT WAT WAT WAT WAT WAT WAT WAT WAT WAT WAT WAT WAT WAT 
WAT WAT WAT WAT WAT WAT WAT WAT WAT WAT WAT WAT WAT WAT WAT WAT WAT WAT WAT WAT 
WAT WAT WAT WAT WAT WAT WAT WAT WAT WAT WAT WAT WAT WAT WAT WAT WAT WAT WAT WAT 
WAT WAT WAT WAT WAT WAT WAT WAT WAT WAT WAT WAT WAT WAT WAT WAT WAT WAT WAT WAT 
WAT WAT WAT WAT WAT WAT WAT WAT WAT WAT WAT WAT WAT WAT WAT WAT WAT WAT WAT WAT 
WAT WAT WAT WAT WAT WAT WAT WAT WAT WAT WAT WAT WAT WAT WAT WAT WAT WAT WAT WAT 
WAT WAT WAT WAT WAT WAT WAT WAT WAT WAT WAT WAT WAT WAT WAT WAT WAT WAT WAT WAT 
WAT WAT WAT WAT WAT WAT WAT WAT WAT WAT WAT WAT WAT WAT WAT WAT WAT WAT WAT WAT 
WAT WAT WAT WAT WAT WAT WAT WAT WAT WAT WAT WAT WAT WAT WAT WAT WAT WAT WAT WAT 
WAT WAT WAT WAT WAT WAT WAT WAT WAT WAT WAT WAT WAT WAT WAT WAT WAT WAT WAT WAT 
WAT WAT WAT WAT WAT WAT WAT WAT WAT WAT WAT WAT WAT WAT WAT WAT WAT WAT WAT WAT 
WAT WAT WAT WAT WAT WAT WAT WAT WAT WAT WAT WAT WAT WAT WAT WAT WAT WAT WAT WAT 
WAT WAT WAT WAT WAT WAT WAT WAT WAT WAT WAT WAT WAT WAT WAT WAT WAT WAT WAT WAT 
WAT WAT WAT WAT WAT WAT WAT WAT WAT WAT WAT WAT WAT WAT WAT WAT WAT WAT WAT WAT 
WAT WAT WAT WAT WAT WAT WAT WAT WAT WAT WAT WAT WAT WAT WAT WAT WAT WAT WAT WAT 
WAT WAT WAT WAT WAT WAT WAT WAT WAT WAT WAT WAT WAT WAT WAT WAT WAT WAT WAT WAT 
WAT WAT WAT WAT WAT WAT WAT WAT WAT WAT WAT WAT WAT WAT WAT WAT WAT WAT WAT WAT 
WAT WAT WAT WAT WAT WAT WAT WAT WAT WAT WAT WAT WAT WAT WAT WAT WAT WAT WAT WAT 
WAT WAT WAT WAT WAT WAT WAT WAT WAT WAT WAT WAT WAT WAT WAT WAT WAT WAT WAT WAT 
WAT WAT WAT WAT WAT WAT WAT WAT WAT WAT WAT WAT WAT WAT WAT WAT WAT WAT WAT WAT 
WAT WAT WAT WAT WAT WAT WAT WAT WAT WAT WAT WAT WAT WAT WAT WAT WAT WAT WAT WAT 
WAT WAT WAT WAT WAT WAT WAT WAT WAT WAT WAT WAT WAT WAT WAT WAT WAT WAT WAT WAT 
WAT WAT WAT WAT WAT WAT WAT WAT WAT WAT WAT WAT WAT WAT WAT WAT WAT WAT WAT WAT 
WAT WAT WAT WAT WAT WAT WAT WAT WAT WAT WAT WAT WAT WAT WAT WAT WAT WAT WAT WAT 
WAT WAT WAT WAT WAT WAT WAT WAT WAT WAT WAT WAT WAT WAT WAT WAT WAT WAT WAT WAT 
WAT WAT WAT WAT WAT WAT WAT WAT WAT WAT WAT WAT WAT WAT WAT WAT WAT WAT WAT WAT 
WAT WAT WAT WAT WAT WAT WAT WAT WAT WAT WAT WAT WAT WAT WAT WAT WAT WAT WAT WAT 
WAT WAT WAT WAT WAT WAT WAT WAT WAT WAT WAT WAT WAT WAT WAT WAT WAT WAT WAT WAT 
WAT WAT WAT WAT WAT WAT WAT WAT WAT WAT WAT WAT WAT WAT WAT WAT WAT WAT WAT WAT 
WAT WAT WAT WAT WAT WAT WAT WAT WAT WAT WAT WAT WAT WAT WAT WAT WAT WAT WAT WAT 
WAT WAT WAT WAT WAT WAT WAT WAT WAT WAT WAT WAT WAT WAT WAT WAT WAT WAT WAT WAT 
WAT WAT WAT WAT WAT WAT WAT WAT WAT WAT WAT WAT WAT WAT WAT WAT WAT WAT WAT WAT 
WAT WAT WAT WAT WAT WAT WAT WAT WAT WAT WAT WAT WAT WAT WAT WAT WAT WAT WAT WAT 
WAT WAT WAT WAT WAT WAT WAT WAT WAT WAT WAT WAT WAT WAT WAT WAT WAT WAT WAT WAT 
WAT WAT WAT WAT WAT WAT WAT WAT WAT WAT WAT WAT WAT WAT WAT WAT WAT WAT WAT WAT 
WAT WAT WAT WAT WAT WAT WAT WAT WAT WAT WAT WAT WAT WAT WAT WAT WAT WAT WAT WAT 
WAT WAT WAT WAT WAT WAT WAT WAT WAT WAT WAT WAT WAT WAT WAT WAT WAT WAT WAT WAT 
WAT WAT WAT WAT WAT WAT WAT WAT WAT WAT WAT WAT WAT WAT WAT WAT WAT WAT WAT WAT 
WAT WAT WAT WAT WAT WAT WAT WAT WAT WAT WAT WAT WAT WAT WAT WAT WAT WAT WAT WAT 
WAT WAT WAT WAT WAT WAT WAT WAT WAT WAT WAT WAT WAT WAT WAT WAT WAT WAT WAT WAT 
WAT WAT WAT WAT WAT WAT WAT WAT WAT WAT WAT WAT WAT WAT WAT WAT WAT WAT WAT WAT 
WAT WAT WAT WAT WAT WAT WAT WAT WAT WAT WAT WAT WAT WAT WAT WAT WAT WAT WAT WAT 
WAT WAT WAT WAT WAT WAT WAT WAT WAT WAT WAT WAT WAT WAT WAT WAT WAT WAT WAT WAT 
WAT WAT WAT WAT WAT WAT WAT WAT WAT WAT WAT WAT WAT WAT WAT WAT WAT WAT WAT WAT 
WAT WAT WAT WAT WAT WAT WAT WAT WAT WAT WAT WAT WAT WAT WAT WAT WAT WAT WAT WAT 
WAT WAT WAT WAT WAT WAT WAT WAT WAT WAT WAT WAT WAT WAT WAT WAT WAT WAT WAT WAT 
WAT WAT WAT WAT WAT WAT WAT WAT WAT WAT WAT WAT WAT WAT WAT WAT WAT WAT WAT WAT 
WAT WAT WAT WAT WAT WAT WAT WAT WAT WAT WAT WAT WAT WAT WAT WAT WAT WAT WAT WAT 
WAT WAT WAT WAT WAT WAT WAT WAT WAT WAT WAT WAT WAT WAT WAT WAT WAT WAT WAT WAT 
WAT WAT WAT WAT WAT WAT WAT WAT WAT WAT WAT WAT WAT WAT WAT WAT WAT WAT WAT WAT 
WAT WAT WAT WAT WAT WAT WAT WAT WAT WAT WAT WAT WAT WAT WAT WAT WAT WAT WAT WAT 
WAT WAT WAT WAT WAT WAT WAT WAT WAT WAT WAT WAT WAT WAT WAT WAT WAT WAT WAT WAT 
WAT WAT WAT WAT WAT WAT WAT WAT WAT WAT WAT WAT WAT WAT WAT WAT WAT WAT WAT WAT 
WAT WAT WAT WAT WAT WAT WAT WAT WAT WAT WAT WAT WAT WAT WAT WAT WAT WAT WAT WAT 
WAT WAT WAT WAT WAT WAT WAT WAT WAT WAT WAT WAT WAT WAT WAT WAT WAT WAT WAT WAT 
WAT WAT WAT WAT WAT WAT WAT WAT WAT WAT WAT WAT WAT WAT WAT WAT WAT WAT WAT WAT 
WAT WAT WAT WAT WAT WAT WAT WAT WAT WAT WAT WAT WAT WAT WAT WAT WAT WAT WAT WAT 
WAT WAT WAT WAT WAT WAT WAT WAT WAT WAT WAT WAT WAT WAT WAT WAT WAT WAT WAT WAT 
WAT WAT WAT WAT WAT WAT WAT WAT WAT WAT WAT WAT WAT WAT WAT WAT WAT WAT WAT WAT 
WAT WAT WAT WAT WAT WAT WAT WAT WAT WAT WAT WAT WAT WAT WAT WAT WAT WAT WAT WAT 
WAT WAT WAT WAT WAT WAT WAT WAT WAT WAT WAT WAT WAT WAT WAT WAT WAT WAT WAT WAT 
WAT WAT WAT WAT WAT WAT WAT WAT WAT WAT WAT WAT WAT WAT WAT WAT WAT WAT WAT WAT 
WAT WAT WAT WAT WAT WAT WAT WAT WAT WAT WAT WAT WAT WAT WAT WAT WAT WAT WAT WAT 
WAT WAT WAT WAT WAT WAT WAT WAT WAT WAT WAT WAT WAT WAT WAT WAT WAT WAT WAT WAT 
WAT WAT WAT WAT WAT WAT WAT WAT WAT WAT WAT WAT WAT WAT WAT WAT WAT WAT WAT WAT 
WAT WAT WAT WAT WAT WAT WAT WAT WAT WAT WAT WAT WAT WAT WAT WAT WAT WAT WAT WAT 
WAT WAT WAT WAT WAT WAT WAT WAT WAT WAT WAT WAT WAT WAT WAT WAT WAT WAT WAT WAT 
WAT WAT WAT WAT WAT WAT WAT WAT WAT WAT WAT WAT WAT WAT WAT WAT WAT WAT WAT WAT 
WAT WAT WAT WAT WAT WAT WAT WAT WAT WAT WAT WAT WAT WAT WAT WAT WAT WAT WAT WAT 
WAT WAT WAT WAT WAT WAT WAT WAT WAT WAT WAT WAT WAT WAT WAT WAT WAT WAT WAT WAT 
WAT WAT WAT WAT WAT WAT WAT WAT WAT WAT WAT WAT WAT WAT WAT WAT WAT WAT WAT WAT 
WAT WAT WAT WAT WAT WAT WAT WAT WAT WAT WAT WAT WAT WAT WAT WAT WAT WAT WAT WAT 
WAT WAT WAT WAT WAT WAT WAT WAT WAT WAT WAT WAT WAT WAT WAT WAT WAT WAT WAT WAT 
WAT WAT WAT WAT WAT WAT WAT WAT WAT WAT WAT WAT WAT WAT WAT WAT WAT WAT WAT WAT 
WAT WAT WAT WAT WAT WAT WAT WAT WAT WAT WAT WAT WAT WAT WAT WAT WAT WAT WAT WAT 
WAT WAT WAT WAT WAT WAT WAT WAT WAT WAT WAT WAT WAT WAT WAT WAT WAT WAT WAT WAT 
WAT WAT WAT WAT WAT WAT WAT WAT WAT WAT WAT WAT WAT WAT WAT WAT WAT WAT WAT WAT 
WAT WAT WAT WAT WAT WAT WAT WAT WAT WAT WAT WAT WAT WAT WAT WAT WAT WAT WAT WAT 
WAT WAT WAT WAT WAT WAT WAT WAT WAT WAT WAT WAT WAT WAT WAT WAT WAT WAT WAT WAT 
WAT WAT WAT WAT WAT WAT WAT WAT WAT WAT WAT WAT WAT WAT WAT WAT WAT WAT WAT WAT 
WAT WAT WAT WAT WAT WAT WAT WAT WAT WAT WAT WAT WAT WAT WAT WAT WAT WAT WAT WAT 
WAT WAT WAT WAT WAT WAT WAT WAT WAT WAT WAT WAT WAT WAT WAT WAT WAT WAT WAT WAT 
WAT WAT WAT WAT WAT WAT WAT WAT WAT WAT WAT WAT WAT WAT WAT WAT WAT WAT WAT WAT 
WAT WAT WAT WAT WAT WAT WAT WAT WAT WAT WAT WAT WAT WAT WAT WAT WAT WAT WAT WAT 
WAT WAT WAT WAT WAT WAT WAT WAT WAT WAT WAT WAT WAT WAT WAT WAT WAT WAT WAT WAT 
WAT WAT WAT WAT WAT WAT WAT WAT WAT WAT WAT WAT WAT WAT WAT WAT WAT WAT WAT WAT 
WAT WAT WAT WAT WAT WAT WAT WAT WAT WAT WAT WAT WAT WAT WAT WAT WAT WAT WAT WAT 
WAT WAT WAT WAT WAT WAT WAT WAT WAT WAT WAT WAT WAT WAT WAT WAT WAT WAT WAT WAT 
WAT WAT WAT WAT WAT WAT WAT WAT WAT WAT WAT WAT WAT WAT WAT WAT WAT WAT WAT WAT 
WAT WAT WAT WAT WAT WAT WAT WAT WAT WAT WAT WAT WAT WAT WAT WAT WAT WAT WAT WAT 
WAT WAT WAT WAT WAT WAT WAT WAT WAT WAT WAT WAT WAT WAT WAT WAT WAT WAT WAT WAT 
WAT WAT WAT WAT WAT WAT WAT WAT WAT WAT WAT WAT WAT WAT WAT WAT WAT WAT WAT WAT 
WAT WAT WAT WAT WAT WAT WAT WAT WAT WAT WAT WAT WAT WAT WAT WAT WAT WAT WAT WAT 
WAT WAT WAT WAT WAT WAT WAT WAT WAT WAT WAT WAT WAT WAT WAT WAT WAT WAT WAT WAT 
WAT WAT WAT WAT WAT WAT WAT WAT WAT WAT WAT WAT WAT WAT WAT WAT WAT WAT WAT WAT 
WAT WAT WAT WAT WAT WAT WAT WAT WAT WAT WAT WAT WAT WAT WAT WAT WAT WAT WAT WAT 
WAT WAT WAT WAT WAT WAT WAT WAT WAT WAT WAT WAT WAT WAT WAT WAT WAT WAT WAT WAT 
WAT WAT WAT WAT WAT WAT WAT WAT WAT WAT WAT WAT WAT WAT WAT WAT WAT WAT WAT WAT 
WAT WAT WAT WAT WAT WAT WAT WAT WAT WAT WAT WAT WAT WAT WAT WAT WAT WAT WAT WAT 
WAT WAT WAT WAT WAT WAT WAT WAT WAT WAT WAT WAT WAT WAT WAT WAT WAT WAT WAT WAT 
WAT WAT WAT WAT WAT WAT WAT WAT WAT WAT WAT WAT WAT WAT WAT WAT WAT WAT WAT WAT 
WAT WAT WAT WAT WAT WAT WAT WAT WAT WAT WAT WAT WAT WAT WAT WAT WAT WAT WAT WAT 
WAT WAT WAT WAT WAT WAT WAT WAT WAT WAT WAT WAT WAT WAT WAT WAT WAT WAT WAT WAT 
WAT WAT WAT WAT WAT WAT WAT WAT WAT WAT WAT WAT WAT WAT WAT WAT WAT WAT WAT WAT 
WAT WAT WAT WAT WAT WAT WAT WAT WAT WAT WAT WAT WAT WAT WAT WAT WAT WAT WAT WAT 
WAT WAT WAT WAT WAT WAT WAT WAT WAT WAT WAT WAT WAT WAT WAT WAT WAT WAT WAT WAT 
WAT WAT WAT WAT WAT WAT WAT WAT WAT WAT WAT WAT WAT WAT WAT WAT WAT WAT WAT WAT 
WAT WAT WAT WAT WAT WAT WAT WAT WAT WAT WAT WAT WAT WAT WAT WAT WAT WAT WAT WAT 
WAT WAT WAT WAT WAT WAT WAT WAT WAT WAT WAT WAT WAT WAT WAT WAT WAT WAT WAT WAT 
WAT WAT WAT WAT WAT WAT WAT WAT WAT WAT WAT WAT WAT WAT WAT WAT WAT WAT WAT WAT 
WAT WAT WAT WAT WAT WAT WAT WAT WAT WAT WAT WAT WAT WAT WAT WAT WAT WAT WAT WAT 
WAT WAT WAT WAT WAT WAT WAT WAT WAT WAT WAT WAT WAT WAT WAT WAT WAT WAT WAT WAT 
WAT WAT WAT WAT WAT WAT WAT WAT WAT WAT WAT WAT WAT WAT WAT WAT WAT WAT WAT WAT 
WAT WAT WAT WAT WAT WAT WAT WAT WAT WAT WAT WAT WAT WAT WAT WAT WAT WAT WAT WAT 
WAT WAT WAT WAT WAT WAT WAT WAT WAT WAT WAT WAT WAT WAT WAT WAT WAT WAT WAT WAT 
WAT WAT WAT WAT WAT WAT WAT WAT WAT WAT WAT WAT WAT WAT WAT WAT WAT WAT WAT WAT 
WAT WAT WAT WAT WAT WAT WAT WAT WAT WAT WAT WAT WAT WAT WAT WAT WAT WAT WAT WAT 
WAT WAT WAT WAT WAT WAT WAT WAT WAT WAT WAT WAT WAT WAT WAT WAT WAT WAT WAT WAT 
WAT WAT WAT WAT WAT WAT WAT WAT WAT WAT WAT WAT WAT WAT WAT WAT WAT WAT WAT WAT 
WAT WAT WAT WAT WAT WAT WAT WAT WAT WAT WAT WAT WAT WAT WAT WAT WAT WAT WAT WAT 
WAT WAT WAT WAT WAT WAT WAT WAT WAT WAT WAT WAT WAT WAT WAT WAT WAT WAT WAT WAT 
WAT WAT WAT WAT WAT WAT WAT WAT WAT WAT WAT WAT WAT WAT WAT WAT WAT WAT WAT WAT 
WAT WAT WAT WAT WAT WAT WAT WAT WAT WAT WAT WAT WAT WAT WAT WAT WAT WAT WAT WAT 
WAT WAT WAT WAT WAT WAT WAT WAT WAT WAT WAT WAT WAT WAT WAT WAT WAT WAT WAT WAT 
WAT WAT WAT WAT WAT WAT WAT WAT WAT WAT WAT WAT WAT WAT WAT WAT WAT WAT WAT WAT 
WAT WAT WAT WAT WAT WAT WAT WAT WAT WAT WAT WAT WAT WAT WAT WAT WAT WAT WAT WAT 
WAT WAT WAT WAT WAT WAT WAT WAT WAT WAT WAT WAT WAT WAT WAT WAT WAT WAT WAT WAT 
WAT WAT WAT WAT WAT WAT WAT WAT WAT WAT WAT WAT WAT WAT WAT WAT WAT WAT WAT WAT 
WAT WAT WAT WAT WAT WAT WAT WAT WAT WAT WAT WAT WAT WAT WAT WAT WAT WAT WAT WAT 
WAT WAT WAT WAT WAT WAT WAT WAT WAT WAT WAT WAT WAT WAT WAT WAT WAT WAT WAT WAT 
WAT WAT WAT WAT WAT WAT WAT WAT WAT WAT WAT WAT WAT WAT WAT WAT WAT WAT WAT WAT 
WAT WAT WAT WAT WAT WAT WAT WAT WAT WAT WAT WAT WAT WAT WAT WAT WAT WAT WAT WAT 
WAT WAT WAT WAT WAT WAT WAT WAT WAT WAT WAT WAT WAT WAT WAT WAT WAT WAT WAT WAT 
WAT WAT WAT WAT WAT WAT WAT WAT WAT WAT WAT WAT WAT WAT WAT WAT WAT WAT WAT WAT 
WAT WAT WAT WAT WAT WAT WAT WAT WAT WAT WAT WAT WAT WAT WAT WAT WAT WAT WAT WAT 
WAT WAT WAT WAT WAT WAT WAT WAT WAT WAT WAT WAT WAT WAT WAT WAT WAT WAT WAT WAT 
WAT WAT WAT WAT WAT WAT WAT WAT WAT WAT WAT WAT WAT WAT WAT WAT WAT WAT WAT WAT 
WAT WAT WAT WAT WAT WAT WAT WAT WAT WAT WAT WAT WAT WAT WAT WAT WAT WAT WAT WAT 
WAT WAT WAT WAT WAT WAT WAT WAT WAT WAT WAT WAT WAT WAT WAT WAT WAT WAT WAT WAT 
WAT WAT WAT WAT WAT WAT WAT WAT WAT WAT WAT WAT WAT WAT WAT WAT WAT WAT WAT WAT 
WAT WAT WAT WAT WAT WAT WAT WAT WAT WAT WAT WAT WAT WAT WAT WAT WAT WAT WAT WAT 
WAT WAT WAT WAT WAT WAT WAT WAT WAT WAT WAT WAT WAT WAT WAT WAT WAT WAT WAT WAT 
WAT WAT WAT WAT WAT WAT WAT WAT WAT WAT WAT WAT WAT WAT WAT WAT WAT WAT WAT WAT 
WAT WAT WAT WAT WAT WAT WAT WAT WAT WAT WAT WAT WAT WAT WAT WAT WAT WAT WAT WAT 
WAT WAT WAT WAT WAT WAT WAT WAT WAT WAT WAT WAT WAT WAT WAT WAT WAT WAT WAT WAT 
WAT WAT WAT WAT WAT WAT WAT WAT WAT WAT WAT WAT WAT WAT WAT WAT WAT WAT WAT WAT 
WAT WAT WAT WAT WAT WAT WAT WAT WAT WAT WAT WAT WAT WAT WAT WAT WAT WAT WAT WAT 
WAT WAT WAT WAT WAT WAT WAT WAT WAT WAT WAT WAT WAT WAT WAT WAT WAT WAT WAT WAT 
WAT WAT WAT WAT WAT WAT WAT WAT WAT WAT WAT WAT WAT WAT WAT WAT WAT WAT WAT WAT 
WAT WAT WAT WAT WAT WAT WAT WAT WAT WAT WAT WAT WAT WAT WAT WAT WAT WAT WAT WAT 
WAT WAT WAT WAT WAT WAT WAT WAT WAT WAT WAT WAT WAT WAT WAT WAT WAT WAT WAT WAT 
WAT WAT WAT WAT WAT WAT WAT WAT WAT WAT WAT WAT WAT WAT WAT WAT WAT WAT WAT WAT 
WAT WAT WAT WAT WAT WAT WAT WAT WAT WAT WAT WAT WAT WAT WAT WAT WAT WAT WAT WAT 
WAT WAT WAT WAT WAT WAT WAT WAT WAT WAT WAT WAT WAT WAT WAT WAT WAT WAT WAT WAT 
WAT WAT WAT WAT WAT WAT WAT WAT WAT WAT WAT WAT WAT WAT WAT WAT WAT WAT WAT WAT 
WAT WAT WAT WAT WAT WAT WAT WAT WAT WAT WAT WAT WAT WAT WAT WAT WAT WAT WAT WAT 
WAT WAT WAT WAT WAT WAT WAT WAT WAT WAT WAT WAT WAT WAT WAT WAT WAT WAT WAT WAT 
WAT WAT WAT WAT WAT WAT WAT WAT WAT WAT WAT WAT WAT WAT WAT WAT WAT WAT WAT WAT 
WAT WAT WAT WAT WAT WAT WAT WAT WAT WAT WAT WAT WAT WAT WAT WAT WAT WAT WAT WAT 
WAT WAT WAT WAT WAT WAT WAT WAT WAT WAT WAT WAT WAT WAT WAT WAT WAT WAT WAT WAT 
WAT WAT WAT WAT WAT WAT WAT WAT WAT WAT WAT WAT WAT WAT WAT WAT WAT WAT WAT WAT 
WAT WAT WAT WAT WAT WAT WAT WAT WAT WAT WAT WAT WAT WAT WAT WAT WAT WAT WAT WAT 
WAT WAT WAT WAT WAT WAT WAT WAT WAT WAT WAT WAT WAT WAT WAT WAT WAT WAT WAT WAT 
WAT WAT WAT WAT WAT WAT WAT WAT WAT WAT WAT WAT WAT WAT WAT WAT WAT WAT WAT WAT 
WAT WAT WAT WAT WAT WAT WAT WAT WAT WAT WAT WAT WAT WAT WAT WAT WAT WAT WAT WAT 
WAT WAT WAT WAT WAT WAT WAT WAT WAT WAT WAT WAT WAT WAT WAT WAT WAT WAT WAT WAT 
WAT WAT WAT WAT WAT WAT WAT WAT WAT WAT WAT WAT WAT WAT WAT WAT WAT WAT WAT WAT 
WAT WAT WAT WAT WAT WAT WAT WAT WAT WAT WAT WAT WAT WAT WAT WAT WAT WAT WAT WAT 
WAT WAT WAT WAT WAT WAT WAT WAT WAT WAT WAT WAT WAT WAT WAT WAT WAT WAT WAT WAT 
WAT WAT WAT WAT WAT WAT WAT WAT WAT WAT WAT WAT WAT WAT WAT WAT WAT WAT WAT WAT 
WAT WAT WAT WAT WAT WAT WAT WAT WAT WAT WAT WAT WAT WAT WAT WAT WAT WAT WAT WAT 
WAT WAT WAT WAT WAT WAT WAT WAT WAT WAT WAT WAT WAT WAT WAT WAT WAT WAT WAT WAT 
WAT WAT WAT WAT WAT WAT WAT WAT WAT WAT WAT WAT WAT WAT WAT WAT WAT WAT WAT WAT 
WAT WAT WAT WAT WAT WAT WAT WAT WAT WAT WAT WAT WAT WAT WAT WAT WAT WAT WAT WAT 
WAT WAT WAT WAT WAT WAT WAT WAT WAT WAT WAT WAT WAT WAT WAT WAT WAT WAT WAT WAT 
WAT WAT WAT WAT WAT WAT WAT WAT WAT WAT WAT WAT WAT WAT WAT WAT WAT WAT WAT WAT 
WAT WAT WAT WAT WAT WAT WAT WAT WAT WAT WAT WAT WAT WAT WAT WAT WAT WAT WAT WAT 
WAT WAT WAT WAT WAT WAT WAT WAT WAT WAT WAT WAT WAT WAT WAT WAT WAT WAT WAT WAT 
WAT WAT WAT WAT WAT WAT WAT WAT WAT WAT WAT WAT WAT WAT WAT WAT WAT WAT WAT WAT 
WAT WAT WAT WAT WAT WAT WAT WAT WAT WAT WAT WAT WAT WAT WAT WAT WAT WAT WAT WAT 
WAT WAT WAT WAT WAT WAT WAT WAT WAT WAT WAT WAT WAT WAT WAT WAT WAT WAT WAT WAT 
WAT WAT WAT WAT WAT WAT WAT WAT WAT WAT WAT WAT WAT WAT WAT WAT WAT WAT WAT WAT 
WAT WAT WAT WAT WAT WAT WAT WAT WAT WAT WAT WAT WAT WAT WAT WAT WAT WAT WAT WAT 
WAT WAT WAT WAT WAT WAT WAT WAT WAT WAT WAT WAT WAT WAT WAT WAT WAT WAT WAT WAT 
WAT WAT WAT WAT WAT WAT WAT WAT WAT WAT WAT WAT WAT WAT WAT WAT WAT WAT WAT WAT 
WAT WAT WAT WAT WAT WAT WAT WAT WAT WAT WAT WAT WAT WAT WAT WAT WAT WAT WAT WAT 
WAT WAT WAT WAT WAT WAT WAT WAT WAT WAT WAT WAT WAT WAT WAT WAT WAT WAT WAT WAT 
WAT WAT WAT WAT WAT WAT WAT WAT WAT WAT WAT WAT WAT WAT WAT WAT WAT WAT WAT WAT 
WAT WAT WAT WAT WAT WAT WAT WAT WAT WAT WAT WAT WAT WAT WAT WAT WAT WAT WAT WAT 
WAT WAT WAT WAT WAT WAT WAT WAT WAT WAT WAT WAT WAT WAT WAT WAT WAT WAT WAT WAT 
WAT WAT WAT WAT WAT WAT WAT WAT WAT WAT WAT WAT WAT WAT WAT WAT WAT WAT WAT WAT 
WAT WAT WAT WAT WAT WAT WAT WAT WAT WAT WAT WAT WAT WAT WAT WAT WAT WAT WAT WAT 
WAT WAT WAT WAT WAT WAT WAT WAT WAT WAT WAT WAT WAT WAT WAT WAT WAT WAT WAT WAT 
WAT WAT WAT WAT WAT WAT WAT WAT WAT WAT WAT WAT WAT WAT WAT WAT WAT WAT WAT WAT 
WAT WAT WAT WAT WAT WAT WAT WAT WAT WAT WAT WAT WAT WAT WAT WAT WAT WAT WAT WAT 
WAT WAT WAT WAT WAT WAT WAT WAT WAT WAT WAT WAT WAT WAT WAT WAT WAT WAT WAT WAT 
WAT WAT WAT WAT WAT WAT WAT WAT WAT WAT WAT WAT WAT WAT WAT WAT WAT WAT WAT WAT 
WAT WAT WAT WAT WAT WAT WAT WAT WAT WAT WAT WAT WAT WAT WAT WAT WAT WAT WAT WAT 
WAT WAT WAT WAT WAT WAT WAT WAT WAT WAT WAT WAT WAT WAT WAT WAT WAT WAT WAT WAT 
WAT WAT WAT WAT WAT WAT WAT WAT WAT WAT WAT WAT WAT WAT WAT WAT WAT WAT WAT WAT 
WAT WAT WAT WAT WAT WAT WAT WAT WAT WAT WAT WAT WAT WAT WAT WAT WAT WAT WAT WAT 
WAT WAT WAT WAT WAT WAT WAT WAT WAT WAT WAT WAT WAT WAT WAT WAT WAT WAT WAT WAT 
WAT WAT WAT WAT WAT WAT WAT WAT WAT WAT WAT WAT WAT WAT WAT WAT WAT WAT WAT WAT 
WAT WAT WAT WAT WAT WAT WAT WAT WAT WAT WAT WAT WAT WAT WAT WAT WAT WAT WAT WAT 
WAT WAT WAT WAT WAT WAT WAT WAT WAT WAT WAT WAT WAT WAT WAT WAT WAT WAT WAT WAT 
WAT WAT WAT WAT WAT WAT WAT WAT WAT WAT WAT WAT WAT WAT WAT WAT WAT WAT WAT WAT 
WAT WAT WAT WAT WAT WAT WAT WAT WAT WAT WAT WAT WAT WAT WAT WAT WAT WAT WAT WAT 
WAT WAT WAT WAT WAT WAT WAT WAT WAT WAT WAT WAT WAT WAT WAT WAT WAT WAT WAT WAT 
WAT WAT WAT WAT WAT WAT WAT WAT WAT WAT WAT WAT WAT WAT WAT WAT WAT WAT WAT WAT 
WAT WAT WAT WAT WAT WAT WAT WAT WAT WAT WAT WAT WAT WAT WAT WAT WAT WAT WAT WAT 
WAT WAT WAT WAT WAT WAT WAT WAT WAT WAT WAT WAT WAT WAT WAT WAT WAT WAT WAT WAT 
WAT WAT WAT WAT WAT WAT WAT WAT WAT WAT WAT WAT WAT WAT WAT WAT WAT WAT WAT WAT 
WAT WAT WAT WAT WAT WAT WAT WAT WAT WAT WAT WAT WAT WAT WAT WAT WAT WAT WAT WAT 
WAT WAT WAT WAT WAT WAT WAT WAT WAT WAT WAT WAT WAT WAT WAT WAT WAT WAT WAT WAT 
WAT WAT WAT WAT WAT WAT WAT WAT WAT WAT WAT WAT WAT WAT WAT WAT WAT WAT WAT WAT 
WAT WAT WAT WAT WAT WAT WAT WAT WAT WAT WAT WAT WAT WAT WAT WAT WAT WAT WAT WAT 
WAT WAT WAT WAT WAT WAT WAT WAT WAT WAT WAT WAT WAT WAT WAT WAT WAT WAT WAT WAT 
WAT WAT WAT WAT WAT WAT WAT WAT WAT WAT WAT WAT WAT WAT WAT WAT WAT WAT WAT WAT 
WAT WAT WAT WAT WAT WAT WAT WAT WAT WAT WAT WAT WAT WAT WAT WAT WAT WAT WAT WAT 
WAT WAT WAT WAT WAT WAT WAT WAT WAT WAT WAT WAT WAT WAT WAT WAT WAT WAT WAT WAT 
WAT WAT WAT WAT WAT WAT WAT WAT WAT WAT WAT WAT WAT WAT WAT WAT WAT WAT WAT WAT 
WAT WAT WAT WAT WAT WAT WAT WAT WAT WAT WAT WAT WAT WAT WAT WAT WAT WAT WAT WAT 
WAT WAT WAT WAT WAT WAT WAT WAT WAT WAT WAT WAT WAT WAT WAT WAT WAT WAT WAT WAT 
WAT WAT WAT WAT WAT WAT WAT WAT WAT WAT WAT WAT WAT WAT WAT WAT WAT WAT WAT WAT 
WAT WAT WAT WAT WAT WAT WAT WAT WAT WAT WAT WAT WAT WAT WAT WAT WAT WAT WAT WAT 
WAT WAT WAT WAT WAT WAT WAT WAT WAT WAT WAT WAT WAT WAT WAT WAT WAT WAT WAT WAT 
WAT WAT WAT WAT WAT WAT WAT WAT WAT WAT WAT WAT WAT WAT WAT WAT WAT WAT WAT WAT 
WAT WAT WAT WAT WAT WAT WAT WAT WAT WAT WAT WAT WAT WAT WAT WAT WAT WAT WAT WAT 
WAT WAT WAT WAT WAT WAT WAT WAT WAT WAT WAT WAT WAT WAT WAT WAT WAT WAT WAT WAT 
WAT WAT WAT WAT WAT WAT WAT WAT WAT WAT WAT WAT WAT WAT WAT WAT WAT WAT WAT WAT 
WAT WAT WAT WAT WAT WAT WAT WAT WAT WAT WAT WAT WAT WAT WAT WAT WAT WAT WAT WAT 
WAT WAT WAT WAT WAT WAT WAT WAT WAT WAT WAT WAT WAT WAT WAT WAT WAT WAT WAT WAT 
WAT WAT WAT WAT WAT WAT WAT WAT WAT WAT WAT WAT WAT WAT WAT WAT WAT WAT WAT WAT 
WAT WAT WAT WAT WAT WAT WAT WAT WAT WAT WAT WAT WAT WAT WAT WAT WAT WAT WAT WAT 
WAT WAT WAT WAT WAT WAT WAT WAT WAT WAT WAT WAT WAT WAT WAT WAT WAT WAT WAT WAT 
WAT WAT WAT WAT WAT WAT WAT WAT WAT WAT WAT WAT WAT WAT WAT WAT WAT WAT WAT WAT 
WAT WAT WAT WAT WAT WAT WAT WAT WAT WAT WAT WAT WAT WAT WAT WAT WAT WAT WAT WAT 
WAT WAT WAT WAT WAT WAT WAT WAT WAT WAT WAT WAT WAT WAT WAT WAT WAT WAT WAT WAT 
WAT WAT WAT WAT WAT WAT WAT WAT WAT WAT WAT WAT WAT WAT WAT WAT WAT WAT WAT WAT 
WAT WAT WAT WAT WAT WAT WAT WAT WAT WAT WAT WAT WAT WAT WAT WAT WAT WAT WAT WAT 
WAT WAT WAT WAT WAT WAT WAT WAT WAT WAT WAT WAT WAT WAT WAT WAT WAT WAT WAT WAT 
WAT WAT WAT WAT WAT WAT WAT WAT WAT WAT WAT WAT WAT WAT WAT WAT WAT WAT WAT WAT 
WAT WAT WAT WAT WAT WAT WAT WAT WAT WAT WAT WAT WAT WAT WAT WAT WAT WAT WAT WAT 
WAT WAT WAT WAT WAT WAT WAT WAT WAT WAT WAT WAT WAT WAT WAT WAT WAT WAT WAT WAT 
WAT WAT WAT WAT WAT WAT WAT WAT WAT WAT WAT WAT WAT WAT WAT WAT WAT WAT WAT WAT 
WAT WAT WAT WAT WAT WAT WAT WAT WAT WAT WAT WAT WAT WAT WAT WAT WAT WAT WAT WAT 
WAT WAT WAT WAT WAT WAT WAT WAT WAT WAT WAT WAT WAT WAT WAT WAT WAT WAT WAT WAT 
WAT WAT WAT WAT WAT WAT WAT WAT WAT WAT WAT WAT WAT WAT WAT WAT WAT WAT WAT WAT 
WAT WAT WAT WAT WAT WAT WAT WAT WAT WAT WAT WAT WAT WAT WAT WAT WAT WAT WAT WAT 
WAT WAT WAT WAT WAT WAT WAT WAT WAT WAT WAT WAT WAT WAT WAT WAT WAT WAT WAT WAT 
WAT WAT WAT WAT WAT WAT WAT WAT WAT WAT WAT WAT WAT WAT WAT WAT WAT WAT WAT WAT 
WAT WAT WAT WAT WAT WAT WAT WAT WAT WAT WAT WAT WAT WAT WAT WAT WAT WAT WAT WAT 
WAT WAT WAT WAT WAT WAT WAT WAT WAT WAT WAT WAT WAT WAT WAT WAT WAT WAT WAT WAT 
WAT WAT WAT WAT WAT WAT WAT WAT WAT WAT WAT WAT WAT WAT WAT WAT WAT WAT WAT WAT 
WAT WAT WAT WAT WAT WAT WAT WAT WAT WAT WAT WAT WAT WAT WAT WAT WAT WAT WAT WAT 
WAT WAT WAT WAT WAT WAT WAT WAT WAT WAT WAT WAT WAT WAT WAT WAT WAT WAT WAT WAT 
WAT WAT WAT WAT WAT WAT WAT WAT WAT WAT WAT WAT WAT WAT WAT WAT WAT WAT WAT WAT 
WAT WAT WAT WAT WAT WAT WAT WAT WAT WAT WAT WAT WAT WAT WAT WAT WAT WAT WAT WAT 
WAT WAT WAT WAT WAT WAT WAT WAT WAT WAT WAT WAT WAT WAT WAT WAT WAT WAT WAT WAT 
WAT WAT WAT WAT WAT WAT WAT WAT WAT WAT WAT WAT WAT WAT WAT WAT WAT WAT WAT WAT 
WAT WAT WAT WAT WAT WAT WAT WAT WAT WAT WAT WAT WAT WAT WAT WAT WAT WAT WAT WAT 
WAT WAT WAT WAT WAT WAT WAT WAT WAT WAT WAT WAT WAT WAT WAT WAT WAT WAT WAT WAT 
WAT WAT WAT WAT WAT WAT WAT WAT WAT WAT WAT WAT WAT WAT WAT WAT WAT WAT WAT WAT 
WAT WAT WAT WAT WAT WAT WAT WAT WAT WAT WAT WAT WAT WAT WAT WAT WAT WAT WAT WAT 
WAT WAT WAT WAT WAT WAT WAT WAT WAT WAT WAT WAT WAT WAT WAT WAT WAT WAT WAT WAT 
WAT WAT WAT WAT WAT WAT WAT WAT WAT WAT WAT WAT WAT WAT WAT WAT WAT WAT WAT WAT 
WAT WAT WAT WAT WAT WAT WAT WAT WAT WAT WAT WAT WAT WAT WAT WAT WAT WAT WAT WAT 
WAT WAT WAT WAT WAT WAT WAT WAT WAT WAT WAT WAT WAT WAT WAT WAT WAT WAT WAT WAT 
WAT WAT WAT WAT WAT WAT WAT WAT WAT WAT WAT WAT WAT WAT WAT WAT WAT WAT WAT WAT 
WAT WAT WAT WAT WAT WAT WAT WAT WAT WAT WAT WAT WAT WAT WAT WAT WAT WAT WAT WAT 
WAT WAT WAT WAT WAT WAT WAT WAT WAT WAT WAT WAT WAT WAT WAT WAT WAT WAT WAT WAT 
WAT WAT WAT WAT WAT WAT WAT WAT WAT WAT WAT WAT WAT WAT WAT WAT WAT WAT WAT WAT 
WAT WAT WAT WAT WAT WAT WAT WAT WAT WAT WAT WAT WAT WAT WAT WAT WAT WAT WAT WAT 
WAT WAT WAT WAT WAT WAT WAT WAT WAT WAT WAT WAT WAT WAT WAT WAT WAT WAT WAT WAT 
WAT WAT WAT WAT WAT WAT WAT WAT WAT WAT WAT WAT WAT WAT WAT WAT WAT WAT WAT WAT 
WAT WAT WAT WAT WAT WAT WAT WAT WAT WAT WAT WAT WAT WAT WAT WAT WAT WAT WAT WAT 
WAT WAT WAT WAT WAT WAT WAT WAT WAT WAT WAT WAT WAT WAT WAT WAT WAT WAT WAT WAT 
WAT WAT WAT WAT WAT WAT WAT WAT WAT WAT WAT WAT WAT WAT WAT WAT WAT WAT WAT WAT 
WAT WAT WAT WAT WAT WAT WAT WAT WAT WAT WAT WAT WAT WAT WAT WAT WAT WAT WAT WAT 
WAT WAT WAT WAT WAT WAT WAT WAT WAT WAT WAT WAT WAT WAT WAT WAT WAT WAT WAT WAT 
WAT WAT WAT WAT WAT WAT WAT WAT WAT WAT WAT WAT WAT WAT WAT WAT WAT WAT WAT WAT 
WAT WAT WAT WAT WAT WAT WAT WAT WAT WAT WAT WAT WAT WAT WAT WAT WAT WAT WAT WAT 
WAT WAT WAT WAT WAT WAT WAT WAT WAT WAT WAT WAT WAT WAT WAT WAT WAT WAT WAT WAT 
WAT WAT WAT WAT WAT WAT WAT WAT WAT WAT WAT WAT WAT WAT WAT WAT WAT WAT WAT WAT 
WAT WAT WAT WAT WAT WAT WAT WAT WAT WAT WAT WAT WAT WAT WAT WAT WAT WAT WAT WAT 
WAT WAT WAT WAT WAT WAT WAT WAT WAT WAT WAT WAT WAT WAT WAT WAT WAT WAT WAT WAT 
WAT WAT WAT WAT WAT WAT WAT WAT WAT WAT WAT WAT WAT WAT WAT WAT WAT WAT WAT WAT 
WAT WAT WAT WAT WAT WAT WAT WAT WAT WAT WAT WAT WAT WAT WAT WAT WAT WAT WAT WAT 
WAT WAT WAT WAT WAT WAT WAT WAT WAT WAT WAT WAT WAT WAT WAT WAT WAT WAT WAT WAT 
WAT WAT WAT WAT WAT WAT WAT WAT WAT WAT WAT WAT WAT WAT WAT WAT WAT WAT WAT WAT 
WAT WAT WAT WAT WAT WAT WAT WAT WAT WAT WAT WAT WAT WAT WAT WAT WAT WAT WAT WAT 
WAT WAT WAT WAT WAT WAT WAT WAT WAT WAT WAT WAT WAT WAT WAT WAT WAT WAT WAT WAT 
WAT WAT WAT WAT WAT WAT WAT WAT WAT WAT WAT WAT WAT WAT WAT WAT WAT WAT WAT WAT 
WAT WAT WAT WAT WAT WAT WAT WAT WAT WAT WAT WAT WAT WAT WAT WAT WAT WAT WAT WAT 
WAT WAT WAT WAT WAT WAT WAT WAT WAT WAT WAT WAT WAT WAT WAT WAT WAT WAT WAT WAT 
WAT WAT WAT WAT WAT WAT WAT WAT WAT WAT WAT WAT WAT WAT WAT WAT WAT WAT WAT WAT 
WAT WAT WAT WAT WAT WAT WAT WAT WAT WAT WAT WAT WAT WAT WAT WAT WAT WAT WAT WAT 
WAT WAT WAT WAT WAT WAT WAT WAT WAT WAT WAT WAT WAT WAT WAT WAT WAT WAT WAT WAT 
WAT WAT WAT WAT WAT WAT WAT WAT WAT WAT WAT WAT WAT WAT WAT WAT WAT WAT WAT WAT 
WAT WAT WAT WAT WAT WAT WAT WAT WAT WAT WAT WAT WAT WAT WAT WAT WAT WAT WAT WAT 
WAT WAT WAT WAT WAT WAT WAT WAT WAT WAT WAT WAT WAT WAT WAT WAT WAT WAT WAT WAT 
WAT WAT WAT WAT WAT WAT WAT WAT WAT WAT WAT WAT WAT WAT WAT WAT WAT WAT WAT WAT 
WAT WAT WAT WAT WAT WAT WAT WAT WAT WAT WAT WAT WAT WAT WAT WAT WAT WAT WAT WAT 
WAT WAT WAT WAT WAT WAT WAT WAT WAT WAT WAT WAT WAT WAT WAT WAT WAT WAT WAT WAT 
WAT WAT WAT WAT WAT WAT WAT WAT WAT WAT WAT WAT WAT WAT WAT WAT WAT WAT WAT WAT 
WAT WAT WAT WAT WAT WAT WAT WAT WAT WAT WAT WAT WAT WAT WAT WAT WAT WAT WAT WAT 
WAT WAT WAT WAT WAT WAT WAT WAT WAT WAT WAT WAT WAT WAT WAT WAT WAT WAT WAT WAT 
WAT WAT WAT WAT WAT WAT WAT WAT WAT WAT WAT WAT WAT WAT WAT WAT WAT WAT WAT WAT 
WAT WAT WAT WAT WAT WAT WAT WAT WAT WAT WAT WAT WAT WAT WAT WAT WAT WAT WAT WAT 
WAT WAT WAT WAT WAT WAT WAT WAT WAT WAT WAT WAT WAT WAT WAT WAT WAT WAT WAT WAT 
WAT WAT WAT WAT WAT WAT WAT WAT WAT WAT WAT WAT WAT WAT WAT WAT WAT WAT WAT WAT 
WAT WAT WAT WAT WAT WAT WAT WAT WAT WAT WAT WAT WAT WAT WAT WAT WAT WAT WAT WAT 
WAT WAT WAT WAT WAT WAT WAT WAT WAT WAT WAT WAT WAT WAT WAT WAT WAT WAT WAT WAT 
WAT WAT WAT WAT WAT WAT WAT WAT WAT WAT WAT WAT WAT WAT WAT WAT WAT WAT WAT WAT 
WAT WAT WAT WAT WAT WAT WAT WAT WAT WAT WAT WAT WAT WAT WAT WAT WAT WAT WAT WAT 
WAT WAT WAT WAT WAT WAT WAT WAT WAT WAT WAT WAT WAT WAT WAT WAT WAT WAT WAT WAT 
WAT WAT WAT WAT WAT WAT WAT WAT WAT WAT WAT WAT WAT WAT WAT WAT WAT WAT WAT WAT 
WAT WAT WAT WAT WAT WAT WAT WAT WAT WAT WAT WAT WAT WAT WAT WAT WAT WAT WAT WAT 
WAT WAT WAT WAT WAT WAT WAT WAT WAT WAT WAT WAT WAT WAT WAT WAT WAT WAT WAT WAT 
WAT WAT WAT WAT WAT WAT WAT WAT WAT WAT WAT WAT WAT WAT WAT WAT WAT WAT WAT WAT 
WAT WAT WAT WAT WAT WAT WAT WAT WAT WAT WAT WAT WAT WAT WAT WAT WAT WAT WAT WAT 
WAT WAT WAT WAT WAT WAT WAT WAT WAT WAT WAT WAT WAT WAT WAT WAT WAT WAT WAT WAT 
WAT WAT WAT WAT WAT WAT WAT WAT WAT WAT WAT WAT WAT WAT WAT WAT WAT WAT WAT WAT 
WAT WAT WAT WAT WAT WAT WAT WAT WAT WAT WAT WAT WAT WAT WAT WAT WAT WAT WAT WAT 
WAT WAT WAT WAT WAT WAT WAT WAT WAT WAT WAT WAT WAT WAT WAT WAT WAT WAT WAT WAT 
WAT WAT WAT WAT WAT WAT WAT WAT WAT WAT WAT WAT WAT WAT WAT WAT WAT WAT WAT WAT 
WAT WAT WAT WAT WAT WAT WAT WAT WAT WAT WAT WAT WAT WAT WAT WAT WAT WAT WAT WAT 
WAT WAT WAT WAT WAT WAT WAT WAT WAT WAT WAT WAT WAT WAT WAT WAT WAT WAT WAT WAT 
WAT WAT WAT WAT WAT WAT WAT WAT WAT WAT WAT WAT WAT WAT WAT WAT WAT WAT WAT WAT 
WAT WAT WAT WAT WAT WAT WAT WAT WAT WAT WAT WAT WAT WAT WAT WAT WAT WAT WAT WAT 
WAT WAT WAT WAT WAT WAT WAT WAT WAT WAT WAT WAT WAT WAT WAT WAT WAT WAT WAT WAT 
WAT WAT WAT WAT WAT WAT WAT WAT WAT WAT WAT WAT WAT WAT WAT WAT WAT WAT WAT WAT 
WAT WAT WAT WAT WAT WAT WAT WAT WAT WAT WAT WAT WAT WAT WAT WAT WAT WAT WAT WAT 
WAT WAT WAT WAT WAT WAT WAT WAT WAT WAT WAT WAT WAT WAT WAT WAT WAT WAT WAT WAT 
WAT WAT WAT WAT WAT WAT WAT WAT WAT WAT WAT WAT WAT WAT WAT WAT WAT WAT WAT WAT 
WAT WAT WAT WAT WAT WAT WAT WAT WAT WAT WAT WAT WAT WAT WAT WAT WAT WAT WAT WAT 
WAT WAT WAT WAT WAT WAT WAT WAT WAT WAT WAT WAT WAT WAT WAT WAT WAT WAT WAT WAT 
WAT WAT WAT WAT WAT WAT WAT WAT WAT WAT WAT WAT WAT WAT WAT WAT WAT WAT WAT WAT 
WAT WAT WAT WAT WAT WAT WAT WAT WAT WAT WAT WAT WAT WAT WAT WAT WAT WAT WAT WAT 
WAT WAT WAT WAT WAT WAT WAT WAT WAT WAT WAT WAT WAT WAT WAT WAT WAT WAT WAT WAT 
WAT WAT WAT WAT WAT WAT WAT WAT WAT WAT WAT WAT WAT WAT WAT WAT WAT WAT WAT WAT 
WAT WAT WAT WAT WAT WAT WAT WAT WAT WAT WAT WAT WAT WAT WAT WAT WAT WAT WAT WAT 
WAT WAT WAT WAT WAT WAT WAT WAT WAT WAT WAT WAT WAT WAT WAT WAT WAT WAT WAT WAT 
WAT WAT WAT WAT WAT WAT WAT WAT WAT WAT WAT WAT WAT WAT WAT WAT WAT WAT WAT WAT 
WAT WAT WAT WAT WAT WAT WAT WAT WAT WAT WAT WAT WAT WAT WAT WAT WAT WAT WAT WAT 
WAT WAT WAT WAT WAT WAT WAT WAT WAT WAT WAT WAT WAT WAT WAT WAT WAT WAT WAT WAT 
WAT WAT WAT WAT WAT WAT WAT WAT WAT WAT WAT WAT WAT WAT WAT WAT WAT WAT WAT WAT 
WAT WAT WAT WAT WAT WAT WAT WAT WAT WAT WAT WAT WAT WAT WAT WAT WAT WAT WAT WAT 
WAT WAT WAT WAT WAT WAT WAT WAT WAT WAT WAT WAT WAT WAT WAT WAT WAT WAT WAT WAT 
WAT WAT WAT WAT WAT WAT WAT WAT WAT WAT WAT WAT WAT WAT WAT WAT WAT WAT WAT WAT 
WAT WAT WAT WAT WAT WAT WAT WAT WAT WAT WAT WAT WAT WAT WAT WAT WAT WAT WAT WAT 
WAT WAT WAT WAT WAT WAT WAT WAT WAT WAT WAT WAT WAT WAT WAT WAT WAT WAT WAT WAT 
WAT WAT WAT WAT WAT WAT WAT WAT WAT WAT WAT WAT WAT WAT WAT WAT WAT WAT WAT WAT 
WAT WAT WAT WAT WAT WAT WAT WAT WAT WAT WAT WAT WAT WAT WAT WAT WAT WAT WAT WAT 
WAT WAT WAT WAT WAT WAT WAT WAT WAT WAT WAT WAT WAT WAT WAT WAT WAT WAT WAT WAT 
WAT WAT WAT WAT WAT WAT WAT WAT WAT WAT WAT WAT WAT WAT WAT WAT WAT WAT WAT WAT 
WAT WAT WAT WAT WAT WAT WAT WAT WAT WAT WAT WAT WAT WAT WAT WAT WAT WAT WAT WAT 
WAT WAT WAT WAT WAT WAT WAT WAT WAT WAT WAT WAT WAT WAT WAT WAT WAT WAT WAT WAT 
WAT WAT WAT WAT WAT WAT WAT WAT WAT WAT WAT WAT WAT WAT WAT WAT WAT WAT WAT WAT 
WAT WAT WAT WAT WAT WAT WAT WAT WAT WAT WAT WAT WAT WAT WAT WAT WAT WAT WAT WAT 
WAT WAT WAT WAT WAT WAT WAT WAT WAT WAT WAT WAT WAT WAT WAT WAT WAT WAT WAT WAT 
WAT WAT WAT WAT WAT WAT WAT WAT WAT WAT WAT WAT WAT WAT WAT WAT WAT WAT WAT WAT 
WAT WAT WAT WAT WAT WAT WAT WAT WAT WAT WAT WAT WAT WAT WAT WAT WAT WAT WAT WAT 
WAT WAT WAT WAT WAT WAT WAT WAT WAT WAT WAT WAT WAT WAT WAT WAT WAT WAT WAT WAT 
WAT WAT WAT WAT WAT WAT WAT WAT WAT WAT WAT WAT WAT WAT WAT WAT WAT WAT WAT WAT 
WAT WAT WAT WAT WAT WAT WAT WAT WAT WAT WAT WAT WAT WAT WAT WAT WAT WAT WAT WAT 
WAT WAT WAT WAT WAT WAT WAT WAT WAT WAT WAT WAT WAT WAT WAT WAT WAT WAT WAT WAT 
WAT WAT WAT WAT WAT WAT WAT WAT WAT WAT WAT WAT WAT WAT WAT WAT WAT WAT WAT WAT 
WAT WAT WAT WAT WAT WAT WAT WAT WAT WAT WAT WAT WAT WAT WAT WAT WAT WAT WAT WAT 
WAT WAT WAT WAT WAT WAT WAT WAT WAT WAT WAT WAT WAT WAT WAT WAT WAT WAT WAT WAT 
WAT WAT WAT WAT WAT WAT WAT WAT WAT WAT WAT WAT WAT WAT WAT WAT WAT WAT WAT WAT 
WAT WAT WAT WAT WAT WAT WAT WAT WAT WAT WAT WAT WAT WAT WAT WAT WAT WAT WAT WAT 
WAT WAT WAT WAT WAT WAT WAT WAT WAT WAT WAT WAT WAT WAT WAT WAT WAT WAT WAT WAT 
WAT WAT WAT WAT WAT WAT WAT WAT WAT WAT WAT WAT WAT WAT WAT WAT WAT WAT WAT WAT 
WAT WAT WAT WAT WAT WAT WAT WAT WAT WAT WAT WAT WAT WAT WAT WAT WAT WAT WAT WAT 
WAT WAT WAT WAT WAT WAT WAT WAT WAT WAT WAT WAT WAT WAT WAT WAT WAT WAT WAT WAT 
WAT WAT WAT WAT WAT WAT WAT WAT WAT WAT WAT WAT WAT WAT WAT WAT WAT WAT WAT WAT 
WAT WAT WAT WAT WAT WAT WAT WAT WAT WAT WAT WAT WAT WAT WAT WAT WAT WAT WAT WAT 
WAT WAT WAT WAT WAT WAT WAT WAT WAT WAT WAT WAT WAT WAT WAT WAT WAT WAT WAT WAT 
WAT WAT WAT WAT WAT WAT WAT WAT WAT WAT WAT WAT WAT WAT WAT WAT WAT WAT WAT WAT 
WAT WAT WAT WAT WAT WAT WAT WAT WAT WAT WAT WAT WAT WAT WAT WAT WAT WAT WAT WAT 
WAT WAT WAT WAT WAT WAT WAT WAT WAT WAT WAT WAT WAT WAT WAT WAT WAT WAT WAT WAT 
WAT WAT WAT WAT WAT WAT WAT WAT WAT WAT WAT WAT WAT WAT WAT WAT WAT WAT WAT WAT 
WAT WAT WAT WAT WAT WAT WAT WAT WAT WAT WAT WAT WAT WAT WAT WAT WAT WAT WAT WAT 
WAT WAT WAT WAT WAT WAT WAT WAT WAT WAT WAT WAT WAT WAT WAT WAT WAT WAT WAT WAT 
WAT WAT WAT WAT WAT WAT WAT WAT WAT WAT WAT WAT WAT WAT WAT WAT WAT WAT WAT WAT 
WAT WAT WAT WAT WAT WAT WAT WAT WAT WAT WAT WAT WAT WAT WAT WAT WAT WAT WAT WAT 
WAT WAT WAT WAT WAT WAT WAT WAT WAT WAT WAT WAT WAT WAT WAT WAT WAT WAT WAT WAT 
WAT WAT WAT WAT WAT WAT WAT WAT WAT WAT WAT WAT WAT WAT WAT WAT WAT WAT WAT WAT 
WAT WAT WAT WAT WAT WAT WAT WAT WAT WAT WAT WAT WAT WAT WAT WAT WAT WAT WAT WAT 
WAT WAT WAT WAT WAT WAT WAT WAT WAT WAT WAT WAT WAT WAT WAT WAT WAT WAT WAT WAT 
WAT WAT WAT WAT WAT WAT WAT WAT WAT WAT WAT WAT WAT WAT WAT WAT WAT WAT WAT WAT 
WAT WAT WAT WAT WAT WAT WAT WAT WAT WAT WAT WAT WAT WAT WAT WAT WAT WAT WAT WAT 
WAT WAT WAT WAT WAT WAT WAT WAT WAT WAT WAT WAT WAT WAT WAT WAT WAT WAT WAT WAT 
WAT WAT WAT WAT WAT WAT WAT WAT WAT WAT WAT WAT WAT WAT WAT WAT WAT WAT WAT WAT 
WAT WAT WAT WAT WAT WAT WAT WAT WAT WAT WAT WAT WAT WAT WAT WAT WAT WAT WAT WAT 
WAT WAT WAT WAT WAT WAT WAT WAT WAT WAT WAT WAT WAT WAT WAT WAT WAT WAT WAT WAT 
WAT WAT WAT WAT WAT WAT WAT WAT WAT WAT WAT WAT WAT WAT WAT WAT WAT WAT WAT WAT 
WAT WAT WAT WAT WAT WAT WAT WAT WAT WAT WAT WAT WAT WAT WAT WAT WAT WAT WAT WAT 
WAT WAT WAT WAT WAT WAT WAT WAT WAT WAT WAT WAT WAT WAT WAT WAT WAT WAT WAT WAT 
WAT WAT WAT WAT WAT WAT WAT WAT WAT WAT WAT WAT WAT WAT WAT WAT WAT WAT WAT WAT 
WAT WAT WAT WAT WAT WAT WAT WAT WAT WAT WAT WAT WAT WAT WAT WAT WAT WAT WAT WAT 
WAT WAT WAT WAT WAT WAT WAT WAT WAT WAT WAT WAT WAT WAT WAT WAT WAT WAT WAT WAT 
WAT WAT WAT WAT WAT WAT WAT WAT WAT WAT WAT WAT WAT WAT WAT WAT WAT WAT WAT WAT 
WAT WAT WAT WAT WAT WAT WAT WAT WAT WAT WAT WAT WAT WAT WAT WAT WAT WAT WAT WAT 
WAT WAT WAT WAT WAT WAT WAT WAT WAT WAT WAT WAT WAT WAT WAT WAT WAT WAT WAT WAT 
WAT WAT WAT WAT WAT WAT WAT WAT WAT WAT WAT WAT WAT WAT WAT WAT WAT WAT WAT WAT 
WAT WAT WAT WAT WAT WAT WAT WAT WAT WAT WAT WAT WAT WAT WAT WAT WAT WAT WAT WAT 
WAT WAT WAT WAT WAT WAT WAT WAT WAT WAT WAT WAT WAT WAT WAT WAT WAT WAT WAT WAT 
WAT WAT WAT WAT WAT WAT WAT WAT WAT WAT WAT WAT WAT WAT WAT WAT WAT WAT WAT WAT 
WAT WAT WAT WAT WAT WAT WAT WAT WAT WAT WAT WAT WAT WAT WAT WAT WAT WAT WAT WAT 
WAT WAT WAT WAT WAT WAT WAT WAT WAT WAT WAT WAT WAT WAT WAT WAT WAT WAT WAT WAT 
WAT WAT WAT WAT WAT WAT WAT WAT WAT WAT WAT WAT WAT WAT WAT WAT WAT WAT WAT WAT 
WAT WAT WAT WAT WAT WAT WAT WAT WAT WAT WAT WAT WAT WAT WAT WAT WAT WAT WAT WAT 
WAT WAT WAT WAT WAT WAT WAT WAT WAT WAT WAT WAT WAT WAT WAT WAT WAT WAT WAT WAT 
WAT WAT WAT WAT WAT WAT WAT WAT WAT WAT WAT WAT WAT WAT WAT WAT WAT WAT WAT WAT 
WAT WAT WAT WAT WAT WAT WAT WAT WAT WAT WAT WAT WAT WAT WAT WAT WAT WAT WAT WAT 
WAT WAT WAT WAT WAT WAT WAT WAT WAT WAT WAT WAT WAT WAT WAT WAT WAT WAT WAT WAT 
WAT WAT WAT WAT WAT WAT WAT WAT WAT WAT WAT WAT WAT WAT WAT WAT WAT WAT WAT WAT 
WAT WAT WAT WAT WAT WAT WAT WAT WAT WAT WAT WAT WAT WAT WAT WAT WAT WAT WAT WAT 
WAT WAT WAT WAT WAT WAT WAT WAT WAT WAT WAT WAT WAT WAT WAT WAT WAT WAT WAT WAT 
WAT WAT WAT WAT WAT WAT WAT WAT WAT WAT WAT WAT WAT WAT WAT WAT WAT WAT WAT WAT 
WAT WAT WAT WAT WAT WAT WAT WAT WAT WAT WAT WAT WAT WAT WAT WAT WAT WAT WAT WAT 
WAT WAT WAT WAT WAT WAT WAT WAT WAT WAT WAT WAT WAT WAT WAT WAT WAT WAT WAT WAT 
WAT WAT WAT WAT WAT WAT WAT WAT WAT WAT WAT WAT WAT WAT WAT WAT WAT WAT WAT WAT 
WAT WAT WAT WAT WAT WAT WAT WAT WAT WAT WAT WAT WAT WAT WAT WAT WAT WAT WAT WAT 
WAT WAT WAT WAT WAT WAT WAT WAT WAT WAT WAT WAT WAT WAT WAT WAT WAT WAT WAT WAT 
WAT WAT WAT WAT WAT WAT WAT WAT WAT WAT WAT WAT WAT WAT WAT WAT WAT WAT WAT WAT 
WAT WAT WAT WAT WAT WAT WAT WAT WAT WAT WAT WAT WAT WAT WAT WAT WAT WAT WAT WAT 
WAT WAT WAT WAT WAT WAT WAT WAT WAT WAT WAT WAT WAT WAT WAT WAT WAT WAT WAT WAT 
WAT WAT WAT WAT WAT WAT WAT WAT WAT WAT WAT WAT WAT WAT WAT WAT WAT WAT WAT WAT 
WAT WAT WAT WAT WAT WAT WAT WAT WAT WAT WAT WAT WAT WAT WAT WAT WAT WAT WAT WAT 
WAT WAT WAT WAT WAT WAT WAT WAT WAT WAT WAT WAT WAT WAT WAT WAT WAT WAT WAT WAT 
WAT WAT WAT WAT WAT WAT WAT WAT WAT WAT WAT WAT WAT WAT WAT WAT WAT WAT WAT WAT 
WAT WAT WAT WAT WAT WAT WAT WAT WAT WAT WAT WAT WAT WAT WAT WAT WAT WAT WAT WAT 
WAT WAT WAT WAT WAT WAT WAT WAT WAT WAT WAT WAT WAT WAT WAT WAT WAT WAT WAT WAT 
WAT WAT WAT WAT WAT WAT WAT WAT WAT WAT WAT WAT WAT WAT WAT WAT WAT WAT WAT WAT 
WAT WAT WAT WAT WAT WAT WAT WAT WAT WAT WAT WAT WAT WAT WAT WAT WAT WAT WAT WAT 
WAT WAT WAT WAT WAT WAT WAT WAT WAT WAT WAT WAT WAT WAT WAT WAT WAT WAT WAT WAT 
WAT WAT WAT WAT WAT WAT WAT WAT WAT WAT WAT WAT WAT WAT WAT WAT WAT WAT WAT WAT 
WAT WAT WAT WAT WAT WAT WAT WAT WAT WAT WAT WAT WAT WAT WAT WAT WAT WAT WAT WAT 
WAT WAT WAT WAT WAT WAT WAT WAT WAT WAT WAT WAT WAT WAT WAT WAT WAT WAT WAT WAT 
WAT WAT WAT WAT WAT WAT WAT WAT WAT WAT WAT WAT WAT WAT WAT WAT WAT WAT WAT WAT 
WAT WAT WAT WAT WAT WAT WAT WAT WAT WAT WAT WAT WAT WAT WAT WAT WAT WAT WAT WAT 
WAT WAT WAT WAT WAT WAT WAT WAT WAT WAT WAT WAT WAT WAT WAT WAT WAT WAT WAT WAT 
WAT WAT WAT WAT WAT WAT WAT WAT WAT WAT WAT WAT WAT WAT WAT WAT WAT WAT WAT WAT 
WAT WAT WAT WAT WAT WAT WAT WAT WAT WAT WAT WAT WAT WAT WAT WAT WAT WAT WAT WAT 
WAT WAT WAT WAT WAT WAT WAT WAT WAT WAT WAT WAT WAT WAT WAT WAT WAT WAT WAT WAT 
WAT WAT WAT WAT WAT WAT WAT WAT WAT WAT WAT WAT WAT WAT WAT WAT WAT WAT WAT WAT 
WAT WAT WAT WAT WAT WAT WAT WAT WAT WAT WAT WAT WAT WAT WAT WAT WAT WAT WAT WAT 
WAT WAT WAT WAT WAT WAT WAT WAT WAT WAT WAT WAT WAT WAT WAT WAT WAT WAT WAT WAT 
WAT WAT WAT WAT WAT WAT WAT WAT WAT WAT WAT WAT WAT WAT WAT WAT WAT WAT WAT WAT 
WAT WAT WAT WAT WAT WAT WAT WAT WAT WAT WAT WAT WAT WAT WAT WAT WAT WAT WAT WAT 
WAT WAT WAT WAT WAT WAT WAT WAT WAT WAT WAT WAT WAT WAT WAT WAT WAT WAT WAT WAT 
WAT WAT WAT WAT WAT WAT WAT WAT WAT WAT WAT WAT WAT WAT WAT WAT WAT WAT WAT WAT 
WAT WAT WAT WAT WAT WAT WAT WAT WAT WAT WAT WAT WAT WAT WAT WAT WAT WAT WAT WAT 
WAT WAT WAT WAT WAT WAT WAT WAT WAT WAT WAT WAT WAT WAT WAT WAT WAT WAT WAT WAT 
WAT WAT WAT WAT WAT WAT WAT WAT WAT WAT WAT WAT WAT WAT WAT WAT WAT WAT WAT WAT 
WAT WAT WAT WAT WAT WAT WAT WAT WAT WAT WAT WAT WAT WAT WAT WAT WAT WAT WAT WAT 
WAT WAT WAT WAT WAT WAT WAT WAT WAT WAT WAT WAT WAT WAT WAT WAT WAT WAT WAT WAT 
WAT WAT WAT WAT WAT WAT WAT WAT WAT WAT WAT WAT WAT WAT WAT WAT WAT WAT WAT WAT 
WAT WAT WAT WAT WAT WAT WAT WAT WAT WAT WAT WAT WAT WAT WAT WAT WAT WAT WAT WAT 
WAT WAT WAT WAT WAT WAT WAT WAT WAT WAT WAT WAT WAT WAT WAT WAT WAT WAT WAT WAT 
WAT WAT WAT WAT WAT WAT WAT WAT WAT WAT WAT WAT WAT WAT WAT WAT WAT WAT WAT WAT 
WAT WAT WAT WAT WAT WAT WAT WAT WAT WAT WAT WAT WAT WAT WAT WAT WAT WAT WAT WAT 
WAT WAT WAT WAT WAT WAT WAT WAT WAT WAT WAT WAT WAT WAT WAT WAT WAT WAT WAT WAT 
WAT WAT WAT WAT WAT WAT WAT WAT WAT WAT WAT WAT WAT WAT WAT WAT WAT WAT WAT WAT 
WAT WAT WAT WAT WAT WAT WAT WAT WAT WAT WAT WAT WAT WAT WAT WAT WAT WAT WAT WAT 
WAT WAT WAT WAT WAT WAT WAT WAT WAT WAT WAT WAT WAT WAT WAT WAT WAT WAT WAT WAT 
WAT WAT WAT WAT WAT WAT WAT WAT WAT WAT WAT WAT WAT WAT WAT WAT WAT WAT WAT WAT 
WAT WAT WAT WAT WAT WAT WAT WAT WAT WAT WAT WAT WAT WAT WAT WAT WAT WAT WAT WAT 
WAT WAT WAT WAT WAT WAT WAT WAT WAT WAT WAT WAT WAT WAT WAT WAT WAT WAT WAT WAT 
WAT WAT WAT WAT WAT WAT WAT WAT WAT WAT WAT WAT WAT WAT WAT WAT WAT WAT WAT WAT 
WAT WAT WAT WAT WAT WAT WAT WAT WAT WAT WAT WAT WAT WAT WAT WAT WAT WAT WAT WAT 
WAT WAT WAT WAT WAT WAT WAT WAT WAT WAT WAT WAT WAT WAT WAT WAT WAT WAT WAT WAT 
WAT WAT WAT WAT WAT WAT WAT WAT WAT WAT WAT WAT WAT WAT WAT WAT WAT WAT WAT WAT 
WAT WAT WAT WAT WAT WAT WAT WAT WAT WAT WAT WAT WAT WAT WAT WAT WAT WAT WAT WAT 
WAT WAT WAT WAT WAT WAT WAT WAT WAT WAT WAT WAT WAT WAT WAT WAT WAT WAT WAT WAT 
WAT WAT WAT WAT WAT WAT WAT WAT WAT WAT WAT WAT WAT WAT WAT WAT WAT WAT WAT WAT 
WAT WAT WAT WAT WAT WAT WAT WAT WAT WAT WAT WAT WAT WAT WAT WAT WAT WAT WAT WAT 
WAT WAT WAT WAT WAT WAT WAT WAT WAT WAT WAT WAT WAT WAT WAT WAT WAT WAT WAT WAT 
WAT WAT WAT WAT WAT WAT WAT WAT WAT WAT WAT WAT WAT WAT WAT WAT WAT WAT WAT WAT 
WAT WAT WAT WAT WAT WAT WAT WAT WAT WAT WAT WAT WAT WAT WAT WAT WAT WAT WAT WAT 
WAT WAT WAT WAT WAT WAT WAT WAT WAT WAT WAT WAT WAT WAT WAT WAT WAT WAT WAT WAT 
WAT WAT WAT WAT WAT WAT WAT WAT WAT WAT WAT WAT WAT WAT WAT WAT WAT WAT WAT WAT 
WAT WAT WAT WAT WAT WAT WAT WAT WAT WAT WAT WAT WAT WAT WAT WAT WAT WAT WAT WAT 
WAT WAT WAT WAT WAT WAT WAT WAT WAT WAT WAT WAT WAT WAT WAT WAT WAT WAT WAT WAT 
WAT WAT WAT WAT WAT WAT WAT WAT WAT WAT WAT WAT WAT WAT WAT WAT WAT WAT WAT WAT 
WAT WAT WAT WAT WAT WAT WAT WAT WAT WAT WAT WAT WAT WAT WAT WAT WAT WAT WAT WAT 
WAT WAT WAT WAT WAT WAT WAT WAT WAT WAT WAT WAT WAT WAT WAT WAT WAT WAT WAT WAT 
WAT WAT WAT WAT WAT WAT WAT WAT WAT WAT WAT WAT WAT WAT WAT WAT WAT WAT WAT WAT 
WAT WAT WAT WAT WAT WAT WAT WAT WAT WAT WAT WAT WAT WAT WAT WAT WAT WAT WAT WAT 
WAT WAT WAT WAT WAT WAT WAT WAT WAT WAT WAT WAT WAT WAT WAT WAT WAT WAT WAT WAT 
WAT WAT WAT WAT WAT WAT WAT WAT WAT WAT WAT WAT WAT WAT WAT WAT WAT WAT WAT WAT 
WAT WAT WAT WAT WAT WAT WAT WAT WAT WAT WAT WAT WAT WAT WAT WAT WAT WAT WAT WAT 
WAT WAT WAT WAT WAT WAT WAT WAT WAT WAT WAT WAT WAT WAT WAT WAT WAT WAT WAT WAT 
WAT WAT WAT WAT WAT WAT WAT WAT WAT WAT WAT WAT WAT WAT WAT WAT WAT WAT WAT WAT 
WAT WAT WAT WAT WAT WAT WAT WAT WAT WAT WAT WAT WAT WAT WAT WAT WAT WAT WAT WAT 
WAT WAT WAT WAT WAT WAT WAT WAT WAT WAT WAT WAT WAT WAT WAT WAT WAT WAT WAT WAT 
WAT WAT WAT WAT WAT WAT WAT WAT WAT WAT WAT WAT WAT WAT WAT WAT WAT WAT WAT WAT 
WAT WAT WAT WAT WAT WAT WAT WAT WAT WAT WAT WAT WAT WAT WAT WAT WAT WAT WAT WAT 
WAT WAT WAT WAT WAT WAT WAT WAT WAT WAT WAT WAT WAT WAT WAT WAT WAT WAT WAT WAT 
WAT WAT WAT WAT WAT WAT WAT WAT WAT WAT WAT WAT WAT WAT WAT WAT WAT WAT WAT WAT 
WAT WAT WAT WAT WAT WAT WAT WAT WAT WAT WAT WAT WAT WAT WAT WAT WAT WAT WAT WAT 
WAT WAT WAT WAT WAT WAT WAT WAT WAT WAT WAT WAT WAT WAT WAT WAT WAT WAT WAT WAT 
WAT WAT WAT WAT WAT WAT WAT WAT WAT WAT WAT WAT WAT WAT WAT WAT WAT WAT WAT WAT 
WAT WAT WAT WAT WAT WAT WAT WAT WAT WAT WAT WAT WAT WAT WAT WAT WAT WAT WAT WAT 
WAT WAT WAT WAT WAT WAT WAT WAT WAT WAT WAT WAT WAT WAT WAT WAT WAT WAT WAT WAT 
WAT WAT WAT WAT WAT WAT WAT WAT WAT WAT WAT WAT WAT WAT WAT WAT WAT WAT WAT WAT 
WAT WAT WAT WAT WAT WAT WAT WAT WAT WAT WAT WAT WAT WAT WAT WAT WAT WAT WAT WAT 
WAT WAT WAT WAT WAT WAT WAT WAT WAT WAT WAT WAT WAT WAT WAT WAT WAT WAT WAT WAT 
WAT WAT WAT WAT WAT WAT WAT WAT WAT WAT WAT WAT WAT WAT WAT WAT WAT WAT WAT WAT 
WAT WAT WAT WAT WAT WAT WAT WAT WAT WAT WAT WAT WAT WAT WAT WAT WAT WAT WAT WAT 
WAT WAT WAT WAT WAT WAT WAT WAT WAT WAT WAT WAT WAT WAT WAT WAT WAT WAT WAT WAT 
WAT WAT WAT WAT WAT WAT WAT WAT WAT WAT WAT WAT WAT WAT WAT WAT WAT WAT WAT WAT 
WAT WAT WAT WAT WAT WAT WAT WAT WAT WAT WAT WAT WAT WAT WAT WAT WAT WAT WAT WAT 
WAT WAT WAT WAT WAT WAT WAT WAT WAT WAT WAT WAT WAT WAT WAT WAT WAT WAT WAT WAT 
WAT WAT WAT WAT WAT WAT WAT WAT WAT WAT WAT WAT WAT WAT WAT WAT WAT WAT WAT WAT 
WAT WAT WAT WAT WAT WAT WAT WAT WAT WAT WAT WAT WAT WAT WAT WAT WAT WAT WAT WAT 
WAT WAT WAT WAT WAT WAT WAT WAT WAT WAT WAT WAT WAT WAT WAT WAT WAT WAT WAT WAT 
WAT WAT WAT WAT WAT WAT WAT WAT WAT WAT WAT WAT WAT WAT WAT WAT WAT WAT WAT WAT 
WAT WAT WAT WAT WAT WAT WAT WAT WAT WAT WAT WAT WAT WAT WAT WAT WAT WAT WAT WAT 
WAT WAT WAT WAT WAT WAT WAT WAT WAT WAT WAT WAT WAT WAT WAT WAT WAT WAT WAT WAT 
WAT WAT WAT WAT WAT WAT WAT WAT WAT WAT WAT WAT WAT WAT WAT WAT WAT WAT WAT WAT 
WAT WAT WAT WAT WAT WAT WAT WAT WAT WAT WAT WAT WAT WAT WAT WAT WAT WAT WAT WAT 
WAT WAT WAT WAT WAT WAT WAT WAT WAT WAT WAT WAT WAT WAT WAT WAT WAT WAT WAT WAT 
WAT WAT WAT WAT WAT WAT WAT WAT WAT WAT WAT WAT WAT WAT WAT WAT WAT WAT WAT WAT 
WAT WAT WAT WAT WAT WAT WAT WAT WAT WAT WAT WAT WAT WAT WAT WAT WAT WAT WAT WAT 
WAT WAT WAT WAT WAT WAT WAT WAT WAT WAT WAT WAT WAT WAT WAT WAT WAT WAT WAT WAT 
WAT WAT WAT WAT WAT WAT WAT WAT WAT WAT WAT WAT WAT WAT WAT WAT WAT WAT WAT WAT 
WAT WAT WAT WAT WAT WAT WAT WAT WAT WAT WAT WAT WAT WAT WAT WAT WAT WAT WAT WAT 
WAT WAT WAT WAT WAT WAT WAT WAT WAT WAT WAT WAT WAT WAT WAT WAT WAT WAT WAT WAT 
WAT WAT WAT WAT WAT WAT WAT WAT WAT WAT WAT WAT WAT WAT WAT WAT WAT WAT WAT WAT 
WAT WAT WAT WAT WAT WAT WAT WAT WAT WAT WAT WAT WAT WAT WAT WAT WAT WAT WAT WAT 
WAT WAT WAT WAT WAT WAT WAT WAT WAT WAT WAT WAT WAT WAT WAT WAT WAT WAT WAT WAT 
WAT WAT WAT WAT WAT WAT WAT WAT WAT WAT WAT WAT WAT WAT WAT WAT WAT WAT WAT WAT 
WAT WAT WAT WAT WAT WAT WAT WAT WAT WAT WAT WAT WAT WAT WAT WAT WAT WAT WAT WAT 
WAT WAT WAT WAT WAT WAT WAT WAT WAT WAT WAT WAT WAT WAT WAT WAT WAT WAT WAT WAT 
WAT WAT WAT WAT WAT WAT WAT WAT WAT WAT WAT WAT WAT WAT WAT WAT WAT WAT WAT WAT 
WAT WAT WAT WAT WAT WAT WAT WAT WAT WAT WAT WAT WAT WAT WAT WAT WAT WAT WAT WAT 
WAT WAT WAT WAT WAT WAT WAT WAT WAT WAT WAT WAT WAT WAT WAT WAT WAT WAT WAT WAT 
WAT WAT WAT WAT WAT WAT WAT WAT WAT WAT WAT WAT WAT WAT WAT WAT WAT WAT WAT WAT 
WAT WAT WAT WAT WAT WAT WAT WAT WAT WAT WAT WAT WAT WAT WAT WAT WAT WAT WAT WAT 
WAT WAT WAT WAT WAT WAT WAT WAT WAT WAT WAT WAT WAT WAT WAT WAT WAT WAT WAT WAT 
WAT WAT WAT WAT WAT WAT WAT WAT WAT WAT WAT WAT WAT WAT WAT WAT WAT WAT WAT WAT 
WAT WAT WAT WAT WAT WAT WAT WAT WAT WAT WAT WAT WAT WAT WAT WAT WAT WAT WAT WAT 
WAT WAT WAT WAT WAT WAT WAT WAT WAT WAT WAT WAT WAT WAT WAT WAT WAT WAT WAT WAT 
WAT WAT WAT WAT WAT WAT WAT WAT WAT WAT WAT WAT WAT WAT WAT WAT WAT WAT WAT WAT 
WAT WAT WAT WAT WAT WAT WAT WAT WAT WAT WAT WAT WAT WAT WAT WAT WAT WAT WAT WAT 
WAT WAT WAT WAT WAT WAT WAT WAT WAT WAT WAT WAT WAT WAT WAT WAT WAT WAT WAT WAT 
WAT WAT WAT WAT WAT WAT WAT WAT WAT WAT WAT WAT WAT WAT WAT WAT WAT WAT WAT WAT 
WAT WAT WAT WAT WAT WAT WAT WAT WAT WAT WAT WAT WAT WAT WAT WAT WAT WAT WAT WAT 
WAT WAT WAT WAT WAT WAT WAT WAT WAT WAT WAT WAT WAT WAT WAT WAT WAT WAT WAT WAT 
WAT WAT WAT WAT WAT WAT WAT WAT WAT WAT WAT WAT WAT WAT WAT WAT WAT WAT WAT WAT 
WAT WAT WAT WAT WAT WAT WAT WAT WAT WAT WAT WAT WAT WAT WAT WAT WAT WAT WAT WAT 
WAT WAT WAT WAT WAT WAT WAT WAT WAT WAT WAT WAT WAT WAT WAT WAT WAT WAT WAT WAT 
WAT WAT WAT WAT WAT WAT WAT WAT WAT WAT WAT WAT WAT WAT WAT WAT WAT WAT WAT WAT 
WAT WAT WAT WAT WAT WAT WAT WAT WAT WAT WAT WAT WAT WAT WAT WAT WAT WAT WAT WAT 
WAT WAT WAT WAT WAT WAT WAT WAT WAT WAT WAT WAT WAT WAT WAT WAT WAT WAT WAT WAT 
WAT WAT WAT WAT WAT WAT WAT WAT WAT WAT WAT WAT WAT WAT WAT WAT WAT WAT WAT WAT 
WAT WAT WAT WAT WAT WAT WAT WAT WAT WAT WAT WAT WAT WAT WAT WAT WAT WAT WAT WAT 
WAT WAT WAT WAT WAT WAT WAT WAT WAT WAT WAT WAT WAT WAT WAT WAT WAT WAT WAT WAT 
WAT WAT WAT WAT WAT WAT WAT WAT WAT WAT WAT WAT WAT WAT WAT WAT WAT WAT WAT WAT 
WAT WAT WAT WAT WAT WAT WAT WAT WAT WAT WAT WAT WAT WAT WAT WAT WAT WAT WAT WAT 
WAT WAT WAT WAT WAT WAT WAT WAT WAT WAT WAT WAT WAT WAT WAT WAT WAT WAT WAT WAT 
WAT WAT WAT WAT WAT WAT WAT WAT WAT WAT WAT WAT WAT WAT WAT WAT WAT WAT WAT WAT 
WAT WAT WAT WAT WAT WAT WAT WAT WAT WAT WAT WAT WAT WAT WAT WAT WAT WAT WAT WAT 
WAT WAT WAT WAT WAT WAT WAT WAT WAT WAT WAT WAT WAT WAT WAT WAT WAT WAT WAT WAT 
WAT WAT WAT WAT WAT WAT WAT WAT WAT WAT WAT WAT WAT WAT WAT WAT WAT WAT WAT WAT 
WAT WAT WAT WAT WAT WAT WAT WAT WAT WAT WAT WAT WAT WAT WAT WAT WAT WAT WAT WAT 
WAT WAT WAT WAT WAT WAT WAT WAT WAT WAT WAT WAT WAT WAT WAT WAT WAT WAT WAT WAT 
WAT WAT WAT WAT WAT WAT WAT WAT WAT WAT WAT WAT WAT WAT WAT WAT WAT WAT WAT WAT 
WAT WAT WAT WAT WAT WAT WAT WAT WAT WAT WAT WAT WAT WAT WAT WAT WAT WAT WAT WAT 
WAT WAT WAT WAT WAT WAT WAT WAT WAT WAT WAT WAT WAT WAT WAT WAT WAT WAT WAT WAT 
WAT WAT WAT WAT WAT WAT WAT WAT WAT WAT WAT WAT WAT WAT WAT WAT WAT WAT WAT WAT 
WAT WAT WAT WAT WAT WAT WAT WAT WAT WAT WAT WAT WAT WAT WAT WAT WAT WAT WAT WAT 
WAT WAT WAT WAT WAT WAT WAT WAT WAT WAT WAT WAT WAT WAT WAT WAT WAT WAT WAT WAT 
WAT WAT WAT WAT WAT WAT WAT WAT WAT WAT WAT WAT WAT WAT WAT WAT WAT WAT WAT WAT 
WAT WAT WAT WAT WAT WAT WAT WAT WAT WAT WAT WAT WAT WAT WAT WAT WAT WAT WAT WAT 
WAT WAT WAT WAT WAT WAT WAT WAT WAT WAT WAT WAT WAT WAT WAT WAT WAT WAT WAT WAT 
WAT WAT WAT WAT WAT WAT WAT WAT WAT WAT WAT WAT WAT WAT WAT WAT WAT WAT WAT WAT 
WAT WAT WAT WAT WAT WAT WAT WAT WAT WAT WAT WAT WAT WAT WAT WAT WAT WAT WAT WAT 
WAT WAT WAT WAT WAT WAT WAT WAT WAT WAT WAT WAT WAT WAT WAT WAT WAT WAT WAT WAT 
WAT WAT WAT WAT WAT WAT WAT WAT WAT WAT WAT WAT WAT WAT WAT WAT WAT WAT WAT WAT 
WAT WAT WAT WAT WAT WAT WAT WAT WAT WAT WAT WAT WAT WAT WAT WAT WAT WAT WAT WAT 
WAT WAT WAT WAT WAT WAT WAT WAT WAT WAT WAT WAT WAT WAT WAT WAT WAT WAT WAT WAT 
WAT WAT WAT WAT WAT WAT WAT WAT WAT WAT WAT WAT WAT WAT WAT WAT WAT WAT WAT WAT 
WAT WAT WAT WAT WAT WAT WAT WAT WAT WAT WAT WAT WAT WAT WAT WAT WAT WAT WAT WAT 
WAT WAT WAT WAT WAT WAT WAT WAT WAT WAT WAT WAT WAT WAT WAT WAT WAT WAT WAT WAT 
WAT WAT WAT WAT WAT WAT WAT WAT WAT WAT WAT WAT WAT WAT WAT WAT WAT WAT WAT WAT 
WAT WAT WAT WAT WAT WAT WAT WAT WAT WAT WAT WAT WAT WAT WAT WAT WAT WAT WAT WAT 
WAT WAT WAT WAT WAT WAT WAT WAT WAT WAT WAT WAT WAT WAT WAT WAT WAT WAT WAT WAT 
WAT WAT WAT WAT WAT WAT WAT WAT WAT WAT WAT WAT WAT WAT WAT WAT WAT WAT WAT WAT 
WAT WAT WAT WAT WAT WAT WAT WAT WAT WAT WAT WAT WAT WAT WAT WAT WAT WAT WAT WAT 
WAT WAT WAT WAT WAT WAT WAT WAT WAT WAT WAT WAT WAT WAT WAT WAT WAT WAT WAT WAT 
WAT WAT WAT WAT WAT WAT WAT WAT WAT WAT WAT WAT WAT WAT WAT WAT WAT WAT WAT WAT 
WAT WAT WAT WAT WAT WAT WAT WAT WAT WAT WAT WAT WAT WAT WAT WAT WAT WAT WAT WAT 
WAT WAT WAT WAT WAT WAT WAT WAT WAT WAT WAT WAT WAT WAT WAT WAT WAT WAT WAT WAT 
WAT WAT WAT WAT WAT WAT WAT WAT WAT WAT WAT WAT WAT WAT WAT WAT WAT WAT WAT WAT 
WAT WAT WAT WAT WAT WAT WAT WAT WAT WAT WAT WAT WAT WAT WAT WAT WAT WAT WAT WAT 
WAT WAT WAT WAT WAT WAT WAT WAT WAT WAT WAT WAT WAT WAT WAT WAT WAT WAT WAT WAT 
WAT WAT WAT WAT WAT WAT WAT WAT WAT WAT WAT WAT WAT WAT WAT WAT WAT WAT WAT WAT 
WAT WAT WAT WAT WAT WAT WAT WAT WAT WAT WAT WAT WAT WAT WAT WAT WAT WAT WAT WAT 
WAT WAT WAT WAT WAT WAT WAT WAT WAT WAT WAT WAT WAT WAT WAT WAT WAT WAT WAT WAT 
WAT WAT WAT WAT WAT WAT WAT WAT WAT WAT WAT WAT WAT WAT WAT WAT WAT WAT WAT WAT 
WAT WAT WAT WAT WAT WAT WAT WAT WAT WAT WAT WAT WAT WAT WAT WAT WAT WAT WAT WAT 
WAT WAT WAT WAT WAT WAT WAT WAT WAT WAT WAT WAT WAT WAT WAT WAT WAT WAT WAT WAT 
WAT WAT WAT WAT WAT WAT WAT WAT WAT WAT WAT WAT WAT WAT WAT WAT WAT WAT WAT WAT 
WAT WAT WAT WAT WAT WAT WAT WAT WAT WAT WAT WAT WAT WAT WAT WAT WAT WAT WAT WAT 
WAT WAT WAT WAT WAT WAT WAT WAT WAT WAT WAT WAT WAT WAT WAT WAT WAT WAT WAT WAT 
WAT WAT WAT WAT WAT WAT WAT WAT WAT WAT WAT WAT WAT WAT WAT WAT WAT WAT WAT WAT 
WAT WAT WAT WAT WAT WAT WAT WAT WAT WAT WAT WAT WAT WAT WAT WAT WAT WAT WAT WAT 
WAT WAT WAT WAT WAT WAT WAT WAT WAT WAT WAT WAT WAT WAT WAT WAT WAT WAT WAT WAT 
WAT WAT WAT WAT WAT WAT WAT WAT WAT WAT WAT WAT WAT WAT WAT WAT WAT WAT WAT WAT 
WAT WAT WAT WAT WAT WAT WAT WAT WAT WAT WAT WAT WAT WAT WAT WAT WAT WAT WAT WAT 
WAT WAT WAT WAT WAT WAT WAT WAT WAT WAT WAT WAT WAT WAT WAT WAT WAT WAT WAT WAT 
WAT WAT WAT WAT WAT WAT WAT WAT WAT WAT WAT WAT WAT WAT WAT WAT WAT WAT WAT WAT 
WAT WAT WAT WAT WAT WAT WAT WAT WAT WAT WAT WAT WAT WAT WAT WAT WAT WAT WAT WAT 
WAT WAT WAT WAT WAT WAT WAT WAT WAT WAT WAT WAT WAT WAT WAT WAT WAT WAT WAT WAT 
WAT WAT WAT WAT WAT WAT WAT WAT WAT WAT WAT WAT WAT WAT WAT WAT WAT WAT WAT WAT 
WAT WAT WAT WAT WAT WAT WAT WAT WAT WAT WAT WAT WAT WAT WAT WAT WAT WAT WAT WAT 
WAT WAT WAT WAT WAT WAT WAT WAT WAT WAT WAT WAT WAT WAT WAT WAT WAT WAT WAT WAT 
WAT WAT WAT WAT WAT WAT WAT WAT WAT WAT WAT WAT WAT WAT WAT WAT WAT WAT WAT WAT 
WAT WAT WAT WAT WAT WAT WAT WAT WAT WAT WAT WAT WAT WAT WAT WAT WAT WAT WAT WAT 
WAT WAT WAT WAT WAT WAT WAT WAT WAT WAT WAT WAT WAT WAT WAT WAT WAT WAT WAT WAT 
WAT WAT WAT WAT WAT WAT WAT WAT WAT WAT WAT WAT WAT WAT WAT WAT WAT WAT WAT WAT 
WAT WAT WAT WAT WAT WAT WAT WAT WAT WAT WAT WAT WAT WAT WAT WAT WAT WAT WAT WAT 
WAT WAT WAT WAT WAT WAT WAT WAT WAT WAT WAT WAT WAT WAT WAT WAT WAT WAT WAT WAT 
WAT WAT WAT WAT WAT WAT WAT WAT WAT WAT WAT WAT WAT WAT WAT WAT WAT WAT WAT WAT 
WAT WAT WAT WAT WAT WAT WAT WAT WAT WAT WAT WAT WAT WAT WAT WAT WAT WAT WAT WAT 
WAT WAT WAT WAT WAT WAT WAT WAT WAT WAT WAT WAT WAT WAT WAT WAT WAT WAT WAT WAT 
WAT WAT WAT WAT WAT WAT WAT WAT WAT WAT WAT WAT WAT WAT WAT WAT WAT WAT WAT WAT 
WAT WAT WAT WAT WAT WAT WAT WAT WAT WAT WAT WAT WAT WAT WAT WAT WAT WAT WAT WAT 
WAT WAT WAT WAT WAT WAT WAT WAT WAT WAT WAT WAT WAT WAT WAT WAT WAT WAT WAT WAT 
WAT WAT WAT WAT WAT WAT WAT WAT WAT WAT WAT WAT WAT WAT WAT WAT WAT WAT WAT WAT 
WAT WAT WAT WAT WAT WAT WAT WAT WAT WAT WAT WAT WAT WAT WAT WAT WAT WAT WAT WAT 
WAT WAT WAT WAT WAT WAT WAT WAT WAT WAT WAT WAT WAT WAT WAT WAT WAT WAT WAT WAT 
WAT WAT WAT WAT WAT WAT WAT WAT WAT WAT WAT WAT WAT WAT WAT WAT WAT WAT WAT WAT 
WAT WAT WAT WAT WAT WAT WAT WAT WAT WAT WAT WAT WAT WAT WAT WAT WAT WAT WAT WAT 
WAT WAT WAT WAT WAT WAT WAT WAT WAT WAT WAT WAT WAT WAT WAT WAT WAT WAT WAT WAT 
WAT WAT WAT WAT WAT WAT WAT WAT WAT WAT WAT WAT WAT WAT WAT WAT WAT WAT WAT WAT 
WAT WAT WAT WAT WAT WAT WAT WAT WAT WAT WAT WAT WAT WAT WAT WAT WAT WAT WAT WAT 
WAT WAT WAT WAT WAT WAT WAT WAT WAT WAT WAT WAT WAT WAT WAT WAT WAT WAT WAT WAT 
WAT WAT WAT WAT WAT WAT WAT WAT WAT WAT WAT WAT WAT WAT WAT WAT WAT WAT WAT WAT 
WAT WAT WAT WAT WAT WAT WAT WAT WAT WAT WAT WAT WAT WAT WAT WAT WAT WAT WAT WAT 
WAT WAT WAT WAT WAT WAT WAT WAT WAT WAT WAT WAT WAT WAT WAT WAT WAT WAT WAT WAT 
WAT WAT WAT WAT WAT WAT WAT WAT WAT WAT WAT WAT WAT WAT WAT WAT WAT WAT WAT WAT 
WAT WAT WAT WAT WAT WAT WAT WAT WAT WAT WAT WAT WAT WAT WAT WAT WAT WAT WAT WAT 
WAT WAT WAT WAT WAT WAT WAT WAT WAT WAT WAT WAT WAT WAT WAT WAT WAT WAT WAT WAT 
WAT WAT WAT WAT WAT WAT WAT WAT WAT WAT WAT WAT WAT WAT WAT WAT WAT WAT WAT WAT 
WAT WAT WAT WAT WAT WAT WAT WAT WAT WAT WAT WAT WAT WAT WAT WAT WAT WAT WAT WAT 
WAT WAT WAT WAT WAT WAT WAT WAT WAT WAT WAT WAT WAT WAT WAT WAT WAT WAT WAT WAT 
WAT WAT WAT WAT WAT WAT WAT WAT WAT WAT WAT WAT WAT WAT WAT WAT WAT WAT WAT WAT 
WAT WAT WAT WAT WAT WAT WAT WAT WAT WAT WAT WAT WAT WAT WAT WAT WAT WAT WAT WAT 
WAT WAT WAT WAT WAT WAT WAT WAT WAT WAT WAT WAT WAT WAT WAT WAT WAT WAT WAT WAT 
WAT WAT WAT WAT WAT WAT WAT WAT WAT WAT WAT WAT WAT WAT WAT WAT WAT WAT WAT WAT 
WAT WAT WAT WAT WAT WAT WAT WAT WAT WAT WAT WAT WAT WAT WAT WAT WAT WAT WAT WAT 
WAT WAT WAT WAT WAT WAT WAT WAT WAT WAT WAT WAT WAT WAT WAT WAT WAT WAT WAT WAT 
WAT WAT WAT WAT WAT WAT WAT WAT WAT WAT WAT WAT WAT WAT WAT WAT WAT WAT WAT WAT 
WAT WAT WAT WAT WAT WAT WAT WAT WAT WAT WAT WAT WAT WAT WAT WAT WAT WAT WAT WAT 
WAT WAT WAT WAT WAT WAT WAT WAT WAT WAT WAT WAT WAT WAT WAT WAT WAT WAT WAT WAT 
WAT WAT WAT WAT WAT WAT WAT WAT WAT WAT WAT WAT WAT WAT WAT WAT WAT WAT WAT WAT 
WAT WAT WAT WAT WAT WAT WAT WAT WAT WAT WAT WAT WAT WAT WAT WAT WAT WAT WAT WAT 
WAT WAT WAT WAT WAT WAT WAT WAT WAT WAT WAT WAT WAT WAT WAT WAT WAT WAT WAT WAT 
WAT WAT WAT WAT WAT WAT WAT WAT WAT WAT WAT WAT WAT WAT WAT WAT WAT WAT WAT WAT 
WAT WAT WAT WAT WAT WAT WAT WAT WAT WAT WAT WAT WAT WAT WAT WAT WAT WAT WAT WAT 
WAT WAT WAT WAT WAT WAT WAT WAT WAT WAT WAT WAT WAT WAT WAT WAT WAT WAT WAT WAT 
WAT WAT WAT WAT WAT WAT WAT WAT WAT WAT WAT WAT WAT WAT WAT WAT WAT WAT WAT WAT 
WAT WAT WAT WAT WAT WAT WAT WAT WAT WAT WAT WAT WAT WAT WAT WAT WAT WAT WAT WAT 
WAT WAT WAT WAT WAT WAT WAT WAT WAT WAT WAT WAT WAT WAT WAT WAT WAT WAT WAT WAT 
WAT WAT WAT WAT WAT WAT WAT WAT WAT WAT WAT WAT WAT WAT WAT WAT WAT WAT WAT WAT 
WAT WAT WAT WAT WAT WAT WAT WAT WAT WAT WAT WAT WAT WAT WAT WAT WAT WAT WAT WAT 
WAT WAT WAT WAT WAT WAT WAT WAT WAT WAT WAT WAT WAT WAT WAT WAT WAT WAT WAT WAT 
WAT WAT WAT WAT WAT WAT WAT WAT WAT WAT WAT WAT WAT WAT WAT WAT WAT WAT WAT WAT 
WAT WAT WAT WAT WAT WAT WAT WAT WAT WAT WAT WAT WAT WAT WAT WAT WAT WAT WAT WAT 
WAT WAT WAT WAT WAT WAT WAT WAT WAT WAT WAT WAT WAT WAT WAT WAT WAT WAT WAT WAT 
WAT WAT WAT WAT WAT WAT WAT WAT WAT WAT WAT WAT WAT WAT WAT WAT WAT WAT WAT WAT 
WAT WAT WAT WAT WAT WAT WAT WAT WAT WAT WAT WAT WAT WAT WAT WAT WAT WAT WAT WAT 
WAT WAT WAT WAT WAT WAT WAT WAT WAT WAT WAT WAT WAT WAT WAT WAT WAT WAT WAT WAT 
WAT WAT WAT WAT WAT WAT WAT WAT WAT WAT WAT WAT WAT WAT WAT WAT WAT WAT WAT WAT 
WAT WAT WAT WAT WAT WAT WAT WAT WAT WAT WAT WAT WAT WAT WAT WAT WAT WAT WAT WAT 
WAT WAT WAT WAT WAT WAT WAT WAT WAT WAT WAT WAT WAT WAT WAT WAT WAT WAT WAT WAT 
WAT WAT WAT WAT WAT WAT WAT WAT WAT WAT WAT WAT WAT WAT WAT WAT WAT WAT WAT WAT 
WAT WAT WAT WAT WAT WAT WAT WAT WAT WAT WAT WAT WAT WAT WAT WAT WAT WAT WAT WAT 
WAT WAT WAT WAT WAT WAT WAT WAT WAT WAT WAT WAT WAT WAT WAT WAT WAT WAT WAT WAT 
WAT WAT WAT WAT WAT WAT WAT WAT WAT WAT WAT WAT WAT WAT WAT WAT WAT WAT WAT WAT 
WAT WAT WAT WAT WAT WAT WAT WAT WAT WAT WAT WAT WAT WAT WAT WAT WAT WAT WAT WAT 
WAT WAT WAT WAT WAT WAT WAT WAT WAT WAT WAT WAT WAT WAT WAT WAT WAT WAT WAT WAT 
WAT WAT WAT WAT WAT WAT WAT WAT WAT WAT WAT WAT WAT WAT WAT WAT WAT WAT WAT WAT 
WAT WAT WAT WAT WAT WAT WAT WAT WAT WAT WAT WAT WAT WAT WAT WAT WAT WAT WAT WAT 
WAT WAT WAT WAT WAT WAT WAT WAT WAT WAT WAT WAT WAT WAT WAT WAT WAT WAT WAT WAT 
WAT WAT WAT WAT WAT WAT WAT WAT WAT WAT WAT WAT WAT WAT WAT WAT WAT WAT WAT WAT 
WAT WAT WAT WAT WAT WAT WAT WAT WAT WAT WAT WAT WAT WAT WAT WAT WAT WAT WAT WAT 
WAT WAT WAT WAT WAT WAT WAT WAT WAT WAT WAT WAT WAT WAT WAT WAT WAT WAT WAT WAT 
WAT WAT WAT WAT WAT WAT WAT WAT WAT WAT WAT WAT WAT WAT WAT WAT WAT WAT WAT WAT 
WAT WAT WAT WAT WAT WAT WAT WAT WAT WAT WAT WAT WAT WAT WAT WAT WAT WAT WAT WAT 
WAT WAT WAT WAT WAT WAT WAT WAT WAT WAT WAT WAT WAT WAT WAT WAT WAT WAT WAT WAT 
WAT WAT WAT WAT WAT WAT WAT WAT WAT WAT WAT WAT WAT WAT WAT WAT WAT WAT WAT WAT 
WAT WAT WAT WAT WAT WAT WAT WAT WAT WAT WAT WAT WAT WAT WAT WAT WAT WAT WAT WAT 
WAT WAT WAT WAT WAT WAT WAT WAT WAT WAT WAT WAT WAT WAT WAT WAT WAT WAT WAT WAT 
WAT WAT WAT WAT WAT WAT WAT WAT WAT WAT WAT WAT WAT WAT WAT WAT WAT WAT WAT WAT 
WAT WAT WAT WAT WAT WAT WAT WAT WAT WAT WAT WAT WAT WAT WAT WAT WAT WAT WAT WAT 
WAT WAT WAT WAT WAT WAT WAT WAT WAT WAT WAT WAT WAT WAT WAT WAT WAT WAT WAT WAT 
WAT WAT WAT WAT WAT WAT WAT WAT WAT WAT WAT WAT WAT WAT WAT WAT WAT WAT WAT WAT 
WAT WAT WAT WAT WAT WAT WAT WAT WAT WAT WAT WAT WAT WAT WAT WAT WAT WAT WAT WAT 
WAT WAT WAT WAT WAT WAT WAT WAT WAT WAT WAT WAT WAT WAT WAT WAT WAT WAT WAT WAT 
WAT WAT WAT WAT WAT WAT WAT WAT WAT WAT WAT WAT WAT WAT WAT WAT WAT WAT WAT WAT 
WAT WAT WAT WAT WAT WAT WAT WAT WAT WAT WAT WAT WAT WAT WAT WAT WAT WAT WAT WAT 
WAT WAT WAT WAT WAT WAT WAT WAT WAT WAT WAT WAT WAT WAT WAT WAT WAT WAT WAT WAT 
WAT WAT WAT WAT WAT WAT WAT WAT WAT WAT WAT WAT WAT WAT WAT WAT WAT WAT WAT WAT 
WAT WAT WAT WAT WAT WAT WAT WAT WAT WAT WAT WAT WAT WAT WAT WAT WAT WAT WAT WAT 
WAT WAT WAT WAT WAT WAT WAT WAT WAT WAT WAT WAT WAT WAT WAT WAT WAT WAT WAT WAT 
WAT WAT WAT WAT WAT WAT WAT WAT WAT WAT WAT WAT WAT WAT WAT WAT WAT WAT WAT WAT 
WAT WAT WAT WAT WAT WAT WAT WAT WAT WAT WAT WAT WAT WAT WAT WAT WAT WAT WAT WAT 
WAT WAT WAT WAT WAT WAT WAT WAT WAT WAT WAT WAT WAT WAT WAT WAT WAT WAT WAT WAT 
WAT WAT WAT WAT WAT WAT WAT WAT WAT WAT WAT WAT WAT WAT WAT WAT WAT WAT WAT WAT 
WAT WAT WAT WAT WAT WAT WAT WAT WAT WAT WAT WAT WAT WAT WAT WAT WAT WAT WAT WAT 
WAT WAT WAT WAT WAT WAT WAT WAT WAT WAT WAT WAT WAT WAT WAT WAT WAT WAT WAT WAT 
WAT WAT WAT WAT WAT WAT WAT WAT WAT WAT WAT WAT WAT WAT WAT WAT WAT WAT WAT WAT 
WAT WAT WAT WAT WAT WAT WAT WAT WAT WAT WAT WAT WAT WAT WAT WAT WAT WAT WAT WAT 
WAT WAT WAT WAT WAT WAT WAT WAT WAT WAT WAT WAT WAT WAT WAT WAT WAT WAT WAT WAT 
WAT WAT WAT WAT WAT WAT WAT WAT WAT WAT WAT WAT WAT WAT WAT WAT WAT WAT WAT WAT 
WAT WAT WAT WAT WAT WAT WAT WAT WAT WAT WAT WAT WAT WAT WAT WAT WAT WAT WAT WAT 
WAT WAT WAT WAT WAT WAT WAT WAT WAT WAT WAT WAT WAT WAT WAT WAT WAT WAT WAT WAT 
WAT WAT WAT WAT WAT WAT WAT WAT WAT WAT WAT WAT WAT WAT WAT WAT WAT WAT WAT WAT 
WAT WAT WAT WAT WAT WAT WAT WAT WAT WAT WAT WAT WAT WAT WAT WAT WAT WAT WAT WAT 
WAT WAT WAT WAT WAT WAT WAT WAT WAT WAT WAT WAT WAT WAT WAT WAT WAT WAT WAT WAT 
WAT WAT WAT WAT WAT WAT WAT WAT WAT WAT WAT WAT WAT WAT WAT WAT WAT WAT WAT WAT 
WAT WAT WAT WAT WAT WAT WAT WAT WAT WAT WAT WAT WAT WAT WAT WAT WAT WAT WAT WAT 
WAT WAT WAT WAT WAT WAT WAT WAT WAT WAT WAT WAT WAT WAT WAT WAT WAT WAT WAT WAT 
WAT WAT WAT WAT WAT WAT WAT WAT WAT WAT WAT WAT WAT WAT WAT WAT WAT WAT WAT WAT 
WAT WAT WAT WAT WAT WAT WAT WAT WAT WAT WAT WAT WAT WAT WAT WAT WAT WAT WAT WAT 
WAT WAT WAT WAT WAT WAT WAT WAT WAT WAT WAT WAT WAT WAT WAT WAT WAT WAT WAT WAT 
WAT WAT WAT WAT WAT WAT WAT WAT WAT WAT WAT WAT WAT WAT WAT WAT WAT WAT WAT WAT 
WAT WAT WAT WAT WAT WAT WAT WAT WAT WAT WAT WAT WAT WAT WAT WAT WAT WAT WAT WAT 
WAT WAT WAT WAT WAT WAT WAT WAT WAT WAT WAT WAT WAT WAT WAT WAT WAT WAT WAT WAT 
WAT WAT WAT WAT WAT WAT WAT WAT WAT WAT WAT WAT WAT WAT WAT WAT WAT WAT WAT WAT 
WAT WAT WAT WAT WAT WAT WAT WAT WAT WAT WAT WAT WAT WAT WAT WAT WAT WAT WAT WAT 
WAT WAT WAT WAT WAT WAT WAT WAT WAT WAT WAT WAT WAT WAT WAT WAT WAT WAT WAT WAT 
WAT WAT WAT WAT WAT WAT WAT WAT WAT WAT WAT WAT WAT WAT WAT WAT WAT WAT WAT WAT 
WAT WAT WAT WAT WAT WAT WAT WAT WAT WAT WAT WAT WAT WAT WAT WAT WAT WAT WAT WAT 
WAT WAT WAT WAT WAT WAT WAT WAT WAT WAT WAT WAT WAT WAT WAT WAT WAT WAT WAT WAT 
WAT WAT WAT WAT WAT WAT WAT WAT WAT WAT WAT WAT WAT WAT WAT WAT WAT WAT WAT WAT 
WAT WAT WAT WAT WAT WAT WAT WAT WAT WAT WAT WAT WAT WAT WAT WAT WAT WAT WAT WAT 
WAT WAT WAT WAT WAT WAT WAT WAT WAT WAT WAT WAT WAT WAT WAT WAT WAT WAT WAT WAT 
WAT WAT WAT WAT WAT WAT WAT WAT WAT WAT WAT WAT WAT WAT WAT WAT WAT WAT WAT WAT 
WAT WAT WAT WAT WAT WAT WAT WAT WAT WAT WAT WAT WAT WAT WAT WAT WAT WAT WAT WAT 
WAT WAT WAT WAT WAT WAT WAT WAT WAT WAT WAT WAT WAT WAT WAT WAT WAT WAT WAT WAT 
WAT WAT WAT WAT WAT WAT WAT WAT WAT WAT WAT WAT WAT WAT WAT WAT WAT WAT WAT WAT 
WAT WAT WAT WAT WAT WAT WAT WAT WAT WAT WAT WAT WAT WAT WAT WAT WAT WAT WAT WAT 
WAT WAT WAT WAT WAT WAT WAT WAT WAT WAT WAT WAT WAT WAT WAT WAT WAT WAT WAT WAT 
WAT WAT WAT WAT WAT WAT WAT WAT WAT WAT WAT WAT WAT WAT WAT WAT WAT WAT WAT WAT 
WAT WAT WAT WAT WAT WAT WAT WAT WAT WAT WAT WAT WAT WAT WAT WAT WAT WAT WAT WAT 
WAT WAT WAT WAT WAT WAT WAT WAT WAT WAT WAT WAT WAT WAT WAT WAT WAT WAT WAT WAT 
WAT WAT WAT WAT WAT WAT WAT WAT WAT WAT WAT WAT WAT WAT WAT WAT WAT WAT WAT WAT 
WAT WAT WAT WAT WAT WAT WAT WAT WAT WAT WAT WAT WAT WAT WAT WAT WAT WAT WAT WAT 
WAT WAT WAT WAT WAT WAT WAT WAT WAT WAT WAT WAT WAT WAT WAT WAT WAT WAT WAT WAT 
WAT WAT WAT WAT WAT WAT WAT WAT WAT WAT WAT WAT WAT WAT WAT WAT WAT WAT WAT WAT 
WAT WAT WAT WAT WAT WAT WAT WAT WAT WAT WAT WAT WAT WAT WAT WAT WAT WAT WAT WAT 
WAT WAT WAT WAT WAT WAT WAT WAT WAT WAT WAT WAT WAT WAT WAT WAT WAT WAT WAT WAT 
WAT WAT WAT WAT WAT WAT WAT WAT WAT WAT WAT WAT WAT WAT WAT WAT WAT WAT WAT WAT 
WAT WAT WAT WAT WAT WAT WAT WAT WAT WAT WAT WAT WAT WAT WAT WAT WAT WAT WAT WAT 
WAT WAT WAT WAT WAT WAT WAT WAT WAT WAT WAT WAT WAT WAT WAT WAT WAT WAT WAT WAT 
WAT WAT WAT WAT WAT WAT WAT WAT WAT WAT WAT WAT WAT WAT WAT WAT WAT WAT WAT WAT 
WAT WAT WAT WAT WAT WAT WAT WAT WAT WAT WAT WAT WAT WAT WAT WAT WAT WAT WAT WAT 
WAT WAT WAT WAT WAT WAT WAT WAT WAT WAT WAT WAT WAT WAT WAT WAT WAT WAT WAT WAT 
WAT WAT WAT WAT WAT WAT WAT WAT WAT WAT WAT WAT WAT WAT WAT WAT WAT WAT WAT WAT 
WAT WAT WAT WAT WAT WAT WAT WAT WAT WAT WAT WAT WAT WAT WAT WAT WAT WAT WAT WAT 
WAT WAT WAT WAT WAT WAT WAT WAT WAT WAT WAT WAT WAT WAT WAT WAT WAT WAT WAT WAT 
WAT WAT WAT WAT WAT WAT WAT WAT WAT WAT WAT WAT WAT WAT WAT WAT WAT WAT WAT WAT 
WAT WAT WAT WAT WAT WAT WAT WAT WAT WAT WAT WAT WAT WAT WAT WAT WAT WAT WAT WAT 
WAT WAT WAT WAT WAT WAT WAT WAT WAT WAT WAT WAT WAT WAT WAT WAT WAT WAT WAT WAT 
WAT WAT WAT WAT WAT WAT WAT WAT WAT WAT WAT WAT WAT WAT WAT WAT WAT WAT WAT WAT 
WAT WAT WAT WAT WAT WAT WAT WAT WAT WAT WAT WAT WAT WAT WAT WAT WAT WAT WAT WAT 
WAT WAT WAT WAT WAT WAT WAT WAT WAT WAT WAT WAT WAT WAT WAT WAT WAT WAT WAT WAT 
WAT WAT WAT WAT WAT WAT WAT WAT WAT WAT WAT WAT WAT WAT WAT WAT WAT WAT WAT WAT 
WAT WAT WAT WAT WAT WAT WAT WAT WAT WAT WAT WAT WAT WAT WAT WAT WAT WAT WAT WAT 
WAT WAT WAT WAT WAT WAT WAT WAT WAT WAT WAT WAT WAT WAT WAT WAT WAT WAT WAT WAT 
WAT WAT WAT WAT WAT WAT WAT WAT WAT WAT WAT WAT WAT WAT WAT WAT WAT WAT WAT WAT 
WAT WAT WAT WAT WAT WAT WAT WAT WAT WAT WAT WAT WAT WAT WAT WAT WAT WAT WAT WAT 
WAT WAT WAT WAT WAT WAT WAT WAT WAT WAT WAT WAT WAT WAT WAT WAT WAT WAT WAT WAT 
WAT WAT WAT WAT WAT WAT WAT WAT WAT WAT WAT WAT WAT WAT WAT WAT WAT WAT WAT WAT 
WAT WAT WAT WAT WAT WAT WAT WAT WAT WAT WAT WAT WAT WAT WAT WAT WAT WAT WAT WAT 
WAT WAT WAT WAT WAT WAT WAT WAT WAT WAT WAT WAT WAT WAT WAT WAT WAT WAT WAT WAT 
WAT WAT WAT WAT WAT WAT WAT WAT WAT WAT WAT WAT WAT WAT WAT WAT WAT WAT WAT WAT 
WAT WAT WAT WAT WAT WAT WAT WAT WAT WAT WAT WAT WAT WAT WAT WAT WAT WAT WAT WAT 
WAT WAT WAT WAT WAT WAT WAT WAT WAT WAT WAT WAT WAT WAT WAT WAT WAT WAT WAT WAT 
WAT WAT WAT WAT WAT WAT WAT WAT WAT WAT WAT WAT WAT WAT WAT WAT WAT WAT WAT WAT 
WAT WAT WAT WAT WAT WAT WAT WAT WAT WAT WAT WAT WAT WAT WAT WAT WAT WAT WAT WAT 
WAT WAT WAT WAT WAT WAT WAT WAT WAT WAT WAT WAT WAT WAT WAT WAT WAT WAT WAT WAT 
WAT WAT WAT WAT WAT WAT WAT WAT WAT WAT WAT WAT WAT WAT WAT WAT WAT WAT WAT WAT 
WAT WAT WAT WAT WAT WAT WAT WAT WAT WAT WAT WAT WAT WAT WAT WAT WAT WAT WAT WAT 
WAT WAT WAT WAT WAT WAT WAT WAT WAT WAT WAT WAT WAT WAT WAT WAT WAT WAT WAT WAT 
WAT WAT WAT WAT WAT WAT WAT WAT WAT WAT WAT WAT WAT WAT WAT WAT WAT WAT WAT WAT 
WAT WAT WAT WAT WAT WAT WAT WAT WAT WAT WAT WAT WAT WAT WAT WAT WAT WAT WAT WAT 
WAT WAT WAT WAT WAT WAT WAT WAT WAT WAT WAT WAT WAT WAT WAT WAT WAT WAT WAT WAT 
WAT WAT WAT WAT WAT WAT WAT WAT WAT WAT WAT WAT WAT WAT WAT WAT WAT WAT WAT WAT 
WAT WAT WAT WAT WAT WAT WAT WAT WAT WAT WAT WAT WAT WAT WAT WAT WAT WAT WAT WAT 
WAT WAT WAT WAT WAT WAT WAT WAT WAT WAT WAT WAT WAT WAT WAT WAT WAT WAT WAT WAT 
WAT WAT WAT WAT WAT WAT WAT WAT WAT WAT WAT WAT WAT WAT WAT WAT WAT WAT WAT WAT 
WAT WAT WAT WAT WAT WAT WAT WAT WAT WAT WAT WAT WAT WAT WAT WAT WAT WAT WAT WAT 
WAT WAT WAT WAT WAT WAT WAT WAT WAT WAT WAT WAT WAT WAT WAT WAT WAT WAT WAT WAT 
WAT WAT WAT WAT WAT WAT WAT WAT WAT WAT WAT WAT WAT WAT WAT WAT WAT WAT WAT WAT 
WAT WAT WAT WAT WAT WAT WAT WAT WAT WAT WAT WAT WAT WAT WAT WAT WAT WAT WAT WAT 
WAT WAT WAT WAT WAT WAT WAT WAT WAT WAT WAT WAT WAT WAT WAT WAT WAT WAT WAT WAT 
WAT WAT WAT WAT WAT WAT WAT WAT WAT WAT WAT WAT WAT WAT WAT WAT WAT WAT WAT WAT 
WAT WAT WAT WAT WAT WAT WAT WAT WAT WAT WAT WAT WAT WAT WAT WAT WAT WAT WAT WAT 
WAT WAT WAT WAT WAT WAT WAT WAT WAT WAT WAT WAT WAT WAT WAT WAT WAT WAT WAT WAT 
WAT WAT WAT WAT WAT WAT WAT WAT WAT WAT WAT WAT WAT WAT WAT WAT WAT WAT WAT WAT 
WAT WAT WAT WAT WAT WAT WAT WAT WAT WAT WAT WAT WAT WAT WAT WAT WAT WAT WAT WAT 
WAT WAT WAT WAT WAT WAT WAT WAT WAT WAT WAT WAT WAT WAT WAT WAT WAT WAT WAT WAT 
WAT WAT WAT WAT WAT WAT WAT WAT WAT WAT WAT WAT WAT WAT WAT WAT WAT WAT WAT WAT 
WAT WAT WAT WAT WAT WAT WAT WAT WAT WAT WAT WAT WAT WAT WAT WAT WAT WAT WAT WAT 
WAT WAT WAT WAT WAT WAT WAT WAT WAT WAT WAT WAT WAT WAT WAT WAT WAT WAT WAT WAT 
WAT WAT WAT WAT WAT WAT WAT WAT WAT WAT WAT WAT WAT WAT WAT WAT WAT WAT WAT WAT 
WAT WAT WAT WAT WAT WAT WAT WAT WAT WAT WAT WAT WAT WAT WAT WAT WAT WAT WAT WAT 
WAT WAT WAT WAT WAT WAT WAT WAT WAT WAT WAT WAT WAT WAT WAT WAT WAT WAT WAT WAT 
WAT WAT WAT WAT WAT WAT WAT WAT WAT WAT WAT WAT WAT WAT WAT WAT WAT WAT WAT WAT 
WAT WAT WAT WAT WAT WAT WAT WAT WAT WAT WAT WAT WAT WAT WAT WAT WAT WAT WAT WAT 
WAT WAT WAT WAT WAT WAT WAT WAT WAT WAT WAT WAT WAT WAT WAT WAT WAT WAT WAT WAT 
WAT WAT WAT WAT WAT WAT WAT WAT WAT WAT WAT WAT WAT WAT WAT WAT WAT WAT WAT WAT 
WAT WAT WAT WAT WAT WAT WAT WAT WAT WAT WAT WAT WAT WAT WAT WAT WAT WAT WAT WAT 
WAT WAT WAT WAT WAT WAT WAT WAT WAT WAT WAT WAT WAT WAT WAT WAT WAT WAT WAT WAT 
WAT WAT WAT WAT WAT WAT WAT WAT WAT WAT WAT WAT WAT WAT WAT WAT WAT WAT WAT WAT 
WAT WAT WAT WAT WAT WAT WAT WAT WAT WAT WAT WAT WAT WAT WAT WAT WAT WAT WAT WAT 
WAT WAT WAT WAT WAT WAT WAT WAT WAT WAT WAT WAT WAT WAT WAT WAT WAT WAT WAT WAT 
WAT WAT WAT WAT WAT WAT WAT WAT WAT WAT WAT WAT WAT WAT WAT WAT WAT WAT WAT WAT 
WAT WAT WAT WAT WAT WAT WAT WAT WAT WAT WAT WAT WAT WAT WAT WAT WAT WAT WAT WAT 
WAT WAT WAT WAT WAT WAT WAT WAT WAT WAT WAT WAT WAT WAT WAT WAT WAT WAT WAT WAT 
WAT WAT WAT WAT WAT WAT WAT WAT WAT WAT WAT WAT WAT WAT WAT WAT WAT WAT WAT WAT 
WAT WAT WAT WAT WAT WAT WAT WAT WAT WAT WAT WAT WAT WAT WAT WAT WAT WAT WAT WAT 
WAT WAT WAT WAT WAT WAT WAT WAT WAT WAT WAT WAT WAT WAT WAT WAT WAT WAT WAT WAT 
WAT WAT WAT WAT WAT WAT WAT WAT WAT WAT WAT WAT WAT WAT WAT WAT WAT WAT WAT WAT 
WAT WAT WAT WAT WAT WAT WAT WAT WAT WAT WAT WAT WAT WAT WAT WAT WAT WAT WAT WAT 
WAT WAT WAT WAT WAT WAT WAT WAT WAT WAT WAT WAT WAT WAT WAT WAT WAT WAT WAT WAT 
WAT WAT WAT WAT WAT WAT WAT WAT WAT WAT WAT WAT WAT WAT WAT WAT WAT WAT WAT WAT 
WAT WAT WAT WAT WAT WAT WAT WAT WAT WAT WAT WAT WAT WAT WAT WAT WAT WAT WAT WAT 
WAT WAT WAT WAT WAT WAT WAT WAT WAT WAT WAT WAT WAT WAT WAT WAT WAT WAT WAT WAT 
WAT WAT WAT WAT WAT WAT WAT WAT WAT WAT WAT WAT WAT WAT WAT WAT WAT WAT WAT WAT 
WAT WAT WAT WAT WAT WAT WAT WAT WAT WAT WAT WAT WAT WAT WAT WAT WAT WAT WAT WAT 
WAT WAT WAT WAT WAT WAT WAT WAT WAT WAT WAT WAT WAT WAT WAT WAT WAT WAT WAT WAT 
WAT WAT WAT WAT WAT WAT WAT WAT WAT WAT WAT WAT WAT WAT WAT WAT WAT WAT WAT WAT 
WAT WAT WAT WAT WAT WAT WAT WAT WAT WAT WAT WAT WAT WAT WAT WAT WAT WAT WAT WAT 
WAT WAT WAT WAT WAT WAT WAT WAT WAT WAT WAT WAT WAT WAT WAT WAT WAT WAT WAT WAT 
WAT WAT WAT WAT WAT WAT WAT WAT WAT WAT WAT WAT WAT WAT WAT WAT WAT WAT WAT WAT 
WAT WAT WAT WAT WAT WAT WAT WAT WAT WAT WAT WAT WAT WAT WAT WAT WAT WAT WAT WAT 
WAT WAT WAT WAT WAT WAT WAT WAT WAT WAT WAT WAT WAT WAT WAT WAT WAT WAT WAT WAT 
WAT WAT WAT WAT WAT WAT WAT WAT WAT WAT WAT WAT WAT WAT WAT WAT WAT WAT WAT WAT 
WAT WAT WAT WAT WAT WAT WAT WAT WAT WAT WAT WAT WAT WAT WAT WAT WAT WAT WAT WAT 
WAT WAT WAT WAT WAT WAT WAT WAT WAT WAT WAT WAT WAT WAT WAT WAT WAT WAT WAT WAT 
WAT WAT WAT WAT WAT WAT WAT WAT WAT WAT WAT WAT WAT WAT WAT WAT WAT WAT WAT WAT 
WAT WAT WAT WAT WAT WAT WAT WAT WAT WAT WAT WAT WAT WAT WAT WAT WAT WAT WAT WAT 
WAT WAT WAT WAT WAT WAT WAT WAT WAT WAT WAT WAT WAT WAT WAT WAT WAT WAT WAT WAT 
WAT WAT WAT WAT WAT WAT WAT WAT WAT WAT WAT WAT WAT WAT WAT WAT WAT WAT WAT WAT 
WAT WAT WAT WAT WAT WAT WAT WAT WAT WAT WAT WAT WAT WAT WAT WAT WAT WAT WAT WAT 
WAT WAT WAT WAT WAT WAT WAT WAT WAT WAT WAT WAT WAT WAT WAT WAT WAT WAT WAT WAT 
WAT WAT WAT WAT WAT WAT WAT WAT WAT WAT WAT WAT WAT WAT WAT WAT WAT WAT WAT WAT 
WAT WAT WAT WAT WAT WAT WAT WAT WAT WAT WAT WAT WAT WAT WAT WAT WAT WAT WAT WAT 
WAT WAT WAT WAT WAT WAT WAT WAT WAT WAT WAT WAT WAT WAT WAT WAT WAT WAT WAT WAT 
WAT WAT WAT WAT WAT WAT WAT WAT WAT WAT WAT WAT WAT WAT WAT WAT WAT WAT WAT WAT 
WAT WAT WAT WAT WAT WAT WAT WAT WAT WAT WAT WAT WAT WAT WAT WAT WAT WAT WAT WAT 
WAT WAT WAT WAT WAT WAT WAT WAT WAT WAT WAT WAT WAT WAT WAT WAT WAT WAT WAT WAT 
WAT WAT WAT WAT WAT WAT WAT WAT WAT WAT WAT WAT WAT WAT WAT WAT WAT WAT WAT WAT 
WAT WAT WAT WAT WAT WAT WAT WAT WAT WAT WAT WAT WAT WAT WAT WAT WAT WAT WAT WAT 
WAT WAT WAT WAT WAT WAT WAT WAT WAT WAT WAT WAT WAT WAT WAT WAT WAT WAT WAT WAT 
WAT WAT WAT WAT WAT WAT WAT WAT WAT WAT WAT WAT WAT WAT WAT WAT WAT WAT WAT WAT 
WAT WAT WAT WAT WAT WAT WAT WAT WAT WAT WAT WAT WAT WAT WAT WAT WAT WAT WAT WAT 
WAT WAT WAT WAT WAT WAT WAT WAT WAT WAT WAT WAT WAT WAT WAT WAT WAT WAT WAT WAT 
WAT WAT WAT WAT WAT WAT WAT WAT WAT WAT WAT WAT WAT WAT WAT WAT WAT WAT WAT WAT 
WAT WAT WAT WAT WAT WAT WAT WAT WAT WAT WAT WAT WAT WAT WAT WAT WAT WAT WAT WAT 
WAT WAT WAT WAT WAT WAT WAT WAT WAT WAT WAT WAT WAT WAT WAT WAT WAT WAT WAT WAT 
WAT WAT WAT WAT WAT WAT WAT WAT WAT WAT WAT WAT WAT WAT WAT WAT WAT WAT WAT WAT 
WAT WAT WAT WAT WAT WAT WAT WAT WAT WAT WAT WAT WAT WAT WAT WAT WAT WAT WAT WAT 
WAT WAT WAT WAT WAT WAT WAT WAT WAT WAT WAT WAT WAT WAT WAT WAT WAT WAT WAT WAT 
WAT WAT WAT WAT WAT WAT WAT WAT WAT WAT WAT WAT WAT WAT WAT WAT WAT WAT WAT WAT 
WAT WAT WAT WAT WAT WAT WAT WAT WAT WAT WAT WAT WAT WAT WAT WAT WAT WAT WAT WAT 
WAT WAT WAT WAT WAT WAT WAT WAT WAT WAT WAT WAT WAT WAT WAT WAT WAT WAT WAT WAT 
WAT WAT WAT WAT WAT WAT WAT WAT WAT WAT WAT WAT WAT WAT WAT WAT WAT WAT WAT WAT 
WAT WAT WAT WAT WAT WAT WAT WAT WAT WAT WAT WAT WAT WAT WAT WAT WAT WAT WAT WAT 
WAT WAT WAT WAT WAT WAT WAT WAT WAT WAT WAT WAT WAT WAT WAT WAT WAT WAT WAT WAT 
WAT WAT WAT WAT WAT WAT WAT WAT WAT WAT WAT WAT WAT WAT WAT WAT WAT WAT WAT WAT 
WAT WAT WAT WAT WAT WAT WAT WAT WAT WAT WAT WAT WAT WAT WAT WAT WAT WAT WAT WAT 
WAT WAT WAT WAT WAT WAT WAT WAT WAT WAT WAT WAT WAT WAT WAT WAT WAT WAT WAT WAT 
WAT WAT WAT WAT WAT WAT WAT WAT WAT WAT WAT WAT WAT WAT WAT WAT WAT WAT WAT WAT 
WAT WAT WAT WAT WAT WAT WAT WAT WAT WAT WAT WAT WAT WAT WAT WAT WAT WAT WAT WAT 
WAT WAT WAT WAT WAT WAT WAT WAT WAT WAT WAT WAT WAT WAT WAT WAT WAT WAT WAT WAT 
WAT WAT WAT WAT WAT WAT WAT WAT WAT WAT WAT WAT WAT WAT WAT WAT WAT WAT WAT WAT 
WAT WAT WAT WAT WAT WAT WAT WAT WAT WAT WAT WAT WAT WAT WAT WAT WAT WAT WAT WAT 
WAT WAT WAT WAT WAT WAT WAT WAT WAT WAT WAT WAT WAT WAT WAT WAT WAT WAT WAT WAT 
WAT WAT WAT WAT WAT WAT WAT WAT WAT WAT WAT WAT WAT WAT WAT WAT WAT WAT WAT WAT 
WAT WAT WAT WAT WAT WAT WAT WAT WAT WAT WAT WAT WAT WAT WAT WAT WAT WAT WAT WAT 
WAT WAT WAT WAT WAT WAT WAT WAT WAT WAT WAT WAT WAT WAT WAT WAT WAT WAT WAT WAT 
WAT WAT WAT WAT WAT WAT WAT WAT WAT WAT WAT WAT WAT WAT WAT WAT WAT WAT WAT WAT 
WAT WAT WAT WAT WAT WAT WAT WAT WAT WAT WAT WAT WAT WAT WAT WAT WAT WAT WAT WAT 
WAT WAT WAT WAT WAT WAT WAT WAT WAT WAT WAT WAT WAT WAT WAT WAT WAT WAT WAT WAT 
WAT WAT WAT WAT WAT WAT WAT WAT WAT WAT WAT WAT WAT WAT WAT WAT WAT WAT WAT WAT 
WAT WAT WAT WAT WAT WAT WAT WAT WAT WAT WAT WAT WAT WAT WAT WAT WAT WAT WAT WAT 
WAT WAT WAT WAT WAT WAT WAT WAT WAT WAT WAT WAT WAT WAT WAT WAT WAT WAT WAT WAT 
WAT WAT WAT WAT WAT WAT WAT WAT WAT WAT WAT WAT WAT WAT WAT WAT WAT WAT WAT WAT 
WAT WAT WAT WAT WAT WAT WAT WAT WAT WAT WAT WAT WAT WAT WAT WAT WAT WAT WAT WAT 
WAT WAT WAT WAT WAT WAT WAT WAT WAT WAT WAT WAT WAT WAT WAT WAT WAT WAT WAT WAT 
WAT WAT WAT WAT WAT WAT WAT WAT WAT WAT WAT WAT WAT WAT WAT WAT WAT WAT WAT WAT 
WAT WAT WAT WAT WAT WAT WAT WAT WAT WAT WAT WAT WAT WAT WAT WAT WAT WAT WAT WAT 
WAT WAT WAT WAT WAT WAT WAT WAT WAT WAT WAT WAT WAT WAT WAT WAT WAT WAT WAT WAT 
WAT WAT WAT WAT WAT WAT WAT WAT WAT WAT WAT WAT WAT WAT WAT WAT WAT WAT WAT WAT 
WAT WAT WAT WAT WAT WAT WAT WAT WAT WAT WAT WAT WAT WAT WAT WAT WAT WAT WAT WAT 
WAT WAT WAT WAT WAT WAT WAT WAT WAT WAT WAT WAT WAT WAT WAT WAT WAT WAT WAT WAT 
WAT WAT WAT WAT WAT WAT WAT WAT WAT WAT WAT WAT WAT WAT WAT WAT WAT WAT WAT WAT 
WAT WAT WAT WAT WAT WAT WAT WAT WAT WAT WAT WAT WAT WAT WAT WAT WAT WAT WAT WAT 
WAT WAT WAT WAT WAT WAT WAT WAT WAT WAT WAT WAT WAT WAT WAT WAT WAT WAT WAT WAT 
WAT WAT WAT WAT WAT WAT WAT WAT WAT WAT WAT WAT WAT WAT WAT WAT WAT WAT WAT WAT 
WAT WAT WAT WAT WAT WAT WAT WAT WAT WAT WAT WAT WAT WAT WAT WAT WAT WAT WAT WAT 
WAT WAT WAT WAT WAT WAT WAT WAT WAT WAT WAT WAT WAT WAT WAT WAT WAT WAT WAT WAT 
WAT WAT WAT WAT WAT WAT WAT WAT WAT WAT WAT WAT WAT WAT WAT WAT WAT WAT WAT WAT 
WAT WAT WAT WAT WAT WAT WAT WAT WAT WAT WAT WAT WAT WAT WAT WAT WAT WAT WAT WAT 
WAT WAT WAT WAT WAT WAT WAT WAT WAT WAT WAT WAT WAT WAT WAT WAT WAT WAT WAT WAT 
WAT WAT WAT WAT WAT WAT WAT WAT WAT WAT WAT WAT WAT WAT WAT WAT WAT WAT WAT WAT 
WAT WAT WAT WAT WAT WAT WAT WAT WAT WAT WAT WAT WAT WAT WAT WAT WAT WAT WAT WAT 
WAT WAT WAT WAT WAT WAT WAT WAT WAT WAT WAT WAT WAT WAT WAT WAT WAT WAT WAT WAT 
WAT WAT WAT WAT WAT WAT WAT WAT WAT WAT WAT WAT WAT WAT WAT WAT WAT WAT WAT WAT 
WAT WAT WAT WAT WAT WAT WAT WAT WAT WAT WAT WAT WAT WAT WAT WAT WAT WAT WAT WAT 
WAT WAT WAT WAT WAT WAT WAT WAT WAT WAT WAT WAT WAT WAT WAT WAT WAT WAT WAT WAT 
WAT WAT WAT WAT WAT WAT WAT WAT WAT WAT WAT WAT WAT WAT WAT WAT WAT WAT WAT WAT 
WAT WAT WAT WAT WAT WAT WAT WAT WAT WAT WAT WAT WAT WAT WAT WAT WAT WAT WAT WAT 
WAT WAT WAT WAT WAT WAT WAT WAT WAT WAT WAT WAT WAT WAT WAT WAT WAT WAT WAT WAT 
WAT WAT WAT WAT WAT WAT WAT WAT WAT WAT WAT WAT WAT WAT WAT WAT WAT WAT WAT WAT 
WAT WAT WAT WAT WAT WAT WAT WAT WAT WAT WAT WAT WAT WAT WAT WAT WAT WAT WAT WAT 
WAT WAT WAT WAT WAT WAT WAT WAT WAT WAT WAT WAT WAT WAT WAT WAT WAT WAT WAT WAT 
WAT WAT WAT WAT WAT WAT WAT WAT WAT WAT WAT WAT WAT WAT WAT WAT WAT WAT WAT WAT 
WAT WAT WAT WAT WAT WAT WAT WAT WAT WAT WAT WAT WAT WAT WAT WAT WAT WAT WAT WAT 
WAT WAT WAT WAT WAT WAT WAT WAT WAT WAT WAT WAT WAT WAT WAT WAT WAT WAT WAT WAT 
WAT WAT WAT WAT WAT WAT WAT WAT WAT WAT WAT WAT WAT WAT WAT WAT WAT WAT WAT WAT 
WAT WAT WAT WAT WAT WAT WAT WAT WAT WAT WAT WAT WAT WAT WAT WAT WAT WAT WAT WAT 
WAT WAT WAT WAT WAT WAT WAT WAT WAT WAT WAT WAT WAT WAT WAT WAT WAT WAT WAT WAT 
WAT WAT WAT WAT WAT WAT WAT WAT WAT WAT WAT WAT WAT WAT WAT WAT WAT WAT WAT WAT 
WAT WAT WAT WAT WAT WAT WAT WAT WAT WAT WAT WAT WAT WAT WAT WAT WAT WAT WAT WAT 
WAT WAT WAT WAT WAT WAT WAT WAT WAT WAT WAT WAT WAT WAT WAT WAT WAT WAT WAT WAT 
WAT WAT WAT WAT WAT WAT WAT WAT WAT WAT WAT WAT WAT WAT WAT WAT WAT WAT WAT WAT 
WAT WAT WAT WAT WAT WAT WAT WAT WAT WAT WAT WAT WAT WAT WAT WAT WAT WAT WAT WAT 
WAT WAT WAT WAT WAT WAT WAT WAT WAT WAT WAT WAT WAT WAT WAT WAT WAT WAT WAT WAT 
WAT WAT WAT WAT WAT WAT WAT WAT WAT WAT WAT WAT WAT WAT WAT WAT WAT WAT WAT WAT 
WAT WAT WAT WAT WAT WAT WAT WAT WAT WAT WAT WAT WAT WAT WAT WAT WAT WAT WAT WAT 
WAT WAT WAT WAT WAT WAT WAT WAT WAT WAT WAT WAT WAT WAT WAT WAT WAT WAT WAT WAT 
WAT WAT WAT WAT WAT WAT WAT WAT WAT WAT WAT WAT WAT WAT WAT WAT WAT WAT WAT WAT 
WAT WAT WAT WAT WAT WAT WAT WAT WAT WAT WAT WAT WAT WAT WAT WAT WAT WAT WAT WAT 
WAT WAT WAT WAT WAT WAT WAT WAT WAT WAT WAT WAT WAT WAT WAT WAT WAT WAT WAT WAT 
WAT WAT WAT WAT WAT WAT WAT WAT WAT WAT WAT WAT WAT WAT WAT WAT WAT WAT WAT WAT 
WAT WAT WAT WAT WAT WAT WAT WAT WAT WAT WAT WAT WAT WAT WAT WAT WAT WAT WAT WAT 
WAT WAT WAT WAT WAT WAT WAT WAT WAT WAT WAT WAT WAT WAT WAT WAT WAT WAT WAT WAT 
WAT WAT WAT WAT WAT WAT WAT WAT WAT WAT WAT WAT WAT WAT WAT WAT WAT WAT WAT WAT 
WAT WAT WAT WAT WAT WAT WAT WAT WAT WAT WAT WAT WAT WAT WAT WAT WAT WAT WAT WAT 
WAT WAT WAT WAT WAT WAT WAT WAT WAT WAT WAT WAT WAT WAT WAT WAT WAT WAT WAT WAT 
WAT WAT WAT WAT WAT WAT WAT WAT WAT WAT WAT WAT WAT WAT WAT WAT WAT WAT WAT WAT 
WAT WAT WAT WAT WAT WAT WAT WAT WAT WAT WAT WAT WAT WAT WAT WAT WAT WAT WAT WAT 
WAT WAT WAT WAT WAT WAT WAT WAT WAT WAT WAT WAT WAT WAT WAT WAT WAT WAT WAT WAT 
WAT WAT WAT WAT WAT WAT WAT WAT WAT WAT WAT WAT WAT WAT WAT WAT WAT WAT WAT WAT 
WAT WAT WAT WAT WAT WAT WAT WAT WAT WAT WAT WAT WAT WAT WAT WAT WAT WAT WAT WAT 
WAT WAT WAT WAT WAT WAT WAT WAT WAT WAT WAT WAT WAT WAT WAT WAT WAT WAT WAT WAT 
WAT WAT WAT WAT WAT WAT WAT WAT WAT WAT WAT WAT WAT WAT WAT WAT WAT WAT WAT WAT 
WAT WAT WAT WAT WAT WAT WAT WAT WAT WAT WAT WAT WAT WAT WAT WAT WAT WAT WAT WAT 
WAT WAT WAT WAT WAT WAT WAT WAT WAT WAT WAT WAT WAT WAT WAT WAT WAT WAT WAT WAT 
WAT WAT WAT WAT WAT WAT WAT WAT WAT WAT WAT WAT WAT WAT WAT WAT WAT WAT WAT WAT 
WAT WAT WAT WAT WAT WAT WAT WAT WAT WAT WAT WAT WAT WAT WAT WAT WAT WAT WAT WAT 
WAT WAT WAT WAT WAT WAT WAT WAT WAT WAT WAT WAT WAT WAT WAT WAT WAT WAT WAT WAT 
WAT WAT WAT WAT WAT WAT WAT WAT WAT WAT WAT WAT WAT WAT WAT WAT WAT WAT WAT WAT 
WAT WAT WAT WAT WAT WAT WAT WAT WAT WAT WAT WAT WAT WAT WAT WAT WAT WAT WAT WAT 
WAT WAT WAT WAT WAT WAT WAT WAT WAT WAT WAT WAT WAT WAT WAT WAT WAT WAT WAT WAT 
WAT WAT WAT WAT 
%FLAG RESIDUE_POINTER                                                           
%FORMAT(10I8)                                                                   
       1      40      41      42      45      48      51      54      57      60
      63      66      69      72      75      78      81      84      87      90
      93      96      99     102     105     108     111     114     117     120
     123     126     129     132     135     138     141     144     147     150
     153     156     159     162     165     168     171     174     177     180
     183     186     189     192     195     198     201     204     207     210
     213     216     219     222     225     228     231     234     237     240
     243     246     249     252     255     258     261     264     267     270
     273     276     279     282     285     288     291     294     297     300
     303     306     309     312     315     318     321     324     327     330
     333     336     339     342     345     348     351     354     357     360
     363     366     369     372     375     378     381     384     387     390
     393     396     399     402     405     408     411     414     417     420
     423     426     429     432     435     438     441     444     447     450
     453     456     459     462     465     468     471     474     477     480
     483     486     489     492     495     498     501     504     507     510
     513     516     519     522     525     528     531     534     537     540
     543     546     549     552     555     558     561     564     567     570
     573     576     579     582     585     588     591     594     597     600
     603     606     609     612     615     618     621     624     627     630
     633     636     639     642     645     648     651     654     657     660
     663     666     669     672     675     678     681     684     687     690
     693     696     699     702     705     708     711     714     717     720
     723     726     729     732     735     738     741     744     747     750
     753     756     759     762     765     768     771     774     777     780
     783     786     789     792     795     798     801     804     807     810
     813     816     819     822     825     828     831     834     837     840
     843     846     849     852     855     858     861     864     867     870
     873     876     879     882     885     888     891     894     897     900
     903     906     909     912     915     918     921     924     927     930
     933     936     939     942     945     948     951     954     957     960
     963     966     969     972     975     978     981     984     987     990
     993     996     999    1002    1005    1008    1011    1014    1017    1020
    1023    1026    1029    1032    1035    1038    1041    1044    1047    1050
    1053    1056    1059    1062    1065    1068    1071    1074    1077    1080
    1083    1086    1089    1092    1095    1098    1101    1104    1107    1110
    1113    1116    1119    1122    1125    1128    1131    1134    1137    1140
    1143    1146    1149    1152    1155    1158    1161    1164    1167    1170
    1173    1176    1179    1182    1185    1188    1191    1194    1197    1200
    1203    1206    1209    1212    1215    1218    1221    1224    1227    1230
    1233    1236    1239    1242    1245    1248    1251    1254    1257    1260
    1263    1266    1269    1272    1275    1278    1281    1284    1287    1290
    1293    1296    1299    1302    1305    1308    1311    1314    1317    1320
    1323    1326    1329    1332    1335    1338    1341    1344    1347    1350
    1353    1356    1359    1362    1365    1368    1371    1374    1377    1380
    1383    1386    1389    1392    1395    1398    1401    1404    1407    1410
    1413    1416    1419    1422    1425    1428    1431    1434    1437    1440
    1443    1446    1449    1452    1455    1458    1461    1464    1467    1470
    1473    1476    1479    1482    1485    1488    1491    1494    1497    1500
    1503    1506    1509    1512    1515    1518    1521    1524    1527    1530
    1533    1536    1539    1542    1545    1548    1551    1554    1557    1560
    1563    1566    1569    1572    1575    1578    1581    1584    1587    1590
    1593    1596    1599    1602    1605    1608    1611    1614    1617    1620
    1623    1626    1629    1632    1635    1638    1641    1644    1647    1650
    1653    1656    1659    1662    1665    1668    1671    1674    1677    1680
    1683    1686    1689    1692    1695    1698    1701    1704    1707    1710
    1713    1716    1719    1722    1725    1728    1731    1734    1737    1740
    1743    1746    1749    1752    1755    1758    1761    1764    1767    1770
    1773    1776    1779    1782    1785    1788    1791    1794    1797    1800
    1803    1806    1809    1812    1815    1818    1821    1824    1827    1830
    1833    1836    1839    1842    1845    1848    1851    1854    1857    1860
    1863    1866    1869    1872    1875    1878    1881    1884    1887    1890
    1893    1896    1899    1902    1905    1908    1911    1914    1917    1920
    1923    1926    1929    1932    1935    1938    1941    1944    1947    1950
    1953    1956    1959    1962    1965    1968    1971    1974    1977    1980
    1983    1986    1989    1992    1995    1998    2001    2004    2007    2010
    2013    2016    2019    2022    2025    2028    2031    2034    2037    2040
    2043    2046    2049    2052    2055    2058    2061    2064    2067    2070
    2073    2076    2079    2082    2085    2088    2091    2094    2097    2100
    2103    2106    2109    2112    2115    2118    2121    2124    2127    2130
    2133    2136    2139    2142    2145    2148    2151    2154    2157    2160
    2163    2166    2169    2172    2175    2178    2181    2184    2187    2190
    2193    2196    2199    2202    2205    2208    2211    2214    2217    2220
    2223    2226    2229    2232    2235    2238    2241    2244    2247    2250
    2253    2256    2259    2262    2265    2268    2271    2274    2277    2280
    2283    2286    2289    2292    2295    2298    2301    2304    2307    2310
    2313    2316    2319    2322    2325    2328    2331    2334    2337    2340
    2343    2346    2349    2352    2355    2358    2361    2364    2367    2370
    2373    2376    2379    2382    2385    2388    2391    2394    2397    2400
    2403    2406    2409    2412    2415    2418    2421    2424    2427    2430
    2433    2436    2439    2442    2445    2448    2451    2454    2457    2460
    2463    2466    2469    2472    2475    2478    2481    2484    2487    2490
    2493    2496    2499    2502    2505    2508    2511    2514    2517    2520
    2523    2526    2529    2532    2535    2538    2541    2544    2547    2550
    2553    2556    2559    2562    2565    2568    2571    2574    2577    2580
    2583    2586    2589    2592    2595    2598    2601    2604    2607    2610
    2613    2616    2619    2622    2625    2628    2631    2634    2637    2640
    2643    2646    2649    2652    2655    2658    2661    2664    2667    2670
    2673    2676    2679    2682    2685    2688    2691    2694    2697    2700
    2703    2706    2709    2712    2715    2718    2721    2724    2727    2730
    2733    2736    2739    2742    2745    2748    2751    2754    2757    2760
    2763    2766    2769    2772    2775    2778    2781    2784    2787    2790
    2793    2796    2799    2802    2805    2808    2811    2814    2817    2820
    2823    2826    2829    2832    2835    2838    2841    2844    2847    2850
    2853    2856    2859    2862    2865    2868    2871    2874    2877    2880
    2883    2886    2889    2892    2895    2898    2901    2904    2907    2910
    2913    2916    2919    2922    2925    2928    2931    2934    2937    2940
    2943    2946    2949    2952    2955    2958    2961    2964    2967    2970
    2973    2976    2979    2982    2985    2988    2991    2994    2997    3000
    3003    3006    3009    3012    3015    3018    3021    3024    3027    3030
    3033    3036    3039    3042    3045    3048    3051    3054    3057    3060
    3063    3066    3069    3072    3075    3078    3081    3084    3087    3090
    3093    3096    3099    3102    3105    3108    3111    3114    3117    3120
    3123    3126    3129    3132    3135    3138    3141    3144    3147    3150
    3153    3156    3159    3162    3165    3168    3171    3174    3177    3180
    3183    3186    3189    3192    3195    3198    3201    3204    3207    3210
    3213    3216    3219    3222    3225    3228    3231    3234    3237    3240
    3243    3246    3249    3252    3255    3258    3261    3264    3267    3270
    3273    3276    3279    3282    3285    3288    3291    3294    3297    3300
    3303    3306    3309    3312    3315    3318    3321    3324    3327    3330
    3333    3336    3339    3342    3345    3348    3351    3354    3357    3360
    3363    3366    3369    3372    3375    3378    3381    3384    3387    3390
    3393    3396    3399    3402    3405    3408    3411    3414    3417    3420
    3423    3426    3429    3432    3435    3438    3441    3444    3447    3450
    3453    3456    3459    3462    3465    3468    3471    3474    3477    3480
    3483    3486    3489    3492    3495    3498    3501    3504    3507    3510
    3513    3516    3519    3522    3525    3528    3531    3534    3537    3540
    3543    3546    3549    3552    3555    3558    3561    3564    3567    3570
    3573    3576    3579    3582    3585    3588    3591    3594    3597    3600
    3603    3606    3609    3612    3615    3618    3621    3624    3627    3630
    3633    3636    3639    3642    3645    3648    3651    3654    3657    3660
    3663    3666    3669    3672    3675    3678    3681    3684    3687    3690
    3693    3696    3699    3702    3705    3708    3711    3714    3717    3720
    3723    3726    3729    3732    3735    3738    3741    3744    3747    3750
    3753    3756    3759    3762    3765    3768    3771    3774    3777    3780
    3783    3786    3789    3792    3795    3798    3801    3804    3807    3810
    3813    3816    3819    3822    3825    3828    3831    3834    3837    3840
    3843    3846    3849    3852    3855    3858    3861    3864    3867    3870
    3873    3876    3879    3882    3885    3888    3891    3894    3897    3900
    3903    3906    3909    3912    3915    3918    3921    3924    3927    3930
    3933    3936    3939    3942    3945    3948    3951    3954    3957    3960
    3963    3966    3969    3972    3975    3978    3981    3984    3987    3990
    3993    3996    3999    4002    4005    4008    4011    4014    4017    4020
    4023    4026    4029    4032    4035    4038    4041    4044    4047    4050
    4053    4056    4059    4062    4065    4068    4071    4074    4077    4080
    4083    4086    4089    4092    4095    4098    4101    4104    4107    4110
    4113    4116    4119    4122    4125    4128    4131    4134    4137    4140
    4143    4146    4149    4152    4155    4158    4161    4164    4167    4170
    4173    4176    4179    4182    4185    4188    4191    4194    4197    4200
    4203    4206    4209    4212    4215    4218    4221    4224    4227    4230
    4233    4236    4239    4242    4245    4248    4251    4254    4257    4260
    4263    4266    4269    4272    4275    4278    4281    4284    4287    4290
    4293    4296    4299    4302    4305    4308    4311    4314    4317    4320
    4323    4326    4329    4332    4335    4338    4341    4344    4347    4350
    4353    4356    4359    4362    4365    4368    4371    4374    4377    4380
    4383    4386    4389    4392    4395    4398    4401    4404    4407    4410
    4413    4416    4419    4422    4425    4428    4431    4434    4437    4440
    4443    4446    4449    4452    4455    4458    4461    4464    4467    4470
    4473    4476    4479    4482    4485    4488    4491    4494    4497    4500
    4503    4506    4509    4512    4515    4518    4521    4524    4527    4530
    4533    4536    4539    4542    4545    4548    4551    4554    4557    4560
    4563    4566    4569    4572    4575    4578    4581    4584    4587    4590
    4593    4596    4599    4602    4605    4608    4611    4614    4617    4620
    4623    4626    4629    4632    4635    4638    4641    4644    4647    4650
    4653    4656    4659    4662    4665    4668    4671    4674    4677    4680
    4683    4686    4689    4692    4695    4698    4701    4704    4707    4710
    4713    4716    4719    4722    4725    4728    4731    4734    4737    4740
    4743    4746    4749    4752    4755    4758    4761    4764    4767    4770
    4773    4776    4779    4782    4785    4788    4791    4794    4797    4800
    4803    4806    4809    4812    4815    4818    4821    4824    4827    4830
    4833    4836    4839    4842    4845    4848    4851    4854    4857    4860
    4863    4866    4869    4872    4875    4878    4881    4884    4887    4890
    4893    4896    4899    4902    4905    4908    4911    4914    4917    4920
    4923    4926    4929    4932    4935    4938    4941    4944    4947    4950
    4953    4956    4959    4962    4965    4968    4971    4974    4977    4980
    4983    4986    4989    4992    4995    4998    5001    5004    5007    5010
    5013    5016    5019    5022    5025    5028    5031    5034    5037    5040
    5043    5046    5049    5052    5055    5058    5061    5064    5067    5070
    5073    5076    5079    5082    5085    5088    5091    5094    5097    5100
    5103    5106    5109    5112    5115    5118    5121    5124    5127    5130
    5133    5136    5139    5142    5145    5148    5151    5154    5157    5160
    5163    5166    5169    5172    5175    5178    5181    5184    5187    5190
    5193    5196    5199    5202    5205    5208    5211    5214    5217    5220
    5223    5226    5229    5232    5235    5238    5241    5244    5247    5250
    5253    5256    5259    5262    5265    5268    5271    5274    5277    5280
    5283    5286    5289    5292    5295    5298    5301    5304    5307    5310
    5313    5316    5319    5322    5325    5328    5331    5334    5337    5340
    5343    5346    5349    5352    5355    5358    5361    5364    5367    5370
    5373    5376    5379    5382    5385    5388    5391    5394    5397    5400
    5403    5406    5409    5412    5415    5418    5421    5424    5427    5430
    5433    5436    5439    5442    5445    5448    5451    5454    5457    5460
    5463    5466    5469    5472    5475    5478    5481    5484    5487    5490
    5493    5496    5499    5502    5505    5508    5511    5514    5517    5520
    5523    5526    5529    5532    5535    5538    5541    5544    5547    5550
    5553    5556    5559    5562    5565    5568    5571    5574    5577    5580
    5583    5586    5589    5592    5595    5598    5601    5604    5607    5610
    5613    5616    5619    5622    5625    5628    5631    5634    5637    5640
    5643    5646    5649    5652    5655    5658    5661    5664    5667    5670
    5673    5676    5679    5682    5685    5688    5691    5694    5697    5700
    5703    5706    5709    5712    5715    5718    5721    5724    5727    5730
    5733    5736    5739    5742    5745    5748    5751    5754    5757    5760
    5763    5766    5769    5772    5775    5778    5781    5784    5787    5790
    5793    5796    5799    5802    5805    5808    5811    5814    5817    5820
    5823    5826    5829    5832    5835    5838    5841    5844    5847    5850
    5853    5856    5859    5862    5865    5868    5871    5874    5877    5880
    5883    5886    5889    5892    5895    5898    5901    5904    5907    5910
    5913    5916    5919    5922    5925    5928    5931    5934    5937    5940
    5943    5946    5949    5952    5955    5958    5961    5964    5967    5970
    5973    5976    5979    5982    5985    5988    5991    5994    5997    6000
    6003    6006    6009    6012    6015    6018    6021    6024    6027    6030
    6033    6036    6039    6042    6045    6048    6051    6054    6057    6060
    6063    6066    6069    6072    6075    6078    6081    6084    6087    6090
    6093    6096    6099    6102    6105    6108    6111    6114    6117    6120
    6123    6126    6129    6132    6135    6138    6141    6144    6147    6150
    6153    6156    6159    6162    6165    6168    6171    6174    6177    6180
    6183    6186    6189    6192    6195    6198    6201    6204    6207    6210
    6213    6216    6219    6222    6225    6228    6231    6234    6237    6240
    6243    6246    6249    6252    6255    6258    6261    6264    6267    6270
    6273    6276    6279    6282    6285    6288    6291    6294    6297    6300
    6303    6306    6309    6312    6315    6318    6321    6324    6327    6330
    6333    6336    6339    6342    6345    6348    6351    6354    6357    6360
    6363    6366    6369    6372    6375    6378    6381    6384    6387    6390
    6393    6396    6399    6402    6405    6408    6411    6414    6417    6420
    6423    6426    6429    6432    6435    6438    6441    6444    6447    6450
    6453    6456    6459    6462    6465    6468    6471    6474    6477    6480
    6483    6486    6489    6492    6495    6498    6501    6504    6507    6510
    6513    6516    6519    6522    6525    6528    6531    6534    6537    6540
    6543    6546    6549    6552    6555    6558    6561    6564    6567    6570
    6573    6576    6579    6582    6585    6588    6591    6594    6597    6600
    6603    6606    6609    6612    6615    6618    6621    6624    6627    6630
    6633    6636    6639    6642    6645    6648    6651    6654    6657    6660
    6663    6666    6669    6672    6675    6678    6681    6684    6687    6690
    6693    6696    6699    6702    6705    6708    6711    6714    6717    6720
    6723    6726    6729    6732    6735    6738    6741    6744    6747    6750
    6753    6756    6759    6762    6765    6768    6771    6774    6777    6780
    6783    6786    6789    6792    6795    6798    6801    6804    6807    6810
    6813    6816    6819    6822    6825    6828    6831    6834    6837    6840
    6843    6846    6849    6852    6855    6858    6861    6864    6867    6870
    6873    6876    6879    6882    6885    6888    6891    6894    6897    6900
    6903    6906    6909    6912    6915    6918    6921    6924    6927    6930
    6933    6936    6939    6942    6945    6948    6951    6954    6957    6960
    6963    6966    6969    6972    6975    6978    6981    6984    6987    6990
    6993    6996    6999    7002    7005    7008    7011    7014    7017    7020
    7023    7026    7029    7032    7035    7038    7041    7044    7047    7050
    7053    7056    7059    7062    7065    7068    7071    7074    7077    7080
    7083    7086    7089    7092    7095    7098    7101    7104    7107    7110
    7113    7116    7119    7122    7125    7128    7131    7134    7137    7140
    7143    7146    7149    7152    7155    7158    7161    7164    7167    7170
    7173    7176    7179    7182    7185    7188    7191    7194    7197    7200
    7203    7206    7209    7212    7215    7218    7221    7224    7227    7230
    7233    7236    7239    7242    7245    7248    7251    7254    7257    7260
    7263    7266    7269    7272    7275    7278    7281    7284    7287    7290
    7293    7296    7299    7302    7305    7308    7311    7314    7317    7320
    7323    7326    7329    7332    7335    7338    7341    7344    7347    7350
    7353    7356    7359    7362    7365    7368    7371    7374    7377    7380
    7383    7386    7389    7392    7395    7398    7401    7404    7407    7410
    7413    7416    7419    7422    7425    7428    7431    7434    7437    7440
    7443    7446    7449    7452    7455    7458    7461    7464    7467    7470
    7473    7476    7479    7482    7485    7488    7491    7494    7497    7500
    7503    7506    7509    7512    7515    7518    7521    7524    7527    7530
    7533    7536    7539    7542    7545    7548    7551    7554    7557    7560
    7563    7566    7569    7572    7575    7578    7581    7584    7587    7590
    7593    7596    7599    7602    7605    7608    7611    7614    7617    7620
    7623    7626    7629    7632    7635    7638    7641    7644    7647    7650
    7653    7656    7659    7662    7665    7668    7671    7674    7677    7680
    7683    7686    7689    7692    7695    7698    7701    7704    7707    7710
    7713    7716    7719    7722    7725    7728    7731    7734    7737    7740
    7743    7746    7749    7752    7755    7758    7761    7764    7767    7770
    7773    7776    7779    7782    7785    7788    7791    7794    7797    7800
    7803    7806    7809    7812    7815    7818    7821    7824    7827    7830
    7833    7836    7839    7842    7845    7848    7851    7854    7857    7860
    7863    7866    7869    7872    7875    7878    7881    7884    7887    7890
    7893    7896    7899    7902    7905    7908    7911    7914    7917    7920
    7923    7926    7929    7932    7935    7938    7941    7944    7947    7950
    7953    7956    7959    7962    7965    7968    7971    7974    7977    7980
    7983    7986    7989    7992    7995    7998    8001    8004    8007    8010
    8013    8016    8019    8022    8025    8028    8031    8034    8037    8040
    8043    8046    8049    8052    8055    8058    8061    8064    8067    8070
    8073    8076    8079    8082    8085    8088    8091    8094    8097    8100
    8103    8106    8109    8112    8115    8118    8121    8124    8127    8130
    8133    8136    8139    8142    8145    8148    8151    8154    8157    8160
    8163    8166    8169    8172    8175    8178    8181    8184    8187    8190
    8193    8196    8199    8202    8205    8208    8211    8214    8217    8220
    8223    8226    8229    8232    8235    8238    8241    8244    8247    8250
    8253    8256    8259    8262    8265    8268    8271    8274    8277    8280
    8283    8286    8289    8292    8295    8298    8301    8304    8307    8310
    8313    8316    8319    8322    8325    8328    8331    8334    8337    8340
    8343    8346    8349    8352    8355    8358    8361    8364    8367    8370
    8373    8376    8379    8382    8385    8388    8391    8394    8397    8400
    8403    8406    8409    8412    8415    8418    8421    8424    8427    8430
    8433    8436    8439    8442    8445    8448    8451    8454    8457    8460
    8463    8466    8469    8472    8475    8478    8481    8484    8487    8490
    8493    8496    8499    8502    8505    8508    8511    8514    8517    8520
    8523    8526    8529    8532    8535    8538    8541    8544    8547    8550
    8553    8556    8559    8562    8565    8568    8571    8574    8577    8580
    8583    8586    8589    8592    8595    8598    8601    8604    8607    8610
    8613    8616    8619    8622    8625    8628    8631    8634    8637    8640
    8643    8646    8649    8652    8655    8658    8661    8664    8667    8670
    8673    8676    8679    8682    8685    8688    8691    8694    8697    8700
    8703    8706    8709    8712    8715    8718    8721    8724    8727    8730
    8733    8736    8739    8742    8745    8748    8751    8754    8757    8760
    8763    8766    8769    8772    8775    8778    8781    8784    8787    8790
    8793    8796    8799    8802    8805    8808    8811    8814    8817    8820
    8823    8826    8829    8832    8835    8838    8841    8844    8847    8850
    8853    8856    8859    8862    8865    8868    8871    8874    8877    8880
    8883    8886    8889    8892    8895    8898    8901    8904    8907    8910
    8913    8916    8919    8922    8925    8928    8931    8934    8937    8940
    8943    8946    8949    8952    8955    8958    8961    8964    8967    8970
    8973    8976    8979    8982    8985    8988    8991    8994    8997    9000
    9003    9006    9009    9012    9015    9018    9021    9024    9027    9030
    9033    9036    9039    9042    9045    9048    9051    9054    9057    9060
    9063    9066    9069    9072    9075    9078    9081    9084    9087    9090
    9093    9096    9099    9102    9105    9108    9111    9114    9117    9120
    9123    9126    9129    9132    9135    9138    9141    9144    9147    9150
    9153    9156    9159    9162    9165    9168    9171    9174    9177    9180
    9183    9186    9189    9192    9195    9198    9201    9204    9207    9210
    9213    9216    9219    9222    9225    9228    9231    9234    9237    9240
    9243    9246    9249    9252    9255    9258    9261    9264    9267    9270
    9273    9276    9279    9282    9285    9288    9291    9294    9297    9300
    9303    9306    9309    9312    9315    9318    9321    9324    9327    9330
    9333    9336    9339    9342    9345    9348    9351    9354    9357    9360
    9363    9366    9369    9372    9375    9378    9381    9384    9387    9390
    9393    9396    9399    9402    9405    9408    9411    9414    9417    9420
    9423    9426    9429    9432    9435    9438    9441    9444    9447    9450
    9453    9456    9459    9462    9465    9468    9471    9474    9477    9480
    9483    9486    9489    9492    9495    9498    9501    9504    9507    9510
    9513    9516    9519    9522    9525    9528    9531    9534    9537    9540
    9543    9546    9549    9552    9555    9558    9561    9564    9567    9570
    9573    9576    9579    9582    9585    9588    9591    9594    9597    9600
    9603    9606    9609    9612    9615    9618    9621    9624    9627    9630
    9633    9636    9639    9642    9645    9648    9651    9654    9657    9660
    9663    9666    9669    9672    9675    9678    9681    9684    9687    9690
    9693    9696    9699    9702    9705    9708    9711    9714    9717    9720
    9723    9726    9729    9732    9735    9738    9741    9744    9747    9750
    9753    9756    9759    9762    9765    9768    9771    9774    9777    9780
    9783    9786    9789    9792    9795    9798    9801    9804    9807    9810
    9813    9816    9819    9822    9825    9828    9831    9834    9837    9840
    9843    9846    9849    9852    9855    9858    9861    9864    9867    9870
    9873    9876    9879    9882    9885    9888    9891    9894    9897    9900
    9903    9906    9909    9912    9915    9918    9921    9924    9927    9930
    9933    9936    9939    9942    9945    9948    9951    9954    9957    9960
    9963    9966    9969    9972    9975    9978    9981    9984    9987    9990
    9993    9996    9999   10002   10005   10008   10011   10014   10017   10020
   10023   10026   10029   10032   10035   10038   10041   10044   10047   10050
   10053   10056   10059   10062   10065   10068   10071   10074   10077   10080
   10083   10086   10089   10092   10095   10098   10101   10104   10107   10110
   10113   10116   10119   10122   10125   10128   10131   10134   10137   10140
   10143   10146   10149   10152   10155   10158   10161   10164   10167   10170
   10173   10176   10179   10182   10185   10188   10191   10194   10197   10200
   10203   10206   10209   10212   10215   10218   10221   10224   10227   10230
   10233   10236   10239   10242   10245   10248   10251   10254   10257   10260
   10263   10266   10269   10272   10275   10278   10281   10284   10287   10290
   10293   10296   10299   10302   10305   10308   10311   10314   10317   10320
   10323   10326   10329   10332   10335   10338   10341   10344   10347   10350
   10353   10356   10359   10362   10365   10368   10371   10374   10377   10380
   10383   10386   10389   10392   10395   10398   10401   10404   10407   10410
   10413   10416   10419   10422   10425   10428   10431   10434   10437   10440
   10443   10446   10449   10452   10455   10458   10461   10464   10467   10470
   10473   10476   10479   10482   10485   10488   10491   10494   10497   10500
   10503   10506   10509   10512   10515   10518   10521   10524   10527   10530
   10533   10536   10539   10542   10545   10548   10551   10554   10557   10560
   10563   10566   10569   10572   10575   10578   10581   10584   10587   10590
   10593   10596   10599   10602   10605   10608   10611   10614   10617   10620
   10623   10626   10629   10632   10635   10638   10641   10644   10647   10650
   10653   10656   10659   10662   10665   10668   10671   10674   10677   10680
   10683   10686   10689   10692   10695   10698   10701   10704   10707   10710
   10713   10716   10719   10722   10725   10728   10731   10734   10737   10740
   10743   10746   10749   10752   10755   10758   10761   10764   10767   10770
   10773   10776   10779   10782   10785   10788   10791   10794   10797   10800
   10803   10806   10809   10812   10815   10818   10821   10824   10827   10830
   10833   10836   10839   10842   10845   10848   10851   10854   10857   10860
   10863   10866   10869   10872   10875   10878   10881   10884   10887   10890
   10893   10896   10899   10902   10905   10908   10911   10914   10917   10920
   10923   10926   10929   10932   10935   10938   10941   10944   10947   10950
   10953   10956   10959   10962   10965   10968   10971   10974   10977   10980
   10983   10986   10989   10992   10995   10998   11001   11004   11007   11010
   11013   11016   11019   11022   11025   11028   11031   11034   11037   11040
   11043   11046   11049   11052   11055   11058   11061   11064   11067   11070
   11073   11076   11079   11082   11085   11088   11091   11094   11097   11100
   11103   11106   11109   11112   11115   11118   11121   11124   11127   11130
   11133   11136   11139   11142   11145   11148   11151   11154   11157   11160
   11163   11166   11169   11172   11175   11178   11181   11184   11187   11190
   11193   11196   11199   11202   11205   11208   11211   11214   11217   11220
   11223   11226   11229   11232   11235   11238   11241   11244   11247   11250
   11253   11256   11259   11262   11265   11268   11271   11274   11277   11280
   11283   11286   11289   11292   11295   11298   11301   11304   11307   11310
   11313   11316   11319   11322   11325   11328   11331   11334   11337   11340
   11343   11346   11349   11352   11355   11358   11361   11364   11367   11370
   11373   11376   11379   11382   11385   11388   11391   11394   11397   11400
   11403   11406   11409   11412   11415   11418   11421   11424   11427   11430
   11433   11436   11439   11442   11445   11448   11451   11454   11457   11460
   11463   11466   11469   11472   11475   11478   11481   11484   11487   11490
   11493   11496   11499   11502   11505   11508   11511   11514   11517   11520
   11523   11526   11529   11532   11535   11538   11541   11544   11547   11550
   11553   11556   11559   11562   11565   11568   11571   11574   11577   11580
   11583   11586   11589   11592   11595   11598   11601   11604   11607   11610
   11613   11616   11619   11622   11625   11628   11631   11634   11637   11640
   11643   11646   11649   11652   11655   11658   11661   11664   11667   11670
   11673   11676   11679   11682   11685   11688   11691   11694   11697   11700
   11703   11706   11709   11712   11715   11718   11721   11724   11727   11730
   11733   11736   11739   11742   11745   11748   11751   11754   11757   11760
   11763   11766   11769   11772   11775   11778   11781   11784   11787   11790
   11793   11796   11799   11802   11805   11808   11811   11814   11817   11820
   11823   11826   11829   11832   11835   11838   11841   11844   11847   11850
   11853   11856   11859   11862   11865   11868   11871   11874   11877   11880
   11883   11886   11889   11892   11895   11898   11901   11904   11907   11910
   11913   11916   11919   11922   11925   11928   11931   11934   11937   11940
   11943   11946   11949   11952   11955   11958   11961   11964   11967   11970
   11973   11976   11979   11982   11985   11988   11991   11994   11997   12000
   12003   12006   12009   12012   12015   12018   12021   12024   12027   12030
   12033   12036   12039   12042   12045   12048   12051   12054   12057   12060
   12063   12066   12069   12072   12075   12078   12081   12084   12087   12090
   12093   12096   12099   12102   12105   12108   12111   12114   12117   12120
   12123   12126   12129   12132   12135   12138   12141   12144   12147   12150
   12153   12156   12159   12162   12165   12168   12171   12174   12177   12180
   12183   12186   12189   12192   12195   12198   12201   12204   12207   12210
   12213   12216   12219   12222   12225   12228   12231   12234   12237   12240
   12243   12246   12249   12252   12255   12258   12261   12264   12267   12270
   12273   12276   12279   12282   12285   12288   12291   12294   12297   12300
   12303   12306   12309   12312   12315   12318   12321   12324   12327   12330
   12333   12336   12339   12342   12345   12348   12351   12354   12357   12360
   12363   12366   12369   12372   12375   12378   12381   12384   12387   12390
   12393   12396   12399   12402   12405   12408   12411   12414   12417   12420
   12423   12426   12429   12432   12435   12438   12441   12444   12447   12450
   12453   12456   12459   12462   12465   12468   12471   12474   12477   12480
   12483   12486   12489   12492   12495   12498   12501   12504   12507   12510
   12513   12516   12519   12522   12525   12528   12531   12534   12537   12540
   12543   12546   12549   12552   12555   12558   12561   12564   12567   12570
   12573   12576   12579   12582   12585   12588   12591   12594   12597   12600
   12603   12606   12609   12612   12615   12618   12621   12624   12627   12630
   12633   12636   12639   12642   12645   12648   12651   12654   12657   12660
   12663   12666   12669   12672   12675   12678   12681   12684   12687   12690
   12693   12696   12699   12702   12705   12708   12711   12714   12717   12720
   12723   12726   12729   12732   12735   12738   12741   12744   12747   12750
   12753   12756   12759   12762   12765   12768   12771   12774   12777   12780
   12783   12786   12789   12792   12795   12798   12801   12804   12807   12810
   12813   12816   12819   12822   12825   12828   12831   12834   12837   12840
   12843   12846   12849   12852   12855   12858   12861   12864   12867   12870
   12873   12876   12879   12882   12885   12888   12891   12894   12897   12900
   12903   12906   12909   12912   12915   12918   12921   12924   12927   12930
   12933   12936   12939   12942   12945   12948   12951   12954   12957   12960
   12963   12966   12969   12972   12975   12978   12981   12984   12987   12990
   12993   12996   12999   13002   13005   13008   13011   13014   13017   13020
   13023   13026   13029   13032   13035   13038   13041   13044   13047   13050
   13053   13056   13059   13062   13065   13068   13071   13074   13077   13080
   13083   13086   13089   13092   13095   13098   13101   13104   13107   13110
   13113   13116   13119   13122   13125   13128   13131   13134   13137   13140
   13143   13146   13149   13152   13155   13158   13161   13164   13167   13170
   13173   13176   13179   13182   13185   13188   13191   13194   13197   13200
   13203   13206   13209   13212   13215   13218   13221   13224   13227   13230
   13233   13236   13239   13242   13245   13248   13251   13254   13257   13260
   13263   13266   13269   13272   13275   13278   13281   13284   13287   13290
   13293   13296   13299   13302   13305   13308   13311   13314   13317   13320
   13323   13326   13329   13332   13335   13338   13341   13344   13347   13350
   13353   13356   13359   13362   13365   13368   13371   13374   13377   13380
   13383   13386   13389   13392   13395   13398   13401   13404   13407   13410
   13413   13416   13419   13422   13425   13428   13431   13434   13437   13440
   13443   13446   13449   13452   13455   13458   13461   13464   13467   13470
   13473   13476   13479   13482   13485   13488   13491   13494   13497   13500
   13503   13506   13509   13512   13515   13518   13521   13524   13527   13530
   13533   13536   13539   13542   13545   13548   13551   13554   13557   13560
   13563   13566   13569   13572   13575   13578   13581   13584   13587   13590
   13593   13596   13599   13602   13605   13608   13611   13614   13617   13620
   13623   13626   13629   13632   13635   13638   13641   13644   13647   13650
   13653   13656   13659   13662   13665   13668   13671   13674   13677   13680
   13683   13686   13689   13692   13695   13698   13701   13704   13707   13710
   13713   13716   13719   13722   13725   13728   13731   13734   13737   13740
   13743   13746   13749   13752   13755   13758   13761   13764   13767   13770
   13773   13776   13779   13782   13785   13788   13791   13794   13797   13800
   13803   13806   13809   13812   13815   13818   13821   13824   13827   13830
   13833   13836   13839   13842   13845   13848   13851   13854   13857   13860
   13863   13866   13869   13872   13875   13878   13881   13884   13887   13890
   13893   13896   13899   13902   13905   13908   13911   13914   13917   13920
   13923   13926   13929   13932   13935   13938   13941   13944   13947   13950
   13953   13956   13959   13962   13965   13968   13971   13974   13977   13980
   13983   13986   13989   13992   13995   13998   14001   14004   14007   14010
   14013   14016   14019   14022   14025   14028   14031   14034   14037   14040
   14043   14046   14049   14052   14055   14058   14061   14064   14067   14070
   14073   14076   14079   14082   14085   14088   14091   14094   14097   14100
   14103   14106   14109   14112   14115   14118   14121   14124   14127   14130
   14133   14136   14139   14142   14145   14148   14151   14154   14157   14160
   14163   14166   14169   14172   14175   14178   14181   14184   14187   14190
   14193   14196   14199   14202   14205   14208   14211   14214   14217   14220
   14223   14226   14229   14232   14235   14238   14241   14244   14247   14250
   14253   14256   14259   14262   14265   14268   14271   14274   14277   14280
   14283   14286   14289   14292   14295   14298   14301   14304   14307   14310
   14313   14316   14319   14322   14325   14328   14331   14334   14337   14340
   14343   14346   14349   14352   14355   14358   14361   14364   14367   14370
   14373   14376   14379   14382   14385   14388   14391   14394   14397   14400
   14403   14406   14409   14412   14415   14418   14421   14424   14427   14430
   14433   14436   14439   14442   14445   14448   14451   14454   14457   14460
   14463   14466   14469   14472   14475   14478   14481   14484   14487   14490
   14493   14496   14499   14502   14505   14508   14511   14514   14517   14520
   14523   14526   14529   14532   14535   14538   14541   14544   14547   14550
   14553   14556   14559   14562   14565   14568   14571   14574   14577   14580
   14583   14586   14589   14592   14595   14598   14601   14604   14607   14610
   14613   14616   14619   14622   14625   14628   14631   14634   14637   14640
   14643   14646   14649   14652   14655   14658   14661   14664   14667   14670
   14673   14676   14679   14682   14685   14688   14691   14694   14697   14700
   14703   14706   14709   14712   14715   14718   14721   14724   14727   14730
   14733   14736   14739   14742   14745   14748   14751   14754   14757   14760
   14763   14766   14769   14772   14775   14778   14781   14784   14787   14790
   14793   14796   14799   14802   14805   14808   14811   14814   14817   14820
   14823   14826   14829   14832   14835   14838   14841   14844   14847   14850
   14853   14856   14859   14862   14865   14868   14871   14874   14877   14880
   14883   14886   14889   14892   14895   14898   14901   14904   14907   14910
   14913   14916   14919   14922   14925   14928   14931   14934   14937   14940
   14943   14946   14949   14952   14955   14958   14961   14964   14967   14970
   14973   14976   14979   14982   14985   14988   14991   14994   14997   15000
   15003   15006   15009   15012   15015   15018   15021   15024   15027   15030
   15033   15036   15039   15042   15045   15048   15051   15054   15057   15060
   15063   15066   15069   15072   15075   15078   15081   15084   15087   15090
   15093   15096   15099   15102   15105   15108   15111   15114   15117   15120
   15123   15126   15129   15132   15135   15138   15141   15144   15147   15150
   15153   15156   15159   15162   15165   15168   15171   15174   15177   15180
   15183   15186   15189   15192   15195   15198   15201   15204   15207   15210
   15213   15216   15219   15222   15225   15228   15231   15234   15237   15240
   15243   15246   15249   15252   15255   15258   15261   15264   15267   15270
   15273   15276   15279   15282   15285   15288   15291   15294   15297   15300
   15303   15306   15309   15312   15315   15318   15321   15324   15327   15330
   15333   15336   15339   15342   15345   15348   15351   15354   15357   15360
   15363   15366   15369   15372   15375   15378   15381   15384   15387   15390
   15393   15396   15399   15402   15405   15408   15411   15414   15417   15420
   15423   15426   15429   15432   15435   15438   15441   15444   15447   15450
   15453   15456   15459   15462   15465   15468   15471   15474   15477   15480
   15483   15486   15489   15492   15495   15498   15501   15504   15507   15510
   15513   15516   15519   15522   15525   15528   15531   15534   15537   15540
   15543   15546   15549   15552   15555   15558   15561   15564   15567   15570
   15573   15576   15579   15582   15585   15588   15591   15594   15597   15600
   15603   15606   15609   15612   15615   15618   15621   15624   15627   15630
   15633   15636   15639   15642   15645   15648   15651   15654   15657   15660
   15663   15666   15669   15672   15675   15678   15681   15684   15687   15690
   15693   15696   15699   15702   15705   15708   15711   15714   15717   15720
   15723   15726   15729   15732   15735   15738   15741   15744   15747   15750
   15753   15756   15759   15762   15765   15768   15771   15774   15777   15780
   15783   15786   15789   15792   15795   15798   15801   15804   15807   15810
   15813   15816   15819   15822   15825   15828   15831   15834   15837   15840
   15843   15846   15849   15852   15855   15858   15861   15864   15867   15870
   15873   15876   15879   15882   15885   15888   15891   15894   15897   15900
   15903   15906   15909   15912   15915   15918   15921   15924   15927   15930
   15933   15936   15939   15942   15945   15948   15951   15954   15957   15960
   15963   15966   15969   15972   15975   15978   15981   15984   15987   15990
   15993   15996   15999   16002   16005   16008   16011   16014   16017   16020
   16023   16026   16029   16032   16035   16038   16041   16044   16047   16050
   16053   16056   16059   16062   16065   16068   16071   16074   16077   16080
   16083   16086   16089   16092   16095   16098   16101   16104   16107   16110
   16113   16116   16119   16122   16125   16128   16131   16134   16137   16140
   16143   16146   16149   16152   16155   16158   16161   16164   16167   16170
   16173   16176   16179   16182   16185   16188   16191   16194   16197   16200
   16203   16206   16209   16212   16215   16218   16221   16224   16227   16230
   16233   16236   16239   16242   16245   16248   16251   16254   16257   16260
   16263   16266   16269   16272   16275   16278   16281   16284   16287   16290
   16293   16296   16299   16302   16305   16308   16311   16314   16317   16320
   16323   16326   16329   16332   16335   16338   16341   16344   16347   16350
   16353   16356   16359   16362   16365   16368   16371   16374   16377   16380
   16383   16386   16389   16392   16395   16398   16401   16404   16407   16410
   16413   16416   16419   16422   16425   16428   16431   16434   16437   16440
   16443   16446   16449   16452   16455   16458   16461   16464   16467   16470
   16473   16476   16479   16482   16485   16488   16491   16494   16497   16500
   16503   16506   16509   16512   16515   16518   16521   16524   16527   16530
   16533   16536   16539   16542   16545   16548   16551   16554   16557   16560
   16563   16566   16569   16572   16575   16578   16581   16584   16587   16590
   16593   16596   16599   16602   16605   16608   16611   16614   16617   16620
   16623   16626   16629   16632   16635   16638   16641   16644   16647   16650
   16653   16656   16659   16662   16665   16668   16671   16674   16677   16680
   16683   16686   16689   16692   16695   16698   16701   16704   16707   16710
   16713   16716   16719   16722   16725   16728   16731   16734   16737   16740
   16743   16746   16749   16752   16755   16758   16761   16764   16767   16770
   16773   16776   16779   16782   16785   16788   16791   16794   16797   16800
   16803   16806   16809   16812   16815   16818   16821   16824   16827   16830
   16833   16836   16839   16842   16845   16848   16851   16854   16857   16860
   16863   16866   16869   16872   16875   16878   16881   16884   16887   16890
   16893   16896   16899   16902   16905   16908   16911   16914   16917   16920
   16923   16926   16929   16932   16935   16938   16941   16944   16947   16950
   16953   16956   16959   16962   16965   16968   16971   16974   16977   16980
   16983   16986   16989   16992   16995   16998   17001   17004   17007   17010
   17013   17016   17019   17022   17025   17028   17031   17034   17037   17040
   17043   17046   17049   17052   17055   17058   17061   17064   17067   17070
   17073   17076   17079   17082   17085   17088   17091   17094   17097   17100
   17103   17106   17109   17112   17115   17118   17121   17124   17127   17130
   17133   17136   17139   17142   17145   17148   17151   17154   17157   17160
   17163   17166   17169   17172   17175   17178   17181   17184   17187   17190
   17193   17196   17199   17202   17205   17208   17211   17214   17217   17220
   17223   17226   17229   17232   17235   17238   17241   17244   17247   17250
   17253   17256   17259   17262   17265   17268   17271   17274   17277   17280
   17283   17286   17289   17292   17295   17298   17301   17304   17307   17310
   17313   17316   17319   17322   17325   17328   17331   17334   17337   17340
   17343   17346   17349   17352   17355   17358   17361   17364   17367   17370
   17373   17376   17379   17382   17385   17388   17391   17394   17397   17400
   17403   17406   17409   17412   17415   17418   17421   17424   17427   17430
   17433   17436   17439   17442   17445   17448   17451   17454   17457   17460
   17463   17466   17469   17472   17475   17478   17481   17484   17487   17490
   17493   17496   17499   17502   17505   17508   17511   17514   17517   17520
   17523   17526   17529   17532   17535   17538   17541   17544   17547   17550
   17553   17556   17559   17562   17565   17568   17571   17574   17577   17580
   17583   17586   17589   17592   17595   17598   17601   17604   17607   17610
   17613   17616   17619   17622   17625   17628   17631   17634   17637   17640
   17643   17646   17649   17652   17655   17658   17661   17664   17667   17670
   17673   17676   17679   17682   17685   17688   17691   17694   17697   17700
   17703   17706   17709   17712   17715   17718   17721   17724   17727   17730
   17733   17736   17739   17742   17745   17748   17751   17754   17757   17760
   17763   17766   17769   17772   17775   17778   17781   17784   17787   17790
   17793   17796   17799   17802   17805   17808   17811   17814   17817   17820
   17823   17826   17829   17832   17835   17838   17841   17844   17847   17850
   17853   17856   17859   17862   17865   17868   17871   17874   17877   17880
   17883   17886   17889   17892   17895   17898   17901   17904   17907   17910
   17913   17916   17919   17922   17925   17928   17931   17934   17937   17940
   17943   17946   17949   17952   17955   17958   17961   17964   17967   17970
   17973   17976   17979   17982   17985   17988   17991   17994   17997   18000
   18003   18006   18009   18012   18015   18018   18021   18024   18027   18030
   18033   18036   18039   18042   18045   18048   18051   18054   18057   18060
   18063   18066   18069   18072   18075   18078   18081   18084   18087   18090
   18093   18096   18099   18102   18105   18108   18111   18114   18117   18120
   18123   18126   18129   18132   18135   18138   18141   18144   18147   18150
   18153   18156   18159   18162   18165   18168   18171   18174   18177   18180
   18183   18186   18189   18192   18195   18198   18201   18204   18207   18210
   18213   18216   18219   18222   18225   18228   18231   18234   18237   18240
   18243   18246   18249   18252   18255   18258   18261   18264   18267   18270
   18273   18276   18279   18282   18285   18288   18291   18294   18297   18300
   18303   18306   18309   18312   18315   18318   18321   18324   18327   18330
   18333   18336   18339   18342   18345   18348   18351   18354   18357   18360
   18363   18366   18369   18372   18375   18378   18381   18384   18387   18390
   18393   18396   18399   18402   18405   18408   18411   18414   18417   18420
   18423   18426   18429   18432   18435   18438   18441   18444   18447   18450
   18453   18456   18459   18462   18465   18468   18471   18474   18477   18480
   18483   18486   18489   18492   18495   18498   18501   18504   18507   18510
   18513   18516   18519   18522   18525   18528   18531   18534   18537   18540
   18543   18546   18549   18552   18555   18558   18561   18564   18567   18570
   18573   18576   18579   18582   18585   18588   18591   18594   18597   18600
   18603   18606   18609   18612   18615   18618   18621   18624   18627   18630
   18633   18636   18639   18642   18645   18648   18651   18654   18657   18660
   18663   18666   18669   18672   18675   18678   18681   18684   18687   18690
   18693   18696   18699   18702   18705   18708   18711   18714   18717   18720
   18723   18726   18729   18732   18735   18738   18741   18744   18747   18750
   18753   18756   18759   18762   18765   18768   18771   18774   18777   18780
   18783   18786   18789   18792   18795   18798   18801   18804   18807   18810
   18813   18816   18819   18822   18825   18828   18831   18834   18837   18840
   18843   18846   18849   18852   18855   18858   18861   18864   18867   18870
   18873   18876   18879   18882   18885   18888   18891   18894   18897   18900
   18903   18906   18909   18912   18915   18918   18921   18924   18927   18930
   18933   18936   18939   18942   18945   18948   18951   18954   18957   18960
   18963   18966   18969   18972   18975   18978   18981   18984   18987   18990
   18993   18996   18999   19002   19005   19008   19011   19014   19017   19020
   19023   19026   19029   19032   19035   19038   19041   19044   19047   19050
   19053   19056   19059   19062   19065   19068   19071   19074   19077   19080
   19083   19086   19089   19092   19095   19098   19101   19104   19107   19110
   19113   19116   19119   19122   19125   19128   19131   19134   19137   19140
   19143   19146   19149   19152   19155   19158   19161   19164   19167   19170
   19173   19176   19179   19182   19185   19188   19191   19194   19197   19200
   19203   19206   19209   19212   19215   19218   19221   19224   19227   19230
   19233   19236   19239   19242   19245   19248   19251   19254   19257   19260
   19263   19266   19269   19272   19275   19278   19281   19284   19287   19290
   19293   19296   19299   19302   19305   19308   19311   19314   19317   19320
   19323   19326   19329   19332   19335   19338   19341   19344   19347   19350
   19353   19356   19359   19362   19365   19368   19371   19374   19377   19380
   19383   19386   19389   19392   19395   19398   19401   19404   19407   19410
   19413   19416   19419   19422   19425   19428   19431   19434   19437   19440
   19443   19446   19449   19452   19455   19458   19461   19464   19467   19470
   19473   19476   19479   19482   19485   19488   19491   19494   19497   19500
   19503   19506   19509   19512   19515   19518   19521   19524   19527   19530
   19533   19536   19539   19542   19545   19548   19551   19554   19557   19560
   19563   19566   19569   19572   19575   19578   19581   19584   19587   19590
   19593   19596   19599   19602   19605   19608   19611   19614   19617   19620
   19623   19626   19629   19632   19635   19638   19641   19644   19647   19650
   19653   19656   19659   19662   19665   19668   19671   19674   19677   19680
   19683   19686   19689   19692   19695   19698   19701   19704   19707   19710
   19713   19716   19719   19722   19725   19728   19731   19734   19737   19740
   19743   19746   19749   19752   19755   19758   19761   19764   19767   19770
   19773   19776   19779   19782   19785   19788   19791   19794   19797   19800
   19803   19806   19809   19812   19815   19818   19821   19824   19827   19830
   19833   19836   19839   19842   19845   19848   19851   19854   19857   19860
   19863   19866   19869   19872   19875   19878   19881   19884   19887   19890
   19893   19896   19899   19902   19905   19908   19911   19914   19917   19920
   19923   19926   19929   19932   19935   19938   19941   19944   19947   19950
   19953   19956   19959   19962   19965   19968   19971   19974   19977   19980
   19983   19986   19989   19992   19995   19998   20001   20004   20007   20010
   20013   20016   20019   20022   20025   20028   20031   20034   20037   20040
   20043   20046   20049   20052   20055   20058   20061   20064   20067   20070
   20073   20076   20079   20082   20085   20088   20091   20094   20097   20100
   20103   20106   20109   20112   20115   20118   20121   20124   20127   20130
   20133   20136   20139   20142   20145   20148   20151   20154   20157   20160
   20163   20166   20169   20172   20175   20178   20181   20184   20187   20190
   20193   20196   20199   20202   20205   20208   20211   20214   20217   20220
   20223   20226   20229   20232   20235   20238   20241   20244   20247   20250
   20253   20256   20259   20262   20265   20268   20271   20274   20277   20280
   20283   20286   20289   20292   20295   20298   20301   20304   20307   20310
   20313   20316   20319   20322   20325   20328   20331   20334   20337   20340
   20343   20346   20349   20352   20355   20358   20361   20364   20367   20370
   20373   20376   20379   20382   20385   20388   20391   20394   20397   20400
   20403   20406   20409   20412   20415   20418   20421   20424   20427   20430
   20433   20436   20439   20442   20445   20448   20451   20454   20457   20460
   20463   20466   20469   20472   20475   20478   20481   20484   20487   20490
   20493   20496   20499   20502   20505   20508   20511   20514   20517   20520
   20523   20526   20529   20532   20535   20538   20541   20544   20547   20550
   20553   20556   20559   20562   20565   20568   20571   20574   20577   20580
   20583   20586   20589   20592   20595   20598   20601   20604   20607   20610
   20613   20616   20619   20622   20625   20628   20631   20634   20637   20640
   20643   20646   20649   20652   20655   20658   20661   20664   20667   20670
   20673   20676   20679   20682   20685   20688   20691   20694   20697   20700
   20703   20706   20709   20712   20715   20718   20721   20724   20727   20730
   20733   20736   20739   20742   20745   20748   20751   20754   20757   20760
   20763   20766   20769   20772   20775   20778   20781   20784   20787   20790
   20793   20796   20799   20802   20805   20808   20811   20814   20817   20820
   20823   20826   20829   20832   20835   20838   20841   20844   20847   20850
   20853   20856   20859   20862   20865   20868   20871   20874   20877   20880
   20883   20886   20889   20892   20895   20898   20901   20904   20907   20910
   20913   20916   20919   20922   20925   20928   20931   20934   20937   20940
   20943   20946   20949   20952   20955   20958   20961   20964   20967   20970
   20973   20976   20979   20982   20985   20988   20991   20994   20997   21000
   21003   21006   21009   21012   21015   21018   21021   21024   21027   21030
   21033   21036   21039   21042   21045   21048   21051   21054   21057   21060
   21063   21066   21069   21072   21075   21078   21081   21084   21087   21090
   21093   21096   21099   21102   21105   21108   21111   21114   21117   21120
   21123   21126   21129   21132   21135   21138   21141   21144   21147   21150
   21153   21156   21159   21162   21165   21168   21171   21174   21177   21180
   21183   21186   21189   21192   21195   21198   21201   21204   21207   21210
   21213   21216   21219   21222   21225   21228   21231   21234   21237   21240
   21243   21246   21249   21252   21255   21258   21261   21264   21267   21270
   21273   21276   21279   21282   21285   21288   21291   21294   21297   21300
   21303   21306   21309   21312   21315   21318   21321   21324   21327   21330
   21333   21336   21339   21342   21345   21348   21351   21354   21357   21360
   21363   21366   21369   21372   21375   21378   21381   21384   21387   21390
   21393   21396   21399   21402   21405   21408   21411   21414   21417   21420
   21423   21426   21429   21432   21435   21438   21441   21444   21447   21450
   21453   21456   21459   21462   21465   21468   21471   21474   21477   21480
   21483   21486   21489   21492   21495   21498   21501   21504   21507   21510
   21513   21516   21519   21522   21525   21528   21531   21534   21537   21540
   21543   21546   21549   21552   21555   21558   21561   21564   21567   21570
   21573   21576   21579   21582   21585   21588   21591   21594   21597   21600
   21603   21606   21609   21612   21615   21618   21621   21624   21627   21630
   21633   21636   21639   21642   21645   21648   21651   21654   21657   21660
   21663   21666   21669   21672   21675   21678   21681   21684   21687   21690
   21693   21696   21699   21702   21705   21708   21711   21714   21717   21720
   21723   21726   21729   21732   21735   21738   21741   21744   21747   21750
   21753   21756   21759   21762   21765   21768   21771   21774   21777   21780
   21783   21786   21789   21792   21795   21798   21801   21804   21807   21810
   21813   21816   21819   21822   21825   21828   21831   21834   21837   21840
   21843   21846   21849   21852   21855   21858   21861   21864   21867   21870
   21873   21876   21879   21882   21885   21888   21891   21894   21897   21900
   21903   21906   21909   21912   21915   21918   21921   21924   21927   21930
   21933   21936   21939   21942   21945   21948   21951   21954   21957   21960
   21963   21966   21969   21972   21975   21978   21981   21984   21987   21990
   21993   21996   21999   22002   22005   22008   22011   22014   22017   22020
   22023   22026   22029   22032   22035   22038   22041   22044   22047   22050
   22053   22056   22059   22062   22065   22068   22071   22074   22077   22080
   22083   22086   22089   22092   22095   22098   22101   22104   22107   22110
   22113   22116   22119   22122   22125   22128   22131   22134   22137   22140
   22143   22146   22149   22152   22155   22158   22161   22164   22167   22170
   22173   22176   22179   22182   22185   22188   22191   22194   22197   22200
   22203   22206   22209   22212   22215   22218   22221   22224   22227   22230
   22233   22236   22239   22242   22245   22248   22251   22254   22257   22260
   22263   22266   22269   22272   22275   22278   22281   22284   22287   22290
   22293   22296   22299   22302   22305   22308   22311   22314   22317   22320
   22323   22326   22329   22332   22335   22338   22341   22344   22347   22350
   22353   22356   22359   22362   22365   22368   22371   22374   22377   22380
   22383   22386   22389   22392   22395   22398   22401   22404   22407   22410
   22413   22416   22419   22422   22425   22428   22431   22434   22437   22440
   22443   22446   22449   22452   22455   22458   22461   22464   22467   22470
   22473   22476   22479   22482   22485   22488   22491   22494   22497   22500
   22503   22506   22509   22512   22515   22518   22521   22524   22527   22530
   22533   22536   22539   22542   22545   22548   22551   22554   22557   22560
   22563   22566   22569   22572   22575   22578   22581   22584   22587   22590
   22593   22596   22599   22602   22605   22608   22611   22614   22617   22620
   22623   22626   22629   22632   22635   22638   22641   22644   22647   22650
   22653   22656   22659   22662   22665   22668   22671   22674   22677   22680
   22683   22686   22689   22692   22695   22698   22701   22704   22707   22710
   22713   22716   22719   22722   22725   22728   22731   22734   22737   22740
   22743   22746   22749   22752   22755   22758   22761   22764   22767   22770
   22773   22776   22779   22782   22785   22788   22791   22794   22797   22800
   22803   22806   22809   22812   22815   22818   22821   22824   22827   22830
   22833   22836   22839   22842   22845   22848   22851   22854   22857   22860
   22863   22866   22869   22872   22875   22878   22881   22884   22887   22890
   22893   22896   22899   22902   22905   22908   22911   22914   22917   22920
   22923   22926   22929   22932   22935   22938   22941   22944   22947   22950
   22953   22956   22959   22962   22965   22968   22971   22974   22977   22980
   22983   22986   22989   22992   22995   22998   23001   23004   23007   23010
   23013   23016   23019   23022   23025   23028   23031   23034   23037   23040
   23043   23046   23049   23052   23055   23058   23061   23064   23067   23070
   23073   23076   23079   23082   23085   23088   23091   23094   23097   23100
   23103   23106   23109   23112   23115   23118   23121   23124   23127   23130
   23133   23136   23139   23142   23145   23148   23151   23154   23157   23160
   23163   23166   23169   23172   23175   23178   23181   23184   23187   23190
   23193   23196   23199   23202   23205   23208   23211   23214   23217   23220
   23223   23226   23229   23232   23235   23238   23241   23244   23247   23250
   23253   23256   23259   23262   23265   23268   23271   23274   23277   23280
   23283   23286   23289   23292   23295   23298   23301   23304   23307   23310
   23313   23316   23319   23322   23325   23328   23331   23334   23337   23340
   23343   23346   23349   23352   23355   23358   23361   23364   23367   23370
   23373   23376   23379   23382   23385   23388   23391   23394   23397   23400
   23403   23406   23409   23412   23415   23418   23421   23424   23427   23430
   23433   23436   23439   23442   23445   23448   23451   23454   23457   23460
   23463   23466   23469   23472   23475   23478   23481   23484   23487   23490
   23493   23496   23499   23502   23505   23508   23511   23514   23517   23520
   23523   23526   23529   23532   23535   23538   23541   23544   23547   23550
   23553   23556   23559   23562   23565   23568   23571   23574   23577   23580
   23583   23586   23589   23592   23595   23598   23601   23604   23607   23610
   23613   23616   23619   23622   23625   23628   23631   23634   23637   23640
   23643   23646   23649   23652   23655   23658   23661   23664   23667   23670
   23673   23676   23679   23682   23685   23688   23691   23694   23697   23700
   23703   23706   23709   23712   23715   23718   23721   23724   23727   23730
   23733   23736   23739   23742   23745   23748   23751   23754   23757   23760
   23763   23766   23769   23772   23775   23778   23781   23784   23787   23790
   23793   23796   23799   23802   23805   23808   23811   23814   23817   23820
   23823   23826   23829   23832   23835   23838   23841   23844   23847   23850
   23853   23856   23859   23862   23865   23868   23871   23874   23877   23880
   23883   23886   23889   23892   23895   23898   23901   23904   23907   23910
   23913   23916   23919   23922   23925   23928   23931   23934   23937   23940
   23943   23946   23949   23952   23955   23958   23961   23964   23967   23970
   23973   23976   23979   23982   23985   23988   23991   23994   23997   24000
   24003   24006   24009   24012   24015   24018   24021   24024   24027   24030
   24033   24036   24039   24042   24045   24048   24051   24054   24057   24060
   24063   24066   24069   24072   24075   24078   24081   24084   24087   24090
   24093   24096   24099   24102   24105   24108   24111   24114   24117   24120
   24123   24126   24129   24132   24135   24138   24141   24144   24147   24150
   24153   24156   24159   24162   24165   24168   24171   24174   24177   24180
   24183   24186   24189   24192   24195   24198   24201   24204   24207   24210
   24213   24216   24219   24222   24225   24228   24231   24234   24237   24240
   24243   24246   24249   24252   24255   24258   24261   24264   24267   24270
   24273   24276   24279   24282   24285   24288   24291   24294   24297   24300
   24303   24306   24309   24312   24315   24318   24321   24324   24327   24330
   24333   24336   24339   24342   24345   24348   24351   24354   24357   24360
   24363   24366   24369   24372   24375   24378   24381   24384   24387   24390
   24393   24396   24399   24402   24405   24408   24411   24414   24417   24420
   24423   24426   24429   24432   24435   24438   24441   24444   24447   24450
   24453   24456   24459   24462   24465   24468   24471   24474   24477   24480
   24483   24486   24489   24492   24495   24498   24501   24504   24507   24510
   24513   24516   24519   24522   24525   24528   24531   24534   24537   24540
   24543   24546   24549   24552   24555   24558   24561   24564   24567   24570
   24573   24576   24579   24582   24585   24588   24591   24594   24597   24600
   24603   24606   24609   24612   24615   24618   24621   24624   24627   24630
   24633   24636   24639   24642   24645   24648   24651   24654   24657   24660
   24663   24666   24669   24672   24675   24678   24681   24684   24687   24690
   24693   24696   24699   24702   24705   24708   24711   24714   24717   24720
   24723   24726   24729   24732   24735   24738   24741   24744   24747   24750
   24753   24756   24759   24762   24765   24768   24771   24774   24777   24780
   24783   24786   24789   24792   24795   24798   24801   24804   24807   24810
   24813   24816   24819   24822   24825   24828   24831   24834   24837   24840
   24843   24846   24849   24852   24855   24858   24861   24864   24867   24870
   24873   24876   24879   24882   24885   24888   24891   24894   24897   24900
   24903   24906   24909   24912   24915   24918   24921   24924   24927   24930
   24933   24936   24939   24942   24945   24948   24951   24954   24957   24960
   24963   24966   24969   24972   24975   24978   24981   24984   24987   24990
   24993   24996   24999   25002   25005   25008   25011   25014   25017   25020
   25023   25026   25029   25032   25035   25038   25041   25044   25047   25050
   25053   25056   25059   25062   25065   25068   25071   25074   25077   25080
   25083   25086   25089   25092   25095   25098   25101   25104   25107   25110
   25113   25116   25119   25122   25125   25128   25131   25134   25137   25140
   25143   25146   25149   25152   25155   25158   25161   25164   25167   25170
   25173   25176   25179   25182   25185   25188   25191   25194   25197   25200
   25203   25206   25209   25212   25215   25218   25221   25224   25227   25230
   25233   25236   25239   25242   25245   25248   25251   25254   25257   25260
   25263   25266   25269   25272   25275   25278   25281   25284   25287   25290
   25293   25296   25299   25302   25305   25308   25311   25314   25317   25320
   25323   25326   25329   25332   25335   25338   25341   25344   25347   25350
   25353   25356   25359   25362   25365   25368   25371   25374   25377   25380
   25383   25386   25389   25392   25395   25398   25401   25404   25407   25410
   25413   25416   25419   25422   25425   25428   25431   25434   25437   25440
   25443   25446   25449   25452   25455   25458   25461   25464   25467   25470
   25473   25476   25479   25482   25485   25488   25491   25494   25497   25500
   25503   25506   25509   25512   25515   25518   25521   25524   25527   25530
   25533   25536   25539   25542   25545   25548   25551   25554   25557   25560
   25563   25566   25569   25572   25575   25578   25581   25584   25587   25590
   25593   25596   25599   25602   25605   25608   25611   25614   25617   25620
   25623   25626   25629   25632   25635   25638   25641   25644   25647   25650
   25653   25656   25659   25662   25665   25668   25671   25674   25677   25680
   25683   25686   25689   25692   25695   25698   25701   25704   25707   25710
   25713   25716   25719   25722   25725   25728   25731   25734   25737   25740
   25743   25746   25749   25752   25755   25758   25761   25764   25767   25770
   25773   25776   25779   25782   25785   25788   25791   25794   25797   25800
   25803   25806   25809   25812   25815   25818   25821   25824   25827   25830
   25833   25836   25839   25842   25845   25848   25851   25854   25857   25860
   25863   25866   25869   25872   25875   25878   25881   25884   25887   25890
   25893   25896   25899   25902   25905   25908   25911   25914   25917   25920
   25923   25926   25929   25932   25935   25938   25941   25944   25947   25950
   25953   25956   25959   25962   25965   25968   25971   25974   25977   25980
   25983   25986   25989   25992   25995   25998   26001   26004   26007   26010
   26013   26016   26019   26022   26025   26028   26031   26034   26037   26040
   26043   26046   26049   26052   26055   26058   26061   26064   26067   26070
   26073   26076   26079   26082   26085   26088   26091   26094   26097   26100
   26103   26106   26109   26112   26115   26118   26121   26124   26127   26130
   26133   26136   26139   26142   26145   26148   26151   26154   26157   26160
   26163   26166   26169   26172   26175   26178   26181   26184   26187   26190
   26193   26196   26199   26202   26205   26208   26211   26214   26217   26220
   26223   26226   26229   26232   26235   26238   26241   26244   26247   26250
   26253   26256   26259   26262   26265   26268   26271   26274   26277   26280
   26283   26286   26289   26292   26295   26298   26301   26304   26307   26310
   26313   26316   26319   26322   26325   26328   26331   26334   26337   26340
   26343   26346   26349   26352   26355   26358   26361   26364   26367   26370
   26373   26376   26379   26382   26385   26388   26391   26394   26397   26400
   26403   26406   26409   26412   26415   26418   26421   26424   26427   26430
   26433   26436   26439   26442   26445   26448   26451   26454   26457   26460
   26463   26466   26469   26472   26475   26478   26481   26484   26487   26490
   26493   26496   26499   26502   26505   26508   26511   26514   26517   26520
   26523   26526   26529   26532   26535   26538   26541   26544   26547   26550
   26553   26556   26559   26562   26565   26568   26571   26574   26577   26580
   26583   26586   26589   26592   26595   26598   26601   26604   26607   26610
   26613   26616   26619   26622   26625   26628   26631   26634   26637   26640
   26643   26646   26649   26652   26655   26658   26661   26664   26667   26670
   26673   26676   26679   26682   26685   26688   26691   26694   26697   26700
   26703   26706   26709   26712   26715   26718   26721   26724   26727   26730
   26733   26736   26739   26742   26745   26748   26751   26754   26757   26760
   26763   26766   26769   26772   26775   26778   26781   26784   26787   26790
   26793   26796   26799   26802   26805   26808   26811   26814   26817   26820
   26823   26826   26829   26832   26835   26838   26841   26844   26847   26850
   26853   26856   26859   26862   26865   26868   26871   26874   26877   26880
   26883   26886   26889   26892   26895   26898   26901   26904   26907   26910
   26913   26916   26919   26922   26925   26928   26931   26934   26937   26940
   26943   26946   26949   26952   26955   26958   26961   26964   26967   26970
   26973   26976   26979   26982   26985   26988   26991   26994   26997   27000
   27003   27006   27009   27012   27015   27018   27021   27024   27027   27030
   27033   27036   27039   27042   27045   27048   27051   27054   27057   27060
   27063   27066   27069   27072   27075   27078   27081   27084   27087   27090
   27093   27096   27099   27102   27105   27108   27111   27114   27117   27120
   27123   27126   27129   27132   27135   27138   27141   27144   27147   27150
   27153   27156   27159   27162   27165   27168   27171   27174   27177   27180
   27183   27186   27189   27192   27195   27198   27201   27204   27207   27210
   27213   27216   27219   27222   27225   27228   27231   27234   27237   27240
   27243   27246   27249   27252   27255   27258   27261   27264   27267   27270
   27273   27276   27279   27282   27285   27288   27291   27294   27297   27300
   27303   27306   27309   27312   27315   27318   27321   27324   27327   27330
   27333   27336   27339   27342   27345   27348   27351   27354   27357   27360
   27363   27366   27369   27372   27375   27378   27381   27384   27387   27390
   27393   27396   27399   27402   27405   27408   27411   27414   27417   27420
   27423   27426   27429   27432   27435   27438   27441   27444   27447   27450
   27453   27456   27459   27462   27465   27468   27471   27474   27477   27480
   27483   27486   27489   27492   27495   27498   27501   27504   27507   27510
   27513   27516   27519   27522   27525   27528   27531   27534   27537   27540
   27543   27546   27549   27552   27555   27558   27561   27564   27567   27570
   27573   27576   27579   27582   27585   27588   27591   27594   27597   27600
   27603   27606   27609   27612   27615   27618   27621   27624   27627   27630
   27633   27636   27639   27642   27645   27648   27651   27654   27657   27660
   27663   27666   27669   27672   27675   27678   27681   27684   27687   27690
   27693   27696   27699   27702   27705   27708   27711   27714   27717   27720
   27723   27726   27729   27732   27735   27738   27741   27744   27747   27750
   27753   27756   27759   27762   27765   27768   27771   27774   27777   27780
   27783   27786   27789   27792   27795   27798   27801   27804   27807   27810
   27813   27816   27819   27822   27825   27828   27831   27834   27837   27840
   27843   27846   27849   27852   27855   27858   27861   27864   27867   27870
   27873   27876   27879   27882   27885   27888   27891   27894   27897   27900
   27903   27906   27909   27912   27915   27918   27921   27924   27927   27930
   27933   27936   27939   27942   27945   27948   27951   27954   27957   27960
   27963   27966   27969   27972   27975   27978   27981   27984   27987   27990
   27993   27996   27999   28002   28005   28008   28011   28014   28017   28020
   28023   28026   28029   28032   28035   28038   28041   28044   28047   28050
   28053   28056   28059   28062   28065   28068   28071   28074   28077   28080
   28083   28086   28089   28092   28095   28098   28101   28104   28107   28110
   28113   28116   28119   28122   28125   28128   28131   28134   28137   28140
   28143   28146   28149   28152   28155   28158   28161   28164   28167   28170
   28173   28176   28179   28182   28185   28188   28191   28194   28197   28200
   28203   28206   28209   28212   28215   28218   28221   28224   28227   28230
   28233   28236   28239   28242   28245   28248   28251   28254   28257   28260
   28263   28266   28269   28272   28275   28278   28281   28284   28287   28290
   28293   28296   28299   28302   28305   28308   28311   28314   28317   28320
   28323   28326   28329   28332   28335   28338   28341   28344   28347   28350
   28353   28356   28359   28362   28365   28368   28371   28374   28377   28380
   28383   28386   28389   28392   28395   28398   28401   28404   28407   28410
   28413   28416   28419   28422   28425   28428   28431   28434   28437   28440
   28443   28446   28449   28452   28455   28458   28461   28464   28467   28470
   28473   28476   28479   28482   28485   28488   28491   28494   28497   28500
   28503   28506   28509   28512   28515   28518   28521   28524   28527   28530
   28533   28536   28539   28542   28545   28548   28551   28554   28557   28560
   28563   28566   28569   28572   28575   28578   28581   28584   28587   28590
   28593   28596   28599   28602   28605   28608   28611   28614   28617   28620
   28623   28626   28629   28632   28635   28638   28641   28644   28647   28650
   28653   28656   28659   28662   28665   28668   28671   28674   28677   28680
   28683   28686   28689   28692   28695   28698   28701   28704   28707   28710
   28713   28716   28719   28722   28725   28728   28731   28734   28737   28740
   28743   28746   28749   28752   28755   28758   28761   28764   28767   28770
   28773   28776   28779   28782   28785   28788   28791   28794   28797   28800
   28803   28806   28809   28812   28815   28818   28821   28824   28827   28830
   28833   28836   28839   28842   28845   28848   28851   28854   28857   28860
   28863   28866   28869   28872   28875   28878   28881   28884   28887   28890
   28893   28896   28899   28902   28905   28908   28911   28914   28917   28920
   28923   28926   28929   28932   28935   28938   28941   28944   28947   28950
   28953   28956   28959   28962   28965   28968   28971   28974   28977   28980
   28983   28986   28989   28992   28995   28998   29001   29004   29007   29010
   29013   29016   29019   29022   29025   29028   29031   29034   29037   29040
   29043   29046   29049   29052   29055   29058   29061   29064   29067   29070
   29073   29076   29079   29082   29085   29088   29091   29094   29097   29100
   29103   29106   29109   29112   29115   29118   29121   29124   29127   29130
   29133   29136   29139   29142   29145   29148   29151   29154   29157   29160
   29163   29166   29169   29172   29175   29178   29181   29184   29187   29190
   29193   29196   29199   29202   29205   29208   29211   29214   29217   29220
   29223   29226   29229   29232   29235   29238   29241   29244   29247   29250
   29253   29256   29259   29262   29265   29268   29271   29274   29277   29280
   29283   29286   29289   29292   29295   29298   29301   29304   29307   29310
   29313   29316   29319   29322   29325   29328   29331   29334   29337   29340
   29343   29346   29349   29352   29355   29358   29361   29364   29367   29370
   29373   29376   29379   29382   29385   29388   29391   29394   29397   29400
   29403   29406   29409   29412   29415   29418   29421   29424   29427   29430
   29433   29436   29439   29442   29445   29448   29451   29454   29457   29460
   29463   29466   29469   29472   29475   29478   29481   29484   29487   29490
   29493   29496   29499   29502   29505   29508   29511   29514   29517   29520
   29523   29526   29529   29532   29535   29538   29541   29544   29547   29550
   29553   29556   29559   29562   29565   29568   29571   29574   29577   29580
   29583   29586   29589   29592   29595   29598   29601   29604   29607   29610
   29613   29616   29619   29622   29625   29628   29631   29634   29637   29640
   29643   29646   29649   29652   29655   29658   29661   29664   29667   29670
   29673   29676   29679   29682   29685   29688   29691   29694   29697   29700
   29703   29706   29709   29712   29715   29718   29721   29724   29727   29730
   29733   29736   29739   29742   29745   29748   29751   29754   29757   29760
   29763   29766   29769   29772   29775   29778   29781   29784   29787   29790
   29793   29796   29799   29802   29805   29808   29811   29814   29817   29820
   29823   29826   29829   29832   29835   29838   29841   29844   29847   29850
   29853   29856   29859   29862   29865   29868   29871   29874   29877   29880
   29883   29886   29889   29892   29895   29898   29901   29904   29907   29910
   29913   29916   29919   29922   29925   29928   29931   29934   29937   29940
   29943   29946   29949   29952   29955   29958   29961   29964   29967   29970
   29973   29976   29979   29982   29985   29988   29991   29994   29997   30000
   30003   30006   30009   30012   30015   30018   30021   30024   30027   30030
   30033   30036   30039   30042   30045   30048   30051   30054   30057   30060
   30063   30066   30069   30072   30075   30078   30081   30084   30087   30090
   30093   30096   30099   30102   30105   30108   30111   30114   30117   30120
   30123   30126   30129   30132   30135   30138   30141   30144   30147   30150
   30153   30156   30159   30162   30165   30168   30171   30174   30177   30180
   30183   30186   30189   30192   30195   30198   30201   30204   30207   30210
   30213   30216   30219   30222   30225   30228   30231   30234   30237   30240
   30243   30246   30249   30252   30255   30258   30261   30264   30267   30270
   30273   30276   30279   30282   30285   30288   30291   30294   30297   30300
   30303   30306   30309   30312   30315   30318   30321   30324   30327   30330
   30333   30336   30339   30342   30345   30348   30351   30354   30357   30360
   30363   30366   30369   30372   30375   30378   30381   30384   30387   30390
   30393   30396   30399   30402   30405   30408   30411   30414   30417   30420
   30423   30426   30429   30432   30435   30438   30441   30444   30447   30450
   30453   30456   30459   30462   30465   30468   30471   30474   30477   30480
   30483   30486   30489   30492   30495   30498   30501   30504   30507   30510
   30513   30516   30519   30522   30525   30528   30531   30534   30537   30540
   30543   30546   30549   30552   30555   30558   30561   30564   30567   30570
   30573   30576   30579   30582   30585   30588   30591   30594   30597   30600
   30603   30606   30609   30612   30615   30618   30621   30624   30627   30630
   30633   30636   30639   30642   30645   30648   30651   30654   30657   30660
   30663   30666   30669   30672   30675   30678   30681   30684   30687   30690
   30693   30696   30699   30702   30705   30708   30711   30714   30717   30720
   30723   30726   30729   30732   30735   30738   30741   30744   30747   30750
   30753   30756   30759   30762   30765   30768   30771   30774   30777   30780
   30783   30786   30789   30792   30795   30798   30801   30804   30807   30810
   30813   30816   30819   30822   30825   30828   30831   30834   30837   30840
   30843   30846   30849   30852   30855   30858   30861   30864   30867   30870
   30873   30876   30879   30882   30885   30888   30891   30894   30897   30900
   30903   30906   30909   30912   30915   30918   30921   30924   30927   30930
   30933   30936   30939   30942   30945   30948   30951   30954   30957   30960
   30963   30966   30969   30972   30975   30978   30981   30984   30987   30990
   30993   30996   30999   31002   31005   31008   31011   31014   31017   31020
   31023   31026   31029   31032   31035   31038   31041   31044   31047   31050
   31053   31056   31059   31062   31065   31068   31071   31074   31077   31080
   31083   31086   31089   31092   31095   31098   31101   31104   31107   31110
   31113   31116   31119   31122   31125   31128   31131   31134   31137   31140
   31143   31146   31149   31152   31155   31158   31161   31164   31167   31170
   31173   31176   31179   31182   31185   31188   31191   31194   31197   31200
   31203   31206   31209   31212   31215   31218   31221   31224   31227   31230
   31233   31236   31239   31242   31245   31248   31251   31254   31257   31260
   31263   31266   31269   31272   31275   31278   31281   31284   31287   31290
   31293   31296   31299   31302   31305   31308   31311   31314   31317   31320
   31323   31326   31329   31332   31335   31338   31341   31344   31347   31350
   31353   31356   31359   31362   31365   31368   31371   31374   31377   31380
   31383   31386   31389   31392   31395   31398   31401   31404   31407   31410
   31413   31416   31419   31422   31425   31428   31431   31434   31437   31440
   31443   31446   31449   31452   31455   31458   31461   31464   31467   31470
   31473   31476   31479   31482   31485   31488   31491   31494   31497   31500
   31503   31506   31509   31512   31515   31518   31521   31524   31527   31530
   31533   31536   31539   31542   31545   31548   31551   31554   31557   31560
   31563   31566   31569   31572   31575   31578   31581   31584   31587   31590
   31593   31596   31599   31602   31605   31608   31611   31614   31617   31620
   31623   31626   31629   31632   31635   31638   31641   31644   31647   31650
   31653   31656   31659   31662   31665   31668   31671   31674   31677   31680
   31683   31686   31689   31692   31695   31698   31701   31704   31707   31710
   31713   31716   31719   31722   31725   31728   31731   31734   31737   31740
   31743   31746   31749   31752   31755   31758   31761   31764   31767   31770
   31773   31776   31779   31782   31785   31788   31791   31794   31797   31800
   31803   31806   31809   31812   31815   31818   31821   31824   31827   31830
   31833   31836   31839   31842   31845   31848   31851   31854   31857   31860
   31863   31866   31869   31872   31875   31878   31881   31884   31887   31890
   31893   31896   31899   31902   31905   31908   31911   31914   31917   31920
   31923   31926   31929   31932   31935   31938   31941   31944   31947   31950
   31953   31956   31959   31962   31965   31968   31971   31974   31977   31980
   31983   31986   31989   31992   31995   31998   32001   32004   32007   32010
   32013   32016   32019   32022   32025   32028   32031   32034   32037   32040
   32043   32046   32049   32052   32055   32058   32061   32064   32067   32070
   32073   32076   32079   32082   32085   32088   32091   32094   32097   32100
   32103   32106   32109   32112   32115   32118   32121   32124   32127   32130
   32133   32136   32139   32142   32145   32148   32151   32154   32157   32160
   32163   32166   32169   32172   32175   32178   32181   32184   32187   32190
   32193   32196   32199   32202   32205   32208   32211   32214   32217   32220
   32223   32226   32229   32232   32235   32238   32241   32244   32247   32250
   32253   32256   32259   32262   32265   32268   32271   32274   32277   32280
   32283   32286   32289   32292   32295   32298   32301   32304   32307   32310
   32313   32316   32319   32322   32325   32328   32331   32334   32337   32340
   32343   32346   32349   32352   32355   32358   32361   32364   32367   32370
   32373   32376   32379   32382   32385   32388   32391   32394   32397   32400
   32403   32406   32409   32412   32415   32418   32421   32424   32427   32430
   32433   32436   32439   32442   32445   32448   32451   32454   32457   32460
   32463   32466   32469   32472   32475   32478   32481   32484   32487   32490
   32493   32496   32499   32502   32505   32508   32511   32514   32517   32520
   32523   32526   32529   32532   32535   32538   32541   32544   32547   32550
   32553   32556   32559   32562   32565   32568   32571   32574   32577   32580
   32583   32586   32589   32592   32595   32598   32601   32604   32607   32610
   32613   32616   32619   32622   32625   32628   32631   32634   32637   32640
   32643   32646   32649   32652   32655   32658   32661   32664   32667   32670
   32673   32676   32679   32682   32685   32688   32691   32694   32697   32700
   32703   32706   32709   32712   32715   32718   32721   32724   32727   32730
   32733   32736   32739   32742   32745   32748   32751   32754   32757   32760
   32763   32766   32769   32772   32775   32778   32781   32784   32787   32790
   32793   32796   32799   32802   32805   32808   32811   32814   32817   32820
   32823   32826   32829   32832   32835   32838   32841   32844   32847   32850
   32853   32856   32859   32862   32865   32868   32871   32874   32877   32880
   32883   32886   32889   32892   32895   32898   32901   32904   32907   32910
   32913   32916   32919   32922   32925   32928   32931   32934   32937   32940
   32943   32946   32949   32952   32955   32958   32961   32964   32967   32970
   32973   32976   32979   32982   32985   32988   32991   32994   32997   33000
   33003   33006   33009   33012   33015   33018   33021   33024   33027   33030
   33033   33036   33039   33042   33045   33048   33051   33054   33057   33060
   33063   33066   33069   33072   33075   33078   33081   33084   33087   33090
   33093   33096   33099   33102   33105   33108   33111   33114   33117   33120
   33123   33126   33129   33132   33135   33138   33141   33144   33147   33150
   33153   33156   33159   33162   33165   33168   33171   33174   33177   33180
   33183   33186   33189   33192   33195   33198   33201   33204   33207   33210
   33213   33216   33219   33222   33225   33228   33231   33234   33237   33240
   33243   33246   33249   33252   33255   33258   33261   33264   33267   33270
   33273   33276   33279   33282   33285   33288   33291   33294   33297   33300
   33303   33306   33309   33312   33315   33318   33321   33324   33327   33330
   33333   33336   33339   33342   33345   33348   33351   33354   33357   33360
   33363   33366   33369   33372   33375   33378   33381   33384   33387   33390
   33393   33396   33399   33402   33405   33408   33411   33414   33417   33420
   33423   33426   33429   33432   33435   33438   33441   33444   33447   33450
   33453   33456   33459   33462   33465   33468   33471   33474   33477   33480
   33483   33486   33489   33492   33495   33498   33501   33504   33507   33510
   33513   33516   33519   33522   33525   33528   33531   33534   33537   33540
   33543   33546   33549   33552   33555   33558   33561   33564   33567   33570
   33573   33576   33579   33582   33585   33588   33591   33594   33597   33600
   33603   33606   33609   33612   33615   33618   33621   33624   33627   33630
   33633   33636   33639   33642   33645   33648   33651   33654   33657   33660
   33663   33666   33669   33672   33675   33678   33681   33684   33687   33690
   33693   33696   33699   33702   33705   33708   33711   33714   33717   33720
   33723   33726   33729   33732   33735   33738   33741   33744   33747   33750
   33753   33756   33759   33762   33765   33768   33771   33774   33777   33780
   33783   33786   33789   33792   33795   33798   33801   33804   33807   33810
   33813   33816   33819   33822   33825   33828   33831   33834   33837   33840
   33843   33846   33849   33852   33855   33858   33861   33864   33867   33870
   33873   33876   33879   33882   33885   33888   33891   33894   33897   33900
   33903   33906   33909   33912   33915   33918   33921   33924   33927   33930
   33933   33936   33939   33942   33945   33948   33951   33954   33957   33960
   33963   33966   33969   33972   33975   33978   33981   33984   33987   33990
   33993   33996   33999   34002   34005   34008   34011   34014   34017   34020
   34023   34026   34029   34032   34035   34038   34041   34044   34047   34050
   34053   34056   34059   34062   34065   34068   34071   34074   34077   34080
   34083   34086   34089   34092   34095   34098   34101   34104   34107   34110
   34113   34116   34119   34122   34125   34128   34131   34134   34137   34140
   34143   34146   34149   34152   34155   34158   34161   34164   34167   34170
   34173   34176   34179   34182   34185   34188   34191   34194   34197   34200
   34203   34206   34209   34212   34215   34218   34221   34224   34227   34230
   34233   34236   34239   34242   34245   34248   34251   34254   34257   34260
   34263   34266   34269   34272   34275   34278   34281   34284   34287   34290
   34293   34296   34299   34302   34305   34308   34311   34314   34317   34320
   34323   34326   34329   34332   34335   34338   34341   34344   34347   34350
   34353   34356   34359   34362   34365   34368   34371   34374   34377   34380
   34383   34386   34389   34392   34395   34398   34401   34404   34407   34410
   34413   34416   34419   34422   34425   34428   34431   34434   34437   34440
   34443   34446   34449   34452   34455   34458   34461   34464   34467   34470
   34473   34476   34479   34482   34485   34488   34491   34494   34497   34500
   34503   34506   34509   34512   34515   34518   34521   34524   34527   34530
   34533   34536   34539   34542   34545   34548   34551   34554   34557   34560
   34563   34566   34569   34572   34575   34578   34581   34584   34587   34590
   34593   34596   34599   34602   34605   34608   34611   34614   34617   34620
   34623   34626   34629   34632   34635   34638   34641   34644   34647   34650
   34653   34656   34659   34662   34665   34668   34671   34674   34677   34680
   34683   34686   34689   34692   34695   34698   34701   34704   34707   34710
   34713   34716   34719   34722   34725   34728   34731   34734   34737   34740
   34743   34746   34749   34752   34755   34758   34761   34764   34767   34770
   34773   34776   34779   34782   34785   34788   34791   34794   34797   34800
   34803   34806   34809   34812   34815   34818   34821   34824   34827   34830
   34833   34836   34839   34842   34845   34848   34851   34854   34857   34860
   34863   34866   34869   34872   34875   34878   34881   34884   34887   34890
   34893   34896   34899   34902   34905   34908   34911   34914   34917   34920
   34923   34926   34929   34932   34935   34938   34941   34944   34947   34950
   34953   34956   34959   34962   34965   34968   34971   34974   34977   34980
   34983   34986   34989   34992   34995   34998   35001   35004   35007   35010
   35013   35016   35019   35022   35025   35028   35031   35034   35037   35040
   35043   35046   35049   35052   35055   35058   35061   35064   35067   35070
   35073   35076   35079   35082   35085   35088   35091   35094   35097   35100
   35103   35106   35109   35112   35115   35118   35121   35124   35127   35130
   35133   35136   35139   35142   35145   35148   35151   35154   35157   35160
   35163   35166   35169   35172   35175   35178   35181   35184   35187   35190
   35193   35196   35199   35202   35205   35208   35211   35214   35217   35220
   35223   35226   35229   35232   35235   35238   35241   35244   35247   35250
   35253   35256   35259   35262   35265   35268   35271   35274   35277   35280
   35283   35286   35289   35292   35295   35298   35301   35304   35307   35310
   35313   35316   35319   35322   35325   35328   35331   35334   35337   35340
   35343   35346   35349   35352   35355   35358   35361   35364   35367   35370
   35373   35376   35379   35382   35385   35388   35391   35394   35397   35400
   35403   35406   35409   35412   35415   35418   35421   35424   35427   35430
   35433   35436   35439   35442   35445   35448   35451   35454   35457   35460
   35463   35466   35469   35472   35475   35478   35481   35484   35487   35490
   35493   35496   35499   35502   35505   35508   35511   35514   35517   35520
   35523   35526   35529   35532   35535   35538   35541   35544   35547   35550
   35553   35556   35559   35562   35565   35568   35571   35574   35577   35580
   35583   35586   35589   35592   35595   35598   35601   35604   35607   35610
   35613   35616   35619   35622   35625   35628   35631   35634   35637   35640
   35643   35646   35649   35652   35655   35658   35661   35664   35667   35670
   35673   35676   35679   35682   35685   35688   35691   35694   35697   35700
   35703   35706   35709   35712   35715   35718   35721   35724   35727   35730
   35733   35736   35739   35742   35745   35748   35751   35754   35757   35760
   35763   35766   35769   35772   35775   35778   35781   35784   35787   35790
   35793   35796   35799   35802   35805   35808   35811   35814   35817   35820
   35823   35826   35829   35832   35835   35838   35841   35844   35847   35850
   35853   35856   35859   35862   35865   35868   35871   35874   35877   35880
   35883   35886   35889   35892   35895   35898   35901   35904   35907   35910
   35913   35916   35919   35922   35925   35928   35931   35934   35937   35940
   35943   35946   35949   35952   35955   35958   35961   35964   35967   35970
   35973   35976   35979   35982   35985   35988   35991   35994   35997   36000
   36003   36006   36009   36012   36015   36018   36021   36024   36027   36030
   36033   36036   36039   36042   36045   36048   36051   36054   36057   36060
   36063   36066   36069   36072   36075   36078   36081   36084   36087   36090
   36093   36096   36099   36102   36105   36108   36111   36114   36117   36120
   36123   36126   36129   36132   36135   36138   36141   36144   36147   36150
   36153   36156   36159   36162   36165   36168   36171   36174   36177   36180
   36183   36186   36189   36192   36195   36198   36201   36204   36207   36210
   36213   36216   36219   36222   36225   36228   36231   36234   36237   36240
   36243   36246   36249   36252   36255   36258   36261   36264   36267   36270
   36273   36276   36279   36282   36285   36288   36291   36294   36297   36300
   36303   36306   36309   36312   36315   36318   36321   36324   36327   36330
   36333   36336   36339   36342   36345   36348   36351   36354   36357   36360
   36363   36366   36369   36372   36375   36378   36381   36384   36387   36390
   36393   36396   36399   36402   36405   36408   36411   36414   36417   36420
   36423   36426   36429   36432   36435   36438   36441   36444   36447   36450
   36453   36456   36459   36462   36465   36468   36471   36474   36477   36480
   36483   36486   36489   36492   36495   36498   36501   36504   36507   36510
   36513   36516   36519   36522   36525   36528   36531   36534   36537   36540
   36543   36546   36549   36552   36555   36558   36561   36564   36567   36570
   36573   36576   36579   36582   36585   36588   36591   36594   36597   36600
   36603   36606   36609   36612   36615   36618   36621   36624   36627   36630
   36633   36636   36639   36642   36645   36648   36651   36654   36657   36660
   36663   36666   36669   36672   36675   36678   36681   36684   36687   36690
   36693   36696   36699   36702   36705   36708   36711   36714   36717   36720
   36723   36726   36729   36732   36735   36738   36741   36744   36747   36750
   36753   36756   36759   36762   36765   36768   36771   36774   36777   36780
   36783   36786   36789   36792   36795   36798   36801   36804   36807   36810
   36813   36816   36819   36822   36825   36828   36831   36834   36837   36840
   36843   36846   36849   36852   36855   36858   36861   36864   36867   36870
   36873   36876   36879   36882   36885   36888   36891   36894   36897   36900
   36903   36906   36909   36912   36915   36918   36921   36924   36927   36930
   36933   36936   36939   36942   36945   36948   36951   36954   36957   36960
   36963   36966   36969   36972   36975   36978   36981   36984   36987   36990
   36993   36996   36999   37002   37005   37008   37011   37014   37017   37020
   37023   37026   37029   37032   37035   37038   37041   37044   37047   37050
   37053   37056   37059   37062   37065   37068   37071   37074   37077   37080
   37083   37086   37089   37092   37095   37098   37101   37104   37107   37110
   37113   37116   37119   37122   37125   37128   37131   37134   37137   37140
   37143   37146   37149   37152   37155   37158   37161   37164   37167   37170
   37173   37176   37179   37182   37185   37188   37191   37194   37197   37200
   37203   37206   37209   37212   37215   37218   37221   37224   37227   37230
   37233   37236   37239   37242   37245   37248   37251   37254   37257   37260
   37263   37266   37269   37272   37275   37278   37281   37284   37287   37290
   37293   37296   37299   37302   37305   37308   37311   37314   37317   37320
   37323   37326   37329   37332   37335   37338   37341   37344   37347   37350
   37353   37356   37359   37362   37365   37368   37371   37374   37377   37380
   37383   37386   37389   37392   37395   37398   37401   37404   37407   37410
   37413   37416   37419   37422   37425   37428   37431   37434   37437   37440
   37443   37446   37449   37452   37455   37458   37461   37464   37467   37470
   37473   37476   37479   37482   37485   37488   37491   37494   37497   37500
   37503   37506   37509   37512   37515   37518   37521   37524   37527   37530
   37533   37536   37539   37542   37545   37548   37551   37554   37557   37560
   37563   37566   37569   37572   37575   37578   37581   37584   37587   37590
   37593   37596   37599   37602   37605   37608   37611   37614   37617   37620
   37623   37626   37629   37632   37635   37638   37641   37644   37647   37650
   37653   37656   37659   37662   37665   37668   37671   37674   37677   37680
   37683   37686   37689   37692   37695   37698   37701   37704   37707   37710
   37713   37716   37719   37722   37725   37728   37731   37734   37737   37740
   37743   37746   37749   37752   37755   37758   37761   37764   37767   37770
   37773   37776   37779   37782   37785   37788   37791   37794   37797   37800
   37803   37806   37809   37812   37815   37818   37821   37824   37827   37830
   37833   37836   37839   37842   37845   37848   37851   37854   37857   37860
   37863   37866   37869   37872   37875   37878   37881   37884   37887   37890
   37893   37896   37899   37902   37905   37908   37911   37914   37917   37920
   37923   37926   37929   37932   37935   37938   37941   37944   37947   37950
   37953   37956   37959   37962   37965   37968   37971   37974   37977   37980
   37983   37986   37989   37992   37995   37998   38001   38004   38007   38010
   38013   38016   38019   38022   38025   38028   38031   38034   38037   38040
   38043   38046   38049   38052   38055   38058   38061   38064   38067   38070
   38073   38076   38079   38082   38085   38088   38091   38094   38097   38100
   38103   38106   38109   38112   38115   38118   38121   38124   38127   38130
   38133   38136   38139   38142   38145   38148   38151   38154   38157   38160
   38163   38166   38169   38172   38175   38178   38181   38184   38187   38190
   38193   38196   38199   38202   38205   38208   38211   38214   38217   38220
   38223   38226   38229   38232   38235   38238   38241   38244   38247   38250
   38253   38256   38259   38262   38265   38268   38271   38274   38277   38280
   38283   38286   38289   38292   38295   38298   38301   38304   38307   38310
   38313   38316   38319   38322   38325   38328   38331   38334   38337   38340
   38343   38346   38349   38352   38355   38358   38361   38364   38367   38370
   38373   38376   38379   38382   38385   38388   38391   38394   38397   38400
   38403   38406   38409   38412   38415   38418   38421   38424   38427   38430
   38433   38436   38439   38442   38445   38448   38451   38454   38457   38460
   38463   38466   38469   38472   38475   38478   38481   38484   38487   38490
   38493   38496   38499   38502   38505   38508   38511   38514   38517   38520
   38523   38526   38529   38532   38535   38538   38541   38544   38547   38550
   38553   38556   38559   38562   38565   38568   38571   38574   38577   38580
   38583   38586   38589   38592   38595   38598   38601   38604   38607   38610
   38613   38616   38619   38622   38625   38628   38631   38634   38637   38640
   38643   38646   38649   38652   38655   38658   38661   38664   38667   38670
   38673   38676   38679   38682   38685   38688   38691   38694   38697   38700
   38703   38706   38709   38712   38715   38718   38721   38724   38727   38730
   38733   38736   38739   38742   38745   38748   38751   38754   38757   38760
   38763   38766   38769   38772   38775   38778   38781   38784   38787   38790
   38793   38796   38799   38802   38805   38808   38811   38814   38817   38820
   38823   38826   38829   38832   38835   38838   38841   38844   38847   38850
   38853   38856   38859   38862   38865   38868   38871   38874   38877   38880
   38883   38886   38889   38892   38895   38898   38901   38904   38907   38910
   38913   38916   38919   38922   38925   38928   38931   38934   38937   38940
   38943   38946   38949   38952   38955   38958   38961   38964   38967   38970
   38973   38976   38979   38982   38985   38988   38991   38994   38997   39000
   39003   39006   39009   39012   39015   39018   39021   39024   39027   39030
   39033   39036   39039   39042   39045   39048   39051   39054   39057   39060
   39063   39066   39069   39072   39075   39078   39081   39084   39087   39090
   39093   39096   39099   39102   39105   39108   39111   39114   39117   39120
   39123   39126   39129   39132   39135   39138   39141   39144   39147   39150
   39153   39156   39159   39162   39165   39168   39171   39174   39177   39180
   39183   39186   39189   39192   39195   39198   39201   39204   39207   39210
   39213   39216   39219   39222   39225   39228   39231   39234   39237   39240
   39243   39246   39249   39252   39255   39258   39261   39264   39267   39270
   39273   39276   39279   39282   39285   39288   39291   39294   39297   39300
   39303   39306   39309   39312   39315   39318   39321   39324   39327   39330
   39333   39336   39339   39342   39345   39348   39351   39354   39357   39360
   39363   39366   39369   39372   39375   39378   39381   39384   39387   39390
   39393   39396   39399   39402   39405   39408   39411   39414   39417   39420
   39423   39426   39429   39432   39435   39438   39441   39444   39447   39450
   39453   39456   39459   39462   39465   39468   39471   39474   39477   39480
   39483   39486   39489   39492   39495   39498   39501   39504   39507   39510
   39513   39516   39519   39522   39525   39528   39531   39534   39537   39540
   39543   39546   39549   39552   39555   39558   39561   39564   39567   39570
   39573   39576   39579   39582   39585   39588   39591   39594   39597   39600
   39603   39606   39609   39612   39615   39618   39621   39624   39627   39630
   39633   39636   39639   39642   39645   39648   39651   39654   39657   39660
   39663   39666   39669   39672   39675   39678   39681   39684   39687   39690
   39693   39696   39699   39702   39705   39708   39711   39714   39717   39720
   39723   39726   39729   39732   39735   39738   39741   39744   39747   39750
   39753   39756   39759   39762   39765   39768   39771   39774   39777   39780
   39783   39786   39789   39792   39795   39798   39801   39804   39807   39810
   39813   39816   39819   39822   39825   39828   39831   39834   39837   39840
   39843   39846   39849   39852   39855   39858   39861   39864   39867   39870
   39873   39876   39879   39882   39885   39888   39891   39894   39897   39900
   39903   39906   39909   39912   39915   39918   39921   39924   39927   39930
   39933   39936   39939   39942   39945   39948   39951   39954   39957   39960
   39963   39966   39969   39972   39975   39978   39981   39984   39987   39990
   39993   39996   39999   40002   40005   40008   40011   40014   40017   40020
   40023   40026   40029   40032   40035   40038   40041   40044   40047   40050
   40053   40056   40059   40062   40065   40068   40071   40074   40077   40080
   40083   40086   40089   40092   40095   40098   40101   40104   40107   40110
   40113   40116   40119   40122   40125   40128   40131   40134   40137   40140
   40143   40146   40149   40152   40155   40158   40161   40164   40167   40170
   40173   40176   40179   40182   40185   40188   40191   40194   40197   40200
   40203   40206   40209   40212   40215   40218   40221   40224   40227   40230
   40233   40236   40239   40242   40245   40248   40251   40254   40257   40260
   40263   40266   40269   40272   40275   40278   40281   40284   40287   40290
   40293   40296   40299   40302   40305   40308   40311   40314   40317   40320
   40323   40326   40329   40332   40335   40338   40341   40344   40347   40350
   40353   40356   40359   40362   40365   40368   40371   40374   40377   40380
   40383   40386   40389   40392   40395   40398   40401   40404   40407   40410
   40413   40416   40419   40422   40425   40428   40431   40434   40437   40440
   40443   40446   40449   40452   40455   40458   40461   40464   40467   40470
   40473   40476   40479   40482   40485   40488   40491   40494   40497   40500
   40503   40506   40509   40512   40515   40518   40521   40524   40527   40530
   40533   40536   40539   40542   40545   40548   40551   40554   40557   40560
   40563   40566   40569   40572   40575   40578   40581   40584   40587   40590
   40593   40596   40599   40602   40605   40608   40611   40614   40617   40620
   40623   40626   40629   40632   40635   40638   40641   40644   40647   40650
   40653   40656   40659   40662   40665   40668   40671   40674   40677   40680
   40683   40686   40689   40692   40695   40698   40701   40704   40707   40710
   40713   40716   40719   40722   40725   40728   40731   40734   40737   40740
   40743   40746   40749   40752   40755   40758   40761   40764   40767   40770
   40773   40776   40779   40782   40785   40788   40791   40794   40797   40800
   40803   40806   40809   40812   40815   40818   40821   40824   40827   40830
   40833   40836   40839   40842   40845   40848   40851   40854   40857   40860
   40863   40866   40869   40872   40875   40878   40881   40884   40887   40890
   40893   40896   40899   40902   40905   40908   40911   40914   40917   40920
   40923   40926   40929   40932   40935   40938   40941   40944   40947   40950
   40953   40956   40959   40962   40965   40968   40971   40974   40977   40980
   40983   40986   40989   40992   40995   40998   41001   41004   41007   41010
   41013   41016   41019   41022   41025   41028   41031   41034   41037   41040
   41043   41046   41049   41052   41055   41058   41061   41064   41067   41070
   41073   41076   41079   41082   41085   41088   41091   41094   41097   41100
   41103   41106   41109   41112   41115   41118   41121   41124   41127   41130
   41133   41136   41139   41142   41145   41148   41151   41154   41157   41160
   41163   41166   41169   41172   41175   41178   41181   41184   41187   41190
   41193   41196   41199   41202   41205   41208   41211   41214   41217   41220
   41223   41226   41229   41232   41235   41238   41241   41244   41247   41250
   41253   41256   41259   41262   41265   41268   41271   41274   41277   41280
   41283   41286   41289   41292   41295   41298   41301   41304   41307   41310
   41313   41316   41319   41322   41325   41328   41331   41334   41337   41340
   41343   41346   41349   41352   41355   41358   41361   41364   41367   41370
   41373   41376   41379   41382   41385   41388   41391   41394   41397   41400
   41403   41406   41409   41412   41415   41418   41421   41424   41427   41430
   41433   41436   41439   41442   41445   41448   41451   41454   41457   41460
   41463   41466   41469   41472   41475   41478   41481   41484   41487   41490
   41493   41496   41499   41502   41505   41508   41511   41514   41517   41520
   41523   41526   41529   41532   41535   41538   41541   41544   41547   41550
   41553   41556   41559   41562   41565   41568   41571   41574   41577   41580
   41583   41586   41589   41592   41595   41598   41601   41604   41607   41610
   41613   41616   41619   41622   41625   41628   41631   41634   41637   41640
   41643   41646   41649   41652   41655   41658   41661   41664   41667   41670
   41673   41676   41679   41682   41685   41688   41691   41694   41697   41700
   41703   41706   41709   41712   41715   41718   41721   41724   41727   41730
   41733   41736   41739   41742   41745   41748   41751   41754   41757   41760
   41763   41766   41769   41772   41775   41778   41781   41784   41787   41790
   41793   41796   41799   41802   41805   41808   41811   41814   41817   41820
   41823   41826   41829   41832   41835   41838   41841   41844   41847   41850
   41853   41856   41859   41862   41865   41868   41871   41874   41877   41880
   41883   41886   41889   41892   41895   41898   41901   41904   41907   41910
   41913   41916   41919   41922   41925   41928   41931   41934   41937   41940
   41943   41946   41949   41952   41955   41958   41961   41964   41967   41970
   41973   41976   41979   41982   41985   41988   41991   41994   41997   42000
   42003   42006   42009   42012   42015   42018   42021   42024   42027   42030
   42033   42036   42039   42042   42045   42048   42051   42054   42057   42060
   42063   42066   42069   42072   42075   42078   42081   42084   42087   42090
   42093   42096   42099   42102   42105   42108   42111   42114   42117   42120
   42123   42126   42129   42132   42135   42138   42141   42144   42147   42150
   42153   42156   42159   42162   42165   42168   42171   42174   42177   42180
   42183   42186   42189   42192   42195   42198   42201   42204   42207   42210
   42213   42216   42219   42222   42225   42228   42231   42234   42237   42240
   42243   42246   42249   42252   42255   42258   42261   42264   42267   42270
   42273   42276   42279   42282   42285   42288   42291   42294   42297   42300
   42303   42306   42309   42312   42315   42318   42321   42324   42327   42330
   42333   42336   42339   42342   42345   42348   42351   42354   42357   42360
   42363   42366   42369   42372   42375   42378   42381   42384   42387   42390
   42393   42396   42399   42402   42405   42408   42411   42414   42417   42420
   42423   42426   42429   42432   42435   42438   42441   42444   42447   42450
   42453   42456   42459   42462   42465   42468   42471   42474   42477   42480
   42483   42486   42489   42492   42495   42498   42501   42504   42507   42510
   42513   42516   42519   42522   42525   42528   42531   42534   42537   42540
   42543   42546   42549   42552   42555   42558   42561   42564   42567   42570
   42573   42576   42579   42582   42585   42588   42591   42594   42597   42600
   42603   42606   42609   42612   42615   42618   42621   42624   42627   42630
   42633   42636   42639   42642   42645   42648   42651   42654   42657   42660
   42663   42666   42669   42672   42675   42678   42681   42684   42687   42690
   42693   42696   42699   42702   42705   42708   42711   42714   42717   42720
   42723   42726   42729   42732   42735   42738   42741   42744   42747   42750
   42753   42756   42759   42762   42765   42768   42771   42774   42777   42780
   42783   42786   42789   42792   42795   42798   42801   42804   42807   42810
   42813   42816   42819   42822   42825   42828   42831   42834   42837   42840
   42843   42846   42849   42852   42855   42858   42861   42864   42867   42870
   42873   42876   42879   42882   42885   42888   42891   42894   42897   42900
   42903   42906   42909   42912   42915   42918   42921   42924   42927   42930
   42933   42936   42939   42942   42945   42948   42951   42954   42957   42960
   42963   42966   42969   42972   42975   42978   42981   42984   42987   42990
   42993   42996   42999   43002   43005   43008   43011   43014   43017   43020
   43023   43026   43029   43032   43035   43038   43041   43044   43047   43050
   43053   43056   43059   43062   43065   43068   43071   43074   43077   43080
   43083   43086   43089   43092   43095   43098   43101   43104   43107   43110
   43113   43116   43119   43122   43125   43128   43131   43134   43137   43140
   43143   43146   43149   43152   43155   43158   43161   43164   43167   43170
   43173   43176   43179   43182   43185   43188   43191   43194   43197   43200
   43203   43206   43209   43212   43215   43218   43221   43224   43227   43230
   43233   43236   43239   43242   43245   43248   43251   43254   43257   43260
   43263   43266   43269   43272   43275   43278   43281   43284   43287   43290
   43293   43296   43299   43302   43305   43308   43311   43314   43317   43320
   43323   43326   43329   43332   43335   43338   43341   43344   43347   43350
   43353   43356   43359   43362   43365   43368   43371   43374   43377   43380
   43383   43386   43389   43392   43395   43398   43401   43404   43407   43410
   43413   43416   43419   43422   43425   43428   43431   43434   43437   43440
   43443   43446   43449   43452   43455   43458   43461   43464   43467   43470
   43473   43476   43479   43482   43485   43488   43491   43494   43497   43500
   43503   43506   43509   43512   43515   43518   43521   43524   43527   43530
   43533   43536   43539   43542   43545   43548   43551   43554   43557   43560
   43563   43566   43569   43572   43575   43578   43581   43584   43587   43590
   43593   43596   43599   43602   43605   43608   43611   43614   43617   43620
   43623   43626   43629   43632   43635   43638   43641   43644   43647   43650
   43653   43656   43659   43662   43665   43668   43671   43674   43677   43680
   43683   43686   43689   43692   43695   43698   43701   43704   43707   43710
   43713   43716   43719   43722   43725   43728   43731   43734   43737   43740
   43743   43746   43749   43752   43755   43758   43761   43764   43767   43770
   43773   43776   43779   43782   43785   43788   43791   43794   43797   43800
   43803   43806   43809   43812   43815   43818   43821   43824   43827   43830
   43833   43836   43839   43842   43845   43848   43851   43854   43857   43860
   43863   43866   43869   43872   43875   43878   43881   43884   43887   43890
   43893   43896   43899   43902   43905   43908   43911   43914   43917   43920
   43923   43926   43929   43932   43935   43938   43941   43944   43947   43950
   43953   43956   43959   43962   43965   43968   43971   43974   43977   43980
   43983   43986   43989   43992   43995   43998   44001   44004   44007   44010
   44013   44016   44019   44022   44025   44028   44031   44034   44037   44040
   44043   44046   44049   44052   44055   44058   44061   44064   44067   44070
   44073   44076   44079   44082   44085   44088   44091   44094   44097   44100
   44103   44106   44109   44112   44115   44118   44121   44124   44127   44130
   44133   44136   44139   44142   44145   44148   44151   44154   44157   44160
   44163   44166   44169   44172   44175   44178   44181   44184   44187   44190
   44193   44196   44199   44202   44205   44208   44211   44214   44217   44220
   44223   44226   44229   44232   44235   44238   44241   44244   44247   44250
   44253   44256   44259   44262   44265   44268   44271   44274   44277   44280
   44283   44286   44289   44292   44295   44298   44301   44304   44307   44310
   44313   44316   44319   44322   44325   44328   44331   44334   44337   44340
   44343   44346   44349   44352   44355   44358   44361   44364   44367   44370
   44373   44376   44379   44382   44385   44388   44391   44394   44397   44400
   44403   44406   44409   44412   44415   44418   44421   44424   44427   44430
   44433   44436   44439   44442   44445   44448   44451   44454   44457   44460
   44463   44466   44469   44472   44475   44478   44481   44484   44487   44490
   44493   44496   44499   44502   44505   44508   44511   44514   44517   44520
   44523   44526   44529   44532   44535   44538   44541   44544   44547   44550
   44553   44556   44559   44562   44565   44568   44571   44574   44577   44580
   44583   44586   44589   44592   44595   44598   44601   44604   44607   44610
   44613   44616   44619   44622   44625   44628   44631   44634   44637   44640
   44643   44646   44649   44652   44655   44658   44661   44664   44667   44670
   44673   44676   44679   44682   44685   44688   44691   44694   44697   44700
   44703   44706   44709   44712   44715   44718   44721   44724   44727   44730
   44733   44736   44739   44742   44745   44748   44751   44754   44757   44760
   44763   44766   44769   44772   44775   44778   44781   44784   44787   44790
   44793   44796   44799   44802   44805   44808   44811   44814   44817   44820
   44823   44826   44829   44832   44835   44838   44841   44844   44847   44850
   44853   44856   44859   44862   44865   44868   44871   44874   44877   44880
   44883   44886   44889   44892   44895   44898   44901   44904   44907   44910
   44913   44916   44919   44922   44925   44928   44931   44934   44937   44940
   44943   44946   44949   44952   44955   44958   44961   44964   44967   44970
   44973   44976   44979   44982   44985   44988   44991   44994   44997   45000
   45003   45006   45009   45012   45015   45018   45021   45024   45027   45030
   45033   45036   45039   45042   45045   45048   45051   45054   45057   45060
   45063   45066   45069   45072   45075   45078   45081   45084   45087   45090
   45093   45096   45099   45102   45105   45108   45111   45114   45117   45120
   45123   45126   45129   45132   45135   45138   45141   45144   45147   45150
   45153   45156   45159   45162   45165   45168   45171   45174   45177   45180
   45183   45186   45189   45192   45195   45198   45201   45204   45207   45210
   45213   45216   45219   45222   45225   45228   45231   45234   45237   45240
   45243   45246   45249   45252   45255   45258   45261   45264   45267   45270
   45273   45276   45279   45282   45285   45288   45291   45294   45297   45300
   45303   45306   45309   45312   45315   45318   45321   45324   45327   45330
   45333   45336   45339   45342   45345   45348   45351   45354   45357   45360
   45363   45366   45369   45372   45375   45378   45381   45384   45387   45390
   45393   45396   45399   45402   45405   45408   45411   45414   45417   45420
   45423   45426   45429   45432   45435   45438   45441   45444   45447   45450
   45453   45456   45459   45462   45465   45468   45471   45474   45477   45480
   45483   45486   45489   45492   45495   45498   45501   45504   45507   45510
   45513   45516   45519   45522   45525   45528   45531   45534   45537   45540
   45543   45546   45549   45552   45555   45558   45561   45564   45567   45570
   45573   45576   45579   45582   45585   45588   45591   45594   45597   45600
   45603   45606   45609   45612   45615   45618   45621   45624   45627   45630
   45633   45636   45639   45642   45645   45648   45651   45654   45657   45660
   45663   45666   45669   45672   45675   45678   45681   45684   45687   45690
   45693   45696   45699   45702   45705   45708   45711   45714   45717   45720
   45723   45726   45729   45732   45735   45738   45741   45744   45747   45750
   45753   45756   45759   45762   45765   45768   45771   45774   45777   45780
   45783   45786   45789   45792   45795   45798   45801   45804   45807   45810
   45813   45816   45819   45822   45825   45828   45831   45834   45837   45840
   45843   45846   45849   45852   45855   45858   45861   45864   45867   45870
   45873   45876   45879   45882   45885   45888   45891   45894   45897   45900
   45903   45906   45909   45912   45915   45918   45921   45924   45927   45930
   45933   45936   45939   45942   45945   45948   45951   45954   45957   45960
   45963   45966   45969   45972   45975   45978   45981   45984   45987   45990
   45993   45996   45999   46002   46005   46008   46011   46014   46017   46020
   46023   46026   46029   46032   46035   46038   46041   46044   46047   46050
   46053   46056   46059   46062   46065   46068   46071   46074   46077   46080
   46083   46086   46089   46092   46095   46098   46101   46104   46107   46110
   46113   46116   46119   46122   46125   46128   46131   46134   46137   46140
   46143   46146   46149   46152   46155   46158   46161   46164   46167   46170
   46173   46176   46179   46182   46185   46188   46191   46194   46197   46200
   46203   46206   46209   46212   46215   46218   46221   46224   46227   46230
   46233   46236   46239   46242   46245   46248   46251   46254   46257   46260
   46263   46266   46269   46272   46275   46278   46281   46284   46287   46290
   46293   46296   46299   46302   46305   46308   46311   46314   46317   46320
   46323   46326   46329   46332   46335   46338   46341   46344   46347   46350
   46353   46356   46359   46362   46365   46368   46371   46374   46377   46380
   46383   46386   46389   46392   46395   46398   46401   46404   46407   46410
   46413   46416   46419   46422   46425   46428   46431   46434   46437   46440
   46443   46446   46449   46452   46455   46458   46461   46464   46467   46470
   46473   46476   46479   46482   46485   46488   46491   46494   46497   46500
   46503   46506   46509   46512   46515   46518   46521   46524   46527   46530
   46533   46536   46539   46542   46545   46548   46551   46554   46557   46560
   46563   46566   46569   46572   46575   46578   46581   46584   46587   46590
   46593   46596   46599   46602   46605   46608   46611   46614   46617   46620
   46623   46626   46629   46632   46635   46638   46641   46644   46647   46650
   46653   46656   46659   46662   46665   46668   46671   46674   46677   46680
   46683   46686   46689   46692   46695   46698   46701   46704   46707   46710
   46713   46716   46719   46722   46725   46728   46731   46734   46737   46740
   46743   46746   46749   46752   46755   46758   46761   46764   46767   46770
   46773   46776   46779   46782   46785   46788   46791   46794   46797   46800
   46803   46806   46809   46812   46815   46818   46821   46824   46827   46830
   46833   46836   46839   46842   46845   46848   46851   46854   46857   46860
   46863   46866   46869   46872   46875   46878   46881   46884   46887   46890
   46893   46896   46899   46902   46905   46908   46911   46914   46917   46920
   46923   46926   46929   46932   46935   46938   46941   46944   46947   46950
   46953   46956   46959   46962   46965   46968   46971   46974   46977   46980
   46983   46986   46989   46992   46995   46998   47001   47004   47007   47010
   47013   47016   47019   47022   47025   47028   47031   47034   47037   47040
   47043   47046   47049   47052   47055   47058   47061   47064   47067   47070
   47073   47076   47079   47082   47085   47088   47091   47094   47097   47100
   47103   47106   47109   47112   47115   47118   47121   47124   47127   47130
   47133   47136   47139   47142   47145   47148   47151   47154   47157   47160
   47163   47166   47169   47172   47175   47178   47181   47184   47187   47190
   47193   47196   47199   47202   47205   47208   47211   47214   47217   47220
   47223   47226   47229   47232   47235   47238   47241   47244   47247   47250
   47253   47256   47259   47262   47265   47268   47271   47274   47277   47280
   47283   47286   47289   47292   47295   47298   47301   47304   47307   47310
   47313   47316   47319   47322   47325   47328   47331   47334   47337   47340
   47343   47346   47349   47352   47355   47358   47361   47364   47367   47370
   47373   47376   47379   47382   47385   47388   47391   47394   47397   47400
   47403   47406   47409   47412   47415   47418   47421   47424   47427   47430
   47433   47436   47439   47442   47445   47448   47451   47454   47457   47460
   47463   47466   47469   47472   47475   47478   47481   47484   47487   47490
   47493   47496   47499   47502   47505   47508   47511   47514   47517   47520
   47523   47526   47529   47532   47535   47538   47541   47544   47547   47550
   47553   47556   47559   47562   47565   47568   47571   47574   47577   47580
   47583   47586   47589   47592   47595   47598   47601   47604   47607   47610
   47613   47616   47619   47622   47625   47628   47631   47634   47637   47640
   47643   47646   47649   47652   47655   47658   47661   47664   47667   47670
   47673   47676   47679   47682   47685   47688   47691   47694   47697   47700
   47703   47706   47709   47712   47715   47718   47721   47724   47727   47730
   47733   47736   47739   47742   47745   47748   47751   47754   47757   47760
   47763   47766   47769   47772   47775   47778   47781   47784   47787   47790
   47793   47796   47799   47802   47805   47808   47811   47814   47817   47820
   47823   47826   47829   47832   47835   47838   47841   47844   47847   47850
   47853   47856   47859   47862   47865   47868   47871   47874   47877   47880
   47883   47886   47889   47892   47895   47898   47901   47904   47907   47910
   47913   47916   47919   47922   47925   47928   47931   47934   47937   47940
   47943   47946   47949   47952   47955   47958   47961   47964   47967   47970
   47973   47976   47979   47982   47985   47988   47991   47994   47997   48000
   48003   48006   48009   48012   48015   48018   48021   48024   48027   48030
   48033   48036   48039   48042   48045   48048   48051   48054   48057   48060
   48063   48066   48069   48072   48075   48078   48081   48084   48087   48090
   48093   48096   48099   48102   48105   48108   48111   48114   48117   48120
   48123   48126   48129   48132   48135   48138   48141   48144   48147   48150
   48153   48156   48159   48162   48165   48168   48171   48174   48177   48180
   48183   48186   48189   48192   48195   48198   48201   48204   48207   48210
   48213   48216   48219   48222   48225   48228   48231   48234   48237   48240
   48243   48246   48249   48252   48255   48258   48261   48264   48267   48270
   48273   48276   48279   48282   48285   48288   48291   48294   48297   48300
   48303   48306   48309   48312   48315   48318   48321   48324   48327   48330
   48333   48336   48339   48342   48345   48348   48351   48354   48357   48360
   48363   48366   48369   48372   48375   48378   48381   48384   48387   48390
   48393   48396   48399   48402   48405   48408   48411   48414   48417   48420
   48423   48426   48429   48432   48435   48438   48441   48444   48447   48450
   48453   48456   48459   48462   48465   48468   48471   48474   48477   48480
   48483   48486   48489   48492   48495   48498   48501   48504   48507   48510
   48513   48516   48519   48522   48525   48528   48531   48534   48537   48540
   48543   48546   48549   48552   48555   48558   48561   48564   48567   48570
   48573   48576   48579   48582   48585   48588   48591   48594   48597   48600
   48603   48606   48609   48612   48615   48618   48621   48624   48627   48630
   48633   48636   48639   48642   48645   48648   48651   48654   48657   48660
   48663   48666   48669   48672   48675   48678   48681   48684   48687   48690
   48693   48696   48699   48702   48705   48708   48711   48714   48717   48720
   48723   48726   48729   48732   48735   48738   48741   48744   48747   48750
   48753   48756   48759   48762   48765   48768   48771   48774   48777   48780
   48783   48786   48789   48792   48795   48798   48801   48804   48807   48810
   48813   48816   48819   48822   48825   48828   48831   48834   48837   48840
   48843   48846   48849   48852   48855   48858   48861   48864   48867   48870
   48873   48876   48879   48882   48885   48888   48891   48894   48897   48900
   48903   48906   48909   48912   48915   48918   48921   48924   48927   48930
   48933   48936   48939   48942   48945   48948   48951   48954   48957   48960
   48963   48966   48969   48972   48975   48978   48981   48984   48987   48990
   48993   48996   48999   49002   49005   49008   49011   49014   49017   49020
   49023   49026   49029   49032   49035   49038   49041   49044   49047   49050
   49053   49056   49059   49062   49065   49068   49071   49074   49077   49080
   49083   49086   49089   49092   49095   49098   49101   49104   49107   49110
   49113   49116   49119   49122   49125   49128   49131   49134   49137   49140
   49143   49146   49149   49152   49155   49158   49161   49164   49167   49170
   49173   49176   49179   49182   49185   49188   49191   49194   49197   49200
   49203   49206   49209   49212   49215   49218   49221   49224   49227   49230
   49233   49236   49239   49242   49245   49248   49251   49254   49257   49260
   49263   49266   49269   49272   49275   49278   49281   49284   49287   49290
   49293   49296   49299   49302   49305   49308   49311   49314   49317   49320
   49323   49326   49329   49332   49335   49338   49341   49344   49347   49350
   49353   49356   49359   49362   49365   49368   49371   49374   49377   49380
   49383   49386   49389   49392   49395   49398   49401   49404   49407   49410
   49413   49416   49419   49422   49425   49428   49431   49434   49437   49440
   49443   49446   49449   49452   49455   49458   49461   49464   49467   49470
   49473   49476   49479   49482   49485   49488   49491   49494   49497   49500
   49503   49506   49509   49512   49515   49518   49521   49524   49527   49530
   49533   49536   49539   49542   49545   49548   49551   49554   49557   49560
   49563   49566   49569   49572   49575   49578   49581   49584   49587   49590
   49593   49596   49599   49602   49605   49608   49611   49614   49617   49620
   49623   49626   49629   49632   49635   49638   49641   49644   49647   49650
   49653   49656   49659   49662   49665   49668   49671   49674   49677   49680
   49683   49686   49689   49692   49695   49698   49701   49704   49707   49710
   49713   49716   49719   49722   49725   49728   49731   49734   49737   49740
   49743   49746   49749   49752   49755   49758   49761   49764   49767   49770
   49773   49776   49779   49782   49785   49788   49791   49794   49797   49800
   49803   49806   49809   49812   49815   49818   49821   49824   49827   49830
   49833   49836   49839   49842   49845   49848   49851   49854   49857   49860
   49863   49866   49869   49872   49875   49878   49881   49884   49887   49890
   49893   49896   49899   49902   49905   49908   49911   49914   49917   49920
   49923   49926   49929   49932   49935   49938   49941   49944   49947   49950
   49953   49956   49959   49962   49965   49968   49971   49974   49977   49980
   49983   49986   49989   49992   49995   49998   50001   50004   50007   50010
   50013   50016   50019   50022   50025   50028   50031   50034   50037   50040
   50043   50046   50049   50052   50055   50058   50061   50064   50067   50070
   50073   50076   50079   50082   50085   50088   50091   50094   50097   50100
   50103   50106   50109   50112   50115   50118   50121   50124   50127   50130
   50133   50136   50139   50142   50145   50148   50151   50154   50157   50160
   50163   50166   50169   50172   50175   50178   50181   50184   50187   50190
   50193   50196   50199   50202   50205   50208   50211   50214   50217   50220
   50223   50226   50229   50232   50235   50238   50241   50244   50247   50250
   50253   50256   50259   50262   50265   50268   50271   50274   50277   50280
   50283   50286   50289   50292   50295   50298   50301   50304   50307   50310
   50313   50316   50319   50322   50325   50328   50331   50334   50337   50340
   50343   50346   50349   50352   50355   50358   50361   50364   50367   50370
   50373   50376   50379   50382   50385   50388   50391   50394   50397   50400
   50403   50406   50409   50412   50415   50418   50421   50424   50427   50430
   50433   50436   50439   50442   50445   50448   50451   50454   50457   50460
   50463   50466   50469   50472   50475   50478   50481   50484   50487   50490
   50493   50496   50499   50502   50505   50508   50511   50514   50517   50520
   50523   50526   50529   50532   50535   50538   50541   50544   50547   50550
   50553   50556   50559   50562   50565   50568   50571   50574   50577   50580
   50583   50586   50589   50592   50595   50598   50601   50604   50607   50610
   50613   50616   50619   50622   50625   50628   50631   50634   50637   50640
   50643   50646   50649   50652   50655   50658   50661   50664   50667   50670
   50673   50676   50679   50682   50685   50688   50691   50694   50697   50700
   50703   50706   50709   50712   50715   50718   50721   50724   50727   50730
   50733   50736   50739   50742   50745   50748   50751   50754   50757   50760
   50763   50766   50769   50772   50775   50778   50781   50784   50787   50790
   50793   50796   50799   50802   50805   50808   50811   50814   50817   50820
   50823   50826   50829   50832   50835   50838   50841   50844   50847   50850
   50853   50856   50859   50862   50865   50868   50871   50874   50877   50880
   50883   50886   50889   50892   50895   50898   50901   50904   50907   50910
   50913   50916   50919   50922   50925   50928   50931   50934   50937   50940
   50943   50946   50949   50952   50955   50958   50961   50964   50967   50970
   50973   50976   50979   50982   50985   50988   50991   50994   50997   51000
   51003   51006   51009   51012   51015   51018   51021   51024   51027   51030
   51033   51036   51039   51042   51045   51048   51051   51054   51057   51060
   51063   51066   51069   51072   51075   51078   51081   51084   51087   51090
   51093   51096   51099   51102   51105   51108   51111   51114   51117   51120
   51123   51126   51129   51132   51135   51138   51141   51144   51147   51150
   51153   51156   51159   51162   51165   51168   51171   51174   51177   51180
   51183   51186   51189   51192   51195   51198   51201   51204   51207   51210
   51213   51216   51219   51222   51225   51228   51231   51234   51237   51240
   51243   51246   51249   51252   51255   51258   51261   51264   51267   51270
   51273   51276   51279   51282   51285   51288   51291   51294   51297   51300
   51303   51306   51309   51312   51315   51318   51321   51324   51327   51330
   51333   51336   51339   51342   51345   51348   51351   51354   51357   51360
   51363   51366   51369   51372   51375   51378   51381   51384   51387   51390
   51393   51396   51399   51402   51405   51408   51411   51414   51417   51420
   51423   51426   51429   51432   51435   51438   51441   51444   51447   51450
   51453   51456   51459   51462   51465   51468   51471   51474   51477   51480
   51483   51486   51489   51492   51495   51498   51501   51504   51507   51510
   51513   51516   51519   51522   51525   51528   51531   51534   51537   51540
   51543   51546   51549   51552   51555   51558   51561   51564   51567   51570
   51573   51576   51579   51582   51585   51588   51591   51594   51597   51600
   51603   51606   51609   51612   51615   51618   51621   51624   51627   51630
   51633   51636   51639   51642   51645   51648   51651   51654   51657   51660
   51663   51666   51669   51672   51675   51678   51681   51684   51687   51690
   51693   51696   51699   51702   51705   51708   51711   51714   51717   51720
   51723   51726   51729   51732   51735   51738   51741   51744   51747   51750
   51753   51756   51759   51762   51765   51768   51771   51774   51777   51780
   51783   51786   51789   51792   51795   51798   51801   51804   51807   51810
   51813   51816   51819   51822   51825   51828   51831   51834   51837   51840
   51843   51846   51849   51852   51855   51858   51861   51864   51867   51870
   51873   51876   51879   51882   51885   51888   51891   51894   51897   51900
   51903   51906   51909   51912   51915   51918   51921   51924   51927   51930
   51933   51936   51939   51942   51945   51948   51951   51954   51957   51960
   51963   51966   51969   51972   51975   51978   51981   51984   51987   51990
   51993   51996   51999   52002   52005   52008   52011   52014   52017   52020
   52023   52026   52029   52032   52035   52038   52041   52044   52047   52050
   52053   52056   52059   52062   52065   52068   52071   52074   52077   52080
   52083   52086   52089   52092   52095   52098   52101   52104   52107   52110
   52113   52116   52119   52122   52125   52128   52131   52134   52137   52140
   52143   52146   52149   52152   52155   52158   52161   52164   52167   52170
   52173   52176   52179   52182   52185   52188   52191   52194   52197   52200
   52203   52206   52209   52212   52215   52218   52221   52224   52227   52230
   52233   52236   52239   52242   52245   52248   52251   52254   52257   52260
   52263   52266   52269   52272   52275   52278   52281   52284   52287   52290
   52293   52296   52299   52302   52305   52308   52311   52314   52317   52320
   52323   52326   52329   52332   52335   52338   52341   52344   52347   52350
   52353   52356   52359   52362   52365   52368   52371   52374   52377   52380
   52383   52386   52389   52392   52395   52398   52401   52404   52407   52410
   52413   52416   52419   52422   52425   52428   52431   52434   52437   52440
   52443   52446   52449   52452   52455   52458   52461   52464   52467   52470
   52473   52476   52479   52482   52485   52488   52491   52494   52497   52500
   52503   52506   52509   52512   52515   52518   52521   52524   52527   52530
   52533   52536   52539   52542   52545   52548   52551   52554   52557   52560
   52563   52566   52569   52572   52575   52578   52581   52584   52587   52590
   52593   52596   52599   52602   52605   52608   52611   52614   52617   52620
   52623   52626   52629   52632   52635   52638   52641   52644   52647   52650
   52653   52656   52659   52662   52665   52668   52671   52674   52677   52680
   52683   52686   52689   52692   52695   52698   52701   52704   52707   52710
   52713   52716   52719   52722   52725   52728   52731   52734   52737   52740
   52743   52746   52749   52752   52755   52758   52761   52764   52767   52770
   52773   52776   52779   52782   52785   52788   52791   52794   52797   52800
   52803   52806   52809   52812   52815   52818   52821   52824   52827   52830
   52833   52836   52839   52842   52845   52848   52851   52854   52857   52860
   52863   52866   52869   52872   52875   52878   52881   52884   52887   52890
   52893   52896   52899   52902   52905   52908   52911   52914   52917   52920
   52923   52926   52929   52932   52935   52938   52941   52944   52947   52950
   52953   52956   52959   52962   52965   52968   52971   52974   52977   52980
   52983   52986   52989   52992   52995   52998   53001   53004   53007   53010
   53013   53016   53019   53022   53025   53028   53031   53034   53037   53040
   53043   53046   53049   53052   53055   53058   53061   53064   53067   53070
   53073   53076   53079   53082   53085   53088   53091   53094   53097   53100
   53103   53106   53109   53112   53115   53118   53121   53124   53127   53130
   53133   53136   53139   53142   53145   53148   53151   53154   53157   53160
   53163   53166   53169   53172   53175   53178   53181   53184   53187   53190
   53193   53196   53199   53202   53205   53208   53211   53214   53217   53220
   53223   53226   53229   53232   53235   53238   53241   53244   53247   53250
   53253   53256   53259   53262   53265   53268   53271   53274   53277   53280
   53283   53286   53289   53292   53295   53298   53301   53304   53307   53310
   53313   53316   53319   53322   53325   53328   53331   53334   53337   53340
   53343   53346   53349   53352   53355   53358   53361   53364   53367   53370
   53373   53376   53379   53382   53385   53388   53391   53394   53397   53400
   53403   53406   53409   53412   53415   53418   53421   53424   53427   53430
   53433   53436   53439   53442   53445   53448   53451   53454   53457   53460
   53463   53466   53469   53472   53475   53478   53481   53484   53487   53490
   53493   53496   53499   53502   53505   53508   53511   53514   53517   53520
   53523   53526   53529   53532   53535   53538   53541   53544   53547   53550
   53553   53556   53559   53562   53565   53568   53571   53574   53577   53580
   53583   53586   53589   53592   53595   53598   53601   53604   53607   53610
   53613   53616   53619   53622   53625   53628   53631   53634   53637   53640
   53643   53646   53649   53652   53655   53658   53661   53664   53667   53670
   53673   53676   53679   53682   53685   53688   53691   53694   53697   53700
   53703   53706   53709   53712   53715   53718   53721   53724   53727   53730
   53733   53736   53739   53742   53745   53748   53751   53754   53757   53760
   53763   53766   53769   53772   53775   53778   53781   53784   53787   53790
   53793   53796   53799   53802   53805   53808   53811   53814   53817   53820
   53823   53826   53829   53832   53835   53838   53841   53844   53847   53850
   53853   53856   53859   53862   53865   53868   53871   53874   53877   53880
   53883   53886   53889   53892   53895   53898   53901   53904   53907   53910
   53913   53916   53919   53922   53925   53928   53931   53934   53937   53940
   53943   53946   53949   53952   53955   53958   53961   53964   53967   53970
   53973   53976   53979   53982   53985   53988   53991   53994   53997   54000
   54003   54006   54009   54012   54015   54018   54021   54024   54027   54030
   54033   54036   54039   54042   54045   54048   54051   54054   54057   54060
   54063   54066   54069   54072   54075   54078   54081   54084   54087   54090
   54093   54096   54099   54102   54105   54108   54111   54114   54117   54120
   54123   54126   54129   54132   54135   54138   54141   54144   54147   54150
   54153   54156   54159   54162   54165   54168   54171   54174   54177   54180
   54183   54186   54189   54192   54195   54198   54201   54204   54207   54210
   54213   54216   54219   54222   54225   54228   54231   54234   54237   54240
   54243   54246   54249   54252   54255   54258   54261   54264   54267   54270
   54273   54276   54279   54282   54285   54288   54291   54294   54297   54300
   54303   54306   54309   54312   54315   54318   54321   54324   54327   54330
   54333   54336   54339   54342   54345   54348   54351   54354   54357   54360
   54363   54366   54369   54372   54375   54378   54381   54384   54387   54390
   54393   54396   54399   54402   54405   54408   54411   54414   54417   54420
   54423   54426   54429   54432   54435   54438   54441   54444   54447   54450
   54453   54456   54459   54462   54465   54468   54471   54474   54477   54480
   54483   54486   54489   54492   54495   54498   54501   54504   54507   54510
   54513   54516   54519   54522   54525   54528   54531   54534   54537   54540
   54543   54546   54549   54552   54555   54558   54561   54564   54567   54570
   54573   54576   54579   54582   54585   54588   54591   54594   54597   54600
   54603   54606   54609   54612   54615   54618   54621   54624   54627   54630
   54633   54636   54639   54642   54645   54648   54651   54654   54657   54660
   54663   54666   54669   54672   54675   54678   54681   54684   54687   54690
   54693   54696   54699   54702   54705   54708   54711   54714   54717   54720
   54723   54726   54729   54732   54735   54738   54741   54744   54747   54750
   54753   54756   54759   54762   54765   54768   54771   54774   54777   54780
   54783   54786   54789   54792   54795   54798   54801   54804   54807   54810
   54813   54816   54819   54822   54825   54828   54831   54834   54837   54840
   54843   54846   54849   54852   54855   54858   54861   54864   54867   54870
   54873   54876   54879   54882   54885   54888   54891   54894   54897   54900
   54903   54906   54909   54912   54915   54918   54921   54924   54927   54930
   54933   54936   54939   54942   54945   54948   54951   54954   54957   54960
   54963   54966   54969   54972   54975   54978   54981   54984   54987   54990
   54993   54996   54999   55002   55005   55008   55011   55014   55017   55020
   55023   55026   55029   55032   55035   55038   55041   55044   55047   55050
   55053   55056   55059   55062   55065   55068   55071   55074   55077   55080
   55083   55086   55089   55092   55095   55098   55101   55104   55107   55110
   55113   55116   55119   55122   55125   55128   55131   55134   55137   55140
   55143   55146   55149   55152   55155   55158   55161   55164   55167   55170
   55173   55176   55179   55182   55185   55188   55191   55194   55197   55200
   55203   55206   55209   55212   55215   55218   55221   55224   55227   55230
   55233   55236   55239   55242   55245   55248   55251   55254   55257   55260
   55263   55266   55269   55272   55275   55278   55281   55284   55287   55290
   55293   55296   55299   55302   55305   55308   55311   55314   55317   55320
   55323   55326   55329   55332   55335   55338   55341   55344   55347   55350
   55353   55356   55359   55362   55365   55368   55371   55374   55377   55380
   55383   55386   55389   55392   55395   55398   55401   55404   55407   55410
   55413   55416   55419   55422   55425   55428   55431   55434   55437   55440
   55443   55446   55449   55452   55455   55458   55461   55464   55467   55470
   55473   55476   55479   55482   55485   55488   55491   55494   55497   55500
   55503   55506   55509   55512   55515   55518   55521   55524   55527   55530
   55533   55536   55539   55542   55545   55548   55551   55554   55557   55560
   55563   55566   55569   55572   55575   55578   55581   55584   55587   55590
   55593   55596   55599   55602   55605   55608   55611   55614   55617   55620
   55623   55626   55629   55632   55635   55638   55641   55644   55647   55650
   55653   55656   55659   55662   55665   55668   55671   55674   55677   55680
   55683   55686   55689   55692   55695   55698   55701   55704   55707   55710
   55713   55716   55719   55722   55725   55728   55731   55734   55737   55740
   55743   55746   55749   55752   55755   55758   55761   55764   55767   55770
   55773   55776   55779   55782   55785   55788   55791   55794   55797   55800
   55803   55806   55809   55812   55815   55818   55821   55824   55827   55830
   55833   55836   55839   55842   55845   55848   55851   55854   55857   55860
   55863   55866   55869   55872   55875   55878   55881   55884   55887   55890
   55893   55896   55899   55902   55905   55908   55911   55914   55917   55920
   55923   55926   55929   55932   55935   55938   55941   55944   55947   55950
   55953   55956   55959   55962   55965   55968   55971   55974   55977   55980
   55983   55986   55989   55992   55995   55998   56001   56004   56007   56010
   56013   56016   56019   56022   56025   56028   56031   56034   56037   56040
   56043   56046   56049   56052   56055   56058   56061   56064   56067   56070
   56073   56076   56079   56082   56085   56088   56091   56094   56097   56100
   56103   56106   56109   56112   56115   56118   56121   56124   56127   56130
   56133   56136   56139   56142   56145   56148   56151   56154   56157   56160
   56163   56166   56169   56172   56175   56178   56181   56184   56187   56190
   56193   56196   56199   56202   56205   56208   56211   56214   56217   56220
   56223   56226   56229   56232   56235   56238   56241   56244   56247   56250
   56253   56256   56259   56262   56265   56268   56271   56274   56277   56280
   56283   56286   56289   56292   56295   56298   56301   56304   56307   56310
   56313   56316   56319   56322   56325   56328   56331   56334   56337   56340
   56343   56346   56349   56352   56355   56358   56361   56364   56367   56370
   56373   56376   56379   56382   56385   56388   56391   56394   56397   56400
   56403   56406   56409   56412   56415   56418   56421   56424   56427   56430
   56433   56436   56439   56442   56445   56448   56451   56454   56457   56460
   56463   56466   56469   56472   56475   56478   56481   56484   56487   56490
   56493   56496   56499   56502   56505   56508   56511   56514   56517   56520
   56523   56526   56529   56532   56535   56538   56541   56544   56547   56550
   56553   56556   56559   56562   56565   56568   56571   56574   56577   56580
   56583   56586   56589   56592   56595   56598   56601   56604   56607   56610
   56613   56616   56619   56622   56625   56628   56631   56634   56637   56640
   56643   56646   56649   56652   56655   56658   56661   56664   56667   56670
   56673   56676   56679   56682   56685   56688   56691   56694   56697   56700
   56703   56706   56709   56712   56715   56718   56721   56724   56727   56730
   56733   56736   56739   56742   56745   56748   56751   56754   56757   56760
   56763   56766   56769   56772   56775   56778   56781   56784   56787   56790
   56793   56796   56799   56802   56805   56808   56811   56814   56817   56820
   56823   56826   56829   56832   56835   56838   56841   56844   56847   56850
   56853   56856   56859   56862   56865   56868   56871   56874   56877   56880
   56883   56886   56889   56892   56895   56898   56901   56904   56907   56910
   56913   56916   56919   56922   56925   56928   56931   56934   56937   56940
   56943   56946   56949   56952   56955   56958   56961   56964   56967   56970
   56973   56976   56979   56982   56985   56988   56991   56994   56997   57000
   57003   57006   57009   57012   57015   57018   57021   57024   57027   57030
   57033   57036   57039   57042   57045   57048   57051   57054   57057   57060
   57063   57066   57069   57072   57075   57078   57081   57084   57087   57090
   57093   57096   57099   57102   57105   57108   57111   57114   57117   57120
   57123   57126   57129   57132   57135   57138   57141   57144   57147   57150
   57153   57156   57159   57162   57165   57168   57171   57174   57177   57180
   57183   57186   57189   57192   57195   57198   57201   57204   57207   57210
   57213   57216   57219   57222   57225   57228   57231   57234   57237   57240
   57243   57246   57249   57252   57255   57258   57261   57264   57267   57270
   57273   57276   57279   57282   57285   57288   57291   57294   57297   57300
   57303   57306   57309   57312   57315   57318   57321   57324   57327   57330
   57333   57336   57339   57342   57345   57348   57351   57354   57357   57360
   57363   57366   57369   57372   57375   57378   57381   57384   57387   57390
   57393   57396   57399   57402   57405   57408   57411   57414   57417   57420
   57423   57426   57429   57432   57435   57438   57441   57444   57447   57450
   57453   57456   57459   57462   57465   57468   57471   57474   57477   57480
   57483   57486   57489   57492   57495   57498   57501   57504   57507   57510
   57513   57516   57519   57522   57525   57528   57531   57534   57537   57540
   57543   57546   57549   57552   57555   57558   57561   57564   57567   57570
   57573   57576   57579   57582   57585   57588   57591   57594   57597   57600
   57603   57606   57609   57612   57615   57618   57621   57624   57627   57630
   57633   57636   57639   57642   57645   57648   57651   57654   57657   57660
   57663   57666   57669   57672   57675   57678   57681   57684   57687   57690
   57693   57696   57699   57702   57705   57708   57711   57714   57717   57720
   57723   57726   57729   57732   57735   57738   57741   57744   57747   57750
   57753   57756   57759   57762   57765   57768   57771   57774   57777   57780
   57783   57786   57789   57792   57795   57798   57801   57804   57807   57810
   57813   57816   57819   57822   57825   57828   57831   57834   57837   57840
   57843   57846   57849   57852   57855   57858   57861   57864   57867   57870
   57873   57876   57879   57882   57885   57888   57891   57894   57897   57900
   57903   57906   57909   57912   57915   57918   57921   57924   57927   57930
   57933   57936   57939   57942   57945   57948   57951   57954   57957   57960
   57963   57966   57969   57972   57975   57978   57981   57984   57987   57990
   57993   57996   57999   58002   58005   58008   58011   58014   58017   58020
   58023   58026   58029   58032   58035   58038   58041   58044   58047   58050
   58053   58056   58059   58062   58065   58068   58071   58074   58077   58080
   58083   58086   58089   58092   58095   58098   58101   58104   58107   58110
   58113   58116   58119   58122   58125   58128   58131   58134   58137   58140
   58143   58146   58149   58152   58155   58158   58161   58164   58167   58170
   58173   58176   58179   58182   58185   58188   58191   58194   58197   58200
   58203   58206   58209   58212   58215   58218   58221   58224   58227   58230
   58233   58236   58239   58242   58245   58248   58251   58254   58257   58260
   58263   58266   58269   58272   58275   58278   58281   58284   58287   58290
   58293   58296   58299   58302   58305   58308   58311   58314   58317   58320
   58323   58326   58329   58332   58335   58338   58341   58344   58347   58350
   58353   58356   58359   58362   58365   58368   58371   58374   58377   58380
   58383   58386   58389   58392   58395   58398   58401   58404   58407   58410
   58413   58416   58419   58422   58425   58428   58431   58434   58437   58440
   58443   58446   58449   58452   58455   58458   58461   58464   58467   58470
   58473   58476   58479   58482   58485   58488   58491   58494   58497   58500
   58503   58506   58509   58512   58515   58518   58521   58524   58527   58530
   58533   58536   58539   58542   58545   58548   58551   58554   58557   58560
   58563   58566   58569   58572   58575   58578   58581   58584   58587   58590
   58593   58596   58599   58602   58605   58608   58611   58614   58617   58620
   58623   58626   58629   58632   58635   58638   58641   58644   58647   58650
   58653   58656   58659   58662   58665   58668   58671   58674   58677   58680
   58683   58686   58689   58692   58695   58698   58701   58704   58707   58710
   58713   58716   58719   58722   58725   58728   58731   58734   58737   58740
   58743   58746   58749   58752   58755   58758   58761   58764   58767   58770
   58773   58776   58779   58782   58785   58788   58791   58794   58797   58800
   58803   58806   58809   58812   58815   58818   58821   58824   58827   58830
   58833   58836   58839   58842   58845   58848   58851   58854   58857   58860
   58863   58866   58869   58872   58875   58878   58881   58884   58887   58890
   58893   58896   58899   58902   58905   58908   58911   58914   58917   58920
   58923   58926   58929   58932   58935   58938   58941   58944   58947   58950
   58953   58956   58959   58962   58965   58968   58971   58974   58977   58980
   58983   58986   58989   58992   58995   58998   59001   59004   59007   59010
   59013   59016   59019   59022   59025   59028   59031   59034   59037   59040
   59043   59046   59049   59052   59055   59058   59061   59064   59067   59070
   59073   59076   59079   59082   59085   59088   59091   59094   59097   59100
   59103   59106   59109   59112   59115   59118   59121   59124   59127   59130
   59133   59136   59139   59142   59145   59148   59151   59154   59157   59160
   59163   59166   59169   59172   59175   59178   59181   59184   59187   59190
   59193   59196   59199   59202   59205   59208   59211   59214   59217   59220
   59223   59226   59229   59232   59235   59238   59241   59244   59247   59250
   59253   59256   59259   59262   59265   59268   59271   59274   59277   59280
   59283   59286   59289   59292   59295   59298   59301   59304   59307   59310
   59313   59316   59319   59322   59325   59328   59331   59334   59337   59340
   59343   59346   59349   59352   59355   59358   59361   59364   59367   59370
   59373   59376   59379   59382   59385   59388   59391   59394   59397   59400
   59403   59406   59409   59412   59415   59418   59421   59424   59427   59430
   59433   59436   59439   59442   59445   59448   59451   59454   59457   59460
   59463   59466   59469   59472   59475   59478   59481   59484   59487   59490
   59493   59496   59499   59502   59505   59508   59511   59514   59517   59520
   59523   59526   59529   59532   59535   59538   59541   59544   59547   59550
   59553   59556   59559   59562   59565   59568   59571   59574   59577   59580
   59583   59586   59589   59592   59595   59598   59601   59604   59607   59610
   59613   59616   59619   59622   59625   59628   59631   59634   59637   59640
   59643   59646   59649   59652   59655   59658   59661   59664   59667   59670
   59673   59676   59679   59682   59685   59688   59691   59694   59697   59700
   59703   59706   59709   59712   59715   59718   59721   59724   59727   59730
   59733   59736   59739   59742   59745   59748   59751   59754   59757   59760
   59763   59766   59769   59772   59775   59778   59781   59784   59787   59790
   59793   59796   59799   59802   59805   59808   59811   59814   59817   59820
   59823   59826   59829   59832   59835   59838   59841   59844   59847   59850
   59853   59856   59859   59862   59865   59868   59871   59874   59877   59880
   59883   59886   59889   59892   59895   59898   59901   59904   59907   59910
   59913   59916   59919   59922   59925   59928   59931   59934   59937   59940
   59943   59946   59949   59952   59955   59958   59961   59964   59967   59970
   59973   59976   59979   59982   59985   59988   59991   59994   59997   60000
   60003   60006   60009   60012   60015   60018   60021   60024   60027   60030
   60033   60036   60039   60042   60045   60048   60051   60054   60057   60060
   60063   60066   60069   60072   60075   60078   60081   60084   60087   60090
   60093   60096   60099   60102   60105   60108   60111   60114   60117   60120
   60123   60126   60129   60132   60135   60138   60141   60144   60147   60150
   60153   60156   60159   60162   60165   60168   60171   60174   60177   60180
   60183   60186   60189   60192   60195   60198   60201   60204   60207   60210
   60213   60216   60219   60222   60225   60228   60231   60234   60237   60240
   60243   60246   60249   60252   60255   60258   60261   60264   60267   60270
   60273   60276   60279   60282   60285   60288   60291   60294   60297   60300
   60303   60306   60309   60312   60315   60318   60321   60324   60327   60330
   60333   60336   60339   60342   60345   60348   60351   60354   60357   60360
   60363   60366   60369   60372   60375   60378   60381   60384   60387   60390
   60393   60396   60399   60402   60405   60408   60411   60414   60417   60420
   60423   60426   60429   60432   60435   60438   60441   60444   60447   60450
   60453   60456   60459   60462   60465   60468   60471   60474   60477   60480
   60483   60486   60489   60492   60495   60498   60501   60504   60507   60510
   60513   60516   60519   60522   60525   60528   60531   60534   60537   60540
   60543   60546   60549   60552   60555   60558   60561   60564   60567   60570
   60573   60576   60579   60582   60585   60588   60591   60594   60597   60600
   60603   60606   60609   60612   60615   60618   60621   60624   60627   60630
   60633   60636   60639   60642   60645   60648   60651   60654   60657   60660
   60663   60666   60669   60672   60675   60678   60681   60684   60687   60690
   60693   60696   60699   60702   60705   60708   60711   60714   60717   60720
   60723   60726   60729   60732   60735   60738   60741   60744   60747   60750
   60753   60756   60759   60762   60765   60768   60771   60774   60777   60780
   60783   60786   60789   60792   60795   60798   60801   60804   60807   60810
   60813   60816   60819   60822   60825   60828   60831   60834   60837   60840
   60843   60846   60849   60852   60855   60858   60861   60864   60867   60870
   60873   60876   60879   60882   60885   60888   60891   60894   60897   60900
   60903   60906   60909   60912   60915   60918   60921   60924   60927   60930
   60933   60936   60939   60942   60945   60948   60951   60954   60957   60960
   60963   60966   60969   60972   60975   60978   60981   60984   60987   60990
   60993   60996   60999   61002   61005   61008   61011   61014   61017   61020
   61023   61026   61029   61032   61035   61038   61041   61044   61047   61050
   61053   61056   61059   61062   61065   61068   61071   61074   61077   61080
   61083   61086   61089   61092   61095   61098   61101   61104   61107   61110
   61113   61116   61119   61122   61125   61128   61131   61134   61137   61140
   61143   61146   61149   61152   61155   61158   61161   61164   61167   61170
   61173   61176   61179   61182   61185   61188   61191   61194   61197   61200
   61203   61206   61209   61212   61215   61218   61221   61224   61227   61230
   61233   61236   61239   61242   61245   61248   61251   61254   61257   61260
   61263   61266   61269   61272   61275   61278   61281   61284   61287   61290
   61293   61296   61299   61302   61305   61308   61311   61314   61317   61320
   61323   61326   61329   61332   61335   61338   61341   61344   61347   61350
   61353   61356   61359   61362   61365   61368   61371   61374   61377   61380
   61383   61386   61389   61392   61395   61398   61401   61404   61407   61410
   61413   61416   61419   61422   61425   61428   61431   61434   61437   61440
   61443   61446   61449   61452   61455   61458   61461   61464   61467   61470
   61473   61476   61479   61482   61485   61488   61491   61494   61497   61500
   61503   61506   61509   61512   61515   61518   61521   61524   61527   61530
   61533   61536   61539   61542   61545   61548   61551   61554   61557   61560
   61563   61566   61569   61572   61575   61578   61581   61584   61587   61590
   61593   61596   61599   61602   61605   61608   61611   61614   61617   61620
   61623   61626   61629   61632   61635   61638   61641   61644   61647   61650
   61653   61656   61659   61662   61665   61668   61671   61674   61677   61680
   61683   61686   61689   61692   61695   61698   61701   61704   61707   61710
   61713   61716   61719   61722   61725   61728   61731   61734   61737   61740
   61743   61746   61749   61752   61755   61758   61761   61764   61767   61770
   61773   61776   61779   61782   61785   61788   61791   61794   61797   61800
   61803   61806   61809   61812   61815   61818   61821   61824   61827   61830
   61833   61836   61839   61842   61845   61848   61851   61854   61857   61860
   61863   61866   61869   61872   61875   61878   61881   61884   61887   61890
   61893   61896   61899   61902   61905   61908   61911   61914   61917   61920
   61923   61926   61929   61932   61935   61938   61941   61944   61947   61950
   61953   61956   61959   61962   61965   61968   61971   61974   61977   61980
   61983   61986   61989   61992   61995   61998   62001   62004   62007   62010
   62013   62016   62019   62022   62025   62028   62031   62034   62037   62040
   62043   62046   62049   62052   62055   62058   62061   62064   62067   62070
   62073   62076   62079   62082   62085   62088   62091   62094   62097   62100
   62103   62106   62109   62112   62115   62118   62121   62124   62127   62130
   62133   62136   62139   62142   62145   62148   62151   62154   62157   62160
   62163   62166   62169   62172   62175   62178   62181   62184   62187   62190
   62193   62196   62199   62202   62205   62208   62211   62214   62217   62220
   62223   62226   62229   62232   62235   62238   62241   62244   62247   62250
   62253   62256   62259   62262   62265   62268   62271   62274   62277   62280
   62283   62286   62289   62292   62295   62298   62301   62304   62307   62310
   62313   62316   62319   62322   62325   62328   62331   62334   62337   62340
   62343   62346   62349   62352   62355   62358   62361   62364   62367   62370
   62373   62376   62379   62382   62385   62388   62391   62394   62397   62400
   62403   62406   62409   62412   62415   62418   62421   62424   62427   62430
   62433   62436   62439   62442   62445   62448   62451   62454   62457   62460
   62463   62466   62469   62472   62475   62478   62481   62484   62487   62490
   62493   62496   62499   62502   62505   62508   62511   62514   62517   62520
   62523   62526   62529   62532   62535   62538   62541   62544   62547   62550
   62553   62556   62559   62562   62565   62568   62571   62574   62577   62580
   62583   62586   62589   62592   62595   62598   62601   62604   62607   62610
   62613   62616   62619   62622   62625   62628   62631   62634   62637   62640
   62643   62646   62649   62652   62655   62658   62661   62664   62667   62670
   62673   62676   62679   62682   62685   62688   62691   62694   62697   62700
   62703   62706   62709   62712   62715   62718   62721   62724   62727   62730
   62733   62736   62739   62742   62745   62748   62751   62754   62757   62760
   62763   62766   62769   62772   62775   62778   62781   62784   62787   62790
   62793   62796   62799   62802   62805   62808   62811   62814   62817   62820
   62823   62826   62829   62832   62835   62838   62841   62844   62847   62850
   62853   62856   62859   62862   62865   62868   62871   62874   62877   62880
   62883   62886   62889   62892   62895   62898   62901   62904   62907   62910
   62913   62916   62919   62922   62925   62928   62931   62934   62937   62940
   62943   62946   62949   62952   62955   62958   62961   62964   62967   62970
   62973   62976   62979   62982   62985   62988   62991   62994   62997   63000
   63003   63006   63009   63012   63015   63018   63021   63024   63027   63030
   63033   63036   63039   63042   63045   63048   63051   63054   63057   63060
   63063   63066   63069   63072   63075   63078   63081   63084   63087   63090
   63093   63096   63099   63102   63105   63108   63111   63114   63117   63120
   63123   63126   63129   63132   63135   63138   63141   63144   63147   63150
   63153   63156   63159   63162   63165   63168   63171   63174   63177   63180
   63183   63186   63189   63192   63195   63198   63201   63204   63207   63210
   63213   63216   63219   63222   63225   63228   63231   63234   63237   63240
   63243   63246   63249   63252   63255   63258   63261   63264   63267   63270
   63273   63276   63279   63282   63285   63288   63291   63294   63297   63300
   63303   63306   63309   63312   63315   63318   63321   63324   63327   63330
   63333   63336   63339   63342   63345   63348   63351   63354   63357   63360
   63363   63366   63369   63372   63375   63378   63381   63384   63387   63390
   63393   63396   63399   63402   63405   63408   63411   63414   63417   63420
   63423   63426   63429   63432   63435   63438   63441   63444   63447   63450
   63453   63456   63459   63462   63465   63468   63471   63474   63477   63480
   63483   63486   63489   63492   63495   63498   63501   63504   63507   63510
   63513   63516   63519   63522   63525   63528   63531   63534   63537   63540
   63543   63546   63549   63552   63555   63558   63561   63564   63567   63570
   63573   63576   63579   63582   63585   63588   63591   63594   63597   63600
   63603   63606   63609   63612   63615   63618   63621   63624   63627   63630
   63633   63636   63639   63642   63645   63648   63651   63654   63657   63660
   63663   63666   63669   63672   63675   63678   63681   63684   63687   63690
   63693   63696   63699   63702   63705   63708   63711   63714   63717   63720
   63723   63726   63729   63732   63735   63738   63741   63744   63747   63750
   63753   63756   63759   63762   63765   63768   63771   63774   63777   63780
   63783   63786   63789   63792   63795   63798   63801   63804   63807   63810
   63813   63816   63819   63822   63825   63828   63831   63834   63837   63840
   63843   63846   63849   63852   63855   63858   63861   63864   63867   63870
   63873   63876   63879   63882   63885   63888   63891   63894   63897   63900
   63903   63906   63909   63912   63915   63918   63921   63924   63927   63930
   63933   63936   63939   63942   63945   63948   63951   63954   63957   63960
   63963   63966   63969   63972   63975   63978   63981   63984   63987   63990
   63993   63996   63999   64002   64005   64008   64011   64014   64017   64020
   64023   64026   64029   64032   64035   64038   64041   64044   64047   64050
   64053   64056   64059   64062   64065   64068   64071   64074   64077   64080
   64083   64086   64089   64092   64095   64098   64101   64104   64107   64110
   64113   64116   64119   64122   64125   64128   64131   64134   64137   64140
   64143   64146   64149   64152   64155   64158   64161   64164   64167   64170
   64173   64176   64179   64182   64185   64188   64191   64194   64197   64200
   64203   64206   64209   64212   64215   64218   64221   64224   64227   64230
   64233   64236   64239   64242   64245   64248   64251   64254   64257   64260
   64263   64266   64269   64272   64275   64278   64281   64284   64287   64290
   64293   64296   64299   64302   64305   64308   64311   64314   64317   64320
   64323   64326   64329   64332   64335   64338   64341   64344   64347   64350
   64353   64356   64359   64362   64365   64368   64371   64374   64377   64380
   64383   64386   64389   64392   64395   64398   64401   64404   64407   64410
   64413   64416   64419   64422   64425   64428   64431   64434   64437   64440
   64443   64446   64449   64452   64455   64458   64461   64464   64467   64470
   64473   64476   64479   64482   64485   64488   64491   64494   64497   64500
   64503   64506   64509   64512   64515   64518   64521   64524   64527   64530
   64533   64536   64539   64542   64545   64548   64551   64554   64557   64560
   64563   64566   64569   64572   64575   64578   64581   64584   64587   64590
   64593   64596   64599   64602   64605   64608   64611   64614   64617   64620
   64623   64626   64629   64632   64635   64638   64641   64644   64647   64650
   64653   64656   64659   64662   64665   64668   64671   64674   64677   64680
   64683   64686   64689   64692   64695   64698   64701   64704   64707   64710
   64713   64716   64719   64722   64725   64728   64731   64734   64737   64740
   64743   64746   64749   64752   64755   64758   64761   64764   64767   64770
   64773   64776   64779   64782   64785   64788   64791   64794   64797   64800
   64803   64806   64809   64812   64815   64818   64821   64824   64827   64830
   64833   64836   64839   64842   64845   64848   64851   64854   64857   64860
   64863   64866   64869   64872   64875   64878   64881   64884   64887   64890
   64893   64896   64899   64902   64905   64908   64911   64914   64917   64920
   64923   64926   64929   64932   64935   64938   64941   64944   64947   64950
   64953   64956   64959   64962   64965   64968   64971   64974   64977   64980
   64983   64986   64989   64992   64995   64998   65001   65004   65007   65010
   65013   65016   65019   65022   65025   65028   65031   65034   65037   65040
   65043   65046   65049   65052   65055   65058   65061   65064   65067   65070
   65073   65076   65079   65082   65085   65088   65091   65094   65097   65100
   65103   65106   65109   65112   65115   65118   65121   65124   65127   65130
   65133   65136   65139   65142   65145   65148   65151   65154   65157   65160
   65163   65166   65169   65172   65175   65178   65181   65184   65187   65190
   65193   65196   65199   65202   65205   65208   65211   65214   65217   65220
   65223   65226   65229   65232   65235   65238   65241   65244   65247   65250
   65253   65256   65259   65262   65265   65268   65271   65274   65277   65280
   65283   65286   65289   65292   65295   65298   65301   65304   65307   65310
   65313   65316   65319   65322   65325   65328   65331   65334   65337   65340
   65343   65346   65349   65352   65355   65358   65361   65364   65367   65370
   65373   65376   65379   65382   65385   65388   65391   65394   65397   65400
   65403   65406   65409   65412   65415   65418   65421   65424   65427   65430
   65433   65436   65439   65442   65445   65448   65451   65454   65457   65460
   65463   65466   65469   65472   65475   65478   65481   65484   65487   65490
   65493   65496   65499   65502   65505   65508   65511   65514   65517   65520
   65523   65526   65529   65532   65535   65538   65541   65544   65547   65550
   65553   65556   65559   65562   65565   65568   65571   65574   65577   65580
   65583   65586   65589   65592   65595   65598   65601   65604   65607   65610
   65613   65616   65619   65622   65625   65628   65631   65634   65637   65640
   65643   65646   65649   65652   65655   65658   65661   65664   65667   65670
   65673   65676   65679   65682   65685   65688   65691   65694   65697   65700
   65703   65706   65709   65712   65715   65718   65721   65724   65727   65730
   65733   65736   65739   65742   65745   65748   65751   65754   65757   65760
   65763   65766   65769   65772   65775   65778   65781   65784   65787   65790
   65793   65796   65799   65802   65805   65808   65811   65814   65817   65820
   65823   65826   65829   65832   65835   65838   65841   65844   65847   65850
   65853   65856   65859   65862   65865   65868   65871   65874   65877   65880
   65883   65886   65889   65892   65895   65898   65901   65904   65907   65910
   65913   65916   65919   65922   65925   65928   65931   65934   65937   65940
   65943   65946   65949   65952   65955   65958   65961   65964   65967   65970
   65973   65976   65979   65982   65985   65988   65991   65994   65997   66000
   66003   66006   66009   66012   66015   66018   66021   66024   66027   66030
   66033   66036   66039   66042   66045   66048   66051   66054   66057   66060
   66063   66066   66069   66072   66075   66078   66081   66084   66087   66090
   66093   66096   66099   66102   66105   66108   66111   66114   66117   66120
   66123   66126   66129   66132   66135   66138   66141   66144   66147   66150
   66153   66156   66159   66162   66165   66168   66171   66174   66177   66180
   66183   66186   66189   66192   66195   66198   66201   66204   66207   66210
   66213   66216   66219   66222   66225   66228   66231   66234   66237   66240
   66243   66246   66249   66252   66255   66258   66261   66264   66267   66270
   66273   66276   66279   66282   66285   66288   66291   66294   66297   66300
   66303   66306   66309   66312   66315   66318   66321   66324   66327   66330
   66333   66336   66339   66342   66345   66348   66351   66354   66357   66360
   66363   66366   66369   66372   66375   66378   66381   66384   66387   66390
   66393   66396   66399   66402   66405   66408   66411   66414   66417   66420
   66423   66426   66429   66432   66435   66438   66441   66444   66447   66450
   66453   66456   66459   66462   66465   66468   66471   66474   66477   66480
   66483   66486   66489   66492   66495   66498   66501   66504   66507   66510
   66513   66516   66519   66522   66525   66528   66531   66534   66537   66540
   66543   66546   66549   66552   66555   66558   66561   66564   66567   66570
   66573   66576   66579   66582   66585   66588   66591   66594   66597   66600
   66603   66606   66609   66612   66615   66618   66621   66624   66627   66630
   66633   66636   66639   66642   66645   66648   66651   66654   66657   66660
   66663   66666   66669   66672   66675   66678   66681   66684   66687   66690
   66693   66696   66699   66702   66705   66708   66711   66714   66717   66720
   66723   66726   66729   66732   66735   66738   66741   66744   66747   66750
   66753   66756   66759   66762   66765   66768   66771   66774   66777   66780
   66783   66786   66789   66792   66795   66798   66801   66804   66807   66810
   66813   66816   66819   66822   66825   66828   66831   66834   66837   66840
   66843   66846   66849   66852   66855   66858   66861   66864   66867   66870
   66873   66876   66879   66882   66885   66888   66891   66894   66897   66900
   66903   66906   66909   66912   66915   66918   66921   66924   66927   66930
   66933   66936   66939   66942   66945   66948   66951   66954   66957   66960
   66963   66966   66969   66972   66975   66978   66981   66984   66987   66990
   66993   66996   66999   67002   67005   67008   67011   67014   67017   67020
   67023   67026   67029   67032   67035   67038   67041   67044   67047   67050
   67053   67056   67059   67062   67065   67068   67071   67074   67077   67080
   67083   67086   67089   67092   67095   67098   67101   67104   67107   67110
   67113   67116   67119   67122   67125   67128   67131   67134   67137   67140
   67143   67146   67149   67152   67155   67158   67161   67164   67167   67170
   67173   67176   67179   67182   67185   67188   67191   67194   67197   67200
   67203   67206   67209   67212   67215   67218   67221   67224   67227   67230
   67233   67236   67239   67242   67245   67248   67251   67254   67257   67260
   67263   67266   67269   67272   67275   67278   67281   67284   67287   67290
   67293   67296   67299   67302   67305   67308   67311   67314   67317   67320
   67323   67326   67329   67332   67335   67338   67341   67344   67347   67350
   67353   67356   67359   67362   67365   67368   67371   67374   67377   67380
   67383   67386   67389   67392   67395   67398   67401   67404   67407   67410
   67413   67416   67419   67422   67425   67428   67431   67434   67437   67440
   67443   67446   67449   67452   67455   67458   67461   67464   67467   67470
   67473   67476   67479   67482   67485   67488   67491   67494   67497   67500
   67503   67506   67509   67512   67515   67518   67521   67524   67527   67530
   67533   67536   67539   67542   67545   67548   67551   67554   67557   67560
   67563   67566   67569   67572   67575   67578   67581   67584   67587   67590
   67593   67596   67599   67602   67605   67608   67611   67614   67617   67620
   67623   67626   67629   67632   67635   67638   67641   67644   67647   67650
   67653   67656   67659   67662   67665   67668   67671   67674   67677   67680
   67683   67686   67689   67692   67695   67698   67701   67704   67707   67710
   67713   67716   67719   67722   67725   67728   67731   67734   67737   67740
   67743   67746   67749   67752   67755   67758   67761   67764   67767   67770
   67773   67776   67779   67782   67785   67788   67791   67794   67797   67800
   67803   67806   67809   67812   67815   67818   67821   67824   67827   67830
   67833   67836   67839   67842   67845   67848   67851   67854   67857   67860
   67863   67866   67869   67872   67875   67878   67881   67884   67887   67890
   67893   67896   67899   67902   67905   67908   67911   67914   67917   67920
   67923   67926   67929   67932   67935   67938   67941   67944   67947   67950
   67953   67956   67959   67962   67965   67968   67971   67974   67977   67980
   67983   67986   67989   67992   67995   67998   68001   68004   68007   68010
   68013   68016   68019   68022   68025   68028   68031   68034   68037   68040
   68043   68046   68049   68052   68055   68058   68061   68064   68067   68070
   68073   68076   68079   68082   68085   68088   68091   68094   68097   68100
   68103   68106   68109   68112   68115   68118   68121   68124   68127   68130
   68133   68136   68139   68142   68145   68148   68151   68154   68157   68160
   68163   68166   68169   68172   68175   68178   68181   68184   68187   68190
   68193   68196   68199   68202   68205   68208   68211   68214   68217   68220
   68223   68226   68229   68232   68235   68238   68241   68244   68247   68250
   68253   68256   68259   68262   68265   68268   68271   68274   68277   68280
   68283   68286   68289   68292   68295   68298   68301   68304   68307   68310
   68313   68316   68319   68322   68325   68328   68331   68334   68337   68340
   68343   68346   68349   68352   68355   68358   68361   68364   68367   68370
   68373   68376   68379   68382   68385   68388   68391   68394   68397   68400
   68403   68406   68409   68412   68415   68418   68421   68424   68427   68430
   68433   68436   68439   68442   68445   68448   68451   68454   68457   68460
   68463   68466   68469   68472   68475   68478   68481   68484   68487   68490
   68493   68496   68499   68502   68505   68508   68511   68514   68517   68520
   68523   68526   68529   68532   68535   68538   68541   68544   68547   68550
   68553   68556   68559   68562   68565   68568   68571   68574   68577   68580
   68583   68586   68589   68592   68595   68598   68601   68604   68607   68610
   68613   68616   68619   68622   68625   68628   68631   68634   68637   68640
   68643   68646   68649   68652   68655   68658   68661   68664   68667   68670
   68673   68676   68679   68682   68685   68688   68691   68694   68697   68700
   68703   68706   68709   68712   68715   68718   68721   68724   68727   68730
   68733   68736   68739   68742   68745   68748   68751   68754   68757   68760
   68763   68766   68769   68772   68775   68778   68781   68784   68787   68790
   68793   68796   68799   68802   68805   68808   68811   68814   68817   68820
   68823   68826   68829   68832   68835   68838   68841   68844   68847   68850
   68853   68856   68859   68862   68865   68868   68871   68874   68877   68880
   68883   68886   68889   68892   68895   68898   68901   68904   68907   68910
   68913   68916   68919   68922   68925   68928   68931   68934   68937   68940
   68943   68946   68949   68952   68955   68958   68961   68964   68967   68970
   68973   68976   68979   68982   68985   68988   68991   68994   68997   69000
   69003   69006   69009   69012   69015   69018   69021   69024   69027   69030
   69033   69036   69039   69042   69045   69048   69051   69054   69057   69060
   69063   69066   69069   69072   69075   69078   69081   69084   69087   69090
   69093   69096   69099   69102   69105   69108   69111   69114   69117   69120
   69123   69126   69129   69132   69135   69138   69141   69144   69147   69150
   69153   69156   69159   69162   69165   69168   69171   69174   69177   69180
   69183   69186   69189   69192   69195   69198   69201   69204   69207   69210
   69213   69216   69219   69222   69225   69228   69231   69234   69237   69240
   69243   69246   69249   69252   69255   69258   69261   69264   69267   69270
   69273   69276   69279   69282   69285   69288   69291   69294   69297   69300
   69303   69306   69309   69312   69315   69318   69321   69324   69327   69330
   69333   69336   69339   69342   69345   69348   69351   69354   69357   69360
   69363   69366   69369   69372   69375   69378   69381   69384   69387   69390
   69393   69396   69399   69402   69405   69408   69411   69414   69417   69420
   69423   69426   69429   69432   69435   69438   69441   69444   69447   69450
   69453   69456   69459   69462   69465   69468   69471   69474   69477   69480
   69483   69486   69489   69492   69495   69498   69501   69504   69507   69510
   69513   69516   69519   69522   69525   69528   69531   69534   69537   69540
   69543   69546   69549   69552   69555   69558   69561   69564   69567   69570
   69573   69576   69579   69582   69585   69588   69591   69594   69597   69600
   69603   69606   69609   69612   69615   69618   69621   69624   69627   69630
   69633   69636   69639   69642   69645   69648   69651   69654   69657   69660
   69663   69666   69669   69672   69675   69678   69681   69684   69687   69690
   69693   69696   69699   69702   69705   69708   69711   69714   69717   69720
   69723   69726   69729   69732   69735   69738   69741   69744   69747   69750
   69753   69756   69759   69762   69765   69768   69771   69774   69777   69780
   69783   69786   69789   69792   69795   69798   69801   69804   69807   69810
   69813   69816   69819   69822   69825   69828   69831   69834   69837   69840
   69843   69846   69849   69852   69855   69858   69861   69864   69867   69870
   69873   69876   69879   69882   69885   69888   69891   69894   69897   69900
   69903   69906   69909   69912   69915   69918   69921   69924   69927   69930
   69933   69936   69939   69942   69945   69948   69951   69954   69957   69960
   69963   69966   69969   69972   69975   69978   69981   69984   69987   69990
   69993   69996   69999   70002   70005   70008   70011   70014   70017   70020
   70023   70026   70029   70032   70035   70038   70041   70044   70047   70050
   70053   70056   70059   70062   70065   70068   70071   70074   70077   70080
   70083   70086   70089   70092   70095   70098   70101   70104   70107   70110
   70113   70116   70119   70122   70125   70128   70131   70134   70137   70140
   70143   70146   70149   70152   70155   70158   70161   70164   70167   70170
   70173   70176   70179   70182   70185   70188   70191   70194   70197   70200
   70203   70206   70209   70212   70215   70218   70221   70224   70227   70230
   70233   70236   70239   70242   70245   70248   70251   70254   70257   70260
   70263   70266   70269   70272   70275   70278   70281   70284   70287   70290
   70293   70296   70299   70302   70305   70308   70311   70314   70317   70320
   70323   70326   70329   70332   70335   70338   70341   70344   70347   70350
   70353   70356   70359   70362   70365   70368   70371   70374   70377   70380
   70383   70386   70389   70392   70395   70398   70401   70404   70407   70410
   70413   70416   70419   70422   70425   70428   70431   70434   70437   70440
   70443   70446   70449   70452   70455   70458   70461   70464   70467   70470
   70473   70476   70479   70482   70485   70488   70491   70494   70497   70500
   70503   70506   70509   70512   70515   70518   70521   70524   70527   70530
   70533   70536   70539   70542   70545   70548   70551   70554   70557   70560
   70563   70566   70569   70572   70575   70578   70581   70584   70587   70590
   70593   70596   70599   70602   70605   70608   70611   70614   70617   70620
   70623   70626   70629   70632   70635   70638   70641   70644   70647   70650
   70653   70656   70659   70662   70665   70668   70671   70674   70677   70680
   70683   70686   70689   70692   70695   70698   70701   70704   70707   70710
   70713   70716   70719   70722   70725   70728   70731   70734   70737   70740
   70743   70746   70749   70752   70755   70758   70761   70764   70767   70770
   70773   70776   70779   70782   70785   70788   70791   70794   70797   70800
   70803   70806   70809   70812   70815   70818   70821   70824   70827   70830
   70833   70836   70839   70842   70845   70848   70851   70854   70857   70860
   70863   70866   70869   70872   70875   70878   70881   70884   70887   70890
   70893   70896   70899   70902   70905   70908   70911   70914   70917   70920
   70923   70926   70929   70932   70935   70938   70941   70944   70947   70950
   70953   70956   70959   70962   70965   70968   70971   70974   70977   70980
   70983   70986   70989   70992   70995   70998   71001   71004   71007   71010
   71013   71016   71019   71022   71025   71028   71031   71034   71037   71040
   71043   71046   71049   71052   71055   71058   71061   71064   71067   71070
   71073   71076   71079   71082   71085   71088   71091   71094   71097   71100
   71103   71106   71109   71112   71115   71118   71121   71124   71127   71130
   71133   71136   71139   71142   71145   71148   71151   71154   71157   71160
   71163   71166   71169   71172   71175   71178   71181   71184   71187   71190
   71193   71196   71199   71202   71205   71208   71211   71214   71217   71220
   71223   71226   71229   71232   71235   71238   71241   71244   71247   71250
   71253   71256   71259   71262   71265   71268   71271   71274   71277   71280
   71283   71286   71289   71292   71295   71298   71301   71304   71307   71310
   71313   71316   71319   71322   71325   71328   71331   71334   71337   71340
   71343   71346   71349   71352   71355   71358   71361   71364   71367   71370
   71373   71376   71379   71382   71385   71388   71391   71394   71397   71400
   71403   71406   71409   71412   71415   71418   71421   71424   71427   71430
   71433   71436   71439   71442   71445   71448   71451   71454   71457   71460
   71463   71466   71469   71472   71475   71478   71481   71484   71487   71490
   71493   71496   71499   71502   71505   71508   71511   71514   71517   71520
   71523   71526   71529   71532   71535   71538   71541   71544   71547   71550
   71553   71556   71559   71562   71565   71568   71571   71574   71577   71580
   71583   71586   71589   71592   71595   71598   71601   71604   71607   71610
   71613   71616   71619   71622   71625   71628   71631   71634   71637   71640
   71643   71646   71649   71652   71655   71658   71661   71664   71667   71670
   71673   71676   71679   71682   71685   71688   71691   71694   71697   71700
   71703   71706   71709   71712   71715   71718   71721   71724   71727   71730
   71733   71736   71739   71742   71745   71748   71751   71754   71757   71760
   71763   71766   71769   71772   71775   71778   71781   71784   71787   71790
   71793   71796   71799   71802   71805   71808   71811   71814   71817   71820
   71823   71826   71829   71832   71835   71838   71841   71844   71847   71850
   71853   71856   71859   71862   71865   71868   71871   71874   71877   71880
   71883   71886   71889   71892   71895   71898   71901   71904   71907   71910
   71913   71916   71919   71922   71925   71928   71931   71934   71937   71940
   71943   71946   71949   71952   71955   71958   71961   71964   71967   71970
   71973   71976   71979   71982   71985   71988   71991   71994   71997   72000
   72003   72006   72009   72012   72015   72018   72021   72024   72027   72030
   72033   72036   72039   72042   72045   72048   72051   72054   72057   72060
   72063   72066   72069   72072   72075   72078   72081   72084   72087   72090
   72093   72096   72099   72102   72105   72108   72111   72114   72117   72120
   72123   72126   72129   72132   72135   72138   72141   72144   72147   72150
   72153   72156   72159   72162   72165   72168   72171   72174   72177   72180
   72183   72186   72189   72192   72195   72198   72201   72204   72207   72210
   72213   72216   72219   72222   72225   72228   72231   72234   72237   72240
   72243   72246   72249   72252   72255   72258   72261   72264   72267   72270
   72273   72276   72279   72282   72285   72288   72291   72294   72297   72300
   72303   72306   72309   72312   72315   72318   72321   72324   72327   72330
   72333   72336   72339   72342   72345   72348   72351   72354   72357   72360
   72363   72366   72369   72372   72375   72378   72381   72384   72387   72390
   72393   72396   72399   72402   72405   72408   72411   72414   72417   72420
   72423   72426   72429   72432   72435   72438   72441   72444   72447   72450
   72453   72456   72459   72462   72465   72468   72471   72474   72477   72480
   72483   72486   72489   72492   72495   72498   72501   72504   72507   72510
   72513   72516   72519   72522   72525   72528   72531   72534   72537   72540
   72543   72546   72549   72552   72555   72558   72561   72564   72567   72570
   72573   72576   72579   72582   72585   72588   72591   72594   72597   72600
   72603   72606   72609   72612   72615   72618   72621   72624   72627   72630
   72633   72636   72639   72642   72645   72648   72651   72654   72657   72660
   72663   72666   72669   72672   72675   72678   72681   72684   72687   72690
   72693   72696   72699   72702   72705   72708   72711   72714   72717   72720
   72723   72726   72729   72732   72735   72738   72741   72744   72747   72750
   72753   72756   72759   72762   72765   72768   72771   72774   72777   72780
   72783   72786   72789   72792   72795   72798   72801   72804   72807   72810
   72813   72816   72819   72822   72825   72828   72831   72834   72837   72840
   72843   72846   72849   72852   72855   72858   72861   72864   72867   72870
   72873   72876   72879   72882   72885   72888   72891   72894   72897   72900
   72903   72906   72909   72912   72915   72918   72921   72924   72927   72930
   72933   72936   72939   72942   72945   72948   72951   72954   72957   72960
   72963   72966   72969   72972   72975   72978   72981   72984   72987   72990
   72993   72996   72999   73002   73005   73008   73011   73014   73017   73020
   73023   73026   73029   73032   73035   73038   73041   73044   73047   73050
   73053   73056   73059   73062   73065   73068   73071   73074   73077   73080
   73083   73086   73089   73092   73095   73098   73101   73104   73107   73110
   73113   73116   73119   73122   73125   73128   73131   73134   73137   73140
   73143   73146   73149   73152   73155   73158   73161   73164   73167   73170
   73173   73176   73179   73182   73185   73188   73191   73194   73197   73200
   73203   73206   73209   73212   73215   73218   73221   73224   73227   73230
   73233   73236   73239   73242   73245   73248   73251   73254   73257   73260
   73263   73266   73269   73272   73275   73278   73281   73284   73287   73290
   73293   73296   73299   73302   73305   73308   73311   73314   73317   73320
   73323   73326   73329   73332   73335   73338   73341   73344   73347   73350
   73353   73356   73359   73362   73365   73368   73371   73374   73377   73380
   73383   73386   73389   73392   73395   73398   73401   73404   73407   73410
   73413   73416   73419   73422   73425   73428   73431   73434   73437   73440
   73443   73446   73449   73452   73455   73458   73461   73464   73467   73470
   73473   73476   73479   73482   73485   73488   73491   73494   73497   73500
   73503   73506   73509   73512   73515   73518   73521   73524   73527   73530
   73533   73536   73539   73542   73545   73548   73551   73554   73557   73560
   73563   73566   73569   73572   73575   73578   73581   73584   73587   73590
   73593   73596   73599   73602   73605   73608   73611   73614   73617   73620
   73623   73626   73629   73632   73635   73638   73641   73644   73647   73650
   73653   73656   73659   73662   73665   73668   73671   73674   73677   73680
   73683   73686   73689   73692   73695   73698   73701   73704   73707   73710
   73713   73716   73719   73722   73725   73728   73731   73734   73737   73740
   73743   73746   73749   73752   73755   73758   73761   73764   73767   73770
   73773   73776   73779   73782   73785   73788   73791   73794   73797   73800
   73803   73806   73809   73812   73815   73818   73821   73824   73827   73830
   73833   73836   73839   73842   73845   73848   73851   73854   73857   73860
   73863   73866   73869   73872   73875   73878   73881   73884   73887   73890
   73893   73896   73899   73902   73905   73908   73911   73914   73917   73920
   73923   73926   73929   73932   73935   73938   73941   73944   73947   73950
   73953   73956   73959   73962   73965   73968   73971   73974   73977   73980
   73983   73986   73989   73992   73995   73998   74001   74004   74007   74010
   74013   74016   74019   74022   74025   74028   74031   74034   74037   74040
   74043   74046   74049   74052   74055   74058   74061   74064   74067   74070
   74073   74076   74079   74082   74085   74088   74091   74094   74097   74100
   74103   74106   74109   74112   74115   74118   74121   74124   74127   74130
   74133   74136   74139   74142   74145   74148   74151   74154   74157   74160
   74163   74166   74169   74172   74175   74178   74181   74184   74187   74190
   74193   74196   74199   74202   74205   74208   74211   74214   74217   74220
   74223   74226   74229   74232   74235   74238   74241   74244   74247   74250
   74253   74256   74259   74262   74265   74268   74271   74274   74277   74280
   74283   74286   74289   74292   74295   74298   74301   74304   74307   74310
   74313   74316   74319   74322   74325   74328   74331   74334   74337   74340
   74343   74346   74349   74352   74355   74358   74361   74364   74367   74370
   74373   74376   74379   74382   74385   74388   74391   74394   74397   74400
   74403   74406   74409   74412   74415   74418   74421   74424   74427   74430
   74433   74436   74439   74442   74445   74448   74451   74454   74457   74460
   74463   74466   74469   74472   74475   74478   74481   74484   74487   74490
   74493   74496   74499   74502   74505   74508   74511   74514   74517   74520
   74523   74526   74529   74532   74535   74538   74541   74544   74547   74550
   74553   74556   74559   74562   74565   74568   74571   74574   74577   74580
   74583   74586   74589   74592   74595   74598   74601   74604   74607   74610
   74613   74616   74619   74622   74625   74628   74631   74634   74637   74640
   74643   74646   74649   74652   74655   74658   74661   74664   74667   74670
   74673   74676   74679   74682   74685   74688   74691   74694   74697   74700
   74703   74706   74709   74712   74715   74718   74721   74724   74727   74730
   74733   74736   74739   74742   74745   74748   74751   74754   74757   74760
   74763   74766   74769   74772   74775   74778   74781   74784   74787   74790
   74793   74796   74799   74802   74805   74808   74811   74814   74817   74820
   74823   74826   74829   74832   74835   74838   74841   74844   74847   74850
   74853   74856   74859   74862   74865   74868   74871   74874   74877   74880
   74883   74886   74889   74892   74895   74898   74901   74904   74907   74910
   74913   74916   74919   74922   74925   74928   74931   74934   74937   74940
   74943   74946   74949   74952   74955   74958   74961   74964   74967   74970
   74973   74976   74979   74982   74985   74988   74991   74994   74997   75000
   75003   75006   75009   75012   75015   75018   75021   75024   75027   75030
   75033   75036   75039   75042   75045   75048   75051   75054   75057   75060
   75063   75066   75069   75072   75075   75078   75081   75084   75087   75090
   75093   75096   75099   75102   75105   75108   75111   75114   75117   75120
   75123   75126   75129   75132   75135   75138   75141   75144   75147   75150
   75153   75156   75159   75162   75165   75168   75171   75174   75177   75180
   75183   75186   75189   75192   75195   75198   75201   75204   75207   75210
   75213   75216   75219   75222   75225   75228   75231   75234   75237   75240
   75243   75246   75249   75252   75255   75258   75261   75264   75267   75270
   75273   75276   75279   75282   75285   75288   75291   75294   75297   75300
   75303   75306   75309   75312   75315   75318   75321   75324   75327   75330
   75333   75336   75339   75342   75345   75348   75351   75354   75357   75360
   75363   75366   75369   75372   75375   75378   75381   75384   75387   75390
   75393   75396   75399   75402   75405   75408   75411   75414   75417   75420
   75423   75426   75429   75432   75435   75438   75441   75444   75447   75450
   75453   75456   75459   75462   75465   75468   75471   75474   75477   75480
   75483   75486   75489   75492   75495   75498   75501   75504   75507   75510
   75513   75516   75519   75522   75525   75528   75531   75534   75537   75540
   75543   75546   75549   75552   75555   75558   75561   75564   75567   75570
   75573   75576   75579   75582   75585   75588   75591   75594   75597   75600
   75603   75606   75609   75612   75615   75618   75621   75624   75627   75630
   75633   75636   75639   75642   75645   75648   75651   75654   75657   75660
   75663   75666   75669   75672   75675   75678   75681   75684   75687   75690
   75693   75696   75699   75702   75705   75708   75711   75714   75717   75720
   75723   75726   75729   75732   75735   75738   75741   75744   75747   75750
   75753   75756   75759   75762   75765   75768   75771   75774   75777   75780
   75783   75786   75789   75792   75795   75798   75801   75804   75807   75810
   75813   75816   75819   75822   75825   75828   75831   75834   75837   75840
   75843   75846   75849   75852   75855   75858   75861   75864   75867   75870
   75873   75876   75879   75882   75885   75888   75891   75894   75897   75900
   75903   75906   75909   75912   75915   75918   75921   75924   75927   75930
   75933   75936   75939   75942   75945   75948   75951   75954   75957   75960
   75963   75966   75969   75972   75975   75978   75981   75984   75987   75990
   75993   75996   75999   76002   76005   76008   76011   76014   76017   76020
   76023   76026   76029   76032   76035   76038   76041   76044   76047   76050
   76053   76056   76059   76062   76065   76068   76071   76074   76077   76080
   76083   76086   76089   76092   76095   76098   76101   76104   76107   76110
   76113   76116   76119   76122   76125   76128   76131   76134   76137   76140
   76143   76146   76149   76152   76155   76158   76161   76164   76167   76170
   76173   76176   76179   76182   76185   76188   76191   76194   76197   76200
   76203   76206   76209   76212   76215   76218   76221   76224   76227   76230
   76233   76236   76239   76242   76245   76248   76251   76254   76257   76260
   76263   76266   76269   76272   76275   76278   76281   76284   76287   76290
   76293   76296   76299   76302   76305   76308   76311   76314   76317   76320
   76323   76326   76329   76332   76335   76338   76341   76344   76347   76350
   76353   76356   76359   76362   76365   76368   76371   76374   76377   76380
   76383   76386   76389   76392   76395   76398   76401   76404   76407   76410
   76413   76416   76419   76422   76425   76428   76431   76434   76437   76440
   76443   76446   76449   76452   76455   76458   76461   76464   76467   76470
   76473   76476   76479   76482   76485   76488   76491   76494   76497   76500
   76503   76506   76509   76512   76515   76518   76521   76524   76527   76530
   76533   76536   76539   76542   76545   76548   76551   76554   76557   76560
   76563   76566   76569   76572   76575   76578   76581   76584   76587   76590
   76593   76596   76599   76602   76605   76608   76611   76614   76617   76620
   76623   76626   76629   76632   76635   76638   76641   76644   76647   76650
   76653   76656   76659   76662
%FLAG BOND_FORCE_CONSTANT                                                       
%FORMAT(5E16.8)                                                                 
  2.34850000E+02  3.44220000E+02  5.90600000E+02  2.28890000E+02  2.55850000E+02
  5.53000000E+02  5.53000000E+02
%FLAG BOND_EQUIL_VALUE                                                          
%FORMAT(5E16.8)                                                                 
  1.52700000E+00  1.09690000E+00  1.21900000E+00  1.53540000E+00  1.46260000E+00
  1.00000000E+00  1.63300000E+00
%FLAG ANGLE_FORCE_CONSTANT                                                      
%FORMAT(5E16.8)                                                                 
  3.56400000E+01  4.37400000E+01  7.64500000E+01  7.77500000E+01  4.32800000E+01
  1.04940000E+02  4.78400000E+01  6.49000000E+01  6.50100000E+01
%FLAG ANGLE_EQUIL_VALUE                                                         
%FORMAT(5E16.8)                                                                 
  1.89455572E+00  1.89141412E+00  2.14501057E+00  1.96209999E+00  1.91270715E+00
  2.27172153E+00  1.92143380E+00  1.97361916E+00  1.97850609E+00
%FLAG DIHEDRAL_FORCE_CONSTANT                                                   
%FORMAT(5E16.8)                                                                 
  1.55555556E-01  2.25000000E-01  8.00000000E-01  8.00000000E-02  3.00000000E-01
  7.30000000E-01  0.00000000E+00  1.10000000E+00
%FLAG DIHEDRAL_PERIODICITY                                                      
%FORMAT(5E16.8)                                                                 
  3.00000000E+00  3.00000000E+00  1.00000000E+00  3.00000000E+00  3.00000000E+00
  3.00000000E+00  2.00000000E+00  2.00000000E+00
%FLAG DIHEDRAL_PHASE                                                            
%FORMAT(5E16.8)                                                                 
  0.00000000E+00  0.00000000E+00  0.00000000E+00  3.14159400E+00  0.00000000E+00
  0.00000000E+00  3.14159400E+00  3.14159400E+00
%FLAG SCEE_SCALE_FACTOR                                                         
%FORMAT(5E16.8)                                                                 
  1.20000000E+00  1.20000000E+00  1.20000000E+00  1.20000000E+00  1.20000000E+00
  1.20000000E+00  1.20000000E+00  0.00000000E+00
%FLAG SCNB_SCALE_FACTOR                                                         
%FORMAT(5E16.8)                                                                 
  2.00000000E+00  2.00000000E+00  2.00000000E+00  2.00000000E+00  2.00000000E+00
  2.00000000E+00  2.00000000E+00  0.00000000E+00
%FLAG SOLTY                                                                     
%FORMAT(5E16.8)                                                                 
  0.00000000E+00  0.00000000E+00  0.00000000E+00  0.00000000E+00  0.00000000E+00
  0.00000000E+00  0.00000000E+00  0.00000000E+00  0.00000000E+00
%FLAG LENNARD_JONES_ACOEF                                                       
%FORMAT(5E16.8)                                                                 
  7.23647490E+05  8.59569453E+05  1.02073671E+06  5.29641935E+05  6.30925504E+05
  3.76435470E+05  7.10207765E+05  8.43969952E+05  5.17507491E+05  6.96551276E+05
  5.82112737E+04  6.97998263E+04  3.86646725E+04  5.63013422E+04  3.39005767E+03
  9.25713100E+04  1.10788920E+05  6.27093916E+04  8.97990711E+04  5.75896026E+03
  9.65100511E+03  1.37328113E+05  1.65193776E+05  8.82469964E+04  1.32165372E+05
  7.15371378E+03  1.24367956E+04  1.45119300E+04  6.78646626E+05  8.07541183E+05
  4.87785683E+05  6.64222635E+05  5.14197598E+04  8.27685158E+04  1.18861308E+05
  6.29362166E+05  0.00000000E+00  0.00000000E+00  0.00000000E+00  0.00000000E+00
  0.00000000E+00  0.00000000E+00  0.00000000E+00  0.00000000E+00  0.00000000E+00
%FLAG LENNARD_JONES_BCOEF                                                       
%FORMAT(5E16.8)                                                                 
  4.98353106E+02  5.75038595E+02  6.63431737E+02  4.87196412E+02  5.62969425E+02
  4.69350655E+02  5.11427129E+02  5.90251928E+02  4.98871431E+02  5.24668528E+02
  9.91793374E+01  1.14981426E+02  9.23664132E+01  1.01040256E+02  1.67944276E+01
  1.32739431E+02  1.53742090E+02  1.24843892E+02  1.35430064E+02  2.32315293E+01
  3.19180336E+01  3.09111378E+02  3.58934309E+02  2.83155167E+02  3.14131523E+02
  4.95045431E+01  6.92751733E+01  1.43073591E+02  5.59778906E+02  6.46487139E+02
  5.42311065E+02  5.73678972E+02  1.08119422E+02  1.45584578E+02  3.33561993E+02
  6.25267765E+02  0.00000000E+00  0.00000000E+00  0.00000000E+00  0.00000000E+00
  0.00000000E+00  0.00000000E+00  0.00000000E+00  0.00000000E+00  0.00000000E+00
%FLAG BONDS_INC_HYDROGEN                                                        
%FORMAT(10I8)                                                                   
      57      87       2      57      90       2      51      81       2      51
      84       2      45      75       2      45      78       2      39      69
       2      39      72       2      33      63       2      33      66       2
      27     111       2      27     114       2      18     105       2      18
     108       2       9      99       2       9     102       2       3      93
       2       3      96       2     126     123       6     129     123       6
     129     126       7     135     132       6     138     132       6     138
     135       7     144     141       6     147     141       6     147     144
       7     153     150       6     156     150       6     156     153       7
     162     159       6     165     159       6     165     162       7     171
     168       6     174     168       6     174     171       7     180     177
       6     183     177       6     183     180       7     189     186       6
     192     186       6     192     189       7     198     195       6     201
     195       6     201     198       7     207     204       6     210     204
       6     210     207       7     216     213       6     219     213       6
     219     216       7     225     222       6     228     222       6     228
     225       7     234     231       6     237     231       6     237     234
       7     243     240       6     246     240       6     246     243       7
     252     249       6     255     249       6     255     252       7     261
     258       6     264     258       6     264     261       7     270     267
       6     273     267       6     273     270       7     279     276       6
     282     276       6     282     279       7     288     285       6     291
     285       6     291     288       7     297     294       6     300     294
       6     300     297       7     306     303       6     309     303       6
     309     306       7     315     312       6     318     312       6     318
     315       7     324     321       6     327     321       6     327     324
       7     333     330       6     336     330       6     336     333       7
     342     339       6     345     339       6     345     342       7     351
     348       6     354     348       6     354     351       7     360     357
       6     363     357       6     363     360       7     369     366       6
     372     366       6     372     369       7     378     375       6     381
     375       6     381     378       7     387     384       6     390     384
       6     390     387       7     396     393       6     399     393       6
     399     396       7     405     402       6     408     402       6     408
     405       7     414     411       6     417     411       6     417     414
       7     423     420       6     426     420       6     426     423       7
     432     429       6     435     429       6     435     432       7     441
     438       6     444     438       6     444     441       7     450     447
       6     453     447       6     453     450       7     459     456       6
     462     456       6     462     459       7     468     465       6     471
     465       6     471     468       7     477     474       6     480     474
       6     480     477       7     486     483       6     489     483       6
     489     486       7     495     492       6     498     492       6     498
     495       7     504     501       6     507     501       6     507     504
       7     513     510       6     516     510       6     516     513       7
     522     519       6     525     519       6     525     522       7     531
     528       6     534     528       6     534     531       7     540     537
       6     543     537       6     543     540       7     549     546       6
     552     546       6     552     549       7     558     555       6     561
     555       6     561     558       7     567     564       6     570     564
       6     570     567       7     576     573       6     579     573       6
     579     576       7     585     582       6     588     582       6     588
     585       7     594     591       6     597     591       6     597     594
       7     603     600       6     606     600       6     606     603       7
     612     609       6     615     609       6     615     612       7     621
     618       6     624     618       6     624     621       7     630     627
       6     633     627       6     633     630       7     639     636       6
     642     636       6     642     639       7     648     645       6     651
     645       6     651     648       7     657     654       6     660     654
       6     660     657       7     666     663       6     669     663       6
     669     666       7     675     672       6     678     672       6     678
     675       7     684     681       6     687     681       6     687     684
       7     693     690       6     696     690       6     696     693       7
     702     699       6     705     699       6     705     702       7     711
     708       6     714     708       6     714     711       7     720     717
       6     723     717       6     723     720       7     729     726       6
     732     726       6     732     729       7     738     735       6     741
     735       6     741     738       7     747     744       6     750     744
       6     750     747       7     756     753       6     759     753       6
     759     756       7     765     762       6     768     762       6     768
     765       7     774     771       6     777     771       6     777     774
       7     783     780       6     786     780       6     786     783       7
     792     789       6     795     789       6     795     792       7     801
     798       6     804     798       6     804     801       7     810     807
       6     813     807       6     813     810       7     819     816       6
     822     816       6     822     819       7     828     825       6     831
     825       6     831     828       7     837     834       6     840     834
       6     840     837       7     846     843       6     849     843       6
     849     846       7     855     852       6     858     852       6     858
     855       7     864     861       6     867     861       6     867     864
       7     873     870       6     876     870       6     876     873       7
     882     879       6     885     879       6     885     882       7     891
     888       6     894     888       6     894     891       7     900     897
       6     903     897       6     903     900       7     909     906       6
     912     906       6     912     909       7     918     915       6     921
     915       6     921     918       7     927     924       6     930     924
       6     930     927       7     936     933       6     939     933       6
     939     936       7     945     942       6     948     942       6     948
     945       7     954     951       6     957     951       6     957     954
       7     963     960       6     966     960       6     966     963       7
     972     969       6     975     969       6     975     972       7     981
     978       6     984     978       6     984     981       7     990     987
       6     993     987       6     993     990       7     999     996       6
    1002     996       6    1002     999       7    1008    1005       6    1011
    1005       6    1011    1008       7    1017    1014       6    1020    1014
       6    1020    1017       7    1026    1023       6    1029    1023       6
    1029    1026       7    1035    1032       6    1038    1032       6    1038
    1035       7    1044    1041       6    1047    1041       6    1047    1044
       7    1053    1050       6    1056    1050       6    1056    1053       7
    1062    1059       6    1065    1059       6    1065    1062       7    1071
    1068       6    1074    1068       6    1074    1071       7    1080    1077
       6    1083    1077       6    1083    1080       7    1089    1086       6
    1092    1086       6    1092    1089       7    1098    1095       6    1101
    1095       6    1101    1098       7    1107    1104       6    1110    1104
       6    1110    1107       7    1116    1113       6    1119    1113       6
    1119    1116       7    1125    1122       6    1128    1122       6    1128
    1125       7    1134    1131       6    1137    1131       6    1137    1134
       7    1143    1140       6    1146    1140       6    1146    1143       7
    1152    1149       6    1155    1149       6    1155    1152       7    1161
    1158       6    1164    1158       6    1164    1161       7    1170    1167
       6    1173    1167       6    1173    1170       7    1179    1176       6
    1182    1176       6    1182    1179       7    1188    1185       6    1191
    1185       6    1191    1188       7    1197    1194       6    1200    1194
       6    1200    1197       7    1206    1203       6    1209    1203       6
    1209    1206       7    1215    1212       6    1218    1212       6    1218
    1215       7    1224    1221       6    1227    1221       6    1227    1224
       7    1233    1230       6    1236    1230       6    1236    1233       7
    1242    1239       6    1245    1239       6    1245    1242       7    1251
    1248       6    1254    1248       6    1254    1251       7    1260    1257
       6    1263    1257       6    1263    1260       7    1269    1266       6
    1272    1266       6    1272    1269       7    1278    1275       6    1281
    1275       6    1281    1278       7    1287    1284       6    1290    1284
       6    1290    1287       7    1296    1293       6    1299    1293       6
    1299    1296       7    1305    1302       6    1308    1302       6    1308
    1305       7    1314    1311       6    1317    1311       6    1317    1314
       7    1323    1320       6    1326    1320       6    1326    1323       7
    1332    1329       6    1335    1329       6    1335    1332       7    1341
    1338       6    1344    1338       6    1344    1341       7    1350    1347
       6    1353    1347       6    1353    1350       7    1359    1356       6
    1362    1356       6    1362    1359       7    1368    1365       6    1371
    1365       6    1371    1368       7    1377    1374       6    1380    1374
       6    1380    1377       7    1386    1383       6    1389    1383       6
    1389    1386       7    1395    1392       6    1398    1392       6    1398
    1395       7    1404    1401       6    1407    1401       6    1407    1404
       7    1413    1410       6    1416    1410       6    1416    1413       7
    1422    1419       6    1425    1419       6    1425    1422       7    1431
    1428       6    1434    1428       6    1434    1431       7    1440    1437
       6    1443    1437       6    1443    1440       7    1449    1446       6
    1452    1446       6    1452    1449       7    1458    1455       6    1461
    1455       6    1461    1458       7    1467    1464       6    1470    1464
       6    1470    1467       7    1476    1473       6    1479    1473       6
    1479    1476       7    1485    1482       6    1488    1482       6    1488
    1485       7    1494    1491       6    1497    1491       6    1497    1494
       7    1503    1500       6    1506    1500       6    1506    1503       7
    1512    1509       6    1515    1509       6    1515    1512       7    1521
    1518       6    1524    1518       6    1524    1521       7    1530    1527
       6    1533    1527       6    1533    1530       7    1539    1536       6
    1542    1536       6    1542    1539       7    1548    1545       6    1551
    1545       6    1551    1548       7    1557    1554       6    1560    1554
       6    1560    1557       7    1566    1563       6    1569    1563       6
    1569    1566       7    1575    1572       6    1578    1572       6    1578
    1575       7    1584    1581       6    1587    1581       6    1587    1584
       7    1593    1590       6    1596    1590       6    1596    1593       7
    1602    1599       6    1605    1599       6    1605    1602       7    1611
    1608       6    1614    1608       6    1614    1611       7    1620    1617
       6    1623    1617       6    1623    1620       7    1629    1626       6
    1632    1626       6    1632    1629       7    1638    1635       6    1641
    1635       6    1641    1638       7    1647    1644       6    1650    1644
       6    1650    1647       7    1656    1653       6    1659    1653       6
    1659    1656       7    1665    1662       6    1668    1662       6    1668
    1665       7    1674    1671       6    1677    1671       6    1677    1674
       7    1683    1680       6    1686    1680       6    1686    1683       7
    1692    1689       6    1695    1689       6    1695    1692       7    1701
    1698       6    1704    1698       6    1704    1701       7    1710    1707
       6    1713    1707       6    1713    1710       7    1719    1716       6
    1722    1716       6    1722    1719       7    1728    1725       6    1731
    1725       6    1731    1728       7    1737    1734       6    1740    1734
       6    1740    1737       7    1746    1743       6    1749    1743       6
    1749    1746       7    1755    1752       6    1758    1752       6    1758
    1755       7    1764    1761       6    1767    1761       6    1767    1764
       7    1773    1770       6    1776    1770       6    1776    1773       7
    1782    1779       6    1785    1779       6    1785    1782       7    1791
    1788       6    1794    1788       6    1794    1791       7    1800    1797
       6    1803    1797       6    1803    1800       7    1809    1806       6
    1812    1806       6    1812    1809       7    1818    1815       6    1821
    1815       6    1821    1818       7    1827    1824       6    1830    1824
       6    1830    1827       7    1836    1833       6    1839    1833       6
    1839    1836       7    1845    1842       6    1848    1842       6    1848
    1845       7    1854    1851       6    1857    1851       6    1857    1854
       7    1863    1860       6    1866    1860       6    1866    1863       7
    1872    1869       6    1875    1869       6    1875    1872       7    1881
    1878       6    1884    1878       6    1884    1881       7    1890    1887
       6    1893    1887       6    1893    1890       7    1899    1896       6
    1902    1896       6    1902    1899       7    1908    1905       6    1911
    1905       6    1911    1908       7    1917    1914       6    1920    1914
       6    1920    1917       7    1926    1923       6    1929    1923       6
    1929    1926       7    1935    1932       6    1938    1932       6    1938
    1935       7    1944    1941       6    1947    1941       6    1947    1944
       7    1953    1950       6    1956    1950       6    1956    1953       7
    1962    1959       6    1965    1959       6    1965    1962       7    1971
    1968       6    1974    1968       6    1974    1971       7    1980    1977
       6    1983    1977       6    1983    1980       7    1989    1986       6
    1992    1986       6    1992    1989       7    1998    1995       6    2001
    1995       6    2001    1998       7    2007    2004       6    2010    2004
       6    2010    2007       7    2016    2013       6    2019    2013       6
    2019    2016       7    2025    2022       6    2028    2022       6    2028
    2025       7    2034    2031       6    2037    2031       6    2037    2034
       7    2043    2040       6    2046    2040       6    2046    2043       7
    2052    2049       6    2055    2049       6    2055    2052       7    2061
    2058       6    2064    2058       6    2064    2061       7    2070    2067
       6    2073    2067       6    2073    2070       7    2079    2076       6
    2082    2076       6    2082    2079       7    2088    2085       6    2091
    2085       6    2091    2088       7    2097    2094       6    2100    2094
       6    2100    2097       7    2106    2103       6    2109    2103       6
    2109    2106       7    2115    2112       6    2118    2112       6    2118
    2115       7    2124    2121       6    2127    2121       6    2127    2124
       7    2133    2130       6    2136    2130       6    2136    2133       7
    2142    2139       6    2145    2139       6    2145    2142       7    2151
    2148       6    2154    2148       6    2154    2151       7    2160    2157
       6    2163    2157       6    2163    2160       7    2169    2166       6
    2172    2166       6    2172    2169       7    2178    2175       6    2181
    2175       6    2181    2178       7    2187    2184       6    2190    2184
       6    2190    2187       7    2196    2193       6    2199    2193       6
    2199    2196       7    2205    2202       6    2208    2202       6    2208
    2205       7    2214    2211       6    2217    2211       6    2217    2214
       7    2223    2220       6    2226    2220       6    2226    2223       7
    2232    2229       6    2235    2229       6    2235    2232       7    2241
    2238       6    2244    2238       6    2244    2241       7    2250    2247
       6    2253    2247       6    2253    2250       7    2259    2256       6
    2262    2256       6    2262    2259       7    2268    2265       6    2271
    2265       6    2271    2268       7    2277    2274       6    2280    2274
       6    2280    2277       7    2286    2283       6    2289    2283       6
    2289    2286       7    2295    2292       6    2298    2292       6    2298
    2295       7    2304    2301       6    2307    2301       6    2307    2304
       7    2313    2310       6    2316    2310       6    2316    2313       7
    2322    2319       6    2325    2319       6    2325    2322       7    2331
    2328       6    2334    2328       6    2334    2331       7    2340    2337
       6    2343    2337       6    2343    2340       7    2349    2346       6
    2352    2346       6    2352    2349       7    2358    2355       6    2361
    2355       6    2361    2358       7    2367    2364       6    2370    2364
       6    2370    2367       7    2376    2373       6    2379    2373       6
    2379    2376       7    2385    2382       6    2388    2382       6    2388
    2385       7    2394    2391       6    2397    2391       6    2397    2394
       7    2403    2400       6    2406    2400       6    2406    2403       7
    2412    2409       6    2415    2409       6    2415    2412       7    2421
    2418       6    2424    2418       6    2424    2421       7    2430    2427
       6    2433    2427       6    2433    2430       7    2439    2436       6
    2442    2436       6    2442    2439       7    2448    2445       6    2451
    2445       6    2451    2448       7    2457    2454       6    2460    2454
       6    2460    2457       7    2466    2463       6    2469    2463       6
    2469    2466       7    2475    2472       6    2478    2472       6    2478
    2475       7    2484    2481       6    2487    2481       6    2487    2484
       7    2493    2490       6    2496    2490       6    2496    2493       7
    2502    2499       6    2505    2499       6    2505    2502       7    2511
    2508       6    2514    2508       6    2514    2511       7    2520    2517
       6    2523    2517       6    2523    2520       7    2529    2526       6
    2532    2526       6    2532    2529       7    2538    2535       6    2541
    2535       6    2541    2538       7    2547    2544       6    2550    2544
       6    2550    2547       7    2556    2553       6    2559    2553       6
    2559    2556       7    2565    2562       6    2568    2562       6    2568
    2565       7    2574    2571       6    2577    2571       6    2577    2574
       7    2583    2580       6    2586    2580       6    2586    2583       7
    2592    2589       6    2595    2589       6    2595    2592       7    2601
    2598       6    2604    2598       6    2604    2601       7    2610    2607
       6    2613    2607       6    2613    2610       7    2619    2616       6
    2622    2616       6    2622    2619       7    2628    2625       6    2631
    2625       6    2631    2628       7    2637    2634       6    2640    2634
       6    2640    2637       7    2646    2643       6    2649    2643       6
    2649    2646       7    2655    2652       6    2658    2652       6    2658
    2655       7    2664    2661       6    2667    2661       6    2667    2664
       7    2673    2670       6    2676    2670       6    2676    2673       7
    2682    2679       6    2685    2679       6    2685    2682       7    2691
    2688       6    2694    2688       6    2694    2691       7    2700    2697
       6    2703    2697       6    2703    2700       7    2709    2706       6
    2712    2706       6    2712    2709       7    2718    2715       6    2721
    2715       6    2721    2718       7    2727    2724       6    2730    2724
       6    2730    2727       7    2736    2733       6    2739    2733       6
    2739    2736       7    2745    2742       6    2748    2742       6    2748
    2745       7    2754    2751       6    2757    2751       6    2757    2754
       7    2763    2760       6    2766    2760       6    2766    2763       7
    2772    2769       6    2775    2769       6    2775    2772       7    2781
    2778       6    2784    2778       6    2784    2781       7    2790    2787
       6    2793    2787       6    2793    2790       7    2799    2796       6
    2802    2796       6    2802    2799       7    2808    2805       6    2811
    2805       6    2811    2808       7    2817    2814       6    2820    2814
       6    2820    2817       7    2826    2823       6    2829    2823       6
    2829    2826       7    2835    2832       6    2838    2832       6    2838
    2835       7    2844    2841       6    2847    2841       6    2847    2844
       7    2853    2850       6    2856    2850       6    2856    2853       7
    2862    2859       6    2865    2859       6    2865    2862       7    2871
    2868       6    2874    2868       6    2874    2871       7    2880    2877
       6    2883    2877       6    2883    2880       7    2889    2886       6
    2892    2886       6    2892    2889       7    2898    2895       6    2901
    2895       6    2901    2898       7    2907    2904       6    2910    2904
       6    2910    2907       7    2916    2913       6    2919    2913       6
    2919    2916       7    2925    2922       6    2928    2922       6    2928
    2925       7    2934    2931       6    2937    2931       6    2937    2934
       7    2943    2940       6    2946    2940       6    2946    2943       7
    2952    2949       6    2955    2949       6    2955    2952       7    2961
    2958       6    2964    2958       6    2964    2961       7    2970    2967
       6    2973    2967       6    2973    2970       7    2979    2976       6
    2982    2976       6    2982    2979       7    2988    2985       6    2991
    2985       6    2991    2988       7    2997    2994       6    3000    2994
       6    3000    2997       7    3006    3003       6    3009    3003       6
    3009    3006       7    3015    3012       6    3018    3012       6    3018
    3015       7    3024    3021       6    3027    3021       6    3027    3024
       7    3033    3030       6    3036    3030       6    3036    3033       7
    3042    3039       6    3045    3039       6    3045    3042       7    3051
    3048       6    3054    3048       6    3054    3051       7    3060    3057
       6    3063    3057       6    3063    3060       7    3069    3066       6
    3072    3066       6    3072    3069       7    3078    3075       6    3081
    3075       6    3081    3078       7    3087    3084       6    3090    3084
       6    3090    3087       7    3096    3093       6    3099    3093       6
    3099    3096       7    3105    3102       6    3108    3102       6    3108
    3105       7    3114    3111       6    3117    3111       6    3117    3114
       7    3123    3120       6    3126    3120       6    3126    3123       7
    3132    3129       6    3135    3129       6    3135    3132       7    3141
    3138       6    3144    3138       6    3144    3141       7    3150    3147
       6    3153    3147       6    3153    3150       7    3159    3156       6
    3162    3156       6    3162    3159       7    3168    3165       6    3171
    3165       6    3171    3168       7    3177    3174       6    3180    3174
       6    3180    3177       7    3186    3183       6    3189    3183       6
    3189    3186       7    3195    3192       6    3198    3192       6    3198
    3195       7    3204    3201       6    3207    3201       6    3207    3204
       7    3213    3210       6    3216    3210       6    3216    3213       7
    3222    3219       6    3225    3219       6    3225    3222       7    3231
    3228       6    3234    3228       6    3234    3231       7    3240    3237
       6    3243    3237       6    3243    3240       7    3249    3246       6
    3252    3246       6    3252    3249       7    3258    3255       6    3261
    3255       6    3261    3258       7    3267    3264       6    3270    3264
       6    3270    3267       7    3276    3273       6    3279    3273       6
    3279    3276       7    3285    3282       6    3288    3282       6    3288
    3285       7    3294    3291       6    3297    3291       6    3297    3294
       7    3303    3300       6    3306    3300       6    3306    3303       7
    3312    3309       6    3315    3309       6    3315    3312       7    3321
    3318       6    3324    3318       6    3324    3321       7    3330    3327
       6    3333    3327       6    3333    3330       7    3339    3336       6
    3342    3336       6    3342    3339       7    3348    3345       6    3351
    3345       6    3351    3348       7    3357    3354       6    3360    3354
       6    3360    3357       7    3366    3363       6    3369    3363       6
    3369    3366       7    3375    3372       6    3378    3372       6    3378
    3375       7    3384    3381       6    3387    3381       6    3387    3384
       7    3393    3390       6    3396    3390       6    3396    3393       7
    3402    3399       6    3405    3399       6    3405    3402       7    3411
    3408       6    3414    3408       6    3414    3411       7    3420    3417
       6    3423    3417       6    3423    3420       7    3429    3426       6
    3432    3426       6    3432    3429       7    3438    3435       6    3441
    3435       6    3441    3438       7    3447    3444       6    3450    3444
       6    3450    3447       7    3456    3453       6    3459    3453       6
    3459    3456       7    3465    3462       6    3468    3462       6    3468
    3465       7    3474    3471       6    3477    3471       6    3477    3474
       7    3483    3480       6    3486    3480       6    3486    3483       7
    3492    3489       6    3495    3489       6    3495    3492       7    3501
    3498       6    3504    3498       6    3504    3501       7    3510    3507
       6    3513    3507       6    3513    3510       7    3519    3516       6
    3522    3516       6    3522    3519       7    3528    3525       6    3531
    3525       6    3531    3528       7    3537    3534       6    3540    3534
       6    3540    3537       7    3546    3543       6    3549    3543       6
    3549    3546       7    3555    3552       6    3558    3552       6    3558
    3555       7    3564    3561       6    3567    3561       6    3567    3564
       7    3573    3570       6    3576    3570       6    3576    3573       7
    3582    3579       6    3585    3579       6    3585    3582       7    3591
    3588       6    3594    3588       6    3594    3591       7    3600    3597
       6    3603    3597       6    3603    3600       7    3609    3606       6
    3612    3606       6    3612    3609       7    3618    3615       6    3621
    3615       6    3621    3618       7    3627    3624       6    3630    3624
       6    3630    3627       7    3636    3633       6    3639    3633       6
    3639    3636       7    3645    3642       6    3648    3642       6    3648
    3645       7    3654    3651       6    3657    3651       6    3657    3654
       7    3663    3660       6    3666    3660       6    3666    3663       7
    3672    3669       6    3675    3669       6    3675    3672       7    3681
    3678       6    3684    3678       6    3684    3681       7    3690    3687
       6    3693    3687       6    3693    3690       7    3699    3696       6
    3702    3696       6    3702    3699       7    3708    3705       6    3711
    3705       6    3711    3708       7    3717    3714       6    3720    3714
       6    3720    3717       7    3726    3723       6    3729    3723       6
    3729    3726       7    3735    3732       6    3738    3732       6    3738
    3735       7    3744    3741       6    3747    3741       6    3747    3744
       7    3753    3750       6    3756    3750       6    3756    3753       7
    3762    3759       6    3765    3759       6    3765    3762       7    3771
    3768       6    3774    3768       6    3774    3771       7    3780    3777
       6    3783    3777       6    3783    3780       7    3789    3786       6
    3792    3786       6    3792    3789       7    3798    3795       6    3801
    3795       6    3801    3798       7    3807    3804       6    3810    3804
       6    3810    3807       7    3816    3813       6    3819    3813       6
    3819    3816       7    3825    3822       6    3828    3822       6    3828
    3825       7    3834    3831       6    3837    3831       6    3837    3834
       7    3843    3840       6    3846    3840       6    3846    3843       7
    3852    3849       6    3855    3849       6    3855    3852       7    3861
    3858       6    3864    3858       6    3864    3861       7    3870    3867
       6    3873    3867       6    3873    3870       7    3879    3876       6
    3882    3876       6    3882    3879       7    3888    3885       6    3891
    3885       6    3891    3888       7    3897    3894       6    3900    3894
       6    3900    3897       7    3906    3903       6    3909    3903       6
    3909    3906       7    3915    3912       6    3918    3912       6    3918
    3915       7    3924    3921       6    3927    3921       6    3927    3924
       7    3933    3930       6    3936    3930       6    3936    3933       7
    3942    3939       6    3945    3939       6    3945    3942       7    3951
    3948       6    3954    3948       6    3954    3951       7    3960    3957
       6    3963    3957       6    3963    3960       7    3969    3966       6
    3972    3966       6    3972    3969       7    3978    3975       6    3981
    3975       6    3981    3978       7    3987    3984       6    3990    3984
       6    3990    3987       7    3996    3993       6    3999    3993       6
    3999    3996       7    4005    4002       6    4008    4002       6    4008
    4005       7    4014    4011       6    4017    4011       6    4017    4014
       7    4023    4020       6    4026    4020       6    4026    4023       7
    4032    4029       6    4035    4029       6    4035    4032       7    4041
    4038       6    4044    4038       6    4044    4041       7    4050    4047
       6    4053    4047       6    4053    4050       7    4059    4056       6
    4062    4056       6    4062    4059       7    4068    4065       6    4071
    4065       6    4071    4068       7    4077    4074       6    4080    4074
       6    4080    4077       7    4086    4083       6    4089    4083       6
    4089    4086       7    4095    4092       6    4098    4092       6    4098
    4095       7    4104    4101       6    4107    4101       6    4107    4104
       7    4113    4110       6    4116    4110       6    4116    4113       7
    4122    4119       6    4125    4119       6    4125    4122       7    4131
    4128       6    4134    4128       6    4134    4131       7    4140    4137
       6    4143    4137       6    4143    4140       7    4149    4146       6
    4152    4146       6    4152    4149       7    4158    4155       6    4161
    4155       6    4161    4158       7    4167    4164       6    4170    4164
       6    4170    4167       7    4176    4173       6    4179    4173       6
    4179    4176       7    4185    4182       6    4188    4182       6    4188
    4185       7    4194    4191       6    4197    4191       6    4197    4194
       7    4203    4200       6    4206    4200       6    4206    4203       7
    4212    4209       6    4215    4209       6    4215    4212       7    4221
    4218       6    4224    4218       6    4224    4221       7    4230    4227
       6    4233    4227       6    4233    4230       7    4239    4236       6
    4242    4236       6    4242    4239       7    4248    4245       6    4251
    4245       6    4251    4248       7    4257    4254       6    4260    4254
       6    4260    4257       7    4266    4263       6    4269    4263       6
    4269    4266       7    4275    4272       6    4278    4272       6    4278
    4275       7    4284    4281       6    4287    4281       6    4287    4284
       7    4293    4290       6    4296    4290       6    4296    4293       7
    4302    4299       6    4305    4299       6    4305    4302       7    4311
    4308       6    4314    4308       6    4314    4311       7    4320    4317
       6    4323    4317       6    4323    4320       7    4329    4326       6
    4332    4326       6    4332    4329       7    4338    4335       6    4341
    4335       6    4341    4338       7    4347    4344       6    4350    4344
       6    4350    4347       7    4356    4353       6    4359    4353       6
    4359    4356       7    4365    4362       6    4368    4362       6    4368
    4365       7    4374    4371       6    4377    4371       6    4377    4374
       7    4383    4380       6    4386    4380       6    4386    4383       7
    4392    4389       6    4395    4389       6    4395    4392       7    4401
    4398       6    4404    4398       6    4404    4401       7    4410    4407
       6    4413    4407       6    4413    4410       7    4419    4416       6
    4422    4416       6    4422    4419       7    4428    4425       6    4431
    4425       6    4431    4428       7    4437    4434       6    4440    4434
       6    4440    4437       7    4446    4443       6    4449    4443       6
    4449    4446       7    4455    4452       6    4458    4452       6    4458
    4455       7    4464    4461       6    4467    4461       6    4467    4464
       7    4473    4470       6    4476    4470       6    4476    4473       7
    4482    4479       6    4485    4479       6    4485    4482       7    4491
    4488       6    4494    4488       6    4494    4491       7    4500    4497
       6    4503    4497       6    4503    4500       7    4509    4506       6
    4512    4506       6    4512    4509       7    4518    4515       6    4521
    4515       6    4521    4518       7    4527    4524       6    4530    4524
       6    4530    4527       7    4536    4533       6    4539    4533       6
    4539    4536       7    4545    4542       6    4548    4542       6    4548
    4545       7    4554    4551       6    4557    4551       6    4557    4554
       7    4563    4560       6    4566    4560       6    4566    4563       7
    4572    4569       6    4575    4569       6    4575    4572       7    4581
    4578       6    4584    4578       6    4584    4581       7    4590    4587
       6    4593    4587       6    4593    4590       7    4599    4596       6
    4602    4596       6    4602    4599       7    4608    4605       6    4611
    4605       6    4611    4608       7    4617    4614       6    4620    4614
       6    4620    4617       7    4626    4623       6    4629    4623       6
    4629    4626       7    4635    4632       6    4638    4632       6    4638
    4635       7    4644    4641       6    4647    4641       6    4647    4644
       7    4653    4650       6    4656    4650       6    4656    4653       7
    4662    4659       6    4665    4659       6    4665    4662       7    4671
    4668       6    4674    4668       6    4674    4671       7    4680    4677
       6    4683    4677       6    4683    4680       7    4689    4686       6
    4692    4686       6    4692    4689       7    4698    4695       6    4701
    4695       6    4701    4698       7    4707    4704       6    4710    4704
       6    4710    4707       7    4716    4713       6    4719    4713       6
    4719    4716       7    4725    4722       6    4728    4722       6    4728
    4725       7    4734    4731       6    4737    4731       6    4737    4734
       7    4743    4740       6    4746    4740       6    4746    4743       7
    4752    4749       6    4755    4749       6    4755    4752       7    4761
    4758       6    4764    4758       6    4764    4761       7    4770    4767
       6    4773    4767       6    4773    4770       7    4779    4776       6
    4782    4776       6    4782    4779       7    4788    4785       6    4791
    4785       6    4791    4788       7    4797    4794       6    4800    4794
       6    4800    4797       7    4806    4803       6    4809    4803       6
    4809    4806       7    4815    4812       6    4818    4812       6    4818
    4815       7    4824    4821       6    4827    4821       6    4827    4824
       7    4833    4830       6    4836    4830       6    4836    4833       7
    4842    4839       6    4845    4839       6    4845    4842       7    4851
    4848       6    4854    4848       6    4854    4851       7    4860    4857
       6    4863    4857       6    4863    4860       7    4869    4866       6
    4872    4866       6    4872    4869       7    4878    4875       6    4881
    4875       6    4881    4878       7    4887    4884       6    4890    4884
       6    4890    4887       7    4896    4893       6    4899    4893       6
    4899    4896       7    4905    4902       6    4908    4902       6    4908
    4905       7    4914    4911       6    4917    4911       6    4917    4914
       7    4923    4920       6    4926    4920       6    4926    4923       7
    4932    4929       6    4935    4929       6    4935    4932       7    4941
    4938       6    4944    4938       6    4944    4941       7    4950    4947
       6    4953    4947       6    4953    4950       7    4959    4956       6
    4962    4956       6    4962    4959       7    4968    4965       6    4971
    4965       6    4971    4968       7    4977    4974       6    4980    4974
       6    4980    4977       7    4986    4983       6    4989    4983       6
    4989    4986       7    4995    4992       6    4998    4992       6    4998
    4995       7    5004    5001       6    5007    5001       6    5007    5004
       7    5013    5010       6    5016    5010       6    5016    5013       7
    5022    5019       6    5025    5019       6    5025    5022       7    5031
    5028       6    5034    5028       6    5034    5031       7    5040    5037
       6    5043    5037       6    5043    5040       7    5049    5046       6
    5052    5046       6    5052    5049       7    5058    5055       6    5061
    5055       6    5061    5058       7    5067    5064       6    5070    5064
       6    5070    5067       7    5076    5073       6    5079    5073       6
    5079    5076       7    5085    5082       6    5088    5082       6    5088
    5085       7    5094    5091       6    5097    5091       6    5097    5094
       7    5103    5100       6    5106    5100       6    5106    5103       7
    5112    5109       6    5115    5109       6    5115    5112       7    5121
    5118       6    5124    5118       6    5124    5121       7    5130    5127
       6    5133    5127       6    5133    5130       7    5139    5136       6
    5142    5136       6    5142    5139       7    5148    5145       6    5151
    5145       6    5151    5148       7    5157    5154       6    5160    5154
       6    5160    5157       7    5166    5163       6    5169    5163       6
    5169    5166       7    5175    5172       6    5178    5172       6    5178
    5175       7    5184    5181       6    5187    5181       6    5187    5184
       7    5193    5190       6    5196    5190       6    5196    5193       7
    5202    5199       6    5205    5199       6    5205    5202       7    5211
    5208       6    5214    5208       6    5214    5211       7    5220    5217
       6    5223    5217       6    5223    5220       7    5229    5226       6
    5232    5226       6    5232    5229       7    5238    5235       6    5241
    5235       6    5241    5238       7    5247    5244       6    5250    5244
       6    5250    5247       7    5256    5253       6    5259    5253       6
    5259    5256       7    5265    5262       6    5268    5262       6    5268
    5265       7    5274    5271       6    5277    5271       6    5277    5274
       7    5283    5280       6    5286    5280       6    5286    5283       7
    5292    5289       6    5295    5289       6    5295    5292       7    5301
    5298       6    5304    5298       6    5304    5301       7    5310    5307
       6    5313    5307       6    5313    5310       7    5319    5316       6
    5322    5316       6    5322    5319       7    5328    5325       6    5331
    5325       6    5331    5328       7    5337    5334       6    5340    5334
       6    5340    5337       7    5346    5343       6    5349    5343       6
    5349    5346       7    5355    5352       6    5358    5352       6    5358
    5355       7    5364    5361       6    5367    5361       6    5367    5364
       7    5373    5370       6    5376    5370       6    5376    5373       7
    5382    5379       6    5385    5379       6    5385    5382       7    5391
    5388       6    5394    5388       6    5394    5391       7    5400    5397
       6    5403    5397       6    5403    5400       7    5409    5406       6
    5412    5406       6    5412    5409       7    5418    5415       6    5421
    5415       6    5421    5418       7    5427    5424       6    5430    5424
       6    5430    5427       7    5436    5433       6    5439    5433       6
    5439    5436       7    5445    5442       6    5448    5442       6    5448
    5445       7    5454    5451       6    5457    5451       6    5457    5454
       7    5463    5460       6    5466    5460       6    5466    5463       7
    5472    5469       6    5475    5469       6    5475    5472       7    5481
    5478       6    5484    5478       6    5484    5481       7    5490    5487
       6    5493    5487       6    5493    5490       7    5499    5496       6
    5502    5496       6    5502    5499       7    5508    5505       6    5511
    5505       6    5511    5508       7    5517    5514       6    5520    5514
       6    5520    5517       7    5526    5523       6    5529    5523       6
    5529    5526       7    5535    5532       6    5538    5532       6    5538
    5535       7    5544    5541       6    5547    5541       6    5547    5544
       7    5553    5550       6    5556    5550       6    5556    5553       7
    5562    5559       6    5565    5559       6    5565    5562       7    5571
    5568       6    5574    5568       6    5574    5571       7    5580    5577
       6    5583    5577       6    5583    5580       7    5589    5586       6
    5592    5586       6    5592    5589       7    5598    5595       6    5601
    5595       6    5601    5598       7    5607    5604       6    5610    5604
       6    5610    5607       7    5616    5613       6    5619    5613       6
    5619    5616       7    5625    5622       6    5628    5622       6    5628
    5625       7    5634    5631       6    5637    5631       6    5637    5634
       7    5643    5640       6    5646    5640       6    5646    5643       7
    5652    5649       6    5655    5649       6    5655    5652       7    5661
    5658       6    5664    5658       6    5664    5661       7    5670    5667
       6    5673    5667       6    5673    5670       7    5679    5676       6
    5682    5676       6    5682    5679       7    5688    5685       6    5691
    5685       6    5691    5688       7    5697    5694       6    5700    5694
       6    5700    5697       7    5706    5703       6    5709    5703       6
    5709    5706       7    5715    5712       6    5718    5712       6    5718
    5715       7    5724    5721       6    5727    5721       6    5727    5724
       7    5733    5730       6    5736    5730       6    5736    5733       7
    5742    5739       6    5745    5739       6    5745    5742       7    5751
    5748       6    5754    5748       6    5754    5751       7    5760    5757
       6    5763    5757       6    5763    5760       7    5769    5766       6
    5772    5766       6    5772    5769       7    5778    5775       6    5781
    5775       6    5781    5778       7    5787    5784       6    5790    5784
       6    5790    5787       7    5796    5793       6    5799    5793       6
    5799    5796       7    5805    5802       6    5808    5802       6    5808
    5805       7    5814    5811       6    5817    5811       6    5817    5814
       7    5823    5820       6    5826    5820       6    5826    5823       7
    5832    5829       6    5835    5829       6    5835    5832       7    5841
    5838       6    5844    5838       6    5844    5841       7    5850    5847
       6    5853    5847       6    5853    5850       7    5859    5856       6
    5862    5856       6    5862    5859       7    5868    5865       6    5871
    5865       6    5871    5868       7    5877    5874       6    5880    5874
       6    5880    5877       7    5886    5883       6    5889    5883       6
    5889    5886       7    5895    5892       6    5898    5892       6    5898
    5895       7    5904    5901       6    5907    5901       6    5907    5904
       7    5913    5910       6    5916    5910       6    5916    5913       7
    5922    5919       6    5925    5919       6    5925    5922       7    5931
    5928       6    5934    5928       6    5934    5931       7    5940    5937
       6    5943    5937       6    5943    5940       7    5949    5946       6
    5952    5946       6    5952    5949       7    5958    5955       6    5961
    5955       6    5961    5958       7    5967    5964       6    5970    5964
       6    5970    5967       7    5976    5973       6    5979    5973       6
    5979    5976       7    5985    5982       6    5988    5982       6    5988
    5985       7    5994    5991       6    5997    5991       6    5997    5994
       7    6003    6000       6    6006    6000       6    6006    6003       7
    6012    6009       6    6015    6009       6    6015    6012       7    6021
    6018       6    6024    6018       6    6024    6021       7    6030    6027
       6    6033    6027       6    6033    6030       7    6039    6036       6
    6042    6036       6    6042    6039       7    6048    6045       6    6051
    6045       6    6051    6048       7    6057    6054       6    6060    6054
       6    6060    6057       7    6066    6063       6    6069    6063       6
    6069    6066       7    6075    6072       6    6078    6072       6    6078
    6075       7    6084    6081       6    6087    6081       6    6087    6084
       7    6093    6090       6    6096    6090       6    6096    6093       7
    6102    6099       6    6105    6099       6    6105    6102       7    6111
    6108       6    6114    6108       6    6114    6111       7    6120    6117
       6    6123    6117       6    6123    6120       7    6129    6126       6
    6132    6126       6    6132    6129       7    6138    6135       6    6141
    6135       6    6141    6138       7    6147    6144       6    6150    6144
       6    6150    6147       7    6156    6153       6    6159    6153       6
    6159    6156       7    6165    6162       6    6168    6162       6    6168
    6165       7    6174    6171       6    6177    6171       6    6177    6174
       7    6183    6180       6    6186    6180       6    6186    6183       7
    6192    6189       6    6195    6189       6    6195    6192       7    6201
    6198       6    6204    6198       6    6204    6201       7    6210    6207
       6    6213    6207       6    6213    6210       7    6219    6216       6
    6222    6216       6    6222    6219       7    6228    6225       6    6231
    6225       6    6231    6228       7    6237    6234       6    6240    6234
       6    6240    6237       7    6246    6243       6    6249    6243       6
    6249    6246       7    6255    6252       6    6258    6252       6    6258
    6255       7    6264    6261       6    6267    6261       6    6267    6264
       7    6273    6270       6    6276    6270       6    6276    6273       7
    6282    6279       6    6285    6279       6    6285    6282       7    6291
    6288       6    6294    6288       6    6294    6291       7    6300    6297
       6    6303    6297       6    6303    6300       7    6309    6306       6
    6312    6306       6    6312    6309       7    6318    6315       6    6321
    6315       6    6321    6318       7    6327    6324       6    6330    6324
       6    6330    6327       7    6336    6333       6    6339    6333       6
    6339    6336       7    6345    6342       6    6348    6342       6    6348
    6345       7    6354    6351       6    6357    6351       6    6357    6354
       7    6363    6360       6    6366    6360       6    6366    6363       7
    6372    6369       6    6375    6369       6    6375    6372       7    6381
    6378       6    6384    6378       6    6384    6381       7    6390    6387
       6    6393    6387       6    6393    6390       7    6399    6396       6
    6402    6396       6    6402    6399       7    6408    6405       6    6411
    6405       6    6411    6408       7    6417    6414       6    6420    6414
       6    6420    6417       7    6426    6423       6    6429    6423       6
    6429    6426       7    6435    6432       6    6438    6432       6    6438
    6435       7    6444    6441       6    6447    6441       6    6447    6444
       7    6453    6450       6    6456    6450       6    6456    6453       7
    6462    6459       6    6465    6459       6    6465    6462       7    6471
    6468       6    6474    6468       6    6474    6471       7    6480    6477
       6    6483    6477       6    6483    6480       7    6489    6486       6
    6492    6486       6    6492    6489       7    6498    6495       6    6501
    6495       6    6501    6498       7    6507    6504       6    6510    6504
       6    6510    6507       7    6516    6513       6    6519    6513       6
    6519    6516       7    6525    6522       6    6528    6522       6    6528
    6525       7    6534    6531       6    6537    6531       6    6537    6534
       7    6543    6540       6    6546    6540       6    6546    6543       7
    6552    6549       6    6555    6549       6    6555    6552       7    6561
    6558       6    6564    6558       6    6564    6561       7    6570    6567
       6    6573    6567       6    6573    6570       7    6579    6576       6
    6582    6576       6    6582    6579       7    6588    6585       6    6591
    6585       6    6591    6588       7    6597    6594       6    6600    6594
       6    6600    6597       7    6606    6603       6    6609    6603       6
    6609    6606       7    6615    6612       6    6618    6612       6    6618
    6615       7    6624    6621       6    6627    6621       6    6627    6624
       7    6633    6630       6    6636    6630       6    6636    6633       7
    6642    6639       6    6645    6639       6    6645    6642       7    6651
    6648       6    6654    6648       6    6654    6651       7    6660    6657
       6    6663    6657       6    6663    6660       7    6669    6666       6
    6672    6666       6    6672    6669       7    6678    6675       6    6681
    6675       6    6681    6678       7    6687    6684       6    6690    6684
       6    6690    6687       7    6696    6693       6    6699    6693       6
    6699    6696       7    6705    6702       6    6708    6702       6    6708
    6705       7    6714    6711       6    6717    6711       6    6717    6714
       7    6723    6720       6    6726    6720       6    6726    6723       7
    6732    6729       6    6735    6729       6    6735    6732       7    6741
    6738       6    6744    6738       6    6744    6741       7    6750    6747
       6    6753    6747       6    6753    6750       7    6759    6756       6
    6762    6756       6    6762    6759       7    6768    6765       6    6771
    6765       6    6771    6768       7    6777    6774       6    6780    6774
       6    6780    6777       7    6786    6783       6    6789    6783       6
    6789    6786       7    6795    6792       6    6798    6792       6    6798
    6795       7    6804    6801       6    6807    6801       6    6807    6804
       7    6813    6810       6    6816    6810       6    6816    6813       7
    6822    6819       6    6825    6819       6    6825    6822       7    6831
    6828       6    6834    6828       6    6834    6831       7    6840    6837
       6    6843    6837       6    6843    6840       7    6849    6846       6
    6852    6846       6    6852    6849       7    6858    6855       6    6861
    6855       6    6861    6858       7    6867    6864       6    6870    6864
       6    6870    6867       7    6876    6873       6    6879    6873       6
    6879    6876       7    6885    6882       6    6888    6882       6    6888
    6885       7    6894    6891       6    6897    6891       6    6897    6894
       7    6903    6900       6    6906    6900       6    6906    6903       7
    6912    6909       6    6915    6909       6    6915    6912       7    6921
    6918       6    6924    6918       6    6924    6921       7    6930    6927
       6    6933    6927       6    6933    6930       7    6939    6936       6
    6942    6936       6    6942    6939       7    6948    6945       6    6951
    6945       6    6951    6948       7    6957    6954       6    6960    6954
       6    6960    6957       7    6966    6963       6    6969    6963       6
    6969    6966       7    6975    6972       6    6978    6972       6    6978
    6975       7    6984    6981       6    6987    6981       6    6987    6984
       7    6993    6990       6    6996    6990       6    6996    6993       7
    7002    6999       6    7005    6999       6    7005    7002       7    7011
    7008       6    7014    7008       6    7014    7011       7    7020    7017
       6    7023    7017       6    7023    7020       7    7029    7026       6
    7032    7026       6    7032    7029       7    7038    7035       6    7041
    7035       6    7041    7038       7    7047    7044       6    7050    7044
       6    7050    7047       7    7056    7053       6    7059    7053       6
    7059    7056       7    7065    7062       6    7068    7062       6    7068
    7065       7    7074    7071       6    7077    7071       6    7077    7074
       7    7083    7080       6    7086    7080       6    7086    7083       7
    7092    7089       6    7095    7089       6    7095    7092       7    7101
    7098       6    7104    7098       6    7104    7101       7    7110    7107
       6    7113    7107       6    7113    7110       7    7119    7116       6
    7122    7116       6    7122    7119       7    7128    7125       6    7131
    7125       6    7131    7128       7    7137    7134       6    7140    7134
       6    7140    7137       7    7146    7143       6    7149    7143       6
    7149    7146       7    7155    7152       6    7158    7152       6    7158
    7155       7    7164    7161       6    7167    7161       6    7167    7164
       7    7173    7170       6    7176    7170       6    7176    7173       7
    7182    7179       6    7185    7179       6    7185    7182       7    7191
    7188       6    7194    7188       6    7194    7191       7    7200    7197
       6    7203    7197       6    7203    7200       7    7209    7206       6
    7212    7206       6    7212    7209       7    7218    7215       6    7221
    7215       6    7221    7218       7    7227    7224       6    7230    7224
       6    7230    7227       7    7236    7233       6    7239    7233       6
    7239    7236       7    7245    7242       6    7248    7242       6    7248
    7245       7    7254    7251       6    7257    7251       6    7257    7254
       7    7263    7260       6    7266    7260       6    7266    7263       7
    7272    7269       6    7275    7269       6    7275    7272       7    7281
    7278       6    7284    7278       6    7284    7281       7    7290    7287
       6    7293    7287       6    7293    7290       7    7299    7296       6
    7302    7296       6    7302    7299       7    7308    7305       6    7311
    7305       6    7311    7308       7    7317    7314       6    7320    7314
       6    7320    7317       7    7326    7323       6    7329    7323       6
    7329    7326       7    7335    7332       6    7338    7332       6    7338
    7335       7    7344    7341       6    7347    7341       6    7347    7344
       7    7353    7350       6    7356    7350       6    7356    7353       7
    7362    7359       6    7365    7359       6    7365    7362       7    7371
    7368       6    7374    7368       6    7374    7371       7    7380    7377
       6    7383    7377       6    7383    7380       7    7389    7386       6
    7392    7386       6    7392    7389       7    7398    7395       6    7401
    7395       6    7401    7398       7    7407    7404       6    7410    7404
       6    7410    7407       7    7416    7413       6    7419    7413       6
    7419    7416       7    7425    7422       6    7428    7422       6    7428
    7425       7    7434    7431       6    7437    7431       6    7437    7434
       7    7443    7440       6    7446    7440       6    7446    7443       7
    7452    7449       6    7455    7449       6    7455    7452       7    7461
    7458       6    7464    7458       6    7464    7461       7    7470    7467
       6    7473    7467       6    7473    7470       7    7479    7476       6
    7482    7476       6    7482    7479       7    7488    7485       6    7491
    7485       6    7491    7488       7    7497    7494       6    7500    7494
       6    7500    7497       7    7506    7503       6    7509    7503       6
    7509    7506       7    7515    7512       6    7518    7512       6    7518
    7515       7    7524    7521       6    7527    7521       6    7527    7524
       7    7533    7530       6    7536    7530       6    7536    7533       7
    7542    7539       6    7545    7539       6    7545    7542       7    7551
    7548       6    7554    7548       6    7554    7551       7    7560    7557
       6    7563    7557       6    7563    7560       7    7569    7566       6
    7572    7566       6    7572    7569       7    7578    7575       6    7581
    7575       6    7581    7578       7    7587    7584       6    7590    7584
       6    7590    7587       7    7596    7593       6    7599    7593       6
    7599    7596       7    7605    7602       6    7608    7602       6    7608
    7605       7    7614    7611       6    7617    7611       6    7617    7614
       7    7623    7620       6    7626    7620       6    7626    7623       7
    7632    7629       6    7635    7629       6    7635    7632       7    7641
    7638       6    7644    7638       6    7644    7641       7    7650    7647
       6    7653    7647       6    7653    7650       7    7659    7656       6
    7662    7656       6    7662    7659       7    7668    7665       6    7671
    7665       6    7671    7668       7    7677    7674       6    7680    7674
       6    7680    7677       7    7686    7683       6    7689    7683       6
    7689    7686       7    7695    7692       6    7698    7692       6    7698
    7695       7    7704    7701       6    7707    7701       6    7707    7704
       7    7713    7710       6    7716    7710       6    7716    7713       7
    7722    7719       6    7725    7719       6    7725    7722       7    7731
    7728       6    7734    7728       6    7734    7731       7    7740    7737
       6    7743    7737       6    7743    7740       7    7749    7746       6
    7752    7746       6    7752    7749       7    7758    7755       6    7761
    7755       6    7761    7758       7    7767    7764       6    7770    7764
       6    7770    7767       7    7776    7773       6    7779    7773       6
    7779    7776       7    7785    7782       6    7788    7782       6    7788
    7785       7    7794    7791       6    7797    7791       6    7797    7794
       7    7803    7800       6    7806    7800       6    7806    7803       7
    7812    7809       6    7815    7809       6    7815    7812       7    7821
    7818       6    7824    7818       6    7824    7821       7    7830    7827
       6    7833    7827       6    7833    7830       7    7839    7836       6
    7842    7836       6    7842    7839       7    7848    7845       6    7851
    7845       6    7851    7848       7    7857    7854       6    7860    7854
       6    7860    7857       7    7866    7863       6    7869    7863       6
    7869    7866       7    7875    7872       6    7878    7872       6    7878
    7875       7    7884    7881       6    7887    7881       6    7887    7884
       7    7893    7890       6    7896    7890       6    7896    7893       7
    7902    7899       6    7905    7899       6    7905    7902       7    7911
    7908       6    7914    7908       6    7914    7911       7    7920    7917
       6    7923    7917       6    7923    7920       7    7929    7926       6
    7932    7926       6    7932    7929       7    7938    7935       6    7941
    7935       6    7941    7938       7    7947    7944       6    7950    7944
       6    7950    7947       7    7956    7953       6    7959    7953       6
    7959    7956       7    7965    7962       6    7968    7962       6    7968
    7965       7    7974    7971       6    7977    7971       6    7977    7974
       7    7983    7980       6    7986    7980       6    7986    7983       7
    7992    7989       6    7995    7989       6    7995    7992       7    8001
    7998       6    8004    7998       6    8004    8001       7    8010    8007
       6    8013    8007       6    8013    8010       7    8019    8016       6
    8022    8016       6    8022    8019       7    8028    8025       6    8031
    8025       6    8031    8028       7    8037    8034       6    8040    8034
       6    8040    8037       7    8046    8043       6    8049    8043       6
    8049    8046       7    8055    8052       6    8058    8052       6    8058
    8055       7    8064    8061       6    8067    8061       6    8067    8064
       7    8073    8070       6    8076    8070       6    8076    8073       7
    8082    8079       6    8085    8079       6    8085    8082       7    8091
    8088       6    8094    8088       6    8094    8091       7    8100    8097
       6    8103    8097       6    8103    8100       7    8109    8106       6
    8112    8106       6    8112    8109       7    8118    8115       6    8121
    8115       6    8121    8118       7    8127    8124       6    8130    8124
       6    8130    8127       7    8136    8133       6    8139    8133       6
    8139    8136       7    8145    8142       6    8148    8142       6    8148
    8145       7    8154    8151       6    8157    8151       6    8157    8154
       7    8163    8160       6    8166    8160       6    8166    8163       7
    8172    8169       6    8175    8169       6    8175    8172       7    8181
    8178       6    8184    8178       6    8184    8181       7    8190    8187
       6    8193    8187       6    8193    8190       7    8199    8196       6
    8202    8196       6    8202    8199       7    8208    8205       6    8211
    8205       6    8211    8208       7    8217    8214       6    8220    8214
       6    8220    8217       7    8226    8223       6    8229    8223       6
    8229    8226       7    8235    8232       6    8238    8232       6    8238
    8235       7    8244    8241       6    8247    8241       6    8247    8244
       7    8253    8250       6    8256    8250       6    8256    8253       7
    8262    8259       6    8265    8259       6    8265    8262       7    8271
    8268       6    8274    8268       6    8274    8271       7    8280    8277
       6    8283    8277       6    8283    8280       7    8289    8286       6
    8292    8286       6    8292    8289       7    8298    8295       6    8301
    8295       6    8301    8298       7    8307    8304       6    8310    8304
       6    8310    8307       7    8316    8313       6    8319    8313       6
    8319    8316       7    8325    8322       6    8328    8322       6    8328
    8325       7    8334    8331       6    8337    8331       6    8337    8334
       7    8343    8340       6    8346    8340       6    8346    8343       7
    8352    8349       6    8355    8349       6    8355    8352       7    8361
    8358       6    8364    8358       6    8364    8361       7    8370    8367
       6    8373    8367       6    8373    8370       7    8379    8376       6
    8382    8376       6    8382    8379       7    8388    8385       6    8391
    8385       6    8391    8388       7    8397    8394       6    8400    8394
       6    8400    8397       7    8406    8403       6    8409    8403       6
    8409    8406       7    8415    8412       6    8418    8412       6    8418
    8415       7    8424    8421       6    8427    8421       6    8427    8424
       7    8433    8430       6    8436    8430       6    8436    8433       7
    8442    8439       6    8445    8439       6    8445    8442       7    8451
    8448       6    8454    8448       6    8454    8451       7    8460    8457
       6    8463    8457       6    8463    8460       7    8469    8466       6
    8472    8466       6    8472    8469       7    8478    8475       6    8481
    8475       6    8481    8478       7    8487    8484       6    8490    8484
       6    8490    8487       7    8496    8493       6    8499    8493       6
    8499    8496       7    8505    8502       6    8508    8502       6    8508
    8505       7    8514    8511       6    8517    8511       6    8517    8514
       7    8523    8520       6    8526    8520       6    8526    8523       7
    8532    8529       6    8535    8529       6    8535    8532       7    8541
    8538       6    8544    8538       6    8544    8541       7    8550    8547
       6    8553    8547       6    8553    8550       7    8559    8556       6
    8562    8556       6    8562    8559       7    8568    8565       6    8571
    8565       6    8571    8568       7    8577    8574       6    8580    8574
       6    8580    8577       7    8586    8583       6    8589    8583       6
    8589    8586       7    8595    8592       6    8598    8592       6    8598
    8595       7    8604    8601       6    8607    8601       6    8607    8604
       7    8613    8610       6    8616    8610       6    8616    8613       7
    8622    8619       6    8625    8619       6    8625    8622       7    8631
    8628       6    8634    8628       6    8634    8631       7    8640    8637
       6    8643    8637       6    8643    8640       7    8649    8646       6
    8652    8646       6    8652    8649       7    8658    8655       6    8661
    8655       6    8661    8658       7    8667    8664       6    8670    8664
       6    8670    8667       7    8676    8673       6    8679    8673       6
    8679    8676       7    8685    8682       6    8688    8682       6    8688
    8685       7    8694    8691       6    8697    8691       6    8697    8694
       7    8703    8700       6    8706    8700       6    8706    8703       7
    8712    8709       6    8715    8709       6    8715    8712       7    8721
    8718       6    8724    8718       6    8724    8721       7    8730    8727
       6    8733    8727       6    8733    8730       7    8739    8736       6
    8742    8736       6    8742    8739       7    8748    8745       6    8751
    8745       6    8751    8748       7    8757    8754       6    8760    8754
       6    8760    8757       7    8766    8763       6    8769    8763       6
    8769    8766       7    8775    8772       6    8778    8772       6    8778
    8775       7    8784    8781       6    8787    8781       6    8787    8784
       7    8793    8790       6    8796    8790       6    8796    8793       7
    8802    8799       6    8805    8799       6    8805    8802       7    8811
    8808       6    8814    8808       6    8814    8811       7    8820    8817
       6    8823    8817       6    8823    8820       7    8829    8826       6
    8832    8826       6    8832    8829       7    8838    8835       6    8841
    8835       6    8841    8838       7    8847    8844       6    8850    8844
       6    8850    8847       7    8856    8853       6    8859    8853       6
    8859    8856       7    8865    8862       6    8868    8862       6    8868
    8865       7    8874    8871       6    8877    8871       6    8877    8874
       7    8883    8880       6    8886    8880       6    8886    8883       7
    8892    8889       6    8895    8889       6    8895    8892       7    8901
    8898       6    8904    8898       6    8904    8901       7    8910    8907
       6    8913    8907       6    8913    8910       7    8919    8916       6
    8922    8916       6    8922    8919       7    8928    8925       6    8931
    8925       6    8931    8928       7    8937    8934       6    8940    8934
       6    8940    8937       7    8946    8943       6    8949    8943       6
    8949    8946       7    8955    8952       6    8958    8952       6    8958
    8955       7    8964    8961       6    8967    8961       6    8967    8964
       7    8973    8970       6    8976    8970       6    8976    8973       7
    8982    8979       6    8985    8979       6    8985    8982       7    8991
    8988       6    8994    8988       6    8994    8991       7    9000    8997
       6    9003    8997       6    9003    9000       7    9009    9006       6
    9012    9006       6    9012    9009       7    9018    9015       6    9021
    9015       6    9021    9018       7    9027    9024       6    9030    9024
       6    9030    9027       7    9036    9033       6    9039    9033       6
    9039    9036       7    9045    9042       6    9048    9042       6    9048
    9045       7    9054    9051       6    9057    9051       6    9057    9054
       7    9063    9060       6    9066    9060       6    9066    9063       7
    9072    9069       6    9075    9069       6    9075    9072       7    9081
    9078       6    9084    9078       6    9084    9081       7    9090    9087
       6    9093    9087       6    9093    9090       7    9099    9096       6
    9102    9096       6    9102    9099       7    9108    9105       6    9111
    9105       6    9111    9108       7    9117    9114       6    9120    9114
       6    9120    9117       7    9126    9123       6    9129    9123       6
    9129    9126       7    9135    9132       6    9138    9132       6    9138
    9135       7    9144    9141       6    9147    9141       6    9147    9144
       7    9153    9150       6    9156    9150       6    9156    9153       7
    9162    9159       6    9165    9159       6    9165    9162       7    9171
    9168       6    9174    9168       6    9174    9171       7    9180    9177
       6    9183    9177       6    9183    9180       7    9189    9186       6
    9192    9186       6    9192    9189       7    9198    9195       6    9201
    9195       6    9201    9198       7    9207    9204       6    9210    9204
       6    9210    9207       7    9216    9213       6    9219    9213       6
    9219    9216       7    9225    9222       6    9228    9222       6    9228
    9225       7    9234    9231       6    9237    9231       6    9237    9234
       7    9243    9240       6    9246    9240       6    9246    9243       7
    9252    9249       6    9255    9249       6    9255    9252       7    9261
    9258       6    9264    9258       6    9264    9261       7    9270    9267
       6    9273    9267       6    9273    9270       7    9279    9276       6
    9282    9276       6    9282    9279       7    9288    9285       6    9291
    9285       6    9291    9288       7    9297    9294       6    9300    9294
       6    9300    9297       7    9306    9303       6    9309    9303       6
    9309    9306       7    9315    9312       6    9318    9312       6    9318
    9315       7    9324    9321       6    9327    9321       6    9327    9324
       7    9333    9330       6    9336    9330       6    9336    9333       7
    9342    9339       6    9345    9339       6    9345    9342       7    9351
    9348       6    9354    9348       6    9354    9351       7    9360    9357
       6    9363    9357       6    9363    9360       7    9369    9366       6
    9372    9366       6    9372    9369       7    9378    9375       6    9381
    9375       6    9381    9378       7    9387    9384       6    9390    9384
       6    9390    9387       7    9396    9393       6    9399    9393       6
    9399    9396       7    9405    9402       6    9408    9402       6    9408
    9405       7    9414    9411       6    9417    9411       6    9417    9414
       7    9423    9420       6    9426    9420       6    9426    9423       7
    9432    9429       6    9435    9429       6    9435    9432       7    9441
    9438       6    9444    9438       6    9444    9441       7    9450    9447
       6    9453    9447       6    9453    9450       7    9459    9456       6
    9462    9456       6    9462    9459       7    9468    9465       6    9471
    9465       6    9471    9468       7    9477    9474       6    9480    9474
       6    9480    9477       7    9486    9483       6    9489    9483       6
    9489    9486       7    9495    9492       6    9498    9492       6    9498
    9495       7    9504    9501       6    9507    9501       6    9507    9504
       7    9513    9510       6    9516    9510       6    9516    9513       7
    9522    9519       6    9525    9519       6    9525    9522       7    9531
    9528       6    9534    9528       6    9534    9531       7    9540    9537
       6    9543    9537       6    9543    9540       7    9549    9546       6
    9552    9546       6    9552    9549       7    9558    9555       6    9561
    9555       6    9561    9558       7    9567    9564       6    9570    9564
       6    9570    9567       7    9576    9573       6    9579    9573       6
    9579    9576       7    9585    9582       6    9588    9582       6    9588
    9585       7    9594    9591       6    9597    9591       6    9597    9594
       7    9603    9600       6    9606    9600       6    9606    9603       7
    9612    9609       6    9615    9609       6    9615    9612       7    9621
    9618       6    9624    9618       6    9624    9621       7    9630    9627
       6    9633    9627       6    9633    9630       7    9639    9636       6
    9642    9636       6    9642    9639       7    9648    9645       6    9651
    9645       6    9651    9648       7    9657    9654       6    9660    9654
       6    9660    9657       7    9666    9663       6    9669    9663       6
    9669    9666       7    9675    9672       6    9678    9672       6    9678
    9675       7    9684    9681       6    9687    9681       6    9687    9684
       7    9693    9690       6    9696    9690       6    9696    9693       7
    9702    9699       6    9705    9699       6    9705    9702       7    9711
    9708       6    9714    9708       6    9714    9711       7    9720    9717
       6    9723    9717       6    9723    9720       7    9729    9726       6
    9732    9726       6    9732    9729       7    9738    9735       6    9741
    9735       6    9741    9738       7    9747    9744       6    9750    9744
       6    9750    9747       7    9756    9753       6    9759    9753       6
    9759    9756       7    9765    9762       6    9768    9762       6    9768
    9765       7    9774    9771       6    9777    9771       6    9777    9774
       7    9783    9780       6    9786    9780       6    9786    9783       7
    9792    9789       6    9795    9789       6    9795    9792       7    9801
    9798       6    9804    9798       6    9804    9801       7    9810    9807
       6    9813    9807       6    9813    9810       7    9819    9816       6
    9822    9816       6    9822    9819       7    9828    9825       6    9831
    9825       6    9831    9828       7    9837    9834       6    9840    9834
       6    9840    9837       7    9846    9843       6    9849    9843       6
    9849    9846       7    9855    9852       6    9858    9852       6    9858
    9855       7    9864    9861       6    9867    9861       6    9867    9864
       7    9873    9870       6    9876    9870       6    9876    9873       7
    9882    9879       6    9885    9879       6    9885    9882       7    9891
    9888       6    9894    9888       6    9894    9891       7    9900    9897
       6    9903    9897       6    9903    9900       7    9909    9906       6
    9912    9906       6    9912    9909       7    9918    9915       6    9921
    9915       6    9921    9918       7    9927    9924       6    9930    9924
       6    9930    9927       7    9936    9933       6    9939    9933       6
    9939    9936       7    9945    9942       6    9948    9942       6    9948
    9945       7    9954    9951       6    9957    9951       6    9957    9954
       7    9963    9960       6    9966    9960       6    9966    9963       7
    9972    9969       6    9975    9969       6    9975    9972       7    9981
    9978       6    9984    9978       6    9984    9981       7    9990    9987
       6    9993    9987       6    9993    9990       7    9999    9996       6
   10002    9996       6   10002    9999       7   10008   10005       6   10011
   10005       6   10011   10008       7   10017   10014       6   10020   10014
       6   10020   10017       7   10026   10023       6   10029   10023       6
   10029   10026       7   10035   10032       6   10038   10032       6   10038
   10035       7   10044   10041       6   10047   10041       6   10047   10044
       7   10053   10050       6   10056   10050       6   10056   10053       7
   10062   10059       6   10065   10059       6   10065   10062       7   10071
   10068       6   10074   10068       6   10074   10071       7   10080   10077
       6   10083   10077       6   10083   10080       7   10089   10086       6
   10092   10086       6   10092   10089       7   10098   10095       6   10101
   10095       6   10101   10098       7   10107   10104       6   10110   10104
       6   10110   10107       7   10116   10113       6   10119   10113       6
   10119   10116       7   10125   10122       6   10128   10122       6   10128
   10125       7   10134   10131       6   10137   10131       6   10137   10134
       7   10143   10140       6   10146   10140       6   10146   10143       7
   10152   10149       6   10155   10149       6   10155   10152       7   10161
   10158       6   10164   10158       6   10164   10161       7   10170   10167
       6   10173   10167       6   10173   10170       7   10179   10176       6
   10182   10176       6   10182   10179       7   10188   10185       6   10191
   10185       6   10191   10188       7   10197   10194       6   10200   10194
       6   10200   10197       7   10206   10203       6   10209   10203       6
   10209   10206       7   10215   10212       6   10218   10212       6   10218
   10215       7   10224   10221       6   10227   10221       6   10227   10224
       7   10233   10230       6   10236   10230       6   10236   10233       7
   10242   10239       6   10245   10239       6   10245   10242       7   10251
   10248       6   10254   10248       6   10254   10251       7   10260   10257
       6   10263   10257       6   10263   10260       7   10269   10266       6
   10272   10266       6   10272   10269       7   10278   10275       6   10281
   10275       6   10281   10278       7   10287   10284       6   10290   10284
       6   10290   10287       7   10296   10293       6   10299   10293       6
   10299   10296       7   10305   10302       6   10308   10302       6   10308
   10305       7   10314   10311       6   10317   10311       6   10317   10314
       7   10323   10320       6   10326   10320       6   10326   10323       7
   10332   10329       6   10335   10329       6   10335   10332       7   10341
   10338       6   10344   10338       6   10344   10341       7   10350   10347
       6   10353   10347       6   10353   10350       7   10359   10356       6
   10362   10356       6   10362   10359       7   10368   10365       6   10371
   10365       6   10371   10368       7   10377   10374       6   10380   10374
       6   10380   10377       7   10386   10383       6   10389   10383       6
   10389   10386       7   10395   10392       6   10398   10392       6   10398
   10395       7   10404   10401       6   10407   10401       6   10407   10404
       7   10413   10410       6   10416   10410       6   10416   10413       7
   10422   10419       6   10425   10419       6   10425   10422       7   10431
   10428       6   10434   10428       6   10434   10431       7   10440   10437
       6   10443   10437       6   10443   10440       7   10449   10446       6
   10452   10446       6   10452   10449       7   10458   10455       6   10461
   10455       6   10461   10458       7   10467   10464       6   10470   10464
       6   10470   10467       7   10476   10473       6   10479   10473       6
   10479   10476       7   10485   10482       6   10488   10482       6   10488
   10485       7   10494   10491       6   10497   10491       6   10497   10494
       7   10503   10500       6   10506   10500       6   10506   10503       7
   10512   10509       6   10515   10509       6   10515   10512       7   10521
   10518       6   10524   10518       6   10524   10521       7   10530   10527
       6   10533   10527       6   10533   10530       7   10539   10536       6
   10542   10536       6   10542   10539       7   10548   10545       6   10551
   10545       6   10551   10548       7   10557   10554       6   10560   10554
       6   10560   10557       7   10566   10563       6   10569   10563       6
   10569   10566       7   10575   10572       6   10578   10572       6   10578
   10575       7   10584   10581       6   10587   10581       6   10587   10584
       7   10593   10590       6   10596   10590       6   10596   10593       7
   10602   10599       6   10605   10599       6   10605   10602       7   10611
   10608       6   10614   10608       6   10614   10611       7   10620   10617
       6   10623   10617       6   10623   10620       7   10629   10626       6
   10632   10626       6   10632   10629       7   10638   10635       6   10641
   10635       6   10641   10638       7   10647   10644       6   10650   10644
       6   10650   10647       7   10656   10653       6   10659   10653       6
   10659   10656       7   10665   10662       6   10668   10662       6   10668
   10665       7   10674   10671       6   10677   10671       6   10677   10674
       7   10683   10680       6   10686   10680       6   10686   10683       7
   10692   10689       6   10695   10689       6   10695   10692       7   10701
   10698       6   10704   10698       6   10704   10701       7   10710   10707
       6   10713   10707       6   10713   10710       7   10719   10716       6
   10722   10716       6   10722   10719       7   10728   10725       6   10731
   10725       6   10731   10728       7   10737   10734       6   10740   10734
       6   10740   10737       7   10746   10743       6   10749   10743       6
   10749   10746       7   10755   10752       6   10758   10752       6   10758
   10755       7   10764   10761       6   10767   10761       6   10767   10764
       7   10773   10770       6   10776   10770       6   10776   10773       7
   10782   10779       6   10785   10779       6   10785   10782       7   10791
   10788       6   10794   10788       6   10794   10791       7   10800   10797
       6   10803   10797       6   10803   10800       7   10809   10806       6
   10812   10806       6   10812   10809       7   10818   10815       6   10821
   10815       6   10821   10818       7   10827   10824       6   10830   10824
       6   10830   10827       7   10836   10833       6   10839   10833       6
   10839   10836       7   10845   10842       6   10848   10842       6   10848
   10845       7   10854   10851       6   10857   10851       6   10857   10854
       7   10863   10860       6   10866   10860       6   10866   10863       7
   10872   10869       6   10875   10869       6   10875   10872       7   10881
   10878       6   10884   10878       6   10884   10881       7   10890   10887
       6   10893   10887       6   10893   10890       7   10899   10896       6
   10902   10896       6   10902   10899       7   10908   10905       6   10911
   10905       6   10911   10908       7   10917   10914       6   10920   10914
       6   10920   10917       7   10926   10923       6   10929   10923       6
   10929   10926       7   10935   10932       6   10938   10932       6   10938
   10935       7   10944   10941       6   10947   10941       6   10947   10944
       7   10953   10950       6   10956   10950       6   10956   10953       7
   10962   10959       6   10965   10959       6   10965   10962       7   10971
   10968       6   10974   10968       6   10974   10971       7   10980   10977
       6   10983   10977       6   10983   10980       7   10989   10986       6
   10992   10986       6   10992   10989       7   10998   10995       6   11001
   10995       6   11001   10998       7   11007   11004       6   11010   11004
       6   11010   11007       7   11016   11013       6   11019   11013       6
   11019   11016       7   11025   11022       6   11028   11022       6   11028
   11025       7   11034   11031       6   11037   11031       6   11037   11034
       7   11043   11040       6   11046   11040       6   11046   11043       7
   11052   11049       6   11055   11049       6   11055   11052       7   11061
   11058       6   11064   11058       6   11064   11061       7   11070   11067
       6   11073   11067       6   11073   11070       7   11079   11076       6
   11082   11076       6   11082   11079       7   11088   11085       6   11091
   11085       6   11091   11088       7   11097   11094       6   11100   11094
       6   11100   11097       7   11106   11103       6   11109   11103       6
   11109   11106       7   11115   11112       6   11118   11112       6   11118
   11115       7   11124   11121       6   11127   11121       6   11127   11124
       7   11133   11130       6   11136   11130       6   11136   11133       7
   11142   11139       6   11145   11139       6   11145   11142       7   11151
   11148       6   11154   11148       6   11154   11151       7   11160   11157
       6   11163   11157       6   11163   11160       7   11169   11166       6
   11172   11166       6   11172   11169       7   11178   11175       6   11181
   11175       6   11181   11178       7   11187   11184       6   11190   11184
       6   11190   11187       7   11196   11193       6   11199   11193       6
   11199   11196       7   11205   11202       6   11208   11202       6   11208
   11205       7   11214   11211       6   11217   11211       6   11217   11214
       7   11223   11220       6   11226   11220       6   11226   11223       7
   11232   11229       6   11235   11229       6   11235   11232       7   11241
   11238       6   11244   11238       6   11244   11241       7   11250   11247
       6   11253   11247       6   11253   11250       7   11259   11256       6
   11262   11256       6   11262   11259       7   11268   11265       6   11271
   11265       6   11271   11268       7   11277   11274       6   11280   11274
       6   11280   11277       7   11286   11283       6   11289   11283       6
   11289   11286       7   11295   11292       6   11298   11292       6   11298
   11295       7   11304   11301       6   11307   11301       6   11307   11304
       7   11313   11310       6   11316   11310       6   11316   11313       7
   11322   11319       6   11325   11319       6   11325   11322       7   11331
   11328       6   11334   11328       6   11334   11331       7   11340   11337
       6   11343   11337       6   11343   11340       7   11349   11346       6
   11352   11346       6   11352   11349       7   11358   11355       6   11361
   11355       6   11361   11358       7   11367   11364       6   11370   11364
       6   11370   11367       7   11376   11373       6   11379   11373       6
   11379   11376       7   11385   11382       6   11388   11382       6   11388
   11385       7   11394   11391       6   11397   11391       6   11397   11394
       7   11403   11400       6   11406   11400       6   11406   11403       7
   11412   11409       6   11415   11409       6   11415   11412       7   11421
   11418       6   11424   11418       6   11424   11421       7   11430   11427
       6   11433   11427       6   11433   11430       7   11439   11436       6
   11442   11436       6   11442   11439       7   11448   11445       6   11451
   11445       6   11451   11448       7   11457   11454       6   11460   11454
       6   11460   11457       7   11466   11463       6   11469   11463       6
   11469   11466       7   11475   11472       6   11478   11472       6   11478
   11475       7   11484   11481       6   11487   11481       6   11487   11484
       7   11493   11490       6   11496   11490       6   11496   11493       7
   11502   11499       6   11505   11499       6   11505   11502       7   11511
   11508       6   11514   11508       6   11514   11511       7   11520   11517
       6   11523   11517       6   11523   11520       7   11529   11526       6
   11532   11526       6   11532   11529       7   11538   11535       6   11541
   11535       6   11541   11538       7   11547   11544       6   11550   11544
       6   11550   11547       7   11556   11553       6   11559   11553       6
   11559   11556       7   11565   11562       6   11568   11562       6   11568
   11565       7   11574   11571       6   11577   11571       6   11577   11574
       7   11583   11580       6   11586   11580       6   11586   11583       7
   11592   11589       6   11595   11589       6   11595   11592       7   11601
   11598       6   11604   11598       6   11604   11601       7   11610   11607
       6   11613   11607       6   11613   11610       7   11619   11616       6
   11622   11616       6   11622   11619       7   11628   11625       6   11631
   11625       6   11631   11628       7   11637   11634       6   11640   11634
       6   11640   11637       7   11646   11643       6   11649   11643       6
   11649   11646       7   11655   11652       6   11658   11652       6   11658
   11655       7   11664   11661       6   11667   11661       6   11667   11664
       7   11673   11670       6   11676   11670       6   11676   11673       7
   11682   11679       6   11685   11679       6   11685   11682       7   11691
   11688       6   11694   11688       6   11694   11691       7   11700   11697
       6   11703   11697       6   11703   11700       7   11709   11706       6
   11712   11706       6   11712   11709       7   11718   11715       6   11721
   11715       6   11721   11718       7   11727   11724       6   11730   11724
       6   11730   11727       7   11736   11733       6   11739   11733       6
   11739   11736       7   11745   11742       6   11748   11742       6   11748
   11745       7   11754   11751       6   11757   11751       6   11757   11754
       7   11763   11760       6   11766   11760       6   11766   11763       7
   11772   11769       6   11775   11769       6   11775   11772       7   11781
   11778       6   11784   11778       6   11784   11781       7   11790   11787
       6   11793   11787       6   11793   11790       7   11799   11796       6
   11802   11796       6   11802   11799       7   11808   11805       6   11811
   11805       6   11811   11808       7   11817   11814       6   11820   11814
       6   11820   11817       7   11826   11823       6   11829   11823       6
   11829   11826       7   11835   11832       6   11838   11832       6   11838
   11835       7   11844   11841       6   11847   11841       6   11847   11844
       7   11853   11850       6   11856   11850       6   11856   11853       7
   11862   11859       6   11865   11859       6   11865   11862       7   11871
   11868       6   11874   11868       6   11874   11871       7   11880   11877
       6   11883   11877       6   11883   11880       7   11889   11886       6
   11892   11886       6   11892   11889       7   11898   11895       6   11901
   11895       6   11901   11898       7   11907   11904       6   11910   11904
       6   11910   11907       7   11916   11913       6   11919   11913       6
   11919   11916       7   11925   11922       6   11928   11922       6   11928
   11925       7   11934   11931       6   11937   11931       6   11937   11934
       7   11943   11940       6   11946   11940       6   11946   11943       7
   11952   11949       6   11955   11949       6   11955   11952       7   11961
   11958       6   11964   11958       6   11964   11961       7   11970   11967
       6   11973   11967       6   11973   11970       7   11979   11976       6
   11982   11976       6   11982   11979       7   11988   11985       6   11991
   11985       6   11991   11988       7   11997   11994       6   12000   11994
       6   12000   11997       7   12006   12003       6   12009   12003       6
   12009   12006       7   12015   12012       6   12018   12012       6   12018
   12015       7   12024   12021       6   12027   12021       6   12027   12024
       7   12033   12030       6   12036   12030       6   12036   12033       7
   12042   12039       6   12045   12039       6   12045   12042       7   12051
   12048       6   12054   12048       6   12054   12051       7   12060   12057
       6   12063   12057       6   12063   12060       7   12069   12066       6
   12072   12066       6   12072   12069       7   12078   12075       6   12081
   12075       6   12081   12078       7   12087   12084       6   12090   12084
       6   12090   12087       7   12096   12093       6   12099   12093       6
   12099   12096       7   12105   12102       6   12108   12102       6   12108
   12105       7   12114   12111       6   12117   12111       6   12117   12114
       7   12123   12120       6   12126   12120       6   12126   12123       7
   12132   12129       6   12135   12129       6   12135   12132       7   12141
   12138       6   12144   12138       6   12144   12141       7   12150   12147
       6   12153   12147       6   12153   12150       7   12159   12156       6
   12162   12156       6   12162   12159       7   12168   12165       6   12171
   12165       6   12171   12168       7   12177   12174       6   12180   12174
       6   12180   12177       7   12186   12183       6   12189   12183       6
   12189   12186       7   12195   12192       6   12198   12192       6   12198
   12195       7   12204   12201       6   12207   12201       6   12207   12204
       7   12213   12210       6   12216   12210       6   12216   12213       7
   12222   12219       6   12225   12219       6   12225   12222       7   12231
   12228       6   12234   12228       6   12234   12231       7   12240   12237
       6   12243   12237       6   12243   12240       7   12249   12246       6
   12252   12246       6   12252   12249       7   12258   12255       6   12261
   12255       6   12261   12258       7   12267   12264       6   12270   12264
       6   12270   12267       7   12276   12273       6   12279   12273       6
   12279   12276       7   12285   12282       6   12288   12282       6   12288
   12285       7   12294   12291       6   12297   12291       6   12297   12294
       7   12303   12300       6   12306   12300       6   12306   12303       7
   12312   12309       6   12315   12309       6   12315   12312       7   12321
   12318       6   12324   12318       6   12324   12321       7   12330   12327
       6   12333   12327       6   12333   12330       7   12339   12336       6
   12342   12336       6   12342   12339       7   12348   12345       6   12351
   12345       6   12351   12348       7   12357   12354       6   12360   12354
       6   12360   12357       7   12366   12363       6   12369   12363       6
   12369   12366       7   12375   12372       6   12378   12372       6   12378
   12375       7   12384   12381       6   12387   12381       6   12387   12384
       7   12393   12390       6   12396   12390       6   12396   12393       7
   12402   12399       6   12405   12399       6   12405   12402       7   12411
   12408       6   12414   12408       6   12414   12411       7   12420   12417
       6   12423   12417       6   12423   12420       7   12429   12426       6
   12432   12426       6   12432   12429       7   12438   12435       6   12441
   12435       6   12441   12438       7   12447   12444       6   12450   12444
       6   12450   12447       7   12456   12453       6   12459   12453       6
   12459   12456       7   12465   12462       6   12468   12462       6   12468
   12465       7   12474   12471       6   12477   12471       6   12477   12474
       7   12483   12480       6   12486   12480       6   12486   12483       7
   12492   12489       6   12495   12489       6   12495   12492       7   12501
   12498       6   12504   12498       6   12504   12501       7   12510   12507
       6   12513   12507       6   12513   12510       7   12519   12516       6
   12522   12516       6   12522   12519       7   12528   12525       6   12531
   12525       6   12531   12528       7   12537   12534       6   12540   12534
       6   12540   12537       7   12546   12543       6   12549   12543       6
   12549   12546       7   12555   12552       6   12558   12552       6   12558
   12555       7   12564   12561       6   12567   12561       6   12567   12564
       7   12573   12570       6   12576   12570       6   12576   12573       7
   12582   12579       6   12585   12579       6   12585   12582       7   12591
   12588       6   12594   12588       6   12594   12591       7   12600   12597
       6   12603   12597       6   12603   12600       7   12609   12606       6
   12612   12606       6   12612   12609       7   12618   12615       6   12621
   12615       6   12621   12618       7   12627   12624       6   12630   12624
       6   12630   12627       7   12636   12633       6   12639   12633       6
   12639   12636       7   12645   12642       6   12648   12642       6   12648
   12645       7   12654   12651       6   12657   12651       6   12657   12654
       7   12663   12660       6   12666   12660       6   12666   12663       7
   12672   12669       6   12675   12669       6   12675   12672       7   12681
   12678       6   12684   12678       6   12684   12681       7   12690   12687
       6   12693   12687       6   12693   12690       7   12699   12696       6
   12702   12696       6   12702   12699       7   12708   12705       6   12711
   12705       6   12711   12708       7   12717   12714       6   12720   12714
       6   12720   12717       7   12726   12723       6   12729   12723       6
   12729   12726       7   12735   12732       6   12738   12732       6   12738
   12735       7   12744   12741       6   12747   12741       6   12747   12744
       7   12753   12750       6   12756   12750       6   12756   12753       7
   12762   12759       6   12765   12759       6   12765   12762       7   12771
   12768       6   12774   12768       6   12774   12771       7   12780   12777
       6   12783   12777       6   12783   12780       7   12789   12786       6
   12792   12786       6   12792   12789       7   12798   12795       6   12801
   12795       6   12801   12798       7   12807   12804       6   12810   12804
       6   12810   12807       7   12816   12813       6   12819   12813       6
   12819   12816       7   12825   12822       6   12828   12822       6   12828
   12825       7   12834   12831       6   12837   12831       6   12837   12834
       7   12843   12840       6   12846   12840       6   12846   12843       7
   12852   12849       6   12855   12849       6   12855   12852       7   12861
   12858       6   12864   12858       6   12864   12861       7   12870   12867
       6   12873   12867       6   12873   12870       7   12879   12876       6
   12882   12876       6   12882   12879       7   12888   12885       6   12891
   12885       6   12891   12888       7   12897   12894       6   12900   12894
       6   12900   12897       7   12906   12903       6   12909   12903       6
   12909   12906       7   12915   12912       6   12918   12912       6   12918
   12915       7   12924   12921       6   12927   12921       6   12927   12924
       7   12933   12930       6   12936   12930       6   12936   12933       7
   12942   12939       6   12945   12939       6   12945   12942       7   12951
   12948       6   12954   12948       6   12954   12951       7   12960   12957
       6   12963   12957       6   12963   12960       7   12969   12966       6
   12972   12966       6   12972   12969       7   12978   12975       6   12981
   12975       6   12981   12978       7   12987   12984       6   12990   12984
       6   12990   12987       7   12996   12993       6   12999   12993       6
   12999   12996       7   13005   13002       6   13008   13002       6   13008
   13005       7   13014   13011       6   13017   13011       6   13017   13014
       7   13023   13020       6   13026   13020       6   13026   13023       7
   13032   13029       6   13035   13029       6   13035   13032       7   13041
   13038       6   13044   13038       6   13044   13041       7   13050   13047
       6   13053   13047       6   13053   13050       7   13059   13056       6
   13062   13056       6   13062   13059       7   13068   13065       6   13071
   13065       6   13071   13068       7   13077   13074       6   13080   13074
       6   13080   13077       7   13086   13083       6   13089   13083       6
   13089   13086       7   13095   13092       6   13098   13092       6   13098
   13095       7   13104   13101       6   13107   13101       6   13107   13104
       7   13113   13110       6   13116   13110       6   13116   13113       7
   13122   13119       6   13125   13119       6   13125   13122       7   13131
   13128       6   13134   13128       6   13134   13131       7   13140   13137
       6   13143   13137       6   13143   13140       7   13149   13146       6
   13152   13146       6   13152   13149       7   13158   13155       6   13161
   13155       6   13161   13158       7   13167   13164       6   13170   13164
       6   13170   13167       7   13176   13173       6   13179   13173       6
   13179   13176       7   13185   13182       6   13188   13182       6   13188
   13185       7   13194   13191       6   13197   13191       6   13197   13194
       7   13203   13200       6   13206   13200       6   13206   13203       7
   13212   13209       6   13215   13209       6   13215   13212       7   13221
   13218       6   13224   13218       6   13224   13221       7   13230   13227
       6   13233   13227       6   13233   13230       7   13239   13236       6
   13242   13236       6   13242   13239       7   13248   13245       6   13251
   13245       6   13251   13248       7   13257   13254       6   13260   13254
       6   13260   13257       7   13266   13263       6   13269   13263       6
   13269   13266       7   13275   13272       6   13278   13272       6   13278
   13275       7   13284   13281       6   13287   13281       6   13287   13284
       7   13293   13290       6   13296   13290       6   13296   13293       7
   13302   13299       6   13305   13299       6   13305   13302       7   13311
   13308       6   13314   13308       6   13314   13311       7   13320   13317
       6   13323   13317       6   13323   13320       7   13329   13326       6
   13332   13326       6   13332   13329       7   13338   13335       6   13341
   13335       6   13341   13338       7   13347   13344       6   13350   13344
       6   13350   13347       7   13356   13353       6   13359   13353       6
   13359   13356       7   13365   13362       6   13368   13362       6   13368
   13365       7   13374   13371       6   13377   13371       6   13377   13374
       7   13383   13380       6   13386   13380       6   13386   13383       7
   13392   13389       6   13395   13389       6   13395   13392       7   13401
   13398       6   13404   13398       6   13404   13401       7   13410   13407
       6   13413   13407       6   13413   13410       7   13419   13416       6
   13422   13416       6   13422   13419       7   13428   13425       6   13431
   13425       6   13431   13428       7   13437   13434       6   13440   13434
       6   13440   13437       7   13446   13443       6   13449   13443       6
   13449   13446       7   13455   13452       6   13458   13452       6   13458
   13455       7   13464   13461       6   13467   13461       6   13467   13464
       7   13473   13470       6   13476   13470       6   13476   13473       7
   13482   13479       6   13485   13479       6   13485   13482       7   13491
   13488       6   13494   13488       6   13494   13491       7   13500   13497
       6   13503   13497       6   13503   13500       7   13509   13506       6
   13512   13506       6   13512   13509       7   13518   13515       6   13521
   13515       6   13521   13518       7   13527   13524       6   13530   13524
       6   13530   13527       7   13536   13533       6   13539   13533       6
   13539   13536       7   13545   13542       6   13548   13542       6   13548
   13545       7   13554   13551       6   13557   13551       6   13557   13554
       7   13563   13560       6   13566   13560       6   13566   13563       7
   13572   13569       6   13575   13569       6   13575   13572       7   13581
   13578       6   13584   13578       6   13584   13581       7   13590   13587
       6   13593   13587       6   13593   13590       7   13599   13596       6
   13602   13596       6   13602   13599       7   13608   13605       6   13611
   13605       6   13611   13608       7   13617   13614       6   13620   13614
       6   13620   13617       7   13626   13623       6   13629   13623       6
   13629   13626       7   13635   13632       6   13638   13632       6   13638
   13635       7   13644   13641       6   13647   13641       6   13647   13644
       7   13653   13650       6   13656   13650       6   13656   13653       7
   13662   13659       6   13665   13659       6   13665   13662       7   13671
   13668       6   13674   13668       6   13674   13671       7   13680   13677
       6   13683   13677       6   13683   13680       7   13689   13686       6
   13692   13686       6   13692   13689       7   13698   13695       6   13701
   13695       6   13701   13698       7   13707   13704       6   13710   13704
       6   13710   13707       7   13716   13713       6   13719   13713       6
   13719   13716       7   13725   13722       6   13728   13722       6   13728
   13725       7   13734   13731       6   13737   13731       6   13737   13734
       7   13743   13740       6   13746   13740       6   13746   13743       7
   13752   13749       6   13755   13749       6   13755   13752       7   13761
   13758       6   13764   13758       6   13764   13761       7   13770   13767
       6   13773   13767       6   13773   13770       7   13779   13776       6
   13782   13776       6   13782   13779       7   13788   13785       6   13791
   13785       6   13791   13788       7   13797   13794       6   13800   13794
       6   13800   13797       7   13806   13803       6   13809   13803       6
   13809   13806       7   13815   13812       6   13818   13812       6   13818
   13815       7   13824   13821       6   13827   13821       6   13827   13824
       7   13833   13830       6   13836   13830       6   13836   13833       7
   13842   13839       6   13845   13839       6   13845   13842       7   13851
   13848       6   13854   13848       6   13854   13851       7   13860   13857
       6   13863   13857       6   13863   13860       7   13869   13866       6
   13872   13866       6   13872   13869       7   13878   13875       6   13881
   13875       6   13881   13878       7   13887   13884       6   13890   13884
       6   13890   13887       7   13896   13893       6   13899   13893       6
   13899   13896       7   13905   13902       6   13908   13902       6   13908
   13905       7   13914   13911       6   13917   13911       6   13917   13914
       7   13923   13920       6   13926   13920       6   13926   13923       7
   13932   13929       6   13935   13929       6   13935   13932       7   13941
   13938       6   13944   13938       6   13944   13941       7   13950   13947
       6   13953   13947       6   13953   13950       7   13959   13956       6
   13962   13956       6   13962   13959       7   13968   13965       6   13971
   13965       6   13971   13968       7   13977   13974       6   13980   13974
       6   13980   13977       7   13986   13983       6   13989   13983       6
   13989   13986       7   13995   13992       6   13998   13992       6   13998
   13995       7   14004   14001       6   14007   14001       6   14007   14004
       7   14013   14010       6   14016   14010       6   14016   14013       7
   14022   14019       6   14025   14019       6   14025   14022       7   14031
   14028       6   14034   14028       6   14034   14031       7   14040   14037
       6   14043   14037       6   14043   14040       7   14049   14046       6
   14052   14046       6   14052   14049       7   14058   14055       6   14061
   14055       6   14061   14058       7   14067   14064       6   14070   14064
       6   14070   14067       7   14076   14073       6   14079   14073       6
   14079   14076       7   14085   14082       6   14088   14082       6   14088
   14085       7   14094   14091       6   14097   14091       6   14097   14094
       7   14103   14100       6   14106   14100       6   14106   14103       7
   14112   14109       6   14115   14109       6   14115   14112       7   14121
   14118       6   14124   14118       6   14124   14121       7   14130   14127
       6   14133   14127       6   14133   14130       7   14139   14136       6
   14142   14136       6   14142   14139       7   14148   14145       6   14151
   14145       6   14151   14148       7   14157   14154       6   14160   14154
       6   14160   14157       7   14166   14163       6   14169   14163       6
   14169   14166       7   14175   14172       6   14178   14172       6   14178
   14175       7   14184   14181       6   14187   14181       6   14187   14184
       7   14193   14190       6   14196   14190       6   14196   14193       7
   14202   14199       6   14205   14199       6   14205   14202       7   14211
   14208       6   14214   14208       6   14214   14211       7   14220   14217
       6   14223   14217       6   14223   14220       7   14229   14226       6
   14232   14226       6   14232   14229       7   14238   14235       6   14241
   14235       6   14241   14238       7   14247   14244       6   14250   14244
       6   14250   14247       7   14256   14253       6   14259   14253       6
   14259   14256       7   14265   14262       6   14268   14262       6   14268
   14265       7   14274   14271       6   14277   14271       6   14277   14274
       7   14283   14280       6   14286   14280       6   14286   14283       7
   14292   14289       6   14295   14289       6   14295   14292       7   14301
   14298       6   14304   14298       6   14304   14301       7   14310   14307
       6   14313   14307       6   14313   14310       7   14319   14316       6
   14322   14316       6   14322   14319       7   14328   14325       6   14331
   14325       6   14331   14328       7   14337   14334       6   14340   14334
       6   14340   14337       7   14346   14343       6   14349   14343       6
   14349   14346       7   14355   14352       6   14358   14352       6   14358
   14355       7   14364   14361       6   14367   14361       6   14367   14364
       7   14373   14370       6   14376   14370       6   14376   14373       7
   14382   14379       6   14385   14379       6   14385   14382       7   14391
   14388       6   14394   14388       6   14394   14391       7   14400   14397
       6   14403   14397       6   14403   14400       7   14409   14406       6
   14412   14406       6   14412   14409       7   14418   14415       6   14421
   14415       6   14421   14418       7   14427   14424       6   14430   14424
       6   14430   14427       7   14436   14433       6   14439   14433       6
   14439   14436       7   14445   14442       6   14448   14442       6   14448
   14445       7   14454   14451       6   14457   14451       6   14457   14454
       7   14463   14460       6   14466   14460       6   14466   14463       7
   14472   14469       6   14475   14469       6   14475   14472       7   14481
   14478       6   14484   14478       6   14484   14481       7   14490   14487
       6   14493   14487       6   14493   14490       7   14499   14496       6
   14502   14496       6   14502   14499       7   14508   14505       6   14511
   14505       6   14511   14508       7   14517   14514       6   14520   14514
       6   14520   14517       7   14526   14523       6   14529   14523       6
   14529   14526       7   14535   14532       6   14538   14532       6   14538
   14535       7   14544   14541       6   14547   14541       6   14547   14544
       7   14553   14550       6   14556   14550       6   14556   14553       7
   14562   14559       6   14565   14559       6   14565   14562       7   14571
   14568       6   14574   14568       6   14574   14571       7   14580   14577
       6   14583   14577       6   14583   14580       7   14589   14586       6
   14592   14586       6   14592   14589       7   14598   14595       6   14601
   14595       6   14601   14598       7   14607   14604       6   14610   14604
       6   14610   14607       7   14616   14613       6   14619   14613       6
   14619   14616       7   14625   14622       6   14628   14622       6   14628
   14625       7   14634   14631       6   14637   14631       6   14637   14634
       7   14643   14640       6   14646   14640       6   14646   14643       7
   14652   14649       6   14655   14649       6   14655   14652       7   14661
   14658       6   14664   14658       6   14664   14661       7   14670   14667
       6   14673   14667       6   14673   14670       7   14679   14676       6
   14682   14676       6   14682   14679       7   14688   14685       6   14691
   14685       6   14691   14688       7   14697   14694       6   14700   14694
       6   14700   14697       7   14706   14703       6   14709   14703       6
   14709   14706       7   14715   14712       6   14718   14712       6   14718
   14715       7   14724   14721       6   14727   14721       6   14727   14724
       7   14733   14730       6   14736   14730       6   14736   14733       7
   14742   14739       6   14745   14739       6   14745   14742       7   14751
   14748       6   14754   14748       6   14754   14751       7   14760   14757
       6   14763   14757       6   14763   14760       7   14769   14766       6
   14772   14766       6   14772   14769       7   14778   14775       6   14781
   14775       6   14781   14778       7   14787   14784       6   14790   14784
       6   14790   14787       7   14796   14793       6   14799   14793       6
   14799   14796       7   14805   14802       6   14808   14802       6   14808
   14805       7   14814   14811       6   14817   14811       6   14817   14814
       7   14823   14820       6   14826   14820       6   14826   14823       7
   14832   14829       6   14835   14829       6   14835   14832       7   14841
   14838       6   14844   14838       6   14844   14841       7   14850   14847
       6   14853   14847       6   14853   14850       7   14859   14856       6
   14862   14856       6   14862   14859       7   14868   14865       6   14871
   14865       6   14871   14868       7   14877   14874       6   14880   14874
       6   14880   14877       7   14886   14883       6   14889   14883       6
   14889   14886       7   14895   14892       6   14898   14892       6   14898
   14895       7   14904   14901       6   14907   14901       6   14907   14904
       7   14913   14910       6   14916   14910       6   14916   14913       7
   14922   14919       6   14925   14919       6   14925   14922       7   14931
   14928       6   14934   14928       6   14934   14931       7   14940   14937
       6   14943   14937       6   14943   14940       7   14949   14946       6
   14952   14946       6   14952   14949       7   14958   14955       6   14961
   14955       6   14961   14958       7   14967   14964       6   14970   14964
       6   14970   14967       7   14976   14973       6   14979   14973       6
   14979   14976       7   14985   14982       6   14988   14982       6   14988
   14985       7   14994   14991       6   14997   14991       6   14997   14994
       7   15003   15000       6   15006   15000       6   15006   15003       7
   15012   15009       6   15015   15009       6   15015   15012       7   15021
   15018       6   15024   15018       6   15024   15021       7   15030   15027
       6   15033   15027       6   15033   15030       7   15039   15036       6
   15042   15036       6   15042   15039       7   15048   15045       6   15051
   15045       6   15051   15048       7   15057   15054       6   15060   15054
       6   15060   15057       7   15066   15063       6   15069   15063       6
   15069   15066       7   15075   15072       6   15078   15072       6   15078
   15075       7   15084   15081       6   15087   15081       6   15087   15084
       7   15093   15090       6   15096   15090       6   15096   15093       7
   15102   15099       6   15105   15099       6   15105   15102       7   15111
   15108       6   15114   15108       6   15114   15111       7   15120   15117
       6   15123   15117       6   15123   15120       7   15129   15126       6
   15132   15126       6   15132   15129       7   15138   15135       6   15141
   15135       6   15141   15138       7   15147   15144       6   15150   15144
       6   15150   15147       7   15156   15153       6   15159   15153       6
   15159   15156       7   15165   15162       6   15168   15162       6   15168
   15165       7   15174   15171       6   15177   15171       6   15177   15174
       7   15183   15180       6   15186   15180       6   15186   15183       7
   15192   15189       6   15195   15189       6   15195   15192       7   15201
   15198       6   15204   15198       6   15204   15201       7   15210   15207
       6   15213   15207       6   15213   15210       7   15219   15216       6
   15222   15216       6   15222   15219       7   15228   15225       6   15231
   15225       6   15231   15228       7   15237   15234       6   15240   15234
       6   15240   15237       7   15246   15243       6   15249   15243       6
   15249   15246       7   15255   15252       6   15258   15252       6   15258
   15255       7   15264   15261       6   15267   15261       6   15267   15264
       7   15273   15270       6   15276   15270       6   15276   15273       7
   15282   15279       6   15285   15279       6   15285   15282       7   15291
   15288       6   15294   15288       6   15294   15291       7   15300   15297
       6   15303   15297       6   15303   15300       7   15309   15306       6
   15312   15306       6   15312   15309       7   15318   15315       6   15321
   15315       6   15321   15318       7   15327   15324       6   15330   15324
       6   15330   15327       7   15336   15333       6   15339   15333       6
   15339   15336       7   15345   15342       6   15348   15342       6   15348
   15345       7   15354   15351       6   15357   15351       6   15357   15354
       7   15363   15360       6   15366   15360       6   15366   15363       7
   15372   15369       6   15375   15369       6   15375   15372       7   15381
   15378       6   15384   15378       6   15384   15381       7   15390   15387
       6   15393   15387       6   15393   15390       7   15399   15396       6
   15402   15396       6   15402   15399       7   15408   15405       6   15411
   15405       6   15411   15408       7   15417   15414       6   15420   15414
       6   15420   15417       7   15426   15423       6   15429   15423       6
   15429   15426       7   15435   15432       6   15438   15432       6   15438
   15435       7   15444   15441       6   15447   15441       6   15447   15444
       7   15453   15450       6   15456   15450       6   15456   15453       7
   15462   15459       6   15465   15459       6   15465   15462       7   15471
   15468       6   15474   15468       6   15474   15471       7   15480   15477
       6   15483   15477       6   15483   15480       7   15489   15486       6
   15492   15486       6   15492   15489       7   15498   15495       6   15501
   15495       6   15501   15498       7   15507   15504       6   15510   15504
       6   15510   15507       7   15516   15513       6   15519   15513       6
   15519   15516       7   15525   15522       6   15528   15522       6   15528
   15525       7   15534   15531       6   15537   15531       6   15537   15534
       7   15543   15540       6   15546   15540       6   15546   15543       7
   15552   15549       6   15555   15549       6   15555   15552       7   15561
   15558       6   15564   15558       6   15564   15561       7   15570   15567
       6   15573   15567       6   15573   15570       7   15579   15576       6
   15582   15576       6   15582   15579       7   15588   15585       6   15591
   15585       6   15591   15588       7   15597   15594       6   15600   15594
       6   15600   15597       7   15606   15603       6   15609   15603       6
   15609   15606       7   15615   15612       6   15618   15612       6   15618
   15615       7   15624   15621       6   15627   15621       6   15627   15624
       7   15633   15630       6   15636   15630       6   15636   15633       7
   15642   15639       6   15645   15639       6   15645   15642       7   15651
   15648       6   15654   15648       6   15654   15651       7   15660   15657
       6   15663   15657       6   15663   15660       7   15669   15666       6
   15672   15666       6   15672   15669       7   15678   15675       6   15681
   15675       6   15681   15678       7   15687   15684       6   15690   15684
       6   15690   15687       7   15696   15693       6   15699   15693       6
   15699   15696       7   15705   15702       6   15708   15702       6   15708
   15705       7   15714   15711       6   15717   15711       6   15717   15714
       7   15723   15720       6   15726   15720       6   15726   15723       7
   15732   15729       6   15735   15729       6   15735   15732       7   15741
   15738       6   15744   15738       6   15744   15741       7   15750   15747
       6   15753   15747       6   15753   15750       7   15759   15756       6
   15762   15756       6   15762   15759       7   15768   15765       6   15771
   15765       6   15771   15768       7   15777   15774       6   15780   15774
       6   15780   15777       7   15786   15783       6   15789   15783       6
   15789   15786       7   15795   15792       6   15798   15792       6   15798
   15795       7   15804   15801       6   15807   15801       6   15807   15804
       7   15813   15810       6   15816   15810       6   15816   15813       7
   15822   15819       6   15825   15819       6   15825   15822       7   15831
   15828       6   15834   15828       6   15834   15831       7   15840   15837
       6   15843   15837       6   15843   15840       7   15849   15846       6
   15852   15846       6   15852   15849       7   15858   15855       6   15861
   15855       6   15861   15858       7   15867   15864       6   15870   15864
       6   15870   15867       7   15876   15873       6   15879   15873       6
   15879   15876       7   15885   15882       6   15888   15882       6   15888
   15885       7   15894   15891       6   15897   15891       6   15897   15894
       7   15903   15900       6   15906   15900       6   15906   15903       7
   15912   15909       6   15915   15909       6   15915   15912       7   15921
   15918       6   15924   15918       6   15924   15921       7   15930   15927
       6   15933   15927       6   15933   15930       7   15939   15936       6
   15942   15936       6   15942   15939       7   15948   15945       6   15951
   15945       6   15951   15948       7   15957   15954       6   15960   15954
       6   15960   15957       7   15966   15963       6   15969   15963       6
   15969   15966       7   15975   15972       6   15978   15972       6   15978
   15975       7   15984   15981       6   15987   15981       6   15987   15984
       7   15993   15990       6   15996   15990       6   15996   15993       7
   16002   15999       6   16005   15999       6   16005   16002       7   16011
   16008       6   16014   16008       6   16014   16011       7   16020   16017
       6   16023   16017       6   16023   16020       7   16029   16026       6
   16032   16026       6   16032   16029       7   16038   16035       6   16041
   16035       6   16041   16038       7   16047   16044       6   16050   16044
       6   16050   16047       7   16056   16053       6   16059   16053       6
   16059   16056       7   16065   16062       6   16068   16062       6   16068
   16065       7   16074   16071       6   16077   16071       6   16077   16074
       7   16083   16080       6   16086   16080       6   16086   16083       7
   16092   16089       6   16095   16089       6   16095   16092       7   16101
   16098       6   16104   16098       6   16104   16101       7   16110   16107
       6   16113   16107       6   16113   16110       7   16119   16116       6
   16122   16116       6   16122   16119       7   16128   16125       6   16131
   16125       6   16131   16128       7   16137   16134       6   16140   16134
       6   16140   16137       7   16146   16143       6   16149   16143       6
   16149   16146       7   16155   16152       6   16158   16152       6   16158
   16155       7   16164   16161       6   16167   16161       6   16167   16164
       7   16173   16170       6   16176   16170       6   16176   16173       7
   16182   16179       6   16185   16179       6   16185   16182       7   16191
   16188       6   16194   16188       6   16194   16191       7   16200   16197
       6   16203   16197       6   16203   16200       7   16209   16206       6
   16212   16206       6   16212   16209       7   16218   16215       6   16221
   16215       6   16221   16218       7   16227   16224       6   16230   16224
       6   16230   16227       7   16236   16233       6   16239   16233       6
   16239   16236       7   16245   16242       6   16248   16242       6   16248
   16245       7   16254   16251       6   16257   16251       6   16257   16254
       7   16263   16260       6   16266   16260       6   16266   16263       7
   16272   16269       6   16275   16269       6   16275   16272       7   16281
   16278       6   16284   16278       6   16284   16281       7   16290   16287
       6   16293   16287       6   16293   16290       7   16299   16296       6
   16302   16296       6   16302   16299       7   16308   16305       6   16311
   16305       6   16311   16308       7   16317   16314       6   16320   16314
       6   16320   16317       7   16326   16323       6   16329   16323       6
   16329   16326       7   16335   16332       6   16338   16332       6   16338
   16335       7   16344   16341       6   16347   16341       6   16347   16344
       7   16353   16350       6   16356   16350       6   16356   16353       7
   16362   16359       6   16365   16359       6   16365   16362       7   16371
   16368       6   16374   16368       6   16374   16371       7   16380   16377
       6   16383   16377       6   16383   16380       7   16389   16386       6
   16392   16386       6   16392   16389       7   16398   16395       6   16401
   16395       6   16401   16398       7   16407   16404       6   16410   16404
       6   16410   16407       7   16416   16413       6   16419   16413       6
   16419   16416       7   16425   16422       6   16428   16422       6   16428
   16425       7   16434   16431       6   16437   16431       6   16437   16434
       7   16443   16440       6   16446   16440       6   16446   16443       7
   16452   16449       6   16455   16449       6   16455   16452       7   16461
   16458       6   16464   16458       6   16464   16461       7   16470   16467
       6   16473   16467       6   16473   16470       7   16479   16476       6
   16482   16476       6   16482   16479       7   16488   16485       6   16491
   16485       6   16491   16488       7   16497   16494       6   16500   16494
       6   16500   16497       7   16506   16503       6   16509   16503       6
   16509   16506       7   16515   16512       6   16518   16512       6   16518
   16515       7   16524   16521       6   16527   16521       6   16527   16524
       7   16533   16530       6   16536   16530       6   16536   16533       7
   16542   16539       6   16545   16539       6   16545   16542       7   16551
   16548       6   16554   16548       6   16554   16551       7   16560   16557
       6   16563   16557       6   16563   16560       7   16569   16566       6
   16572   16566       6   16572   16569       7   16578   16575       6   16581
   16575       6   16581   16578       7   16587   16584       6   16590   16584
       6   16590   16587       7   16596   16593       6   16599   16593       6
   16599   16596       7   16605   16602       6   16608   16602       6   16608
   16605       7   16614   16611       6   16617   16611       6   16617   16614
       7   16623   16620       6   16626   16620       6   16626   16623       7
   16632   16629       6   16635   16629       6   16635   16632       7   16641
   16638       6   16644   16638       6   16644   16641       7   16650   16647
       6   16653   16647       6   16653   16650       7   16659   16656       6
   16662   16656       6   16662   16659       7   16668   16665       6   16671
   16665       6   16671   16668       7   16677   16674       6   16680   16674
       6   16680   16677       7   16686   16683       6   16689   16683       6
   16689   16686       7   16695   16692       6   16698   16692       6   16698
   16695       7   16704   16701       6   16707   16701       6   16707   16704
       7   16713   16710       6   16716   16710       6   16716   16713       7
   16722   16719       6   16725   16719       6   16725   16722       7   16731
   16728       6   16734   16728       6   16734   16731       7   16740   16737
       6   16743   16737       6   16743   16740       7   16749   16746       6
   16752   16746       6   16752   16749       7   16758   16755       6   16761
   16755       6   16761   16758       7   16767   16764       6   16770   16764
       6   16770   16767       7   16776   16773       6   16779   16773       6
   16779   16776       7   16785   16782       6   16788   16782       6   16788
   16785       7   16794   16791       6   16797   16791       6   16797   16794
       7   16803   16800       6   16806   16800       6   16806   16803       7
   16812   16809       6   16815   16809       6   16815   16812       7   16821
   16818       6   16824   16818       6   16824   16821       7   16830   16827
       6   16833   16827       6   16833   16830       7   16839   16836       6
   16842   16836       6   16842   16839       7   16848   16845       6   16851
   16845       6   16851   16848       7   16857   16854       6   16860   16854
       6   16860   16857       7   16866   16863       6   16869   16863       6
   16869   16866       7   16875   16872       6   16878   16872       6   16878
   16875       7   16884   16881       6   16887   16881       6   16887   16884
       7   16893   16890       6   16896   16890       6   16896   16893       7
   16902   16899       6   16905   16899       6   16905   16902       7   16911
   16908       6   16914   16908       6   16914   16911       7   16920   16917
       6   16923   16917       6   16923   16920       7   16929   16926       6
   16932   16926       6   16932   16929       7   16938   16935       6   16941
   16935       6   16941   16938       7   16947   16944       6   16950   16944
       6   16950   16947       7   16956   16953       6   16959   16953       6
   16959   16956       7   16965   16962       6   16968   16962       6   16968
   16965       7   16974   16971       6   16977   16971       6   16977   16974
       7   16983   16980       6   16986   16980       6   16986   16983       7
   16992   16989       6   16995   16989       6   16995   16992       7   17001
   16998       6   17004   16998       6   17004   17001       7   17010   17007
       6   17013   17007       6   17013   17010       7   17019   17016       6
   17022   17016       6   17022   17019       7   17028   17025       6   17031
   17025       6   17031   17028       7   17037   17034       6   17040   17034
       6   17040   17037       7   17046   17043       6   17049   17043       6
   17049   17046       7   17055   17052       6   17058   17052       6   17058
   17055       7   17064   17061       6   17067   17061       6   17067   17064
       7   17073   17070       6   17076   17070       6   17076   17073       7
   17082   17079       6   17085   17079       6   17085   17082       7   17091
   17088       6   17094   17088       6   17094   17091       7   17100   17097
       6   17103   17097       6   17103   17100       7   17109   17106       6
   17112   17106       6   17112   17109       7   17118   17115       6   17121
   17115       6   17121   17118       7   17127   17124       6   17130   17124
       6   17130   17127       7   17136   17133       6   17139   17133       6
   17139   17136       7   17145   17142       6   17148   17142       6   17148
   17145       7   17154   17151       6   17157   17151       6   17157   17154
       7   17163   17160       6   17166   17160       6   17166   17163       7
   17172   17169       6   17175   17169       6   17175   17172       7   17181
   17178       6   17184   17178       6   17184   17181       7   17190   17187
       6   17193   17187       6   17193   17190       7   17199   17196       6
   17202   17196       6   17202   17199       7   17208   17205       6   17211
   17205       6   17211   17208       7   17217   17214       6   17220   17214
       6   17220   17217       7   17226   17223       6   17229   17223       6
   17229   17226       7   17235   17232       6   17238   17232       6   17238
   17235       7   17244   17241       6   17247   17241       6   17247   17244
       7   17253   17250       6   17256   17250       6   17256   17253       7
   17262   17259       6   17265   17259       6   17265   17262       7   17271
   17268       6   17274   17268       6   17274   17271       7   17280   17277
       6   17283   17277       6   17283   17280       7   17289   17286       6
   17292   17286       6   17292   17289       7   17298   17295       6   17301
   17295       6   17301   17298       7   17307   17304       6   17310   17304
       6   17310   17307       7   17316   17313       6   17319   17313       6
   17319   17316       7   17325   17322       6   17328   17322       6   17328
   17325       7   17334   17331       6   17337   17331       6   17337   17334
       7   17343   17340       6   17346   17340       6   17346   17343       7
   17352   17349       6   17355   17349       6   17355   17352       7   17361
   17358       6   17364   17358       6   17364   17361       7   17370   17367
       6   17373   17367       6   17373   17370       7   17379   17376       6
   17382   17376       6   17382   17379       7   17388   17385       6   17391
   17385       6   17391   17388       7   17397   17394       6   17400   17394
       6   17400   17397       7   17406   17403       6   17409   17403       6
   17409   17406       7   17415   17412       6   17418   17412       6   17418
   17415       7   17424   17421       6   17427   17421       6   17427   17424
       7   17433   17430       6   17436   17430       6   17436   17433       7
   17442   17439       6   17445   17439       6   17445   17442       7   17451
   17448       6   17454   17448       6   17454   17451       7   17460   17457
       6   17463   17457       6   17463   17460       7   17469   17466       6
   17472   17466       6   17472   17469       7   17478   17475       6   17481
   17475       6   17481   17478       7   17487   17484       6   17490   17484
       6   17490   17487       7   17496   17493       6   17499   17493       6
   17499   17496       7   17505   17502       6   17508   17502       6   17508
   17505       7   17514   17511       6   17517   17511       6   17517   17514
       7   17523   17520       6   17526   17520       6   17526   17523       7
   17532   17529       6   17535   17529       6   17535   17532       7   17541
   17538       6   17544   17538       6   17544   17541       7   17550   17547
       6   17553   17547       6   17553   17550       7   17559   17556       6
   17562   17556       6   17562   17559       7   17568   17565       6   17571
   17565       6   17571   17568       7   17577   17574       6   17580   17574
       6   17580   17577       7   17586   17583       6   17589   17583       6
   17589   17586       7   17595   17592       6   17598   17592       6   17598
   17595       7   17604   17601       6   17607   17601       6   17607   17604
       7   17613   17610       6   17616   17610       6   17616   17613       7
   17622   17619       6   17625   17619       6   17625   17622       7   17631
   17628       6   17634   17628       6   17634   17631       7   17640   17637
       6   17643   17637       6   17643   17640       7   17649   17646       6
   17652   17646       6   17652   17649       7   17658   17655       6   17661
   17655       6   17661   17658       7   17667   17664       6   17670   17664
       6   17670   17667       7   17676   17673       6   17679   17673       6
   17679   17676       7   17685   17682       6   17688   17682       6   17688
   17685       7   17694   17691       6   17697   17691       6   17697   17694
       7   17703   17700       6   17706   17700       6   17706   17703       7
   17712   17709       6   17715   17709       6   17715   17712       7   17721
   17718       6   17724   17718       6   17724   17721       7   17730   17727
       6   17733   17727       6   17733   17730       7   17739   17736       6
   17742   17736       6   17742   17739       7   17748   17745       6   17751
   17745       6   17751   17748       7   17757   17754       6   17760   17754
       6   17760   17757       7   17766   17763       6   17769   17763       6
   17769   17766       7   17775   17772       6   17778   17772       6   17778
   17775       7   17784   17781       6   17787   17781       6   17787   17784
       7   17793   17790       6   17796   17790       6   17796   17793       7
   17802   17799       6   17805   17799       6   17805   17802       7   17811
   17808       6   17814   17808       6   17814   17811       7   17820   17817
       6   17823   17817       6   17823   17820       7   17829   17826       6
   17832   17826       6   17832   17829       7   17838   17835       6   17841
   17835       6   17841   17838       7   17847   17844       6   17850   17844
       6   17850   17847       7   17856   17853       6   17859   17853       6
   17859   17856       7   17865   17862       6   17868   17862       6   17868
   17865       7   17874   17871       6   17877   17871       6   17877   17874
       7   17883   17880       6   17886   17880       6   17886   17883       7
   17892   17889       6   17895   17889       6   17895   17892       7   17901
   17898       6   17904   17898       6   17904   17901       7   17910   17907
       6   17913   17907       6   17913   17910       7   17919   17916       6
   17922   17916       6   17922   17919       7   17928   17925       6   17931
   17925       6   17931   17928       7   17937   17934       6   17940   17934
       6   17940   17937       7   17946   17943       6   17949   17943       6
   17949   17946       7   17955   17952       6   17958   17952       6   17958
   17955       7   17964   17961       6   17967   17961       6   17967   17964
       7   17973   17970       6   17976   17970       6   17976   17973       7
   17982   17979       6   17985   17979       6   17985   17982       7   17991
   17988       6   17994   17988       6   17994   17991       7   18000   17997
       6   18003   17997       6   18003   18000       7   18009   18006       6
   18012   18006       6   18012   18009       7   18018   18015       6   18021
   18015       6   18021   18018       7   18027   18024       6   18030   18024
       6   18030   18027       7   18036   18033       6   18039   18033       6
   18039   18036       7   18045   18042       6   18048   18042       6   18048
   18045       7   18054   18051       6   18057   18051       6   18057   18054
       7   18063   18060       6   18066   18060       6   18066   18063       7
   18072   18069       6   18075   18069       6   18075   18072       7   18081
   18078       6   18084   18078       6   18084   18081       7   18090   18087
       6   18093   18087       6   18093   18090       7   18099   18096       6
   18102   18096       6   18102   18099       7   18108   18105       6   18111
   18105       6   18111   18108       7   18117   18114       6   18120   18114
       6   18120   18117       7   18126   18123       6   18129   18123       6
   18129   18126       7   18135   18132       6   18138   18132       6   18138
   18135       7   18144   18141       6   18147   18141       6   18147   18144
       7   18153   18150       6   18156   18150       6   18156   18153       7
   18162   18159       6   18165   18159       6   18165   18162       7   18171
   18168       6   18174   18168       6   18174   18171       7   18180   18177
       6   18183   18177       6   18183   18180       7   18189   18186       6
   18192   18186       6   18192   18189       7   18198   18195       6   18201
   18195       6   18201   18198       7   18207   18204       6   18210   18204
       6   18210   18207       7   18216   18213       6   18219   18213       6
   18219   18216       7   18225   18222       6   18228   18222       6   18228
   18225       7   18234   18231       6   18237   18231       6   18237   18234
       7   18243   18240       6   18246   18240       6   18246   18243       7
   18252   18249       6   18255   18249       6   18255   18252       7   18261
   18258       6   18264   18258       6   18264   18261       7   18270   18267
       6   18273   18267       6   18273   18270       7   18279   18276       6
   18282   18276       6   18282   18279       7   18288   18285       6   18291
   18285       6   18291   18288       7   18297   18294       6   18300   18294
       6   18300   18297       7   18306   18303       6   18309   18303       6
   18309   18306       7   18315   18312       6   18318   18312       6   18318
   18315       7   18324   18321       6   18327   18321       6   18327   18324
       7   18333   18330       6   18336   18330       6   18336   18333       7
   18342   18339       6   18345   18339       6   18345   18342       7   18351
   18348       6   18354   18348       6   18354   18351       7   18360   18357
       6   18363   18357       6   18363   18360       7   18369   18366       6
   18372   18366       6   18372   18369       7   18378   18375       6   18381
   18375       6   18381   18378       7   18387   18384       6   18390   18384
       6   18390   18387       7   18396   18393       6   18399   18393       6
   18399   18396       7   18405   18402       6   18408   18402       6   18408
   18405       7   18414   18411       6   18417   18411       6   18417   18414
       7   18423   18420       6   18426   18420       6   18426   18423       7
   18432   18429       6   18435   18429       6   18435   18432       7   18441
   18438       6   18444   18438       6   18444   18441       7   18450   18447
       6   18453   18447       6   18453   18450       7   18459   18456       6
   18462   18456       6   18462   18459       7   18468   18465       6   18471
   18465       6   18471   18468       7   18477   18474       6   18480   18474
       6   18480   18477       7   18486   18483       6   18489   18483       6
   18489   18486       7   18495   18492       6   18498   18492       6   18498
   18495       7   18504   18501       6   18507   18501       6   18507   18504
       7   18513   18510       6   18516   18510       6   18516   18513       7
   18522   18519       6   18525   18519       6   18525   18522       7   18531
   18528       6   18534   18528       6   18534   18531       7   18540   18537
       6   18543   18537       6   18543   18540       7   18549   18546       6
   18552   18546       6   18552   18549       7   18558   18555       6   18561
   18555       6   18561   18558       7   18567   18564       6   18570   18564
       6   18570   18567       7   18576   18573       6   18579   18573       6
   18579   18576       7   18585   18582       6   18588   18582       6   18588
   18585       7   18594   18591       6   18597   18591       6   18597   18594
       7   18603   18600       6   18606   18600       6   18606   18603       7
   18612   18609       6   18615   18609       6   18615   18612       7   18621
   18618       6   18624   18618       6   18624   18621       7   18630   18627
       6   18633   18627       6   18633   18630       7   18639   18636       6
   18642   18636       6   18642   18639       7   18648   18645       6   18651
   18645       6   18651   18648       7   18657   18654       6   18660   18654
       6   18660   18657       7   18666   18663       6   18669   18663       6
   18669   18666       7   18675   18672       6   18678   18672       6   18678
   18675       7   18684   18681       6   18687   18681       6   18687   18684
       7   18693   18690       6   18696   18690       6   18696   18693       7
   18702   18699       6   18705   18699       6   18705   18702       7   18711
   18708       6   18714   18708       6   18714   18711       7   18720   18717
       6   18723   18717       6   18723   18720       7   18729   18726       6
   18732   18726       6   18732   18729       7   18738   18735       6   18741
   18735       6   18741   18738       7   18747   18744       6   18750   18744
       6   18750   18747       7   18756   18753       6   18759   18753       6
   18759   18756       7   18765   18762       6   18768   18762       6   18768
   18765       7   18774   18771       6   18777   18771       6   18777   18774
       7   18783   18780       6   18786   18780       6   18786   18783       7
   18792   18789       6   18795   18789       6   18795   18792       7   18801
   18798       6   18804   18798       6   18804   18801       7   18810   18807
       6   18813   18807       6   18813   18810       7   18819   18816       6
   18822   18816       6   18822   18819       7   18828   18825       6   18831
   18825       6   18831   18828       7   18837   18834       6   18840   18834
       6   18840   18837       7   18846   18843       6   18849   18843       6
   18849   18846       7   18855   18852       6   18858   18852       6   18858
   18855       7   18864   18861       6   18867   18861       6   18867   18864
       7   18873   18870       6   18876   18870       6   18876   18873       7
   18882   18879       6   18885   18879       6   18885   18882       7   18891
   18888       6   18894   18888       6   18894   18891       7   18900   18897
       6   18903   18897       6   18903   18900       7   18909   18906       6
   18912   18906       6   18912   18909       7   18918   18915       6   18921
   18915       6   18921   18918       7   18927   18924       6   18930   18924
       6   18930   18927       7   18936   18933       6   18939   18933       6
   18939   18936       7   18945   18942       6   18948   18942       6   18948
   18945       7   18954   18951       6   18957   18951       6   18957   18954
       7   18963   18960       6   18966   18960       6   18966   18963       7
   18972   18969       6   18975   18969       6   18975   18972       7   18981
   18978       6   18984   18978       6   18984   18981       7   18990   18987
       6   18993   18987       6   18993   18990       7   18999   18996       6
   19002   18996       6   19002   18999       7   19008   19005       6   19011
   19005       6   19011   19008       7   19017   19014       6   19020   19014
       6   19020   19017       7   19026   19023       6   19029   19023       6
   19029   19026       7   19035   19032       6   19038   19032       6   19038
   19035       7   19044   19041       6   19047   19041       6   19047   19044
       7   19053   19050       6   19056   19050       6   19056   19053       7
   19062   19059       6   19065   19059       6   19065   19062       7   19071
   19068       6   19074   19068       6   19074   19071       7   19080   19077
       6   19083   19077       6   19083   19080       7   19089   19086       6
   19092   19086       6   19092   19089       7   19098   19095       6   19101
   19095       6   19101   19098       7   19107   19104       6   19110   19104
       6   19110   19107       7   19116   19113       6   19119   19113       6
   19119   19116       7   19125   19122       6   19128   19122       6   19128
   19125       7   19134   19131       6   19137   19131       6   19137   19134
       7   19143   19140       6   19146   19140       6   19146   19143       7
   19152   19149       6   19155   19149       6   19155   19152       7   19161
   19158       6   19164   19158       6   19164   19161       7   19170   19167
       6   19173   19167       6   19173   19170       7   19179   19176       6
   19182   19176       6   19182   19179       7   19188   19185       6   19191
   19185       6   19191   19188       7   19197   19194       6   19200   19194
       6   19200   19197       7   19206   19203       6   19209   19203       6
   19209   19206       7   19215   19212       6   19218   19212       6   19218
   19215       7   19224   19221       6   19227   19221       6   19227   19224
       7   19233   19230       6   19236   19230       6   19236   19233       7
   19242   19239       6   19245   19239       6   19245   19242       7   19251
   19248       6   19254   19248       6   19254   19251       7   19260   19257
       6   19263   19257       6   19263   19260       7   19269   19266       6
   19272   19266       6   19272   19269       7   19278   19275       6   19281
   19275       6   19281   19278       7   19287   19284       6   19290   19284
       6   19290   19287       7   19296   19293       6   19299   19293       6
   19299   19296       7   19305   19302       6   19308   19302       6   19308
   19305       7   19314   19311       6   19317   19311       6   19317   19314
       7   19323   19320       6   19326   19320       6   19326   19323       7
   19332   19329       6   19335   19329       6   19335   19332       7   19341
   19338       6   19344   19338       6   19344   19341       7   19350   19347
       6   19353   19347       6   19353   19350       7   19359   19356       6
   19362   19356       6   19362   19359       7   19368   19365       6   19371
   19365       6   19371   19368       7   19377   19374       6   19380   19374
       6   19380   19377       7   19386   19383       6   19389   19383       6
   19389   19386       7   19395   19392       6   19398   19392       6   19398
   19395       7   19404   19401       6   19407   19401       6   19407   19404
       7   19413   19410       6   19416   19410       6   19416   19413       7
   19422   19419       6   19425   19419       6   19425   19422       7   19431
   19428       6   19434   19428       6   19434   19431       7   19440   19437
       6   19443   19437       6   19443   19440       7   19449   19446       6
   19452   19446       6   19452   19449       7   19458   19455       6   19461
   19455       6   19461   19458       7   19467   19464       6   19470   19464
       6   19470   19467       7   19476   19473       6   19479   19473       6
   19479   19476       7   19485   19482       6   19488   19482       6   19488
   19485       7   19494   19491       6   19497   19491       6   19497   19494
       7   19503   19500       6   19506   19500       6   19506   19503       7
   19512   19509       6   19515   19509       6   19515   19512       7   19521
   19518       6   19524   19518       6   19524   19521       7   19530   19527
       6   19533   19527       6   19533   19530       7   19539   19536       6
   19542   19536       6   19542   19539       7   19548   19545       6   19551
   19545       6   19551   19548       7   19557   19554       6   19560   19554
       6   19560   19557       7   19566   19563       6   19569   19563       6
   19569   19566       7   19575   19572       6   19578   19572       6   19578
   19575       7   19584   19581       6   19587   19581       6   19587   19584
       7   19593   19590       6   19596   19590       6   19596   19593       7
   19602   19599       6   19605   19599       6   19605   19602       7   19611
   19608       6   19614   19608       6   19614   19611       7   19620   19617
       6   19623   19617       6   19623   19620       7   19629   19626       6
   19632   19626       6   19632   19629       7   19638   19635       6   19641
   19635       6   19641   19638       7   19647   19644       6   19650   19644
       6   19650   19647       7   19656   19653       6   19659   19653       6
   19659   19656       7   19665   19662       6   19668   19662       6   19668
   19665       7   19674   19671       6   19677   19671       6   19677   19674
       7   19683   19680       6   19686   19680       6   19686   19683       7
   19692   19689       6   19695   19689       6   19695   19692       7   19701
   19698       6   19704   19698       6   19704   19701       7   19710   19707
       6   19713   19707       6   19713   19710       7   19719   19716       6
   19722   19716       6   19722   19719       7   19728   19725       6   19731
   19725       6   19731   19728       7   19737   19734       6   19740   19734
       6   19740   19737       7   19746   19743       6   19749   19743       6
   19749   19746       7   19755   19752       6   19758   19752       6   19758
   19755       7   19764   19761       6   19767   19761       6   19767   19764
       7   19773   19770       6   19776   19770       6   19776   19773       7
   19782   19779       6   19785   19779       6   19785   19782       7   19791
   19788       6   19794   19788       6   19794   19791       7   19800   19797
       6   19803   19797       6   19803   19800       7   19809   19806       6
   19812   19806       6   19812   19809       7   19818   19815       6   19821
   19815       6   19821   19818       7   19827   19824       6   19830   19824
       6   19830   19827       7   19836   19833       6   19839   19833       6
   19839   19836       7   19845   19842       6   19848   19842       6   19848
   19845       7   19854   19851       6   19857   19851       6   19857   19854
       7   19863   19860       6   19866   19860       6   19866   19863       7
   19872   19869       6   19875   19869       6   19875   19872       7   19881
   19878       6   19884   19878       6   19884   19881       7   19890   19887
       6   19893   19887       6   19893   19890       7   19899   19896       6
   19902   19896       6   19902   19899       7   19908   19905       6   19911
   19905       6   19911   19908       7   19917   19914       6   19920   19914
       6   19920   19917       7   19926   19923       6   19929   19923       6
   19929   19926       7   19935   19932       6   19938   19932       6   19938
   19935       7   19944   19941       6   19947   19941       6   19947   19944
       7   19953   19950       6   19956   19950       6   19956   19953       7
   19962   19959       6   19965   19959       6   19965   19962       7   19971
   19968       6   19974   19968       6   19974   19971       7   19980   19977
       6   19983   19977       6   19983   19980       7   19989   19986       6
   19992   19986       6   19992   19989       7   19998   19995       6   20001
   19995       6   20001   19998       7   20007   20004       6   20010   20004
       6   20010   20007       7   20016   20013       6   20019   20013       6
   20019   20016       7   20025   20022       6   20028   20022       6   20028
   20025       7   20034   20031       6   20037   20031       6   20037   20034
       7   20043   20040       6   20046   20040       6   20046   20043       7
   20052   20049       6   20055   20049       6   20055   20052       7   20061
   20058       6   20064   20058       6   20064   20061       7   20070   20067
       6   20073   20067       6   20073   20070       7   20079   20076       6
   20082   20076       6   20082   20079       7   20088   20085       6   20091
   20085       6   20091   20088       7   20097   20094       6   20100   20094
       6   20100   20097       7   20106   20103       6   20109   20103       6
   20109   20106       7   20115   20112       6   20118   20112       6   20118
   20115       7   20124   20121       6   20127   20121       6   20127   20124
       7   20133   20130       6   20136   20130       6   20136   20133       7
   20142   20139       6   20145   20139       6   20145   20142       7   20151
   20148       6   20154   20148       6   20154   20151       7   20160   20157
       6   20163   20157       6   20163   20160       7   20169   20166       6
   20172   20166       6   20172   20169       7   20178   20175       6   20181
   20175       6   20181   20178       7   20187   20184       6   20190   20184
       6   20190   20187       7   20196   20193       6   20199   20193       6
   20199   20196       7   20205   20202       6   20208   20202       6   20208
   20205       7   20214   20211       6   20217   20211       6   20217   20214
       7   20223   20220       6   20226   20220       6   20226   20223       7
   20232   20229       6   20235   20229       6   20235   20232       7   20241
   20238       6   20244   20238       6   20244   20241       7   20250   20247
       6   20253   20247       6   20253   20250       7   20259   20256       6
   20262   20256       6   20262   20259       7   20268   20265       6   20271
   20265       6   20271   20268       7   20277   20274       6   20280   20274
       6   20280   20277       7   20286   20283       6   20289   20283       6
   20289   20286       7   20295   20292       6   20298   20292       6   20298
   20295       7   20304   20301       6   20307   20301       6   20307   20304
       7   20313   20310       6   20316   20310       6   20316   20313       7
   20322   20319       6   20325   20319       6   20325   20322       7   20331
   20328       6   20334   20328       6   20334   20331       7   20340   20337
       6   20343   20337       6   20343   20340       7   20349   20346       6
   20352   20346       6   20352   20349       7   20358   20355       6   20361
   20355       6   20361   20358       7   20367   20364       6   20370   20364
       6   20370   20367       7   20376   20373       6   20379   20373       6
   20379   20376       7   20385   20382       6   20388   20382       6   20388
   20385       7   20394   20391       6   20397   20391       6   20397   20394
       7   20403   20400       6   20406   20400       6   20406   20403       7
   20412   20409       6   20415   20409       6   20415   20412       7   20421
   20418       6   20424   20418       6   20424   20421       7   20430   20427
       6   20433   20427       6   20433   20430       7   20439   20436       6
   20442   20436       6   20442   20439       7   20448   20445       6   20451
   20445       6   20451   20448       7   20457   20454       6   20460   20454
       6   20460   20457       7   20466   20463       6   20469   20463       6
   20469   20466       7   20475   20472       6   20478   20472       6   20478
   20475       7   20484   20481       6   20487   20481       6   20487   20484
       7   20493   20490       6   20496   20490       6   20496   20493       7
   20502   20499       6   20505   20499       6   20505   20502       7   20511
   20508       6   20514   20508       6   20514   20511       7   20520   20517
       6   20523   20517       6   20523   20520       7   20529   20526       6
   20532   20526       6   20532   20529       7   20538   20535       6   20541
   20535       6   20541   20538       7   20547   20544       6   20550   20544
       6   20550   20547       7   20556   20553       6   20559   20553       6
   20559   20556       7   20565   20562       6   20568   20562       6   20568
   20565       7   20574   20571       6   20577   20571       6   20577   20574
       7   20583   20580       6   20586   20580       6   20586   20583       7
   20592   20589       6   20595   20589       6   20595   20592       7   20601
   20598       6   20604   20598       6   20604   20601       7   20610   20607
       6   20613   20607       6   20613   20610       7   20619   20616       6
   20622   20616       6   20622   20619       7   20628   20625       6   20631
   20625       6   20631   20628       7   20637   20634       6   20640   20634
       6   20640   20637       7   20646   20643       6   20649   20643       6
   20649   20646       7   20655   20652       6   20658   20652       6   20658
   20655       7   20664   20661       6   20667   20661       6   20667   20664
       7   20673   20670       6   20676   20670       6   20676   20673       7
   20682   20679       6   20685   20679       6   20685   20682       7   20691
   20688       6   20694   20688       6   20694   20691       7   20700   20697
       6   20703   20697       6   20703   20700       7   20709   20706       6
   20712   20706       6   20712   20709       7   20718   20715       6   20721
   20715       6   20721   20718       7   20727   20724       6   20730   20724
       6   20730   20727       7   20736   20733       6   20739   20733       6
   20739   20736       7   20745   20742       6   20748   20742       6   20748
   20745       7   20754   20751       6   20757   20751       6   20757   20754
       7   20763   20760       6   20766   20760       6   20766   20763       7
   20772   20769       6   20775   20769       6   20775   20772       7   20781
   20778       6   20784   20778       6   20784   20781       7   20790   20787
       6   20793   20787       6   20793   20790       7   20799   20796       6
   20802   20796       6   20802   20799       7   20808   20805       6   20811
   20805       6   20811   20808       7   20817   20814       6   20820   20814
       6   20820   20817       7   20826   20823       6   20829   20823       6
   20829   20826       7   20835   20832       6   20838   20832       6   20838
   20835       7   20844   20841       6   20847   20841       6   20847   20844
       7   20853   20850       6   20856   20850       6   20856   20853       7
   20862   20859       6   20865   20859       6   20865   20862       7   20871
   20868       6   20874   20868       6   20874   20871       7   20880   20877
       6   20883   20877       6   20883   20880       7   20889   20886       6
   20892   20886       6   20892   20889       7   20898   20895       6   20901
   20895       6   20901   20898       7   20907   20904       6   20910   20904
       6   20910   20907       7   20916   20913       6   20919   20913       6
   20919   20916       7   20925   20922       6   20928   20922       6   20928
   20925       7   20934   20931       6   20937   20931       6   20937   20934
       7   20943   20940       6   20946   20940       6   20946   20943       7
   20952   20949       6   20955   20949       6   20955   20952       7   20961
   20958       6   20964   20958       6   20964   20961       7   20970   20967
       6   20973   20967       6   20973   20970       7   20979   20976       6
   20982   20976       6   20982   20979       7   20988   20985       6   20991
   20985       6   20991   20988       7   20997   20994       6   21000   20994
       6   21000   20997       7   21006   21003       6   21009   21003       6
   21009   21006       7   21015   21012       6   21018   21012       6   21018
   21015       7   21024   21021       6   21027   21021       6   21027   21024
       7   21033   21030       6   21036   21030       6   21036   21033       7
   21042   21039       6   21045   21039       6   21045   21042       7   21051
   21048       6   21054   21048       6   21054   21051       7   21060   21057
       6   21063   21057       6   21063   21060       7   21069   21066       6
   21072   21066       6   21072   21069       7   21078   21075       6   21081
   21075       6   21081   21078       7   21087   21084       6   21090   21084
       6   21090   21087       7   21096   21093       6   21099   21093       6
   21099   21096       7   21105   21102       6   21108   21102       6   21108
   21105       7   21114   21111       6   21117   21111       6   21117   21114
       7   21123   21120       6   21126   21120       6   21126   21123       7
   21132   21129       6   21135   21129       6   21135   21132       7   21141
   21138       6   21144   21138       6   21144   21141       7   21150   21147
       6   21153   21147       6   21153   21150       7   21159   21156       6
   21162   21156       6   21162   21159       7   21168   21165       6   21171
   21165       6   21171   21168       7   21177   21174       6   21180   21174
       6   21180   21177       7   21186   21183       6   21189   21183       6
   21189   21186       7   21195   21192       6   21198   21192       6   21198
   21195       7   21204   21201       6   21207   21201       6   21207   21204
       7   21213   21210       6   21216   21210       6   21216   21213       7
   21222   21219       6   21225   21219       6   21225   21222       7   21231
   21228       6   21234   21228       6   21234   21231       7   21240   21237
       6   21243   21237       6   21243   21240       7   21249   21246       6
   21252   21246       6   21252   21249       7   21258   21255       6   21261
   21255       6   21261   21258       7   21267   21264       6   21270   21264
       6   21270   21267       7   21276   21273       6   21279   21273       6
   21279   21276       7   21285   21282       6   21288   21282       6   21288
   21285       7   21294   21291       6   21297   21291       6   21297   21294
       7   21303   21300       6   21306   21300       6   21306   21303       7
   21312   21309       6   21315   21309       6   21315   21312       7   21321
   21318       6   21324   21318       6   21324   21321       7   21330   21327
       6   21333   21327       6   21333   21330       7   21339   21336       6
   21342   21336       6   21342   21339       7   21348   21345       6   21351
   21345       6   21351   21348       7   21357   21354       6   21360   21354
       6   21360   21357       7   21366   21363       6   21369   21363       6
   21369   21366       7   21375   21372       6   21378   21372       6   21378
   21375       7   21384   21381       6   21387   21381       6   21387   21384
       7   21393   21390       6   21396   21390       6   21396   21393       7
   21402   21399       6   21405   21399       6   21405   21402       7   21411
   21408       6   21414   21408       6   21414   21411       7   21420   21417
       6   21423   21417       6   21423   21420       7   21429   21426       6
   21432   21426       6   21432   21429       7   21438   21435       6   21441
   21435       6   21441   21438       7   21447   21444       6   21450   21444
       6   21450   21447       7   21456   21453       6   21459   21453       6
   21459   21456       7   21465   21462       6   21468   21462       6   21468
   21465       7   21474   21471       6   21477   21471       6   21477   21474
       7   21483   21480       6   21486   21480       6   21486   21483       7
   21492   21489       6   21495   21489       6   21495   21492       7   21501
   21498       6   21504   21498       6   21504   21501       7   21510   21507
       6   21513   21507       6   21513   21510       7   21519   21516       6
   21522   21516       6   21522   21519       7   21528   21525       6   21531
   21525       6   21531   21528       7   21537   21534       6   21540   21534
       6   21540   21537       7   21546   21543       6   21549   21543       6
   21549   21546       7   21555   21552       6   21558   21552       6   21558
   21555       7   21564   21561       6   21567   21561       6   21567   21564
       7   21573   21570       6   21576   21570       6   21576   21573       7
   21582   21579       6   21585   21579       6   21585   21582       7   21591
   21588       6   21594   21588       6   21594   21591       7   21600   21597
       6   21603   21597       6   21603   21600       7   21609   21606       6
   21612   21606       6   21612   21609       7   21618   21615       6   21621
   21615       6   21621   21618       7   21627   21624       6   21630   21624
       6   21630   21627       7   21636   21633       6   21639   21633       6
   21639   21636       7   21645   21642       6   21648   21642       6   21648
   21645       7   21654   21651       6   21657   21651       6   21657   21654
       7   21663   21660       6   21666   21660       6   21666   21663       7
   21672   21669       6   21675   21669       6   21675   21672       7   21681
   21678       6   21684   21678       6   21684   21681       7   21690   21687
       6   21693   21687       6   21693   21690       7   21699   21696       6
   21702   21696       6   21702   21699       7   21708   21705       6   21711
   21705       6   21711   21708       7   21717   21714       6   21720   21714
       6   21720   21717       7   21726   21723       6   21729   21723       6
   21729   21726       7   21735   21732       6   21738   21732       6   21738
   21735       7   21744   21741       6   21747   21741       6   21747   21744
       7   21753   21750       6   21756   21750       6   21756   21753       7
   21762   21759       6   21765   21759       6   21765   21762       7   21771
   21768       6   21774   21768       6   21774   21771       7   21780   21777
       6   21783   21777       6   21783   21780       7   21789   21786       6
   21792   21786       6   21792   21789       7   21798   21795       6   21801
   21795       6   21801   21798       7   21807   21804       6   21810   21804
       6   21810   21807       7   21816   21813       6   21819   21813       6
   21819   21816       7   21825   21822       6   21828   21822       6   21828
   21825       7   21834   21831       6   21837   21831       6   21837   21834
       7   21843   21840       6   21846   21840       6   21846   21843       7
   21852   21849       6   21855   21849       6   21855   21852       7   21861
   21858       6   21864   21858       6   21864   21861       7   21870   21867
       6   21873   21867       6   21873   21870       7   21879   21876       6
   21882   21876       6   21882   21879       7   21888   21885       6   21891
   21885       6   21891   21888       7   21897   21894       6   21900   21894
       6   21900   21897       7   21906   21903       6   21909   21903       6
   21909   21906       7   21915   21912       6   21918   21912       6   21918
   21915       7   21924   21921       6   21927   21921       6   21927   21924
       7   21933   21930       6   21936   21930       6   21936   21933       7
   21942   21939       6   21945   21939       6   21945   21942       7   21951
   21948       6   21954   21948       6   21954   21951       7   21960   21957
       6   21963   21957       6   21963   21960       7   21969   21966       6
   21972   21966       6   21972   21969       7   21978   21975       6   21981
   21975       6   21981   21978       7   21987   21984       6   21990   21984
       6   21990   21987       7   21996   21993       6   21999   21993       6
   21999   21996       7   22005   22002       6   22008   22002       6   22008
   22005       7   22014   22011       6   22017   22011       6   22017   22014
       7   22023   22020       6   22026   22020       6   22026   22023       7
   22032   22029       6   22035   22029       6   22035   22032       7   22041
   22038       6   22044   22038       6   22044   22041       7   22050   22047
       6   22053   22047       6   22053   22050       7   22059   22056       6
   22062   22056       6   22062   22059       7   22068   22065       6   22071
   22065       6   22071   22068       7   22077   22074       6   22080   22074
       6   22080   22077       7   22086   22083       6   22089   22083       6
   22089   22086       7   22095   22092       6   22098   22092       6   22098
   22095       7   22104   22101       6   22107   22101       6   22107   22104
       7   22113   22110       6   22116   22110       6   22116   22113       7
   22122   22119       6   22125   22119       6   22125   22122       7   22131
   22128       6   22134   22128       6   22134   22131       7   22140   22137
       6   22143   22137       6   22143   22140       7   22149   22146       6
   22152   22146       6   22152   22149       7   22158   22155       6   22161
   22155       6   22161   22158       7   22167   22164       6   22170   22164
       6   22170   22167       7   22176   22173       6   22179   22173       6
   22179   22176       7   22185   22182       6   22188   22182       6   22188
   22185       7   22194   22191       6   22197   22191       6   22197   22194
       7   22203   22200       6   22206   22200       6   22206   22203       7
   22212   22209       6   22215   22209       6   22215   22212       7   22221
   22218       6   22224   22218       6   22224   22221       7   22230   22227
       6   22233   22227       6   22233   22230       7   22239   22236       6
   22242   22236       6   22242   22239       7   22248   22245       6   22251
   22245       6   22251   22248       7   22257   22254       6   22260   22254
       6   22260   22257       7   22266   22263       6   22269   22263       6
   22269   22266       7   22275   22272       6   22278   22272       6   22278
   22275       7   22284   22281       6   22287   22281       6   22287   22284
       7   22293   22290       6   22296   22290       6   22296   22293       7
   22302   22299       6   22305   22299       6   22305   22302       7   22311
   22308       6   22314   22308       6   22314   22311       7   22320   22317
       6   22323   22317       6   22323   22320       7   22329   22326       6
   22332   22326       6   22332   22329       7   22338   22335       6   22341
   22335       6   22341   22338       7   22347   22344       6   22350   22344
       6   22350   22347       7   22356   22353       6   22359   22353       6
   22359   22356       7   22365   22362       6   22368   22362       6   22368
   22365       7   22374   22371       6   22377   22371       6   22377   22374
       7   22383   22380       6   22386   22380       6   22386   22383       7
   22392   22389       6   22395   22389       6   22395   22392       7   22401
   22398       6   22404   22398       6   22404   22401       7   22410   22407
       6   22413   22407       6   22413   22410       7   22419   22416       6
   22422   22416       6   22422   22419       7   22428   22425       6   22431
   22425       6   22431   22428       7   22437   22434       6   22440   22434
       6   22440   22437       7   22446   22443       6   22449   22443       6
   22449   22446       7   22455   22452       6   22458   22452       6   22458
   22455       7   22464   22461       6   22467   22461       6   22467   22464
       7   22473   22470       6   22476   22470       6   22476   22473       7
   22482   22479       6   22485   22479       6   22485   22482       7   22491
   22488       6   22494   22488       6   22494   22491       7   22500   22497
       6   22503   22497       6   22503   22500       7   22509   22506       6
   22512   22506       6   22512   22509       7   22518   22515       6   22521
   22515       6   22521   22518       7   22527   22524       6   22530   22524
       6   22530   22527       7   22536   22533       6   22539   22533       6
   22539   22536       7   22545   22542       6   22548   22542       6   22548
   22545       7   22554   22551       6   22557   22551       6   22557   22554
       7   22563   22560       6   22566   22560       6   22566   22563       7
   22572   22569       6   22575   22569       6   22575   22572       7   22581
   22578       6   22584   22578       6   22584   22581       7   22590   22587
       6   22593   22587       6   22593   22590       7   22599   22596       6
   22602   22596       6   22602   22599       7   22608   22605       6   22611
   22605       6   22611   22608       7   22617   22614       6   22620   22614
       6   22620   22617       7   22626   22623       6   22629   22623       6
   22629   22626       7   22635   22632       6   22638   22632       6   22638
   22635       7   22644   22641       6   22647   22641       6   22647   22644
       7   22653   22650       6   22656   22650       6   22656   22653       7
   22662   22659       6   22665   22659       6   22665   22662       7   22671
   22668       6   22674   22668       6   22674   22671       7   22680   22677
       6   22683   22677       6   22683   22680       7   22689   22686       6
   22692   22686       6   22692   22689       7   22698   22695       6   22701
   22695       6   22701   22698       7   22707   22704       6   22710   22704
       6   22710   22707       7   22716   22713       6   22719   22713       6
   22719   22716       7   22725   22722       6   22728   22722       6   22728
   22725       7   22734   22731       6   22737   22731       6   22737   22734
       7   22743   22740       6   22746   22740       6   22746   22743       7
   22752   22749       6   22755   22749       6   22755   22752       7   22761
   22758       6   22764   22758       6   22764   22761       7   22770   22767
       6   22773   22767       6   22773   22770       7   22779   22776       6
   22782   22776       6   22782   22779       7   22788   22785       6   22791
   22785       6   22791   22788       7   22797   22794       6   22800   22794
       6   22800   22797       7   22806   22803       6   22809   22803       6
   22809   22806       7   22815   22812       6   22818   22812       6   22818
   22815       7   22824   22821       6   22827   22821       6   22827   22824
       7   22833   22830       6   22836   22830       6   22836   22833       7
   22842   22839       6   22845   22839       6   22845   22842       7   22851
   22848       6   22854   22848       6   22854   22851       7   22860   22857
       6   22863   22857       6   22863   22860       7   22869   22866       6
   22872   22866       6   22872   22869       7   22878   22875       6   22881
   22875       6   22881   22878       7   22887   22884       6   22890   22884
       6   22890   22887       7   22896   22893       6   22899   22893       6
   22899   22896       7   22905   22902       6   22908   22902       6   22908
   22905       7   22914   22911       6   22917   22911       6   22917   22914
       7   22923   22920       6   22926   22920       6   22926   22923       7
   22932   22929       6   22935   22929       6   22935   22932       7   22941
   22938       6   22944   22938       6   22944   22941       7   22950   22947
       6   22953   22947       6   22953   22950       7   22959   22956       6
   22962   22956       6   22962   22959       7   22968   22965       6   22971
   22965       6   22971   22968       7   22977   22974       6   22980   22974
       6   22980   22977       7   22986   22983       6   22989   22983       6
   22989   22986       7   22995   22992       6   22998   22992       6   22998
   22995       7   23004   23001       6   23007   23001       6   23007   23004
       7   23013   23010       6   23016   23010       6   23016   23013       7
   23022   23019       6   23025   23019       6   23025   23022       7   23031
   23028       6   23034   23028       6   23034   23031       7   23040   23037
       6   23043   23037       6   23043   23040       7   23049   23046       6
   23052   23046       6   23052   23049       7   23058   23055       6   23061
   23055       6   23061   23058       7   23067   23064       6   23070   23064
       6   23070   23067       7   23076   23073       6   23079   23073       6
   23079   23076       7   23085   23082       6   23088   23082       6   23088
   23085       7   23094   23091       6   23097   23091       6   23097   23094
       7   23103   23100       6   23106   23100       6   23106   23103       7
   23112   23109       6   23115   23109       6   23115   23112       7   23121
   23118       6   23124   23118       6   23124   23121       7   23130   23127
       6   23133   23127       6   23133   23130       7   23139   23136       6
   23142   23136       6   23142   23139       7   23148   23145       6   23151
   23145       6   23151   23148       7   23157   23154       6   23160   23154
       6   23160   23157       7   23166   23163       6   23169   23163       6
   23169   23166       7   23175   23172       6   23178   23172       6   23178
   23175       7   23184   23181       6   23187   23181       6   23187   23184
       7   23193   23190       6   23196   23190       6   23196   23193       7
   23202   23199       6   23205   23199       6   23205   23202       7   23211
   23208       6   23214   23208       6   23214   23211       7   23220   23217
       6   23223   23217       6   23223   23220       7   23229   23226       6
   23232   23226       6   23232   23229       7   23238   23235       6   23241
   23235       6   23241   23238       7   23247   23244       6   23250   23244
       6   23250   23247       7   23256   23253       6   23259   23253       6
   23259   23256       7   23265   23262       6   23268   23262       6   23268
   23265       7   23274   23271       6   23277   23271       6   23277   23274
       7   23283   23280       6   23286   23280       6   23286   23283       7
   23292   23289       6   23295   23289       6   23295   23292       7   23301
   23298       6   23304   23298       6   23304   23301       7   23310   23307
       6   23313   23307       6   23313   23310       7   23319   23316       6
   23322   23316       6   23322   23319       7   23328   23325       6   23331
   23325       6   23331   23328       7   23337   23334       6   23340   23334
       6   23340   23337       7   23346   23343       6   23349   23343       6
   23349   23346       7   23355   23352       6   23358   23352       6   23358
   23355       7   23364   23361       6   23367   23361       6   23367   23364
       7   23373   23370       6   23376   23370       6   23376   23373       7
   23382   23379       6   23385   23379       6   23385   23382       7   23391
   23388       6   23394   23388       6   23394   23391       7   23400   23397
       6   23403   23397       6   23403   23400       7   23409   23406       6
   23412   23406       6   23412   23409       7   23418   23415       6   23421
   23415       6   23421   23418       7   23427   23424       6   23430   23424
       6   23430   23427       7   23436   23433       6   23439   23433       6
   23439   23436       7   23445   23442       6   23448   23442       6   23448
   23445       7   23454   23451       6   23457   23451       6   23457   23454
       7   23463   23460       6   23466   23460       6   23466   23463       7
   23472   23469       6   23475   23469       6   23475   23472       7   23481
   23478       6   23484   23478       6   23484   23481       7   23490   23487
       6   23493   23487       6   23493   23490       7   23499   23496       6
   23502   23496       6   23502   23499       7   23508   23505       6   23511
   23505       6   23511   23508       7   23517   23514       6   23520   23514
       6   23520   23517       7   23526   23523       6   23529   23523       6
   23529   23526       7   23535   23532       6   23538   23532       6   23538
   23535       7   23544   23541       6   23547   23541       6   23547   23544
       7   23553   23550       6   23556   23550       6   23556   23553       7
   23562   23559       6   23565   23559       6   23565   23562       7   23571
   23568       6   23574   23568       6   23574   23571       7   23580   23577
       6   23583   23577       6   23583   23580       7   23589   23586       6
   23592   23586       6   23592   23589       7   23598   23595       6   23601
   23595       6   23601   23598       7   23607   23604       6   23610   23604
       6   23610   23607       7   23616   23613       6   23619   23613       6
   23619   23616       7   23625   23622       6   23628   23622       6   23628
   23625       7   23634   23631       6   23637   23631       6   23637   23634
       7   23643   23640       6   23646   23640       6   23646   23643       7
   23652   23649       6   23655   23649       6   23655   23652       7   23661
   23658       6   23664   23658       6   23664   23661       7   23670   23667
       6   23673   23667       6   23673   23670       7   23679   23676       6
   23682   23676       6   23682   23679       7   23688   23685       6   23691
   23685       6   23691   23688       7   23697   23694       6   23700   23694
       6   23700   23697       7   23706   23703       6   23709   23703       6
   23709   23706       7   23715   23712       6   23718   23712       6   23718
   23715       7   23724   23721       6   23727   23721       6   23727   23724
       7   23733   23730       6   23736   23730       6   23736   23733       7
   23742   23739       6   23745   23739       6   23745   23742       7   23751
   23748       6   23754   23748       6   23754   23751       7   23760   23757
       6   23763   23757       6   23763   23760       7   23769   23766       6
   23772   23766       6   23772   23769       7   23778   23775       6   23781
   23775       6   23781   23778       7   23787   23784       6   23790   23784
       6   23790   23787       7   23796   23793       6   23799   23793       6
   23799   23796       7   23805   23802       6   23808   23802       6   23808
   23805       7   23814   23811       6   23817   23811       6   23817   23814
       7   23823   23820       6   23826   23820       6   23826   23823       7
   23832   23829       6   23835   23829       6   23835   23832       7   23841
   23838       6   23844   23838       6   23844   23841       7   23850   23847
       6   23853   23847       6   23853   23850       7   23859   23856       6
   23862   23856       6   23862   23859       7   23868   23865       6   23871
   23865       6   23871   23868       7   23877   23874       6   23880   23874
       6   23880   23877       7   23886   23883       6   23889   23883       6
   23889   23886       7   23895   23892       6   23898   23892       6   23898
   23895       7   23904   23901       6   23907   23901       6   23907   23904
       7   23913   23910       6   23916   23910       6   23916   23913       7
   23922   23919       6   23925   23919       6   23925   23922       7   23931
   23928       6   23934   23928       6   23934   23931       7   23940   23937
       6   23943   23937       6   23943   23940       7   23949   23946       6
   23952   23946       6   23952   23949       7   23958   23955       6   23961
   23955       6   23961   23958       7   23967   23964       6   23970   23964
       6   23970   23967       7   23976   23973       6   23979   23973       6
   23979   23976       7   23985   23982       6   23988   23982       6   23988
   23985       7   23994   23991       6   23997   23991       6   23997   23994
       7   24003   24000       6   24006   24000       6   24006   24003       7
   24012   24009       6   24015   24009       6   24015   24012       7   24021
   24018       6   24024   24018       6   24024   24021       7   24030   24027
       6   24033   24027       6   24033   24030       7   24039   24036       6
   24042   24036       6   24042   24039       7   24048   24045       6   24051
   24045       6   24051   24048       7   24057   24054       6   24060   24054
       6   24060   24057       7   24066   24063       6   24069   24063       6
   24069   24066       7   24075   24072       6   24078   24072       6   24078
   24075       7   24084   24081       6   24087   24081       6   24087   24084
       7   24093   24090       6   24096   24090       6   24096   24093       7
   24102   24099       6   24105   24099       6   24105   24102       7   24111
   24108       6   24114   24108       6   24114   24111       7   24120   24117
       6   24123   24117       6   24123   24120       7   24129   24126       6
   24132   24126       6   24132   24129       7   24138   24135       6   24141
   24135       6   24141   24138       7   24147   24144       6   24150   24144
       6   24150   24147       7   24156   24153       6   24159   24153       6
   24159   24156       7   24165   24162       6   24168   24162       6   24168
   24165       7   24174   24171       6   24177   24171       6   24177   24174
       7   24183   24180       6   24186   24180       6   24186   24183       7
   24192   24189       6   24195   24189       6   24195   24192       7   24201
   24198       6   24204   24198       6   24204   24201       7   24210   24207
       6   24213   24207       6   24213   24210       7   24219   24216       6
   24222   24216       6   24222   24219       7   24228   24225       6   24231
   24225       6   24231   24228       7   24237   24234       6   24240   24234
       6   24240   24237       7   24246   24243       6   24249   24243       6
   24249   24246       7   24255   24252       6   24258   24252       6   24258
   24255       7   24264   24261       6   24267   24261       6   24267   24264
       7   24273   24270       6   24276   24270       6   24276   24273       7
   24282   24279       6   24285   24279       6   24285   24282       7   24291
   24288       6   24294   24288       6   24294   24291       7   24300   24297
       6   24303   24297       6   24303   24300       7   24309   24306       6
   24312   24306       6   24312   24309       7   24318   24315       6   24321
   24315       6   24321   24318       7   24327   24324       6   24330   24324
       6   24330   24327       7   24336   24333       6   24339   24333       6
   24339   24336       7   24345   24342       6   24348   24342       6   24348
   24345       7   24354   24351       6   24357   24351       6   24357   24354
       7   24363   24360       6   24366   24360       6   24366   24363       7
   24372   24369       6   24375   24369       6   24375   24372       7   24381
   24378       6   24384   24378       6   24384   24381       7   24390   24387
       6   24393   24387       6   24393   24390       7   24399   24396       6
   24402   24396       6   24402   24399       7   24408   24405       6   24411
   24405       6   24411   24408       7   24417   24414       6   24420   24414
       6   24420   24417       7   24426   24423       6   24429   24423       6
   24429   24426       7   24435   24432       6   24438   24432       6   24438
   24435       7   24444   24441       6   24447   24441       6   24447   24444
       7   24453   24450       6   24456   24450       6   24456   24453       7
   24462   24459       6   24465   24459       6   24465   24462       7   24471
   24468       6   24474   24468       6   24474   24471       7   24480   24477
       6   24483   24477       6   24483   24480       7   24489   24486       6
   24492   24486       6   24492   24489       7   24498   24495       6   24501
   24495       6   24501   24498       7   24507   24504       6   24510   24504
       6   24510   24507       7   24516   24513       6   24519   24513       6
   24519   24516       7   24525   24522       6   24528   24522       6   24528
   24525       7   24534   24531       6   24537   24531       6   24537   24534
       7   24543   24540       6   24546   24540       6   24546   24543       7
   24552   24549       6   24555   24549       6   24555   24552       7   24561
   24558       6   24564   24558       6   24564   24561       7   24570   24567
       6   24573   24567       6   24573   24570       7   24579   24576       6
   24582   24576       6   24582   24579       7   24588   24585       6   24591
   24585       6   24591   24588       7   24597   24594       6   24600   24594
       6   24600   24597       7   24606   24603       6   24609   24603       6
   24609   24606       7   24615   24612       6   24618   24612       6   24618
   24615       7   24624   24621       6   24627   24621       6   24627   24624
       7   24633   24630       6   24636   24630       6   24636   24633       7
   24642   24639       6   24645   24639       6   24645   24642       7   24651
   24648       6   24654   24648       6   24654   24651       7   24660   24657
       6   24663   24657       6   24663   24660       7   24669   24666       6
   24672   24666       6   24672   24669       7   24678   24675       6   24681
   24675       6   24681   24678       7   24687   24684       6   24690   24684
       6   24690   24687       7   24696   24693       6   24699   24693       6
   24699   24696       7   24705   24702       6   24708   24702       6   24708
   24705       7   24714   24711       6   24717   24711       6   24717   24714
       7   24723   24720       6   24726   24720       6   24726   24723       7
   24732   24729       6   24735   24729       6   24735   24732       7   24741
   24738       6   24744   24738       6   24744   24741       7   24750   24747
       6   24753   24747       6   24753   24750       7   24759   24756       6
   24762   24756       6   24762   24759       7   24768   24765       6   24771
   24765       6   24771   24768       7   24777   24774       6   24780   24774
       6   24780   24777       7   24786   24783       6   24789   24783       6
   24789   24786       7   24795   24792       6   24798   24792       6   24798
   24795       7   24804   24801       6   24807   24801       6   24807   24804
       7   24813   24810       6   24816   24810       6   24816   24813       7
   24822   24819       6   24825   24819       6   24825   24822       7   24831
   24828       6   24834   24828       6   24834   24831       7   24840   24837
       6   24843   24837       6   24843   24840       7   24849   24846       6
   24852   24846       6   24852   24849       7   24858   24855       6   24861
   24855       6   24861   24858       7   24867   24864       6   24870   24864
       6   24870   24867       7   24876   24873       6   24879   24873       6
   24879   24876       7   24885   24882       6   24888   24882       6   24888
   24885       7   24894   24891       6   24897   24891       6   24897   24894
       7   24903   24900       6   24906   24900       6   24906   24903       7
   24912   24909       6   24915   24909       6   24915   24912       7   24921
   24918       6   24924   24918       6   24924   24921       7   24930   24927
       6   24933   24927       6   24933   24930       7   24939   24936       6
   24942   24936       6   24942   24939       7   24948   24945       6   24951
   24945       6   24951   24948       7   24957   24954       6   24960   24954
       6   24960   24957       7   24966   24963       6   24969   24963       6
   24969   24966       7   24975   24972       6   24978   24972       6   24978
   24975       7   24984   24981       6   24987   24981       6   24987   24984
       7   24993   24990       6   24996   24990       6   24996   24993       7
   25002   24999       6   25005   24999       6   25005   25002       7   25011
   25008       6   25014   25008       6   25014   25011       7   25020   25017
       6   25023   25017       6   25023   25020       7   25029   25026       6
   25032   25026       6   25032   25029       7   25038   25035       6   25041
   25035       6   25041   25038       7   25047   25044       6   25050   25044
       6   25050   25047       7   25056   25053       6   25059   25053       6
   25059   25056       7   25065   25062       6   25068   25062       6   25068
   25065       7   25074   25071       6   25077   25071       6   25077   25074
       7   25083   25080       6   25086   25080       6   25086   25083       7
   25092   25089       6   25095   25089       6   25095   25092       7   25101
   25098       6   25104   25098       6   25104   25101       7   25110   25107
       6   25113   25107       6   25113   25110       7   25119   25116       6
   25122   25116       6   25122   25119       7   25128   25125       6   25131
   25125       6   25131   25128       7   25137   25134       6   25140   25134
       6   25140   25137       7   25146   25143       6   25149   25143       6
   25149   25146       7   25155   25152       6   25158   25152       6   25158
   25155       7   25164   25161       6   25167   25161       6   25167   25164
       7   25173   25170       6   25176   25170       6   25176   25173       7
   25182   25179       6   25185   25179       6   25185   25182       7   25191
   25188       6   25194   25188       6   25194   25191       7   25200   25197
       6   25203   25197       6   25203   25200       7   25209   25206       6
   25212   25206       6   25212   25209       7   25218   25215       6   25221
   25215       6   25221   25218       7   25227   25224       6   25230   25224
       6   25230   25227       7   25236   25233       6   25239   25233       6
   25239   25236       7   25245   25242       6   25248   25242       6   25248
   25245       7   25254   25251       6   25257   25251       6   25257   25254
       7   25263   25260       6   25266   25260       6   25266   25263       7
   25272   25269       6   25275   25269       6   25275   25272       7   25281
   25278       6   25284   25278       6   25284   25281       7   25290   25287
       6   25293   25287       6   25293   25290       7   25299   25296       6
   25302   25296       6   25302   25299       7   25308   25305       6   25311
   25305       6   25311   25308       7   25317   25314       6   25320   25314
       6   25320   25317       7   25326   25323       6   25329   25323       6
   25329   25326       7   25335   25332       6   25338   25332       6   25338
   25335       7   25344   25341       6   25347   25341       6   25347   25344
       7   25353   25350       6   25356   25350       6   25356   25353       7
   25362   25359       6   25365   25359       6   25365   25362       7   25371
   25368       6   25374   25368       6   25374   25371       7   25380   25377
       6   25383   25377       6   25383   25380       7   25389   25386       6
   25392   25386       6   25392   25389       7   25398   25395       6   25401
   25395       6   25401   25398       7   25407   25404       6   25410   25404
       6   25410   25407       7   25416   25413       6   25419   25413       6
   25419   25416       7   25425   25422       6   25428   25422       6   25428
   25425       7   25434   25431       6   25437   25431       6   25437   25434
       7   25443   25440       6   25446   25440       6   25446   25443       7
   25452   25449       6   25455   25449       6   25455   25452       7   25461
   25458       6   25464   25458       6   25464   25461       7   25470   25467
       6   25473   25467       6   25473   25470       7   25479   25476       6
   25482   25476       6   25482   25479       7   25488   25485       6   25491
   25485       6   25491   25488       7   25497   25494       6   25500   25494
       6   25500   25497       7   25506   25503       6   25509   25503       6
   25509   25506       7   25515   25512       6   25518   25512       6   25518
   25515       7   25524   25521       6   25527   25521       6   25527   25524
       7   25533   25530       6   25536   25530       6   25536   25533       7
   25542   25539       6   25545   25539       6   25545   25542       7   25551
   25548       6   25554   25548       6   25554   25551       7   25560   25557
       6   25563   25557       6   25563   25560       7   25569   25566       6
   25572   25566       6   25572   25569       7   25578   25575       6   25581
   25575       6   25581   25578       7   25587   25584       6   25590   25584
       6   25590   25587       7   25596   25593       6   25599   25593       6
   25599   25596       7   25605   25602       6   25608   25602       6   25608
   25605       7   25614   25611       6   25617   25611       6   25617   25614
       7   25623   25620       6   25626   25620       6   25626   25623       7
   25632   25629       6   25635   25629       6   25635   25632       7   25641
   25638       6   25644   25638       6   25644   25641       7   25650   25647
       6   25653   25647       6   25653   25650       7   25659   25656       6
   25662   25656       6   25662   25659       7   25668   25665       6   25671
   25665       6   25671   25668       7   25677   25674       6   25680   25674
       6   25680   25677       7   25686   25683       6   25689   25683       6
   25689   25686       7   25695   25692       6   25698   25692       6   25698
   25695       7   25704   25701       6   25707   25701       6   25707   25704
       7   25713   25710       6   25716   25710       6   25716   25713       7
   25722   25719       6   25725   25719       6   25725   25722       7   25731
   25728       6   25734   25728       6   25734   25731       7   25740   25737
       6   25743   25737       6   25743   25740       7   25749   25746       6
   25752   25746       6   25752   25749       7   25758   25755       6   25761
   25755       6   25761   25758       7   25767   25764       6   25770   25764
       6   25770   25767       7   25776   25773       6   25779   25773       6
   25779   25776       7   25785   25782       6   25788   25782       6   25788
   25785       7   25794   25791       6   25797   25791       6   25797   25794
       7   25803   25800       6   25806   25800       6   25806   25803       7
   25812   25809       6   25815   25809       6   25815   25812       7   25821
   25818       6   25824   25818       6   25824   25821       7   25830   25827
       6   25833   25827       6   25833   25830       7   25839   25836       6
   25842   25836       6   25842   25839       7   25848   25845       6   25851
   25845       6   25851   25848       7   25857   25854       6   25860   25854
       6   25860   25857       7   25866   25863       6   25869   25863       6
   25869   25866       7   25875   25872       6   25878   25872       6   25878
   25875       7   25884   25881       6   25887   25881       6   25887   25884
       7   25893   25890       6   25896   25890       6   25896   25893       7
   25902   25899       6   25905   25899       6   25905   25902       7   25911
   25908       6   25914   25908       6   25914   25911       7   25920   25917
       6   25923   25917       6   25923   25920       7   25929   25926       6
   25932   25926       6   25932   25929       7   25938   25935       6   25941
   25935       6   25941   25938       7   25947   25944       6   25950   25944
       6   25950   25947       7   25956   25953       6   25959   25953       6
   25959   25956       7   25965   25962       6   25968   25962       6   25968
   25965       7   25974   25971       6   25977   25971       6   25977   25974
       7   25983   25980       6   25986   25980       6   25986   25983       7
   25992   25989       6   25995   25989       6   25995   25992       7   26001
   25998       6   26004   25998       6   26004   26001       7   26010   26007
       6   26013   26007       6   26013   26010       7   26019   26016       6
   26022   26016       6   26022   26019       7   26028   26025       6   26031
   26025       6   26031   26028       7   26037   26034       6   26040   26034
       6   26040   26037       7   26046   26043       6   26049   26043       6
   26049   26046       7   26055   26052       6   26058   26052       6   26058
   26055       7   26064   26061       6   26067   26061       6   26067   26064
       7   26073   26070       6   26076   26070       6   26076   26073       7
   26082   26079       6   26085   26079       6   26085   26082       7   26091
   26088       6   26094   26088       6   26094   26091       7   26100   26097
       6   26103   26097       6   26103   26100       7   26109   26106       6
   26112   26106       6   26112   26109       7   26118   26115       6   26121
   26115       6   26121   26118       7   26127   26124       6   26130   26124
       6   26130   26127       7   26136   26133       6   26139   26133       6
   26139   26136       7   26145   26142       6   26148   26142       6   26148
   26145       7   26154   26151       6   26157   26151       6   26157   26154
       7   26163   26160       6   26166   26160       6   26166   26163       7
   26172   26169       6   26175   26169       6   26175   26172       7   26181
   26178       6   26184   26178       6   26184   26181       7   26190   26187
       6   26193   26187       6   26193   26190       7   26199   26196       6
   26202   26196       6   26202   26199       7   26208   26205       6   26211
   26205       6   26211   26208       7   26217   26214       6   26220   26214
       6   26220   26217       7   26226   26223       6   26229   26223       6
   26229   26226       7   26235   26232       6   26238   26232       6   26238
   26235       7   26244   26241       6   26247   26241       6   26247   26244
       7   26253   26250       6   26256   26250       6   26256   26253       7
   26262   26259       6   26265   26259       6   26265   26262       7   26271
   26268       6   26274   26268       6   26274   26271       7   26280   26277
       6   26283   26277       6   26283   26280       7   26289   26286       6
   26292   26286       6   26292   26289       7   26298   26295       6   26301
   26295       6   26301   26298       7   26307   26304       6   26310   26304
       6   26310   26307       7   26316   26313       6   26319   26313       6
   26319   26316       7   26325   26322       6   26328   26322       6   26328
   26325       7   26334   26331       6   26337   26331       6   26337   26334
       7   26343   26340       6   26346   26340       6   26346   26343       7
   26352   26349       6   26355   26349       6   26355   26352       7   26361
   26358       6   26364   26358       6   26364   26361       7   26370   26367
       6   26373   26367       6   26373   26370       7   26379   26376       6
   26382   26376       6   26382   26379       7   26388   26385       6   26391
   26385       6   26391   26388       7   26397   26394       6   26400   26394
       6   26400   26397       7   26406   26403       6   26409   26403       6
   26409   26406       7   26415   26412       6   26418   26412       6   26418
   26415       7   26424   26421       6   26427   26421       6   26427   26424
       7   26433   26430       6   26436   26430       6   26436   26433       7
   26442   26439       6   26445   26439       6   26445   26442       7   26451
   26448       6   26454   26448       6   26454   26451       7   26460   26457
       6   26463   26457       6   26463   26460       7   26469   26466       6
   26472   26466       6   26472   26469       7   26478   26475       6   26481
   26475       6   26481   26478       7   26487   26484       6   26490   26484
       6   26490   26487       7   26496   26493       6   26499   26493       6
   26499   26496       7   26505   26502       6   26508   26502       6   26508
   26505       7   26514   26511       6   26517   26511       6   26517   26514
       7   26523   26520       6   26526   26520       6   26526   26523       7
   26532   26529       6   26535   26529       6   26535   26532       7   26541
   26538       6   26544   26538       6   26544   26541       7   26550   26547
       6   26553   26547       6   26553   26550       7   26559   26556       6
   26562   26556       6   26562   26559       7   26568   26565       6   26571
   26565       6   26571   26568       7   26577   26574       6   26580   26574
       6   26580   26577       7   26586   26583       6   26589   26583       6
   26589   26586       7   26595   26592       6   26598   26592       6   26598
   26595       7   26604   26601       6   26607   26601       6   26607   26604
       7   26613   26610       6   26616   26610       6   26616   26613       7
   26622   26619       6   26625   26619       6   26625   26622       7   26631
   26628       6   26634   26628       6   26634   26631       7   26640   26637
       6   26643   26637       6   26643   26640       7   26649   26646       6
   26652   26646       6   26652   26649       7   26658   26655       6   26661
   26655       6   26661   26658       7   26667   26664       6   26670   26664
       6   26670   26667       7   26676   26673       6   26679   26673       6
   26679   26676       7   26685   26682       6   26688   26682       6   26688
   26685       7   26694   26691       6   26697   26691       6   26697   26694
       7   26703   26700       6   26706   26700       6   26706   26703       7
   26712   26709       6   26715   26709       6   26715   26712       7   26721
   26718       6   26724   26718       6   26724   26721       7   26730   26727
       6   26733   26727       6   26733   26730       7   26739   26736       6
   26742   26736       6   26742   26739       7   26748   26745       6   26751
   26745       6   26751   26748       7   26757   26754       6   26760   26754
       6   26760   26757       7   26766   26763       6   26769   26763       6
   26769   26766       7   26775   26772       6   26778   26772       6   26778
   26775       7   26784   26781       6   26787   26781       6   26787   26784
       7   26793   26790       6   26796   26790       6   26796   26793       7
   26802   26799       6   26805   26799       6   26805   26802       7   26811
   26808       6   26814   26808       6   26814   26811       7   26820   26817
       6   26823   26817       6   26823   26820       7   26829   26826       6
   26832   26826       6   26832   26829       7   26838   26835       6   26841
   26835       6   26841   26838       7   26847   26844       6   26850   26844
       6   26850   26847       7   26856   26853       6   26859   26853       6
   26859   26856       7   26865   26862       6   26868   26862       6   26868
   26865       7   26874   26871       6   26877   26871       6   26877   26874
       7   26883   26880       6   26886   26880       6   26886   26883       7
   26892   26889       6   26895   26889       6   26895   26892       7   26901
   26898       6   26904   26898       6   26904   26901       7   26910   26907
       6   26913   26907       6   26913   26910       7   26919   26916       6
   26922   26916       6   26922   26919       7   26928   26925       6   26931
   26925       6   26931   26928       7   26937   26934       6   26940   26934
       6   26940   26937       7   26946   26943       6   26949   26943       6
   26949   26946       7   26955   26952       6   26958   26952       6   26958
   26955       7   26964   26961       6   26967   26961       6   26967   26964
       7   26973   26970       6   26976   26970       6   26976   26973       7
   26982   26979       6   26985   26979       6   26985   26982       7   26991
   26988       6   26994   26988       6   26994   26991       7   27000   26997
       6   27003   26997       6   27003   27000       7   27009   27006       6
   27012   27006       6   27012   27009       7   27018   27015       6   27021
   27015       6   27021   27018       7   27027   27024       6   27030   27024
       6   27030   27027       7   27036   27033       6   27039   27033       6
   27039   27036       7   27045   27042       6   27048   27042       6   27048
   27045       7   27054   27051       6   27057   27051       6   27057   27054
       7   27063   27060       6   27066   27060       6   27066   27063       7
   27072   27069       6   27075   27069       6   27075   27072       7   27081
   27078       6   27084   27078       6   27084   27081       7   27090   27087
       6   27093   27087       6   27093   27090       7   27099   27096       6
   27102   27096       6   27102   27099       7   27108   27105       6   27111
   27105       6   27111   27108       7   27117   27114       6   27120   27114
       6   27120   27117       7   27126   27123       6   27129   27123       6
   27129   27126       7   27135   27132       6   27138   27132       6   27138
   27135       7   27144   27141       6   27147   27141       6   27147   27144
       7   27153   27150       6   27156   27150       6   27156   27153       7
   27162   27159       6   27165   27159       6   27165   27162       7   27171
   27168       6   27174   27168       6   27174   27171       7   27180   27177
       6   27183   27177       6   27183   27180       7   27189   27186       6
   27192   27186       6   27192   27189       7   27198   27195       6   27201
   27195       6   27201   27198       7   27207   27204       6   27210   27204
       6   27210   27207       7   27216   27213       6   27219   27213       6
   27219   27216       7   27225   27222       6   27228   27222       6   27228
   27225       7   27234   27231       6   27237   27231       6   27237   27234
       7   27243   27240       6   27246   27240       6   27246   27243       7
   27252   27249       6   27255   27249       6   27255   27252       7   27261
   27258       6   27264   27258       6   27264   27261       7   27270   27267
       6   27273   27267       6   27273   27270       7   27279   27276       6
   27282   27276       6   27282   27279       7   27288   27285       6   27291
   27285       6   27291   27288       7   27297   27294       6   27300   27294
       6   27300   27297       7   27306   27303       6   27309   27303       6
   27309   27306       7   27315   27312       6   27318   27312       6   27318
   27315       7   27324   27321       6   27327   27321       6   27327   27324
       7   27333   27330       6   27336   27330       6   27336   27333       7
   27342   27339       6   27345   27339       6   27345   27342       7   27351
   27348       6   27354   27348       6   27354   27351       7   27360   27357
       6   27363   27357       6   27363   27360       7   27369   27366       6
   27372   27366       6   27372   27369       7   27378   27375       6   27381
   27375       6   27381   27378       7   27387   27384       6   27390   27384
       6   27390   27387       7   27396   27393       6   27399   27393       6
   27399   27396       7   27405   27402       6   27408   27402       6   27408
   27405       7   27414   27411       6   27417   27411       6   27417   27414
       7   27423   27420       6   27426   27420       6   27426   27423       7
   27432   27429       6   27435   27429       6   27435   27432       7   27441
   27438       6   27444   27438       6   27444   27441       7   27450   27447
       6   27453   27447       6   27453   27450       7   27459   27456       6
   27462   27456       6   27462   27459       7   27468   27465       6   27471
   27465       6   27471   27468       7   27477   27474       6   27480   27474
       6   27480   27477       7   27486   27483       6   27489   27483       6
   27489   27486       7   27495   27492       6   27498   27492       6   27498
   27495       7   27504   27501       6   27507   27501       6   27507   27504
       7   27513   27510       6   27516   27510       6   27516   27513       7
   27522   27519       6   27525   27519       6   27525   27522       7   27531
   27528       6   27534   27528       6   27534   27531       7   27540   27537
       6   27543   27537       6   27543   27540       7   27549   27546       6
   27552   27546       6   27552   27549       7   27558   27555       6   27561
   27555       6   27561   27558       7   27567   27564       6   27570   27564
       6   27570   27567       7   27576   27573       6   27579   27573       6
   27579   27576       7   27585   27582       6   27588   27582       6   27588
   27585       7   27594   27591       6   27597   27591       6   27597   27594
       7   27603   27600       6   27606   27600       6   27606   27603       7
   27612   27609       6   27615   27609       6   27615   27612       7   27621
   27618       6   27624   27618       6   27624   27621       7   27630   27627
       6   27633   27627       6   27633   27630       7   27639   27636       6
   27642   27636       6   27642   27639       7   27648   27645       6   27651
   27645       6   27651   27648       7   27657   27654       6   27660   27654
       6   27660   27657       7   27666   27663       6   27669   27663       6
   27669   27666       7   27675   27672       6   27678   27672       6   27678
   27675       7   27684   27681       6   27687   27681       6   27687   27684
       7   27693   27690       6   27696   27690       6   27696   27693       7
   27702   27699       6   27705   27699       6   27705   27702       7   27711
   27708       6   27714   27708       6   27714   27711       7   27720   27717
       6   27723   27717       6   27723   27720       7   27729   27726       6
   27732   27726       6   27732   27729       7   27738   27735       6   27741
   27735       6   27741   27738       7   27747   27744       6   27750   27744
       6   27750   27747       7   27756   27753       6   27759   27753       6
   27759   27756       7   27765   27762       6   27768   27762       6   27768
   27765       7   27774   27771       6   27777   27771       6   27777   27774
       7   27783   27780       6   27786   27780       6   27786   27783       7
   27792   27789       6   27795   27789       6   27795   27792       7   27801
   27798       6   27804   27798       6   27804   27801       7   27810   27807
       6   27813   27807       6   27813   27810       7   27819   27816       6
   27822   27816       6   27822   27819       7   27828   27825       6   27831
   27825       6   27831   27828       7   27837   27834       6   27840   27834
       6   27840   27837       7   27846   27843       6   27849   27843       6
   27849   27846       7   27855   27852       6   27858   27852       6   27858
   27855       7   27864   27861       6   27867   27861       6   27867   27864
       7   27873   27870       6   27876   27870       6   27876   27873       7
   27882   27879       6   27885   27879       6   27885   27882       7   27891
   27888       6   27894   27888       6   27894   27891       7   27900   27897
       6   27903   27897       6   27903   27900       7   27909   27906       6
   27912   27906       6   27912   27909       7   27918   27915       6   27921
   27915       6   27921   27918       7   27927   27924       6   27930   27924
       6   27930   27927       7   27936   27933       6   27939   27933       6
   27939   27936       7   27945   27942       6   27948   27942       6   27948
   27945       7   27954   27951       6   27957   27951       6   27957   27954
       7   27963   27960       6   27966   27960       6   27966   27963       7
   27972   27969       6   27975   27969       6   27975   27972       7   27981
   27978       6   27984   27978       6   27984   27981       7   27990   27987
       6   27993   27987       6   27993   27990       7   27999   27996       6
   28002   27996       6   28002   27999       7   28008   28005       6   28011
   28005       6   28011   28008       7   28017   28014       6   28020   28014
       6   28020   28017       7   28026   28023       6   28029   28023       6
   28029   28026       7   28035   28032       6   28038   28032       6   28038
   28035       7   28044   28041       6   28047   28041       6   28047   28044
       7   28053   28050       6   28056   28050       6   28056   28053       7
   28062   28059       6   28065   28059       6   28065   28062       7   28071
   28068       6   28074   28068       6   28074   28071       7   28080   28077
       6   28083   28077       6   28083   28080       7   28089   28086       6
   28092   28086       6   28092   28089       7   28098   28095       6   28101
   28095       6   28101   28098       7   28107   28104       6   28110   28104
       6   28110   28107       7   28116   28113       6   28119   28113       6
   28119   28116       7   28125   28122       6   28128   28122       6   28128
   28125       7   28134   28131       6   28137   28131       6   28137   28134
       7   28143   28140       6   28146   28140       6   28146   28143       7
   28152   28149       6   28155   28149       6   28155   28152       7   28161
   28158       6   28164   28158       6   28164   28161       7   28170   28167
       6   28173   28167       6   28173   28170       7   28179   28176       6
   28182   28176       6   28182   28179       7   28188   28185       6   28191
   28185       6   28191   28188       7   28197   28194       6   28200   28194
       6   28200   28197       7   28206   28203       6   28209   28203       6
   28209   28206       7   28215   28212       6   28218   28212       6   28218
   28215       7   28224   28221       6   28227   28221       6   28227   28224
       7   28233   28230       6   28236   28230       6   28236   28233       7
   28242   28239       6   28245   28239       6   28245   28242       7   28251
   28248       6   28254   28248       6   28254   28251       7   28260   28257
       6   28263   28257       6   28263   28260       7   28269   28266       6
   28272   28266       6   28272   28269       7   28278   28275       6   28281
   28275       6   28281   28278       7   28287   28284       6   28290   28284
       6   28290   28287       7   28296   28293       6   28299   28293       6
   28299   28296       7   28305   28302       6   28308   28302       6   28308
   28305       7   28314   28311       6   28317   28311       6   28317   28314
       7   28323   28320       6   28326   28320       6   28326   28323       7
   28332   28329       6   28335   28329       6   28335   28332       7   28341
   28338       6   28344   28338       6   28344   28341       7   28350   28347
       6   28353   28347       6   28353   28350       7   28359   28356       6
   28362   28356       6   28362   28359       7   28368   28365       6   28371
   28365       6   28371   28368       7   28377   28374       6   28380   28374
       6   28380   28377       7   28386   28383       6   28389   28383       6
   28389   28386       7   28395   28392       6   28398   28392       6   28398
   28395       7   28404   28401       6   28407   28401       6   28407   28404
       7   28413   28410       6   28416   28410       6   28416   28413       7
   28422   28419       6   28425   28419       6   28425   28422       7   28431
   28428       6   28434   28428       6   28434   28431       7   28440   28437
       6   28443   28437       6   28443   28440       7   28449   28446       6
   28452   28446       6   28452   28449       7   28458   28455       6   28461
   28455       6   28461   28458       7   28467   28464       6   28470   28464
       6   28470   28467       7   28476   28473       6   28479   28473       6
   28479   28476       7   28485   28482       6   28488   28482       6   28488
   28485       7   28494   28491       6   28497   28491       6   28497   28494
       7   28503   28500       6   28506   28500       6   28506   28503       7
   28512   28509       6   28515   28509       6   28515   28512       7   28521
   28518       6   28524   28518       6   28524   28521       7   28530   28527
       6   28533   28527       6   28533   28530       7   28539   28536       6
   28542   28536       6   28542   28539       7   28548   28545       6   28551
   28545       6   28551   28548       7   28557   28554       6   28560   28554
       6   28560   28557       7   28566   28563       6   28569   28563       6
   28569   28566       7   28575   28572       6   28578   28572       6   28578
   28575       7   28584   28581       6   28587   28581       6   28587   28584
       7   28593   28590       6   28596   28590       6   28596   28593       7
   28602   28599       6   28605   28599       6   28605   28602       7   28611
   28608       6   28614   28608       6   28614   28611       7   28620   28617
       6   28623   28617       6   28623   28620       7   28629   28626       6
   28632   28626       6   28632   28629       7   28638   28635       6   28641
   28635       6   28641   28638       7   28647   28644       6   28650   28644
       6   28650   28647       7   28656   28653       6   28659   28653       6
   28659   28656       7   28665   28662       6   28668   28662       6   28668
   28665       7   28674   28671       6   28677   28671       6   28677   28674
       7   28683   28680       6   28686   28680       6   28686   28683       7
   28692   28689       6   28695   28689       6   28695   28692       7   28701
   28698       6   28704   28698       6   28704   28701       7   28710   28707
       6   28713   28707       6   28713   28710       7   28719   28716       6
   28722   28716       6   28722   28719       7   28728   28725       6   28731
   28725       6   28731   28728       7   28737   28734       6   28740   28734
       6   28740   28737       7   28746   28743       6   28749   28743       6
   28749   28746       7   28755   28752       6   28758   28752       6   28758
   28755       7   28764   28761       6   28767   28761       6   28767   28764
       7   28773   28770       6   28776   28770       6   28776   28773       7
   28782   28779       6   28785   28779       6   28785   28782       7   28791
   28788       6   28794   28788       6   28794   28791       7   28800   28797
       6   28803   28797       6   28803   28800       7   28809   28806       6
   28812   28806       6   28812   28809       7   28818   28815       6   28821
   28815       6   28821   28818       7   28827   28824       6   28830   28824
       6   28830   28827       7   28836   28833       6   28839   28833       6
   28839   28836       7   28845   28842       6   28848   28842       6   28848
   28845       7   28854   28851       6   28857   28851       6   28857   28854
       7   28863   28860       6   28866   28860       6   28866   28863       7
   28872   28869       6   28875   28869       6   28875   28872       7   28881
   28878       6   28884   28878       6   28884   28881       7   28890   28887
       6   28893   28887       6   28893   28890       7   28899   28896       6
   28902   28896       6   28902   28899       7   28908   28905       6   28911
   28905       6   28911   28908       7   28917   28914       6   28920   28914
       6   28920   28917       7   28926   28923       6   28929   28923       6
   28929   28926       7   28935   28932       6   28938   28932       6   28938
   28935       7   28944   28941       6   28947   28941       6   28947   28944
       7   28953   28950       6   28956   28950       6   28956   28953       7
   28962   28959       6   28965   28959       6   28965   28962       7   28971
   28968       6   28974   28968       6   28974   28971       7   28980   28977
       6   28983   28977       6   28983   28980       7   28989   28986       6
   28992   28986       6   28992   28989       7   28998   28995       6   29001
   28995       6   29001   28998       7   29007   29004       6   29010   29004
       6   29010   29007       7   29016   29013       6   29019   29013       6
   29019   29016       7   29025   29022       6   29028   29022       6   29028
   29025       7   29034   29031       6   29037   29031       6   29037   29034
       7   29043   29040       6   29046   29040       6   29046   29043       7
   29052   29049       6   29055   29049       6   29055   29052       7   29061
   29058       6   29064   29058       6   29064   29061       7   29070   29067
       6   29073   29067       6   29073   29070       7   29079   29076       6
   29082   29076       6   29082   29079       7   29088   29085       6   29091
   29085       6   29091   29088       7   29097   29094       6   29100   29094
       6   29100   29097       7   29106   29103       6   29109   29103       6
   29109   29106       7   29115   29112       6   29118   29112       6   29118
   29115       7   29124   29121       6   29127   29121       6   29127   29124
       7   29133   29130       6   29136   29130       6   29136   29133       7
   29142   29139       6   29145   29139       6   29145   29142       7   29151
   29148       6   29154   29148       6   29154   29151       7   29160   29157
       6   29163   29157       6   29163   29160       7   29169   29166       6
   29172   29166       6   29172   29169       7   29178   29175       6   29181
   29175       6   29181   29178       7   29187   29184       6   29190   29184
       6   29190   29187       7   29196   29193       6   29199   29193       6
   29199   29196       7   29205   29202       6   29208   29202       6   29208
   29205       7   29214   29211       6   29217   29211       6   29217   29214
       7   29223   29220       6   29226   29220       6   29226   29223       7
   29232   29229       6   29235   29229       6   29235   29232       7   29241
   29238       6   29244   29238       6   29244   29241       7   29250   29247
       6   29253   29247       6   29253   29250       7   29259   29256       6
   29262   29256       6   29262   29259       7   29268   29265       6   29271
   29265       6   29271   29268       7   29277   29274       6   29280   29274
       6   29280   29277       7   29286   29283       6   29289   29283       6
   29289   29286       7   29295   29292       6   29298   29292       6   29298
   29295       7   29304   29301       6   29307   29301       6   29307   29304
       7   29313   29310       6   29316   29310       6   29316   29313       7
   29322   29319       6   29325   29319       6   29325   29322       7   29331
   29328       6   29334   29328       6   29334   29331       7   29340   29337
       6   29343   29337       6   29343   29340       7   29349   29346       6
   29352   29346       6   29352   29349       7   29358   29355       6   29361
   29355       6   29361   29358       7   29367   29364       6   29370   29364
       6   29370   29367       7   29376   29373       6   29379   29373       6
   29379   29376       7   29385   29382       6   29388   29382       6   29388
   29385       7   29394   29391       6   29397   29391       6   29397   29394
       7   29403   29400       6   29406   29400       6   29406   29403       7
   29412   29409       6   29415   29409       6   29415   29412       7   29421
   29418       6   29424   29418       6   29424   29421       7   29430   29427
       6   29433   29427       6   29433   29430       7   29439   29436       6
   29442   29436       6   29442   29439       7   29448   29445       6   29451
   29445       6   29451   29448       7   29457   29454       6   29460   29454
       6   29460   29457       7   29466   29463       6   29469   29463       6
   29469   29466       7   29475   29472       6   29478   29472       6   29478
   29475       7   29484   29481       6   29487   29481       6   29487   29484
       7   29493   29490       6   29496   29490       6   29496   29493       7
   29502   29499       6   29505   29499       6   29505   29502       7   29511
   29508       6   29514   29508       6   29514   29511       7   29520   29517
       6   29523   29517       6   29523   29520       7   29529   29526       6
   29532   29526       6   29532   29529       7   29538   29535       6   29541
   29535       6   29541   29538       7   29547   29544       6   29550   29544
       6   29550   29547       7   29556   29553       6   29559   29553       6
   29559   29556       7   29565   29562       6   29568   29562       6   29568
   29565       7   29574   29571       6   29577   29571       6   29577   29574
       7   29583   29580       6   29586   29580       6   29586   29583       7
   29592   29589       6   29595   29589       6   29595   29592       7   29601
   29598       6   29604   29598       6   29604   29601       7   29610   29607
       6   29613   29607       6   29613   29610       7   29619   29616       6
   29622   29616       6   29622   29619       7   29628   29625       6   29631
   29625       6   29631   29628       7   29637   29634       6   29640   29634
       6   29640   29637       7   29646   29643       6   29649   29643       6
   29649   29646       7   29655   29652       6   29658   29652       6   29658
   29655       7   29664   29661       6   29667   29661       6   29667   29664
       7   29673   29670       6   29676   29670       6   29676   29673       7
   29682   29679       6   29685   29679       6   29685   29682       7   29691
   29688       6   29694   29688       6   29694   29691       7   29700   29697
       6   29703   29697       6   29703   29700       7   29709   29706       6
   29712   29706       6   29712   29709       7   29718   29715       6   29721
   29715       6   29721   29718       7   29727   29724       6   29730   29724
       6   29730   29727       7   29736   29733       6   29739   29733       6
   29739   29736       7   29745   29742       6   29748   29742       6   29748
   29745       7   29754   29751       6   29757   29751       6   29757   29754
       7   29763   29760       6   29766   29760       6   29766   29763       7
   29772   29769       6   29775   29769       6   29775   29772       7   29781
   29778       6   29784   29778       6   29784   29781       7   29790   29787
       6   29793   29787       6   29793   29790       7   29799   29796       6
   29802   29796       6   29802   29799       7   29808   29805       6   29811
   29805       6   29811   29808       7   29817   29814       6   29820   29814
       6   29820   29817       7   29826   29823       6   29829   29823       6
   29829   29826       7   29835   29832       6   29838   29832       6   29838
   29835       7   29844   29841       6   29847   29841       6   29847   29844
       7   29853   29850       6   29856   29850       6   29856   29853       7
   29862   29859       6   29865   29859       6   29865   29862       7   29871
   29868       6   29874   29868       6   29874   29871       7   29880   29877
       6   29883   29877       6   29883   29880       7   29889   29886       6
   29892   29886       6   29892   29889       7   29898   29895       6   29901
   29895       6   29901   29898       7   29907   29904       6   29910   29904
       6   29910   29907       7   29916   29913       6   29919   29913       6
   29919   29916       7   29925   29922       6   29928   29922       6   29928
   29925       7   29934   29931       6   29937   29931       6   29937   29934
       7   29943   29940       6   29946   29940       6   29946   29943       7
   29952   29949       6   29955   29949       6   29955   29952       7   29961
   29958       6   29964   29958       6   29964   29961       7   29970   29967
       6   29973   29967       6   29973   29970       7   29979   29976       6
   29982   29976       6   29982   29979       7   29988   29985       6   29991
   29985       6   29991   29988       7   29997   29994       6   30000   29994
       6   30000   29997       7   30006   30003       6   30009   30003       6
   30009   30006       7   30015   30012       6   30018   30012       6   30018
   30015       7   30024   30021       6   30027   30021       6   30027   30024
       7   30033   30030       6   30036   30030       6   30036   30033       7
   30042   30039       6   30045   30039       6   30045   30042       7   30051
   30048       6   30054   30048       6   30054   30051       7   30060   30057
       6   30063   30057       6   30063   30060       7   30069   30066       6
   30072   30066       6   30072   30069       7   30078   30075       6   30081
   30075       6   30081   30078       7   30087   30084       6   30090   30084
       6   30090   30087       7   30096   30093       6   30099   30093       6
   30099   30096       7   30105   30102       6   30108   30102       6   30108
   30105       7   30114   30111       6   30117   30111       6   30117   30114
       7   30123   30120       6   30126   30120       6   30126   30123       7
   30132   30129       6   30135   30129       6   30135   30132       7   30141
   30138       6   30144   30138       6   30144   30141       7   30150   30147
       6   30153   30147       6   30153   30150       7   30159   30156       6
   30162   30156       6   30162   30159       7   30168   30165       6   30171
   30165       6   30171   30168       7   30177   30174       6   30180   30174
       6   30180   30177       7   30186   30183       6   30189   30183       6
   30189   30186       7   30195   30192       6   30198   30192       6   30198
   30195       7   30204   30201       6   30207   30201       6   30207   30204
       7   30213   30210       6   30216   30210       6   30216   30213       7
   30222   30219       6   30225   30219       6   30225   30222       7   30231
   30228       6   30234   30228       6   30234   30231       7   30240   30237
       6   30243   30237       6   30243   30240       7   30249   30246       6
   30252   30246       6   30252   30249       7   30258   30255       6   30261
   30255       6   30261   30258       7   30267   30264       6   30270   30264
       6   30270   30267       7   30276   30273       6   30279   30273       6
   30279   30276       7   30285   30282       6   30288   30282       6   30288
   30285       7   30294   30291       6   30297   30291       6   30297   30294
       7   30303   30300       6   30306   30300       6   30306   30303       7
   30312   30309       6   30315   30309       6   30315   30312       7   30321
   30318       6   30324   30318       6   30324   30321       7   30330   30327
       6   30333   30327       6   30333   30330       7   30339   30336       6
   30342   30336       6   30342   30339       7   30348   30345       6   30351
   30345       6   30351   30348       7   30357   30354       6   30360   30354
       6   30360   30357       7   30366   30363       6   30369   30363       6
   30369   30366       7   30375   30372       6   30378   30372       6   30378
   30375       7   30384   30381       6   30387   30381       6   30387   30384
       7   30393   30390       6   30396   30390       6   30396   30393       7
   30402   30399       6   30405   30399       6   30405   30402       7   30411
   30408       6   30414   30408       6   30414   30411       7   30420   30417
       6   30423   30417       6   30423   30420       7   30429   30426       6
   30432   30426       6   30432   30429       7   30438   30435       6   30441
   30435       6   30441   30438       7   30447   30444       6   30450   30444
       6   30450   30447       7   30456   30453       6   30459   30453       6
   30459   30456       7   30465   30462       6   30468   30462       6   30468
   30465       7   30474   30471       6   30477   30471       6   30477   30474
       7   30483   30480       6   30486   30480       6   30486   30483       7
   30492   30489       6   30495   30489       6   30495   30492       7   30501
   30498       6   30504   30498       6   30504   30501       7   30510   30507
       6   30513   30507       6   30513   30510       7   30519   30516       6
   30522   30516       6   30522   30519       7   30528   30525       6   30531
   30525       6   30531   30528       7   30537   30534       6   30540   30534
       6   30540   30537       7   30546   30543       6   30549   30543       6
   30549   30546       7   30555   30552       6   30558   30552       6   30558
   30555       7   30564   30561       6   30567   30561       6   30567   30564
       7   30573   30570       6   30576   30570       6   30576   30573       7
   30582   30579       6   30585   30579       6   30585   30582       7   30591
   30588       6   30594   30588       6   30594   30591       7   30600   30597
       6   30603   30597       6   30603   30600       7   30609   30606       6
   30612   30606       6   30612   30609       7   30618   30615       6   30621
   30615       6   30621   30618       7   30627   30624       6   30630   30624
       6   30630   30627       7   30636   30633       6   30639   30633       6
   30639   30636       7   30645   30642       6   30648   30642       6   30648
   30645       7   30654   30651       6   30657   30651       6   30657   30654
       7   30663   30660       6   30666   30660       6   30666   30663       7
   30672   30669       6   30675   30669       6   30675   30672       7   30681
   30678       6   30684   30678       6   30684   30681       7   30690   30687
       6   30693   30687       6   30693   30690       7   30699   30696       6
   30702   30696       6   30702   30699       7   30708   30705       6   30711
   30705       6   30711   30708       7   30717   30714       6   30720   30714
       6   30720   30717       7   30726   30723       6   30729   30723       6
   30729   30726       7   30735   30732       6   30738   30732       6   30738
   30735       7   30744   30741       6   30747   30741       6   30747   30744
       7   30753   30750       6   30756   30750       6   30756   30753       7
   30762   30759       6   30765   30759       6   30765   30762       7   30771
   30768       6   30774   30768       6   30774   30771       7   30780   30777
       6   30783   30777       6   30783   30780       7   30789   30786       6
   30792   30786       6   30792   30789       7   30798   30795       6   30801
   30795       6   30801   30798       7   30807   30804       6   30810   30804
       6   30810   30807       7   30816   30813       6   30819   30813       6
   30819   30816       7   30825   30822       6   30828   30822       6   30828
   30825       7   30834   30831       6   30837   30831       6   30837   30834
       7   30843   30840       6   30846   30840       6   30846   30843       7
   30852   30849       6   30855   30849       6   30855   30852       7   30861
   30858       6   30864   30858       6   30864   30861       7   30870   30867
       6   30873   30867       6   30873   30870       7   30879   30876       6
   30882   30876       6   30882   30879       7   30888   30885       6   30891
   30885       6   30891   30888       7   30897   30894       6   30900   30894
       6   30900   30897       7   30906   30903       6   30909   30903       6
   30909   30906       7   30915   30912       6   30918   30912       6   30918
   30915       7   30924   30921       6   30927   30921       6   30927   30924
       7   30933   30930       6   30936   30930       6   30936   30933       7
   30942   30939       6   30945   30939       6   30945   30942       7   30951
   30948       6   30954   30948       6   30954   30951       7   30960   30957
       6   30963   30957       6   30963   30960       7   30969   30966       6
   30972   30966       6   30972   30969       7   30978   30975       6   30981
   30975       6   30981   30978       7   30987   30984       6   30990   30984
       6   30990   30987       7   30996   30993       6   30999   30993       6
   30999   30996       7   31005   31002       6   31008   31002       6   31008
   31005       7   31014   31011       6   31017   31011       6   31017   31014
       7   31023   31020       6   31026   31020       6   31026   31023       7
   31032   31029       6   31035   31029       6   31035   31032       7   31041
   31038       6   31044   31038       6   31044   31041       7   31050   31047
       6   31053   31047       6   31053   31050       7   31059   31056       6
   31062   31056       6   31062   31059       7   31068   31065       6   31071
   31065       6   31071   31068       7   31077   31074       6   31080   31074
       6   31080   31077       7   31086   31083       6   31089   31083       6
   31089   31086       7   31095   31092       6   31098   31092       6   31098
   31095       7   31104   31101       6   31107   31101       6   31107   31104
       7   31113   31110       6   31116   31110       6   31116   31113       7
   31122   31119       6   31125   31119       6   31125   31122       7   31131
   31128       6   31134   31128       6   31134   31131       7   31140   31137
       6   31143   31137       6   31143   31140       7   31149   31146       6
   31152   31146       6   31152   31149       7   31158   31155       6   31161
   31155       6   31161   31158       7   31167   31164       6   31170   31164
       6   31170   31167       7   31176   31173       6   31179   31173       6
   31179   31176       7   31185   31182       6   31188   31182       6   31188
   31185       7   31194   31191       6   31197   31191       6   31197   31194
       7   31203   31200       6   31206   31200       6   31206   31203       7
   31212   31209       6   31215   31209       6   31215   31212       7   31221
   31218       6   31224   31218       6   31224   31221       7   31230   31227
       6   31233   31227       6   31233   31230       7   31239   31236       6
   31242   31236       6   31242   31239       7   31248   31245       6   31251
   31245       6   31251   31248       7   31257   31254       6   31260   31254
       6   31260   31257       7   31266   31263       6   31269   31263       6
   31269   31266       7   31275   31272       6   31278   31272       6   31278
   31275       7   31284   31281       6   31287   31281       6   31287   31284
       7   31293   31290       6   31296   31290       6   31296   31293       7
   31302   31299       6   31305   31299       6   31305   31302       7   31311
   31308       6   31314   31308       6   31314   31311       7   31320   31317
       6   31323   31317       6   31323   31320       7   31329   31326       6
   31332   31326       6   31332   31329       7   31338   31335       6   31341
   31335       6   31341   31338       7   31347   31344       6   31350   31344
       6   31350   31347       7   31356   31353       6   31359   31353       6
   31359   31356       7   31365   31362       6   31368   31362       6   31368
   31365       7   31374   31371       6   31377   31371       6   31377   31374
       7   31383   31380       6   31386   31380       6   31386   31383       7
   31392   31389       6   31395   31389       6   31395   31392       7   31401
   31398       6   31404   31398       6   31404   31401       7   31410   31407
       6   31413   31407       6   31413   31410       7   31419   31416       6
   31422   31416       6   31422   31419       7   31428   31425       6   31431
   31425       6   31431   31428       7   31437   31434       6   31440   31434
       6   31440   31437       7   31446   31443       6   31449   31443       6
   31449   31446       7   31455   31452       6   31458   31452       6   31458
   31455       7   31464   31461       6   31467   31461       6   31467   31464
       7   31473   31470       6   31476   31470       6   31476   31473       7
   31482   31479       6   31485   31479       6   31485   31482       7   31491
   31488       6   31494   31488       6   31494   31491       7   31500   31497
       6   31503   31497       6   31503   31500       7   31509   31506       6
   31512   31506       6   31512   31509       7   31518   31515       6   31521
   31515       6   31521   31518       7   31527   31524       6   31530   31524
       6   31530   31527       7   31536   31533       6   31539   31533       6
   31539   31536       7   31545   31542       6   31548   31542       6   31548
   31545       7   31554   31551       6   31557   31551       6   31557   31554
       7   31563   31560       6   31566   31560       6   31566   31563       7
   31572   31569       6   31575   31569       6   31575   31572       7   31581
   31578       6   31584   31578       6   31584   31581       7   31590   31587
       6   31593   31587       6   31593   31590       7   31599   31596       6
   31602   31596       6   31602   31599       7   31608   31605       6   31611
   31605       6   31611   31608       7   31617   31614       6   31620   31614
       6   31620   31617       7   31626   31623       6   31629   31623       6
   31629   31626       7   31635   31632       6   31638   31632       6   31638
   31635       7   31644   31641       6   31647   31641       6   31647   31644
       7   31653   31650       6   31656   31650       6   31656   31653       7
   31662   31659       6   31665   31659       6   31665   31662       7   31671
   31668       6   31674   31668       6   31674   31671       7   31680   31677
       6   31683   31677       6   31683   31680       7   31689   31686       6
   31692   31686       6   31692   31689       7   31698   31695       6   31701
   31695       6   31701   31698       7   31707   31704       6   31710   31704
       6   31710   31707       7   31716   31713       6   31719   31713       6
   31719   31716       7   31725   31722       6   31728   31722       6   31728
   31725       7   31734   31731       6   31737   31731       6   31737   31734
       7   31743   31740       6   31746   31740       6   31746   31743       7
   31752   31749       6   31755   31749       6   31755   31752       7   31761
   31758       6   31764   31758       6   31764   31761       7   31770   31767
       6   31773   31767       6   31773   31770       7   31779   31776       6
   31782   31776       6   31782   31779       7   31788   31785       6   31791
   31785       6   31791   31788       7   31797   31794       6   31800   31794
       6   31800   31797       7   31806   31803       6   31809   31803       6
   31809   31806       7   31815   31812       6   31818   31812       6   31818
   31815       7   31824   31821       6   31827   31821       6   31827   31824
       7   31833   31830       6   31836   31830       6   31836   31833       7
   31842   31839       6   31845   31839       6   31845   31842       7   31851
   31848       6   31854   31848       6   31854   31851       7   31860   31857
       6   31863   31857       6   31863   31860       7   31869   31866       6
   31872   31866       6   31872   31869       7   31878   31875       6   31881
   31875       6   31881   31878       7   31887   31884       6   31890   31884
       6   31890   31887       7   31896   31893       6   31899   31893       6
   31899   31896       7   31905   31902       6   31908   31902       6   31908
   31905       7   31914   31911       6   31917   31911       6   31917   31914
       7   31923   31920       6   31926   31920       6   31926   31923       7
   31932   31929       6   31935   31929       6   31935   31932       7   31941
   31938       6   31944   31938       6   31944   31941       7   31950   31947
       6   31953   31947       6   31953   31950       7   31959   31956       6
   31962   31956       6   31962   31959       7   31968   31965       6   31971
   31965       6   31971   31968       7   31977   31974       6   31980   31974
       6   31980   31977       7   31986   31983       6   31989   31983       6
   31989   31986       7   31995   31992       6   31998   31992       6   31998
   31995       7   32004   32001       6   32007   32001       6   32007   32004
       7   32013   32010       6   32016   32010       6   32016   32013       7
   32022   32019       6   32025   32019       6   32025   32022       7   32031
   32028       6   32034   32028       6   32034   32031       7   32040   32037
       6   32043   32037       6   32043   32040       7   32049   32046       6
   32052   32046       6   32052   32049       7   32058   32055       6   32061
   32055       6   32061   32058       7   32067   32064       6   32070   32064
       6   32070   32067       7   32076   32073       6   32079   32073       6
   32079   32076       7   32085   32082       6   32088   32082       6   32088
   32085       7   32094   32091       6   32097   32091       6   32097   32094
       7   32103   32100       6   32106   32100       6   32106   32103       7
   32112   32109       6   32115   32109       6   32115   32112       7   32121
   32118       6   32124   32118       6   32124   32121       7   32130   32127
       6   32133   32127       6   32133   32130       7   32139   32136       6
   32142   32136       6   32142   32139       7   32148   32145       6   32151
   32145       6   32151   32148       7   32157   32154       6   32160   32154
       6   32160   32157       7   32166   32163       6   32169   32163       6
   32169   32166       7   32175   32172       6   32178   32172       6   32178
   32175       7   32184   32181       6   32187   32181       6   32187   32184
       7   32193   32190       6   32196   32190       6   32196   32193       7
   32202   32199       6   32205   32199       6   32205   32202       7   32211
   32208       6   32214   32208       6   32214   32211       7   32220   32217
       6   32223   32217       6   32223   32220       7   32229   32226       6
   32232   32226       6   32232   32229       7   32238   32235       6   32241
   32235       6   32241   32238       7   32247   32244       6   32250   32244
       6   32250   32247       7   32256   32253       6   32259   32253       6
   32259   32256       7   32265   32262       6   32268   32262       6   32268
   32265       7   32274   32271       6   32277   32271       6   32277   32274
       7   32283   32280       6   32286   32280       6   32286   32283       7
   32292   32289       6   32295   32289       6   32295   32292       7   32301
   32298       6   32304   32298       6   32304   32301       7   32310   32307
       6   32313   32307       6   32313   32310       7   32319   32316       6
   32322   32316       6   32322   32319       7   32328   32325       6   32331
   32325       6   32331   32328       7   32337   32334       6   32340   32334
       6   32340   32337       7   32346   32343       6   32349   32343       6
   32349   32346       7   32355   32352       6   32358   32352       6   32358
   32355       7   32364   32361       6   32367   32361       6   32367   32364
       7   32373   32370       6   32376   32370       6   32376   32373       7
   32382   32379       6   32385   32379       6   32385   32382       7   32391
   32388       6   32394   32388       6   32394   32391       7   32400   32397
       6   32403   32397       6   32403   32400       7   32409   32406       6
   32412   32406       6   32412   32409       7   32418   32415       6   32421
   32415       6   32421   32418       7   32427   32424       6   32430   32424
       6   32430   32427       7   32436   32433       6   32439   32433       6
   32439   32436       7   32445   32442       6   32448   32442       6   32448
   32445       7   32454   32451       6   32457   32451       6   32457   32454
       7   32463   32460       6   32466   32460       6   32466   32463       7
   32472   32469       6   32475   32469       6   32475   32472       7   32481
   32478       6   32484   32478       6   32484   32481       7   32490   32487
       6   32493   32487       6   32493   32490       7   32499   32496       6
   32502   32496       6   32502   32499       7   32508   32505       6   32511
   32505       6   32511   32508       7   32517   32514       6   32520   32514
       6   32520   32517       7   32526   32523       6   32529   32523       6
   32529   32526       7   32535   32532       6   32538   32532       6   32538
   32535       7   32544   32541       6   32547   32541       6   32547   32544
       7   32553   32550       6   32556   32550       6   32556   32553       7
   32562   32559       6   32565   32559       6   32565   32562       7   32571
   32568       6   32574   32568       6   32574   32571       7   32580   32577
       6   32583   32577       6   32583   32580       7   32589   32586       6
   32592   32586       6   32592   32589       7   32598   32595       6   32601
   32595       6   32601   32598       7   32607   32604       6   32610   32604
       6   32610   32607       7   32616   32613       6   32619   32613       6
   32619   32616       7   32625   32622       6   32628   32622       6   32628
   32625       7   32634   32631       6   32637   32631       6   32637   32634
       7   32643   32640       6   32646   32640       6   32646   32643       7
   32652   32649       6   32655   32649       6   32655   32652       7   32661
   32658       6   32664   32658       6   32664   32661       7   32670   32667
       6   32673   32667       6   32673   32670       7   32679   32676       6
   32682   32676       6   32682   32679       7   32688   32685       6   32691
   32685       6   32691   32688       7   32697   32694       6   32700   32694
       6   32700   32697       7   32706   32703       6   32709   32703       6
   32709   32706       7   32715   32712       6   32718   32712       6   32718
   32715       7   32724   32721       6   32727   32721       6   32727   32724
       7   32733   32730       6   32736   32730       6   32736   32733       7
   32742   32739       6   32745   32739       6   32745   32742       7   32751
   32748       6   32754   32748       6   32754   32751       7   32760   32757
       6   32763   32757       6   32763   32760       7   32769   32766       6
   32772   32766       6   32772   32769       7   32778   32775       6   32781
   32775       6   32781   32778       7   32787   32784       6   32790   32784
       6   32790   32787       7   32796   32793       6   32799   32793       6
   32799   32796       7   32805   32802       6   32808   32802       6   32808
   32805       7   32814   32811       6   32817   32811       6   32817   32814
       7   32823   32820       6   32826   32820       6   32826   32823       7
   32832   32829       6   32835   32829       6   32835   32832       7   32841
   32838       6   32844   32838       6   32844   32841       7   32850   32847
       6   32853   32847       6   32853   32850       7   32859   32856       6
   32862   32856       6   32862   32859       7   32868   32865       6   32871
   32865       6   32871   32868       7   32877   32874       6   32880   32874
       6   32880   32877       7   32886   32883       6   32889   32883       6
   32889   32886       7   32895   32892       6   32898   32892       6   32898
   32895       7   32904   32901       6   32907   32901       6   32907   32904
       7   32913   32910       6   32916   32910       6   32916   32913       7
   32922   32919       6   32925   32919       6   32925   32922       7   32931
   32928       6   32934   32928       6   32934   32931       7   32940   32937
       6   32943   32937       6   32943   32940       7   32949   32946       6
   32952   32946       6   32952   32949       7   32958   32955       6   32961
   32955       6   32961   32958       7   32967   32964       6   32970   32964
       6   32970   32967       7   32976   32973       6   32979   32973       6
   32979   32976       7   32985   32982       6   32988   32982       6   32988
   32985       7   32994   32991       6   32997   32991       6   32997   32994
       7   33003   33000       6   33006   33000       6   33006   33003       7
   33012   33009       6   33015   33009       6   33015   33012       7   33021
   33018       6   33024   33018       6   33024   33021       7   33030   33027
       6   33033   33027       6   33033   33030       7   33039   33036       6
   33042   33036       6   33042   33039       7   33048   33045       6   33051
   33045       6   33051   33048       7   33057   33054       6   33060   33054
       6   33060   33057       7   33066   33063       6   33069   33063       6
   33069   33066       7   33075   33072       6   33078   33072       6   33078
   33075       7   33084   33081       6   33087   33081       6   33087   33084
       7   33093   33090       6   33096   33090       6   33096   33093       7
   33102   33099       6   33105   33099       6   33105   33102       7   33111
   33108       6   33114   33108       6   33114   33111       7   33120   33117
       6   33123   33117       6   33123   33120       7   33129   33126       6
   33132   33126       6   33132   33129       7   33138   33135       6   33141
   33135       6   33141   33138       7   33147   33144       6   33150   33144
       6   33150   33147       7   33156   33153       6   33159   33153       6
   33159   33156       7   33165   33162       6   33168   33162       6   33168
   33165       7   33174   33171       6   33177   33171       6   33177   33174
       7   33183   33180       6   33186   33180       6   33186   33183       7
   33192   33189       6   33195   33189       6   33195   33192       7   33201
   33198       6   33204   33198       6   33204   33201       7   33210   33207
       6   33213   33207       6   33213   33210       7   33219   33216       6
   33222   33216       6   33222   33219       7   33228   33225       6   33231
   33225       6   33231   33228       7   33237   33234       6   33240   33234
       6   33240   33237       7   33246   33243       6   33249   33243       6
   33249   33246       7   33255   33252       6   33258   33252       6   33258
   33255       7   33264   33261       6   33267   33261       6   33267   33264
       7   33273   33270       6   33276   33270       6   33276   33273       7
   33282   33279       6   33285   33279       6   33285   33282       7   33291
   33288       6   33294   33288       6   33294   33291       7   33300   33297
       6   33303   33297       6   33303   33300       7   33309   33306       6
   33312   33306       6   33312   33309       7   33318   33315       6   33321
   33315       6   33321   33318       7   33327   33324       6   33330   33324
       6   33330   33327       7   33336   33333       6   33339   33333       6
   33339   33336       7   33345   33342       6   33348   33342       6   33348
   33345       7   33354   33351       6   33357   33351       6   33357   33354
       7   33363   33360       6   33366   33360       6   33366   33363       7
   33372   33369       6   33375   33369       6   33375   33372       7   33381
   33378       6   33384   33378       6   33384   33381       7   33390   33387
       6   33393   33387       6   33393   33390       7   33399   33396       6
   33402   33396       6   33402   33399       7   33408   33405       6   33411
   33405       6   33411   33408       7   33417   33414       6   33420   33414
       6   33420   33417       7   33426   33423       6   33429   33423       6
   33429   33426       7   33435   33432       6   33438   33432       6   33438
   33435       7   33444   33441       6   33447   33441       6   33447   33444
       7   33453   33450       6   33456   33450       6   33456   33453       7
   33462   33459       6   33465   33459       6   33465   33462       7   33471
   33468       6   33474   33468       6   33474   33471       7   33480   33477
       6   33483   33477       6   33483   33480       7   33489   33486       6
   33492   33486       6   33492   33489       7   33498   33495       6   33501
   33495       6   33501   33498       7   33507   33504       6   33510   33504
       6   33510   33507       7   33516   33513       6   33519   33513       6
   33519   33516       7   33525   33522       6   33528   33522       6   33528
   33525       7   33534   33531       6   33537   33531       6   33537   33534
       7   33543   33540       6   33546   33540       6   33546   33543       7
   33552   33549       6   33555   33549       6   33555   33552       7   33561
   33558       6   33564   33558       6   33564   33561       7   33570   33567
       6   33573   33567       6   33573   33570       7   33579   33576       6
   33582   33576       6   33582   33579       7   33588   33585       6   33591
   33585       6   33591   33588       7   33597   33594       6   33600   33594
       6   33600   33597       7   33606   33603       6   33609   33603       6
   33609   33606       7   33615   33612       6   33618   33612       6   33618
   33615       7   33624   33621       6   33627   33621       6   33627   33624
       7   33633   33630       6   33636   33630       6   33636   33633       7
   33642   33639       6   33645   33639       6   33645   33642       7   33651
   33648       6   33654   33648       6   33654   33651       7   33660   33657
       6   33663   33657       6   33663   33660       7   33669   33666       6
   33672   33666       6   33672   33669       7   33678   33675       6   33681
   33675       6   33681   33678       7   33687   33684       6   33690   33684
       6   33690   33687       7   33696   33693       6   33699   33693       6
   33699   33696       7   33705   33702       6   33708   33702       6   33708
   33705       7   33714   33711       6   33717   33711       6   33717   33714
       7   33723   33720       6   33726   33720       6   33726   33723       7
   33732   33729       6   33735   33729       6   33735   33732       7   33741
   33738       6   33744   33738       6   33744   33741       7   33750   33747
       6   33753   33747       6   33753   33750       7   33759   33756       6
   33762   33756       6   33762   33759       7   33768   33765       6   33771
   33765       6   33771   33768       7   33777   33774       6   33780   33774
       6   33780   33777       7   33786   33783       6   33789   33783       6
   33789   33786       7   33795   33792       6   33798   33792       6   33798
   33795       7   33804   33801       6   33807   33801       6   33807   33804
       7   33813   33810       6   33816   33810       6   33816   33813       7
   33822   33819       6   33825   33819       6   33825   33822       7   33831
   33828       6   33834   33828       6   33834   33831       7   33840   33837
       6   33843   33837       6   33843   33840       7   33849   33846       6
   33852   33846       6   33852   33849       7   33858   33855       6   33861
   33855       6   33861   33858       7   33867   33864       6   33870   33864
       6   33870   33867       7   33876   33873       6   33879   33873       6
   33879   33876       7   33885   33882       6   33888   33882       6   33888
   33885       7   33894   33891       6   33897   33891       6   33897   33894
       7   33903   33900       6   33906   33900       6   33906   33903       7
   33912   33909       6   33915   33909       6   33915   33912       7   33921
   33918       6   33924   33918       6   33924   33921       7   33930   33927
       6   33933   33927       6   33933   33930       7   33939   33936       6
   33942   33936       6   33942   33939       7   33948   33945       6   33951
   33945       6   33951   33948       7   33957   33954       6   33960   33954
       6   33960   33957       7   33966   33963       6   33969   33963       6
   33969   33966       7   33975   33972       6   33978   33972       6   33978
   33975       7   33984   33981       6   33987   33981       6   33987   33984
       7   33993   33990       6   33996   33990       6   33996   33993       7
   34002   33999       6   34005   33999       6   34005   34002       7   34011
   34008       6   34014   34008       6   34014   34011       7   34020   34017
       6   34023   34017       6   34023   34020       7   34029   34026       6
   34032   34026       6   34032   34029       7   34038   34035       6   34041
   34035       6   34041   34038       7   34047   34044       6   34050   34044
       6   34050   34047       7   34056   34053       6   34059   34053       6
   34059   34056       7   34065   34062       6   34068   34062       6   34068
   34065       7   34074   34071       6   34077   34071       6   34077   34074
       7   34083   34080       6   34086   34080       6   34086   34083       7
   34092   34089       6   34095   34089       6   34095   34092       7   34101
   34098       6   34104   34098       6   34104   34101       7   34110   34107
       6   34113   34107       6   34113   34110       7   34119   34116       6
   34122   34116       6   34122   34119       7   34128   34125       6   34131
   34125       6   34131   34128       7   34137   34134       6   34140   34134
       6   34140   34137       7   34146   34143       6   34149   34143       6
   34149   34146       7   34155   34152       6   34158   34152       6   34158
   34155       7   34164   34161       6   34167   34161       6   34167   34164
       7   34173   34170       6   34176   34170       6   34176   34173       7
   34182   34179       6   34185   34179       6   34185   34182       7   34191
   34188       6   34194   34188       6   34194   34191       7   34200   34197
       6   34203   34197       6   34203   34200       7   34209   34206       6
   34212   34206       6   34212   34209       7   34218   34215       6   34221
   34215       6   34221   34218       7   34227   34224       6   34230   34224
       6   34230   34227       7   34236   34233       6   34239   34233       6
   34239   34236       7   34245   34242       6   34248   34242       6   34248
   34245       7   34254   34251       6   34257   34251       6   34257   34254
       7   34263   34260       6   34266   34260       6   34266   34263       7
   34272   34269       6   34275   34269       6   34275   34272       7   34281
   34278       6   34284   34278       6   34284   34281       7   34290   34287
       6   34293   34287       6   34293   34290       7   34299   34296       6
   34302   34296       6   34302   34299       7   34308   34305       6   34311
   34305       6   34311   34308       7   34317   34314       6   34320   34314
       6   34320   34317       7   34326   34323       6   34329   34323       6
   34329   34326       7   34335   34332       6   34338   34332       6   34338
   34335       7   34344   34341       6   34347   34341       6   34347   34344
       7   34353   34350       6   34356   34350       6   34356   34353       7
   34362   34359       6   34365   34359       6   34365   34362       7   34371
   34368       6   34374   34368       6   34374   34371       7   34380   34377
       6   34383   34377       6   34383   34380       7   34389   34386       6
   34392   34386       6   34392   34389       7   34398   34395       6   34401
   34395       6   34401   34398       7   34407   34404       6   34410   34404
       6   34410   34407       7   34416   34413       6   34419   34413       6
   34419   34416       7   34425   34422       6   34428   34422       6   34428
   34425       7   34434   34431       6   34437   34431       6   34437   34434
       7   34443   34440       6   34446   34440       6   34446   34443       7
   34452   34449       6   34455   34449       6   34455   34452       7   34461
   34458       6   34464   34458       6   34464   34461       7   34470   34467
       6   34473   34467       6   34473   34470       7   34479   34476       6
   34482   34476       6   34482   34479       7   34488   34485       6   34491
   34485       6   34491   34488       7   34497   34494       6   34500   34494
       6   34500   34497       7   34506   34503       6   34509   34503       6
   34509   34506       7   34515   34512       6   34518   34512       6   34518
   34515       7   34524   34521       6   34527   34521       6   34527   34524
       7   34533   34530       6   34536   34530       6   34536   34533       7
   34542   34539       6   34545   34539       6   34545   34542       7   34551
   34548       6   34554   34548       6   34554   34551       7   34560   34557
       6   34563   34557       6   34563   34560       7   34569   34566       6
   34572   34566       6   34572   34569       7   34578   34575       6   34581
   34575       6   34581   34578       7   34587   34584       6   34590   34584
       6   34590   34587       7   34596   34593       6   34599   34593       6
   34599   34596       7   34605   34602       6   34608   34602       6   34608
   34605       7   34614   34611       6   34617   34611       6   34617   34614
       7   34623   34620       6   34626   34620       6   34626   34623       7
   34632   34629       6   34635   34629       6   34635   34632       7   34641
   34638       6   34644   34638       6   34644   34641       7   34650   34647
       6   34653   34647       6   34653   34650       7   34659   34656       6
   34662   34656       6   34662   34659       7   34668   34665       6   34671
   34665       6   34671   34668       7   34677   34674       6   34680   34674
       6   34680   34677       7   34686   34683       6   34689   34683       6
   34689   34686       7   34695   34692       6   34698   34692       6   34698
   34695       7   34704   34701       6   34707   34701       6   34707   34704
       7   34713   34710       6   34716   34710       6   34716   34713       7
   34722   34719       6   34725   34719       6   34725   34722       7   34731
   34728       6   34734   34728       6   34734   34731       7   34740   34737
       6   34743   34737       6   34743   34740       7   34749   34746       6
   34752   34746       6   34752   34749       7   34758   34755       6   34761
   34755       6   34761   34758       7   34767   34764       6   34770   34764
       6   34770   34767       7   34776   34773       6   34779   34773       6
   34779   34776       7   34785   34782       6   34788   34782       6   34788
   34785       7   34794   34791       6   34797   34791       6   34797   34794
       7   34803   34800       6   34806   34800       6   34806   34803       7
   34812   34809       6   34815   34809       6   34815   34812       7   34821
   34818       6   34824   34818       6   34824   34821       7   34830   34827
       6   34833   34827       6   34833   34830       7   34839   34836       6
   34842   34836       6   34842   34839       7   34848   34845       6   34851
   34845       6   34851   34848       7   34857   34854       6   34860   34854
       6   34860   34857       7   34866   34863       6   34869   34863       6
   34869   34866       7   34875   34872       6   34878   34872       6   34878
   34875       7   34884   34881       6   34887   34881       6   34887   34884
       7   34893   34890       6   34896   34890       6   34896   34893       7
   34902   34899       6   34905   34899       6   34905   34902       7   34911
   34908       6   34914   34908       6   34914   34911       7   34920   34917
       6   34923   34917       6   34923   34920       7   34929   34926       6
   34932   34926       6   34932   34929       7   34938   34935       6   34941
   34935       6   34941   34938       7   34947   34944       6   34950   34944
       6   34950   34947       7   34956   34953       6   34959   34953       6
   34959   34956       7   34965   34962       6   34968   34962       6   34968
   34965       7   34974   34971       6   34977   34971       6   34977   34974
       7   34983   34980       6   34986   34980       6   34986   34983       7
   34992   34989       6   34995   34989       6   34995   34992       7   35001
   34998       6   35004   34998       6   35004   35001       7   35010   35007
       6   35013   35007       6   35013   35010       7   35019   35016       6
   35022   35016       6   35022   35019       7   35028   35025       6   35031
   35025       6   35031   35028       7   35037   35034       6   35040   35034
       6   35040   35037       7   35046   35043       6   35049   35043       6
   35049   35046       7   35055   35052       6   35058   35052       6   35058
   35055       7   35064   35061       6   35067   35061       6   35067   35064
       7   35073   35070       6   35076   35070       6   35076   35073       7
   35082   35079       6   35085   35079       6   35085   35082       7   35091
   35088       6   35094   35088       6   35094   35091       7   35100   35097
       6   35103   35097       6   35103   35100       7   35109   35106       6
   35112   35106       6   35112   35109       7   35118   35115       6   35121
   35115       6   35121   35118       7   35127   35124       6   35130   35124
       6   35130   35127       7   35136   35133       6   35139   35133       6
   35139   35136       7   35145   35142       6   35148   35142       6   35148
   35145       7   35154   35151       6   35157   35151       6   35157   35154
       7   35163   35160       6   35166   35160       6   35166   35163       7
   35172   35169       6   35175   35169       6   35175   35172       7   35181
   35178       6   35184   35178       6   35184   35181       7   35190   35187
       6   35193   35187       6   35193   35190       7   35199   35196       6
   35202   35196       6   35202   35199       7   35208   35205       6   35211
   35205       6   35211   35208       7   35217   35214       6   35220   35214
       6   35220   35217       7   35226   35223       6   35229   35223       6
   35229   35226       7   35235   35232       6   35238   35232       6   35238
   35235       7   35244   35241       6   35247   35241       6   35247   35244
       7   35253   35250       6   35256   35250       6   35256   35253       7
   35262   35259       6   35265   35259       6   35265   35262       7   35271
   35268       6   35274   35268       6   35274   35271       7   35280   35277
       6   35283   35277       6   35283   35280       7   35289   35286       6
   35292   35286       6   35292   35289       7   35298   35295       6   35301
   35295       6   35301   35298       7   35307   35304       6   35310   35304
       6   35310   35307       7   35316   35313       6   35319   35313       6
   35319   35316       7   35325   35322       6   35328   35322       6   35328
   35325       7   35334   35331       6   35337   35331       6   35337   35334
       7   35343   35340       6   35346   35340       6   35346   35343       7
   35352   35349       6   35355   35349       6   35355   35352       7   35361
   35358       6   35364   35358       6   35364   35361       7   35370   35367
       6   35373   35367       6   35373   35370       7   35379   35376       6
   35382   35376       6   35382   35379       7   35388   35385       6   35391
   35385       6   35391   35388       7   35397   35394       6   35400   35394
       6   35400   35397       7   35406   35403       6   35409   35403       6
   35409   35406       7   35415   35412       6   35418   35412       6   35418
   35415       7   35424   35421       6   35427   35421       6   35427   35424
       7   35433   35430       6   35436   35430       6   35436   35433       7
   35442   35439       6   35445   35439       6   35445   35442       7   35451
   35448       6   35454   35448       6   35454   35451       7   35460   35457
       6   35463   35457       6   35463   35460       7   35469   35466       6
   35472   35466       6   35472   35469       7   35478   35475       6   35481
   35475       6   35481   35478       7   35487   35484       6   35490   35484
       6   35490   35487       7   35496   35493       6   35499   35493       6
   35499   35496       7   35505   35502       6   35508   35502       6   35508
   35505       7   35514   35511       6   35517   35511       6   35517   35514
       7   35523   35520       6   35526   35520       6   35526   35523       7
   35532   35529       6   35535   35529       6   35535   35532       7   35541
   35538       6   35544   35538       6   35544   35541       7   35550   35547
       6   35553   35547       6   35553   35550       7   35559   35556       6
   35562   35556       6   35562   35559       7   35568   35565       6   35571
   35565       6   35571   35568       7   35577   35574       6   35580   35574
       6   35580   35577       7   35586   35583       6   35589   35583       6
   35589   35586       7   35595   35592       6   35598   35592       6   35598
   35595       7   35604   35601       6   35607   35601       6   35607   35604
       7   35613   35610       6   35616   35610       6   35616   35613       7
   35622   35619       6   35625   35619       6   35625   35622       7   35631
   35628       6   35634   35628       6   35634   35631       7   35640   35637
       6   35643   35637       6   35643   35640       7   35649   35646       6
   35652   35646       6   35652   35649       7   35658   35655       6   35661
   35655       6   35661   35658       7   35667   35664       6   35670   35664
       6   35670   35667       7   35676   35673       6   35679   35673       6
   35679   35676       7   35685   35682       6   35688   35682       6   35688
   35685       7   35694   35691       6   35697   35691       6   35697   35694
       7   35703   35700       6   35706   35700       6   35706   35703       7
   35712   35709       6   35715   35709       6   35715   35712       7   35721
   35718       6   35724   35718       6   35724   35721       7   35730   35727
       6   35733   35727       6   35733   35730       7   35739   35736       6
   35742   35736       6   35742   35739       7   35748   35745       6   35751
   35745       6   35751   35748       7   35757   35754       6   35760   35754
       6   35760   35757       7   35766   35763       6   35769   35763       6
   35769   35766       7   35775   35772       6   35778   35772       6   35778
   35775       7   35784   35781       6   35787   35781       6   35787   35784
       7   35793   35790       6   35796   35790       6   35796   35793       7
   35802   35799       6   35805   35799       6   35805   35802       7   35811
   35808       6   35814   35808       6   35814   35811       7   35820   35817
       6   35823   35817       6   35823   35820       7   35829   35826       6
   35832   35826       6   35832   35829       7   35838   35835       6   35841
   35835       6   35841   35838       7   35847   35844       6   35850   35844
       6   35850   35847       7   35856   35853       6   35859   35853       6
   35859   35856       7   35865   35862       6   35868   35862       6   35868
   35865       7   35874   35871       6   35877   35871       6   35877   35874
       7   35883   35880       6   35886   35880       6   35886   35883       7
   35892   35889       6   35895   35889       6   35895   35892       7   35901
   35898       6   35904   35898       6   35904   35901       7   35910   35907
       6   35913   35907       6   35913   35910       7   35919   35916       6
   35922   35916       6   35922   35919       7   35928   35925       6   35931
   35925       6   35931   35928       7   35937   35934       6   35940   35934
       6   35940   35937       7   35946   35943       6   35949   35943       6
   35949   35946       7   35955   35952       6   35958   35952       6   35958
   35955       7   35964   35961       6   35967   35961       6   35967   35964
       7   35973   35970       6   35976   35970       6   35976   35973       7
   35982   35979       6   35985   35979       6   35985   35982       7   35991
   35988       6   35994   35988       6   35994   35991       7   36000   35997
       6   36003   35997       6   36003   36000       7   36009   36006       6
   36012   36006       6   36012   36009       7   36018   36015       6   36021
   36015       6   36021   36018       7   36027   36024       6   36030   36024
       6   36030   36027       7   36036   36033       6   36039   36033       6
   36039   36036       7   36045   36042       6   36048   36042       6   36048
   36045       7   36054   36051       6   36057   36051       6   36057   36054
       7   36063   36060       6   36066   36060       6   36066   36063       7
   36072   36069       6   36075   36069       6   36075   36072       7   36081
   36078       6   36084   36078       6   36084   36081       7   36090   36087
       6   36093   36087       6   36093   36090       7   36099   36096       6
   36102   36096       6   36102   36099       7   36108   36105       6   36111
   36105       6   36111   36108       7   36117   36114       6   36120   36114
       6   36120   36117       7   36126   36123       6   36129   36123       6
   36129   36126       7   36135   36132       6   36138   36132       6   36138
   36135       7   36144   36141       6   36147   36141       6   36147   36144
       7   36153   36150       6   36156   36150       6   36156   36153       7
   36162   36159       6   36165   36159       6   36165   36162       7   36171
   36168       6   36174   36168       6   36174   36171       7   36180   36177
       6   36183   36177       6   36183   36180       7   36189   36186       6
   36192   36186       6   36192   36189       7   36198   36195       6   36201
   36195       6   36201   36198       7   36207   36204       6   36210   36204
       6   36210   36207       7   36216   36213       6   36219   36213       6
   36219   36216       7   36225   36222       6   36228   36222       6   36228
   36225       7   36234   36231       6   36237   36231       6   36237   36234
       7   36243   36240       6   36246   36240       6   36246   36243       7
   36252   36249       6   36255   36249       6   36255   36252       7   36261
   36258       6   36264   36258       6   36264   36261       7   36270   36267
       6   36273   36267       6   36273   36270       7   36279   36276       6
   36282   36276       6   36282   36279       7   36288   36285       6   36291
   36285       6   36291   36288       7   36297   36294       6   36300   36294
       6   36300   36297       7   36306   36303       6   36309   36303       6
   36309   36306       7   36315   36312       6   36318   36312       6   36318
   36315       7   36324   36321       6   36327   36321       6   36327   36324
       7   36333   36330       6   36336   36330       6   36336   36333       7
   36342   36339       6   36345   36339       6   36345   36342       7   36351
   36348       6   36354   36348       6   36354   36351       7   36360   36357
       6   36363   36357       6   36363   36360       7   36369   36366       6
   36372   36366       6   36372   36369       7   36378   36375       6   36381
   36375       6   36381   36378       7   36387   36384       6   36390   36384
       6   36390   36387       7   36396   36393       6   36399   36393       6
   36399   36396       7   36405   36402       6   36408   36402       6   36408
   36405       7   36414   36411       6   36417   36411       6   36417   36414
       7   36423   36420       6   36426   36420       6   36426   36423       7
   36432   36429       6   36435   36429       6   36435   36432       7   36441
   36438       6   36444   36438       6   36444   36441       7   36450   36447
       6   36453   36447       6   36453   36450       7   36459   36456       6
   36462   36456       6   36462   36459       7   36468   36465       6   36471
   36465       6   36471   36468       7   36477   36474       6   36480   36474
       6   36480   36477       7   36486   36483       6   36489   36483       6
   36489   36486       7   36495   36492       6   36498   36492       6   36498
   36495       7   36504   36501       6   36507   36501       6   36507   36504
       7   36513   36510       6   36516   36510       6   36516   36513       7
   36522   36519       6   36525   36519       6   36525   36522       7   36531
   36528       6   36534   36528       6   36534   36531       7   36540   36537
       6   36543   36537       6   36543   36540       7   36549   36546       6
   36552   36546       6   36552   36549       7   36558   36555       6   36561
   36555       6   36561   36558       7   36567   36564       6   36570   36564
       6   36570   36567       7   36576   36573       6   36579   36573       6
   36579   36576       7   36585   36582       6   36588   36582       6   36588
   36585       7   36594   36591       6   36597   36591       6   36597   36594
       7   36603   36600       6   36606   36600       6   36606   36603       7
   36612   36609       6   36615   36609       6   36615   36612       7   36621
   36618       6   36624   36618       6   36624   36621       7   36630   36627
       6   36633   36627       6   36633   36630       7   36639   36636       6
   36642   36636       6   36642   36639       7   36648   36645       6   36651
   36645       6   36651   36648       7   36657   36654       6   36660   36654
       6   36660   36657       7   36666   36663       6   36669   36663       6
   36669   36666       7   36675   36672       6   36678   36672       6   36678
   36675       7   36684   36681       6   36687   36681       6   36687   36684
       7   36693   36690       6   36696   36690       6   36696   36693       7
   36702   36699       6   36705   36699       6   36705   36702       7   36711
   36708       6   36714   36708       6   36714   36711       7   36720   36717
       6   36723   36717       6   36723   36720       7   36729   36726       6
   36732   36726       6   36732   36729       7   36738   36735       6   36741
   36735       6   36741   36738       7   36747   36744       6   36750   36744
       6   36750   36747       7   36756   36753       6   36759   36753       6
   36759   36756       7   36765   36762       6   36768   36762       6   36768
   36765       7   36774   36771       6   36777   36771       6   36777   36774
       7   36783   36780       6   36786   36780       6   36786   36783       7
   36792   36789       6   36795   36789       6   36795   36792       7   36801
   36798       6   36804   36798       6   36804   36801       7   36810   36807
       6   36813   36807       6   36813   36810       7   36819   36816       6
   36822   36816       6   36822   36819       7   36828   36825       6   36831
   36825       6   36831   36828       7   36837   36834       6   36840   36834
       6   36840   36837       7   36846   36843       6   36849   36843       6
   36849   36846       7   36855   36852       6   36858   36852       6   36858
   36855       7   36864   36861       6   36867   36861       6   36867   36864
       7   36873   36870       6   36876   36870       6   36876   36873       7
   36882   36879       6   36885   36879       6   36885   36882       7   36891
   36888       6   36894   36888       6   36894   36891       7   36900   36897
       6   36903   36897       6   36903   36900       7   36909   36906       6
   36912   36906       6   36912   36909       7   36918   36915       6   36921
   36915       6   36921   36918       7   36927   36924       6   36930   36924
       6   36930   36927       7   36936   36933       6   36939   36933       6
   36939   36936       7   36945   36942       6   36948   36942       6   36948
   36945       7   36954   36951       6   36957   36951       6   36957   36954
       7   36963   36960       6   36966   36960       6   36966   36963       7
   36972   36969       6   36975   36969       6   36975   36972       7   36981
   36978       6   36984   36978       6   36984   36981       7   36990   36987
       6   36993   36987       6   36993   36990       7   36999   36996       6
   37002   36996       6   37002   36999       7   37008   37005       6   37011
   37005       6   37011   37008       7   37017   37014       6   37020   37014
       6   37020   37017       7   37026   37023       6   37029   37023       6
   37029   37026       7   37035   37032       6   37038   37032       6   37038
   37035       7   37044   37041       6   37047   37041       6   37047   37044
       7   37053   37050       6   37056   37050       6   37056   37053       7
   37062   37059       6   37065   37059       6   37065   37062       7   37071
   37068       6   37074   37068       6   37074   37071       7   37080   37077
       6   37083   37077       6   37083   37080       7   37089   37086       6
   37092   37086       6   37092   37089       7   37098   37095       6   37101
   37095       6   37101   37098       7   37107   37104       6   37110   37104
       6   37110   37107       7   37116   37113       6   37119   37113       6
   37119   37116       7   37125   37122       6   37128   37122       6   37128
   37125       7   37134   37131       6   37137   37131       6   37137   37134
       7   37143   37140       6   37146   37140       6   37146   37143       7
   37152   37149       6   37155   37149       6   37155   37152       7   37161
   37158       6   37164   37158       6   37164   37161       7   37170   37167
       6   37173   37167       6   37173   37170       7   37179   37176       6
   37182   37176       6   37182   37179       7   37188   37185       6   37191
   37185       6   37191   37188       7   37197   37194       6   37200   37194
       6   37200   37197       7   37206   37203       6   37209   37203       6
   37209   37206       7   37215   37212       6   37218   37212       6   37218
   37215       7   37224   37221       6   37227   37221       6   37227   37224
       7   37233   37230       6   37236   37230       6   37236   37233       7
   37242   37239       6   37245   37239       6   37245   37242       7   37251
   37248       6   37254   37248       6   37254   37251       7   37260   37257
       6   37263   37257       6   37263   37260       7   37269   37266       6
   37272   37266       6   37272   37269       7   37278   37275       6   37281
   37275       6   37281   37278       7   37287   37284       6   37290   37284
       6   37290   37287       7   37296   37293       6   37299   37293       6
   37299   37296       7   37305   37302       6   37308   37302       6   37308
   37305       7   37314   37311       6   37317   37311       6   37317   37314
       7   37323   37320       6   37326   37320       6   37326   37323       7
   37332   37329       6   37335   37329       6   37335   37332       7   37341
   37338       6   37344   37338       6   37344   37341       7   37350   37347
       6   37353   37347       6   37353   37350       7   37359   37356       6
   37362   37356       6   37362   37359       7   37368   37365       6   37371
   37365       6   37371   37368       7   37377   37374       6   37380   37374
       6   37380   37377       7   37386   37383       6   37389   37383       6
   37389   37386       7   37395   37392       6   37398   37392       6   37398
   37395       7   37404   37401       6   37407   37401       6   37407   37404
       7   37413   37410       6   37416   37410       6   37416   37413       7
   37422   37419       6   37425   37419       6   37425   37422       7   37431
   37428       6   37434   37428       6   37434   37431       7   37440   37437
       6   37443   37437       6   37443   37440       7   37449   37446       6
   37452   37446       6   37452   37449       7   37458   37455       6   37461
   37455       6   37461   37458       7   37467   37464       6   37470   37464
       6   37470   37467       7   37476   37473       6   37479   37473       6
   37479   37476       7   37485   37482       6   37488   37482       6   37488
   37485       7   37494   37491       6   37497   37491       6   37497   37494
       7   37503   37500       6   37506   37500       6   37506   37503       7
   37512   37509       6   37515   37509       6   37515   37512       7   37521
   37518       6   37524   37518       6   37524   37521       7   37530   37527
       6   37533   37527       6   37533   37530       7   37539   37536       6
   37542   37536       6   37542   37539       7   37548   37545       6   37551
   37545       6   37551   37548       7   37557   37554       6   37560   37554
       6   37560   37557       7   37566   37563       6   37569   37563       6
   37569   37566       7   37575   37572       6   37578   37572       6   37578
   37575       7   37584   37581       6   37587   37581       6   37587   37584
       7   37593   37590       6   37596   37590       6   37596   37593       7
   37602   37599       6   37605   37599       6   37605   37602       7   37611
   37608       6   37614   37608       6   37614   37611       7   37620   37617
       6   37623   37617       6   37623   37620       7   37629   37626       6
   37632   37626       6   37632   37629       7   37638   37635       6   37641
   37635       6   37641   37638       7   37647   37644       6   37650   37644
       6   37650   37647       7   37656   37653       6   37659   37653       6
   37659   37656       7   37665   37662       6   37668   37662       6   37668
   37665       7   37674   37671       6   37677   37671       6   37677   37674
       7   37683   37680       6   37686   37680       6   37686   37683       7
   37692   37689       6   37695   37689       6   37695   37692       7   37701
   37698       6   37704   37698       6   37704   37701       7   37710   37707
       6   37713   37707       6   37713   37710       7   37719   37716       6
   37722   37716       6   37722   37719       7   37728   37725       6   37731
   37725       6   37731   37728       7   37737   37734       6   37740   37734
       6   37740   37737       7   37746   37743       6   37749   37743       6
   37749   37746       7   37755   37752       6   37758   37752       6   37758
   37755       7   37764   37761       6   37767   37761       6   37767   37764
       7   37773   37770       6   37776   37770       6   37776   37773       7
   37782   37779       6   37785   37779       6   37785   37782       7   37791
   37788       6   37794   37788       6   37794   37791       7   37800   37797
       6   37803   37797       6   37803   37800       7   37809   37806       6
   37812   37806       6   37812   37809       7   37818   37815       6   37821
   37815       6   37821   37818       7   37827   37824       6   37830   37824
       6   37830   37827       7   37836   37833       6   37839   37833       6
   37839   37836       7   37845   37842       6   37848   37842       6   37848
   37845       7   37854   37851       6   37857   37851       6   37857   37854
       7   37863   37860       6   37866   37860       6   37866   37863       7
   37872   37869       6   37875   37869       6   37875   37872       7   37881
   37878       6   37884   37878       6   37884   37881       7   37890   37887
       6   37893   37887       6   37893   37890       7   37899   37896       6
   37902   37896       6   37902   37899       7   37908   37905       6   37911
   37905       6   37911   37908       7   37917   37914       6   37920   37914
       6   37920   37917       7   37926   37923       6   37929   37923       6
   37929   37926       7   37935   37932       6   37938   37932       6   37938
   37935       7   37944   37941       6   37947   37941       6   37947   37944
       7   37953   37950       6   37956   37950       6   37956   37953       7
   37962   37959       6   37965   37959       6   37965   37962       7   37971
   37968       6   37974   37968       6   37974   37971       7   37980   37977
       6   37983   37977       6   37983   37980       7   37989   37986       6
   37992   37986       6   37992   37989       7   37998   37995       6   38001
   37995       6   38001   37998       7   38007   38004       6   38010   38004
       6   38010   38007       7   38016   38013       6   38019   38013       6
   38019   38016       7   38025   38022       6   38028   38022       6   38028
   38025       7   38034   38031       6   38037   38031       6   38037   38034
       7   38043   38040       6   38046   38040       6   38046   38043       7
   38052   38049       6   38055   38049       6   38055   38052       7   38061
   38058       6   38064   38058       6   38064   38061       7   38070   38067
       6   38073   38067       6   38073   38070       7   38079   38076       6
   38082   38076       6   38082   38079       7   38088   38085       6   38091
   38085       6   38091   38088       7   38097   38094       6   38100   38094
       6   38100   38097       7   38106   38103       6   38109   38103       6
   38109   38106       7   38115   38112       6   38118   38112       6   38118
   38115       7   38124   38121       6   38127   38121       6   38127   38124
       7   38133   38130       6   38136   38130       6   38136   38133       7
   38142   38139       6   38145   38139       6   38145   38142       7   38151
   38148       6   38154   38148       6   38154   38151       7   38160   38157
       6   38163   38157       6   38163   38160       7   38169   38166       6
   38172   38166       6   38172   38169       7   38178   38175       6   38181
   38175       6   38181   38178       7   38187   38184       6   38190   38184
       6   38190   38187       7   38196   38193       6   38199   38193       6
   38199   38196       7   38205   38202       6   38208   38202       6   38208
   38205       7   38214   38211       6   38217   38211       6   38217   38214
       7   38223   38220       6   38226   38220       6   38226   38223       7
   38232   38229       6   38235   38229       6   38235   38232       7   38241
   38238       6   38244   38238       6   38244   38241       7   38250   38247
       6   38253   38247       6   38253   38250       7   38259   38256       6
   38262   38256       6   38262   38259       7   38268   38265       6   38271
   38265       6   38271   38268       7   38277   38274       6   38280   38274
       6   38280   38277       7   38286   38283       6   38289   38283       6
   38289   38286       7   38295   38292       6   38298   38292       6   38298
   38295       7   38304   38301       6   38307   38301       6   38307   38304
       7   38313   38310       6   38316   38310       6   38316   38313       7
   38322   38319       6   38325   38319       6   38325   38322       7   38331
   38328       6   38334   38328       6   38334   38331       7   38340   38337
       6   38343   38337       6   38343   38340       7   38349   38346       6
   38352   38346       6   38352   38349       7   38358   38355       6   38361
   38355       6   38361   38358       7   38367   38364       6   38370   38364
       6   38370   38367       7   38376   38373       6   38379   38373       6
   38379   38376       7   38385   38382       6   38388   38382       6   38388
   38385       7   38394   38391       6   38397   38391       6   38397   38394
       7   38403   38400       6   38406   38400       6   38406   38403       7
   38412   38409       6   38415   38409       6   38415   38412       7   38421
   38418       6   38424   38418       6   38424   38421       7   38430   38427
       6   38433   38427       6   38433   38430       7   38439   38436       6
   38442   38436       6   38442   38439       7   38448   38445       6   38451
   38445       6   38451   38448       7   38457   38454       6   38460   38454
       6   38460   38457       7   38466   38463       6   38469   38463       6
   38469   38466       7   38475   38472       6   38478   38472       6   38478
   38475       7   38484   38481       6   38487   38481       6   38487   38484
       7   38493   38490       6   38496   38490       6   38496   38493       7
   38502   38499       6   38505   38499       6   38505   38502       7   38511
   38508       6   38514   38508       6   38514   38511       7   38520   38517
       6   38523   38517       6   38523   38520       7   38529   38526       6
   38532   38526       6   38532   38529       7   38538   38535       6   38541
   38535       6   38541   38538       7   38547   38544       6   38550   38544
       6   38550   38547       7   38556   38553       6   38559   38553       6
   38559   38556       7   38565   38562       6   38568   38562       6   38568
   38565       7   38574   38571       6   38577   38571       6   38577   38574
       7   38583   38580       6   38586   38580       6   38586   38583       7
   38592   38589       6   38595   38589       6   38595   38592       7   38601
   38598       6   38604   38598       6   38604   38601       7   38610   38607
       6   38613   38607       6   38613   38610       7   38619   38616       6
   38622   38616       6   38622   38619       7   38628   38625       6   38631
   38625       6   38631   38628       7   38637   38634       6   38640   38634
       6   38640   38637       7   38646   38643       6   38649   38643       6
   38649   38646       7   38655   38652       6   38658   38652       6   38658
   38655       7   38664   38661       6   38667   38661       6   38667   38664
       7   38673   38670       6   38676   38670       6   38676   38673       7
   38682   38679       6   38685   38679       6   38685   38682       7   38691
   38688       6   38694   38688       6   38694   38691       7   38700   38697
       6   38703   38697       6   38703   38700       7   38709   38706       6
   38712   38706       6   38712   38709       7   38718   38715       6   38721
   38715       6   38721   38718       7   38727   38724       6   38730   38724
       6   38730   38727       7   38736   38733       6   38739   38733       6
   38739   38736       7   38745   38742       6   38748   38742       6   38748
   38745       7   38754   38751       6   38757   38751       6   38757   38754
       7   38763   38760       6   38766   38760       6   38766   38763       7
   38772   38769       6   38775   38769       6   38775   38772       7   38781
   38778       6   38784   38778       6   38784   38781       7   38790   38787
       6   38793   38787       6   38793   38790       7   38799   38796       6
   38802   38796       6   38802   38799       7   38808   38805       6   38811
   38805       6   38811   38808       7   38817   38814       6   38820   38814
       6   38820   38817       7   38826   38823       6   38829   38823       6
   38829   38826       7   38835   38832       6   38838   38832       6   38838
   38835       7   38844   38841       6   38847   38841       6   38847   38844
       7   38853   38850       6   38856   38850       6   38856   38853       7
   38862   38859       6   38865   38859       6   38865   38862       7   38871
   38868       6   38874   38868       6   38874   38871       7   38880   38877
       6   38883   38877       6   38883   38880       7   38889   38886       6
   38892   38886       6   38892   38889       7   38898   38895       6   38901
   38895       6   38901   38898       7   38907   38904       6   38910   38904
       6   38910   38907       7   38916   38913       6   38919   38913       6
   38919   38916       7   38925   38922       6   38928   38922       6   38928
   38925       7   38934   38931       6   38937   38931       6   38937   38934
       7   38943   38940       6   38946   38940       6   38946   38943       7
   38952   38949       6   38955   38949       6   38955   38952       7   38961
   38958       6   38964   38958       6   38964   38961       7   38970   38967
       6   38973   38967       6   38973   38970       7   38979   38976       6
   38982   38976       6   38982   38979       7   38988   38985       6   38991
   38985       6   38991   38988       7   38997   38994       6   39000   38994
       6   39000   38997       7   39006   39003       6   39009   39003       6
   39009   39006       7   39015   39012       6   39018   39012       6   39018
   39015       7   39024   39021       6   39027   39021       6   39027   39024
       7   39033   39030       6   39036   39030       6   39036   39033       7
   39042   39039       6   39045   39039       6   39045   39042       7   39051
   39048       6   39054   39048       6   39054   39051       7   39060   39057
       6   39063   39057       6   39063   39060       7   39069   39066       6
   39072   39066       6   39072   39069       7   39078   39075       6   39081
   39075       6   39081   39078       7   39087   39084       6   39090   39084
       6   39090   39087       7   39096   39093       6   39099   39093       6
   39099   39096       7   39105   39102       6   39108   39102       6   39108
   39105       7   39114   39111       6   39117   39111       6   39117   39114
       7   39123   39120       6   39126   39120       6   39126   39123       7
   39132   39129       6   39135   39129       6   39135   39132       7   39141
   39138       6   39144   39138       6   39144   39141       7   39150   39147
       6   39153   39147       6   39153   39150       7   39159   39156       6
   39162   39156       6   39162   39159       7   39168   39165       6   39171
   39165       6   39171   39168       7   39177   39174       6   39180   39174
       6   39180   39177       7   39186   39183       6   39189   39183       6
   39189   39186       7   39195   39192       6   39198   39192       6   39198
   39195       7   39204   39201       6   39207   39201       6   39207   39204
       7   39213   39210       6   39216   39210       6   39216   39213       7
   39222   39219       6   39225   39219       6   39225   39222       7   39231
   39228       6   39234   39228       6   39234   39231       7   39240   39237
       6   39243   39237       6   39243   39240       7   39249   39246       6
   39252   39246       6   39252   39249       7   39258   39255       6   39261
   39255       6   39261   39258       7   39267   39264       6   39270   39264
       6   39270   39267       7   39276   39273       6   39279   39273       6
   39279   39276       7   39285   39282       6   39288   39282       6   39288
   39285       7   39294   39291       6   39297   39291       6   39297   39294
       7   39303   39300       6   39306   39300       6   39306   39303       7
   39312   39309       6   39315   39309       6   39315   39312       7   39321
   39318       6   39324   39318       6   39324   39321       7   39330   39327
       6   39333   39327       6   39333   39330       7   39339   39336       6
   39342   39336       6   39342   39339       7   39348   39345       6   39351
   39345       6   39351   39348       7   39357   39354       6   39360   39354
       6   39360   39357       7   39366   39363       6   39369   39363       6
   39369   39366       7   39375   39372       6   39378   39372       6   39378
   39375       7   39384   39381       6   39387   39381       6   39387   39384
       7   39393   39390       6   39396   39390       6   39396   39393       7
   39402   39399       6   39405   39399       6   39405   39402       7   39411
   39408       6   39414   39408       6   39414   39411       7   39420   39417
       6   39423   39417       6   39423   39420       7   39429   39426       6
   39432   39426       6   39432   39429       7   39438   39435       6   39441
   39435       6   39441   39438       7   39447   39444       6   39450   39444
       6   39450   39447       7   39456   39453       6   39459   39453       6
   39459   39456       7   39465   39462       6   39468   39462       6   39468
   39465       7   39474   39471       6   39477   39471       6   39477   39474
       7   39483   39480       6   39486   39480       6   39486   39483       7
   39492   39489       6   39495   39489       6   39495   39492       7   39501
   39498       6   39504   39498       6   39504   39501       7   39510   39507
       6   39513   39507       6   39513   39510       7   39519   39516       6
   39522   39516       6   39522   39519       7   39528   39525       6   39531
   39525       6   39531   39528       7   39537   39534       6   39540   39534
       6   39540   39537       7   39546   39543       6   39549   39543       6
   39549   39546       7   39555   39552       6   39558   39552       6   39558
   39555       7   39564   39561       6   39567   39561       6   39567   39564
       7   39573   39570       6   39576   39570       6   39576   39573       7
   39582   39579       6   39585   39579       6   39585   39582       7   39591
   39588       6   39594   39588       6   39594   39591       7   39600   39597
       6   39603   39597       6   39603   39600       7   39609   39606       6
   39612   39606       6   39612   39609       7   39618   39615       6   39621
   39615       6   39621   39618       7   39627   39624       6   39630   39624
       6   39630   39627       7   39636   39633       6   39639   39633       6
   39639   39636       7   39645   39642       6   39648   39642       6   39648
   39645       7   39654   39651       6   39657   39651       6   39657   39654
       7   39663   39660       6   39666   39660       6   39666   39663       7
   39672   39669       6   39675   39669       6   39675   39672       7   39681
   39678       6   39684   39678       6   39684   39681       7   39690   39687
       6   39693   39687       6   39693   39690       7   39699   39696       6
   39702   39696       6   39702   39699       7   39708   39705       6   39711
   39705       6   39711   39708       7   39717   39714       6   39720   39714
       6   39720   39717       7   39726   39723       6   39729   39723       6
   39729   39726       7   39735   39732       6   39738   39732       6   39738
   39735       7   39744   39741       6   39747   39741       6   39747   39744
       7   39753   39750       6   39756   39750       6   39756   39753       7
   39762   39759       6   39765   39759       6   39765   39762       7   39771
   39768       6   39774   39768       6   39774   39771       7   39780   39777
       6   39783   39777       6   39783   39780       7   39789   39786       6
   39792   39786       6   39792   39789       7   39798   39795       6   39801
   39795       6   39801   39798       7   39807   39804       6   39810   39804
       6   39810   39807       7   39816   39813       6   39819   39813       6
   39819   39816       7   39825   39822       6   39828   39822       6   39828
   39825       7   39834   39831       6   39837   39831       6   39837   39834
       7   39843   39840       6   39846   39840       6   39846   39843       7
   39852   39849       6   39855   39849       6   39855   39852       7   39861
   39858       6   39864   39858       6   39864   39861       7   39870   39867
       6   39873   39867       6   39873   39870       7   39879   39876       6
   39882   39876       6   39882   39879       7   39888   39885       6   39891
   39885       6   39891   39888       7   39897   39894       6   39900   39894
       6   39900   39897       7   39906   39903       6   39909   39903       6
   39909   39906       7   39915   39912       6   39918   39912       6   39918
   39915       7   39924   39921       6   39927   39921       6   39927   39924
       7   39933   39930       6   39936   39930       6   39936   39933       7
   39942   39939       6   39945   39939       6   39945   39942       7   39951
   39948       6   39954   39948       6   39954   39951       7   39960   39957
       6   39963   39957       6   39963   39960       7   39969   39966       6
   39972   39966       6   39972   39969       7   39978   39975       6   39981
   39975       6   39981   39978       7   39987   39984       6   39990   39984
       6   39990   39987       7   39996   39993       6   39999   39993       6
   39999   39996       7   40005   40002       6   40008   40002       6   40008
   40005       7   40014   40011       6   40017   40011       6   40017   40014
       7   40023   40020       6   40026   40020       6   40026   40023       7
   40032   40029       6   40035   40029       6   40035   40032       7   40041
   40038       6   40044   40038       6   40044   40041       7   40050   40047
       6   40053   40047       6   40053   40050       7   40059   40056       6
   40062   40056       6   40062   40059       7   40068   40065       6   40071
   40065       6   40071   40068       7   40077   40074       6   40080   40074
       6   40080   40077       7   40086   40083       6   40089   40083       6
   40089   40086       7   40095   40092       6   40098   40092       6   40098
   40095       7   40104   40101       6   40107   40101       6   40107   40104
       7   40113   40110       6   40116   40110       6   40116   40113       7
   40122   40119       6   40125   40119       6   40125   40122       7   40131
   40128       6   40134   40128       6   40134   40131       7   40140   40137
       6   40143   40137       6   40143   40140       7   40149   40146       6
   40152   40146       6   40152   40149       7   40158   40155       6   40161
   40155       6   40161   40158       7   40167   40164       6   40170   40164
       6   40170   40167       7   40176   40173       6   40179   40173       6
   40179   40176       7   40185   40182       6   40188   40182       6   40188
   40185       7   40194   40191       6   40197   40191       6   40197   40194
       7   40203   40200       6   40206   40200       6   40206   40203       7
   40212   40209       6   40215   40209       6   40215   40212       7   40221
   40218       6   40224   40218       6   40224   40221       7   40230   40227
       6   40233   40227       6   40233   40230       7   40239   40236       6
   40242   40236       6   40242   40239       7   40248   40245       6   40251
   40245       6   40251   40248       7   40257   40254       6   40260   40254
       6   40260   40257       7   40266   40263       6   40269   40263       6
   40269   40266       7   40275   40272       6   40278   40272       6   40278
   40275       7   40284   40281       6   40287   40281       6   40287   40284
       7   40293   40290       6   40296   40290       6   40296   40293       7
   40302   40299       6   40305   40299       6   40305   40302       7   40311
   40308       6   40314   40308       6   40314   40311       7   40320   40317
       6   40323   40317       6   40323   40320       7   40329   40326       6
   40332   40326       6   40332   40329       7   40338   40335       6   40341
   40335       6   40341   40338       7   40347   40344       6   40350   40344
       6   40350   40347       7   40356   40353       6   40359   40353       6
   40359   40356       7   40365   40362       6   40368   40362       6   40368
   40365       7   40374   40371       6   40377   40371       6   40377   40374
       7   40383   40380       6   40386   40380       6   40386   40383       7
   40392   40389       6   40395   40389       6   40395   40392       7   40401
   40398       6   40404   40398       6   40404   40401       7   40410   40407
       6   40413   40407       6   40413   40410       7   40419   40416       6
   40422   40416       6   40422   40419       7   40428   40425       6   40431
   40425       6   40431   40428       7   40437   40434       6   40440   40434
       6   40440   40437       7   40446   40443       6   40449   40443       6
   40449   40446       7   40455   40452       6   40458   40452       6   40458
   40455       7   40464   40461       6   40467   40461       6   40467   40464
       7   40473   40470       6   40476   40470       6   40476   40473       7
   40482   40479       6   40485   40479       6   40485   40482       7   40491
   40488       6   40494   40488       6   40494   40491       7   40500   40497
       6   40503   40497       6   40503   40500       7   40509   40506       6
   40512   40506       6   40512   40509       7   40518   40515       6   40521
   40515       6   40521   40518       7   40527   40524       6   40530   40524
       6   40530   40527       7   40536   40533       6   40539   40533       6
   40539   40536       7   40545   40542       6   40548   40542       6   40548
   40545       7   40554   40551       6   40557   40551       6   40557   40554
       7   40563   40560       6   40566   40560       6   40566   40563       7
   40572   40569       6   40575   40569       6   40575   40572       7   40581
   40578       6   40584   40578       6   40584   40581       7   40590   40587
       6   40593   40587       6   40593   40590       7   40599   40596       6
   40602   40596       6   40602   40599       7   40608   40605       6   40611
   40605       6   40611   40608       7   40617   40614       6   40620   40614
       6   40620   40617       7   40626   40623       6   40629   40623       6
   40629   40626       7   40635   40632       6   40638   40632       6   40638
   40635       7   40644   40641       6   40647   40641       6   40647   40644
       7   40653   40650       6   40656   40650       6   40656   40653       7
   40662   40659       6   40665   40659       6   40665   40662       7   40671
   40668       6   40674   40668       6   40674   40671       7   40680   40677
       6   40683   40677       6   40683   40680       7   40689   40686       6
   40692   40686       6   40692   40689       7   40698   40695       6   40701
   40695       6   40701   40698       7   40707   40704       6   40710   40704
       6   40710   40707       7   40716   40713       6   40719   40713       6
   40719   40716       7   40725   40722       6   40728   40722       6   40728
   40725       7   40734   40731       6   40737   40731       6   40737   40734
       7   40743   40740       6   40746   40740       6   40746   40743       7
   40752   40749       6   40755   40749       6   40755   40752       7   40761
   40758       6   40764   40758       6   40764   40761       7   40770   40767
       6   40773   40767       6   40773   40770       7   40779   40776       6
   40782   40776       6   40782   40779       7   40788   40785       6   40791
   40785       6   40791   40788       7   40797   40794       6   40800   40794
       6   40800   40797       7   40806   40803       6   40809   40803       6
   40809   40806       7   40815   40812       6   40818   40812       6   40818
   40815       7   40824   40821       6   40827   40821       6   40827   40824
       7   40833   40830       6   40836   40830       6   40836   40833       7
   40842   40839       6   40845   40839       6   40845   40842       7   40851
   40848       6   40854   40848       6   40854   40851       7   40860   40857
       6   40863   40857       6   40863   40860       7   40869   40866       6
   40872   40866       6   40872   40869       7   40878   40875       6   40881
   40875       6   40881   40878       7   40887   40884       6   40890   40884
       6   40890   40887       7   40896   40893       6   40899   40893       6
   40899   40896       7   40905   40902       6   40908   40902       6   40908
   40905       7   40914   40911       6   40917   40911       6   40917   40914
       7   40923   40920       6   40926   40920       6   40926   40923       7
   40932   40929       6   40935   40929       6   40935   40932       7   40941
   40938       6   40944   40938       6   40944   40941       7   40950   40947
       6   40953   40947       6   40953   40950       7   40959   40956       6
   40962   40956       6   40962   40959       7   40968   40965       6   40971
   40965       6   40971   40968       7   40977   40974       6   40980   40974
       6   40980   40977       7   40986   40983       6   40989   40983       6
   40989   40986       7   40995   40992       6   40998   40992       6   40998
   40995       7   41004   41001       6   41007   41001       6   41007   41004
       7   41013   41010       6   41016   41010       6   41016   41013       7
   41022   41019       6   41025   41019       6   41025   41022       7   41031
   41028       6   41034   41028       6   41034   41031       7   41040   41037
       6   41043   41037       6   41043   41040       7   41049   41046       6
   41052   41046       6   41052   41049       7   41058   41055       6   41061
   41055       6   41061   41058       7   41067   41064       6   41070   41064
       6   41070   41067       7   41076   41073       6   41079   41073       6
   41079   41076       7   41085   41082       6   41088   41082       6   41088
   41085       7   41094   41091       6   41097   41091       6   41097   41094
       7   41103   41100       6   41106   41100       6   41106   41103       7
   41112   41109       6   41115   41109       6   41115   41112       7   41121
   41118       6   41124   41118       6   41124   41121       7   41130   41127
       6   41133   41127       6   41133   41130       7   41139   41136       6
   41142   41136       6   41142   41139       7   41148   41145       6   41151
   41145       6   41151   41148       7   41157   41154       6   41160   41154
       6   41160   41157       7   41166   41163       6   41169   41163       6
   41169   41166       7   41175   41172       6   41178   41172       6   41178
   41175       7   41184   41181       6   41187   41181       6   41187   41184
       7   41193   41190       6   41196   41190       6   41196   41193       7
   41202   41199       6   41205   41199       6   41205   41202       7   41211
   41208       6   41214   41208       6   41214   41211       7   41220   41217
       6   41223   41217       6   41223   41220       7   41229   41226       6
   41232   41226       6   41232   41229       7   41238   41235       6   41241
   41235       6   41241   41238       7   41247   41244       6   41250   41244
       6   41250   41247       7   41256   41253       6   41259   41253       6
   41259   41256       7   41265   41262       6   41268   41262       6   41268
   41265       7   41274   41271       6   41277   41271       6   41277   41274
       7   41283   41280       6   41286   41280       6   41286   41283       7
   41292   41289       6   41295   41289       6   41295   41292       7   41301
   41298       6   41304   41298       6   41304   41301       7   41310   41307
       6   41313   41307       6   41313   41310       7   41319   41316       6
   41322   41316       6   41322   41319       7   41328   41325       6   41331
   41325       6   41331   41328       7   41337   41334       6   41340   41334
       6   41340   41337       7   41346   41343       6   41349   41343       6
   41349   41346       7   41355   41352       6   41358   41352       6   41358
   41355       7   41364   41361       6   41367   41361       6   41367   41364
       7   41373   41370       6   41376   41370       6   41376   41373       7
   41382   41379       6   41385   41379       6   41385   41382       7   41391
   41388       6   41394   41388       6   41394   41391       7   41400   41397
       6   41403   41397       6   41403   41400       7   41409   41406       6
   41412   41406       6   41412   41409       7   41418   41415       6   41421
   41415       6   41421   41418       7   41427   41424       6   41430   41424
       6   41430   41427       7   41436   41433       6   41439   41433       6
   41439   41436       7   41445   41442       6   41448   41442       6   41448
   41445       7   41454   41451       6   41457   41451       6   41457   41454
       7   41463   41460       6   41466   41460       6   41466   41463       7
   41472   41469       6   41475   41469       6   41475   41472       7   41481
   41478       6   41484   41478       6   41484   41481       7   41490   41487
       6   41493   41487       6   41493   41490       7   41499   41496       6
   41502   41496       6   41502   41499       7   41508   41505       6   41511
   41505       6   41511   41508       7   41517   41514       6   41520   41514
       6   41520   41517       7   41526   41523       6   41529   41523       6
   41529   41526       7   41535   41532       6   41538   41532       6   41538
   41535       7   41544   41541       6   41547   41541       6   41547   41544
       7   41553   41550       6   41556   41550       6   41556   41553       7
   41562   41559       6   41565   41559       6   41565   41562       7   41571
   41568       6   41574   41568       6   41574   41571       7   41580   41577
       6   41583   41577       6   41583   41580       7   41589   41586       6
   41592   41586       6   41592   41589       7   41598   41595       6   41601
   41595       6   41601   41598       7   41607   41604       6   41610   41604
       6   41610   41607       7   41616   41613       6   41619   41613       6
   41619   41616       7   41625   41622       6   41628   41622       6   41628
   41625       7   41634   41631       6   41637   41631       6   41637   41634
       7   41643   41640       6   41646   41640       6   41646   41643       7
   41652   41649       6   41655   41649       6   41655   41652       7   41661
   41658       6   41664   41658       6   41664   41661       7   41670   41667
       6   41673   41667       6   41673   41670       7   41679   41676       6
   41682   41676       6   41682   41679       7   41688   41685       6   41691
   41685       6   41691   41688       7   41697   41694       6   41700   41694
       6   41700   41697       7   41706   41703       6   41709   41703       6
   41709   41706       7   41715   41712       6   41718   41712       6   41718
   41715       7   41724   41721       6   41727   41721       6   41727   41724
       7   41733   41730       6   41736   41730       6   41736   41733       7
   41742   41739       6   41745   41739       6   41745   41742       7   41751
   41748       6   41754   41748       6   41754   41751       7   41760   41757
       6   41763   41757       6   41763   41760       7   41769   41766       6
   41772   41766       6   41772   41769       7   41778   41775       6   41781
   41775       6   41781   41778       7   41787   41784       6   41790   41784
       6   41790   41787       7   41796   41793       6   41799   41793       6
   41799   41796       7   41805   41802       6   41808   41802       6   41808
   41805       7   41814   41811       6   41817   41811       6   41817   41814
       7   41823   41820       6   41826   41820       6   41826   41823       7
   41832   41829       6   41835   41829       6   41835   41832       7   41841
   41838       6   41844   41838       6   41844   41841       7   41850   41847
       6   41853   41847       6   41853   41850       7   41859   41856       6
   41862   41856       6   41862   41859       7   41868   41865       6   41871
   41865       6   41871   41868       7   41877   41874       6   41880   41874
       6   41880   41877       7   41886   41883       6   41889   41883       6
   41889   41886       7   41895   41892       6   41898   41892       6   41898
   41895       7   41904   41901       6   41907   41901       6   41907   41904
       7   41913   41910       6   41916   41910       6   41916   41913       7
   41922   41919       6   41925   41919       6   41925   41922       7   41931
   41928       6   41934   41928       6   41934   41931       7   41940   41937
       6   41943   41937       6   41943   41940       7   41949   41946       6
   41952   41946       6   41952   41949       7   41958   41955       6   41961
   41955       6   41961   41958       7   41967   41964       6   41970   41964
       6   41970   41967       7   41976   41973       6   41979   41973       6
   41979   41976       7   41985   41982       6   41988   41982       6   41988
   41985       7   41994   41991       6   41997   41991       6   41997   41994
       7   42003   42000       6   42006   42000       6   42006   42003       7
   42012   42009       6   42015   42009       6   42015   42012       7   42021
   42018       6   42024   42018       6   42024   42021       7   42030   42027
       6   42033   42027       6   42033   42030       7   42039   42036       6
   42042   42036       6   42042   42039       7   42048   42045       6   42051
   42045       6   42051   42048       7   42057   42054       6   42060   42054
       6   42060   42057       7   42066   42063       6   42069   42063       6
   42069   42066       7   42075   42072       6   42078   42072       6   42078
   42075       7   42084   42081       6   42087   42081       6   42087   42084
       7   42093   42090       6   42096   42090       6   42096   42093       7
   42102   42099       6   42105   42099       6   42105   42102       7   42111
   42108       6   42114   42108       6   42114   42111       7   42120   42117
       6   42123   42117       6   42123   42120       7   42129   42126       6
   42132   42126       6   42132   42129       7   42138   42135       6   42141
   42135       6   42141   42138       7   42147   42144       6   42150   42144
       6   42150   42147       7   42156   42153       6   42159   42153       6
   42159   42156       7   42165   42162       6   42168   42162       6   42168
   42165       7   42174   42171       6   42177   42171       6   42177   42174
       7   42183   42180       6   42186   42180       6   42186   42183       7
   42192   42189       6   42195   42189       6   42195   42192       7   42201
   42198       6   42204   42198       6   42204   42201       7   42210   42207
       6   42213   42207       6   42213   42210       7   42219   42216       6
   42222   42216       6   42222   42219       7   42228   42225       6   42231
   42225       6   42231   42228       7   42237   42234       6   42240   42234
       6   42240   42237       7   42246   42243       6   42249   42243       6
   42249   42246       7   42255   42252       6   42258   42252       6   42258
   42255       7   42264   42261       6   42267   42261       6   42267   42264
       7   42273   42270       6   42276   42270       6   42276   42273       7
   42282   42279       6   42285   42279       6   42285   42282       7   42291
   42288       6   42294   42288       6   42294   42291       7   42300   42297
       6   42303   42297       6   42303   42300       7   42309   42306       6
   42312   42306       6   42312   42309       7   42318   42315       6   42321
   42315       6   42321   42318       7   42327   42324       6   42330   42324
       6   42330   42327       7   42336   42333       6   42339   42333       6
   42339   42336       7   42345   42342       6   42348   42342       6   42348
   42345       7   42354   42351       6   42357   42351       6   42357   42354
       7   42363   42360       6   42366   42360       6   42366   42363       7
   42372   42369       6   42375   42369       6   42375   42372       7   42381
   42378       6   42384   42378       6   42384   42381       7   42390   42387
       6   42393   42387       6   42393   42390       7   42399   42396       6
   42402   42396       6   42402   42399       7   42408   42405       6   42411
   42405       6   42411   42408       7   42417   42414       6   42420   42414
       6   42420   42417       7   42426   42423       6   42429   42423       6
   42429   42426       7   42435   42432       6   42438   42432       6   42438
   42435       7   42444   42441       6   42447   42441       6   42447   42444
       7   42453   42450       6   42456   42450       6   42456   42453       7
   42462   42459       6   42465   42459       6   42465   42462       7   42471
   42468       6   42474   42468       6   42474   42471       7   42480   42477
       6   42483   42477       6   42483   42480       7   42489   42486       6
   42492   42486       6   42492   42489       7   42498   42495       6   42501
   42495       6   42501   42498       7   42507   42504       6   42510   42504
       6   42510   42507       7   42516   42513       6   42519   42513       6
   42519   42516       7   42525   42522       6   42528   42522       6   42528
   42525       7   42534   42531       6   42537   42531       6   42537   42534
       7   42543   42540       6   42546   42540       6   42546   42543       7
   42552   42549       6   42555   42549       6   42555   42552       7   42561
   42558       6   42564   42558       6   42564   42561       7   42570   42567
       6   42573   42567       6   42573   42570       7   42579   42576       6
   42582   42576       6   42582   42579       7   42588   42585       6   42591
   42585       6   42591   42588       7   42597   42594       6   42600   42594
       6   42600   42597       7   42606   42603       6   42609   42603       6
   42609   42606       7   42615   42612       6   42618   42612       6   42618
   42615       7   42624   42621       6   42627   42621       6   42627   42624
       7   42633   42630       6   42636   42630       6   42636   42633       7
   42642   42639       6   42645   42639       6   42645   42642       7   42651
   42648       6   42654   42648       6   42654   42651       7   42660   42657
       6   42663   42657       6   42663   42660       7   42669   42666       6
   42672   42666       6   42672   42669       7   42678   42675       6   42681
   42675       6   42681   42678       7   42687   42684       6   42690   42684
       6   42690   42687       7   42696   42693       6   42699   42693       6
   42699   42696       7   42705   42702       6   42708   42702       6   42708
   42705       7   42714   42711       6   42717   42711       6   42717   42714
       7   42723   42720       6   42726   42720       6   42726   42723       7
   42732   42729       6   42735   42729       6   42735   42732       7   42741
   42738       6   42744   42738       6   42744   42741       7   42750   42747
       6   42753   42747       6   42753   42750       7   42759   42756       6
   42762   42756       6   42762   42759       7   42768   42765       6   42771
   42765       6   42771   42768       7   42777   42774       6   42780   42774
       6   42780   42777       7   42786   42783       6   42789   42783       6
   42789   42786       7   42795   42792       6   42798   42792       6   42798
   42795       7   42804   42801       6   42807   42801       6   42807   42804
       7   42813   42810       6   42816   42810       6   42816   42813       7
   42822   42819       6   42825   42819       6   42825   42822       7   42831
   42828       6   42834   42828       6   42834   42831       7   42840   42837
       6   42843   42837       6   42843   42840       7   42849   42846       6
   42852   42846       6   42852   42849       7   42858   42855       6   42861
   42855       6   42861   42858       7   42867   42864       6   42870   42864
       6   42870   42867       7   42876   42873       6   42879   42873       6
   42879   42876       7   42885   42882       6   42888   42882       6   42888
   42885       7   42894   42891       6   42897   42891       6   42897   42894
       7   42903   42900       6   42906   42900       6   42906   42903       7
   42912   42909       6   42915   42909       6   42915   42912       7   42921
   42918       6   42924   42918       6   42924   42921       7   42930   42927
       6   42933   42927       6   42933   42930       7   42939   42936       6
   42942   42936       6   42942   42939       7   42948   42945       6   42951
   42945       6   42951   42948       7   42957   42954       6   42960   42954
       6   42960   42957       7   42966   42963       6   42969   42963       6
   42969   42966       7   42975   42972       6   42978   42972       6   42978
   42975       7   42984   42981       6   42987   42981       6   42987   42984
       7   42993   42990       6   42996   42990       6   42996   42993       7
   43002   42999       6   43005   42999       6   43005   43002       7   43011
   43008       6   43014   43008       6   43014   43011       7   43020   43017
       6   43023   43017       6   43023   43020       7   43029   43026       6
   43032   43026       6   43032   43029       7   43038   43035       6   43041
   43035       6   43041   43038       7   43047   43044       6   43050   43044
       6   43050   43047       7   43056   43053       6   43059   43053       6
   43059   43056       7   43065   43062       6   43068   43062       6   43068
   43065       7   43074   43071       6   43077   43071       6   43077   43074
       7   43083   43080       6   43086   43080       6   43086   43083       7
   43092   43089       6   43095   43089       6   43095   43092       7   43101
   43098       6   43104   43098       6   43104   43101       7   43110   43107
       6   43113   43107       6   43113   43110       7   43119   43116       6
   43122   43116       6   43122   43119       7   43128   43125       6   43131
   43125       6   43131   43128       7   43137   43134       6   43140   43134
       6   43140   43137       7   43146   43143       6   43149   43143       6
   43149   43146       7   43155   43152       6   43158   43152       6   43158
   43155       7   43164   43161       6   43167   43161       6   43167   43164
       7   43173   43170       6   43176   43170       6   43176   43173       7
   43182   43179       6   43185   43179       6   43185   43182       7   43191
   43188       6   43194   43188       6   43194   43191       7   43200   43197
       6   43203   43197       6   43203   43200       7   43209   43206       6
   43212   43206       6   43212   43209       7   43218   43215       6   43221
   43215       6   43221   43218       7   43227   43224       6   43230   43224
       6   43230   43227       7   43236   43233       6   43239   43233       6
   43239   43236       7   43245   43242       6   43248   43242       6   43248
   43245       7   43254   43251       6   43257   43251       6   43257   43254
       7   43263   43260       6   43266   43260       6   43266   43263       7
   43272   43269       6   43275   43269       6   43275   43272       7   43281
   43278       6   43284   43278       6   43284   43281       7   43290   43287
       6   43293   43287       6   43293   43290       7   43299   43296       6
   43302   43296       6   43302   43299       7   43308   43305       6   43311
   43305       6   43311   43308       7   43317   43314       6   43320   43314
       6   43320   43317       7   43326   43323       6   43329   43323       6
   43329   43326       7   43335   43332       6   43338   43332       6   43338
   43335       7   43344   43341       6   43347   43341       6   43347   43344
       7   43353   43350       6   43356   43350       6   43356   43353       7
   43362   43359       6   43365   43359       6   43365   43362       7   43371
   43368       6   43374   43368       6   43374   43371       7   43380   43377
       6   43383   43377       6   43383   43380       7   43389   43386       6
   43392   43386       6   43392   43389       7   43398   43395       6   43401
   43395       6   43401   43398       7   43407   43404       6   43410   43404
       6   43410   43407       7   43416   43413       6   43419   43413       6
   43419   43416       7   43425   43422       6   43428   43422       6   43428
   43425       7   43434   43431       6   43437   43431       6   43437   43434
       7   43443   43440       6   43446   43440       6   43446   43443       7
   43452   43449       6   43455   43449       6   43455   43452       7   43461
   43458       6   43464   43458       6   43464   43461       7   43470   43467
       6   43473   43467       6   43473   43470       7   43479   43476       6
   43482   43476       6   43482   43479       7   43488   43485       6   43491
   43485       6   43491   43488       7   43497   43494       6   43500   43494
       6   43500   43497       7   43506   43503       6   43509   43503       6
   43509   43506       7   43515   43512       6   43518   43512       6   43518
   43515       7   43524   43521       6   43527   43521       6   43527   43524
       7   43533   43530       6   43536   43530       6   43536   43533       7
   43542   43539       6   43545   43539       6   43545   43542       7   43551
   43548       6   43554   43548       6   43554   43551       7   43560   43557
       6   43563   43557       6   43563   43560       7   43569   43566       6
   43572   43566       6   43572   43569       7   43578   43575       6   43581
   43575       6   43581   43578       7   43587   43584       6   43590   43584
       6   43590   43587       7   43596   43593       6   43599   43593       6
   43599   43596       7   43605   43602       6   43608   43602       6   43608
   43605       7   43614   43611       6   43617   43611       6   43617   43614
       7   43623   43620       6   43626   43620       6   43626   43623       7
   43632   43629       6   43635   43629       6   43635   43632       7   43641
   43638       6   43644   43638       6   43644   43641       7   43650   43647
       6   43653   43647       6   43653   43650       7   43659   43656       6
   43662   43656       6   43662   43659       7   43668   43665       6   43671
   43665       6   43671   43668       7   43677   43674       6   43680   43674
       6   43680   43677       7   43686   43683       6   43689   43683       6
   43689   43686       7   43695   43692       6   43698   43692       6   43698
   43695       7   43704   43701       6   43707   43701       6   43707   43704
       7   43713   43710       6   43716   43710       6   43716   43713       7
   43722   43719       6   43725   43719       6   43725   43722       7   43731
   43728       6   43734   43728       6   43734   43731       7   43740   43737
       6   43743   43737       6   43743   43740       7   43749   43746       6
   43752   43746       6   43752   43749       7   43758   43755       6   43761
   43755       6   43761   43758       7   43767   43764       6   43770   43764
       6   43770   43767       7   43776   43773       6   43779   43773       6
   43779   43776       7   43785   43782       6   43788   43782       6   43788
   43785       7   43794   43791       6   43797   43791       6   43797   43794
       7   43803   43800       6   43806   43800       6   43806   43803       7
   43812   43809       6   43815   43809       6   43815   43812       7   43821
   43818       6   43824   43818       6   43824   43821       7   43830   43827
       6   43833   43827       6   43833   43830       7   43839   43836       6
   43842   43836       6   43842   43839       7   43848   43845       6   43851
   43845       6   43851   43848       7   43857   43854       6   43860   43854
       6   43860   43857       7   43866   43863       6   43869   43863       6
   43869   43866       7   43875   43872       6   43878   43872       6   43878
   43875       7   43884   43881       6   43887   43881       6   43887   43884
       7   43893   43890       6   43896   43890       6   43896   43893       7
   43902   43899       6   43905   43899       6   43905   43902       7   43911
   43908       6   43914   43908       6   43914   43911       7   43920   43917
       6   43923   43917       6   43923   43920       7   43929   43926       6
   43932   43926       6   43932   43929       7   43938   43935       6   43941
   43935       6   43941   43938       7   43947   43944       6   43950   43944
       6   43950   43947       7   43956   43953       6   43959   43953       6
   43959   43956       7   43965   43962       6   43968   43962       6   43968
   43965       7   43974   43971       6   43977   43971       6   43977   43974
       7   43983   43980       6   43986   43980       6   43986   43983       7
   43992   43989       6   43995   43989       6   43995   43992       7   44001
   43998       6   44004   43998       6   44004   44001       7   44010   44007
       6   44013   44007       6   44013   44010       7   44019   44016       6
   44022   44016       6   44022   44019       7   44028   44025       6   44031
   44025       6   44031   44028       7   44037   44034       6   44040   44034
       6   44040   44037       7   44046   44043       6   44049   44043       6
   44049   44046       7   44055   44052       6   44058   44052       6   44058
   44055       7   44064   44061       6   44067   44061       6   44067   44064
       7   44073   44070       6   44076   44070       6   44076   44073       7
   44082   44079       6   44085   44079       6   44085   44082       7   44091
   44088       6   44094   44088       6   44094   44091       7   44100   44097
       6   44103   44097       6   44103   44100       7   44109   44106       6
   44112   44106       6   44112   44109       7   44118   44115       6   44121
   44115       6   44121   44118       7   44127   44124       6   44130   44124
       6   44130   44127       7   44136   44133       6   44139   44133       6
   44139   44136       7   44145   44142       6   44148   44142       6   44148
   44145       7   44154   44151       6   44157   44151       6   44157   44154
       7   44163   44160       6   44166   44160       6   44166   44163       7
   44172   44169       6   44175   44169       6   44175   44172       7   44181
   44178       6   44184   44178       6   44184   44181       7   44190   44187
       6   44193   44187       6   44193   44190       7   44199   44196       6
   44202   44196       6   44202   44199       7   44208   44205       6   44211
   44205       6   44211   44208       7   44217   44214       6   44220   44214
       6   44220   44217       7   44226   44223       6   44229   44223       6
   44229   44226       7   44235   44232       6   44238   44232       6   44238
   44235       7   44244   44241       6   44247   44241       6   44247   44244
       7   44253   44250       6   44256   44250       6   44256   44253       7
   44262   44259       6   44265   44259       6   44265   44262       7   44271
   44268       6   44274   44268       6   44274   44271       7   44280   44277
       6   44283   44277       6   44283   44280       7   44289   44286       6
   44292   44286       6   44292   44289       7   44298   44295       6   44301
   44295       6   44301   44298       7   44307   44304       6   44310   44304
       6   44310   44307       7   44316   44313       6   44319   44313       6
   44319   44316       7   44325   44322       6   44328   44322       6   44328
   44325       7   44334   44331       6   44337   44331       6   44337   44334
       7   44343   44340       6   44346   44340       6   44346   44343       7
   44352   44349       6   44355   44349       6   44355   44352       7   44361
   44358       6   44364   44358       6   44364   44361       7   44370   44367
       6   44373   44367       6   44373   44370       7   44379   44376       6
   44382   44376       6   44382   44379       7   44388   44385       6   44391
   44385       6   44391   44388       7   44397   44394       6   44400   44394
       6   44400   44397       7   44406   44403       6   44409   44403       6
   44409   44406       7   44415   44412       6   44418   44412       6   44418
   44415       7   44424   44421       6   44427   44421       6   44427   44424
       7   44433   44430       6   44436   44430       6   44436   44433       7
   44442   44439       6   44445   44439       6   44445   44442       7   44451
   44448       6   44454   44448       6   44454   44451       7   44460   44457
       6   44463   44457       6   44463   44460       7   44469   44466       6
   44472   44466       6   44472   44469       7   44478   44475       6   44481
   44475       6   44481   44478       7   44487   44484       6   44490   44484
       6   44490   44487       7   44496   44493       6   44499   44493       6
   44499   44496       7   44505   44502       6   44508   44502       6   44508
   44505       7   44514   44511       6   44517   44511       6   44517   44514
       7   44523   44520       6   44526   44520       6   44526   44523       7
   44532   44529       6   44535   44529       6   44535   44532       7   44541
   44538       6   44544   44538       6   44544   44541       7   44550   44547
       6   44553   44547       6   44553   44550       7   44559   44556       6
   44562   44556       6   44562   44559       7   44568   44565       6   44571
   44565       6   44571   44568       7   44577   44574       6   44580   44574
       6   44580   44577       7   44586   44583       6   44589   44583       6
   44589   44586       7   44595   44592       6   44598   44592       6   44598
   44595       7   44604   44601       6   44607   44601       6   44607   44604
       7   44613   44610       6   44616   44610       6   44616   44613       7
   44622   44619       6   44625   44619       6   44625   44622       7   44631
   44628       6   44634   44628       6   44634   44631       7   44640   44637
       6   44643   44637       6   44643   44640       7   44649   44646       6
   44652   44646       6   44652   44649       7   44658   44655       6   44661
   44655       6   44661   44658       7   44667   44664       6   44670   44664
       6   44670   44667       7   44676   44673       6   44679   44673       6
   44679   44676       7   44685   44682       6   44688   44682       6   44688
   44685       7   44694   44691       6   44697   44691       6   44697   44694
       7   44703   44700       6   44706   44700       6   44706   44703       7
   44712   44709       6   44715   44709       6   44715   44712       7   44721
   44718       6   44724   44718       6   44724   44721       7   44730   44727
       6   44733   44727       6   44733   44730       7   44739   44736       6
   44742   44736       6   44742   44739       7   44748   44745       6   44751
   44745       6   44751   44748       7   44757   44754       6   44760   44754
       6   44760   44757       7   44766   44763       6   44769   44763       6
   44769   44766       7   44775   44772       6   44778   44772       6   44778
   44775       7   44784   44781       6   44787   44781       6   44787   44784
       7   44793   44790       6   44796   44790       6   44796   44793       7
   44802   44799       6   44805   44799       6   44805   44802       7   44811
   44808       6   44814   44808       6   44814   44811       7   44820   44817
       6   44823   44817       6   44823   44820       7   44829   44826       6
   44832   44826       6   44832   44829       7   44838   44835       6   44841
   44835       6   44841   44838       7   44847   44844       6   44850   44844
       6   44850   44847       7   44856   44853       6   44859   44853       6
   44859   44856       7   44865   44862       6   44868   44862       6   44868
   44865       7   44874   44871       6   44877   44871       6   44877   44874
       7   44883   44880       6   44886   44880       6   44886   44883       7
   44892   44889       6   44895   44889       6   44895   44892       7   44901
   44898       6   44904   44898       6   44904   44901       7   44910   44907
       6   44913   44907       6   44913   44910       7   44919   44916       6
   44922   44916       6   44922   44919       7   44928   44925       6   44931
   44925       6   44931   44928       7   44937   44934       6   44940   44934
       6   44940   44937       7   44946   44943       6   44949   44943       6
   44949   44946       7   44955   44952       6   44958   44952       6   44958
   44955       7   44964   44961       6   44967   44961       6   44967   44964
       7   44973   44970       6   44976   44970       6   44976   44973       7
   44982   44979       6   44985   44979       6   44985   44982       7   44991
   44988       6   44994   44988       6   44994   44991       7   45000   44997
       6   45003   44997       6   45003   45000       7   45009   45006       6
   45012   45006       6   45012   45009       7   45018   45015       6   45021
   45015       6   45021   45018       7   45027   45024       6   45030   45024
       6   45030   45027       7   45036   45033       6   45039   45033       6
   45039   45036       7   45045   45042       6   45048   45042       6   45048
   45045       7   45054   45051       6   45057   45051       6   45057   45054
       7   45063   45060       6   45066   45060       6   45066   45063       7
   45072   45069       6   45075   45069       6   45075   45072       7   45081
   45078       6   45084   45078       6   45084   45081       7   45090   45087
       6   45093   45087       6   45093   45090       7   45099   45096       6
   45102   45096       6   45102   45099       7   45108   45105       6   45111
   45105       6   45111   45108       7   45117   45114       6   45120   45114
       6   45120   45117       7   45126   45123       6   45129   45123       6
   45129   45126       7   45135   45132       6   45138   45132       6   45138
   45135       7   45144   45141       6   45147   45141       6   45147   45144
       7   45153   45150       6   45156   45150       6   45156   45153       7
   45162   45159       6   45165   45159       6   45165   45162       7   45171
   45168       6   45174   45168       6   45174   45171       7   45180   45177
       6   45183   45177       6   45183   45180       7   45189   45186       6
   45192   45186       6   45192   45189       7   45198   45195       6   45201
   45195       6   45201   45198       7   45207   45204       6   45210   45204
       6   45210   45207       7   45216   45213       6   45219   45213       6
   45219   45216       7   45225   45222       6   45228   45222       6   45228
   45225       7   45234   45231       6   45237   45231       6   45237   45234
       7   45243   45240       6   45246   45240       6   45246   45243       7
   45252   45249       6   45255   45249       6   45255   45252       7   45261
   45258       6   45264   45258       6   45264   45261       7   45270   45267
       6   45273   45267       6   45273   45270       7   45279   45276       6
   45282   45276       6   45282   45279       7   45288   45285       6   45291
   45285       6   45291   45288       7   45297   45294       6   45300   45294
       6   45300   45297       7   45306   45303       6   45309   45303       6
   45309   45306       7   45315   45312       6   45318   45312       6   45318
   45315       7   45324   45321       6   45327   45321       6   45327   45324
       7   45333   45330       6   45336   45330       6   45336   45333       7
   45342   45339       6   45345   45339       6   45345   45342       7   45351
   45348       6   45354   45348       6   45354   45351       7   45360   45357
       6   45363   45357       6   45363   45360       7   45369   45366       6
   45372   45366       6   45372   45369       7   45378   45375       6   45381
   45375       6   45381   45378       7   45387   45384       6   45390   45384
       6   45390   45387       7   45396   45393       6   45399   45393       6
   45399   45396       7   45405   45402       6   45408   45402       6   45408
   45405       7   45414   45411       6   45417   45411       6   45417   45414
       7   45423   45420       6   45426   45420       6   45426   45423       7
   45432   45429       6   45435   45429       6   45435   45432       7   45441
   45438       6   45444   45438       6   45444   45441       7   45450   45447
       6   45453   45447       6   45453   45450       7   45459   45456       6
   45462   45456       6   45462   45459       7   45468   45465       6   45471
   45465       6   45471   45468       7   45477   45474       6   45480   45474
       6   45480   45477       7   45486   45483       6   45489   45483       6
   45489   45486       7   45495   45492       6   45498   45492       6   45498
   45495       7   45504   45501       6   45507   45501       6   45507   45504
       7   45513   45510       6   45516   45510       6   45516   45513       7
   45522   45519       6   45525   45519       6   45525   45522       7   45531
   45528       6   45534   45528       6   45534   45531       7   45540   45537
       6   45543   45537       6   45543   45540       7   45549   45546       6
   45552   45546       6   45552   45549       7   45558   45555       6   45561
   45555       6   45561   45558       7   45567   45564       6   45570   45564
       6   45570   45567       7   45576   45573       6   45579   45573       6
   45579   45576       7   45585   45582       6   45588   45582       6   45588
   45585       7   45594   45591       6   45597   45591       6   45597   45594
       7   45603   45600       6   45606   45600       6   45606   45603       7
   45612   45609       6   45615   45609       6   45615   45612       7   45621
   45618       6   45624   45618       6   45624   45621       7   45630   45627
       6   45633   45627       6   45633   45630       7   45639   45636       6
   45642   45636       6   45642   45639       7   45648   45645       6   45651
   45645       6   45651   45648       7   45657   45654       6   45660   45654
       6   45660   45657       7   45666   45663       6   45669   45663       6
   45669   45666       7   45675   45672       6   45678   45672       6   45678
   45675       7   45684   45681       6   45687   45681       6   45687   45684
       7   45693   45690       6   45696   45690       6   45696   45693       7
   45702   45699       6   45705   45699       6   45705   45702       7   45711
   45708       6   45714   45708       6   45714   45711       7   45720   45717
       6   45723   45717       6   45723   45720       7   45729   45726       6
   45732   45726       6   45732   45729       7   45738   45735       6   45741
   45735       6   45741   45738       7   45747   45744       6   45750   45744
       6   45750   45747       7   45756   45753       6   45759   45753       6
   45759   45756       7   45765   45762       6   45768   45762       6   45768
   45765       7   45774   45771       6   45777   45771       6   45777   45774
       7   45783   45780       6   45786   45780       6   45786   45783       7
   45792   45789       6   45795   45789       6   45795   45792       7   45801
   45798       6   45804   45798       6   45804   45801       7   45810   45807
       6   45813   45807       6   45813   45810       7   45819   45816       6
   45822   45816       6   45822   45819       7   45828   45825       6   45831
   45825       6   45831   45828       7   45837   45834       6   45840   45834
       6   45840   45837       7   45846   45843       6   45849   45843       6
   45849   45846       7   45855   45852       6   45858   45852       6   45858
   45855       7   45864   45861       6   45867   45861       6   45867   45864
       7   45873   45870       6   45876   45870       6   45876   45873       7
   45882   45879       6   45885   45879       6   45885   45882       7   45891
   45888       6   45894   45888       6   45894   45891       7   45900   45897
       6   45903   45897       6   45903   45900       7   45909   45906       6
   45912   45906       6   45912   45909       7   45918   45915       6   45921
   45915       6   45921   45918       7   45927   45924       6   45930   45924
       6   45930   45927       7   45936   45933       6   45939   45933       6
   45939   45936       7   45945   45942       6   45948   45942       6   45948
   45945       7   45954   45951       6   45957   45951       6   45957   45954
       7   45963   45960       6   45966   45960       6   45966   45963       7
   45972   45969       6   45975   45969       6   45975   45972       7   45981
   45978       6   45984   45978       6   45984   45981       7   45990   45987
       6   45993   45987       6   45993   45990       7   45999   45996       6
   46002   45996       6   46002   45999       7   46008   46005       6   46011
   46005       6   46011   46008       7   46017   46014       6   46020   46014
       6   46020   46017       7   46026   46023       6   46029   46023       6
   46029   46026       7   46035   46032       6   46038   46032       6   46038
   46035       7   46044   46041       6   46047   46041       6   46047   46044
       7   46053   46050       6   46056   46050       6   46056   46053       7
   46062   46059       6   46065   46059       6   46065   46062       7   46071
   46068       6   46074   46068       6   46074   46071       7   46080   46077
       6   46083   46077       6   46083   46080       7   46089   46086       6
   46092   46086       6   46092   46089       7   46098   46095       6   46101
   46095       6   46101   46098       7   46107   46104       6   46110   46104
       6   46110   46107       7   46116   46113       6   46119   46113       6
   46119   46116       7   46125   46122       6   46128   46122       6   46128
   46125       7   46134   46131       6   46137   46131       6   46137   46134
       7   46143   46140       6   46146   46140       6   46146   46143       7
   46152   46149       6   46155   46149       6   46155   46152       7   46161
   46158       6   46164   46158       6   46164   46161       7   46170   46167
       6   46173   46167       6   46173   46170       7   46179   46176       6
   46182   46176       6   46182   46179       7   46188   46185       6   46191
   46185       6   46191   46188       7   46197   46194       6   46200   46194
       6   46200   46197       7   46206   46203       6   46209   46203       6
   46209   46206       7   46215   46212       6   46218   46212       6   46218
   46215       7   46224   46221       6   46227   46221       6   46227   46224
       7   46233   46230       6   46236   46230       6   46236   46233       7
   46242   46239       6   46245   46239       6   46245   46242       7   46251
   46248       6   46254   46248       6   46254   46251       7   46260   46257
       6   46263   46257       6   46263   46260       7   46269   46266       6
   46272   46266       6   46272   46269       7   46278   46275       6   46281
   46275       6   46281   46278       7   46287   46284       6   46290   46284
       6   46290   46287       7   46296   46293       6   46299   46293       6
   46299   46296       7   46305   46302       6   46308   46302       6   46308
   46305       7   46314   46311       6   46317   46311       6   46317   46314
       7   46323   46320       6   46326   46320       6   46326   46323       7
   46332   46329       6   46335   46329       6   46335   46332       7   46341
   46338       6   46344   46338       6   46344   46341       7   46350   46347
       6   46353   46347       6   46353   46350       7   46359   46356       6
   46362   46356       6   46362   46359       7   46368   46365       6   46371
   46365       6   46371   46368       7   46377   46374       6   46380   46374
       6   46380   46377       7   46386   46383       6   46389   46383       6
   46389   46386       7   46395   46392       6   46398   46392       6   46398
   46395       7   46404   46401       6   46407   46401       6   46407   46404
       7   46413   46410       6   46416   46410       6   46416   46413       7
   46422   46419       6   46425   46419       6   46425   46422       7   46431
   46428       6   46434   46428       6   46434   46431       7   46440   46437
       6   46443   46437       6   46443   46440       7   46449   46446       6
   46452   46446       6   46452   46449       7   46458   46455       6   46461
   46455       6   46461   46458       7   46467   46464       6   46470   46464
       6   46470   46467       7   46476   46473       6   46479   46473       6
   46479   46476       7   46485   46482       6   46488   46482       6   46488
   46485       7   46494   46491       6   46497   46491       6   46497   46494
       7   46503   46500       6   46506   46500       6   46506   46503       7
   46512   46509       6   46515   46509       6   46515   46512       7   46521
   46518       6   46524   46518       6   46524   46521       7   46530   46527
       6   46533   46527       6   46533   46530       7   46539   46536       6
   46542   46536       6   46542   46539       7   46548   46545       6   46551
   46545       6   46551   46548       7   46557   46554       6   46560   46554
       6   46560   46557       7   46566   46563       6   46569   46563       6
   46569   46566       7   46575   46572       6   46578   46572       6   46578
   46575       7   46584   46581       6   46587   46581       6   46587   46584
       7   46593   46590       6   46596   46590       6   46596   46593       7
   46602   46599       6   46605   46599       6   46605   46602       7   46611
   46608       6   46614   46608       6   46614   46611       7   46620   46617
       6   46623   46617       6   46623   46620       7   46629   46626       6
   46632   46626       6   46632   46629       7   46638   46635       6   46641
   46635       6   46641   46638       7   46647   46644       6   46650   46644
       6   46650   46647       7   46656   46653       6   46659   46653       6
   46659   46656       7   46665   46662       6   46668   46662       6   46668
   46665       7   46674   46671       6   46677   46671       6   46677   46674
       7   46683   46680       6   46686   46680       6   46686   46683       7
   46692   46689       6   46695   46689       6   46695   46692       7   46701
   46698       6   46704   46698       6   46704   46701       7   46710   46707
       6   46713   46707       6   46713   46710       7   46719   46716       6
   46722   46716       6   46722   46719       7   46728   46725       6   46731
   46725       6   46731   46728       7   46737   46734       6   46740   46734
       6   46740   46737       7   46746   46743       6   46749   46743       6
   46749   46746       7   46755   46752       6   46758   46752       6   46758
   46755       7   46764   46761       6   46767   46761       6   46767   46764
       7   46773   46770       6   46776   46770       6   46776   46773       7
   46782   46779       6   46785   46779       6   46785   46782       7   46791
   46788       6   46794   46788       6   46794   46791       7   46800   46797
       6   46803   46797       6   46803   46800       7   46809   46806       6
   46812   46806       6   46812   46809       7   46818   46815       6   46821
   46815       6   46821   46818       7   46827   46824       6   46830   46824
       6   46830   46827       7   46836   46833       6   46839   46833       6
   46839   46836       7   46845   46842       6   46848   46842       6   46848
   46845       7   46854   46851       6   46857   46851       6   46857   46854
       7   46863   46860       6   46866   46860       6   46866   46863       7
   46872   46869       6   46875   46869       6   46875   46872       7   46881
   46878       6   46884   46878       6   46884   46881       7   46890   46887
       6   46893   46887       6   46893   46890       7   46899   46896       6
   46902   46896       6   46902   46899       7   46908   46905       6   46911
   46905       6   46911   46908       7   46917   46914       6   46920   46914
       6   46920   46917       7   46926   46923       6   46929   46923       6
   46929   46926       7   46935   46932       6   46938   46932       6   46938
   46935       7   46944   46941       6   46947   46941       6   46947   46944
       7   46953   46950       6   46956   46950       6   46956   46953       7
   46962   46959       6   46965   46959       6   46965   46962       7   46971
   46968       6   46974   46968       6   46974   46971       7   46980   46977
       6   46983   46977       6   46983   46980       7   46989   46986       6
   46992   46986       6   46992   46989       7   46998   46995       6   47001
   46995       6   47001   46998       7   47007   47004       6   47010   47004
       6   47010   47007       7   47016   47013       6   47019   47013       6
   47019   47016       7   47025   47022       6   47028   47022       6   47028
   47025       7   47034   47031       6   47037   47031       6   47037   47034
       7   47043   47040       6   47046   47040       6   47046   47043       7
   47052   47049       6   47055   47049       6   47055   47052       7   47061
   47058       6   47064   47058       6   47064   47061       7   47070   47067
       6   47073   47067       6   47073   47070       7   47079   47076       6
   47082   47076       6   47082   47079       7   47088   47085       6   47091
   47085       6   47091   47088       7   47097   47094       6   47100   47094
       6   47100   47097       7   47106   47103       6   47109   47103       6
   47109   47106       7   47115   47112       6   47118   47112       6   47118
   47115       7   47124   47121       6   47127   47121       6   47127   47124
       7   47133   47130       6   47136   47130       6   47136   47133       7
   47142   47139       6   47145   47139       6   47145   47142       7   47151
   47148       6   47154   47148       6   47154   47151       7   47160   47157
       6   47163   47157       6   47163   47160       7   47169   47166       6
   47172   47166       6   47172   47169       7   47178   47175       6   47181
   47175       6   47181   47178       7   47187   47184       6   47190   47184
       6   47190   47187       7   47196   47193       6   47199   47193       6
   47199   47196       7   47205   47202       6   47208   47202       6   47208
   47205       7   47214   47211       6   47217   47211       6   47217   47214
       7   47223   47220       6   47226   47220       6   47226   47223       7
   47232   47229       6   47235   47229       6   47235   47232       7   47241
   47238       6   47244   47238       6   47244   47241       7   47250   47247
       6   47253   47247       6   47253   47250       7   47259   47256       6
   47262   47256       6   47262   47259       7   47268   47265       6   47271
   47265       6   47271   47268       7   47277   47274       6   47280   47274
       6   47280   47277       7   47286   47283       6   47289   47283       6
   47289   47286       7   47295   47292       6   47298   47292       6   47298
   47295       7   47304   47301       6   47307   47301       6   47307   47304
       7   47313   47310       6   47316   47310       6   47316   47313       7
   47322   47319       6   47325   47319       6   47325   47322       7   47331
   47328       6   47334   47328       6   47334   47331       7   47340   47337
       6   47343   47337       6   47343   47340       7   47349   47346       6
   47352   47346       6   47352   47349       7   47358   47355       6   47361
   47355       6   47361   47358       7   47367   47364       6   47370   47364
       6   47370   47367       7   47376   47373       6   47379   47373       6
   47379   47376       7   47385   47382       6   47388   47382       6   47388
   47385       7   47394   47391       6   47397   47391       6   47397   47394
       7   47403   47400       6   47406   47400       6   47406   47403       7
   47412   47409       6   47415   47409       6   47415   47412       7   47421
   47418       6   47424   47418       6   47424   47421       7   47430   47427
       6   47433   47427       6   47433   47430       7   47439   47436       6
   47442   47436       6   47442   47439       7   47448   47445       6   47451
   47445       6   47451   47448       7   47457   47454       6   47460   47454
       6   47460   47457       7   47466   47463       6   47469   47463       6
   47469   47466       7   47475   47472       6   47478   47472       6   47478
   47475       7   47484   47481       6   47487   47481       6   47487   47484
       7   47493   47490       6   47496   47490       6   47496   47493       7
   47502   47499       6   47505   47499       6   47505   47502       7   47511
   47508       6   47514   47508       6   47514   47511       7   47520   47517
       6   47523   47517       6   47523   47520       7   47529   47526       6
   47532   47526       6   47532   47529       7   47538   47535       6   47541
   47535       6   47541   47538       7   47547   47544       6   47550   47544
       6   47550   47547       7   47556   47553       6   47559   47553       6
   47559   47556       7   47565   47562       6   47568   47562       6   47568
   47565       7   47574   47571       6   47577   47571       6   47577   47574
       7   47583   47580       6   47586   47580       6   47586   47583       7
   47592   47589       6   47595   47589       6   47595   47592       7   47601
   47598       6   47604   47598       6   47604   47601       7   47610   47607
       6   47613   47607       6   47613   47610       7   47619   47616       6
   47622   47616       6   47622   47619       7   47628   47625       6   47631
   47625       6   47631   47628       7   47637   47634       6   47640   47634
       6   47640   47637       7   47646   47643       6   47649   47643       6
   47649   47646       7   47655   47652       6   47658   47652       6   47658
   47655       7   47664   47661       6   47667   47661       6   47667   47664
       7   47673   47670       6   47676   47670       6   47676   47673       7
   47682   47679       6   47685   47679       6   47685   47682       7   47691
   47688       6   47694   47688       6   47694   47691       7   47700   47697
       6   47703   47697       6   47703   47700       7   47709   47706       6
   47712   47706       6   47712   47709       7   47718   47715       6   47721
   47715       6   47721   47718       7   47727   47724       6   47730   47724
       6   47730   47727       7   47736   47733       6   47739   47733       6
   47739   47736       7   47745   47742       6   47748   47742       6   47748
   47745       7   47754   47751       6   47757   47751       6   47757   47754
       7   47763   47760       6   47766   47760       6   47766   47763       7
   47772   47769       6   47775   47769       6   47775   47772       7   47781
   47778       6   47784   47778       6   47784   47781       7   47790   47787
       6   47793   47787       6   47793   47790       7   47799   47796       6
   47802   47796       6   47802   47799       7   47808   47805       6   47811
   47805       6   47811   47808       7   47817   47814       6   47820   47814
       6   47820   47817       7   47826   47823       6   47829   47823       6
   47829   47826       7   47835   47832       6   47838   47832       6   47838
   47835       7   47844   47841       6   47847   47841       6   47847   47844
       7   47853   47850       6   47856   47850       6   47856   47853       7
   47862   47859       6   47865   47859       6   47865   47862       7   47871
   47868       6   47874   47868       6   47874   47871       7   47880   47877
       6   47883   47877       6   47883   47880       7   47889   47886       6
   47892   47886       6   47892   47889       7   47898   47895       6   47901
   47895       6   47901   47898       7   47907   47904       6   47910   47904
       6   47910   47907       7   47916   47913       6   47919   47913       6
   47919   47916       7   47925   47922       6   47928   47922       6   47928
   47925       7   47934   47931       6   47937   47931       6   47937   47934
       7   47943   47940       6   47946   47940       6   47946   47943       7
   47952   47949       6   47955   47949       6   47955   47952       7   47961
   47958       6   47964   47958       6   47964   47961       7   47970   47967
       6   47973   47967       6   47973   47970       7   47979   47976       6
   47982   47976       6   47982   47979       7   47988   47985       6   47991
   47985       6   47991   47988       7   47997   47994       6   48000   47994
       6   48000   47997       7   48006   48003       6   48009   48003       6
   48009   48006       7   48015   48012       6   48018   48012       6   48018
   48015       7   48024   48021       6   48027   48021       6   48027   48024
       7   48033   48030       6   48036   48030       6   48036   48033       7
   48042   48039       6   48045   48039       6   48045   48042       7   48051
   48048       6   48054   48048       6   48054   48051       7   48060   48057
       6   48063   48057       6   48063   48060       7   48069   48066       6
   48072   48066       6   48072   48069       7   48078   48075       6   48081
   48075       6   48081   48078       7   48087   48084       6   48090   48084
       6   48090   48087       7   48096   48093       6   48099   48093       6
   48099   48096       7   48105   48102       6   48108   48102       6   48108
   48105       7   48114   48111       6   48117   48111       6   48117   48114
       7   48123   48120       6   48126   48120       6   48126   48123       7
   48132   48129       6   48135   48129       6   48135   48132       7   48141
   48138       6   48144   48138       6   48144   48141       7   48150   48147
       6   48153   48147       6   48153   48150       7   48159   48156       6
   48162   48156       6   48162   48159       7   48168   48165       6   48171
   48165       6   48171   48168       7   48177   48174       6   48180   48174
       6   48180   48177       7   48186   48183       6   48189   48183       6
   48189   48186       7   48195   48192       6   48198   48192       6   48198
   48195       7   48204   48201       6   48207   48201       6   48207   48204
       7   48213   48210       6   48216   48210       6   48216   48213       7
   48222   48219       6   48225   48219       6   48225   48222       7   48231
   48228       6   48234   48228       6   48234   48231       7   48240   48237
       6   48243   48237       6   48243   48240       7   48249   48246       6
   48252   48246       6   48252   48249       7   48258   48255       6   48261
   48255       6   48261   48258       7   48267   48264       6   48270   48264
       6   48270   48267       7   48276   48273       6   48279   48273       6
   48279   48276       7   48285   48282       6   48288   48282       6   48288
   48285       7   48294   48291       6   48297   48291       6   48297   48294
       7   48303   48300       6   48306   48300       6   48306   48303       7
   48312   48309       6   48315   48309       6   48315   48312       7   48321
   48318       6   48324   48318       6   48324   48321       7   48330   48327
       6   48333   48327       6   48333   48330       7   48339   48336       6
   48342   48336       6   48342   48339       7   48348   48345       6   48351
   48345       6   48351   48348       7   48357   48354       6   48360   48354
       6   48360   48357       7   48366   48363       6   48369   48363       6
   48369   48366       7   48375   48372       6   48378   48372       6   48378
   48375       7   48384   48381       6   48387   48381       6   48387   48384
       7   48393   48390       6   48396   48390       6   48396   48393       7
   48402   48399       6   48405   48399       6   48405   48402       7   48411
   48408       6   48414   48408       6   48414   48411       7   48420   48417
       6   48423   48417       6   48423   48420       7   48429   48426       6
   48432   48426       6   48432   48429       7   48438   48435       6   48441
   48435       6   48441   48438       7   48447   48444       6   48450   48444
       6   48450   48447       7   48456   48453       6   48459   48453       6
   48459   48456       7   48465   48462       6   48468   48462       6   48468
   48465       7   48474   48471       6   48477   48471       6   48477   48474
       7   48483   48480       6   48486   48480       6   48486   48483       7
   48492   48489       6   48495   48489       6   48495   48492       7   48501
   48498       6   48504   48498       6   48504   48501       7   48510   48507
       6   48513   48507       6   48513   48510       7   48519   48516       6
   48522   48516       6   48522   48519       7   48528   48525       6   48531
   48525       6   48531   48528       7   48537   48534       6   48540   48534
       6   48540   48537       7   48546   48543       6   48549   48543       6
   48549   48546       7   48555   48552       6   48558   48552       6   48558
   48555       7   48564   48561       6   48567   48561       6   48567   48564
       7   48573   48570       6   48576   48570       6   48576   48573       7
   48582   48579       6   48585   48579       6   48585   48582       7   48591
   48588       6   48594   48588       6   48594   48591       7   48600   48597
       6   48603   48597       6   48603   48600       7   48609   48606       6
   48612   48606       6   48612   48609       7   48618   48615       6   48621
   48615       6   48621   48618       7   48627   48624       6   48630   48624
       6   48630   48627       7   48636   48633       6   48639   48633       6
   48639   48636       7   48645   48642       6   48648   48642       6   48648
   48645       7   48654   48651       6   48657   48651       6   48657   48654
       7   48663   48660       6   48666   48660       6   48666   48663       7
   48672   48669       6   48675   48669       6   48675   48672       7   48681
   48678       6   48684   48678       6   48684   48681       7   48690   48687
       6   48693   48687       6   48693   48690       7   48699   48696       6
   48702   48696       6   48702   48699       7   48708   48705       6   48711
   48705       6   48711   48708       7   48717   48714       6   48720   48714
       6   48720   48717       7   48726   48723       6   48729   48723       6
   48729   48726       7   48735   48732       6   48738   48732       6   48738
   48735       7   48744   48741       6   48747   48741       6   48747   48744
       7   48753   48750       6   48756   48750       6   48756   48753       7
   48762   48759       6   48765   48759       6   48765   48762       7   48771
   48768       6   48774   48768       6   48774   48771       7   48780   48777
       6   48783   48777       6   48783   48780       7   48789   48786       6
   48792   48786       6   48792   48789       7   48798   48795       6   48801
   48795       6   48801   48798       7   48807   48804       6   48810   48804
       6   48810   48807       7   48816   48813       6   48819   48813       6
   48819   48816       7   48825   48822       6   48828   48822       6   48828
   48825       7   48834   48831       6   48837   48831       6   48837   48834
       7   48843   48840       6   48846   48840       6   48846   48843       7
   48852   48849       6   48855   48849       6   48855   48852       7   48861
   48858       6   48864   48858       6   48864   48861       7   48870   48867
       6   48873   48867       6   48873   48870       7   48879   48876       6
   48882   48876       6   48882   48879       7   48888   48885       6   48891
   48885       6   48891   48888       7   48897   48894       6   48900   48894
       6   48900   48897       7   48906   48903       6   48909   48903       6
   48909   48906       7   48915   48912       6   48918   48912       6   48918
   48915       7   48924   48921       6   48927   48921       6   48927   48924
       7   48933   48930       6   48936   48930       6   48936   48933       7
   48942   48939       6   48945   48939       6   48945   48942       7   48951
   48948       6   48954   48948       6   48954   48951       7   48960   48957
       6   48963   48957       6   48963   48960       7   48969   48966       6
   48972   48966       6   48972   48969       7   48978   48975       6   48981
   48975       6   48981   48978       7   48987   48984       6   48990   48984
       6   48990   48987       7   48996   48993       6   48999   48993       6
   48999   48996       7   49005   49002       6   49008   49002       6   49008
   49005       7   49014   49011       6   49017   49011       6   49017   49014
       7   49023   49020       6   49026   49020       6   49026   49023       7
   49032   49029       6   49035   49029       6   49035   49032       7   49041
   49038       6   49044   49038       6   49044   49041       7   49050   49047
       6   49053   49047       6   49053   49050       7   49059   49056       6
   49062   49056       6   49062   49059       7   49068   49065       6   49071
   49065       6   49071   49068       7   49077   49074       6   49080   49074
       6   49080   49077       7   49086   49083       6   49089   49083       6
   49089   49086       7   49095   49092       6   49098   49092       6   49098
   49095       7   49104   49101       6   49107   49101       6   49107   49104
       7   49113   49110       6   49116   49110       6   49116   49113       7
   49122   49119       6   49125   49119       6   49125   49122       7   49131
   49128       6   49134   49128       6   49134   49131       7   49140   49137
       6   49143   49137       6   49143   49140       7   49149   49146       6
   49152   49146       6   49152   49149       7   49158   49155       6   49161
   49155       6   49161   49158       7   49167   49164       6   49170   49164
       6   49170   49167       7   49176   49173       6   49179   49173       6
   49179   49176       7   49185   49182       6   49188   49182       6   49188
   49185       7   49194   49191       6   49197   49191       6   49197   49194
       7   49203   49200       6   49206   49200       6   49206   49203       7
   49212   49209       6   49215   49209       6   49215   49212       7   49221
   49218       6   49224   49218       6   49224   49221       7   49230   49227
       6   49233   49227       6   49233   49230       7   49239   49236       6
   49242   49236       6   49242   49239       7   49248   49245       6   49251
   49245       6   49251   49248       7   49257   49254       6   49260   49254
       6   49260   49257       7   49266   49263       6   49269   49263       6
   49269   49266       7   49275   49272       6   49278   49272       6   49278
   49275       7   49284   49281       6   49287   49281       6   49287   49284
       7   49293   49290       6   49296   49290       6   49296   49293       7
   49302   49299       6   49305   49299       6   49305   49302       7   49311
   49308       6   49314   49308       6   49314   49311       7   49320   49317
       6   49323   49317       6   49323   49320       7   49329   49326       6
   49332   49326       6   49332   49329       7   49338   49335       6   49341
   49335       6   49341   49338       7   49347   49344       6   49350   49344
       6   49350   49347       7   49356   49353       6   49359   49353       6
   49359   49356       7   49365   49362       6   49368   49362       6   49368
   49365       7   49374   49371       6   49377   49371       6   49377   49374
       7   49383   49380       6   49386   49380       6   49386   49383       7
   49392   49389       6   49395   49389       6   49395   49392       7   49401
   49398       6   49404   49398       6   49404   49401       7   49410   49407
       6   49413   49407       6   49413   49410       7   49419   49416       6
   49422   49416       6   49422   49419       7   49428   49425       6   49431
   49425       6   49431   49428       7   49437   49434       6   49440   49434
       6   49440   49437       7   49446   49443       6   49449   49443       6
   49449   49446       7   49455   49452       6   49458   49452       6   49458
   49455       7   49464   49461       6   49467   49461       6   49467   49464
       7   49473   49470       6   49476   49470       6   49476   49473       7
   49482   49479       6   49485   49479       6   49485   49482       7   49491
   49488       6   49494   49488       6   49494   49491       7   49500   49497
       6   49503   49497       6   49503   49500       7   49509   49506       6
   49512   49506       6   49512   49509       7   49518   49515       6   49521
   49515       6   49521   49518       7   49527   49524       6   49530   49524
       6   49530   49527       7   49536   49533       6   49539   49533       6
   49539   49536       7   49545   49542       6   49548   49542       6   49548
   49545       7   49554   49551       6   49557   49551       6   49557   49554
       7   49563   49560       6   49566   49560       6   49566   49563       7
   49572   49569       6   49575   49569       6   49575   49572       7   49581
   49578       6   49584   49578       6   49584   49581       7   49590   49587
       6   49593   49587       6   49593   49590       7   49599   49596       6
   49602   49596       6   49602   49599       7   49608   49605       6   49611
   49605       6   49611   49608       7   49617   49614       6   49620   49614
       6   49620   49617       7   49626   49623       6   49629   49623       6
   49629   49626       7   49635   49632       6   49638   49632       6   49638
   49635       7   49644   49641       6   49647   49641       6   49647   49644
       7   49653   49650       6   49656   49650       6   49656   49653       7
   49662   49659       6   49665   49659       6   49665   49662       7   49671
   49668       6   49674   49668       6   49674   49671       7   49680   49677
       6   49683   49677       6   49683   49680       7   49689   49686       6
   49692   49686       6   49692   49689       7   49698   49695       6   49701
   49695       6   49701   49698       7   49707   49704       6   49710   49704
       6   49710   49707       7   49716   49713       6   49719   49713       6
   49719   49716       7   49725   49722       6   49728   49722       6   49728
   49725       7   49734   49731       6   49737   49731       6   49737   49734
       7   49743   49740       6   49746   49740       6   49746   49743       7
   49752   49749       6   49755   49749       6   49755   49752       7   49761
   49758       6   49764   49758       6   49764   49761       7   49770   49767
       6   49773   49767       6   49773   49770       7   49779   49776       6
   49782   49776       6   49782   49779       7   49788   49785       6   49791
   49785       6   49791   49788       7   49797   49794       6   49800   49794
       6   49800   49797       7   49806   49803       6   49809   49803       6
   49809   49806       7   49815   49812       6   49818   49812       6   49818
   49815       7   49824   49821       6   49827   49821       6   49827   49824
       7   49833   49830       6   49836   49830       6   49836   49833       7
   49842   49839       6   49845   49839       6   49845   49842       7   49851
   49848       6   49854   49848       6   49854   49851       7   49860   49857
       6   49863   49857       6   49863   49860       7   49869   49866       6
   49872   49866       6   49872   49869       7   49878   49875       6   49881
   49875       6   49881   49878       7   49887   49884       6   49890   49884
       6   49890   49887       7   49896   49893       6   49899   49893       6
   49899   49896       7   49905   49902       6   49908   49902       6   49908
   49905       7   49914   49911       6   49917   49911       6   49917   49914
       7   49923   49920       6   49926   49920       6   49926   49923       7
   49932   49929       6   49935   49929       6   49935   49932       7   49941
   49938       6   49944   49938       6   49944   49941       7   49950   49947
       6   49953   49947       6   49953   49950       7   49959   49956       6
   49962   49956       6   49962   49959       7   49968   49965       6   49971
   49965       6   49971   49968       7   49977   49974       6   49980   49974
       6   49980   49977       7   49986   49983       6   49989   49983       6
   49989   49986       7   49995   49992       6   49998   49992       6   49998
   49995       7   50004   50001       6   50007   50001       6   50007   50004
       7   50013   50010       6   50016   50010       6   50016   50013       7
   50022   50019       6   50025   50019       6   50025   50022       7   50031
   50028       6   50034   50028       6   50034   50031       7   50040   50037
       6   50043   50037       6   50043   50040       7   50049   50046       6
   50052   50046       6   50052   50049       7   50058   50055       6   50061
   50055       6   50061   50058       7   50067   50064       6   50070   50064
       6   50070   50067       7   50076   50073       6   50079   50073       6
   50079   50076       7   50085   50082       6   50088   50082       6   50088
   50085       7   50094   50091       6   50097   50091       6   50097   50094
       7   50103   50100       6   50106   50100       6   50106   50103       7
   50112   50109       6   50115   50109       6   50115   50112       7   50121
   50118       6   50124   50118       6   50124   50121       7   50130   50127
       6   50133   50127       6   50133   50130       7   50139   50136       6
   50142   50136       6   50142   50139       7   50148   50145       6   50151
   50145       6   50151   50148       7   50157   50154       6   50160   50154
       6   50160   50157       7   50166   50163       6   50169   50163       6
   50169   50166       7   50175   50172       6   50178   50172       6   50178
   50175       7   50184   50181       6   50187   50181       6   50187   50184
       7   50193   50190       6   50196   50190       6   50196   50193       7
   50202   50199       6   50205   50199       6   50205   50202       7   50211
   50208       6   50214   50208       6   50214   50211       7   50220   50217
       6   50223   50217       6   50223   50220       7   50229   50226       6
   50232   50226       6   50232   50229       7   50238   50235       6   50241
   50235       6   50241   50238       7   50247   50244       6   50250   50244
       6   50250   50247       7   50256   50253       6   50259   50253       6
   50259   50256       7   50265   50262       6   50268   50262       6   50268
   50265       7   50274   50271       6   50277   50271       6   50277   50274
       7   50283   50280       6   50286   50280       6   50286   50283       7
   50292   50289       6   50295   50289       6   50295   50292       7   50301
   50298       6   50304   50298       6   50304   50301       7   50310   50307
       6   50313   50307       6   50313   50310       7   50319   50316       6
   50322   50316       6   50322   50319       7   50328   50325       6   50331
   50325       6   50331   50328       7   50337   50334       6   50340   50334
       6   50340   50337       7   50346   50343       6   50349   50343       6
   50349   50346       7   50355   50352       6   50358   50352       6   50358
   50355       7   50364   50361       6   50367   50361       6   50367   50364
       7   50373   50370       6   50376   50370       6   50376   50373       7
   50382   50379       6   50385   50379       6   50385   50382       7   50391
   50388       6   50394   50388       6   50394   50391       7   50400   50397
       6   50403   50397       6   50403   50400       7   50409   50406       6
   50412   50406       6   50412   50409       7   50418   50415       6   50421
   50415       6   50421   50418       7   50427   50424       6   50430   50424
       6   50430   50427       7   50436   50433       6   50439   50433       6
   50439   50436       7   50445   50442       6   50448   50442       6   50448
   50445       7   50454   50451       6   50457   50451       6   50457   50454
       7   50463   50460       6   50466   50460       6   50466   50463       7
   50472   50469       6   50475   50469       6   50475   50472       7   50481
   50478       6   50484   50478       6   50484   50481       7   50490   50487
       6   50493   50487       6   50493   50490       7   50499   50496       6
   50502   50496       6   50502   50499       7   50508   50505       6   50511
   50505       6   50511   50508       7   50517   50514       6   50520   50514
       6   50520   50517       7   50526   50523       6   50529   50523       6
   50529   50526       7   50535   50532       6   50538   50532       6   50538
   50535       7   50544   50541       6   50547   50541       6   50547   50544
       7   50553   50550       6   50556   50550       6   50556   50553       7
   50562   50559       6   50565   50559       6   50565   50562       7   50571
   50568       6   50574   50568       6   50574   50571       7   50580   50577
       6   50583   50577       6   50583   50580       7   50589   50586       6
   50592   50586       6   50592   50589       7   50598   50595       6   50601
   50595       6   50601   50598       7   50607   50604       6   50610   50604
       6   50610   50607       7   50616   50613       6   50619   50613       6
   50619   50616       7   50625   50622       6   50628   50622       6   50628
   50625       7   50634   50631       6   50637   50631       6   50637   50634
       7   50643   50640       6   50646   50640       6   50646   50643       7
   50652   50649       6   50655   50649       6   50655   50652       7   50661
   50658       6   50664   50658       6   50664   50661       7   50670   50667
       6   50673   50667       6   50673   50670       7   50679   50676       6
   50682   50676       6   50682   50679       7   50688   50685       6   50691
   50685       6   50691   50688       7   50697   50694       6   50700   50694
       6   50700   50697       7   50706   50703       6   50709   50703       6
   50709   50706       7   50715   50712       6   50718   50712       6   50718
   50715       7   50724   50721       6   50727   50721       6   50727   50724
       7   50733   50730       6   50736   50730       6   50736   50733       7
   50742   50739       6   50745   50739       6   50745   50742       7   50751
   50748       6   50754   50748       6   50754   50751       7   50760   50757
       6   50763   50757       6   50763   50760       7   50769   50766       6
   50772   50766       6   50772   50769       7   50778   50775       6   50781
   50775       6   50781   50778       7   50787   50784       6   50790   50784
       6   50790   50787       7   50796   50793       6   50799   50793       6
   50799   50796       7   50805   50802       6   50808   50802       6   50808
   50805       7   50814   50811       6   50817   50811       6   50817   50814
       7   50823   50820       6   50826   50820       6   50826   50823       7
   50832   50829       6   50835   50829       6   50835   50832       7   50841
   50838       6   50844   50838       6   50844   50841       7   50850   50847
       6   50853   50847       6   50853   50850       7   50859   50856       6
   50862   50856       6   50862   50859       7   50868   50865       6   50871
   50865       6   50871   50868       7   50877   50874       6   50880   50874
       6   50880   50877       7   50886   50883       6   50889   50883       6
   50889   50886       7   50895   50892       6   50898   50892       6   50898
   50895       7   50904   50901       6   50907   50901       6   50907   50904
       7   50913   50910       6   50916   50910       6   50916   50913       7
   50922   50919       6   50925   50919       6   50925   50922       7   50931
   50928       6   50934   50928       6   50934   50931       7   50940   50937
       6   50943   50937       6   50943   50940       7   50949   50946       6
   50952   50946       6   50952   50949       7   50958   50955       6   50961
   50955       6   50961   50958       7   50967   50964       6   50970   50964
       6   50970   50967       7   50976   50973       6   50979   50973       6
   50979   50976       7   50985   50982       6   50988   50982       6   50988
   50985       7   50994   50991       6   50997   50991       6   50997   50994
       7   51003   51000       6   51006   51000       6   51006   51003       7
   51012   51009       6   51015   51009       6   51015   51012       7   51021
   51018       6   51024   51018       6   51024   51021       7   51030   51027
       6   51033   51027       6   51033   51030       7   51039   51036       6
   51042   51036       6   51042   51039       7   51048   51045       6   51051
   51045       6   51051   51048       7   51057   51054       6   51060   51054
       6   51060   51057       7   51066   51063       6   51069   51063       6
   51069   51066       7   51075   51072       6   51078   51072       6   51078
   51075       7   51084   51081       6   51087   51081       6   51087   51084
       7   51093   51090       6   51096   51090       6   51096   51093       7
   51102   51099       6   51105   51099       6   51105   51102       7   51111
   51108       6   51114   51108       6   51114   51111       7   51120   51117
       6   51123   51117       6   51123   51120       7   51129   51126       6
   51132   51126       6   51132   51129       7   51138   51135       6   51141
   51135       6   51141   51138       7   51147   51144       6   51150   51144
       6   51150   51147       7   51156   51153       6   51159   51153       6
   51159   51156       7   51165   51162       6   51168   51162       6   51168
   51165       7   51174   51171       6   51177   51171       6   51177   51174
       7   51183   51180       6   51186   51180       6   51186   51183       7
   51192   51189       6   51195   51189       6   51195   51192       7   51201
   51198       6   51204   51198       6   51204   51201       7   51210   51207
       6   51213   51207       6   51213   51210       7   51219   51216       6
   51222   51216       6   51222   51219       7   51228   51225       6   51231
   51225       6   51231   51228       7   51237   51234       6   51240   51234
       6   51240   51237       7   51246   51243       6   51249   51243       6
   51249   51246       7   51255   51252       6   51258   51252       6   51258
   51255       7   51264   51261       6   51267   51261       6   51267   51264
       7   51273   51270       6   51276   51270       6   51276   51273       7
   51282   51279       6   51285   51279       6   51285   51282       7   51291
   51288       6   51294   51288       6   51294   51291       7   51300   51297
       6   51303   51297       6   51303   51300       7   51309   51306       6
   51312   51306       6   51312   51309       7   51318   51315       6   51321
   51315       6   51321   51318       7   51327   51324       6   51330   51324
       6   51330   51327       7   51336   51333       6   51339   51333       6
   51339   51336       7   51345   51342       6   51348   51342       6   51348
   51345       7   51354   51351       6   51357   51351       6   51357   51354
       7   51363   51360       6   51366   51360       6   51366   51363       7
   51372   51369       6   51375   51369       6   51375   51372       7   51381
   51378       6   51384   51378       6   51384   51381       7   51390   51387
       6   51393   51387       6   51393   51390       7   51399   51396       6
   51402   51396       6   51402   51399       7   51408   51405       6   51411
   51405       6   51411   51408       7   51417   51414       6   51420   51414
       6   51420   51417       7   51426   51423       6   51429   51423       6
   51429   51426       7   51435   51432       6   51438   51432       6   51438
   51435       7   51444   51441       6   51447   51441       6   51447   51444
       7   51453   51450       6   51456   51450       6   51456   51453       7
   51462   51459       6   51465   51459       6   51465   51462       7   51471
   51468       6   51474   51468       6   51474   51471       7   51480   51477
       6   51483   51477       6   51483   51480       7   51489   51486       6
   51492   51486       6   51492   51489       7   51498   51495       6   51501
   51495       6   51501   51498       7   51507   51504       6   51510   51504
       6   51510   51507       7   51516   51513       6   51519   51513       6
   51519   51516       7   51525   51522       6   51528   51522       6   51528
   51525       7   51534   51531       6   51537   51531       6   51537   51534
       7   51543   51540       6   51546   51540       6   51546   51543       7
   51552   51549       6   51555   51549       6   51555   51552       7   51561
   51558       6   51564   51558       6   51564   51561       7   51570   51567
       6   51573   51567       6   51573   51570       7   51579   51576       6
   51582   51576       6   51582   51579       7   51588   51585       6   51591
   51585       6   51591   51588       7   51597   51594       6   51600   51594
       6   51600   51597       7   51606   51603       6   51609   51603       6
   51609   51606       7   51615   51612       6   51618   51612       6   51618
   51615       7   51624   51621       6   51627   51621       6   51627   51624
       7   51633   51630       6   51636   51630       6   51636   51633       7
   51642   51639       6   51645   51639       6   51645   51642       7   51651
   51648       6   51654   51648       6   51654   51651       7   51660   51657
       6   51663   51657       6   51663   51660       7   51669   51666       6
   51672   51666       6   51672   51669       7   51678   51675       6   51681
   51675       6   51681   51678       7   51687   51684       6   51690   51684
       6   51690   51687       7   51696   51693       6   51699   51693       6
   51699   51696       7   51705   51702       6   51708   51702       6   51708
   51705       7   51714   51711       6   51717   51711       6   51717   51714
       7   51723   51720       6   51726   51720       6   51726   51723       7
   51732   51729       6   51735   51729       6   51735   51732       7   51741
   51738       6   51744   51738       6   51744   51741       7   51750   51747
       6   51753   51747       6   51753   51750       7   51759   51756       6
   51762   51756       6   51762   51759       7   51768   51765       6   51771
   51765       6   51771   51768       7   51777   51774       6   51780   51774
       6   51780   51777       7   51786   51783       6   51789   51783       6
   51789   51786       7   51795   51792       6   51798   51792       6   51798
   51795       7   51804   51801       6   51807   51801       6   51807   51804
       7   51813   51810       6   51816   51810       6   51816   51813       7
   51822   51819       6   51825   51819       6   51825   51822       7   51831
   51828       6   51834   51828       6   51834   51831       7   51840   51837
       6   51843   51837       6   51843   51840       7   51849   51846       6
   51852   51846       6   51852   51849       7   51858   51855       6   51861
   51855       6   51861   51858       7   51867   51864       6   51870   51864
       6   51870   51867       7   51876   51873       6   51879   51873       6
   51879   51876       7   51885   51882       6   51888   51882       6   51888
   51885       7   51894   51891       6   51897   51891       6   51897   51894
       7   51903   51900       6   51906   51900       6   51906   51903       7
   51912   51909       6   51915   51909       6   51915   51912       7   51921
   51918       6   51924   51918       6   51924   51921       7   51930   51927
       6   51933   51927       6   51933   51930       7   51939   51936       6
   51942   51936       6   51942   51939       7   51948   51945       6   51951
   51945       6   51951   51948       7   51957   51954       6   51960   51954
       6   51960   51957       7   51966   51963       6   51969   51963       6
   51969   51966       7   51975   51972       6   51978   51972       6   51978
   51975       7   51984   51981       6   51987   51981       6   51987   51984
       7   51993   51990       6   51996   51990       6   51996   51993       7
   52002   51999       6   52005   51999       6   52005   52002       7   52011
   52008       6   52014   52008       6   52014   52011       7   52020   52017
       6   52023   52017       6   52023   52020       7   52029   52026       6
   52032   52026       6   52032   52029       7   52038   52035       6   52041
   52035       6   52041   52038       7   52047   52044       6   52050   52044
       6   52050   52047       7   52056   52053       6   52059   52053       6
   52059   52056       7   52065   52062       6   52068   52062       6   52068
   52065       7   52074   52071       6   52077   52071       6   52077   52074
       7   52083   52080       6   52086   52080       6   52086   52083       7
   52092   52089       6   52095   52089       6   52095   52092       7   52101
   52098       6   52104   52098       6   52104   52101       7   52110   52107
       6   52113   52107       6   52113   52110       7   52119   52116       6
   52122   52116       6   52122   52119       7   52128   52125       6   52131
   52125       6   52131   52128       7   52137   52134       6   52140   52134
       6   52140   52137       7   52146   52143       6   52149   52143       6
   52149   52146       7   52155   52152       6   52158   52152       6   52158
   52155       7   52164   52161       6   52167   52161       6   52167   52164
       7   52173   52170       6   52176   52170       6   52176   52173       7
   52182   52179       6   52185   52179       6   52185   52182       7   52191
   52188       6   52194   52188       6   52194   52191       7   52200   52197
       6   52203   52197       6   52203   52200       7   52209   52206       6
   52212   52206       6   52212   52209       7   52218   52215       6   52221
   52215       6   52221   52218       7   52227   52224       6   52230   52224
       6   52230   52227       7   52236   52233       6   52239   52233       6
   52239   52236       7   52245   52242       6   52248   52242       6   52248
   52245       7   52254   52251       6   52257   52251       6   52257   52254
       7   52263   52260       6   52266   52260       6   52266   52263       7
   52272   52269       6   52275   52269       6   52275   52272       7   52281
   52278       6   52284   52278       6   52284   52281       7   52290   52287
       6   52293   52287       6   52293   52290       7   52299   52296       6
   52302   52296       6   52302   52299       7   52308   52305       6   52311
   52305       6   52311   52308       7   52317   52314       6   52320   52314
       6   52320   52317       7   52326   52323       6   52329   52323       6
   52329   52326       7   52335   52332       6   52338   52332       6   52338
   52335       7   52344   52341       6   52347   52341       6   52347   52344
       7   52353   52350       6   52356   52350       6   52356   52353       7
   52362   52359       6   52365   52359       6   52365   52362       7   52371
   52368       6   52374   52368       6   52374   52371       7   52380   52377
       6   52383   52377       6   52383   52380       7   52389   52386       6
   52392   52386       6   52392   52389       7   52398   52395       6   52401
   52395       6   52401   52398       7   52407   52404       6   52410   52404
       6   52410   52407       7   52416   52413       6   52419   52413       6
   52419   52416       7   52425   52422       6   52428   52422       6   52428
   52425       7   52434   52431       6   52437   52431       6   52437   52434
       7   52443   52440       6   52446   52440       6   52446   52443       7
   52452   52449       6   52455   52449       6   52455   52452       7   52461
   52458       6   52464   52458       6   52464   52461       7   52470   52467
       6   52473   52467       6   52473   52470       7   52479   52476       6
   52482   52476       6   52482   52479       7   52488   52485       6   52491
   52485       6   52491   52488       7   52497   52494       6   52500   52494
       6   52500   52497       7   52506   52503       6   52509   52503       6
   52509   52506       7   52515   52512       6   52518   52512       6   52518
   52515       7   52524   52521       6   52527   52521       6   52527   52524
       7   52533   52530       6   52536   52530       6   52536   52533       7
   52542   52539       6   52545   52539       6   52545   52542       7   52551
   52548       6   52554   52548       6   52554   52551       7   52560   52557
       6   52563   52557       6   52563   52560       7   52569   52566       6
   52572   52566       6   52572   52569       7   52578   52575       6   52581
   52575       6   52581   52578       7   52587   52584       6   52590   52584
       6   52590   52587       7   52596   52593       6   52599   52593       6
   52599   52596       7   52605   52602       6   52608   52602       6   52608
   52605       7   52614   52611       6   52617   52611       6   52617   52614
       7   52623   52620       6   52626   52620       6   52626   52623       7
   52632   52629       6   52635   52629       6   52635   52632       7   52641
   52638       6   52644   52638       6   52644   52641       7   52650   52647
       6   52653   52647       6   52653   52650       7   52659   52656       6
   52662   52656       6   52662   52659       7   52668   52665       6   52671
   52665       6   52671   52668       7   52677   52674       6   52680   52674
       6   52680   52677       7   52686   52683       6   52689   52683       6
   52689   52686       7   52695   52692       6   52698   52692       6   52698
   52695       7   52704   52701       6   52707   52701       6   52707   52704
       7   52713   52710       6   52716   52710       6   52716   52713       7
   52722   52719       6   52725   52719       6   52725   52722       7   52731
   52728       6   52734   52728       6   52734   52731       7   52740   52737
       6   52743   52737       6   52743   52740       7   52749   52746       6
   52752   52746       6   52752   52749       7   52758   52755       6   52761
   52755       6   52761   52758       7   52767   52764       6   52770   52764
       6   52770   52767       7   52776   52773       6   52779   52773       6
   52779   52776       7   52785   52782       6   52788   52782       6   52788
   52785       7   52794   52791       6   52797   52791       6   52797   52794
       7   52803   52800       6   52806   52800       6   52806   52803       7
   52812   52809       6   52815   52809       6   52815   52812       7   52821
   52818       6   52824   52818       6   52824   52821       7   52830   52827
       6   52833   52827       6   52833   52830       7   52839   52836       6
   52842   52836       6   52842   52839       7   52848   52845       6   52851
   52845       6   52851   52848       7   52857   52854       6   52860   52854
       6   52860   52857       7   52866   52863       6   52869   52863       6
   52869   52866       7   52875   52872       6   52878   52872       6   52878
   52875       7   52884   52881       6   52887   52881       6   52887   52884
       7   52893   52890       6   52896   52890       6   52896   52893       7
   52902   52899       6   52905   52899       6   52905   52902       7   52911
   52908       6   52914   52908       6   52914   52911       7   52920   52917
       6   52923   52917       6   52923   52920       7   52929   52926       6
   52932   52926       6   52932   52929       7   52938   52935       6   52941
   52935       6   52941   52938       7   52947   52944       6   52950   52944
       6   52950   52947       7   52956   52953       6   52959   52953       6
   52959   52956       7   52965   52962       6   52968   52962       6   52968
   52965       7   52974   52971       6   52977   52971       6   52977   52974
       7   52983   52980       6   52986   52980       6   52986   52983       7
   52992   52989       6   52995   52989       6   52995   52992       7   53001
   52998       6   53004   52998       6   53004   53001       7   53010   53007
       6   53013   53007       6   53013   53010       7   53019   53016       6
   53022   53016       6   53022   53019       7   53028   53025       6   53031
   53025       6   53031   53028       7   53037   53034       6   53040   53034
       6   53040   53037       7   53046   53043       6   53049   53043       6
   53049   53046       7   53055   53052       6   53058   53052       6   53058
   53055       7   53064   53061       6   53067   53061       6   53067   53064
       7   53073   53070       6   53076   53070       6   53076   53073       7
   53082   53079       6   53085   53079       6   53085   53082       7   53091
   53088       6   53094   53088       6   53094   53091       7   53100   53097
       6   53103   53097       6   53103   53100       7   53109   53106       6
   53112   53106       6   53112   53109       7   53118   53115       6   53121
   53115       6   53121   53118       7   53127   53124       6   53130   53124
       6   53130   53127       7   53136   53133       6   53139   53133       6
   53139   53136       7   53145   53142       6   53148   53142       6   53148
   53145       7   53154   53151       6   53157   53151       6   53157   53154
       7   53163   53160       6   53166   53160       6   53166   53163       7
   53172   53169       6   53175   53169       6   53175   53172       7   53181
   53178       6   53184   53178       6   53184   53181       7   53190   53187
       6   53193   53187       6   53193   53190       7   53199   53196       6
   53202   53196       6   53202   53199       7   53208   53205       6   53211
   53205       6   53211   53208       7   53217   53214       6   53220   53214
       6   53220   53217       7   53226   53223       6   53229   53223       6
   53229   53226       7   53235   53232       6   53238   53232       6   53238
   53235       7   53244   53241       6   53247   53241       6   53247   53244
       7   53253   53250       6   53256   53250       6   53256   53253       7
   53262   53259       6   53265   53259       6   53265   53262       7   53271
   53268       6   53274   53268       6   53274   53271       7   53280   53277
       6   53283   53277       6   53283   53280       7   53289   53286       6
   53292   53286       6   53292   53289       7   53298   53295       6   53301
   53295       6   53301   53298       7   53307   53304       6   53310   53304
       6   53310   53307       7   53316   53313       6   53319   53313       6
   53319   53316       7   53325   53322       6   53328   53322       6   53328
   53325       7   53334   53331       6   53337   53331       6   53337   53334
       7   53343   53340       6   53346   53340       6   53346   53343       7
   53352   53349       6   53355   53349       6   53355   53352       7   53361
   53358       6   53364   53358       6   53364   53361       7   53370   53367
       6   53373   53367       6   53373   53370       7   53379   53376       6
   53382   53376       6   53382   53379       7   53388   53385       6   53391
   53385       6   53391   53388       7   53397   53394       6   53400   53394
       6   53400   53397       7   53406   53403       6   53409   53403       6
   53409   53406       7   53415   53412       6   53418   53412       6   53418
   53415       7   53424   53421       6   53427   53421       6   53427   53424
       7   53433   53430       6   53436   53430       6   53436   53433       7
   53442   53439       6   53445   53439       6   53445   53442       7   53451
   53448       6   53454   53448       6   53454   53451       7   53460   53457
       6   53463   53457       6   53463   53460       7   53469   53466       6
   53472   53466       6   53472   53469       7   53478   53475       6   53481
   53475       6   53481   53478       7   53487   53484       6   53490   53484
       6   53490   53487       7   53496   53493       6   53499   53493       6
   53499   53496       7   53505   53502       6   53508   53502       6   53508
   53505       7   53514   53511       6   53517   53511       6   53517   53514
       7   53523   53520       6   53526   53520       6   53526   53523       7
   53532   53529       6   53535   53529       6   53535   53532       7   53541
   53538       6   53544   53538       6   53544   53541       7   53550   53547
       6   53553   53547       6   53553   53550       7   53559   53556       6
   53562   53556       6   53562   53559       7   53568   53565       6   53571
   53565       6   53571   53568       7   53577   53574       6   53580   53574
       6   53580   53577       7   53586   53583       6   53589   53583       6
   53589   53586       7   53595   53592       6   53598   53592       6   53598
   53595       7   53604   53601       6   53607   53601       6   53607   53604
       7   53613   53610       6   53616   53610       6   53616   53613       7
   53622   53619       6   53625   53619       6   53625   53622       7   53631
   53628       6   53634   53628       6   53634   53631       7   53640   53637
       6   53643   53637       6   53643   53640       7   53649   53646       6
   53652   53646       6   53652   53649       7   53658   53655       6   53661
   53655       6   53661   53658       7   53667   53664       6   53670   53664
       6   53670   53667       7   53676   53673       6   53679   53673       6
   53679   53676       7   53685   53682       6   53688   53682       6   53688
   53685       7   53694   53691       6   53697   53691       6   53697   53694
       7   53703   53700       6   53706   53700       6   53706   53703       7
   53712   53709       6   53715   53709       6   53715   53712       7   53721
   53718       6   53724   53718       6   53724   53721       7   53730   53727
       6   53733   53727       6   53733   53730       7   53739   53736       6
   53742   53736       6   53742   53739       7   53748   53745       6   53751
   53745       6   53751   53748       7   53757   53754       6   53760   53754
       6   53760   53757       7   53766   53763       6   53769   53763       6
   53769   53766       7   53775   53772       6   53778   53772       6   53778
   53775       7   53784   53781       6   53787   53781       6   53787   53784
       7   53793   53790       6   53796   53790       6   53796   53793       7
   53802   53799       6   53805   53799       6   53805   53802       7   53811
   53808       6   53814   53808       6   53814   53811       7   53820   53817
       6   53823   53817       6   53823   53820       7   53829   53826       6
   53832   53826       6   53832   53829       7   53838   53835       6   53841
   53835       6   53841   53838       7   53847   53844       6   53850   53844
       6   53850   53847       7   53856   53853       6   53859   53853       6
   53859   53856       7   53865   53862       6   53868   53862       6   53868
   53865       7   53874   53871       6   53877   53871       6   53877   53874
       7   53883   53880       6   53886   53880       6   53886   53883       7
   53892   53889       6   53895   53889       6   53895   53892       7   53901
   53898       6   53904   53898       6   53904   53901       7   53910   53907
       6   53913   53907       6   53913   53910       7   53919   53916       6
   53922   53916       6   53922   53919       7   53928   53925       6   53931
   53925       6   53931   53928       7   53937   53934       6   53940   53934
       6   53940   53937       7   53946   53943       6   53949   53943       6
   53949   53946       7   53955   53952       6   53958   53952       6   53958
   53955       7   53964   53961       6   53967   53961       6   53967   53964
       7   53973   53970       6   53976   53970       6   53976   53973       7
   53982   53979       6   53985   53979       6   53985   53982       7   53991
   53988       6   53994   53988       6   53994   53991       7   54000   53997
       6   54003   53997       6   54003   54000       7   54009   54006       6
   54012   54006       6   54012   54009       7   54018   54015       6   54021
   54015       6   54021   54018       7   54027   54024       6   54030   54024
       6   54030   54027       7   54036   54033       6   54039   54033       6
   54039   54036       7   54045   54042       6   54048   54042       6   54048
   54045       7   54054   54051       6   54057   54051       6   54057   54054
       7   54063   54060       6   54066   54060       6   54066   54063       7
   54072   54069       6   54075   54069       6   54075   54072       7   54081
   54078       6   54084   54078       6   54084   54081       7   54090   54087
       6   54093   54087       6   54093   54090       7   54099   54096       6
   54102   54096       6   54102   54099       7   54108   54105       6   54111
   54105       6   54111   54108       7   54117   54114       6   54120   54114
       6   54120   54117       7   54126   54123       6   54129   54123       6
   54129   54126       7   54135   54132       6   54138   54132       6   54138
   54135       7   54144   54141       6   54147   54141       6   54147   54144
       7   54153   54150       6   54156   54150       6   54156   54153       7
   54162   54159       6   54165   54159       6   54165   54162       7   54171
   54168       6   54174   54168       6   54174   54171       7   54180   54177
       6   54183   54177       6   54183   54180       7   54189   54186       6
   54192   54186       6   54192   54189       7   54198   54195       6   54201
   54195       6   54201   54198       7   54207   54204       6   54210   54204
       6   54210   54207       7   54216   54213       6   54219   54213       6
   54219   54216       7   54225   54222       6   54228   54222       6   54228
   54225       7   54234   54231       6   54237   54231       6   54237   54234
       7   54243   54240       6   54246   54240       6   54246   54243       7
   54252   54249       6   54255   54249       6   54255   54252       7   54261
   54258       6   54264   54258       6   54264   54261       7   54270   54267
       6   54273   54267       6   54273   54270       7   54279   54276       6
   54282   54276       6   54282   54279       7   54288   54285       6   54291
   54285       6   54291   54288       7   54297   54294       6   54300   54294
       6   54300   54297       7   54306   54303       6   54309   54303       6
   54309   54306       7   54315   54312       6   54318   54312       6   54318
   54315       7   54324   54321       6   54327   54321       6   54327   54324
       7   54333   54330       6   54336   54330       6   54336   54333       7
   54342   54339       6   54345   54339       6   54345   54342       7   54351
   54348       6   54354   54348       6   54354   54351       7   54360   54357
       6   54363   54357       6   54363   54360       7   54369   54366       6
   54372   54366       6   54372   54369       7   54378   54375       6   54381
   54375       6   54381   54378       7   54387   54384       6   54390   54384
       6   54390   54387       7   54396   54393       6   54399   54393       6
   54399   54396       7   54405   54402       6   54408   54402       6   54408
   54405       7   54414   54411       6   54417   54411       6   54417   54414
       7   54423   54420       6   54426   54420       6   54426   54423       7
   54432   54429       6   54435   54429       6   54435   54432       7   54441
   54438       6   54444   54438       6   54444   54441       7   54450   54447
       6   54453   54447       6   54453   54450       7   54459   54456       6
   54462   54456       6   54462   54459       7   54468   54465       6   54471
   54465       6   54471   54468       7   54477   54474       6   54480   54474
       6   54480   54477       7   54486   54483       6   54489   54483       6
   54489   54486       7   54495   54492       6   54498   54492       6   54498
   54495       7   54504   54501       6   54507   54501       6   54507   54504
       7   54513   54510       6   54516   54510       6   54516   54513       7
   54522   54519       6   54525   54519       6   54525   54522       7   54531
   54528       6   54534   54528       6   54534   54531       7   54540   54537
       6   54543   54537       6   54543   54540       7   54549   54546       6
   54552   54546       6   54552   54549       7   54558   54555       6   54561
   54555       6   54561   54558       7   54567   54564       6   54570   54564
       6   54570   54567       7   54576   54573       6   54579   54573       6
   54579   54576       7   54585   54582       6   54588   54582       6   54588
   54585       7   54594   54591       6   54597   54591       6   54597   54594
       7   54603   54600       6   54606   54600       6   54606   54603       7
   54612   54609       6   54615   54609       6   54615   54612       7   54621
   54618       6   54624   54618       6   54624   54621       7   54630   54627
       6   54633   54627       6   54633   54630       7   54639   54636       6
   54642   54636       6   54642   54639       7   54648   54645       6   54651
   54645       6   54651   54648       7   54657   54654       6   54660   54654
       6   54660   54657       7   54666   54663       6   54669   54663       6
   54669   54666       7   54675   54672       6   54678   54672       6   54678
   54675       7   54684   54681       6   54687   54681       6   54687   54684
       7   54693   54690       6   54696   54690       6   54696   54693       7
   54702   54699       6   54705   54699       6   54705   54702       7   54711
   54708       6   54714   54708       6   54714   54711       7   54720   54717
       6   54723   54717       6   54723   54720       7   54729   54726       6
   54732   54726       6   54732   54729       7   54738   54735       6   54741
   54735       6   54741   54738       7   54747   54744       6   54750   54744
       6   54750   54747       7   54756   54753       6   54759   54753       6
   54759   54756       7   54765   54762       6   54768   54762       6   54768
   54765       7   54774   54771       6   54777   54771       6   54777   54774
       7   54783   54780       6   54786   54780       6   54786   54783       7
   54792   54789       6   54795   54789       6   54795   54792       7   54801
   54798       6   54804   54798       6   54804   54801       7   54810   54807
       6   54813   54807       6   54813   54810       7   54819   54816       6
   54822   54816       6   54822   54819       7   54828   54825       6   54831
   54825       6   54831   54828       7   54837   54834       6   54840   54834
       6   54840   54837       7   54846   54843       6   54849   54843       6
   54849   54846       7   54855   54852       6   54858   54852       6   54858
   54855       7   54864   54861       6   54867   54861       6   54867   54864
       7   54873   54870       6   54876   54870       6   54876   54873       7
   54882   54879       6   54885   54879       6   54885   54882       7   54891
   54888       6   54894   54888       6   54894   54891       7   54900   54897
       6   54903   54897       6   54903   54900       7   54909   54906       6
   54912   54906       6   54912   54909       7   54918   54915       6   54921
   54915       6   54921   54918       7   54927   54924       6   54930   54924
       6   54930   54927       7   54936   54933       6   54939   54933       6
   54939   54936       7   54945   54942       6   54948   54942       6   54948
   54945       7   54954   54951       6   54957   54951       6   54957   54954
       7   54963   54960       6   54966   54960       6   54966   54963       7
   54972   54969       6   54975   54969       6   54975   54972       7   54981
   54978       6   54984   54978       6   54984   54981       7   54990   54987
       6   54993   54987       6   54993   54990       7   54999   54996       6
   55002   54996       6   55002   54999       7   55008   55005       6   55011
   55005       6   55011   55008       7   55017   55014       6   55020   55014
       6   55020   55017       7   55026   55023       6   55029   55023       6
   55029   55026       7   55035   55032       6   55038   55032       6   55038
   55035       7   55044   55041       6   55047   55041       6   55047   55044
       7   55053   55050       6   55056   55050       6   55056   55053       7
   55062   55059       6   55065   55059       6   55065   55062       7   55071
   55068       6   55074   55068       6   55074   55071       7   55080   55077
       6   55083   55077       6   55083   55080       7   55089   55086       6
   55092   55086       6   55092   55089       7   55098   55095       6   55101
   55095       6   55101   55098       7   55107   55104       6   55110   55104
       6   55110   55107       7   55116   55113       6   55119   55113       6
   55119   55116       7   55125   55122       6   55128   55122       6   55128
   55125       7   55134   55131       6   55137   55131       6   55137   55134
       7   55143   55140       6   55146   55140       6   55146   55143       7
   55152   55149       6   55155   55149       6   55155   55152       7   55161
   55158       6   55164   55158       6   55164   55161       7   55170   55167
       6   55173   55167       6   55173   55170       7   55179   55176       6
   55182   55176       6   55182   55179       7   55188   55185       6   55191
   55185       6   55191   55188       7   55197   55194       6   55200   55194
       6   55200   55197       7   55206   55203       6   55209   55203       6
   55209   55206       7   55215   55212       6   55218   55212       6   55218
   55215       7   55224   55221       6   55227   55221       6   55227   55224
       7   55233   55230       6   55236   55230       6   55236   55233       7
   55242   55239       6   55245   55239       6   55245   55242       7   55251
   55248       6   55254   55248       6   55254   55251       7   55260   55257
       6   55263   55257       6   55263   55260       7   55269   55266       6
   55272   55266       6   55272   55269       7   55278   55275       6   55281
   55275       6   55281   55278       7   55287   55284       6   55290   55284
       6   55290   55287       7   55296   55293       6   55299   55293       6
   55299   55296       7   55305   55302       6   55308   55302       6   55308
   55305       7   55314   55311       6   55317   55311       6   55317   55314
       7   55323   55320       6   55326   55320       6   55326   55323       7
   55332   55329       6   55335   55329       6   55335   55332       7   55341
   55338       6   55344   55338       6   55344   55341       7   55350   55347
       6   55353   55347       6   55353   55350       7   55359   55356       6
   55362   55356       6   55362   55359       7   55368   55365       6   55371
   55365       6   55371   55368       7   55377   55374       6   55380   55374
       6   55380   55377       7   55386   55383       6   55389   55383       6
   55389   55386       7   55395   55392       6   55398   55392       6   55398
   55395       7   55404   55401       6   55407   55401       6   55407   55404
       7   55413   55410       6   55416   55410       6   55416   55413       7
   55422   55419       6   55425   55419       6   55425   55422       7   55431
   55428       6   55434   55428       6   55434   55431       7   55440   55437
       6   55443   55437       6   55443   55440       7   55449   55446       6
   55452   55446       6   55452   55449       7   55458   55455       6   55461
   55455       6   55461   55458       7   55467   55464       6   55470   55464
       6   55470   55467       7   55476   55473       6   55479   55473       6
   55479   55476       7   55485   55482       6   55488   55482       6   55488
   55485       7   55494   55491       6   55497   55491       6   55497   55494
       7   55503   55500       6   55506   55500       6   55506   55503       7
   55512   55509       6   55515   55509       6   55515   55512       7   55521
   55518       6   55524   55518       6   55524   55521       7   55530   55527
       6   55533   55527       6   55533   55530       7   55539   55536       6
   55542   55536       6   55542   55539       7   55548   55545       6   55551
   55545       6   55551   55548       7   55557   55554       6   55560   55554
       6   55560   55557       7   55566   55563       6   55569   55563       6
   55569   55566       7   55575   55572       6   55578   55572       6   55578
   55575       7   55584   55581       6   55587   55581       6   55587   55584
       7   55593   55590       6   55596   55590       6   55596   55593       7
   55602   55599       6   55605   55599       6   55605   55602       7   55611
   55608       6   55614   55608       6   55614   55611       7   55620   55617
       6   55623   55617       6   55623   55620       7   55629   55626       6
   55632   55626       6   55632   55629       7   55638   55635       6   55641
   55635       6   55641   55638       7   55647   55644       6   55650   55644
       6   55650   55647       7   55656   55653       6   55659   55653       6
   55659   55656       7   55665   55662       6   55668   55662       6   55668
   55665       7   55674   55671       6   55677   55671       6   55677   55674
       7   55683   55680       6   55686   55680       6   55686   55683       7
   55692   55689       6   55695   55689       6   55695   55692       7   55701
   55698       6   55704   55698       6   55704   55701       7   55710   55707
       6   55713   55707       6   55713   55710       7   55719   55716       6
   55722   55716       6   55722   55719       7   55728   55725       6   55731
   55725       6   55731   55728       7   55737   55734       6   55740   55734
       6   55740   55737       7   55746   55743       6   55749   55743       6
   55749   55746       7   55755   55752       6   55758   55752       6   55758
   55755       7   55764   55761       6   55767   55761       6   55767   55764
       7   55773   55770       6   55776   55770       6   55776   55773       7
   55782   55779       6   55785   55779       6   55785   55782       7   55791
   55788       6   55794   55788       6   55794   55791       7   55800   55797
       6   55803   55797       6   55803   55800       7   55809   55806       6
   55812   55806       6   55812   55809       7   55818   55815       6   55821
   55815       6   55821   55818       7   55827   55824       6   55830   55824
       6   55830   55827       7   55836   55833       6   55839   55833       6
   55839   55836       7   55845   55842       6   55848   55842       6   55848
   55845       7   55854   55851       6   55857   55851       6   55857   55854
       7   55863   55860       6   55866   55860       6   55866   55863       7
   55872   55869       6   55875   55869       6   55875   55872       7   55881
   55878       6   55884   55878       6   55884   55881       7   55890   55887
       6   55893   55887       6   55893   55890       7   55899   55896       6
   55902   55896       6   55902   55899       7   55908   55905       6   55911
   55905       6   55911   55908       7   55917   55914       6   55920   55914
       6   55920   55917       7   55926   55923       6   55929   55923       6
   55929   55926       7   55935   55932       6   55938   55932       6   55938
   55935       7   55944   55941       6   55947   55941       6   55947   55944
       7   55953   55950       6   55956   55950       6   55956   55953       7
   55962   55959       6   55965   55959       6   55965   55962       7   55971
   55968       6   55974   55968       6   55974   55971       7   55980   55977
       6   55983   55977       6   55983   55980       7   55989   55986       6
   55992   55986       6   55992   55989       7   55998   55995       6   56001
   55995       6   56001   55998       7   56007   56004       6   56010   56004
       6   56010   56007       7   56016   56013       6   56019   56013       6
   56019   56016       7   56025   56022       6   56028   56022       6   56028
   56025       7   56034   56031       6   56037   56031       6   56037   56034
       7   56043   56040       6   56046   56040       6   56046   56043       7
   56052   56049       6   56055   56049       6   56055   56052       7   56061
   56058       6   56064   56058       6   56064   56061       7   56070   56067
       6   56073   56067       6   56073   56070       7   56079   56076       6
   56082   56076       6   56082   56079       7   56088   56085       6   56091
   56085       6   56091   56088       7   56097   56094       6   56100   56094
       6   56100   56097       7   56106   56103       6   56109   56103       6
   56109   56106       7   56115   56112       6   56118   56112       6   56118
   56115       7   56124   56121       6   56127   56121       6   56127   56124
       7   56133   56130       6   56136   56130       6   56136   56133       7
   56142   56139       6   56145   56139       6   56145   56142       7   56151
   56148       6   56154   56148       6   56154   56151       7   56160   56157
       6   56163   56157       6   56163   56160       7   56169   56166       6
   56172   56166       6   56172   56169       7   56178   56175       6   56181
   56175       6   56181   56178       7   56187   56184       6   56190   56184
       6   56190   56187       7   56196   56193       6   56199   56193       6
   56199   56196       7   56205   56202       6   56208   56202       6   56208
   56205       7   56214   56211       6   56217   56211       6   56217   56214
       7   56223   56220       6   56226   56220       6   56226   56223       7
   56232   56229       6   56235   56229       6   56235   56232       7   56241
   56238       6   56244   56238       6   56244   56241       7   56250   56247
       6   56253   56247       6   56253   56250       7   56259   56256       6
   56262   56256       6   56262   56259       7   56268   56265       6   56271
   56265       6   56271   56268       7   56277   56274       6   56280   56274
       6   56280   56277       7   56286   56283       6   56289   56283       6
   56289   56286       7   56295   56292       6   56298   56292       6   56298
   56295       7   56304   56301       6   56307   56301       6   56307   56304
       7   56313   56310       6   56316   56310       6   56316   56313       7
   56322   56319       6   56325   56319       6   56325   56322       7   56331
   56328       6   56334   56328       6   56334   56331       7   56340   56337
       6   56343   56337       6   56343   56340       7   56349   56346       6
   56352   56346       6   56352   56349       7   56358   56355       6   56361
   56355       6   56361   56358       7   56367   56364       6   56370   56364
       6   56370   56367       7   56376   56373       6   56379   56373       6
   56379   56376       7   56385   56382       6   56388   56382       6   56388
   56385       7   56394   56391       6   56397   56391       6   56397   56394
       7   56403   56400       6   56406   56400       6   56406   56403       7
   56412   56409       6   56415   56409       6   56415   56412       7   56421
   56418       6   56424   56418       6   56424   56421       7   56430   56427
       6   56433   56427       6   56433   56430       7   56439   56436       6
   56442   56436       6   56442   56439       7   56448   56445       6   56451
   56445       6   56451   56448       7   56457   56454       6   56460   56454
       6   56460   56457       7   56466   56463       6   56469   56463       6
   56469   56466       7   56475   56472       6   56478   56472       6   56478
   56475       7   56484   56481       6   56487   56481       6   56487   56484
       7   56493   56490       6   56496   56490       6   56496   56493       7
   56502   56499       6   56505   56499       6   56505   56502       7   56511
   56508       6   56514   56508       6   56514   56511       7   56520   56517
       6   56523   56517       6   56523   56520       7   56529   56526       6
   56532   56526       6   56532   56529       7   56538   56535       6   56541
   56535       6   56541   56538       7   56547   56544       6   56550   56544
       6   56550   56547       7   56556   56553       6   56559   56553       6
   56559   56556       7   56565   56562       6   56568   56562       6   56568
   56565       7   56574   56571       6   56577   56571       6   56577   56574
       7   56583   56580       6   56586   56580       6   56586   56583       7
   56592   56589       6   56595   56589       6   56595   56592       7   56601
   56598       6   56604   56598       6   56604   56601       7   56610   56607
       6   56613   56607       6   56613   56610       7   56619   56616       6
   56622   56616       6   56622   56619       7   56628   56625       6   56631
   56625       6   56631   56628       7   56637   56634       6   56640   56634
       6   56640   56637       7   56646   56643       6   56649   56643       6
   56649   56646       7   56655   56652       6   56658   56652       6   56658
   56655       7   56664   56661       6   56667   56661       6   56667   56664
       7   56673   56670       6   56676   56670       6   56676   56673       7
   56682   56679       6   56685   56679       6   56685   56682       7   56691
   56688       6   56694   56688       6   56694   56691       7   56700   56697
       6   56703   56697       6   56703   56700       7   56709   56706       6
   56712   56706       6   56712   56709       7   56718   56715       6   56721
   56715       6   56721   56718       7   56727   56724       6   56730   56724
       6   56730   56727       7   56736   56733       6   56739   56733       6
   56739   56736       7   56745   56742       6   56748   56742       6   56748
   56745       7   56754   56751       6   56757   56751       6   56757   56754
       7   56763   56760       6   56766   56760       6   56766   56763       7
   56772   56769       6   56775   56769       6   56775   56772       7   56781
   56778       6   56784   56778       6   56784   56781       7   56790   56787
       6   56793   56787       6   56793   56790       7   56799   56796       6
   56802   56796       6   56802   56799       7   56808   56805       6   56811
   56805       6   56811   56808       7   56817   56814       6   56820   56814
       6   56820   56817       7   56826   56823       6   56829   56823       6
   56829   56826       7   56835   56832       6   56838   56832       6   56838
   56835       7   56844   56841       6   56847   56841       6   56847   56844
       7   56853   56850       6   56856   56850       6   56856   56853       7
   56862   56859       6   56865   56859       6   56865   56862       7   56871
   56868       6   56874   56868       6   56874   56871       7   56880   56877
       6   56883   56877       6   56883   56880       7   56889   56886       6
   56892   56886       6   56892   56889       7   56898   56895       6   56901
   56895       6   56901   56898       7   56907   56904       6   56910   56904
       6   56910   56907       7   56916   56913       6   56919   56913       6
   56919   56916       7   56925   56922       6   56928   56922       6   56928
   56925       7   56934   56931       6   56937   56931       6   56937   56934
       7   56943   56940       6   56946   56940       6   56946   56943       7
   56952   56949       6   56955   56949       6   56955   56952       7   56961
   56958       6   56964   56958       6   56964   56961       7   56970   56967
       6   56973   56967       6   56973   56970       7   56979   56976       6
   56982   56976       6   56982   56979       7   56988   56985       6   56991
   56985       6   56991   56988       7   56997   56994       6   57000   56994
       6   57000   56997       7   57006   57003       6   57009   57003       6
   57009   57006       7   57015   57012       6   57018   57012       6   57018
   57015       7   57024   57021       6   57027   57021       6   57027   57024
       7   57033   57030       6   57036   57030       6   57036   57033       7
   57042   57039       6   57045   57039       6   57045   57042       7   57051
   57048       6   57054   57048       6   57054   57051       7   57060   57057
       6   57063   57057       6   57063   57060       7   57069   57066       6
   57072   57066       6   57072   57069       7   57078   57075       6   57081
   57075       6   57081   57078       7   57087   57084       6   57090   57084
       6   57090   57087       7   57096   57093       6   57099   57093       6
   57099   57096       7   57105   57102       6   57108   57102       6   57108
   57105       7   57114   57111       6   57117   57111       6   57117   57114
       7   57123   57120       6   57126   57120       6   57126   57123       7
   57132   57129       6   57135   57129       6   57135   57132       7   57141
   57138       6   57144   57138       6   57144   57141       7   57150   57147
       6   57153   57147       6   57153   57150       7   57159   57156       6
   57162   57156       6   57162   57159       7   57168   57165       6   57171
   57165       6   57171   57168       7   57177   57174       6   57180   57174
       6   57180   57177       7   57186   57183       6   57189   57183       6
   57189   57186       7   57195   57192       6   57198   57192       6   57198
   57195       7   57204   57201       6   57207   57201       6   57207   57204
       7   57213   57210       6   57216   57210       6   57216   57213       7
   57222   57219       6   57225   57219       6   57225   57222       7   57231
   57228       6   57234   57228       6   57234   57231       7   57240   57237
       6   57243   57237       6   57243   57240       7   57249   57246       6
   57252   57246       6   57252   57249       7   57258   57255       6   57261
   57255       6   57261   57258       7   57267   57264       6   57270   57264
       6   57270   57267       7   57276   57273       6   57279   57273       6
   57279   57276       7   57285   57282       6   57288   57282       6   57288
   57285       7   57294   57291       6   57297   57291       6   57297   57294
       7   57303   57300       6   57306   57300       6   57306   57303       7
   57312   57309       6   57315   57309       6   57315   57312       7   57321
   57318       6   57324   57318       6   57324   57321       7   57330   57327
       6   57333   57327       6   57333   57330       7   57339   57336       6
   57342   57336       6   57342   57339       7   57348   57345       6   57351
   57345       6   57351   57348       7   57357   57354       6   57360   57354
       6   57360   57357       7   57366   57363       6   57369   57363       6
   57369   57366       7   57375   57372       6   57378   57372       6   57378
   57375       7   57384   57381       6   57387   57381       6   57387   57384
       7   57393   57390       6   57396   57390       6   57396   57393       7
   57402   57399       6   57405   57399       6   57405   57402       7   57411
   57408       6   57414   57408       6   57414   57411       7   57420   57417
       6   57423   57417       6   57423   57420       7   57429   57426       6
   57432   57426       6   57432   57429       7   57438   57435       6   57441
   57435       6   57441   57438       7   57447   57444       6   57450   57444
       6   57450   57447       7   57456   57453       6   57459   57453       6
   57459   57456       7   57465   57462       6   57468   57462       6   57468
   57465       7   57474   57471       6   57477   57471       6   57477   57474
       7   57483   57480       6   57486   57480       6   57486   57483       7
   57492   57489       6   57495   57489       6   57495   57492       7   57501
   57498       6   57504   57498       6   57504   57501       7   57510   57507
       6   57513   57507       6   57513   57510       7   57519   57516       6
   57522   57516       6   57522   57519       7   57528   57525       6   57531
   57525       6   57531   57528       7   57537   57534       6   57540   57534
       6   57540   57537       7   57546   57543       6   57549   57543       6
   57549   57546       7   57555   57552       6   57558   57552       6   57558
   57555       7   57564   57561       6   57567   57561       6   57567   57564
       7   57573   57570       6   57576   57570       6   57576   57573       7
   57582   57579       6   57585   57579       6   57585   57582       7   57591
   57588       6   57594   57588       6   57594   57591       7   57600   57597
       6   57603   57597       6   57603   57600       7   57609   57606       6
   57612   57606       6   57612   57609       7   57618   57615       6   57621
   57615       6   57621   57618       7   57627   57624       6   57630   57624
       6   57630   57627       7   57636   57633       6   57639   57633       6
   57639   57636       7   57645   57642       6   57648   57642       6   57648
   57645       7   57654   57651       6   57657   57651       6   57657   57654
       7   57663   57660       6   57666   57660       6   57666   57663       7
   57672   57669       6   57675   57669       6   57675   57672       7   57681
   57678       6   57684   57678       6   57684   57681       7   57690   57687
       6   57693   57687       6   57693   57690       7   57699   57696       6
   57702   57696       6   57702   57699       7   57708   57705       6   57711
   57705       6   57711   57708       7   57717   57714       6   57720   57714
       6   57720   57717       7   57726   57723       6   57729   57723       6
   57729   57726       7   57735   57732       6   57738   57732       6   57738
   57735       7   57744   57741       6   57747   57741       6   57747   57744
       7   57753   57750       6   57756   57750       6   57756   57753       7
   57762   57759       6   57765   57759       6   57765   57762       7   57771
   57768       6   57774   57768       6   57774   57771       7   57780   57777
       6   57783   57777       6   57783   57780       7   57789   57786       6
   57792   57786       6   57792   57789       7   57798   57795       6   57801
   57795       6   57801   57798       7   57807   57804       6   57810   57804
       6   57810   57807       7   57816   57813       6   57819   57813       6
   57819   57816       7   57825   57822       6   57828   57822       6   57828
   57825       7   57834   57831       6   57837   57831       6   57837   57834
       7   57843   57840       6   57846   57840       6   57846   57843       7
   57852   57849       6   57855   57849       6   57855   57852       7   57861
   57858       6   57864   57858       6   57864   57861       7   57870   57867
       6   57873   57867       6   57873   57870       7   57879   57876       6
   57882   57876       6   57882   57879       7   57888   57885       6   57891
   57885       6   57891   57888       7   57897   57894       6   57900   57894
       6   57900   57897       7   57906   57903       6   57909   57903       6
   57909   57906       7   57915   57912       6   57918   57912       6   57918
   57915       7   57924   57921       6   57927   57921       6   57927   57924
       7   57933   57930       6   57936   57930       6   57936   57933       7
   57942   57939       6   57945   57939       6   57945   57942       7   57951
   57948       6   57954   57948       6   57954   57951       7   57960   57957
       6   57963   57957       6   57963   57960       7   57969   57966       6
   57972   57966       6   57972   57969       7   57978   57975       6   57981
   57975       6   57981   57978       7   57987   57984       6   57990   57984
       6   57990   57987       7   57996   57993       6   57999   57993       6
   57999   57996       7   58005   58002       6   58008   58002       6   58008
   58005       7   58014   58011       6   58017   58011       6   58017   58014
       7   58023   58020       6   58026   58020       6   58026   58023       7
   58032   58029       6   58035   58029       6   58035   58032       7   58041
   58038       6   58044   58038       6   58044   58041       7   58050   58047
       6   58053   58047       6   58053   58050       7   58059   58056       6
   58062   58056       6   58062   58059       7   58068   58065       6   58071
   58065       6   58071   58068       7   58077   58074       6   58080   58074
       6   58080   58077       7   58086   58083       6   58089   58083       6
   58089   58086       7   58095   58092       6   58098   58092       6   58098
   58095       7   58104   58101       6   58107   58101       6   58107   58104
       7   58113   58110       6   58116   58110       6   58116   58113       7
   58122   58119       6   58125   58119       6   58125   58122       7   58131
   58128       6   58134   58128       6   58134   58131       7   58140   58137
       6   58143   58137       6   58143   58140       7   58149   58146       6
   58152   58146       6   58152   58149       7   58158   58155       6   58161
   58155       6   58161   58158       7   58167   58164       6   58170   58164
       6   58170   58167       7   58176   58173       6   58179   58173       6
   58179   58176       7   58185   58182       6   58188   58182       6   58188
   58185       7   58194   58191       6   58197   58191       6   58197   58194
       7   58203   58200       6   58206   58200       6   58206   58203       7
   58212   58209       6   58215   58209       6   58215   58212       7   58221
   58218       6   58224   58218       6   58224   58221       7   58230   58227
       6   58233   58227       6   58233   58230       7   58239   58236       6
   58242   58236       6   58242   58239       7   58248   58245       6   58251
   58245       6   58251   58248       7   58257   58254       6   58260   58254
       6   58260   58257       7   58266   58263       6   58269   58263       6
   58269   58266       7   58275   58272       6   58278   58272       6   58278
   58275       7   58284   58281       6   58287   58281       6   58287   58284
       7   58293   58290       6   58296   58290       6   58296   58293       7
   58302   58299       6   58305   58299       6   58305   58302       7   58311
   58308       6   58314   58308       6   58314   58311       7   58320   58317
       6   58323   58317       6   58323   58320       7   58329   58326       6
   58332   58326       6   58332   58329       7   58338   58335       6   58341
   58335       6   58341   58338       7   58347   58344       6   58350   58344
       6   58350   58347       7   58356   58353       6   58359   58353       6
   58359   58356       7   58365   58362       6   58368   58362       6   58368
   58365       7   58374   58371       6   58377   58371       6   58377   58374
       7   58383   58380       6   58386   58380       6   58386   58383       7
   58392   58389       6   58395   58389       6   58395   58392       7   58401
   58398       6   58404   58398       6   58404   58401       7   58410   58407
       6   58413   58407       6   58413   58410       7   58419   58416       6
   58422   58416       6   58422   58419       7   58428   58425       6   58431
   58425       6   58431   58428       7   58437   58434       6   58440   58434
       6   58440   58437       7   58446   58443       6   58449   58443       6
   58449   58446       7   58455   58452       6   58458   58452       6   58458
   58455       7   58464   58461       6   58467   58461       6   58467   58464
       7   58473   58470       6   58476   58470       6   58476   58473       7
   58482   58479       6   58485   58479       6   58485   58482       7   58491
   58488       6   58494   58488       6   58494   58491       7   58500   58497
       6   58503   58497       6   58503   58500       7   58509   58506       6
   58512   58506       6   58512   58509       7   58518   58515       6   58521
   58515       6   58521   58518       7   58527   58524       6   58530   58524
       6   58530   58527       7   58536   58533       6   58539   58533       6
   58539   58536       7   58545   58542       6   58548   58542       6   58548
   58545       7   58554   58551       6   58557   58551       6   58557   58554
       7   58563   58560       6   58566   58560       6   58566   58563       7
   58572   58569       6   58575   58569       6   58575   58572       7   58581
   58578       6   58584   58578       6   58584   58581       7   58590   58587
       6   58593   58587       6   58593   58590       7   58599   58596       6
   58602   58596       6   58602   58599       7   58608   58605       6   58611
   58605       6   58611   58608       7   58617   58614       6   58620   58614
       6   58620   58617       7   58626   58623       6   58629   58623       6
   58629   58626       7   58635   58632       6   58638   58632       6   58638
   58635       7   58644   58641       6   58647   58641       6   58647   58644
       7   58653   58650       6   58656   58650       6   58656   58653       7
   58662   58659       6   58665   58659       6   58665   58662       7   58671
   58668       6   58674   58668       6   58674   58671       7   58680   58677
       6   58683   58677       6   58683   58680       7   58689   58686       6
   58692   58686       6   58692   58689       7   58698   58695       6   58701
   58695       6   58701   58698       7   58707   58704       6   58710   58704
       6   58710   58707       7   58716   58713       6   58719   58713       6
   58719   58716       7   58725   58722       6   58728   58722       6   58728
   58725       7   58734   58731       6   58737   58731       6   58737   58734
       7   58743   58740       6   58746   58740       6   58746   58743       7
   58752   58749       6   58755   58749       6   58755   58752       7   58761
   58758       6   58764   58758       6   58764   58761       7   58770   58767
       6   58773   58767       6   58773   58770       7   58779   58776       6
   58782   58776       6   58782   58779       7   58788   58785       6   58791
   58785       6   58791   58788       7   58797   58794       6   58800   58794
       6   58800   58797       7   58806   58803       6   58809   58803       6
   58809   58806       7   58815   58812       6   58818   58812       6   58818
   58815       7   58824   58821       6   58827   58821       6   58827   58824
       7   58833   58830       6   58836   58830       6   58836   58833       7
   58842   58839       6   58845   58839       6   58845   58842       7   58851
   58848       6   58854   58848       6   58854   58851       7   58860   58857
       6   58863   58857       6   58863   58860       7   58869   58866       6
   58872   58866       6   58872   58869       7   58878   58875       6   58881
   58875       6   58881   58878       7   58887   58884       6   58890   58884
       6   58890   58887       7   58896   58893       6   58899   58893       6
   58899   58896       7   58905   58902       6   58908   58902       6   58908
   58905       7   58914   58911       6   58917   58911       6   58917   58914
       7   58923   58920       6   58926   58920       6   58926   58923       7
   58932   58929       6   58935   58929       6   58935   58932       7   58941
   58938       6   58944   58938       6   58944   58941       7   58950   58947
       6   58953   58947       6   58953   58950       7   58959   58956       6
   58962   58956       6   58962   58959       7   58968   58965       6   58971
   58965       6   58971   58968       7   58977   58974       6   58980   58974
       6   58980   58977       7   58986   58983       6   58989   58983       6
   58989   58986       7   58995   58992       6   58998   58992       6   58998
   58995       7   59004   59001       6   59007   59001       6   59007   59004
       7   59013   59010       6   59016   59010       6   59016   59013       7
   59022   59019       6   59025   59019       6   59025   59022       7   59031
   59028       6   59034   59028       6   59034   59031       7   59040   59037
       6   59043   59037       6   59043   59040       7   59049   59046       6
   59052   59046       6   59052   59049       7   59058   59055       6   59061
   59055       6   59061   59058       7   59067   59064       6   59070   59064
       6   59070   59067       7   59076   59073       6   59079   59073       6
   59079   59076       7   59085   59082       6   59088   59082       6   59088
   59085       7   59094   59091       6   59097   59091       6   59097   59094
       7   59103   59100       6   59106   59100       6   59106   59103       7
   59112   59109       6   59115   59109       6   59115   59112       7   59121
   59118       6   59124   59118       6   59124   59121       7   59130   59127
       6   59133   59127       6   59133   59130       7   59139   59136       6
   59142   59136       6   59142   59139       7   59148   59145       6   59151
   59145       6   59151   59148       7   59157   59154       6   59160   59154
       6   59160   59157       7   59166   59163       6   59169   59163       6
   59169   59166       7   59175   59172       6   59178   59172       6   59178
   59175       7   59184   59181       6   59187   59181       6   59187   59184
       7   59193   59190       6   59196   59190       6   59196   59193       7
   59202   59199       6   59205   59199       6   59205   59202       7   59211
   59208       6   59214   59208       6   59214   59211       7   59220   59217
       6   59223   59217       6   59223   59220       7   59229   59226       6
   59232   59226       6   59232   59229       7   59238   59235       6   59241
   59235       6   59241   59238       7   59247   59244       6   59250   59244
       6   59250   59247       7   59256   59253       6   59259   59253       6
   59259   59256       7   59265   59262       6   59268   59262       6   59268
   59265       7   59274   59271       6   59277   59271       6   59277   59274
       7   59283   59280       6   59286   59280       6   59286   59283       7
   59292   59289       6   59295   59289       6   59295   59292       7   59301
   59298       6   59304   59298       6   59304   59301       7   59310   59307
       6   59313   59307       6   59313   59310       7   59319   59316       6
   59322   59316       6   59322   59319       7   59328   59325       6   59331
   59325       6   59331   59328       7   59337   59334       6   59340   59334
       6   59340   59337       7   59346   59343       6   59349   59343       6
   59349   59346       7   59355   59352       6   59358   59352       6   59358
   59355       7   59364   59361       6   59367   59361       6   59367   59364
       7   59373   59370       6   59376   59370       6   59376   59373       7
   59382   59379       6   59385   59379       6   59385   59382       7   59391
   59388       6   59394   59388       6   59394   59391       7   59400   59397
       6   59403   59397       6   59403   59400       7   59409   59406       6
   59412   59406       6   59412   59409       7   59418   59415       6   59421
   59415       6   59421   59418       7   59427   59424       6   59430   59424
       6   59430   59427       7   59436   59433       6   59439   59433       6
   59439   59436       7   59445   59442       6   59448   59442       6   59448
   59445       7   59454   59451       6   59457   59451       6   59457   59454
       7   59463   59460       6   59466   59460       6   59466   59463       7
   59472   59469       6   59475   59469       6   59475   59472       7   59481
   59478       6   59484   59478       6   59484   59481       7   59490   59487
       6   59493   59487       6   59493   59490       7   59499   59496       6
   59502   59496       6   59502   59499       7   59508   59505       6   59511
   59505       6   59511   59508       7   59517   59514       6   59520   59514
       6   59520   59517       7   59526   59523       6   59529   59523       6
   59529   59526       7   59535   59532       6   59538   59532       6   59538
   59535       7   59544   59541       6   59547   59541       6   59547   59544
       7   59553   59550       6   59556   59550       6   59556   59553       7
   59562   59559       6   59565   59559       6   59565   59562       7   59571
   59568       6   59574   59568       6   59574   59571       7   59580   59577
       6   59583   59577       6   59583   59580       7   59589   59586       6
   59592   59586       6   59592   59589       7   59598   59595       6   59601
   59595       6   59601   59598       7   59607   59604       6   59610   59604
       6   59610   59607       7   59616   59613       6   59619   59613       6
   59619   59616       7   59625   59622       6   59628   59622       6   59628
   59625       7   59634   59631       6   59637   59631       6   59637   59634
       7   59643   59640       6   59646   59640       6   59646   59643       7
   59652   59649       6   59655   59649       6   59655   59652       7   59661
   59658       6   59664   59658       6   59664   59661       7   59670   59667
       6   59673   59667       6   59673   59670       7   59679   59676       6
   59682   59676       6   59682   59679       7   59688   59685       6   59691
   59685       6   59691   59688       7   59697   59694       6   59700   59694
       6   59700   59697       7   59706   59703       6   59709   59703       6
   59709   59706       7   59715   59712       6   59718   59712       6   59718
   59715       7   59724   59721       6   59727   59721       6   59727   59724
       7   59733   59730       6   59736   59730       6   59736   59733       7
   59742   59739       6   59745   59739       6   59745   59742       7   59751
   59748       6   59754   59748       6   59754   59751       7   59760   59757
       6   59763   59757       6   59763   59760       7   59769   59766       6
   59772   59766       6   59772   59769       7   59778   59775       6   59781
   59775       6   59781   59778       7   59787   59784       6   59790   59784
       6   59790   59787       7   59796   59793       6   59799   59793       6
   59799   59796       7   59805   59802       6   59808   59802       6   59808
   59805       7   59814   59811       6   59817   59811       6   59817   59814
       7   59823   59820       6   59826   59820       6   59826   59823       7
   59832   59829       6   59835   59829       6   59835   59832       7   59841
   59838       6   59844   59838       6   59844   59841       7   59850   59847
       6   59853   59847       6   59853   59850       7   59859   59856       6
   59862   59856       6   59862   59859       7   59868   59865       6   59871
   59865       6   59871   59868       7   59877   59874       6   59880   59874
       6   59880   59877       7   59886   59883       6   59889   59883       6
   59889   59886       7   59895   59892       6   59898   59892       6   59898
   59895       7   59904   59901       6   59907   59901       6   59907   59904
       7   59913   59910       6   59916   59910       6   59916   59913       7
   59922   59919       6   59925   59919       6   59925   59922       7   59931
   59928       6   59934   59928       6   59934   59931       7   59940   59937
       6   59943   59937       6   59943   59940       7   59949   59946       6
   59952   59946       6   59952   59949       7   59958   59955       6   59961
   59955       6   59961   59958       7   59967   59964       6   59970   59964
       6   59970   59967       7   59976   59973       6   59979   59973       6
   59979   59976       7   59985   59982       6   59988   59982       6   59988
   59985       7   59994   59991       6   59997   59991       6   59997   59994
       7   60003   60000       6   60006   60000       6   60006   60003       7
   60012   60009       6   60015   60009       6   60015   60012       7   60021
   60018       6   60024   60018       6   60024   60021       7   60030   60027
       6   60033   60027       6   60033   60030       7   60039   60036       6
   60042   60036       6   60042   60039       7   60048   60045       6   60051
   60045       6   60051   60048       7   60057   60054       6   60060   60054
       6   60060   60057       7   60066   60063       6   60069   60063       6
   60069   60066       7   60075   60072       6   60078   60072       6   60078
   60075       7   60084   60081       6   60087   60081       6   60087   60084
       7   60093   60090       6   60096   60090       6   60096   60093       7
   60102   60099       6   60105   60099       6   60105   60102       7   60111
   60108       6   60114   60108       6   60114   60111       7   60120   60117
       6   60123   60117       6   60123   60120       7   60129   60126       6
   60132   60126       6   60132   60129       7   60138   60135       6   60141
   60135       6   60141   60138       7   60147   60144       6   60150   60144
       6   60150   60147       7   60156   60153       6   60159   60153       6
   60159   60156       7   60165   60162       6   60168   60162       6   60168
   60165       7   60174   60171       6   60177   60171       6   60177   60174
       7   60183   60180       6   60186   60180       6   60186   60183       7
   60192   60189       6   60195   60189       6   60195   60192       7   60201
   60198       6   60204   60198       6   60204   60201       7   60210   60207
       6   60213   60207       6   60213   60210       7   60219   60216       6
   60222   60216       6   60222   60219       7   60228   60225       6   60231
   60225       6   60231   60228       7   60237   60234       6   60240   60234
       6   60240   60237       7   60246   60243       6   60249   60243       6
   60249   60246       7   60255   60252       6   60258   60252       6   60258
   60255       7   60264   60261       6   60267   60261       6   60267   60264
       7   60273   60270       6   60276   60270       6   60276   60273       7
   60282   60279       6   60285   60279       6   60285   60282       7   60291
   60288       6   60294   60288       6   60294   60291       7   60300   60297
       6   60303   60297       6   60303   60300       7   60309   60306       6
   60312   60306       6   60312   60309       7   60318   60315       6   60321
   60315       6   60321   60318       7   60327   60324       6   60330   60324
       6   60330   60327       7   60336   60333       6   60339   60333       6
   60339   60336       7   60345   60342       6   60348   60342       6   60348
   60345       7   60354   60351       6   60357   60351       6   60357   60354
       7   60363   60360       6   60366   60360       6   60366   60363       7
   60372   60369       6   60375   60369       6   60375   60372       7   60381
   60378       6   60384   60378       6   60384   60381       7   60390   60387
       6   60393   60387       6   60393   60390       7   60399   60396       6
   60402   60396       6   60402   60399       7   60408   60405       6   60411
   60405       6   60411   60408       7   60417   60414       6   60420   60414
       6   60420   60417       7   60426   60423       6   60429   60423       6
   60429   60426       7   60435   60432       6   60438   60432       6   60438
   60435       7   60444   60441       6   60447   60441       6   60447   60444
       7   60453   60450       6   60456   60450       6   60456   60453       7
   60462   60459       6   60465   60459       6   60465   60462       7   60471
   60468       6   60474   60468       6   60474   60471       7   60480   60477
       6   60483   60477       6   60483   60480       7   60489   60486       6
   60492   60486       6   60492   60489       7   60498   60495       6   60501
   60495       6   60501   60498       7   60507   60504       6   60510   60504
       6   60510   60507       7   60516   60513       6   60519   60513       6
   60519   60516       7   60525   60522       6   60528   60522       6   60528
   60525       7   60534   60531       6   60537   60531       6   60537   60534
       7   60543   60540       6   60546   60540       6   60546   60543       7
   60552   60549       6   60555   60549       6   60555   60552       7   60561
   60558       6   60564   60558       6   60564   60561       7   60570   60567
       6   60573   60567       6   60573   60570       7   60579   60576       6
   60582   60576       6   60582   60579       7   60588   60585       6   60591
   60585       6   60591   60588       7   60597   60594       6   60600   60594
       6   60600   60597       7   60606   60603       6   60609   60603       6
   60609   60606       7   60615   60612       6   60618   60612       6   60618
   60615       7   60624   60621       6   60627   60621       6   60627   60624
       7   60633   60630       6   60636   60630       6   60636   60633       7
   60642   60639       6   60645   60639       6   60645   60642       7   60651
   60648       6   60654   60648       6   60654   60651       7   60660   60657
       6   60663   60657       6   60663   60660       7   60669   60666       6
   60672   60666       6   60672   60669       7   60678   60675       6   60681
   60675       6   60681   60678       7   60687   60684       6   60690   60684
       6   60690   60687       7   60696   60693       6   60699   60693       6
   60699   60696       7   60705   60702       6   60708   60702       6   60708
   60705       7   60714   60711       6   60717   60711       6   60717   60714
       7   60723   60720       6   60726   60720       6   60726   60723       7
   60732   60729       6   60735   60729       6   60735   60732       7   60741
   60738       6   60744   60738       6   60744   60741       7   60750   60747
       6   60753   60747       6   60753   60750       7   60759   60756       6
   60762   60756       6   60762   60759       7   60768   60765       6   60771
   60765       6   60771   60768       7   60777   60774       6   60780   60774
       6   60780   60777       7   60786   60783       6   60789   60783       6
   60789   60786       7   60795   60792       6   60798   60792       6   60798
   60795       7   60804   60801       6   60807   60801       6   60807   60804
       7   60813   60810       6   60816   60810       6   60816   60813       7
   60822   60819       6   60825   60819       6   60825   60822       7   60831
   60828       6   60834   60828       6   60834   60831       7   60840   60837
       6   60843   60837       6   60843   60840       7   60849   60846       6
   60852   60846       6   60852   60849       7   60858   60855       6   60861
   60855       6   60861   60858       7   60867   60864       6   60870   60864
       6   60870   60867       7   60876   60873       6   60879   60873       6
   60879   60876       7   60885   60882       6   60888   60882       6   60888
   60885       7   60894   60891       6   60897   60891       6   60897   60894
       7   60903   60900       6   60906   60900       6   60906   60903       7
   60912   60909       6   60915   60909       6   60915   60912       7   60921
   60918       6   60924   60918       6   60924   60921       7   60930   60927
       6   60933   60927       6   60933   60930       7   60939   60936       6
   60942   60936       6   60942   60939       7   60948   60945       6   60951
   60945       6   60951   60948       7   60957   60954       6   60960   60954
       6   60960   60957       7   60966   60963       6   60969   60963       6
   60969   60966       7   60975   60972       6   60978   60972       6   60978
   60975       7   60984   60981       6   60987   60981       6   60987   60984
       7   60993   60990       6   60996   60990       6   60996   60993       7
   61002   60999       6   61005   60999       6   61005   61002       7   61011
   61008       6   61014   61008       6   61014   61011       7   61020   61017
       6   61023   61017       6   61023   61020       7   61029   61026       6
   61032   61026       6   61032   61029       7   61038   61035       6   61041
   61035       6   61041   61038       7   61047   61044       6   61050   61044
       6   61050   61047       7   61056   61053       6   61059   61053       6
   61059   61056       7   61065   61062       6   61068   61062       6   61068
   61065       7   61074   61071       6   61077   61071       6   61077   61074
       7   61083   61080       6   61086   61080       6   61086   61083       7
   61092   61089       6   61095   61089       6   61095   61092       7   61101
   61098       6   61104   61098       6   61104   61101       7   61110   61107
       6   61113   61107       6   61113   61110       7   61119   61116       6
   61122   61116       6   61122   61119       7   61128   61125       6   61131
   61125       6   61131   61128       7   61137   61134       6   61140   61134
       6   61140   61137       7   61146   61143       6   61149   61143       6
   61149   61146       7   61155   61152       6   61158   61152       6   61158
   61155       7   61164   61161       6   61167   61161       6   61167   61164
       7   61173   61170       6   61176   61170       6   61176   61173       7
   61182   61179       6   61185   61179       6   61185   61182       7   61191
   61188       6   61194   61188       6   61194   61191       7   61200   61197
       6   61203   61197       6   61203   61200       7   61209   61206       6
   61212   61206       6   61212   61209       7   61218   61215       6   61221
   61215       6   61221   61218       7   61227   61224       6   61230   61224
       6   61230   61227       7   61236   61233       6   61239   61233       6
   61239   61236       7   61245   61242       6   61248   61242       6   61248
   61245       7   61254   61251       6   61257   61251       6   61257   61254
       7   61263   61260       6   61266   61260       6   61266   61263       7
   61272   61269       6   61275   61269       6   61275   61272       7   61281
   61278       6   61284   61278       6   61284   61281       7   61290   61287
       6   61293   61287       6   61293   61290       7   61299   61296       6
   61302   61296       6   61302   61299       7   61308   61305       6   61311
   61305       6   61311   61308       7   61317   61314       6   61320   61314
       6   61320   61317       7   61326   61323       6   61329   61323       6
   61329   61326       7   61335   61332       6   61338   61332       6   61338
   61335       7   61344   61341       6   61347   61341       6   61347   61344
       7   61353   61350       6   61356   61350       6   61356   61353       7
   61362   61359       6   61365   61359       6   61365   61362       7   61371
   61368       6   61374   61368       6   61374   61371       7   61380   61377
       6   61383   61377       6   61383   61380       7   61389   61386       6
   61392   61386       6   61392   61389       7   61398   61395       6   61401
   61395       6   61401   61398       7   61407   61404       6   61410   61404
       6   61410   61407       7   61416   61413       6   61419   61413       6
   61419   61416       7   61425   61422       6   61428   61422       6   61428
   61425       7   61434   61431       6   61437   61431       6   61437   61434
       7   61443   61440       6   61446   61440       6   61446   61443       7
   61452   61449       6   61455   61449       6   61455   61452       7   61461
   61458       6   61464   61458       6   61464   61461       7   61470   61467
       6   61473   61467       6   61473   61470       7   61479   61476       6
   61482   61476       6   61482   61479       7   61488   61485       6   61491
   61485       6   61491   61488       7   61497   61494       6   61500   61494
       6   61500   61497       7   61506   61503       6   61509   61503       6
   61509   61506       7   61515   61512       6   61518   61512       6   61518
   61515       7   61524   61521       6   61527   61521       6   61527   61524
       7   61533   61530       6   61536   61530       6   61536   61533       7
   61542   61539       6   61545   61539       6   61545   61542       7   61551
   61548       6   61554   61548       6   61554   61551       7   61560   61557
       6   61563   61557       6   61563   61560       7   61569   61566       6
   61572   61566       6   61572   61569       7   61578   61575       6   61581
   61575       6   61581   61578       7   61587   61584       6   61590   61584
       6   61590   61587       7   61596   61593       6   61599   61593       6
   61599   61596       7   61605   61602       6   61608   61602       6   61608
   61605       7   61614   61611       6   61617   61611       6   61617   61614
       7   61623   61620       6   61626   61620       6   61626   61623       7
   61632   61629       6   61635   61629       6   61635   61632       7   61641
   61638       6   61644   61638       6   61644   61641       7   61650   61647
       6   61653   61647       6   61653   61650       7   61659   61656       6
   61662   61656       6   61662   61659       7   61668   61665       6   61671
   61665       6   61671   61668       7   61677   61674       6   61680   61674
       6   61680   61677       7   61686   61683       6   61689   61683       6
   61689   61686       7   61695   61692       6   61698   61692       6   61698
   61695       7   61704   61701       6   61707   61701       6   61707   61704
       7   61713   61710       6   61716   61710       6   61716   61713       7
   61722   61719       6   61725   61719       6   61725   61722       7   61731
   61728       6   61734   61728       6   61734   61731       7   61740   61737
       6   61743   61737       6   61743   61740       7   61749   61746       6
   61752   61746       6   61752   61749       7   61758   61755       6   61761
   61755       6   61761   61758       7   61767   61764       6   61770   61764
       6   61770   61767       7   61776   61773       6   61779   61773       6
   61779   61776       7   61785   61782       6   61788   61782       6   61788
   61785       7   61794   61791       6   61797   61791       6   61797   61794
       7   61803   61800       6   61806   61800       6   61806   61803       7
   61812   61809       6   61815   61809       6   61815   61812       7   61821
   61818       6   61824   61818       6   61824   61821       7   61830   61827
       6   61833   61827       6   61833   61830       7   61839   61836       6
   61842   61836       6   61842   61839       7   61848   61845       6   61851
   61845       6   61851   61848       7   61857   61854       6   61860   61854
       6   61860   61857       7   61866   61863       6   61869   61863       6
   61869   61866       7   61875   61872       6   61878   61872       6   61878
   61875       7   61884   61881       6   61887   61881       6   61887   61884
       7   61893   61890       6   61896   61890       6   61896   61893       7
   61902   61899       6   61905   61899       6   61905   61902       7   61911
   61908       6   61914   61908       6   61914   61911       7   61920   61917
       6   61923   61917       6   61923   61920       7   61929   61926       6
   61932   61926       6   61932   61929       7   61938   61935       6   61941
   61935       6   61941   61938       7   61947   61944       6   61950   61944
       6   61950   61947       7   61956   61953       6   61959   61953       6
   61959   61956       7   61965   61962       6   61968   61962       6   61968
   61965       7   61974   61971       6   61977   61971       6   61977   61974
       7   61983   61980       6   61986   61980       6   61986   61983       7
   61992   61989       6   61995   61989       6   61995   61992       7   62001
   61998       6   62004   61998       6   62004   62001       7   62010   62007
       6   62013   62007       6   62013   62010       7   62019   62016       6
   62022   62016       6   62022   62019       7   62028   62025       6   62031
   62025       6   62031   62028       7   62037   62034       6   62040   62034
       6   62040   62037       7   62046   62043       6   62049   62043       6
   62049   62046       7   62055   62052       6   62058   62052       6   62058
   62055       7   62064   62061       6   62067   62061       6   62067   62064
       7   62073   62070       6   62076   62070       6   62076   62073       7
   62082   62079       6   62085   62079       6   62085   62082       7   62091
   62088       6   62094   62088       6   62094   62091       7   62100   62097
       6   62103   62097       6   62103   62100       7   62109   62106       6
   62112   62106       6   62112   62109       7   62118   62115       6   62121
   62115       6   62121   62118       7   62127   62124       6   62130   62124
       6   62130   62127       7   62136   62133       6   62139   62133       6
   62139   62136       7   62145   62142       6   62148   62142       6   62148
   62145       7   62154   62151       6   62157   62151       6   62157   62154
       7   62163   62160       6   62166   62160       6   62166   62163       7
   62172   62169       6   62175   62169       6   62175   62172       7   62181
   62178       6   62184   62178       6   62184   62181       7   62190   62187
       6   62193   62187       6   62193   62190       7   62199   62196       6
   62202   62196       6   62202   62199       7   62208   62205       6   62211
   62205       6   62211   62208       7   62217   62214       6   62220   62214
       6   62220   62217       7   62226   62223       6   62229   62223       6
   62229   62226       7   62235   62232       6   62238   62232       6   62238
   62235       7   62244   62241       6   62247   62241       6   62247   62244
       7   62253   62250       6   62256   62250       6   62256   62253       7
   62262   62259       6   62265   62259       6   62265   62262       7   62271
   62268       6   62274   62268       6   62274   62271       7   62280   62277
       6   62283   62277       6   62283   62280       7   62289   62286       6
   62292   62286       6   62292   62289       7   62298   62295       6   62301
   62295       6   62301   62298       7   62307   62304       6   62310   62304
       6   62310   62307       7   62316   62313       6   62319   62313       6
   62319   62316       7   62325   62322       6   62328   62322       6   62328
   62325       7   62334   62331       6   62337   62331       6   62337   62334
       7   62343   62340       6   62346   62340       6   62346   62343       7
   62352   62349       6   62355   62349       6   62355   62352       7   62361
   62358       6   62364   62358       6   62364   62361       7   62370   62367
       6   62373   62367       6   62373   62370       7   62379   62376       6
   62382   62376       6   62382   62379       7   62388   62385       6   62391
   62385       6   62391   62388       7   62397   62394       6   62400   62394
       6   62400   62397       7   62406   62403       6   62409   62403       6
   62409   62406       7   62415   62412       6   62418   62412       6   62418
   62415       7   62424   62421       6   62427   62421       6   62427   62424
       7   62433   62430       6   62436   62430       6   62436   62433       7
   62442   62439       6   62445   62439       6   62445   62442       7   62451
   62448       6   62454   62448       6   62454   62451       7   62460   62457
       6   62463   62457       6   62463   62460       7   62469   62466       6
   62472   62466       6   62472   62469       7   62478   62475       6   62481
   62475       6   62481   62478       7   62487   62484       6   62490   62484
       6   62490   62487       7   62496   62493       6   62499   62493       6
   62499   62496       7   62505   62502       6   62508   62502       6   62508
   62505       7   62514   62511       6   62517   62511       6   62517   62514
       7   62523   62520       6   62526   62520       6   62526   62523       7
   62532   62529       6   62535   62529       6   62535   62532       7   62541
   62538       6   62544   62538       6   62544   62541       7   62550   62547
       6   62553   62547       6   62553   62550       7   62559   62556       6
   62562   62556       6   62562   62559       7   62568   62565       6   62571
   62565       6   62571   62568       7   62577   62574       6   62580   62574
       6   62580   62577       7   62586   62583       6   62589   62583       6
   62589   62586       7   62595   62592       6   62598   62592       6   62598
   62595       7   62604   62601       6   62607   62601       6   62607   62604
       7   62613   62610       6   62616   62610       6   62616   62613       7
   62622   62619       6   62625   62619       6   62625   62622       7   62631
   62628       6   62634   62628       6   62634   62631       7   62640   62637
       6   62643   62637       6   62643   62640       7   62649   62646       6
   62652   62646       6   62652   62649       7   62658   62655       6   62661
   62655       6   62661   62658       7   62667   62664       6   62670   62664
       6   62670   62667       7   62676   62673       6   62679   62673       6
   62679   62676       7   62685   62682       6   62688   62682       6   62688
   62685       7   62694   62691       6   62697   62691       6   62697   62694
       7   62703   62700       6   62706   62700       6   62706   62703       7
   62712   62709       6   62715   62709       6   62715   62712       7   62721
   62718       6   62724   62718       6   62724   62721       7   62730   62727
       6   62733   62727       6   62733   62730       7   62739   62736       6
   62742   62736       6   62742   62739       7   62748   62745       6   62751
   62745       6   62751   62748       7   62757   62754       6   62760   62754
       6   62760   62757       7   62766   62763       6   62769   62763       6
   62769   62766       7   62775   62772       6   62778   62772       6   62778
   62775       7   62784   62781       6   62787   62781       6   62787   62784
       7   62793   62790       6   62796   62790       6   62796   62793       7
   62802   62799       6   62805   62799       6   62805   62802       7   62811
   62808       6   62814   62808       6   62814   62811       7   62820   62817
       6   62823   62817       6   62823   62820       7   62829   62826       6
   62832   62826       6   62832   62829       7   62838   62835       6   62841
   62835       6   62841   62838       7   62847   62844       6   62850   62844
       6   62850   62847       7   62856   62853       6   62859   62853       6
   62859   62856       7   62865   62862       6   62868   62862       6   62868
   62865       7   62874   62871       6   62877   62871       6   62877   62874
       7   62883   62880       6   62886   62880       6   62886   62883       7
   62892   62889       6   62895   62889       6   62895   62892       7   62901
   62898       6   62904   62898       6   62904   62901       7   62910   62907
       6   62913   62907       6   62913   62910       7   62919   62916       6
   62922   62916       6   62922   62919       7   62928   62925       6   62931
   62925       6   62931   62928       7   62937   62934       6   62940   62934
       6   62940   62937       7   62946   62943       6   62949   62943       6
   62949   62946       7   62955   62952       6   62958   62952       6   62958
   62955       7   62964   62961       6   62967   62961       6   62967   62964
       7   62973   62970       6   62976   62970       6   62976   62973       7
   62982   62979       6   62985   62979       6   62985   62982       7   62991
   62988       6   62994   62988       6   62994   62991       7   63000   62997
       6   63003   62997       6   63003   63000       7   63009   63006       6
   63012   63006       6   63012   63009       7   63018   63015       6   63021
   63015       6   63021   63018       7   63027   63024       6   63030   63024
       6   63030   63027       7   63036   63033       6   63039   63033       6
   63039   63036       7   63045   63042       6   63048   63042       6   63048
   63045       7   63054   63051       6   63057   63051       6   63057   63054
       7   63063   63060       6   63066   63060       6   63066   63063       7
   63072   63069       6   63075   63069       6   63075   63072       7   63081
   63078       6   63084   63078       6   63084   63081       7   63090   63087
       6   63093   63087       6   63093   63090       7   63099   63096       6
   63102   63096       6   63102   63099       7   63108   63105       6   63111
   63105       6   63111   63108       7   63117   63114       6   63120   63114
       6   63120   63117       7   63126   63123       6   63129   63123       6
   63129   63126       7   63135   63132       6   63138   63132       6   63138
   63135       7   63144   63141       6   63147   63141       6   63147   63144
       7   63153   63150       6   63156   63150       6   63156   63153       7
   63162   63159       6   63165   63159       6   63165   63162       7   63171
   63168       6   63174   63168       6   63174   63171       7   63180   63177
       6   63183   63177       6   63183   63180       7   63189   63186       6
   63192   63186       6   63192   63189       7   63198   63195       6   63201
   63195       6   63201   63198       7   63207   63204       6   63210   63204
       6   63210   63207       7   63216   63213       6   63219   63213       6
   63219   63216       7   63225   63222       6   63228   63222       6   63228
   63225       7   63234   63231       6   63237   63231       6   63237   63234
       7   63243   63240       6   63246   63240       6   63246   63243       7
   63252   63249       6   63255   63249       6   63255   63252       7   63261
   63258       6   63264   63258       6   63264   63261       7   63270   63267
       6   63273   63267       6   63273   63270       7   63279   63276       6
   63282   63276       6   63282   63279       7   63288   63285       6   63291
   63285       6   63291   63288       7   63297   63294       6   63300   63294
       6   63300   63297       7   63306   63303       6   63309   63303       6
   63309   63306       7   63315   63312       6   63318   63312       6   63318
   63315       7   63324   63321       6   63327   63321       6   63327   63324
       7   63333   63330       6   63336   63330       6   63336   63333       7
   63342   63339       6   63345   63339       6   63345   63342       7   63351
   63348       6   63354   63348       6   63354   63351       7   63360   63357
       6   63363   63357       6   63363   63360       7   63369   63366       6
   63372   63366       6   63372   63369       7   63378   63375       6   63381
   63375       6   63381   63378       7   63387   63384       6   63390   63384
       6   63390   63387       7   63396   63393       6   63399   63393       6
   63399   63396       7   63405   63402       6   63408   63402       6   63408
   63405       7   63414   63411       6   63417   63411       6   63417   63414
       7   63423   63420       6   63426   63420       6   63426   63423       7
   63432   63429       6   63435   63429       6   63435   63432       7   63441
   63438       6   63444   63438       6   63444   63441       7   63450   63447
       6   63453   63447       6   63453   63450       7   63459   63456       6
   63462   63456       6   63462   63459       7   63468   63465       6   63471
   63465       6   63471   63468       7   63477   63474       6   63480   63474
       6   63480   63477       7   63486   63483       6   63489   63483       6
   63489   63486       7   63495   63492       6   63498   63492       6   63498
   63495       7   63504   63501       6   63507   63501       6   63507   63504
       7   63513   63510       6   63516   63510       6   63516   63513       7
   63522   63519       6   63525   63519       6   63525   63522       7   63531
   63528       6   63534   63528       6   63534   63531       7   63540   63537
       6   63543   63537       6   63543   63540       7   63549   63546       6
   63552   63546       6   63552   63549       7   63558   63555       6   63561
   63555       6   63561   63558       7   63567   63564       6   63570   63564
       6   63570   63567       7   63576   63573       6   63579   63573       6
   63579   63576       7   63585   63582       6   63588   63582       6   63588
   63585       7   63594   63591       6   63597   63591       6   63597   63594
       7   63603   63600       6   63606   63600       6   63606   63603       7
   63612   63609       6   63615   63609       6   63615   63612       7   63621
   63618       6   63624   63618       6   63624   63621       7   63630   63627
       6   63633   63627       6   63633   63630       7   63639   63636       6
   63642   63636       6   63642   63639       7   63648   63645       6   63651
   63645       6   63651   63648       7   63657   63654       6   63660   63654
       6   63660   63657       7   63666   63663       6   63669   63663       6
   63669   63666       7   63675   63672       6   63678   63672       6   63678
   63675       7   63684   63681       6   63687   63681       6   63687   63684
       7   63693   63690       6   63696   63690       6   63696   63693       7
   63702   63699       6   63705   63699       6   63705   63702       7   63711
   63708       6   63714   63708       6   63714   63711       7   63720   63717
       6   63723   63717       6   63723   63720       7   63729   63726       6
   63732   63726       6   63732   63729       7   63738   63735       6   63741
   63735       6   63741   63738       7   63747   63744       6   63750   63744
       6   63750   63747       7   63756   63753       6   63759   63753       6
   63759   63756       7   63765   63762       6   63768   63762       6   63768
   63765       7   63774   63771       6   63777   63771       6   63777   63774
       7   63783   63780       6   63786   63780       6   63786   63783       7
   63792   63789       6   63795   63789       6   63795   63792       7   63801
   63798       6   63804   63798       6   63804   63801       7   63810   63807
       6   63813   63807       6   63813   63810       7   63819   63816       6
   63822   63816       6   63822   63819       7   63828   63825       6   63831
   63825       6   63831   63828       7   63837   63834       6   63840   63834
       6   63840   63837       7   63846   63843       6   63849   63843       6
   63849   63846       7   63855   63852       6   63858   63852       6   63858
   63855       7   63864   63861       6   63867   63861       6   63867   63864
       7   63873   63870       6   63876   63870       6   63876   63873       7
   63882   63879       6   63885   63879       6   63885   63882       7   63891
   63888       6   63894   63888       6   63894   63891       7   63900   63897
       6   63903   63897       6   63903   63900       7   63909   63906       6
   63912   63906       6   63912   63909       7   63918   63915       6   63921
   63915       6   63921   63918       7   63927   63924       6   63930   63924
       6   63930   63927       7   63936   63933       6   63939   63933       6
   63939   63936       7   63945   63942       6   63948   63942       6   63948
   63945       7   63954   63951       6   63957   63951       6   63957   63954
       7   63963   63960       6   63966   63960       6   63966   63963       7
   63972   63969       6   63975   63969       6   63975   63972       7   63981
   63978       6   63984   63978       6   63984   63981       7   63990   63987
       6   63993   63987       6   63993   63990       7   63999   63996       6
   64002   63996       6   64002   63999       7   64008   64005       6   64011
   64005       6   64011   64008       7   64017   64014       6   64020   64014
       6   64020   64017       7   64026   64023       6   64029   64023       6
   64029   64026       7   64035   64032       6   64038   64032       6   64038
   64035       7   64044   64041       6   64047   64041       6   64047   64044
       7   64053   64050       6   64056   64050       6   64056   64053       7
   64062   64059       6   64065   64059       6   64065   64062       7   64071
   64068       6   64074   64068       6   64074   64071       7   64080   64077
       6   64083   64077       6   64083   64080       7   64089   64086       6
   64092   64086       6   64092   64089       7   64098   64095       6   64101
   64095       6   64101   64098       7   64107   64104       6   64110   64104
       6   64110   64107       7   64116   64113       6   64119   64113       6
   64119   64116       7   64125   64122       6   64128   64122       6   64128
   64125       7   64134   64131       6   64137   64131       6   64137   64134
       7   64143   64140       6   64146   64140       6   64146   64143       7
   64152   64149       6   64155   64149       6   64155   64152       7   64161
   64158       6   64164   64158       6   64164   64161       7   64170   64167
       6   64173   64167       6   64173   64170       7   64179   64176       6
   64182   64176       6   64182   64179       7   64188   64185       6   64191
   64185       6   64191   64188       7   64197   64194       6   64200   64194
       6   64200   64197       7   64206   64203       6   64209   64203       6
   64209   64206       7   64215   64212       6   64218   64212       6   64218
   64215       7   64224   64221       6   64227   64221       6   64227   64224
       7   64233   64230       6   64236   64230       6   64236   64233       7
   64242   64239       6   64245   64239       6   64245   64242       7   64251
   64248       6   64254   64248       6   64254   64251       7   64260   64257
       6   64263   64257       6   64263   64260       7   64269   64266       6
   64272   64266       6   64272   64269       7   64278   64275       6   64281
   64275       6   64281   64278       7   64287   64284       6   64290   64284
       6   64290   64287       7   64296   64293       6   64299   64293       6
   64299   64296       7   64305   64302       6   64308   64302       6   64308
   64305       7   64314   64311       6   64317   64311       6   64317   64314
       7   64323   64320       6   64326   64320       6   64326   64323       7
   64332   64329       6   64335   64329       6   64335   64332       7   64341
   64338       6   64344   64338       6   64344   64341       7   64350   64347
       6   64353   64347       6   64353   64350       7   64359   64356       6
   64362   64356       6   64362   64359       7   64368   64365       6   64371
   64365       6   64371   64368       7   64377   64374       6   64380   64374
       6   64380   64377       7   64386   64383       6   64389   64383       6
   64389   64386       7   64395   64392       6   64398   64392       6   64398
   64395       7   64404   64401       6   64407   64401       6   64407   64404
       7   64413   64410       6   64416   64410       6   64416   64413       7
   64422   64419       6   64425   64419       6   64425   64422       7   64431
   64428       6   64434   64428       6   64434   64431       7   64440   64437
       6   64443   64437       6   64443   64440       7   64449   64446       6
   64452   64446       6   64452   64449       7   64458   64455       6   64461
   64455       6   64461   64458       7   64467   64464       6   64470   64464
       6   64470   64467       7   64476   64473       6   64479   64473       6
   64479   64476       7   64485   64482       6   64488   64482       6   64488
   64485       7   64494   64491       6   64497   64491       6   64497   64494
       7   64503   64500       6   64506   64500       6   64506   64503       7
   64512   64509       6   64515   64509       6   64515   64512       7   64521
   64518       6   64524   64518       6   64524   64521       7   64530   64527
       6   64533   64527       6   64533   64530       7   64539   64536       6
   64542   64536       6   64542   64539       7   64548   64545       6   64551
   64545       6   64551   64548       7   64557   64554       6   64560   64554
       6   64560   64557       7   64566   64563       6   64569   64563       6
   64569   64566       7   64575   64572       6   64578   64572       6   64578
   64575       7   64584   64581       6   64587   64581       6   64587   64584
       7   64593   64590       6   64596   64590       6   64596   64593       7
   64602   64599       6   64605   64599       6   64605   64602       7   64611
   64608       6   64614   64608       6   64614   64611       7   64620   64617
       6   64623   64617       6   64623   64620       7   64629   64626       6
   64632   64626       6   64632   64629       7   64638   64635       6   64641
   64635       6   64641   64638       7   64647   64644       6   64650   64644
       6   64650   64647       7   64656   64653       6   64659   64653       6
   64659   64656       7   64665   64662       6   64668   64662       6   64668
   64665       7   64674   64671       6   64677   64671       6   64677   64674
       7   64683   64680       6   64686   64680       6   64686   64683       7
   64692   64689       6   64695   64689       6   64695   64692       7   64701
   64698       6   64704   64698       6   64704   64701       7   64710   64707
       6   64713   64707       6   64713   64710       7   64719   64716       6
   64722   64716       6   64722   64719       7   64728   64725       6   64731
   64725       6   64731   64728       7   64737   64734       6   64740   64734
       6   64740   64737       7   64746   64743       6   64749   64743       6
   64749   64746       7   64755   64752       6   64758   64752       6   64758
   64755       7   64764   64761       6   64767   64761       6   64767   64764
       7   64773   64770       6   64776   64770       6   64776   64773       7
   64782   64779       6   64785   64779       6   64785   64782       7   64791
   64788       6   64794   64788       6   64794   64791       7   64800   64797
       6   64803   64797       6   64803   64800       7   64809   64806       6
   64812   64806       6   64812   64809       7   64818   64815       6   64821
   64815       6   64821   64818       7   64827   64824       6   64830   64824
       6   64830   64827       7   64836   64833       6   64839   64833       6
   64839   64836       7   64845   64842       6   64848   64842       6   64848
   64845       7   64854   64851       6   64857   64851       6   64857   64854
       7   64863   64860       6   64866   64860       6   64866   64863       7
   64872   64869       6   64875   64869       6   64875   64872       7   64881
   64878       6   64884   64878       6   64884   64881       7   64890   64887
       6   64893   64887       6   64893   64890       7   64899   64896       6
   64902   64896       6   64902   64899       7   64908   64905       6   64911
   64905       6   64911   64908       7   64917   64914       6   64920   64914
       6   64920   64917       7   64926   64923       6   64929   64923       6
   64929   64926       7   64935   64932       6   64938   64932       6   64938
   64935       7   64944   64941       6   64947   64941       6   64947   64944
       7   64953   64950       6   64956   64950       6   64956   64953       7
   64962   64959       6   64965   64959       6   64965   64962       7   64971
   64968       6   64974   64968       6   64974   64971       7   64980   64977
       6   64983   64977       6   64983   64980       7   64989   64986       6
   64992   64986       6   64992   64989       7   64998   64995       6   65001
   64995       6   65001   64998       7   65007   65004       6   65010   65004
       6   65010   65007       7   65016   65013       6   65019   65013       6
   65019   65016       7   65025   65022       6   65028   65022       6   65028
   65025       7   65034   65031       6   65037   65031       6   65037   65034
       7   65043   65040       6   65046   65040       6   65046   65043       7
   65052   65049       6   65055   65049       6   65055   65052       7   65061
   65058       6   65064   65058       6   65064   65061       7   65070   65067
       6   65073   65067       6   65073   65070       7   65079   65076       6
   65082   65076       6   65082   65079       7   65088   65085       6   65091
   65085       6   65091   65088       7   65097   65094       6   65100   65094
       6   65100   65097       7   65106   65103       6   65109   65103       6
   65109   65106       7   65115   65112       6   65118   65112       6   65118
   65115       7   65124   65121       6   65127   65121       6   65127   65124
       7   65133   65130       6   65136   65130       6   65136   65133       7
   65142   65139       6   65145   65139       6   65145   65142       7   65151
   65148       6   65154   65148       6   65154   65151       7   65160   65157
       6   65163   65157       6   65163   65160       7   65169   65166       6
   65172   65166       6   65172   65169       7   65178   65175       6   65181
   65175       6   65181   65178       7   65187   65184       6   65190   65184
       6   65190   65187       7   65196   65193       6   65199   65193       6
   65199   65196       7   65205   65202       6   65208   65202       6   65208
   65205       7   65214   65211       6   65217   65211       6   65217   65214
       7   65223   65220       6   65226   65220       6   65226   65223       7
   65232   65229       6   65235   65229       6   65235   65232       7   65241
   65238       6   65244   65238       6   65244   65241       7   65250   65247
       6   65253   65247       6   65253   65250       7   65259   65256       6
   65262   65256       6   65262   65259       7   65268   65265       6   65271
   65265       6   65271   65268       7   65277   65274       6   65280   65274
       6   65280   65277       7   65286   65283       6   65289   65283       6
   65289   65286       7   65295   65292       6   65298   65292       6   65298
   65295       7   65304   65301       6   65307   65301       6   65307   65304
       7   65313   65310       6   65316   65310       6   65316   65313       7
   65322   65319       6   65325   65319       6   65325   65322       7   65331
   65328       6   65334   65328       6   65334   65331       7   65340   65337
       6   65343   65337       6   65343   65340       7   65349   65346       6
   65352   65346       6   65352   65349       7   65358   65355       6   65361
   65355       6   65361   65358       7   65367   65364       6   65370   65364
       6   65370   65367       7   65376   65373       6   65379   65373       6
   65379   65376       7   65385   65382       6   65388   65382       6   65388
   65385       7   65394   65391       6   65397   65391       6   65397   65394
       7   65403   65400       6   65406   65400       6   65406   65403       7
   65412   65409       6   65415   65409       6   65415   65412       7   65421
   65418       6   65424   65418       6   65424   65421       7   65430   65427
       6   65433   65427       6   65433   65430       7   65439   65436       6
   65442   65436       6   65442   65439       7   65448   65445       6   65451
   65445       6   65451   65448       7   65457   65454       6   65460   65454
       6   65460   65457       7   65466   65463       6   65469   65463       6
   65469   65466       7   65475   65472       6   65478   65472       6   65478
   65475       7   65484   65481       6   65487   65481       6   65487   65484
       7   65493   65490       6   65496   65490       6   65496   65493       7
   65502   65499       6   65505   65499       6   65505   65502       7   65511
   65508       6   65514   65508       6   65514   65511       7   65520   65517
       6   65523   65517       6   65523   65520       7   65529   65526       6
   65532   65526       6   65532   65529       7   65538   65535       6   65541
   65535       6   65541   65538       7   65547   65544       6   65550   65544
       6   65550   65547       7   65556   65553       6   65559   65553       6
   65559   65556       7   65565   65562       6   65568   65562       6   65568
   65565       7   65574   65571       6   65577   65571       6   65577   65574
       7   65583   65580       6   65586   65580       6   65586   65583       7
   65592   65589       6   65595   65589       6   65595   65592       7   65601
   65598       6   65604   65598       6   65604   65601       7   65610   65607
       6   65613   65607       6   65613   65610       7   65619   65616       6
   65622   65616       6   65622   65619       7   65628   65625       6   65631
   65625       6   65631   65628       7   65637   65634       6   65640   65634
       6   65640   65637       7   65646   65643       6   65649   65643       6
   65649   65646       7   65655   65652       6   65658   65652       6   65658
   65655       7   65664   65661       6   65667   65661       6   65667   65664
       7   65673   65670       6   65676   65670       6   65676   65673       7
   65682   65679       6   65685   65679       6   65685   65682       7   65691
   65688       6   65694   65688       6   65694   65691       7   65700   65697
       6   65703   65697       6   65703   65700       7   65709   65706       6
   65712   65706       6   65712   65709       7   65718   65715       6   65721
   65715       6   65721   65718       7   65727   65724       6   65730   65724
       6   65730   65727       7   65736   65733       6   65739   65733       6
   65739   65736       7   65745   65742       6   65748   65742       6   65748
   65745       7   65754   65751       6   65757   65751       6   65757   65754
       7   65763   65760       6   65766   65760       6   65766   65763       7
   65772   65769       6   65775   65769       6   65775   65772       7   65781
   65778       6   65784   65778       6   65784   65781       7   65790   65787
       6   65793   65787       6   65793   65790       7   65799   65796       6
   65802   65796       6   65802   65799       7   65808   65805       6   65811
   65805       6   65811   65808       7   65817   65814       6   65820   65814
       6   65820   65817       7   65826   65823       6   65829   65823       6
   65829   65826       7   65835   65832       6   65838   65832       6   65838
   65835       7   65844   65841       6   65847   65841       6   65847   65844
       7   65853   65850       6   65856   65850       6   65856   65853       7
   65862   65859       6   65865   65859       6   65865   65862       7   65871
   65868       6   65874   65868       6   65874   65871       7   65880   65877
       6   65883   65877       6   65883   65880       7   65889   65886       6
   65892   65886       6   65892   65889       7   65898   65895       6   65901
   65895       6   65901   65898       7   65907   65904       6   65910   65904
       6   65910   65907       7   65916   65913       6   65919   65913       6
   65919   65916       7   65925   65922       6   65928   65922       6   65928
   65925       7   65934   65931       6   65937   65931       6   65937   65934
       7   65943   65940       6   65946   65940       6   65946   65943       7
   65952   65949       6   65955   65949       6   65955   65952       7   65961
   65958       6   65964   65958       6   65964   65961       7   65970   65967
       6   65973   65967       6   65973   65970       7   65979   65976       6
   65982   65976       6   65982   65979       7   65988   65985       6   65991
   65985       6   65991   65988       7   65997   65994       6   66000   65994
       6   66000   65997       7   66006   66003       6   66009   66003       6
   66009   66006       7   66015   66012       6   66018   66012       6   66018
   66015       7   66024   66021       6   66027   66021       6   66027   66024
       7   66033   66030       6   66036   66030       6   66036   66033       7
   66042   66039       6   66045   66039       6   66045   66042       7   66051
   66048       6   66054   66048       6   66054   66051       7   66060   66057
       6   66063   66057       6   66063   66060       7   66069   66066       6
   66072   66066       6   66072   66069       7   66078   66075       6   66081
   66075       6   66081   66078       7   66087   66084       6   66090   66084
       6   66090   66087       7   66096   66093       6   66099   66093       6
   66099   66096       7   66105   66102       6   66108   66102       6   66108
   66105       7   66114   66111       6   66117   66111       6   66117   66114
       7   66123   66120       6   66126   66120       6   66126   66123       7
   66132   66129       6   66135   66129       6   66135   66132       7   66141
   66138       6   66144   66138       6   66144   66141       7   66150   66147
       6   66153   66147       6   66153   66150       7   66159   66156       6
   66162   66156       6   66162   66159       7   66168   66165       6   66171
   66165       6   66171   66168       7   66177   66174       6   66180   66174
       6   66180   66177       7   66186   66183       6   66189   66183       6
   66189   66186       7   66195   66192       6   66198   66192       6   66198
   66195       7   66204   66201       6   66207   66201       6   66207   66204
       7   66213   66210       6   66216   66210       6   66216   66213       7
   66222   66219       6   66225   66219       6   66225   66222       7   66231
   66228       6   66234   66228       6   66234   66231       7   66240   66237
       6   66243   66237       6   66243   66240       7   66249   66246       6
   66252   66246       6   66252   66249       7   66258   66255       6   66261
   66255       6   66261   66258       7   66267   66264       6   66270   66264
       6   66270   66267       7   66276   66273       6   66279   66273       6
   66279   66276       7   66285   66282       6   66288   66282       6   66288
   66285       7   66294   66291       6   66297   66291       6   66297   66294
       7   66303   66300       6   66306   66300       6   66306   66303       7
   66312   66309       6   66315   66309       6   66315   66312       7   66321
   66318       6   66324   66318       6   66324   66321       7   66330   66327
       6   66333   66327       6   66333   66330       7   66339   66336       6
   66342   66336       6   66342   66339       7   66348   66345       6   66351
   66345       6   66351   66348       7   66357   66354       6   66360   66354
       6   66360   66357       7   66366   66363       6   66369   66363       6
   66369   66366       7   66375   66372       6   66378   66372       6   66378
   66375       7   66384   66381       6   66387   66381       6   66387   66384
       7   66393   66390       6   66396   66390       6   66396   66393       7
   66402   66399       6   66405   66399       6   66405   66402       7   66411
   66408       6   66414   66408       6   66414   66411       7   66420   66417
       6   66423   66417       6   66423   66420       7   66429   66426       6
   66432   66426       6   66432   66429       7   66438   66435       6   66441
   66435       6   66441   66438       7   66447   66444       6   66450   66444
       6   66450   66447       7   66456   66453       6   66459   66453       6
   66459   66456       7   66465   66462       6   66468   66462       6   66468
   66465       7   66474   66471       6   66477   66471       6   66477   66474
       7   66483   66480       6   66486   66480       6   66486   66483       7
   66492   66489       6   66495   66489       6   66495   66492       7   66501
   66498       6   66504   66498       6   66504   66501       7   66510   66507
       6   66513   66507       6   66513   66510       7   66519   66516       6
   66522   66516       6   66522   66519       7   66528   66525       6   66531
   66525       6   66531   66528       7   66537   66534       6   66540   66534
       6   66540   66537       7   66546   66543       6   66549   66543       6
   66549   66546       7   66555   66552       6   66558   66552       6   66558
   66555       7   66564   66561       6   66567   66561       6   66567   66564
       7   66573   66570       6   66576   66570       6   66576   66573       7
   66582   66579       6   66585   66579       6   66585   66582       7   66591
   66588       6   66594   66588       6   66594   66591       7   66600   66597
       6   66603   66597       6   66603   66600       7   66609   66606       6
   66612   66606       6   66612   66609       7   66618   66615       6   66621
   66615       6   66621   66618       7   66627   66624       6   66630   66624
       6   66630   66627       7   66636   66633       6   66639   66633       6
   66639   66636       7   66645   66642       6   66648   66642       6   66648
   66645       7   66654   66651       6   66657   66651       6   66657   66654
       7   66663   66660       6   66666   66660       6   66666   66663       7
   66672   66669       6   66675   66669       6   66675   66672       7   66681
   66678       6   66684   66678       6   66684   66681       7   66690   66687
       6   66693   66687       6   66693   66690       7   66699   66696       6
   66702   66696       6   66702   66699       7   66708   66705       6   66711
   66705       6   66711   66708       7   66717   66714       6   66720   66714
       6   66720   66717       7   66726   66723       6   66729   66723       6
   66729   66726       7   66735   66732       6   66738   66732       6   66738
   66735       7   66744   66741       6   66747   66741       6   66747   66744
       7   66753   66750       6   66756   66750       6   66756   66753       7
   66762   66759       6   66765   66759       6   66765   66762       7   66771
   66768       6   66774   66768       6   66774   66771       7   66780   66777
       6   66783   66777       6   66783   66780       7   66789   66786       6
   66792   66786       6   66792   66789       7   66798   66795       6   66801
   66795       6   66801   66798       7   66807   66804       6   66810   66804
       6   66810   66807       7   66816   66813       6   66819   66813       6
   66819   66816       7   66825   66822       6   66828   66822       6   66828
   66825       7   66834   66831       6   66837   66831       6   66837   66834
       7   66843   66840       6   66846   66840       6   66846   66843       7
   66852   66849       6   66855   66849       6   66855   66852       7   66861
   66858       6   66864   66858       6   66864   66861       7   66870   66867
       6   66873   66867       6   66873   66870       7   66879   66876       6
   66882   66876       6   66882   66879       7   66888   66885       6   66891
   66885       6   66891   66888       7   66897   66894       6   66900   66894
       6   66900   66897       7   66906   66903       6   66909   66903       6
   66909   66906       7   66915   66912       6   66918   66912       6   66918
   66915       7   66924   66921       6   66927   66921       6   66927   66924
       7   66933   66930       6   66936   66930       6   66936   66933       7
   66942   66939       6   66945   66939       6   66945   66942       7   66951
   66948       6   66954   66948       6   66954   66951       7   66960   66957
       6   66963   66957       6   66963   66960       7   66969   66966       6
   66972   66966       6   66972   66969       7   66978   66975       6   66981
   66975       6   66981   66978       7   66987   66984       6   66990   66984
       6   66990   66987       7   66996   66993       6   66999   66993       6
   66999   66996       7   67005   67002       6   67008   67002       6   67008
   67005       7   67014   67011       6   67017   67011       6   67017   67014
       7   67023   67020       6   67026   67020       6   67026   67023       7
   67032   67029       6   67035   67029       6   67035   67032       7   67041
   67038       6   67044   67038       6   67044   67041       7   67050   67047
       6   67053   67047       6   67053   67050       7   67059   67056       6
   67062   67056       6   67062   67059       7   67068   67065       6   67071
   67065       6   67071   67068       7   67077   67074       6   67080   67074
       6   67080   67077       7   67086   67083       6   67089   67083       6
   67089   67086       7   67095   67092       6   67098   67092       6   67098
   67095       7   67104   67101       6   67107   67101       6   67107   67104
       7   67113   67110       6   67116   67110       6   67116   67113       7
   67122   67119       6   67125   67119       6   67125   67122       7   67131
   67128       6   67134   67128       6   67134   67131       7   67140   67137
       6   67143   67137       6   67143   67140       7   67149   67146       6
   67152   67146       6   67152   67149       7   67158   67155       6   67161
   67155       6   67161   67158       7   67167   67164       6   67170   67164
       6   67170   67167       7   67176   67173       6   67179   67173       6
   67179   67176       7   67185   67182       6   67188   67182       6   67188
   67185       7   67194   67191       6   67197   67191       6   67197   67194
       7   67203   67200       6   67206   67200       6   67206   67203       7
   67212   67209       6   67215   67209       6   67215   67212       7   67221
   67218       6   67224   67218       6   67224   67221       7   67230   67227
       6   67233   67227       6   67233   67230       7   67239   67236       6
   67242   67236       6   67242   67239       7   67248   67245       6   67251
   67245       6   67251   67248       7   67257   67254       6   67260   67254
       6   67260   67257       7   67266   67263       6   67269   67263       6
   67269   67266       7   67275   67272       6   67278   67272       6   67278
   67275       7   67284   67281       6   67287   67281       6   67287   67284
       7   67293   67290       6   67296   67290       6   67296   67293       7
   67302   67299       6   67305   67299       6   67305   67302       7   67311
   67308       6   67314   67308       6   67314   67311       7   67320   67317
       6   67323   67317       6   67323   67320       7   67329   67326       6
   67332   67326       6   67332   67329       7   67338   67335       6   67341
   67335       6   67341   67338       7   67347   67344       6   67350   67344
       6   67350   67347       7   67356   67353       6   67359   67353       6
   67359   67356       7   67365   67362       6   67368   67362       6   67368
   67365       7   67374   67371       6   67377   67371       6   67377   67374
       7   67383   67380       6   67386   67380       6   67386   67383       7
   67392   67389       6   67395   67389       6   67395   67392       7   67401
   67398       6   67404   67398       6   67404   67401       7   67410   67407
       6   67413   67407       6   67413   67410       7   67419   67416       6
   67422   67416       6   67422   67419       7   67428   67425       6   67431
   67425       6   67431   67428       7   67437   67434       6   67440   67434
       6   67440   67437       7   67446   67443       6   67449   67443       6
   67449   67446       7   67455   67452       6   67458   67452       6   67458
   67455       7   67464   67461       6   67467   67461       6   67467   67464
       7   67473   67470       6   67476   67470       6   67476   67473       7
   67482   67479       6   67485   67479       6   67485   67482       7   67491
   67488       6   67494   67488       6   67494   67491       7   67500   67497
       6   67503   67497       6   67503   67500       7   67509   67506       6
   67512   67506       6   67512   67509       7   67518   67515       6   67521
   67515       6   67521   67518       7   67527   67524       6   67530   67524
       6   67530   67527       7   67536   67533       6   67539   67533       6
   67539   67536       7   67545   67542       6   67548   67542       6   67548
   67545       7   67554   67551       6   67557   67551       6   67557   67554
       7   67563   67560       6   67566   67560       6   67566   67563       7
   67572   67569       6   67575   67569       6   67575   67572       7   67581
   67578       6   67584   67578       6   67584   67581       7   67590   67587
       6   67593   67587       6   67593   67590       7   67599   67596       6
   67602   67596       6   67602   67599       7   67608   67605       6   67611
   67605       6   67611   67608       7   67617   67614       6   67620   67614
       6   67620   67617       7   67626   67623       6   67629   67623       6
   67629   67626       7   67635   67632       6   67638   67632       6   67638
   67635       7   67644   67641       6   67647   67641       6   67647   67644
       7   67653   67650       6   67656   67650       6   67656   67653       7
   67662   67659       6   67665   67659       6   67665   67662       7   67671
   67668       6   67674   67668       6   67674   67671       7   67680   67677
       6   67683   67677       6   67683   67680       7   67689   67686       6
   67692   67686       6   67692   67689       7   67698   67695       6   67701
   67695       6   67701   67698       7   67707   67704       6   67710   67704
       6   67710   67707       7   67716   67713       6   67719   67713       6
   67719   67716       7   67725   67722       6   67728   67722       6   67728
   67725       7   67734   67731       6   67737   67731       6   67737   67734
       7   67743   67740       6   67746   67740       6   67746   67743       7
   67752   67749       6   67755   67749       6   67755   67752       7   67761
   67758       6   67764   67758       6   67764   67761       7   67770   67767
       6   67773   67767       6   67773   67770       7   67779   67776       6
   67782   67776       6   67782   67779       7   67788   67785       6   67791
   67785       6   67791   67788       7   67797   67794       6   67800   67794
       6   67800   67797       7   67806   67803       6   67809   67803       6
   67809   67806       7   67815   67812       6   67818   67812       6   67818
   67815       7   67824   67821       6   67827   67821       6   67827   67824
       7   67833   67830       6   67836   67830       6   67836   67833       7
   67842   67839       6   67845   67839       6   67845   67842       7   67851
   67848       6   67854   67848       6   67854   67851       7   67860   67857
       6   67863   67857       6   67863   67860       7   67869   67866       6
   67872   67866       6   67872   67869       7   67878   67875       6   67881
   67875       6   67881   67878       7   67887   67884       6   67890   67884
       6   67890   67887       7   67896   67893       6   67899   67893       6
   67899   67896       7   67905   67902       6   67908   67902       6   67908
   67905       7   67914   67911       6   67917   67911       6   67917   67914
       7   67923   67920       6   67926   67920       6   67926   67923       7
   67932   67929       6   67935   67929       6   67935   67932       7   67941
   67938       6   67944   67938       6   67944   67941       7   67950   67947
       6   67953   67947       6   67953   67950       7   67959   67956       6
   67962   67956       6   67962   67959       7   67968   67965       6   67971
   67965       6   67971   67968       7   67977   67974       6   67980   67974
       6   67980   67977       7   67986   67983       6   67989   67983       6
   67989   67986       7   67995   67992       6   67998   67992       6   67998
   67995       7   68004   68001       6   68007   68001       6   68007   68004
       7   68013   68010       6   68016   68010       6   68016   68013       7
   68022   68019       6   68025   68019       6   68025   68022       7   68031
   68028       6   68034   68028       6   68034   68031       7   68040   68037
       6   68043   68037       6   68043   68040       7   68049   68046       6
   68052   68046       6   68052   68049       7   68058   68055       6   68061
   68055       6   68061   68058       7   68067   68064       6   68070   68064
       6   68070   68067       7   68076   68073       6   68079   68073       6
   68079   68076       7   68085   68082       6   68088   68082       6   68088
   68085       7   68094   68091       6   68097   68091       6   68097   68094
       7   68103   68100       6   68106   68100       6   68106   68103       7
   68112   68109       6   68115   68109       6   68115   68112       7   68121
   68118       6   68124   68118       6   68124   68121       7   68130   68127
       6   68133   68127       6   68133   68130       7   68139   68136       6
   68142   68136       6   68142   68139       7   68148   68145       6   68151
   68145       6   68151   68148       7   68157   68154       6   68160   68154
       6   68160   68157       7   68166   68163       6   68169   68163       6
   68169   68166       7   68175   68172       6   68178   68172       6   68178
   68175       7   68184   68181       6   68187   68181       6   68187   68184
       7   68193   68190       6   68196   68190       6   68196   68193       7
   68202   68199       6   68205   68199       6   68205   68202       7   68211
   68208       6   68214   68208       6   68214   68211       7   68220   68217
       6   68223   68217       6   68223   68220       7   68229   68226       6
   68232   68226       6   68232   68229       7   68238   68235       6   68241
   68235       6   68241   68238       7   68247   68244       6   68250   68244
       6   68250   68247       7   68256   68253       6   68259   68253       6
   68259   68256       7   68265   68262       6   68268   68262       6   68268
   68265       7   68274   68271       6   68277   68271       6   68277   68274
       7   68283   68280       6   68286   68280       6   68286   68283       7
   68292   68289       6   68295   68289       6   68295   68292       7   68301
   68298       6   68304   68298       6   68304   68301       7   68310   68307
       6   68313   68307       6   68313   68310       7   68319   68316       6
   68322   68316       6   68322   68319       7   68328   68325       6   68331
   68325       6   68331   68328       7   68337   68334       6   68340   68334
       6   68340   68337       7   68346   68343       6   68349   68343       6
   68349   68346       7   68355   68352       6   68358   68352       6   68358
   68355       7   68364   68361       6   68367   68361       6   68367   68364
       7   68373   68370       6   68376   68370       6   68376   68373       7
   68382   68379       6   68385   68379       6   68385   68382       7   68391
   68388       6   68394   68388       6   68394   68391       7   68400   68397
       6   68403   68397       6   68403   68400       7   68409   68406       6
   68412   68406       6   68412   68409       7   68418   68415       6   68421
   68415       6   68421   68418       7   68427   68424       6   68430   68424
       6   68430   68427       7   68436   68433       6   68439   68433       6
   68439   68436       7   68445   68442       6   68448   68442       6   68448
   68445       7   68454   68451       6   68457   68451       6   68457   68454
       7   68463   68460       6   68466   68460       6   68466   68463       7
   68472   68469       6   68475   68469       6   68475   68472       7   68481
   68478       6   68484   68478       6   68484   68481       7   68490   68487
       6   68493   68487       6   68493   68490       7   68499   68496       6
   68502   68496       6   68502   68499       7   68508   68505       6   68511
   68505       6   68511   68508       7   68517   68514       6   68520   68514
       6   68520   68517       7   68526   68523       6   68529   68523       6
   68529   68526       7   68535   68532       6   68538   68532       6   68538
   68535       7   68544   68541       6   68547   68541       6   68547   68544
       7   68553   68550       6   68556   68550       6   68556   68553       7
   68562   68559       6   68565   68559       6   68565   68562       7   68571
   68568       6   68574   68568       6   68574   68571       7   68580   68577
       6   68583   68577       6   68583   68580       7   68589   68586       6
   68592   68586       6   68592   68589       7   68598   68595       6   68601
   68595       6   68601   68598       7   68607   68604       6   68610   68604
       6   68610   68607       7   68616   68613       6   68619   68613       6
   68619   68616       7   68625   68622       6   68628   68622       6   68628
   68625       7   68634   68631       6   68637   68631       6   68637   68634
       7   68643   68640       6   68646   68640       6   68646   68643       7
   68652   68649       6   68655   68649       6   68655   68652       7   68661
   68658       6   68664   68658       6   68664   68661       7   68670   68667
       6   68673   68667       6   68673   68670       7   68679   68676       6
   68682   68676       6   68682   68679       7   68688   68685       6   68691
   68685       6   68691   68688       7   68697   68694       6   68700   68694
       6   68700   68697       7   68706   68703       6   68709   68703       6
   68709   68706       7   68715   68712       6   68718   68712       6   68718
   68715       7   68724   68721       6   68727   68721       6   68727   68724
       7   68733   68730       6   68736   68730       6   68736   68733       7
   68742   68739       6   68745   68739       6   68745   68742       7   68751
   68748       6   68754   68748       6   68754   68751       7   68760   68757
       6   68763   68757       6   68763   68760       7   68769   68766       6
   68772   68766       6   68772   68769       7   68778   68775       6   68781
   68775       6   68781   68778       7   68787   68784       6   68790   68784
       6   68790   68787       7   68796   68793       6   68799   68793       6
   68799   68796       7   68805   68802       6   68808   68802       6   68808
   68805       7   68814   68811       6   68817   68811       6   68817   68814
       7   68823   68820       6   68826   68820       6   68826   68823       7
   68832   68829       6   68835   68829       6   68835   68832       7   68841
   68838       6   68844   68838       6   68844   68841       7   68850   68847
       6   68853   68847       6   68853   68850       7   68859   68856       6
   68862   68856       6   68862   68859       7   68868   68865       6   68871
   68865       6   68871   68868       7   68877   68874       6   68880   68874
       6   68880   68877       7   68886   68883       6   68889   68883       6
   68889   68886       7   68895   68892       6   68898   68892       6   68898
   68895       7   68904   68901       6   68907   68901       6   68907   68904
       7   68913   68910       6   68916   68910       6   68916   68913       7
   68922   68919       6   68925   68919       6   68925   68922       7   68931
   68928       6   68934   68928       6   68934   68931       7   68940   68937
       6   68943   68937       6   68943   68940       7   68949   68946       6
   68952   68946       6   68952   68949       7   68958   68955       6   68961
   68955       6   68961   68958       7   68967   68964       6   68970   68964
       6   68970   68967       7   68976   68973       6   68979   68973       6
   68979   68976       7   68985   68982       6   68988   68982       6   68988
   68985       7   68994   68991       6   68997   68991       6   68997   68994
       7   69003   69000       6   69006   69000       6   69006   69003       7
   69012   69009       6   69015   69009       6   69015   69012       7   69021
   69018       6   69024   69018       6   69024   69021       7   69030   69027
       6   69033   69027       6   69033   69030       7   69039   69036       6
   69042   69036       6   69042   69039       7   69048   69045       6   69051
   69045       6   69051   69048       7   69057   69054       6   69060   69054
       6   69060   69057       7   69066   69063       6   69069   69063       6
   69069   69066       7   69075   69072       6   69078   69072       6   69078
   69075       7   69084   69081       6   69087   69081       6   69087   69084
       7   69093   69090       6   69096   69090       6   69096   69093       7
   69102   69099       6   69105   69099       6   69105   69102       7   69111
   69108       6   69114   69108       6   69114   69111       7   69120   69117
       6   69123   69117       6   69123   69120       7   69129   69126       6
   69132   69126       6   69132   69129       7   69138   69135       6   69141
   69135       6   69141   69138       7   69147   69144       6   69150   69144
       6   69150   69147       7   69156   69153       6   69159   69153       6
   69159   69156       7   69165   69162       6   69168   69162       6   69168
   69165       7   69174   69171       6   69177   69171       6   69177   69174
       7   69183   69180       6   69186   69180       6   69186   69183       7
   69192   69189       6   69195   69189       6   69195   69192       7   69201
   69198       6   69204   69198       6   69204   69201       7   69210   69207
       6   69213   69207       6   69213   69210       7   69219   69216       6
   69222   69216       6   69222   69219       7   69228   69225       6   69231
   69225       6   69231   69228       7   69237   69234       6   69240   69234
       6   69240   69237       7   69246   69243       6   69249   69243       6
   69249   69246       7   69255   69252       6   69258   69252       6   69258
   69255       7   69264   69261       6   69267   69261       6   69267   69264
       7   69273   69270       6   69276   69270       6   69276   69273       7
   69282   69279       6   69285   69279       6   69285   69282       7   69291
   69288       6   69294   69288       6   69294   69291       7   69300   69297
       6   69303   69297       6   69303   69300       7   69309   69306       6
   69312   69306       6   69312   69309       7   69318   69315       6   69321
   69315       6   69321   69318       7   69327   69324       6   69330   69324
       6   69330   69327       7   69336   69333       6   69339   69333       6
   69339   69336       7   69345   69342       6   69348   69342       6   69348
   69345       7   69354   69351       6   69357   69351       6   69357   69354
       7   69363   69360       6   69366   69360       6   69366   69363       7
   69372   69369       6   69375   69369       6   69375   69372       7   69381
   69378       6   69384   69378       6   69384   69381       7   69390   69387
       6   69393   69387       6   69393   69390       7   69399   69396       6
   69402   69396       6   69402   69399       7   69408   69405       6   69411
   69405       6   69411   69408       7   69417   69414       6   69420   69414
       6   69420   69417       7   69426   69423       6   69429   69423       6
   69429   69426       7   69435   69432       6   69438   69432       6   69438
   69435       7   69444   69441       6   69447   69441       6   69447   69444
       7   69453   69450       6   69456   69450       6   69456   69453       7
   69462   69459       6   69465   69459       6   69465   69462       7   69471
   69468       6   69474   69468       6   69474   69471       7   69480   69477
       6   69483   69477       6   69483   69480       7   69489   69486       6
   69492   69486       6   69492   69489       7   69498   69495       6   69501
   69495       6   69501   69498       7   69507   69504       6   69510   69504
       6   69510   69507       7   69516   69513       6   69519   69513       6
   69519   69516       7   69525   69522       6   69528   69522       6   69528
   69525       7   69534   69531       6   69537   69531       6   69537   69534
       7   69543   69540       6   69546   69540       6   69546   69543       7
   69552   69549       6   69555   69549       6   69555   69552       7   69561
   69558       6   69564   69558       6   69564   69561       7   69570   69567
       6   69573   69567       6   69573   69570       7   69579   69576       6
   69582   69576       6   69582   69579       7   69588   69585       6   69591
   69585       6   69591   69588       7   69597   69594       6   69600   69594
       6   69600   69597       7   69606   69603       6   69609   69603       6
   69609   69606       7   69615   69612       6   69618   69612       6   69618
   69615       7   69624   69621       6   69627   69621       6   69627   69624
       7   69633   69630       6   69636   69630       6   69636   69633       7
   69642   69639       6   69645   69639       6   69645   69642       7   69651
   69648       6   69654   69648       6   69654   69651       7   69660   69657
       6   69663   69657       6   69663   69660       7   69669   69666       6
   69672   69666       6   69672   69669       7   69678   69675       6   69681
   69675       6   69681   69678       7   69687   69684       6   69690   69684
       6   69690   69687       7   69696   69693       6   69699   69693       6
   69699   69696       7   69705   69702       6   69708   69702       6   69708
   69705       7   69714   69711       6   69717   69711       6   69717   69714
       7   69723   69720       6   69726   69720       6   69726   69723       7
   69732   69729       6   69735   69729       6   69735   69732       7   69741
   69738       6   69744   69738       6   69744   69741       7   69750   69747
       6   69753   69747       6   69753   69750       7   69759   69756       6
   69762   69756       6   69762   69759       7   69768   69765       6   69771
   69765       6   69771   69768       7   69777   69774       6   69780   69774
       6   69780   69777       7   69786   69783       6   69789   69783       6
   69789   69786       7   69795   69792       6   69798   69792       6   69798
   69795       7   69804   69801       6   69807   69801       6   69807   69804
       7   69813   69810       6   69816   69810       6   69816   69813       7
   69822   69819       6   69825   69819       6   69825   69822       7   69831
   69828       6   69834   69828       6   69834   69831       7   69840   69837
       6   69843   69837       6   69843   69840       7   69849   69846       6
   69852   69846       6   69852   69849       7   69858   69855       6   69861
   69855       6   69861   69858       7   69867   69864       6   69870   69864
       6   69870   69867       7   69876   69873       6   69879   69873       6
   69879   69876       7   69885   69882       6   69888   69882       6   69888
   69885       7   69894   69891       6   69897   69891       6   69897   69894
       7   69903   69900       6   69906   69900       6   69906   69903       7
   69912   69909       6   69915   69909       6   69915   69912       7   69921
   69918       6   69924   69918       6   69924   69921       7   69930   69927
       6   69933   69927       6   69933   69930       7   69939   69936       6
   69942   69936       6   69942   69939       7   69948   69945       6   69951
   69945       6   69951   69948       7   69957   69954       6   69960   69954
       6   69960   69957       7   69966   69963       6   69969   69963       6
   69969   69966       7   69975   69972       6   69978   69972       6   69978
   69975       7   69984   69981       6   69987   69981       6   69987   69984
       7   69993   69990       6   69996   69990       6   69996   69993       7
   70002   69999       6   70005   69999       6   70005   70002       7   70011
   70008       6   70014   70008       6   70014   70011       7   70020   70017
       6   70023   70017       6   70023   70020       7   70029   70026       6
   70032   70026       6   70032   70029       7   70038   70035       6   70041
   70035       6   70041   70038       7   70047   70044       6   70050   70044
       6   70050   70047       7   70056   70053       6   70059   70053       6
   70059   70056       7   70065   70062       6   70068   70062       6   70068
   70065       7   70074   70071       6   70077   70071       6   70077   70074
       7   70083   70080       6   70086   70080       6   70086   70083       7
   70092   70089       6   70095   70089       6   70095   70092       7   70101
   70098       6   70104   70098       6   70104   70101       7   70110   70107
       6   70113   70107       6   70113   70110       7   70119   70116       6
   70122   70116       6   70122   70119       7   70128   70125       6   70131
   70125       6   70131   70128       7   70137   70134       6   70140   70134
       6   70140   70137       7   70146   70143       6   70149   70143       6
   70149   70146       7   70155   70152       6   70158   70152       6   70158
   70155       7   70164   70161       6   70167   70161       6   70167   70164
       7   70173   70170       6   70176   70170       6   70176   70173       7
   70182   70179       6   70185   70179       6   70185   70182       7   70191
   70188       6   70194   70188       6   70194   70191       7   70200   70197
       6   70203   70197       6   70203   70200       7   70209   70206       6
   70212   70206       6   70212   70209       7   70218   70215       6   70221
   70215       6   70221   70218       7   70227   70224       6   70230   70224
       6   70230   70227       7   70236   70233       6   70239   70233       6
   70239   70236       7   70245   70242       6   70248   70242       6   70248
   70245       7   70254   70251       6   70257   70251       6   70257   70254
       7   70263   70260       6   70266   70260       6   70266   70263       7
   70272   70269       6   70275   70269       6   70275   70272       7   70281
   70278       6   70284   70278       6   70284   70281       7   70290   70287
       6   70293   70287       6   70293   70290       7   70299   70296       6
   70302   70296       6   70302   70299       7   70308   70305       6   70311
   70305       6   70311   70308       7   70317   70314       6   70320   70314
       6   70320   70317       7   70326   70323       6   70329   70323       6
   70329   70326       7   70335   70332       6   70338   70332       6   70338
   70335       7   70344   70341       6   70347   70341       6   70347   70344
       7   70353   70350       6   70356   70350       6   70356   70353       7
   70362   70359       6   70365   70359       6   70365   70362       7   70371
   70368       6   70374   70368       6   70374   70371       7   70380   70377
       6   70383   70377       6   70383   70380       7   70389   70386       6
   70392   70386       6   70392   70389       7   70398   70395       6   70401
   70395       6   70401   70398       7   70407   70404       6   70410   70404
       6   70410   70407       7   70416   70413       6   70419   70413       6
   70419   70416       7   70425   70422       6   70428   70422       6   70428
   70425       7   70434   70431       6   70437   70431       6   70437   70434
       7   70443   70440       6   70446   70440       6   70446   70443       7
   70452   70449       6   70455   70449       6   70455   70452       7   70461
   70458       6   70464   70458       6   70464   70461       7   70470   70467
       6   70473   70467       6   70473   70470       7   70479   70476       6
   70482   70476       6   70482   70479       7   70488   70485       6   70491
   70485       6   70491   70488       7   70497   70494       6   70500   70494
       6   70500   70497       7   70506   70503       6   70509   70503       6
   70509   70506       7   70515   70512       6   70518   70512       6   70518
   70515       7   70524   70521       6   70527   70521       6   70527   70524
       7   70533   70530       6   70536   70530       6   70536   70533       7
   70542   70539       6   70545   70539       6   70545   70542       7   70551
   70548       6   70554   70548       6   70554   70551       7   70560   70557
       6   70563   70557       6   70563   70560       7   70569   70566       6
   70572   70566       6   70572   70569       7   70578   70575       6   70581
   70575       6   70581   70578       7   70587   70584       6   70590   70584
       6   70590   70587       7   70596   70593       6   70599   70593       6
   70599   70596       7   70605   70602       6   70608   70602       6   70608
   70605       7   70614   70611       6   70617   70611       6   70617   70614
       7   70623   70620       6   70626   70620       6   70626   70623       7
   70632   70629       6   70635   70629       6   70635   70632       7   70641
   70638       6   70644   70638       6   70644   70641       7   70650   70647
       6   70653   70647       6   70653   70650       7   70659   70656       6
   70662   70656       6   70662   70659       7   70668   70665       6   70671
   70665       6   70671   70668       7   70677   70674       6   70680   70674
       6   70680   70677       7   70686   70683       6   70689   70683       6
   70689   70686       7   70695   70692       6   70698   70692       6   70698
   70695       7   70704   70701       6   70707   70701       6   70707   70704
       7   70713   70710       6   70716   70710       6   70716   70713       7
   70722   70719       6   70725   70719       6   70725   70722       7   70731
   70728       6   70734   70728       6   70734   70731       7   70740   70737
       6   70743   70737       6   70743   70740       7   70749   70746       6
   70752   70746       6   70752   70749       7   70758   70755       6   70761
   70755       6   70761   70758       7   70767   70764       6   70770   70764
       6   70770   70767       7   70776   70773       6   70779   70773       6
   70779   70776       7   70785   70782       6   70788   70782       6   70788
   70785       7   70794   70791       6   70797   70791       6   70797   70794
       7   70803   70800       6   70806   70800       6   70806   70803       7
   70812   70809       6   70815   70809       6   70815   70812       7   70821
   70818       6   70824   70818       6   70824   70821       7   70830   70827
       6   70833   70827       6   70833   70830       7   70839   70836       6
   70842   70836       6   70842   70839       7   70848   70845       6   70851
   70845       6   70851   70848       7   70857   70854       6   70860   70854
       6   70860   70857       7   70866   70863       6   70869   70863       6
   70869   70866       7   70875   70872       6   70878   70872       6   70878
   70875       7   70884   70881       6   70887   70881       6   70887   70884
       7   70893   70890       6   70896   70890       6   70896   70893       7
   70902   70899       6   70905   70899       6   70905   70902       7   70911
   70908       6   70914   70908       6   70914   70911       7   70920   70917
       6   70923   70917       6   70923   70920       7   70929   70926       6
   70932   70926       6   70932   70929       7   70938   70935       6   70941
   70935       6   70941   70938       7   70947   70944       6   70950   70944
       6   70950   70947       7   70956   70953       6   70959   70953       6
   70959   70956       7   70965   70962       6   70968   70962       6   70968
   70965       7   70974   70971       6   70977   70971       6   70977   70974
       7   70983   70980       6   70986   70980       6   70986   70983       7
   70992   70989       6   70995   70989       6   70995   70992       7   71001
   70998       6   71004   70998       6   71004   71001       7   71010   71007
       6   71013   71007       6   71013   71010       7   71019   71016       6
   71022   71016       6   71022   71019       7   71028   71025       6   71031
   71025       6   71031   71028       7   71037   71034       6   71040   71034
       6   71040   71037       7   71046   71043       6   71049   71043       6
   71049   71046       7   71055   71052       6   71058   71052       6   71058
   71055       7   71064   71061       6   71067   71061       6   71067   71064
       7   71073   71070       6   71076   71070       6   71076   71073       7
   71082   71079       6   71085   71079       6   71085   71082       7   71091
   71088       6   71094   71088       6   71094   71091       7   71100   71097
       6   71103   71097       6   71103   71100       7   71109   71106       6
   71112   71106       6   71112   71109       7   71118   71115       6   71121
   71115       6   71121   71118       7   71127   71124       6   71130   71124
       6   71130   71127       7   71136   71133       6   71139   71133       6
   71139   71136       7   71145   71142       6   71148   71142       6   71148
   71145       7   71154   71151       6   71157   71151       6   71157   71154
       7   71163   71160       6   71166   71160       6   71166   71163       7
   71172   71169       6   71175   71169       6   71175   71172       7   71181
   71178       6   71184   71178       6   71184   71181       7   71190   71187
       6   71193   71187       6   71193   71190       7   71199   71196       6
   71202   71196       6   71202   71199       7   71208   71205       6   71211
   71205       6   71211   71208       7   71217   71214       6   71220   71214
       6   71220   71217       7   71226   71223       6   71229   71223       6
   71229   71226       7   71235   71232       6   71238   71232       6   71238
   71235       7   71244   71241       6   71247   71241       6   71247   71244
       7   71253   71250       6   71256   71250       6   71256   71253       7
   71262   71259       6   71265   71259       6   71265   71262       7   71271
   71268       6   71274   71268       6   71274   71271       7   71280   71277
       6   71283   71277       6   71283   71280       7   71289   71286       6
   71292   71286       6   71292   71289       7   71298   71295       6   71301
   71295       6   71301   71298       7   71307   71304       6   71310   71304
       6   71310   71307       7   71316   71313       6   71319   71313       6
   71319   71316       7   71325   71322       6   71328   71322       6   71328
   71325       7   71334   71331       6   71337   71331       6   71337   71334
       7   71343   71340       6   71346   71340       6   71346   71343       7
   71352   71349       6   71355   71349       6   71355   71352       7   71361
   71358       6   71364   71358       6   71364   71361       7   71370   71367
       6   71373   71367       6   71373   71370       7   71379   71376       6
   71382   71376       6   71382   71379       7   71388   71385       6   71391
   71385       6   71391   71388       7   71397   71394       6   71400   71394
       6   71400   71397       7   71406   71403       6   71409   71403       6
   71409   71406       7   71415   71412       6   71418   71412       6   71418
   71415       7   71424   71421       6   71427   71421       6   71427   71424
       7   71433   71430       6   71436   71430       6   71436   71433       7
   71442   71439       6   71445   71439       6   71445   71442       7   71451
   71448       6   71454   71448       6   71454   71451       7   71460   71457
       6   71463   71457       6   71463   71460       7   71469   71466       6
   71472   71466       6   71472   71469       7   71478   71475       6   71481
   71475       6   71481   71478       7   71487   71484       6   71490   71484
       6   71490   71487       7   71496   71493       6   71499   71493       6
   71499   71496       7   71505   71502       6   71508   71502       6   71508
   71505       7   71514   71511       6   71517   71511       6   71517   71514
       7   71523   71520       6   71526   71520       6   71526   71523       7
   71532   71529       6   71535   71529       6   71535   71532       7   71541
   71538       6   71544   71538       6   71544   71541       7   71550   71547
       6   71553   71547       6   71553   71550       7   71559   71556       6
   71562   71556       6   71562   71559       7   71568   71565       6   71571
   71565       6   71571   71568       7   71577   71574       6   71580   71574
       6   71580   71577       7   71586   71583       6   71589   71583       6
   71589   71586       7   71595   71592       6   71598   71592       6   71598
   71595       7   71604   71601       6   71607   71601       6   71607   71604
       7   71613   71610       6   71616   71610       6   71616   71613       7
   71622   71619       6   71625   71619       6   71625   71622       7   71631
   71628       6   71634   71628       6   71634   71631       7   71640   71637
       6   71643   71637       6   71643   71640       7   71649   71646       6
   71652   71646       6   71652   71649       7   71658   71655       6   71661
   71655       6   71661   71658       7   71667   71664       6   71670   71664
       6   71670   71667       7   71676   71673       6   71679   71673       6
   71679   71676       7   71685   71682       6   71688   71682       6   71688
   71685       7   71694   71691       6   71697   71691       6   71697   71694
       7   71703   71700       6   71706   71700       6   71706   71703       7
   71712   71709       6   71715   71709       6   71715   71712       7   71721
   71718       6   71724   71718       6   71724   71721       7   71730   71727
       6   71733   71727       6   71733   71730       7   71739   71736       6
   71742   71736       6   71742   71739       7   71748   71745       6   71751
   71745       6   71751   71748       7   71757   71754       6   71760   71754
       6   71760   71757       7   71766   71763       6   71769   71763       6
   71769   71766       7   71775   71772       6   71778   71772       6   71778
   71775       7   71784   71781       6   71787   71781       6   71787   71784
       7   71793   71790       6   71796   71790       6   71796   71793       7
   71802   71799       6   71805   71799       6   71805   71802       7   71811
   71808       6   71814   71808       6   71814   71811       7   71820   71817
       6   71823   71817       6   71823   71820       7   71829   71826       6
   71832   71826       6   71832   71829       7   71838   71835       6   71841
   71835       6   71841   71838       7   71847   71844       6   71850   71844
       6   71850   71847       7   71856   71853       6   71859   71853       6
   71859   71856       7   71865   71862       6   71868   71862       6   71868
   71865       7   71874   71871       6   71877   71871       6   71877   71874
       7   71883   71880       6   71886   71880       6   71886   71883       7
   71892   71889       6   71895   71889       6   71895   71892       7   71901
   71898       6   71904   71898       6   71904   71901       7   71910   71907
       6   71913   71907       6   71913   71910       7   71919   71916       6
   71922   71916       6   71922   71919       7   71928   71925       6   71931
   71925       6   71931   71928       7   71937   71934       6   71940   71934
       6   71940   71937       7   71946   71943       6   71949   71943       6
   71949   71946       7   71955   71952       6   71958   71952       6   71958
   71955       7   71964   71961       6   71967   71961       6   71967   71964
       7   71973   71970       6   71976   71970       6   71976   71973       7
   71982   71979       6   71985   71979       6   71985   71982       7   71991
   71988       6   71994   71988       6   71994   71991       7   72000   71997
       6   72003   71997       6   72003   72000       7   72009   72006       6
   72012   72006       6   72012   72009       7   72018   72015       6   72021
   72015       6   72021   72018       7   72027   72024       6   72030   72024
       6   72030   72027       7   72036   72033       6   72039   72033       6
   72039   72036       7   72045   72042       6   72048   72042       6   72048
   72045       7   72054   72051       6   72057   72051       6   72057   72054
       7   72063   72060       6   72066   72060       6   72066   72063       7
   72072   72069       6   72075   72069       6   72075   72072       7   72081
   72078       6   72084   72078       6   72084   72081       7   72090   72087
       6   72093   72087       6   72093   72090       7   72099   72096       6
   72102   72096       6   72102   72099       7   72108   72105       6   72111
   72105       6   72111   72108       7   72117   72114       6   72120   72114
       6   72120   72117       7   72126   72123       6   72129   72123       6
   72129   72126       7   72135   72132       6   72138   72132       6   72138
   72135       7   72144   72141       6   72147   72141       6   72147   72144
       7   72153   72150       6   72156   72150       6   72156   72153       7
   72162   72159       6   72165   72159       6   72165   72162       7   72171
   72168       6   72174   72168       6   72174   72171       7   72180   72177
       6   72183   72177       6   72183   72180       7   72189   72186       6
   72192   72186       6   72192   72189       7   72198   72195       6   72201
   72195       6   72201   72198       7   72207   72204       6   72210   72204
       6   72210   72207       7   72216   72213       6   72219   72213       6
   72219   72216       7   72225   72222       6   72228   72222       6   72228
   72225       7   72234   72231       6   72237   72231       6   72237   72234
       7   72243   72240       6   72246   72240       6   72246   72243       7
   72252   72249       6   72255   72249       6   72255   72252       7   72261
   72258       6   72264   72258       6   72264   72261       7   72270   72267
       6   72273   72267       6   72273   72270       7   72279   72276       6
   72282   72276       6   72282   72279       7   72288   72285       6   72291
   72285       6   72291   72288       7   72297   72294       6   72300   72294
       6   72300   72297       7   72306   72303       6   72309   72303       6
   72309   72306       7   72315   72312       6   72318   72312       6   72318
   72315       7   72324   72321       6   72327   72321       6   72327   72324
       7   72333   72330       6   72336   72330       6   72336   72333       7
   72342   72339       6   72345   72339       6   72345   72342       7   72351
   72348       6   72354   72348       6   72354   72351       7   72360   72357
       6   72363   72357       6   72363   72360       7   72369   72366       6
   72372   72366       6   72372   72369       7   72378   72375       6   72381
   72375       6   72381   72378       7   72387   72384       6   72390   72384
       6   72390   72387       7   72396   72393       6   72399   72393       6
   72399   72396       7   72405   72402       6   72408   72402       6   72408
   72405       7   72414   72411       6   72417   72411       6   72417   72414
       7   72423   72420       6   72426   72420       6   72426   72423       7
   72432   72429       6   72435   72429       6   72435   72432       7   72441
   72438       6   72444   72438       6   72444   72441       7   72450   72447
       6   72453   72447       6   72453   72450       7   72459   72456       6
   72462   72456       6   72462   72459       7   72468   72465       6   72471
   72465       6   72471   72468       7   72477   72474       6   72480   72474
       6   72480   72477       7   72486   72483       6   72489   72483       6
   72489   72486       7   72495   72492       6   72498   72492       6   72498
   72495       7   72504   72501       6   72507   72501       6   72507   72504
       7   72513   72510       6   72516   72510       6   72516   72513       7
   72522   72519       6   72525   72519       6   72525   72522       7   72531
   72528       6   72534   72528       6   72534   72531       7   72540   72537
       6   72543   72537       6   72543   72540       7   72549   72546       6
   72552   72546       6   72552   72549       7   72558   72555       6   72561
   72555       6   72561   72558       7   72567   72564       6   72570   72564
       6   72570   72567       7   72576   72573       6   72579   72573       6
   72579   72576       7   72585   72582       6   72588   72582       6   72588
   72585       7   72594   72591       6   72597   72591       6   72597   72594
       7   72603   72600       6   72606   72600       6   72606   72603       7
   72612   72609       6   72615   72609       6   72615   72612       7   72621
   72618       6   72624   72618       6   72624   72621       7   72630   72627
       6   72633   72627       6   72633   72630       7   72639   72636       6
   72642   72636       6   72642   72639       7   72648   72645       6   72651
   72645       6   72651   72648       7   72657   72654       6   72660   72654
       6   72660   72657       7   72666   72663       6   72669   72663       6
   72669   72666       7   72675   72672       6   72678   72672       6   72678
   72675       7   72684   72681       6   72687   72681       6   72687   72684
       7   72693   72690       6   72696   72690       6   72696   72693       7
   72702   72699       6   72705   72699       6   72705   72702       7   72711
   72708       6   72714   72708       6   72714   72711       7   72720   72717
       6   72723   72717       6   72723   72720       7   72729   72726       6
   72732   72726       6   72732   72729       7   72738   72735       6   72741
   72735       6   72741   72738       7   72747   72744       6   72750   72744
       6   72750   72747       7   72756   72753       6   72759   72753       6
   72759   72756       7   72765   72762       6   72768   72762       6   72768
   72765       7   72774   72771       6   72777   72771       6   72777   72774
       7   72783   72780       6   72786   72780       6   72786   72783       7
   72792   72789       6   72795   72789       6   72795   72792       7   72801
   72798       6   72804   72798       6   72804   72801       7   72810   72807
       6   72813   72807       6   72813   72810       7   72819   72816       6
   72822   72816       6   72822   72819       7   72828   72825       6   72831
   72825       6   72831   72828       7   72837   72834       6   72840   72834
       6   72840   72837       7   72846   72843       6   72849   72843       6
   72849   72846       7   72855   72852       6   72858   72852       6   72858
   72855       7   72864   72861       6   72867   72861       6   72867   72864
       7   72873   72870       6   72876   72870       6   72876   72873       7
   72882   72879       6   72885   72879       6   72885   72882       7   72891
   72888       6   72894   72888       6   72894   72891       7   72900   72897
       6   72903   72897       6   72903   72900       7   72909   72906       6
   72912   72906       6   72912   72909       7   72918   72915       6   72921
   72915       6   72921   72918       7   72927   72924       6   72930   72924
       6   72930   72927       7   72936   72933       6   72939   72933       6
   72939   72936       7   72945   72942       6   72948   72942       6   72948
   72945       7   72954   72951       6   72957   72951       6   72957   72954
       7   72963   72960       6   72966   72960       6   72966   72963       7
   72972   72969       6   72975   72969       6   72975   72972       7   72981
   72978       6   72984   72978       6   72984   72981       7   72990   72987
       6   72993   72987       6   72993   72990       7   72999   72996       6
   73002   72996       6   73002   72999       7   73008   73005       6   73011
   73005       6   73011   73008       7   73017   73014       6   73020   73014
       6   73020   73017       7   73026   73023       6   73029   73023       6
   73029   73026       7   73035   73032       6   73038   73032       6   73038
   73035       7   73044   73041       6   73047   73041       6   73047   73044
       7   73053   73050       6   73056   73050       6   73056   73053       7
   73062   73059       6   73065   73059       6   73065   73062       7   73071
   73068       6   73074   73068       6   73074   73071       7   73080   73077
       6   73083   73077       6   73083   73080       7   73089   73086       6
   73092   73086       6   73092   73089       7   73098   73095       6   73101
   73095       6   73101   73098       7   73107   73104       6   73110   73104
       6   73110   73107       7   73116   73113       6   73119   73113       6
   73119   73116       7   73125   73122       6   73128   73122       6   73128
   73125       7   73134   73131       6   73137   73131       6   73137   73134
       7   73143   73140       6   73146   73140       6   73146   73143       7
   73152   73149       6   73155   73149       6   73155   73152       7   73161
   73158       6   73164   73158       6   73164   73161       7   73170   73167
       6   73173   73167       6   73173   73170       7   73179   73176       6
   73182   73176       6   73182   73179       7   73188   73185       6   73191
   73185       6   73191   73188       7   73197   73194       6   73200   73194
       6   73200   73197       7   73206   73203       6   73209   73203       6
   73209   73206       7   73215   73212       6   73218   73212       6   73218
   73215       7   73224   73221       6   73227   73221       6   73227   73224
       7   73233   73230       6   73236   73230       6   73236   73233       7
   73242   73239       6   73245   73239       6   73245   73242       7   73251
   73248       6   73254   73248       6   73254   73251       7   73260   73257
       6   73263   73257       6   73263   73260       7   73269   73266       6
   73272   73266       6   73272   73269       7   73278   73275       6   73281
   73275       6   73281   73278       7   73287   73284       6   73290   73284
       6   73290   73287       7   73296   73293       6   73299   73293       6
   73299   73296       7   73305   73302       6   73308   73302       6   73308
   73305       7   73314   73311       6   73317   73311       6   73317   73314
       7   73323   73320       6   73326   73320       6   73326   73323       7
   73332   73329       6   73335   73329       6   73335   73332       7   73341
   73338       6   73344   73338       6   73344   73341       7   73350   73347
       6   73353   73347       6   73353   73350       7   73359   73356       6
   73362   73356       6   73362   73359       7   73368   73365       6   73371
   73365       6   73371   73368       7   73377   73374       6   73380   73374
       6   73380   73377       7   73386   73383       6   73389   73383       6
   73389   73386       7   73395   73392       6   73398   73392       6   73398
   73395       7   73404   73401       6   73407   73401       6   73407   73404
       7   73413   73410       6   73416   73410       6   73416   73413       7
   73422   73419       6   73425   73419       6   73425   73422       7   73431
   73428       6   73434   73428       6   73434   73431       7   73440   73437
       6   73443   73437       6   73443   73440       7   73449   73446       6
   73452   73446       6   73452   73449       7   73458   73455       6   73461
   73455       6   73461   73458       7   73467   73464       6   73470   73464
       6   73470   73467       7   73476   73473       6   73479   73473       6
   73479   73476       7   73485   73482       6   73488   73482       6   73488
   73485       7   73494   73491       6   73497   73491       6   73497   73494
       7   73503   73500       6   73506   73500       6   73506   73503       7
   73512   73509       6   73515   73509       6   73515   73512       7   73521
   73518       6   73524   73518       6   73524   73521       7   73530   73527
       6   73533   73527       6   73533   73530       7   73539   73536       6
   73542   73536       6   73542   73539       7   73548   73545       6   73551
   73545       6   73551   73548       7   73557   73554       6   73560   73554
       6   73560   73557       7   73566   73563       6   73569   73563       6
   73569   73566       7   73575   73572       6   73578   73572       6   73578
   73575       7   73584   73581       6   73587   73581       6   73587   73584
       7   73593   73590       6   73596   73590       6   73596   73593       7
   73602   73599       6   73605   73599       6   73605   73602       7   73611
   73608       6   73614   73608       6   73614   73611       7   73620   73617
       6   73623   73617       6   73623   73620       7   73629   73626       6
   73632   73626       6   73632   73629       7   73638   73635       6   73641
   73635       6   73641   73638       7   73647   73644       6   73650   73644
       6   73650   73647       7   73656   73653       6   73659   73653       6
   73659   73656       7   73665   73662       6   73668   73662       6   73668
   73665       7   73674   73671       6   73677   73671       6   73677   73674
       7   73683   73680       6   73686   73680       6   73686   73683       7
   73692   73689       6   73695   73689       6   73695   73692       7   73701
   73698       6   73704   73698       6   73704   73701       7   73710   73707
       6   73713   73707       6   73713   73710       7   73719   73716       6
   73722   73716       6   73722   73719       7   73728   73725       6   73731
   73725       6   73731   73728       7   73737   73734       6   73740   73734
       6   73740   73737       7   73746   73743       6   73749   73743       6
   73749   73746       7   73755   73752       6   73758   73752       6   73758
   73755       7   73764   73761       6   73767   73761       6   73767   73764
       7   73773   73770       6   73776   73770       6   73776   73773       7
   73782   73779       6   73785   73779       6   73785   73782       7   73791
   73788       6   73794   73788       6   73794   73791       7   73800   73797
       6   73803   73797       6   73803   73800       7   73809   73806       6
   73812   73806       6   73812   73809       7   73818   73815       6   73821
   73815       6   73821   73818       7   73827   73824       6   73830   73824
       6   73830   73827       7   73836   73833       6   73839   73833       6
   73839   73836       7   73845   73842       6   73848   73842       6   73848
   73845       7   73854   73851       6   73857   73851       6   73857   73854
       7   73863   73860       6   73866   73860       6   73866   73863       7
   73872   73869       6   73875   73869       6   73875   73872       7   73881
   73878       6   73884   73878       6   73884   73881       7   73890   73887
       6   73893   73887       6   73893   73890       7   73899   73896       6
   73902   73896       6   73902   73899       7   73908   73905       6   73911
   73905       6   73911   73908       7   73917   73914       6   73920   73914
       6   73920   73917       7   73926   73923       6   73929   73923       6
   73929   73926       7   73935   73932       6   73938   73932       6   73938
   73935       7   73944   73941       6   73947   73941       6   73947   73944
       7   73953   73950       6   73956   73950       6   73956   73953       7
   73962   73959       6   73965   73959       6   73965   73962       7   73971
   73968       6   73974   73968       6   73974   73971       7   73980   73977
       6   73983   73977       6   73983   73980       7   73989   73986       6
   73992   73986       6   73992   73989       7   73998   73995       6   74001
   73995       6   74001   73998       7   74007   74004       6   74010   74004
       6   74010   74007       7   74016   74013       6   74019   74013       6
   74019   74016       7   74025   74022       6   74028   74022       6   74028
   74025       7   74034   74031       6   74037   74031       6   74037   74034
       7   74043   74040       6   74046   74040       6   74046   74043       7
   74052   74049       6   74055   74049       6   74055   74052       7   74061
   74058       6   74064   74058       6   74064   74061       7   74070   74067
       6   74073   74067       6   74073   74070       7   74079   74076       6
   74082   74076       6   74082   74079       7   74088   74085       6   74091
   74085       6   74091   74088       7   74097   74094       6   74100   74094
       6   74100   74097       7   74106   74103       6   74109   74103       6
   74109   74106       7   74115   74112       6   74118   74112       6   74118
   74115       7   74124   74121       6   74127   74121       6   74127   74124
       7   74133   74130       6   74136   74130       6   74136   74133       7
   74142   74139       6   74145   74139       6   74145   74142       7   74151
   74148       6   74154   74148       6   74154   74151       7   74160   74157
       6   74163   74157       6   74163   74160       7   74169   74166       6
   74172   74166       6   74172   74169       7   74178   74175       6   74181
   74175       6   74181   74178       7   74187   74184       6   74190   74184
       6   74190   74187       7   74196   74193       6   74199   74193       6
   74199   74196       7   74205   74202       6   74208   74202       6   74208
   74205       7   74214   74211       6   74217   74211       6   74217   74214
       7   74223   74220       6   74226   74220       6   74226   74223       7
   74232   74229       6   74235   74229       6   74235   74232       7   74241
   74238       6   74244   74238       6   74244   74241       7   74250   74247
       6   74253   74247       6   74253   74250       7   74259   74256       6
   74262   74256       6   74262   74259       7   74268   74265       6   74271
   74265       6   74271   74268       7   74277   74274       6   74280   74274
       6   74280   74277       7   74286   74283       6   74289   74283       6
   74289   74286       7   74295   74292       6   74298   74292       6   74298
   74295       7   74304   74301       6   74307   74301       6   74307   74304
       7   74313   74310       6   74316   74310       6   74316   74313       7
   74322   74319       6   74325   74319       6   74325   74322       7   74331
   74328       6   74334   74328       6   74334   74331       7   74340   74337
       6   74343   74337       6   74343   74340       7   74349   74346       6
   74352   74346       6   74352   74349       7   74358   74355       6   74361
   74355       6   74361   74358       7   74367   74364       6   74370   74364
       6   74370   74367       7   74376   74373       6   74379   74373       6
   74379   74376       7   74385   74382       6   74388   74382       6   74388
   74385       7   74394   74391       6   74397   74391       6   74397   74394
       7   74403   74400       6   74406   74400       6   74406   74403       7
   74412   74409       6   74415   74409       6   74415   74412       7   74421
   74418       6   74424   74418       6   74424   74421       7   74430   74427
       6   74433   74427       6   74433   74430       7   74439   74436       6
   74442   74436       6   74442   74439       7   74448   74445       6   74451
   74445       6   74451   74448       7   74457   74454       6   74460   74454
       6   74460   74457       7   74466   74463       6   74469   74463       6
   74469   74466       7   74475   74472       6   74478   74472       6   74478
   74475       7   74484   74481       6   74487   74481       6   74487   74484
       7   74493   74490       6   74496   74490       6   74496   74493       7
   74502   74499       6   74505   74499       6   74505   74502       7   74511
   74508       6   74514   74508       6   74514   74511       7   74520   74517
       6   74523   74517       6   74523   74520       7   74529   74526       6
   74532   74526       6   74532   74529       7   74538   74535       6   74541
   74535       6   74541   74538       7   74547   74544       6   74550   74544
       6   74550   74547       7   74556   74553       6   74559   74553       6
   74559   74556       7   74565   74562       6   74568   74562       6   74568
   74565       7   74574   74571       6   74577   74571       6   74577   74574
       7   74583   74580       6   74586   74580       6   74586   74583       7
   74592   74589       6   74595   74589       6   74595   74592       7   74601
   74598       6   74604   74598       6   74604   74601       7   74610   74607
       6   74613   74607       6   74613   74610       7   74619   74616       6
   74622   74616       6   74622   74619       7   74628   74625       6   74631
   74625       6   74631   74628       7   74637   74634       6   74640   74634
       6   74640   74637       7   74646   74643       6   74649   74643       6
   74649   74646       7   74655   74652       6   74658   74652       6   74658
   74655       7   74664   74661       6   74667   74661       6   74667   74664
       7   74673   74670       6   74676   74670       6   74676   74673       7
   74682   74679       6   74685   74679       6   74685   74682       7   74691
   74688       6   74694   74688       6   74694   74691       7   74700   74697
       6   74703   74697       6   74703   74700       7   74709   74706       6
   74712   74706       6   74712   74709       7   74718   74715       6   74721
   74715       6   74721   74718       7   74727   74724       6   74730   74724
       6   74730   74727       7   74736   74733       6   74739   74733       6
   74739   74736       7   74745   74742       6   74748   74742       6   74748
   74745       7   74754   74751       6   74757   74751       6   74757   74754
       7   74763   74760       6   74766   74760       6   74766   74763       7
   74772   74769       6   74775   74769       6   74775   74772       7   74781
   74778       6   74784   74778       6   74784   74781       7   74790   74787
       6   74793   74787       6   74793   74790       7   74799   74796       6
   74802   74796       6   74802   74799       7   74808   74805       6   74811
   74805       6   74811   74808       7   74817   74814       6   74820   74814
       6   74820   74817       7   74826   74823       6   74829   74823       6
   74829   74826       7   74835   74832       6   74838   74832       6   74838
   74835       7   74844   74841       6   74847   74841       6   74847   74844
       7   74853   74850       6   74856   74850       6   74856   74853       7
   74862   74859       6   74865   74859       6   74865   74862       7   74871
   74868       6   74874   74868       6   74874   74871       7   74880   74877
       6   74883   74877       6   74883   74880       7   74889   74886       6
   74892   74886       6   74892   74889       7   74898   74895       6   74901
   74895       6   74901   74898       7   74907   74904       6   74910   74904
       6   74910   74907       7   74916   74913       6   74919   74913       6
   74919   74916       7   74925   74922       6   74928   74922       6   74928
   74925       7   74934   74931       6   74937   74931       6   74937   74934
       7   74943   74940       6   74946   74940       6   74946   74943       7
   74952   74949       6   74955   74949       6   74955   74952       7   74961
   74958       6   74964   74958       6   74964   74961       7   74970   74967
       6   74973   74967       6   74973   74970       7   74979   74976       6
   74982   74976       6   74982   74979       7   74988   74985       6   74991
   74985       6   74991   74988       7   74997   74994       6   75000   74994
       6   75000   74997       7   75006   75003       6   75009   75003       6
   75009   75006       7   75015   75012       6   75018   75012       6   75018
   75015       7   75024   75021       6   75027   75021       6   75027   75024
       7   75033   75030       6   75036   75030       6   75036   75033       7
   75042   75039       6   75045   75039       6   75045   75042       7   75051
   75048       6   75054   75048       6   75054   75051       7   75060   75057
       6   75063   75057       6   75063   75060       7   75069   75066       6
   75072   75066       6   75072   75069       7   75078   75075       6   75081
   75075       6   75081   75078       7   75087   75084       6   75090   75084
       6   75090   75087       7   75096   75093       6   75099   75093       6
   75099   75096       7   75105   75102       6   75108   75102       6   75108
   75105       7   75114   75111       6   75117   75111       6   75117   75114
       7   75123   75120       6   75126   75120       6   75126   75123       7
   75132   75129       6   75135   75129       6   75135   75132       7   75141
   75138       6   75144   75138       6   75144   75141       7   75150   75147
       6   75153   75147       6   75153   75150       7   75159   75156       6
   75162   75156       6   75162   75159       7   75168   75165       6   75171
   75165       6   75171   75168       7   75177   75174       6   75180   75174
       6   75180   75177       7   75186   75183       6   75189   75183       6
   75189   75186       7   75195   75192       6   75198   75192       6   75198
   75195       7   75204   75201       6   75207   75201       6   75207   75204
       7   75213   75210       6   75216   75210       6   75216   75213       7
   75222   75219       6   75225   75219       6   75225   75222       7   75231
   75228       6   75234   75228       6   75234   75231       7   75240   75237
       6   75243   75237       6   75243   75240       7   75249   75246       6
   75252   75246       6   75252   75249       7   75258   75255       6   75261
   75255       6   75261   75258       7   75267   75264       6   75270   75264
       6   75270   75267       7   75276   75273       6   75279   75273       6
   75279   75276       7   75285   75282       6   75288   75282       6   75288
   75285       7   75294   75291       6   75297   75291       6   75297   75294
       7   75303   75300       6   75306   75300       6   75306   75303       7
   75312   75309       6   75315   75309       6   75315   75312       7   75321
   75318       6   75324   75318       6   75324   75321       7   75330   75327
       6   75333   75327       6   75333   75330       7   75339   75336       6
   75342   75336       6   75342   75339       7   75348   75345       6   75351
   75345       6   75351   75348       7   75357   75354       6   75360   75354
       6   75360   75357       7   75366   75363       6   75369   75363       6
   75369   75366       7   75375   75372       6   75378   75372       6   75378
   75375       7   75384   75381       6   75387   75381       6   75387   75384
       7   75393   75390       6   75396   75390       6   75396   75393       7
   75402   75399       6   75405   75399       6   75405   75402       7   75411
   75408       6   75414   75408       6   75414   75411       7   75420   75417
       6   75423   75417       6   75423   75420       7   75429   75426       6
   75432   75426       6   75432   75429       7   75438   75435       6   75441
   75435       6   75441   75438       7   75447   75444       6   75450   75444
       6   75450   75447       7   75456   75453       6   75459   75453       6
   75459   75456       7   75465   75462       6   75468   75462       6   75468
   75465       7   75474   75471       6   75477   75471       6   75477   75474
       7   75483   75480       6   75486   75480       6   75486   75483       7
   75492   75489       6   75495   75489       6   75495   75492       7   75501
   75498       6   75504   75498       6   75504   75501       7   75510   75507
       6   75513   75507       6   75513   75510       7   75519   75516       6
   75522   75516       6   75522   75519       7   75528   75525       6   75531
   75525       6   75531   75528       7   75537   75534       6   75540   75534
       6   75540   75537       7   75546   75543       6   75549   75543       6
   75549   75546       7   75555   75552       6   75558   75552       6   75558
   75555       7   75564   75561       6   75567   75561       6   75567   75564
       7   75573   75570       6   75576   75570       6   75576   75573       7
   75582   75579       6   75585   75579       6   75585   75582       7   75591
   75588       6   75594   75588       6   75594   75591       7   75600   75597
       6   75603   75597       6   75603   75600       7   75609   75606       6
   75612   75606       6   75612   75609       7   75618   75615       6   75621
   75615       6   75621   75618       7   75627   75624       6   75630   75624
       6   75630   75627       7   75636   75633       6   75639   75633       6
   75639   75636       7   75645   75642       6   75648   75642       6   75648
   75645       7   75654   75651       6   75657   75651       6   75657   75654
       7   75663   75660       6   75666   75660       6   75666   75663       7
   75672   75669       6   75675   75669       6   75675   75672       7   75681
   75678       6   75684   75678       6   75684   75681       7   75690   75687
       6   75693   75687       6   75693   75690       7   75699   75696       6
   75702   75696       6   75702   75699       7   75708   75705       6   75711
   75705       6   75711   75708       7   75717   75714       6   75720   75714
       6   75720   75717       7   75726   75723       6   75729   75723       6
   75729   75726       7   75735   75732       6   75738   75732       6   75738
   75735       7   75744   75741       6   75747   75741       6   75747   75744
       7   75753   75750       6   75756   75750       6   75756   75753       7
   75762   75759       6   75765   75759       6   75765   75762       7   75771
   75768       6   75774   75768       6   75774   75771       7   75780   75777
       6   75783   75777       6   75783   75780       7   75789   75786       6
   75792   75786       6   75792   75789       7   75798   75795       6   75801
   75795       6   75801   75798       7   75807   75804       6   75810   75804
       6   75810   75807       7   75816   75813       6   75819   75813       6
   75819   75816       7   75825   75822       6   75828   75822       6   75828
   75825       7   75834   75831       6   75837   75831       6   75837   75834
       7   75843   75840       6   75846   75840       6   75846   75843       7
   75852   75849       6   75855   75849       6   75855   75852       7   75861
   75858       6   75864   75858       6   75864   75861       7   75870   75867
       6   75873   75867       6   75873   75870       7   75879   75876       6
   75882   75876       6   75882   75879       7   75888   75885       6   75891
   75885       6   75891   75888       7   75897   75894       6   75900   75894
       6   75900   75897       7   75906   75903       6   75909   75903       6
   75909   75906       7   75915   75912       6   75918   75912       6   75918
   75915       7   75924   75921       6   75927   75921       6   75927   75924
       7   75933   75930       6   75936   75930       6   75936   75933       7
   75942   75939       6   75945   75939       6   75945   75942       7   75951
   75948       6   75954   75948       6   75954   75951       7   75960   75957
       6   75963   75957       6   75963   75960       7   75969   75966       6
   75972   75966       6   75972   75969       7   75978   75975       6   75981
   75975       6   75981   75978       7   75987   75984       6   75990   75984
       6   75990   75987       7   75996   75993       6   75999   75993       6
   75999   75996       7   76005   76002       6   76008   76002       6   76008
   76005       7   76014   76011       6   76017   76011       6   76017   76014
       7   76023   76020       6   76026   76020       6   76026   76023       7
   76032   76029       6   76035   76029       6   76035   76032       7   76041
   76038       6   76044   76038       6   76044   76041       7   76050   76047
       6   76053   76047       6   76053   76050       7   76059   76056       6
   76062   76056       6   76062   76059       7   76068   76065       6   76071
   76065       6   76071   76068       7   76077   76074       6   76080   76074
       6   76080   76077       7   76086   76083       6   76089   76083       6
   76089   76086       7   76095   76092       6   76098   76092       6   76098
   76095       7   76104   76101       6   76107   76101       6   76107   76104
       7   76113   76110       6   76116   76110       6   76116   76113       7
   76122   76119       6   76125   76119       6   76125   76122       7   76131
   76128       6   76134   76128       6   76134   76131       7   76140   76137
       6   76143   76137       6   76143   76140       7   76149   76146       6
   76152   76146       6   76152   76149       7   76158   76155       6   76161
   76155       6   76161   76158       7   76167   76164       6   76170   76164
       6   76170   76167       7   76176   76173       6   76179   76173       6
   76179   76176       7   76185   76182       6   76188   76182       6   76188
   76185       7   76194   76191       6   76197   76191       6   76197   76194
       7   76203   76200       6   76206   76200       6   76206   76203       7
   76212   76209       6   76215   76209       6   76215   76212       7   76221
   76218       6   76224   76218       6   76224   76221       7   76230   76227
       6   76233   76227       6   76233   76230       7   76239   76236       6
   76242   76236       6   76242   76239       7   76248   76245       6   76251
   76245       6   76251   76248       7   76257   76254       6   76260   76254
       6   76260   76257       7   76266   76263       6   76269   76263       6
   76269   76266       7   76275   76272       6   76278   76272       6   76278
   76275       7   76284   76281       6   76287   76281       6   76287   76284
       7   76293   76290       6   76296   76290       6   76296   76293       7
   76302   76299       6   76305   76299       6   76305   76302       7   76311
   76308       6   76314   76308       6   76314   76311       7   76320   76317
       6   76323   76317       6   76323   76320       7   76329   76326       6
   76332   76326       6   76332   76329       7   76338   76335       6   76341
   76335       6   76341   76338       7   76347   76344       6   76350   76344
       6   76350   76347       7   76356   76353       6   76359   76353       6
   76359   76356       7   76365   76362       6   76368   76362       6   76368
   76365       7   76374   76371       6   76377   76371       6   76377   76374
       7   76383   76380       6   76386   76380       6   76386   76383       7
   76392   76389       6   76395   76389       6   76395   76392       7   76401
   76398       6   76404   76398       6   76404   76401       7   76410   76407
       6   76413   76407       6   76413   76410       7   76419   76416       6
   76422   76416       6   76422   76419       7   76428   76425       6   76431
   76425       6   76431   76428       7   76437   76434       6   76440   76434
       6   76440   76437       7   76446   76443       6   76449   76443       6
   76449   76446       7   76455   76452       6   76458   76452       6   76458
   76455       7   76464   76461       6   76467   76461       6   76467   76464
       7   76473   76470       6   76476   76470       6   76476   76473       7
   76482   76479       6   76485   76479       6   76485   76482       7   76491
   76488       6   76494   76488       6   76494   76491       7   76500   76497
       6   76503   76497       6   76503   76500       7   76509   76506       6
   76512   76506       6   76512   76509       7   76518   76515       6   76521
   76515       6   76521   76518       7   76527   76524       6   76530   76524
       6   76530   76527       7   76536   76533       6   76539   76533       6
   76539   76536       7   76545   76542       6   76548   76542       6   76548
   76545       7   76554   76551       6   76557   76551       6   76557   76554
       7   76563   76560       6   76566   76560       6   76566   76563       7
   76572   76569       6   76575   76569       6   76575   76572       7   76581
   76578       6   76584   76578       6   76584   76581       7   76590   76587
       6   76593   76587       6   76593   76590       7   76599   76596       6
   76602   76596       6   76602   76599       7   76608   76605       6   76611
   76605       6   76611   76608       7   76617   76614       6   76620   76614
       6   76620   76617       7   76626   76623       6   76629   76623       6
   76629   76626       7   76635   76632       6   76638   76632       6   76638
   76635       7   76644   76641       6   76647   76641       6   76647   76644
       7   76653   76650       6   76656   76650       6   76656   76653       7
   76662   76659       6   76665   76659       6   76665   76662       7   76671
   76668       6   76674   76668       6   76674   76671       7   76680   76677
       6   76683   76677       6   76683   76680       7   76689   76686       6
   76692   76686       6   76692   76689       7   76698   76695       6   76701
   76695       6   76701   76698       7   76707   76704       6   76710   76704
       6   76710   76707       7   76716   76713       6   76719   76713       6
   76719   76716       7   76725   76722       6   76728   76722       6   76728
   76725       7   76734   76731       6   76737   76731       6   76737   76734
       7   76743   76740       6   76746   76740       6   76746   76743       7
   76752   76749       6   76755   76749       6   76755   76752       7   76761
   76758       6   76764   76758       6   76764   76761       7   76770   76767
       6   76773   76767       6   76773   76770       7   76779   76776       6
   76782   76776       6   76782   76779       7   76788   76785       6   76791
   76785       6   76791   76788       7   76797   76794       6   76800   76794
       6   76800   76797       7   76806   76803       6   76809   76803       6
   76809   76806       7   76815   76812       6   76818   76812       6   76818
   76815       7   76824   76821       6   76827   76821       6   76827   76824
       7   76833   76830       6   76836   76830       6   76836   76833       7
   76842   76839       6   76845   76839       6   76845   76842       7   76851
   76848       6   76854   76848       6   76854   76851       7   76860   76857
       6   76863   76857       6   76863   76860       7   76869   76866       6
   76872   76866       6   76872   76869       7   76878   76875       6   76881
   76875       6   76881   76878       7   76887   76884       6   76890   76884
       6   76890   76887       7   76896   76893       6   76899   76893       6
   76899   76896       7   76905   76902       6   76908   76902       6   76908
   76905       7   76914   76911       6   76917   76911       6   76917   76914
       7   76923   76920       6   76926   76920       6   76926   76923       7
   76932   76929       6   76935   76929       6   76935   76932       7   76941
   76938       6   76944   76938       6   76944   76941       7   76950   76947
       6   76953   76947       6   76953   76950       7   76959   76956       6
   76962   76956       6   76962   76959       7   76968   76965       6   76971
   76965       6   76971   76968       7   76977   76974       6   76980   76974
       6   76980   76977       7   76986   76983       6   76989   76983       6
   76989   76986       7   76995   76992       6   76998   76992       6   76998
   76995       7   77004   77001       6   77007   77001       6   77007   77004
       7   77013   77010       6   77016   77010       6   77016   77013       7
   77022   77019       6   77025   77019       6   77025   77022       7   77031
   77028       6   77034   77028       6   77034   77031       7   77040   77037
       6   77043   77037       6   77043   77040       7   77049   77046       6
   77052   77046       6   77052   77049       7   77058   77055       6   77061
   77055       6   77061   77058       7   77067   77064       6   77070   77064
       6   77070   77067       7   77076   77073       6   77079   77073       6
   77079   77076       7   77085   77082       6   77088   77082       6   77088
   77085       7   77094   77091       6   77097   77091       6   77097   77094
       7   77103   77100       6   77106   77100       6   77106   77103       7
   77112   77109       6   77115   77109       6   77115   77112       7   77121
   77118       6   77124   77118       6   77124   77121       7   77130   77127
       6   77133   77127       6   77133   77130       7   77139   77136       6
   77142   77136       6   77142   77139       7   77148   77145       6   77151
   77145       6   77151   77148       7   77157   77154       6   77160   77154
       6   77160   77157       7   77166   77163       6   77169   77163       6
   77169   77166       7   77175   77172       6   77178   77172       6   77178
   77175       7   77184   77181       6   77187   77181       6   77187   77184
       7   77193   77190       6   77196   77190       6   77196   77193       7
   77202   77199       6   77205   77199       6   77205   77202       7   77211
   77208       6   77214   77208       6   77214   77211       7   77220   77217
       6   77223   77217       6   77223   77220       7   77229   77226       6
   77232   77226       6   77232   77229       7   77238   77235       6   77241
   77235       6   77241   77238       7   77247   77244       6   77250   77244
       6   77250   77247       7   77256   77253       6   77259   77253       6
   77259   77256       7   77265   77262       6   77268   77262       6   77268
   77265       7   77274   77271       6   77277   77271       6   77277   77274
       7   77283   77280       6   77286   77280       6   77286   77283       7
   77292   77289       6   77295   77289       6   77295   77292       7   77301
   77298       6   77304   77298       6   77304   77301       7   77310   77307
       6   77313   77307       6   77313   77310       7   77319   77316       6
   77322   77316       6   77322   77319       7   77328   77325       6   77331
   77325       6   77331   77328       7   77337   77334       6   77340   77334
       6   77340   77337       7   77346   77343       6   77349   77343       6
   77349   77346       7   77355   77352       6   77358   77352       6   77358
   77355       7   77364   77361       6   77367   77361       6   77367   77364
       7   77373   77370       6   77376   77370       6   77376   77373       7
   77382   77379       6   77385   77379       6   77385   77382       7   77391
   77388       6   77394   77388       6   77394   77391       7   77400   77397
       6   77403   77397       6   77403   77400       7   77409   77406       6
   77412   77406       6   77412   77409       7   77418   77415       6   77421
   77415       6   77421   77418       7   77427   77424       6   77430   77424
       6   77430   77427       7   77436   77433       6   77439   77433       6
   77439   77436       7   77445   77442       6   77448   77442       6   77448
   77445       7   77454   77451       6   77457   77451       6   77457   77454
       7   77463   77460       6   77466   77460       6   77466   77463       7
   77472   77469       6   77475   77469       6   77475   77472       7   77481
   77478       6   77484   77478       6   77484   77481       7   77490   77487
       6   77493   77487       6   77493   77490       7   77499   77496       6
   77502   77496       6   77502   77499       7   77508   77505       6   77511
   77505       6   77511   77508       7   77517   77514       6   77520   77514
       6   77520   77517       7   77526   77523       6   77529   77523       6
   77529   77526       7   77535   77532       6   77538   77532       6   77538
   77535       7   77544   77541       6   77547   77541       6   77547   77544
       7   77553   77550       6   77556   77550       6   77556   77553       7
   77562   77559       6   77565   77559       6   77565   77562       7   77571
   77568       6   77574   77568       6   77574   77571       7   77580   77577
       6   77583   77577       6   77583   77580       7   77589   77586       6
   77592   77586       6   77592   77589       7   77598   77595       6   77601
   77595       6   77601   77598       7   77607   77604       6   77610   77604
       6   77610   77607       7   77616   77613       6   77619   77613       6
   77619   77616       7   77625   77622       6   77628   77622       6   77628
   77625       7   77634   77631       6   77637   77631       6   77637   77634
       7   77643   77640       6   77646   77640       6   77646   77643       7
   77652   77649       6   77655   77649       6   77655   77652       7   77661
   77658       6   77664   77658       6   77664   77661       7   77670   77667
       6   77673   77667       6   77673   77670       7   77679   77676       6
   77682   77676       6   77682   77679       7   77688   77685       6   77691
   77685       6   77691   77688       7   77697   77694       6   77700   77694
       6   77700   77697       7   77706   77703       6   77709   77703       6
   77709   77706       7   77715   77712       6   77718   77712       6   77718
   77715       7   77724   77721       6   77727   77721       6   77727   77724
       7   77733   77730       6   77736   77730       6   77736   77733       7
   77742   77739       6   77745   77739       6   77745   77742       7   77751
   77748       6   77754   77748       6   77754   77751       7   77760   77757
       6   77763   77757       6   77763   77760       7   77769   77766       6
   77772   77766       6   77772   77769       7   77778   77775       6   77781
   77775       6   77781   77778       7   77787   77784       6   77790   77784
       6   77790   77787       7   77796   77793       6   77799   77793       6
   77799   77796       7   77805   77802       6   77808   77802       6   77808
   77805       7   77814   77811       6   77817   77811       6   77817   77814
       7   77823   77820       6   77826   77820       6   77826   77823       7
   77832   77829       6   77835   77829       6   77835   77832       7   77841
   77838       6   77844   77838       6   77844   77841       7   77850   77847
       6   77853   77847       6   77853   77850       7   77859   77856       6
   77862   77856       6   77862   77859       7   77868   77865       6   77871
   77865       6   77871   77868       7   77877   77874       6   77880   77874
       6   77880   77877       7   77886   77883       6   77889   77883       6
   77889   77886       7   77895   77892       6   77898   77892       6   77898
   77895       7   77904   77901       6   77907   77901       6   77907   77904
       7   77913   77910       6   77916   77910       6   77916   77913       7
   77922   77919       6   77925   77919       6   77925   77922       7   77931
   77928       6   77934   77928       6   77934   77931       7   77940   77937
       6   77943   77937       6   77943   77940       7   77949   77946       6
   77952   77946       6   77952   77949       7   77958   77955       6   77961
   77955       6   77961   77958       7   77967   77964       6   77970   77964
       6   77970   77967       7   77976   77973       6   77979   77973       6
   77979   77976       7   77985   77982       6   77988   77982       6   77988
   77985       7   77994   77991       6   77997   77991       6   77997   77994
       7   78003   78000       6   78006   78000       6   78006   78003       7
   78012   78009       6   78015   78009       6   78015   78012       7   78021
   78018       6   78024   78018       6   78024   78021       7   78030   78027
       6   78033   78027       6   78033   78030       7   78039   78036       6
   78042   78036       6   78042   78039       7   78048   78045       6   78051
   78045       6   78051   78048       7   78057   78054       6   78060   78054
       6   78060   78057       7   78066   78063       6   78069   78063       6
   78069   78066       7   78075   78072       6   78078   78072       6   78078
   78075       7   78084   78081       6   78087   78081       6   78087   78084
       7   78093   78090       6   78096   78090       6   78096   78093       7
   78102   78099       6   78105   78099       6   78105   78102       7   78111
   78108       6   78114   78108       6   78114   78111       7   78120   78117
       6   78123   78117       6   78123   78120       7   78129   78126       6
   78132   78126       6   78132   78129       7   78138   78135       6   78141
   78135       6   78141   78138       7   78147   78144       6   78150   78144
       6   78150   78147       7   78156   78153       6   78159   78153       6
   78159   78156       7   78165   78162       6   78168   78162       6   78168
   78165       7   78174   78171       6   78177   78171       6   78177   78174
       7   78183   78180       6   78186   78180       6   78186   78183       7
   78192   78189       6   78195   78189       6   78195   78192       7   78201
   78198       6   78204   78198       6   78204   78201       7   78210   78207
       6   78213   78207       6   78213   78210       7   78219   78216       6
   78222   78216       6   78222   78219       7   78228   78225       6   78231
   78225       6   78231   78228       7   78237   78234       6   78240   78234
       6   78240   78237       7   78246   78243       6   78249   78243       6
   78249   78246       7   78255   78252       6   78258   78252       6   78258
   78255       7   78264   78261       6   78267   78261       6   78267   78264
       7   78273   78270       6   78276   78270       6   78276   78273       7
   78282   78279       6   78285   78279       6   78285   78282       7   78291
   78288       6   78294   78288       6   78294   78291       7   78300   78297
       6   78303   78297       6   78303   78300       7   78309   78306       6
   78312   78306       6   78312   78309       7   78318   78315       6   78321
   78315       6   78321   78318       7   78327   78324       6   78330   78324
       6   78330   78327       7   78336   78333       6   78339   78333       6
   78339   78336       7   78345   78342       6   78348   78342       6   78348
   78345       7   78354   78351       6   78357   78351       6   78357   78354
       7   78363   78360       6   78366   78360       6   78366   78363       7
   78372   78369       6   78375   78369       6   78375   78372       7   78381
   78378       6   78384   78378       6   78384   78381       7   78390   78387
       6   78393   78387       6   78393   78390       7   78399   78396       6
   78402   78396       6   78402   78399       7   78408   78405       6   78411
   78405       6   78411   78408       7   78417   78414       6   78420   78414
       6   78420   78417       7   78426   78423       6   78429   78423       6
   78429   78426       7   78435   78432       6   78438   78432       6   78438
   78435       7   78444   78441       6   78447   78441       6   78447   78444
       7   78453   78450       6   78456   78450       6   78456   78453       7
   78462   78459       6   78465   78459       6   78465   78462       7   78471
   78468       6   78474   78468       6   78474   78471       7   78480   78477
       6   78483   78477       6   78483   78480       7   78489   78486       6
   78492   78486       6   78492   78489       7   78498   78495       6   78501
   78495       6   78501   78498       7   78507   78504       6   78510   78504
       6   78510   78507       7   78516   78513       6   78519   78513       6
   78519   78516       7   78525   78522       6   78528   78522       6   78528
   78525       7   78534   78531       6   78537   78531       6   78537   78534
       7   78543   78540       6   78546   78540       6   78546   78543       7
   78552   78549       6   78555   78549       6   78555   78552       7   78561
   78558       6   78564   78558       6   78564   78561       7   78570   78567
       6   78573   78567       6   78573   78570       7   78579   78576       6
   78582   78576       6   78582   78579       7   78588   78585       6   78591
   78585       6   78591   78588       7   78597   78594       6   78600   78594
       6   78600   78597       7   78606   78603       6   78609   78603       6
   78609   78606       7   78615   78612       6   78618   78612       6   78618
   78615       7   78624   78621       6   78627   78621       6   78627   78624
       7   78633   78630       6   78636   78630       6   78636   78633       7
   78642   78639       6   78645   78639       6   78645   78642       7   78651
   78648       6   78654   78648       6   78654   78651       7   78660   78657
       6   78663   78657       6   78663   78660       7   78669   78666       6
   78672   78666       6   78672   78669       7   78678   78675       6   78681
   78675       6   78681   78678       7   78687   78684       6   78690   78684
       6   78690   78687       7   78696   78693       6   78699   78693       6
   78699   78696       7   78705   78702       6   78708   78702       6   78708
   78705       7   78714   78711       6   78717   78711       6   78717   78714
       7   78723   78720       6   78726   78720       6   78726   78723       7
   78732   78729       6   78735   78729       6   78735   78732       7   78741
   78738       6   78744   78738       6   78744   78741       7   78750   78747
       6   78753   78747       6   78753   78750       7   78759   78756       6
   78762   78756       6   78762   78759       7   78768   78765       6   78771
   78765       6   78771   78768       7   78777   78774       6   78780   78774
       6   78780   78777       7   78786   78783       6   78789   78783       6
   78789   78786       7   78795   78792       6   78798   78792       6   78798
   78795       7   78804   78801       6   78807   78801       6   78807   78804
       7   78813   78810       6   78816   78810       6   78816   78813       7
   78822   78819       6   78825   78819       6   78825   78822       7   78831
   78828       6   78834   78828       6   78834   78831       7   78840   78837
       6   78843   78837       6   78843   78840       7   78849   78846       6
   78852   78846       6   78852   78849       7   78858   78855       6   78861
   78855       6   78861   78858       7   78867   78864       6   78870   78864
       6   78870   78867       7   78876   78873       6   78879   78873       6
   78879   78876       7   78885   78882       6   78888   78882       6   78888
   78885       7   78894   78891       6   78897   78891       6   78897   78894
       7   78903   78900       6   78906   78900       6   78906   78903       7
   78912   78909       6   78915   78909       6   78915   78912       7   78921
   78918       6   78924   78918       6   78924   78921       7   78930   78927
       6   78933   78927       6   78933   78930       7   78939   78936       6
   78942   78936       6   78942   78939       7   78948   78945       6   78951
   78945       6   78951   78948       7   78957   78954       6   78960   78954
       6   78960   78957       7   78966   78963       6   78969   78963       6
   78969   78966       7   78975   78972       6   78978   78972       6   78978
   78975       7   78984   78981       6   78987   78981       6   78987   78984
       7   78993   78990       6   78996   78990       6   78996   78993       7
   79002   78999       6   79005   78999       6   79005   79002       7   79011
   79008       6   79014   79008       6   79014   79011       7   79020   79017
       6   79023   79017       6   79023   79020       7   79029   79026       6
   79032   79026       6   79032   79029       7   79038   79035       6   79041
   79035       6   79041   79038       7   79047   79044       6   79050   79044
       6   79050   79047       7   79056   79053       6   79059   79053       6
   79059   79056       7   79065   79062       6   79068   79062       6   79068
   79065       7   79074   79071       6   79077   79071       6   79077   79074
       7   79083   79080       6   79086   79080       6   79086   79083       7
   79092   79089       6   79095   79089       6   79095   79092       7   79101
   79098       6   79104   79098       6   79104   79101       7   79110   79107
       6   79113   79107       6   79113   79110       7   79119   79116       6
   79122   79116       6   79122   79119       7   79128   79125       6   79131
   79125       6   79131   79128       7   79137   79134       6   79140   79134
       6   79140   79137       7   79146   79143       6   79149   79143       6
   79149   79146       7   79155   79152       6   79158   79152       6   79158
   79155       7   79164   79161       6   79167   79161       6   79167   79164
       7   79173   79170       6   79176   79170       6   79176   79173       7
   79182   79179       6   79185   79179       6   79185   79182       7   79191
   79188       6   79194   79188       6   79194   79191       7   79200   79197
       6   79203   79197       6   79203   79200       7   79209   79206       6
   79212   79206       6   79212   79209       7   79218   79215       6   79221
   79215       6   79221   79218       7   79227   79224       6   79230   79224
       6   79230   79227       7   79236   79233       6   79239   79233       6
   79239   79236       7   79245   79242       6   79248   79242       6   79248
   79245       7   79254   79251       6   79257   79251       6   79257   79254
       7   79263   79260       6   79266   79260       6   79266   79263       7
   79272   79269       6   79275   79269       6   79275   79272       7   79281
   79278       6   79284   79278       6   79284   79281       7   79290   79287
       6   79293   79287       6   79293   79290       7   79299   79296       6
   79302   79296       6   79302   79299       7   79308   79305       6   79311
   79305       6   79311   79308       7   79317   79314       6   79320   79314
       6   79320   79317       7   79326   79323       6   79329   79323       6
   79329   79326       7   79335   79332       6   79338   79332       6   79338
   79335       7   79344   79341       6   79347   79341       6   79347   79344
       7   79353   79350       6   79356   79350       6   79356   79353       7
   79362   79359       6   79365   79359       6   79365   79362       7   79371
   79368       6   79374   79368       6   79374   79371       7   79380   79377
       6   79383   79377       6   79383   79380       7   79389   79386       6
   79392   79386       6   79392   79389       7   79398   79395       6   79401
   79395       6   79401   79398       7   79407   79404       6   79410   79404
       6   79410   79407       7   79416   79413       6   79419   79413       6
   79419   79416       7   79425   79422       6   79428   79422       6   79428
   79425       7   79434   79431       6   79437   79431       6   79437   79434
       7   79443   79440       6   79446   79440       6   79446   79443       7
   79452   79449       6   79455   79449       6   79455   79452       7   79461
   79458       6   79464   79458       6   79464   79461       7   79470   79467
       6   79473   79467       6   79473   79470       7   79479   79476       6
   79482   79476       6   79482   79479       7   79488   79485       6   79491
   79485       6   79491   79488       7   79497   79494       6   79500   79494
       6   79500   79497       7   79506   79503       6   79509   79503       6
   79509   79506       7   79515   79512       6   79518   79512       6   79518
   79515       7   79524   79521       6   79527   79521       6   79527   79524
       7   79533   79530       6   79536   79530       6   79536   79533       7
   79542   79539       6   79545   79539       6   79545   79542       7   79551
   79548       6   79554   79548       6   79554   79551       7   79560   79557
       6   79563   79557       6   79563   79560       7   79569   79566       6
   79572   79566       6   79572   79569       7   79578   79575       6   79581
   79575       6   79581   79578       7   79587   79584       6   79590   79584
       6   79590   79587       7   79596   79593       6   79599   79593       6
   79599   79596       7   79605   79602       6   79608   79602       6   79608
   79605       7   79614   79611       6   79617   79611       6   79617   79614
       7   79623   79620       6   79626   79620       6   79626   79623       7
   79632   79629       6   79635   79629       6   79635   79632       7   79641
   79638       6   79644   79638       6   79644   79641       7   79650   79647
       6   79653   79647       6   79653   79650       7   79659   79656       6
   79662   79656       6   79662   79659       7   79668   79665       6   79671
   79665       6   79671   79668       7   79677   79674       6   79680   79674
       6   79680   79677       7   79686   79683       6   79689   79683       6
   79689   79686       7   79695   79692       6   79698   79692       6   79698
   79695       7   79704   79701       6   79707   79701       6   79707   79704
       7   79713   79710       6   79716   79710       6   79716   79713       7
   79722   79719       6   79725   79719       6   79725   79722       7   79731
   79728       6   79734   79728       6   79734   79731       7   79740   79737
       6   79743   79737       6   79743   79740       7   79749   79746       6
   79752   79746       6   79752   79749       7   79758   79755       6   79761
   79755       6   79761   79758       7   79767   79764       6   79770   79764
       6   79770   79767       7   79776   79773       6   79779   79773       6
   79779   79776       7   79785   79782       6   79788   79782       6   79788
   79785       7   79794   79791       6   79797   79791       6   79797   79794
       7   79803   79800       6   79806   79800       6   79806   79803       7
   79812   79809       6   79815   79809       6   79815   79812       7   79821
   79818       6   79824   79818       6   79824   79821       7   79830   79827
       6   79833   79827       6   79833   79830       7   79839   79836       6
   79842   79836       6   79842   79839       7   79848   79845       6   79851
   79845       6   79851   79848       7   79857   79854       6   79860   79854
       6   79860   79857       7   79866   79863       6   79869   79863       6
   79869   79866       7   79875   79872       6   79878   79872       6   79878
   79875       7   79884   79881       6   79887   79881       6   79887   79884
       7   79893   79890       6   79896   79890       6   79896   79893       7
   79902   79899       6   79905   79899       6   79905   79902       7   79911
   79908       6   79914   79908       6   79914   79911       7   79920   79917
       6   79923   79917       6   79923   79920       7   79929   79926       6
   79932   79926       6   79932   79929       7   79938   79935       6   79941
   79935       6   79941   79938       7   79947   79944       6   79950   79944
       6   79950   79947       7   79956   79953       6   79959   79953       6
   79959   79956       7   79965   79962       6   79968   79962       6   79968
   79965       7   79974   79971       6   79977   79971       6   79977   79974
       7   79983   79980       6   79986   79980       6   79986   79983       7
   79992   79989       6   79995   79989       6   79995   79992       7   80001
   79998       6   80004   79998       6   80004   80001       7   80010   80007
       6   80013   80007       6   80013   80010       7   80019   80016       6
   80022   80016       6   80022   80019       7   80028   80025       6   80031
   80025       6   80031   80028       7   80037   80034       6   80040   80034
       6   80040   80037       7   80046   80043       6   80049   80043       6
   80049   80046       7   80055   80052       6   80058   80052       6   80058
   80055       7   80064   80061       6   80067   80061       6   80067   80064
       7   80073   80070       6   80076   80070       6   80076   80073       7
   80082   80079       6   80085   80079       6   80085   80082       7   80091
   80088       6   80094   80088       6   80094   80091       7   80100   80097
       6   80103   80097       6   80103   80100       7   80109   80106       6
   80112   80106       6   80112   80109       7   80118   80115       6   80121
   80115       6   80121   80118       7   80127   80124       6   80130   80124
       6   80130   80127       7   80136   80133       6   80139   80133       6
   80139   80136       7   80145   80142       6   80148   80142       6   80148
   80145       7   80154   80151       6   80157   80151       6   80157   80154
       7   80163   80160       6   80166   80160       6   80166   80163       7
   80172   80169       6   80175   80169       6   80175   80172       7   80181
   80178       6   80184   80178       6   80184   80181       7   80190   80187
       6   80193   80187       6   80193   80190       7   80199   80196       6
   80202   80196       6   80202   80199       7   80208   80205       6   80211
   80205       6   80211   80208       7   80217   80214       6   80220   80214
       6   80220   80217       7   80226   80223       6   80229   80223       6
   80229   80226       7   80235   80232       6   80238   80232       6   80238
   80235       7   80244   80241       6   80247   80241       6   80247   80244
       7   80253   80250       6   80256   80250       6   80256   80253       7
   80262   80259       6   80265   80259       6   80265   80262       7   80271
   80268       6   80274   80268       6   80274   80271       7   80280   80277
       6   80283   80277       6   80283   80280       7   80289   80286       6
   80292   80286       6   80292   80289       7   80298   80295       6   80301
   80295       6   80301   80298       7   80307   80304       6   80310   80304
       6   80310   80307       7   80316   80313       6   80319   80313       6
   80319   80316       7   80325   80322       6   80328   80322       6   80328
   80325       7   80334   80331       6   80337   80331       6   80337   80334
       7   80343   80340       6   80346   80340       6   80346   80343       7
   80352   80349       6   80355   80349       6   80355   80352       7   80361
   80358       6   80364   80358       6   80364   80361       7   80370   80367
       6   80373   80367       6   80373   80370       7   80379   80376       6
   80382   80376       6   80382   80379       7   80388   80385       6   80391
   80385       6   80391   80388       7   80397   80394       6   80400   80394
       6   80400   80397       7   80406   80403       6   80409   80403       6
   80409   80406       7   80415   80412       6   80418   80412       6   80418
   80415       7   80424   80421       6   80427   80421       6   80427   80424
       7   80433   80430       6   80436   80430       6   80436   80433       7
   80442   80439       6   80445   80439       6   80445   80442       7   80451
   80448       6   80454   80448       6   80454   80451       7   80460   80457
       6   80463   80457       6   80463   80460       7   80469   80466       6
   80472   80466       6   80472   80469       7   80478   80475       6   80481
   80475       6   80481   80478       7   80487   80484       6   80490   80484
       6   80490   80487       7   80496   80493       6   80499   80493       6
   80499   80496       7   80505   80502       6   80508   80502       6   80508
   80505       7   80514   80511       6   80517   80511       6   80517   80514
       7   80523   80520       6   80526   80520       6   80526   80523       7
   80532   80529       6   80535   80529       6   80535   80532       7   80541
   80538       6   80544   80538       6   80544   80541       7   80550   80547
       6   80553   80547       6   80553   80550       7   80559   80556       6
   80562   80556       6   80562   80559       7   80568   80565       6   80571
   80565       6   80571   80568       7   80577   80574       6   80580   80574
       6   80580   80577       7   80586   80583       6   80589   80583       6
   80589   80586       7   80595   80592       6   80598   80592       6   80598
   80595       7   80604   80601       6   80607   80601       6   80607   80604
       7   80613   80610       6   80616   80610       6   80616   80613       7
   80622   80619       6   80625   80619       6   80625   80622       7   80631
   80628       6   80634   80628       6   80634   80631       7   80640   80637
       6   80643   80637       6   80643   80640       7   80649   80646       6
   80652   80646       6   80652   80649       7   80658   80655       6   80661
   80655       6   80661   80658       7   80667   80664       6   80670   80664
       6   80670   80667       7   80676   80673       6   80679   80673       6
   80679   80676       7   80685   80682       6   80688   80682       6   80688
   80685       7   80694   80691       6   80697   80691       6   80697   80694
       7   80703   80700       6   80706   80700       6   80706   80703       7
   80712   80709       6   80715   80709       6   80715   80712       7   80721
   80718       6   80724   80718       6   80724   80721       7   80730   80727
       6   80733   80727       6   80733   80730       7   80739   80736       6
   80742   80736       6   80742   80739       7   80748   80745       6   80751
   80745       6   80751   80748       7   80757   80754       6   80760   80754
       6   80760   80757       7   80766   80763       6   80769   80763       6
   80769   80766       7   80775   80772       6   80778   80772       6   80778
   80775       7   80784   80781       6   80787   80781       6   80787   80784
       7   80793   80790       6   80796   80790       6   80796   80793       7
   80802   80799       6   80805   80799       6   80805   80802       7   80811
   80808       6   80814   80808       6   80814   80811       7   80820   80817
       6   80823   80817       6   80823   80820       7   80829   80826       6
   80832   80826       6   80832   80829       7   80838   80835       6   80841
   80835       6   80841   80838       7   80847   80844       6   80850   80844
       6   80850   80847       7   80856   80853       6   80859   80853       6
   80859   80856       7   80865   80862       6   80868   80862       6   80868
   80865       7   80874   80871       6   80877   80871       6   80877   80874
       7   80883   80880       6   80886   80880       6   80886   80883       7
   80892   80889       6   80895   80889       6   80895   80892       7   80901
   80898       6   80904   80898       6   80904   80901       7   80910   80907
       6   80913   80907       6   80913   80910       7   80919   80916       6
   80922   80916       6   80922   80919       7   80928   80925       6   80931
   80925       6   80931   80928       7   80937   80934       6   80940   80934
       6   80940   80937       7   80946   80943       6   80949   80943       6
   80949   80946       7   80955   80952       6   80958   80952       6   80958
   80955       7   80964   80961       6   80967   80961       6   80967   80964
       7   80973   80970       6   80976   80970       6   80976   80973       7
   80982   80979       6   80985   80979       6   80985   80982       7   80991
   80988       6   80994   80988       6   80994   80991       7   81000   80997
       6   81003   80997       6   81003   81000       7   81009   81006       6
   81012   81006       6   81012   81009       7   81018   81015       6   81021
   81015       6   81021   81018       7   81027   81024       6   81030   81024
       6   81030   81027       7   81036   81033       6   81039   81033       6
   81039   81036       7   81045   81042       6   81048   81042       6   81048
   81045       7   81054   81051       6   81057   81051       6   81057   81054
       7   81063   81060       6   81066   81060       6   81066   81063       7
   81072   81069       6   81075   81069       6   81075   81072       7   81081
   81078       6   81084   81078       6   81084   81081       7   81090   81087
       6   81093   81087       6   81093   81090       7   81099   81096       6
   81102   81096       6   81102   81099       7   81108   81105       6   81111
   81105       6   81111   81108       7   81117   81114       6   81120   81114
       6   81120   81117       7   81126   81123       6   81129   81123       6
   81129   81126       7   81135   81132       6   81138   81132       6   81138
   81135       7   81144   81141       6   81147   81141       6   81147   81144
       7   81153   81150       6   81156   81150       6   81156   81153       7
   81162   81159       6   81165   81159       6   81165   81162       7   81171
   81168       6   81174   81168       6   81174   81171       7   81180   81177
       6   81183   81177       6   81183   81180       7   81189   81186       6
   81192   81186       6   81192   81189       7   81198   81195       6   81201
   81195       6   81201   81198       7   81207   81204       6   81210   81204
       6   81210   81207       7   81216   81213       6   81219   81213       6
   81219   81216       7   81225   81222       6   81228   81222       6   81228
   81225       7   81234   81231       6   81237   81231       6   81237   81234
       7   81243   81240       6   81246   81240       6   81246   81243       7
   81252   81249       6   81255   81249       6   81255   81252       7   81261
   81258       6   81264   81258       6   81264   81261       7   81270   81267
       6   81273   81267       6   81273   81270       7   81279   81276       6
   81282   81276       6   81282   81279       7   81288   81285       6   81291
   81285       6   81291   81288       7   81297   81294       6   81300   81294
       6   81300   81297       7   81306   81303       6   81309   81303       6
   81309   81306       7   81315   81312       6   81318   81312       6   81318
   81315       7   81324   81321       6   81327   81321       6   81327   81324
       7   81333   81330       6   81336   81330       6   81336   81333       7
   81342   81339       6   81345   81339       6   81345   81342       7   81351
   81348       6   81354   81348       6   81354   81351       7   81360   81357
       6   81363   81357       6   81363   81360       7   81369   81366       6
   81372   81366       6   81372   81369       7   81378   81375       6   81381
   81375       6   81381   81378       7   81387   81384       6   81390   81384
       6   81390   81387       7   81396   81393       6   81399   81393       6
   81399   81396       7   81405   81402       6   81408   81402       6   81408
   81405       7   81414   81411       6   81417   81411       6   81417   81414
       7   81423   81420       6   81426   81420       6   81426   81423       7
   81432   81429       6   81435   81429       6   81435   81432       7   81441
   81438       6   81444   81438       6   81444   81441       7   81450   81447
       6   81453   81447       6   81453   81450       7   81459   81456       6
   81462   81456       6   81462   81459       7   81468   81465       6   81471
   81465       6   81471   81468       7   81477   81474       6   81480   81474
       6   81480   81477       7   81486   81483       6   81489   81483       6
   81489   81486       7   81495   81492       6   81498   81492       6   81498
   81495       7   81504   81501       6   81507   81501       6   81507   81504
       7   81513   81510       6   81516   81510       6   81516   81513       7
   81522   81519       6   81525   81519       6   81525   81522       7   81531
   81528       6   81534   81528       6   81534   81531       7   81540   81537
       6   81543   81537       6   81543   81540       7   81549   81546       6
   81552   81546       6   81552   81549       7   81558   81555       6   81561
   81555       6   81561   81558       7   81567   81564       6   81570   81564
       6   81570   81567       7   81576   81573       6   81579   81573       6
   81579   81576       7   81585   81582       6   81588   81582       6   81588
   81585       7   81594   81591       6   81597   81591       6   81597   81594
       7   81603   81600       6   81606   81600       6   81606   81603       7
   81612   81609       6   81615   81609       6   81615   81612       7   81621
   81618       6   81624   81618       6   81624   81621       7   81630   81627
       6   81633   81627       6   81633   81630       7   81639   81636       6
   81642   81636       6   81642   81639       7   81648   81645       6   81651
   81645       6   81651   81648       7   81657   81654       6   81660   81654
       6   81660   81657       7   81666   81663       6   81669   81663       6
   81669   81666       7   81675   81672       6   81678   81672       6   81678
   81675       7   81684   81681       6   81687   81681       6   81687   81684
       7   81693   81690       6   81696   81690       6   81696   81693       7
   81702   81699       6   81705   81699       6   81705   81702       7   81711
   81708       6   81714   81708       6   81714   81711       7   81720   81717
       6   81723   81717       6   81723   81720       7   81729   81726       6
   81732   81726       6   81732   81729       7   81738   81735       6   81741
   81735       6   81741   81738       7   81747   81744       6   81750   81744
       6   81750   81747       7   81756   81753       6   81759   81753       6
   81759   81756       7   81765   81762       6   81768   81762       6   81768
   81765       7   81774   81771       6   81777   81771       6   81777   81774
       7   81783   81780       6   81786   81780       6   81786   81783       7
   81792   81789       6   81795   81789       6   81795   81792       7   81801
   81798       6   81804   81798       6   81804   81801       7   81810   81807
       6   81813   81807       6   81813   81810       7   81819   81816       6
   81822   81816       6   81822   81819       7   81828   81825       6   81831
   81825       6   81831   81828       7   81837   81834       6   81840   81834
       6   81840   81837       7   81846   81843       6   81849   81843       6
   81849   81846       7   81855   81852       6   81858   81852       6   81858
   81855       7   81864   81861       6   81867   81861       6   81867   81864
       7   81873   81870       6   81876   81870       6   81876   81873       7
   81882   81879       6   81885   81879       6   81885   81882       7   81891
   81888       6   81894   81888       6   81894   81891       7   81900   81897
       6   81903   81897       6   81903   81900       7   81909   81906       6
   81912   81906       6   81912   81909       7   81918   81915       6   81921
   81915       6   81921   81918       7   81927   81924       6   81930   81924
       6   81930   81927       7   81936   81933       6   81939   81933       6
   81939   81936       7   81945   81942       6   81948   81942       6   81948
   81945       7   81954   81951       6   81957   81951       6   81957   81954
       7   81963   81960       6   81966   81960       6   81966   81963       7
   81972   81969       6   81975   81969       6   81975   81972       7   81981
   81978       6   81984   81978       6   81984   81981       7   81990   81987
       6   81993   81987       6   81993   81990       7   81999   81996       6
   82002   81996       6   82002   81999       7   82008   82005       6   82011
   82005       6   82011   82008       7   82017   82014       6   82020   82014
       6   82020   82017       7   82026   82023       6   82029   82023       6
   82029   82026       7   82035   82032       6   82038   82032       6   82038
   82035       7   82044   82041       6   82047   82041       6   82047   82044
       7   82053   82050       6   82056   82050       6   82056   82053       7
   82062   82059       6   82065   82059       6   82065   82062       7   82071
   82068       6   82074   82068       6   82074   82071       7   82080   82077
       6   82083   82077       6   82083   82080       7   82089   82086       6
   82092   82086       6   82092   82089       7   82098   82095       6   82101
   82095       6   82101   82098       7   82107   82104       6   82110   82104
       6   82110   82107       7   82116   82113       6   82119   82113       6
   82119   82116       7   82125   82122       6   82128   82122       6   82128
   82125       7   82134   82131       6   82137   82131       6   82137   82134
       7   82143   82140       6   82146   82140       6   82146   82143       7
   82152   82149       6   82155   82149       6   82155   82152       7   82161
   82158       6   82164   82158       6   82164   82161       7   82170   82167
       6   82173   82167       6   82173   82170       7   82179   82176       6
   82182   82176       6   82182   82179       7   82188   82185       6   82191
   82185       6   82191   82188       7   82197   82194       6   82200   82194
       6   82200   82197       7   82206   82203       6   82209   82203       6
   82209   82206       7   82215   82212       6   82218   82212       6   82218
   82215       7   82224   82221       6   82227   82221       6   82227   82224
       7   82233   82230       6   82236   82230       6   82236   82233       7
   82242   82239       6   82245   82239       6   82245   82242       7   82251
   82248       6   82254   82248       6   82254   82251       7   82260   82257
       6   82263   82257       6   82263   82260       7   82269   82266       6
   82272   82266       6   82272   82269       7   82278   82275       6   82281
   82275       6   82281   82278       7   82287   82284       6   82290   82284
       6   82290   82287       7   82296   82293       6   82299   82293       6
   82299   82296       7   82305   82302       6   82308   82302       6   82308
   82305       7   82314   82311       6   82317   82311       6   82317   82314
       7   82323   82320       6   82326   82320       6   82326   82323       7
   82332   82329       6   82335   82329       6   82335   82332       7   82341
   82338       6   82344   82338       6   82344   82341       7   82350   82347
       6   82353   82347       6   82353   82350       7   82359   82356       6
   82362   82356       6   82362   82359       7   82368   82365       6   82371
   82365       6   82371   82368       7   82377   82374       6   82380   82374
       6   82380   82377       7   82386   82383       6   82389   82383       6
   82389   82386       7   82395   82392       6   82398   82392       6   82398
   82395       7   82404   82401       6   82407   82401       6   82407   82404
       7   82413   82410       6   82416   82410       6   82416   82413       7
   82422   82419       6   82425   82419       6   82425   82422       7   82431
   82428       6   82434   82428       6   82434   82431       7   82440   82437
       6   82443   82437       6   82443   82440       7   82449   82446       6
   82452   82446       6   82452   82449       7   82458   82455       6   82461
   82455       6   82461   82458       7   82467   82464       6   82470   82464
       6   82470   82467       7   82476   82473       6   82479   82473       6
   82479   82476       7   82485   82482       6   82488   82482       6   82488
   82485       7   82494   82491       6   82497   82491       6   82497   82494
       7   82503   82500       6   82506   82500       6   82506   82503       7
   82512   82509       6   82515   82509       6   82515   82512       7   82521
   82518       6   82524   82518       6   82524   82521       7   82530   82527
       6   82533   82527       6   82533   82530       7   82539   82536       6
   82542   82536       6   82542   82539       7   82548   82545       6   82551
   82545       6   82551   82548       7   82557   82554       6   82560   82554
       6   82560   82557       7   82566   82563       6   82569   82563       6
   82569   82566       7   82575   82572       6   82578   82572       6   82578
   82575       7   82584   82581       6   82587   82581       6   82587   82584
       7   82593   82590       6   82596   82590       6   82596   82593       7
   82602   82599       6   82605   82599       6   82605   82602       7   82611
   82608       6   82614   82608       6   82614   82611       7   82620   82617
       6   82623   82617       6   82623   82620       7   82629   82626       6
   82632   82626       6   82632   82629       7   82638   82635       6   82641
   82635       6   82641   82638       7   82647   82644       6   82650   82644
       6   82650   82647       7   82656   82653       6   82659   82653       6
   82659   82656       7   82665   82662       6   82668   82662       6   82668
   82665       7   82674   82671       6   82677   82671       6   82677   82674
       7   82683   82680       6   82686   82680       6   82686   82683       7
   82692   82689       6   82695   82689       6   82695   82692       7   82701
   82698       6   82704   82698       6   82704   82701       7   82710   82707
       6   82713   82707       6   82713   82710       7   82719   82716       6
   82722   82716       6   82722   82719       7   82728   82725       6   82731
   82725       6   82731   82728       7   82737   82734       6   82740   82734
       6   82740   82737       7   82746   82743       6   82749   82743       6
   82749   82746       7   82755   82752       6   82758   82752       6   82758
   82755       7   82764   82761       6   82767   82761       6   82767   82764
       7   82773   82770       6   82776   82770       6   82776   82773       7
   82782   82779       6   82785   82779       6   82785   82782       7   82791
   82788       6   82794   82788       6   82794   82791       7   82800   82797
       6   82803   82797       6   82803   82800       7   82809   82806       6
   82812   82806       6   82812   82809       7   82818   82815       6   82821
   82815       6   82821   82818       7   82827   82824       6   82830   82824
       6   82830   82827       7   82836   82833       6   82839   82833       6
   82839   82836       7   82845   82842       6   82848   82842       6   82848
   82845       7   82854   82851       6   82857   82851       6   82857   82854
       7   82863   82860       6   82866   82860       6   82866   82863       7
   82872   82869       6   82875   82869       6   82875   82872       7   82881
   82878       6   82884   82878       6   82884   82881       7   82890   82887
       6   82893   82887       6   82893   82890       7   82899   82896       6
   82902   82896       6   82902   82899       7   82908   82905       6   82911
   82905       6   82911   82908       7   82917   82914       6   82920   82914
       6   82920   82917       7   82926   82923       6   82929   82923       6
   82929   82926       7   82935   82932       6   82938   82932       6   82938
   82935       7   82944   82941       6   82947   82941       6   82947   82944
       7   82953   82950       6   82956   82950       6   82956   82953       7
   82962   82959       6   82965   82959       6   82965   82962       7   82971
   82968       6   82974   82968       6   82974   82971       7   82980   82977
       6   82983   82977       6   82983   82980       7   82989   82986       6
   82992   82986       6   82992   82989       7   82998   82995       6   83001
   82995       6   83001   82998       7   83007   83004       6   83010   83004
       6   83010   83007       7   83016   83013       6   83019   83013       6
   83019   83016       7   83025   83022       6   83028   83022       6   83028
   83025       7   83034   83031       6   83037   83031       6   83037   83034
       7   83043   83040       6   83046   83040       6   83046   83043       7
   83052   83049       6   83055   83049       6   83055   83052       7   83061
   83058       6   83064   83058       6   83064   83061       7   83070   83067
       6   83073   83067       6   83073   83070       7   83079   83076       6
   83082   83076       6   83082   83079       7   83088   83085       6   83091
   83085       6   83091   83088       7   83097   83094       6   83100   83094
       6   83100   83097       7   83106   83103       6   83109   83103       6
   83109   83106       7   83115   83112       6   83118   83112       6   83118
   83115       7   83124   83121       6   83127   83121       6   83127   83124
       7   83133   83130       6   83136   83130       6   83136   83133       7
   83142   83139       6   83145   83139       6   83145   83142       7   83151
   83148       6   83154   83148       6   83154   83151       7   83160   83157
       6   83163   83157       6   83163   83160       7   83169   83166       6
   83172   83166       6   83172   83169       7   83178   83175       6   83181
   83175       6   83181   83178       7   83187   83184       6   83190   83184
       6   83190   83187       7   83196   83193       6   83199   83193       6
   83199   83196       7   83205   83202       6   83208   83202       6   83208
   83205       7   83214   83211       6   83217   83211       6   83217   83214
       7   83223   83220       6   83226   83220       6   83226   83223       7
   83232   83229       6   83235   83229       6   83235   83232       7   83241
   83238       6   83244   83238       6   83244   83241       7   83250   83247
       6   83253   83247       6   83253   83250       7   83259   83256       6
   83262   83256       6   83262   83259       7   83268   83265       6   83271
   83265       6   83271   83268       7   83277   83274       6   83280   83274
       6   83280   83277       7   83286   83283       6   83289   83283       6
   83289   83286       7   83295   83292       6   83298   83292       6   83298
   83295       7   83304   83301       6   83307   83301       6   83307   83304
       7   83313   83310       6   83316   83310       6   83316   83313       7
   83322   83319       6   83325   83319       6   83325   83322       7   83331
   83328       6   83334   83328       6   83334   83331       7   83340   83337
       6   83343   83337       6   83343   83340       7   83349   83346       6
   83352   83346       6   83352   83349       7   83358   83355       6   83361
   83355       6   83361   83358       7   83367   83364       6   83370   83364
       6   83370   83367       7   83376   83373       6   83379   83373       6
   83379   83376       7   83385   83382       6   83388   83382       6   83388
   83385       7   83394   83391       6   83397   83391       6   83397   83394
       7   83403   83400       6   83406   83400       6   83406   83403       7
   83412   83409       6   83415   83409       6   83415   83412       7   83421
   83418       6   83424   83418       6   83424   83421       7   83430   83427
       6   83433   83427       6   83433   83430       7   83439   83436       6
   83442   83436       6   83442   83439       7   83448   83445       6   83451
   83445       6   83451   83448       7   83457   83454       6   83460   83454
       6   83460   83457       7   83466   83463       6   83469   83463       6
   83469   83466       7   83475   83472       6   83478   83472       6   83478
   83475       7   83484   83481       6   83487   83481       6   83487   83484
       7   83493   83490       6   83496   83490       6   83496   83493       7
   83502   83499       6   83505   83499       6   83505   83502       7   83511
   83508       6   83514   83508       6   83514   83511       7   83520   83517
       6   83523   83517       6   83523   83520       7   83529   83526       6
   83532   83526       6   83532   83529       7   83538   83535       6   83541
   83535       6   83541   83538       7   83547   83544       6   83550   83544
       6   83550   83547       7   83556   83553       6   83559   83553       6
   83559   83556       7   83565   83562       6   83568   83562       6   83568
   83565       7   83574   83571       6   83577   83571       6   83577   83574
       7   83583   83580       6   83586   83580       6   83586   83583       7
   83592   83589       6   83595   83589       6   83595   83592       7   83601
   83598       6   83604   83598       6   83604   83601       7   83610   83607
       6   83613   83607       6   83613   83610       7   83619   83616       6
   83622   83616       6   83622   83619       7   83628   83625       6   83631
   83625       6   83631   83628       7   83637   83634       6   83640   83634
       6   83640   83637       7   83646   83643       6   83649   83643       6
   83649   83646       7   83655   83652       6   83658   83652       6   83658
   83655       7   83664   83661       6   83667   83661       6   83667   83664
       7   83673   83670       6   83676   83670       6   83676   83673       7
   83682   83679       6   83685   83679       6   83685   83682       7   83691
   83688       6   83694   83688       6   83694   83691       7   83700   83697
       6   83703   83697       6   83703   83700       7   83709   83706       6
   83712   83706       6   83712   83709       7   83718   83715       6   83721
   83715       6   83721   83718       7   83727   83724       6   83730   83724
       6   83730   83727       7   83736   83733       6   83739   83733       6
   83739   83736       7   83745   83742       6   83748   83742       6   83748
   83745       7   83754   83751       6   83757   83751       6   83757   83754
       7   83763   83760       6   83766   83760       6   83766   83763       7
   83772   83769       6   83775   83769       6   83775   83772       7   83781
   83778       6   83784   83778       6   83784   83781       7   83790   83787
       6   83793   83787       6   83793   83790       7   83799   83796       6
   83802   83796       6   83802   83799       7   83808   83805       6   83811
   83805       6   83811   83808       7   83817   83814       6   83820   83814
       6   83820   83817       7   83826   83823       6   83829   83823       6
   83829   83826       7   83835   83832       6   83838   83832       6   83838
   83835       7   83844   83841       6   83847   83841       6   83847   83844
       7   83853   83850       6   83856   83850       6   83856   83853       7
   83862   83859       6   83865   83859       6   83865   83862       7   83871
   83868       6   83874   83868       6   83874   83871       7   83880   83877
       6   83883   83877       6   83883   83880       7   83889   83886       6
   83892   83886       6   83892   83889       7   83898   83895       6   83901
   83895       6   83901   83898       7   83907   83904       6   83910   83904
       6   83910   83907       7   83916   83913       6   83919   83913       6
   83919   83916       7   83925   83922       6   83928   83922       6   83928
   83925       7   83934   83931       6   83937   83931       6   83937   83934
       7   83943   83940       6   83946   83940       6   83946   83943       7
   83952   83949       6   83955   83949       6   83955   83952       7   83961
   83958       6   83964   83958       6   83964   83961       7   83970   83967
       6   83973   83967       6   83973   83970       7   83979   83976       6
   83982   83976       6   83982   83979       7   83988   83985       6   83991
   83985       6   83991   83988       7   83997   83994       6   84000   83994
       6   84000   83997       7   84006   84003       6   84009   84003       6
   84009   84006       7   84015   84012       6   84018   84012       6   84018
   84015       7   84024   84021       6   84027   84021       6   84027   84024
       7   84033   84030       6   84036   84030       6   84036   84033       7
   84042   84039       6   84045   84039       6   84045   84042       7   84051
   84048       6   84054   84048       6   84054   84051       7   84060   84057
       6   84063   84057       6   84063   84060       7   84069   84066       6
   84072   84066       6   84072   84069       7   84078   84075       6   84081
   84075       6   84081   84078       7   84087   84084       6   84090   84084
       6   84090   84087       7   84096   84093       6   84099   84093       6
   84099   84096       7   84105   84102       6   84108   84102       6   84108
   84105       7   84114   84111       6   84117   84111       6   84117   84114
       7   84123   84120       6   84126   84120       6   84126   84123       7
   84132   84129       6   84135   84129       6   84135   84132       7   84141
   84138       6   84144   84138       6   84144   84141       7   84150   84147
       6   84153   84147       6   84153   84150       7   84159   84156       6
   84162   84156       6   84162   84159       7   84168   84165       6   84171
   84165       6   84171   84168       7   84177   84174       6   84180   84174
       6   84180   84177       7   84186   84183       6   84189   84183       6
   84189   84186       7   84195   84192       6   84198   84192       6   84198
   84195       7   84204   84201       6   84207   84201       6   84207   84204
       7   84213   84210       6   84216   84210       6   84216   84213       7
   84222   84219       6   84225   84219       6   84225   84222       7   84231
   84228       6   84234   84228       6   84234   84231       7   84240   84237
       6   84243   84237       6   84243   84240       7   84249   84246       6
   84252   84246       6   84252   84249       7   84258   84255       6   84261
   84255       6   84261   84258       7   84267   84264       6   84270   84264
       6   84270   84267       7   84276   84273       6   84279   84273       6
   84279   84276       7   84285   84282       6   84288   84282       6   84288
   84285       7   84294   84291       6   84297   84291       6   84297   84294
       7   84303   84300       6   84306   84300       6   84306   84303       7
   84312   84309       6   84315   84309       6   84315   84312       7   84321
   84318       6   84324   84318       6   84324   84321       7   84330   84327
       6   84333   84327       6   84333   84330       7   84339   84336       6
   84342   84336       6   84342   84339       7   84348   84345       6   84351
   84345       6   84351   84348       7   84357   84354       6   84360   84354
       6   84360   84357       7   84366   84363       6   84369   84363       6
   84369   84366       7   84375   84372       6   84378   84372       6   84378
   84375       7   84384   84381       6   84387   84381       6   84387   84384
       7   84393   84390       6   84396   84390       6   84396   84393       7
   84402   84399       6   84405   84399       6   84405   84402       7   84411
   84408       6   84414   84408       6   84414   84411       7   84420   84417
       6   84423   84417       6   84423   84420       7   84429   84426       6
   84432   84426       6   84432   84429       7   84438   84435       6   84441
   84435       6   84441   84438       7   84447   84444       6   84450   84444
       6   84450   84447       7   84456   84453       6   84459   84453       6
   84459   84456       7   84465   84462       6   84468   84462       6   84468
   84465       7   84474   84471       6   84477   84471       6   84477   84474
       7   84483   84480       6   84486   84480       6   84486   84483       7
   84492   84489       6   84495   84489       6   84495   84492       7   84501
   84498       6   84504   84498       6   84504   84501       7   84510   84507
       6   84513   84507       6   84513   84510       7   84519   84516       6
   84522   84516       6   84522   84519       7   84528   84525       6   84531
   84525       6   84531   84528       7   84537   84534       6   84540   84534
       6   84540   84537       7   84546   84543       6   84549   84543       6
   84549   84546       7   84555   84552       6   84558   84552       6   84558
   84555       7   84564   84561       6   84567   84561       6   84567   84564
       7   84573   84570       6   84576   84570       6   84576   84573       7
   84582   84579       6   84585   84579       6   84585   84582       7   84591
   84588       6   84594   84588       6   84594   84591       7   84600   84597
       6   84603   84597       6   84603   84600       7   84609   84606       6
   84612   84606       6   84612   84609       7   84618   84615       6   84621
   84615       6   84621   84618       7   84627   84624       6   84630   84624
       6   84630   84627       7   84636   84633       6   84639   84633       6
   84639   84636       7   84645   84642       6   84648   84642       6   84648
   84645       7   84654   84651       6   84657   84651       6   84657   84654
       7   84663   84660       6   84666   84660       6   84666   84663       7
   84672   84669       6   84675   84669       6   84675   84672       7   84681
   84678       6   84684   84678       6   84684   84681       7   84690   84687
       6   84693   84687       6   84693   84690       7   84699   84696       6
   84702   84696       6   84702   84699       7   84708   84705       6   84711
   84705       6   84711   84708       7   84717   84714       6   84720   84714
       6   84720   84717       7   84726   84723       6   84729   84723       6
   84729   84726       7   84735   84732       6   84738   84732       6   84738
   84735       7   84744   84741       6   84747   84741       6   84747   84744
       7   84753   84750       6   84756   84750       6   84756   84753       7
   84762   84759       6   84765   84759       6   84765   84762       7   84771
   84768       6   84774   84768       6   84774   84771       7   84780   84777
       6   84783   84777       6   84783   84780       7   84789   84786       6
   84792   84786       6   84792   84789       7   84798   84795       6   84801
   84795       6   84801   84798       7   84807   84804       6   84810   84804
       6   84810   84807       7   84816   84813       6   84819   84813       6
   84819   84816       7   84825   84822       6   84828   84822       6   84828
   84825       7   84834   84831       6   84837   84831       6   84837   84834
       7   84843   84840       6   84846   84840       6   84846   84843       7
   84852   84849       6   84855   84849       6   84855   84852       7   84861
   84858       6   84864   84858       6   84864   84861       7   84870   84867
       6   84873   84867       6   84873   84870       7   84879   84876       6
   84882   84876       6   84882   84879       7   84888   84885       6   84891
   84885       6   84891   84888       7   84897   84894       6   84900   84894
       6   84900   84897       7   84906   84903       6   84909   84903       6
   84909   84906       7   84915   84912       6   84918   84912       6   84918
   84915       7   84924   84921       6   84927   84921       6   84927   84924
       7   84933   84930       6   84936   84930       6   84936   84933       7
   84942   84939       6   84945   84939       6   84945   84942       7   84951
   84948       6   84954   84948       6   84954   84951       7   84960   84957
       6   84963   84957       6   84963   84960       7   84969   84966       6
   84972   84966       6   84972   84969       7   84978   84975       6   84981
   84975       6   84981   84978       7   84987   84984       6   84990   84984
       6   84990   84987       7   84996   84993       6   84999   84993       6
   84999   84996       7   85005   85002       6   85008   85002       6   85008
   85005       7   85014   85011       6   85017   85011       6   85017   85014
       7   85023   85020       6   85026   85020       6   85026   85023       7
   85032   85029       6   85035   85029       6   85035   85032       7   85041
   85038       6   85044   85038       6   85044   85041       7   85050   85047
       6   85053   85047       6   85053   85050       7   85059   85056       6
   85062   85056       6   85062   85059       7   85068   85065       6   85071
   85065       6   85071   85068       7   85077   85074       6   85080   85074
       6   85080   85077       7   85086   85083       6   85089   85083       6
   85089   85086       7   85095   85092       6   85098   85092       6   85098
   85095       7   85104   85101       6   85107   85101       6   85107   85104
       7   85113   85110       6   85116   85110       6   85116   85113       7
   85122   85119       6   85125   85119       6   85125   85122       7   85131
   85128       6   85134   85128       6   85134   85131       7   85140   85137
       6   85143   85137       6   85143   85140       7   85149   85146       6
   85152   85146       6   85152   85149       7   85158   85155       6   85161
   85155       6   85161   85158       7   85167   85164       6   85170   85164
       6   85170   85167       7   85176   85173       6   85179   85173       6
   85179   85176       7   85185   85182       6   85188   85182       6   85188
   85185       7   85194   85191       6   85197   85191       6   85197   85194
       7   85203   85200       6   85206   85200       6   85206   85203       7
   85212   85209       6   85215   85209       6   85215   85212       7   85221
   85218       6   85224   85218       6   85224   85221       7   85230   85227
       6   85233   85227       6   85233   85230       7   85239   85236       6
   85242   85236       6   85242   85239       7   85248   85245       6   85251
   85245       6   85251   85248       7   85257   85254       6   85260   85254
       6   85260   85257       7   85266   85263       6   85269   85263       6
   85269   85266       7   85275   85272       6   85278   85272       6   85278
   85275       7   85284   85281       6   85287   85281       6   85287   85284
       7   85293   85290       6   85296   85290       6   85296   85293       7
   85302   85299       6   85305   85299       6   85305   85302       7   85311
   85308       6   85314   85308       6   85314   85311       7   85320   85317
       6   85323   85317       6   85323   85320       7   85329   85326       6
   85332   85326       6   85332   85329       7   85338   85335       6   85341
   85335       6   85341   85338       7   85347   85344       6   85350   85344
       6   85350   85347       7   85356   85353       6   85359   85353       6
   85359   85356       7   85365   85362       6   85368   85362       6   85368
   85365       7   85374   85371       6   85377   85371       6   85377   85374
       7   85383   85380       6   85386   85380       6   85386   85383       7
   85392   85389       6   85395   85389       6   85395   85392       7   85401
   85398       6   85404   85398       6   85404   85401       7   85410   85407
       6   85413   85407       6   85413   85410       7   85419   85416       6
   85422   85416       6   85422   85419       7   85428   85425       6   85431
   85425       6   85431   85428       7   85437   85434       6   85440   85434
       6   85440   85437       7   85446   85443       6   85449   85443       6
   85449   85446       7   85455   85452       6   85458   85452       6   85458
   85455       7   85464   85461       6   85467   85461       6   85467   85464
       7   85473   85470       6   85476   85470       6   85476   85473       7
   85482   85479       6   85485   85479       6   85485   85482       7   85491
   85488       6   85494   85488       6   85494   85491       7   85500   85497
       6   85503   85497       6   85503   85500       7   85509   85506       6
   85512   85506       6   85512   85509       7   85518   85515       6   85521
   85515       6   85521   85518       7   85527   85524       6   85530   85524
       6   85530   85527       7   85536   85533       6   85539   85533       6
   85539   85536       7   85545   85542       6   85548   85542       6   85548
   85545       7   85554   85551       6   85557   85551       6   85557   85554
       7   85563   85560       6   85566   85560       6   85566   85563       7
   85572   85569       6   85575   85569       6   85575   85572       7   85581
   85578       6   85584   85578       6   85584   85581       7   85590   85587
       6   85593   85587       6   85593   85590       7   85599   85596       6
   85602   85596       6   85602   85599       7   85608   85605       6   85611
   85605       6   85611   85608       7   85617   85614       6   85620   85614
       6   85620   85617       7   85626   85623       6   85629   85623       6
   85629   85626       7   85635   85632       6   85638   85632       6   85638
   85635       7   85644   85641       6   85647   85641       6   85647   85644
       7   85653   85650       6   85656   85650       6   85656   85653       7
   85662   85659       6   85665   85659       6   85665   85662       7   85671
   85668       6   85674   85668       6   85674   85671       7   85680   85677
       6   85683   85677       6   85683   85680       7   85689   85686       6
   85692   85686       6   85692   85689       7   85698   85695       6   85701
   85695       6   85701   85698       7   85707   85704       6   85710   85704
       6   85710   85707       7   85716   85713       6   85719   85713       6
   85719   85716       7   85725   85722       6   85728   85722       6   85728
   85725       7   85734   85731       6   85737   85731       6   85737   85734
       7   85743   85740       6   85746   85740       6   85746   85743       7
   85752   85749       6   85755   85749       6   85755   85752       7   85761
   85758       6   85764   85758       6   85764   85761       7   85770   85767
       6   85773   85767       6   85773   85770       7   85779   85776       6
   85782   85776       6   85782   85779       7   85788   85785       6   85791
   85785       6   85791   85788       7   85797   85794       6   85800   85794
       6   85800   85797       7   85806   85803       6   85809   85803       6
   85809   85806       7   85815   85812       6   85818   85812       6   85818
   85815       7   85824   85821       6   85827   85821       6   85827   85824
       7   85833   85830       6   85836   85830       6   85836   85833       7
   85842   85839       6   85845   85839       6   85845   85842       7   85851
   85848       6   85854   85848       6   85854   85851       7   85860   85857
       6   85863   85857       6   85863   85860       7   85869   85866       6
   85872   85866       6   85872   85869       7   85878   85875       6   85881
   85875       6   85881   85878       7   85887   85884       6   85890   85884
       6   85890   85887       7   85896   85893       6   85899   85893       6
   85899   85896       7   85905   85902       6   85908   85902       6   85908
   85905       7   85914   85911       6   85917   85911       6   85917   85914
       7   85923   85920       6   85926   85920       6   85926   85923       7
   85932   85929       6   85935   85929       6   85935   85932       7   85941
   85938       6   85944   85938       6   85944   85941       7   85950   85947
       6   85953   85947       6   85953   85950       7   85959   85956       6
   85962   85956       6   85962   85959       7   85968   85965       6   85971
   85965       6   85971   85968       7   85977   85974       6   85980   85974
       6   85980   85977       7   85986   85983       6   85989   85983       6
   85989   85986       7   85995   85992       6   85998   85992       6   85998
   85995       7   86004   86001       6   86007   86001       6   86007   86004
       7   86013   86010       6   86016   86010       6   86016   86013       7
   86022   86019       6   86025   86019       6   86025   86022       7   86031
   86028       6   86034   86028       6   86034   86031       7   86040   86037
       6   86043   86037       6   86043   86040       7   86049   86046       6
   86052   86046       6   86052   86049       7   86058   86055       6   86061
   86055       6   86061   86058       7   86067   86064       6   86070   86064
       6   86070   86067       7   86076   86073       6   86079   86073       6
   86079   86076       7   86085   86082       6   86088   86082       6   86088
   86085       7   86094   86091       6   86097   86091       6   86097   86094
       7   86103   86100       6   86106   86100       6   86106   86103       7
   86112   86109       6   86115   86109       6   86115   86112       7   86121
   86118       6   86124   86118       6   86124   86121       7   86130   86127
       6   86133   86127       6   86133   86130       7   86139   86136       6
   86142   86136       6   86142   86139       7   86148   86145       6   86151
   86145       6   86151   86148       7   86157   86154       6   86160   86154
       6   86160   86157       7   86166   86163       6   86169   86163       6
   86169   86166       7   86175   86172       6   86178   86172       6   86178
   86175       7   86184   86181       6   86187   86181       6   86187   86184
       7   86193   86190       6   86196   86190       6   86196   86193       7
   86202   86199       6   86205   86199       6   86205   86202       7   86211
   86208       6   86214   86208       6   86214   86211       7   86220   86217
       6   86223   86217       6   86223   86220       7   86229   86226       6
   86232   86226       6   86232   86229       7   86238   86235       6   86241
   86235       6   86241   86238       7   86247   86244       6   86250   86244
       6   86250   86247       7   86256   86253       6   86259   86253       6
   86259   86256       7   86265   86262       6   86268   86262       6   86268
   86265       7   86274   86271       6   86277   86271       6   86277   86274
       7   86283   86280       6   86286   86280       6   86286   86283       7
   86292   86289       6   86295   86289       6   86295   86292       7   86301
   86298       6   86304   86298       6   86304   86301       7   86310   86307
       6   86313   86307       6   86313   86310       7   86319   86316       6
   86322   86316       6   86322   86319       7   86328   86325       6   86331
   86325       6   86331   86328       7   86337   86334       6   86340   86334
       6   86340   86337       7   86346   86343       6   86349   86343       6
   86349   86346       7   86355   86352       6   86358   86352       6   86358
   86355       7   86364   86361       6   86367   86361       6   86367   86364
       7   86373   86370       6   86376   86370       6   86376   86373       7
   86382   86379       6   86385   86379       6   86385   86382       7   86391
   86388       6   86394   86388       6   86394   86391       7   86400   86397
       6   86403   86397       6   86403   86400       7   86409   86406       6
   86412   86406       6   86412   86409       7   86418   86415       6   86421
   86415       6   86421   86418       7   86427   86424       6   86430   86424
       6   86430   86427       7   86436   86433       6   86439   86433       6
   86439   86436       7   86445   86442       6   86448   86442       6   86448
   86445       7   86454   86451       6   86457   86451       6   86457   86454
       7   86463   86460       6   86466   86460       6   86466   86463       7
   86472   86469       6   86475   86469       6   86475   86472       7   86481
   86478       6   86484   86478       6   86484   86481       7   86490   86487
       6   86493   86487       6   86493   86490       7   86499   86496       6
   86502   86496       6   86502   86499       7   86508   86505       6   86511
   86505       6   86511   86508       7   86517   86514       6   86520   86514
       6   86520   86517       7   86526   86523       6   86529   86523       6
   86529   86526       7   86535   86532       6   86538   86532       6   86538
   86535       7   86544   86541       6   86547   86541       6   86547   86544
       7   86553   86550       6   86556   86550       6   86556   86553       7
   86562   86559       6   86565   86559       6   86565   86562       7   86571
   86568       6   86574   86568       6   86574   86571       7   86580   86577
       6   86583   86577       6   86583   86580       7   86589   86586       6
   86592   86586       6   86592   86589       7   86598   86595       6   86601
   86595       6   86601   86598       7   86607   86604       6   86610   86604
       6   86610   86607       7   86616   86613       6   86619   86613       6
   86619   86616       7   86625   86622       6   86628   86622       6   86628
   86625       7   86634   86631       6   86637   86631       6   86637   86634
       7   86643   86640       6   86646   86640       6   86646   86643       7
   86652   86649       6   86655   86649       6   86655   86652       7   86661
   86658       6   86664   86658       6   86664   86661       7   86670   86667
       6   86673   86667       6   86673   86670       7   86679   86676       6
   86682   86676       6   86682   86679       7   86688   86685       6   86691
   86685       6   86691   86688       7   86697   86694       6   86700   86694
       6   86700   86697       7   86706   86703       6   86709   86703       6
   86709   86706       7   86715   86712       6   86718   86712       6   86718
   86715       7   86724   86721       6   86727   86721       6   86727   86724
       7   86733   86730       6   86736   86730       6   86736   86733       7
   86742   86739       6   86745   86739       6   86745   86742       7   86751
   86748       6   86754   86748       6   86754   86751       7   86760   86757
       6   86763   86757       6   86763   86760       7   86769   86766       6
   86772   86766       6   86772   86769       7   86778   86775       6   86781
   86775       6   86781   86778       7   86787   86784       6   86790   86784
       6   86790   86787       7   86796   86793       6   86799   86793       6
   86799   86796       7   86805   86802       6   86808   86802       6   86808
   86805       7   86814   86811       6   86817   86811       6   86817   86814
       7   86823   86820       6   86826   86820       6   86826   86823       7
   86832   86829       6   86835   86829       6   86835   86832       7   86841
   86838       6   86844   86838       6   86844   86841       7   86850   86847
       6   86853   86847       6   86853   86850       7   86859   86856       6
   86862   86856       6   86862   86859       7   86868   86865       6   86871
   86865       6   86871   86868       7   86877   86874       6   86880   86874
       6   86880   86877       7   86886   86883       6   86889   86883       6
   86889   86886       7   86895   86892       6   86898   86892       6   86898
   86895       7   86904   86901       6   86907   86901       6   86907   86904
       7   86913   86910       6   86916   86910       6   86916   86913       7
   86922   86919       6   86925   86919       6   86925   86922       7   86931
   86928       6   86934   86928       6   86934   86931       7   86940   86937
       6   86943   86937       6   86943   86940       7   86949   86946       6
   86952   86946       6   86952   86949       7   86958   86955       6   86961
   86955       6   86961   86958       7   86967   86964       6   86970   86964
       6   86970   86967       7   86976   86973       6   86979   86973       6
   86979   86976       7   86985   86982       6   86988   86982       6   86988
   86985       7   86994   86991       6   86997   86991       6   86997   86994
       7   87003   87000       6   87006   87000       6   87006   87003       7
   87012   87009       6   87015   87009       6   87015   87012       7   87021
   87018       6   87024   87018       6   87024   87021       7   87030   87027
       6   87033   87027       6   87033   87030       7   87039   87036       6
   87042   87036       6   87042   87039       7   87048   87045       6   87051
   87045       6   87051   87048       7   87057   87054       6   87060   87054
       6   87060   87057       7   87066   87063       6   87069   87063       6
   87069   87066       7   87075   87072       6   87078   87072       6   87078
   87075       7   87084   87081       6   87087   87081       6   87087   87084
       7   87093   87090       6   87096   87090       6   87096   87093       7
   87102   87099       6   87105   87099       6   87105   87102       7   87111
   87108       6   87114   87108       6   87114   87111       7   87120   87117
       6   87123   87117       6   87123   87120       7   87129   87126       6
   87132   87126       6   87132   87129       7   87138   87135       6   87141
   87135       6   87141   87138       7   87147   87144       6   87150   87144
       6   87150   87147       7   87156   87153       6   87159   87153       6
   87159   87156       7   87165   87162       6   87168   87162       6   87168
   87165       7   87174   87171       6   87177   87171       6   87177   87174
       7   87183   87180       6   87186   87180       6   87186   87183       7
   87192   87189       6   87195   87189       6   87195   87192       7   87201
   87198       6   87204   87198       6   87204   87201       7   87210   87207
       6   87213   87207       6   87213   87210       7   87219   87216       6
   87222   87216       6   87222   87219       7   87228   87225       6   87231
   87225       6   87231   87228       7   87237   87234       6   87240   87234
       6   87240   87237       7   87246   87243       6   87249   87243       6
   87249   87246       7   87255   87252       6   87258   87252       6   87258
   87255       7   87264   87261       6   87267   87261       6   87267   87264
       7   87273   87270       6   87276   87270       6   87276   87273       7
   87282   87279       6   87285   87279       6   87285   87282       7   87291
   87288       6   87294   87288       6   87294   87291       7   87300   87297
       6   87303   87297       6   87303   87300       7   87309   87306       6
   87312   87306       6   87312   87309       7   87318   87315       6   87321
   87315       6   87321   87318       7   87327   87324       6   87330   87324
       6   87330   87327       7   87336   87333       6   87339   87333       6
   87339   87336       7   87345   87342       6   87348   87342       6   87348
   87345       7   87354   87351       6   87357   87351       6   87357   87354
       7   87363   87360       6   87366   87360       6   87366   87363       7
   87372   87369       6   87375   87369       6   87375   87372       7   87381
   87378       6   87384   87378       6   87384   87381       7   87390   87387
       6   87393   87387       6   87393   87390       7   87399   87396       6
   87402   87396       6   87402   87399       7   87408   87405       6   87411
   87405       6   87411   87408       7   87417   87414       6   87420   87414
       6   87420   87417       7   87426   87423       6   87429   87423       6
   87429   87426       7   87435   87432       6   87438   87432       6   87438
   87435       7   87444   87441       6   87447   87441       6   87447   87444
       7   87453   87450       6   87456   87450       6   87456   87453       7
   87462   87459       6   87465   87459       6   87465   87462       7   87471
   87468       6   87474   87468       6   87474   87471       7   87480   87477
       6   87483   87477       6   87483   87480       7   87489   87486       6
   87492   87486       6   87492   87489       7   87498   87495       6   87501
   87495       6   87501   87498       7   87507   87504       6   87510   87504
       6   87510   87507       7   87516   87513       6   87519   87513       6
   87519   87516       7   87525   87522       6   87528   87522       6   87528
   87525       7   87534   87531       6   87537   87531       6   87537   87534
       7   87543   87540       6   87546   87540       6   87546   87543       7
   87552   87549       6   87555   87549       6   87555   87552       7   87561
   87558       6   87564   87558       6   87564   87561       7   87570   87567
       6   87573   87567       6   87573   87570       7   87579   87576       6
   87582   87576       6   87582   87579       7   87588   87585       6   87591
   87585       6   87591   87588       7   87597   87594       6   87600   87594
       6   87600   87597       7   87606   87603       6   87609   87603       6
   87609   87606       7   87615   87612       6   87618   87612       6   87618
   87615       7   87624   87621       6   87627   87621       6   87627   87624
       7   87633   87630       6   87636   87630       6   87636   87633       7
   87642   87639       6   87645   87639       6   87645   87642       7   87651
   87648       6   87654   87648       6   87654   87651       7   87660   87657
       6   87663   87657       6   87663   87660       7   87669   87666       6
   87672   87666       6   87672   87669       7   87678   87675       6   87681
   87675       6   87681   87678       7   87687   87684       6   87690   87684
       6   87690   87687       7   87696   87693       6   87699   87693       6
   87699   87696       7   87705   87702       6   87708   87702       6   87708
   87705       7   87714   87711       6   87717   87711       6   87717   87714
       7   87723   87720       6   87726   87720       6   87726   87723       7
   87732   87729       6   87735   87729       6   87735   87732       7   87741
   87738       6   87744   87738       6   87744   87741       7   87750   87747
       6   87753   87747       6   87753   87750       7   87759   87756       6
   87762   87756       6   87762   87759       7   87768   87765       6   87771
   87765       6   87771   87768       7   87777   87774       6   87780   87774
       6   87780   87777       7   87786   87783       6   87789   87783       6
   87789   87786       7   87795   87792       6   87798   87792       6   87798
   87795       7   87804   87801       6   87807   87801       6   87807   87804
       7   87813   87810       6   87816   87810       6   87816   87813       7
   87822   87819       6   87825   87819       6   87825   87822       7   87831
   87828       6   87834   87828       6   87834   87831       7   87840   87837
       6   87843   87837       6   87843   87840       7   87849   87846       6
   87852   87846       6   87852   87849       7   87858   87855       6   87861
   87855       6   87861   87858       7   87867   87864       6   87870   87864
       6   87870   87867       7   87876   87873       6   87879   87873       6
   87879   87876       7   87885   87882       6   87888   87882       6   87888
   87885       7   87894   87891       6   87897   87891       6   87897   87894
       7   87903   87900       6   87906   87900       6   87906   87903       7
   87912   87909       6   87915   87909       6   87915   87912       7   87921
   87918       6   87924   87918       6   87924   87921       7   87930   87927
       6   87933   87927       6   87933   87930       7   87939   87936       6
   87942   87936       6   87942   87939       7   87948   87945       6   87951
   87945       6   87951   87948       7   87957   87954       6   87960   87954
       6   87960   87957       7   87966   87963       6   87969   87963       6
   87969   87966       7   87975   87972       6   87978   87972       6   87978
   87975       7   87984   87981       6   87987   87981       6   87987   87984
       7   87993   87990       6   87996   87990       6   87996   87993       7
   88002   87999       6   88005   87999       6   88005   88002       7   88011
   88008       6   88014   88008       6   88014   88011       7   88020   88017
       6   88023   88017       6   88023   88020       7   88029   88026       6
   88032   88026       6   88032   88029       7   88038   88035       6   88041
   88035       6   88041   88038       7   88047   88044       6   88050   88044
       6   88050   88047       7   88056   88053       6   88059   88053       6
   88059   88056       7   88065   88062       6   88068   88062       6   88068
   88065       7   88074   88071       6   88077   88071       6   88077   88074
       7   88083   88080       6   88086   88080       6   88086   88083       7
   88092   88089       6   88095   88089       6   88095   88092       7   88101
   88098       6   88104   88098       6   88104   88101       7   88110   88107
       6   88113   88107       6   88113   88110       7   88119   88116       6
   88122   88116       6   88122   88119       7   88128   88125       6   88131
   88125       6   88131   88128       7   88137   88134       6   88140   88134
       6   88140   88137       7   88146   88143       6   88149   88143       6
   88149   88146       7   88155   88152       6   88158   88152       6   88158
   88155       7   88164   88161       6   88167   88161       6   88167   88164
       7   88173   88170       6   88176   88170       6   88176   88173       7
   88182   88179       6   88185   88179       6   88185   88182       7   88191
   88188       6   88194   88188       6   88194   88191       7   88200   88197
       6   88203   88197       6   88203   88200       7   88209   88206       6
   88212   88206       6   88212   88209       7   88218   88215       6   88221
   88215       6   88221   88218       7   88227   88224       6   88230   88224
       6   88230   88227       7   88236   88233       6   88239   88233       6
   88239   88236       7   88245   88242       6   88248   88242       6   88248
   88245       7   88254   88251       6   88257   88251       6   88257   88254
       7   88263   88260       6   88266   88260       6   88266   88263       7
   88272   88269       6   88275   88269       6   88275   88272       7   88281
   88278       6   88284   88278       6   88284   88281       7   88290   88287
       6   88293   88287       6   88293   88290       7   88299   88296       6
   88302   88296       6   88302   88299       7   88308   88305       6   88311
   88305       6   88311   88308       7   88317   88314       6   88320   88314
       6   88320   88317       7   88326   88323       6   88329   88323       6
   88329   88326       7   88335   88332       6   88338   88332       6   88338
   88335       7   88344   88341       6   88347   88341       6   88347   88344
       7   88353   88350       6   88356   88350       6   88356   88353       7
   88362   88359       6   88365   88359       6   88365   88362       7   88371
   88368       6   88374   88368       6   88374   88371       7   88380   88377
       6   88383   88377       6   88383   88380       7   88389   88386       6
   88392   88386       6   88392   88389       7   88398   88395       6   88401
   88395       6   88401   88398       7   88407   88404       6   88410   88404
       6   88410   88407       7   88416   88413       6   88419   88413       6
   88419   88416       7   88425   88422       6   88428   88422       6   88428
   88425       7   88434   88431       6   88437   88431       6   88437   88434
       7   88443   88440       6   88446   88440       6   88446   88443       7
   88452   88449       6   88455   88449       6   88455   88452       7   88461
   88458       6   88464   88458       6   88464   88461       7   88470   88467
       6   88473   88467       6   88473   88470       7   88479   88476       6
   88482   88476       6   88482   88479       7   88488   88485       6   88491
   88485       6   88491   88488       7   88497   88494       6   88500   88494
       6   88500   88497       7   88506   88503       6   88509   88503       6
   88509   88506       7   88515   88512       6   88518   88512       6   88518
   88515       7   88524   88521       6   88527   88521       6   88527   88524
       7   88533   88530       6   88536   88530       6   88536   88533       7
   88542   88539       6   88545   88539       6   88545   88542       7   88551
   88548       6   88554   88548       6   88554   88551       7   88560   88557
       6   88563   88557       6   88563   88560       7   88569   88566       6
   88572   88566       6   88572   88569       7   88578   88575       6   88581
   88575       6   88581   88578       7   88587   88584       6   88590   88584
       6   88590   88587       7   88596   88593       6   88599   88593       6
   88599   88596       7   88605   88602       6   88608   88602       6   88608
   88605       7   88614   88611       6   88617   88611       6   88617   88614
       7   88623   88620       6   88626   88620       6   88626   88623       7
   88632   88629       6   88635   88629       6   88635   88632       7   88641
   88638       6   88644   88638       6   88644   88641       7   88650   88647
       6   88653   88647       6   88653   88650       7   88659   88656       6
   88662   88656       6   88662   88659       7   88668   88665       6   88671
   88665       6   88671   88668       7   88677   88674       6   88680   88674
       6   88680   88677       7   88686   88683       6   88689   88683       6
   88689   88686       7   88695   88692       6   88698   88692       6   88698
   88695       7   88704   88701       6   88707   88701       6   88707   88704
       7   88713   88710       6   88716   88710       6   88716   88713       7
   88722   88719       6   88725   88719       6   88725   88722       7   88731
   88728       6   88734   88728       6   88734   88731       7   88740   88737
       6   88743   88737       6   88743   88740       7   88749   88746       6
   88752   88746       6   88752   88749       7   88758   88755       6   88761
   88755       6   88761   88758       7   88767   88764       6   88770   88764
       6   88770   88767       7   88776   88773       6   88779   88773       6
   88779   88776       7   88785   88782       6   88788   88782       6   88788
   88785       7   88794   88791       6   88797   88791       6   88797   88794
       7   88803   88800       6   88806   88800       6   88806   88803       7
   88812   88809       6   88815   88809       6   88815   88812       7   88821
   88818       6   88824   88818       6   88824   88821       7   88830   88827
       6   88833   88827       6   88833   88830       7   88839   88836       6
   88842   88836       6   88842   88839       7   88848   88845       6   88851
   88845       6   88851   88848       7   88857   88854       6   88860   88854
       6   88860   88857       7   88866   88863       6   88869   88863       6
   88869   88866       7   88875   88872       6   88878   88872       6   88878
   88875       7   88884   88881       6   88887   88881       6   88887   88884
       7   88893   88890       6   88896   88890       6   88896   88893       7
   88902   88899       6   88905   88899       6   88905   88902       7   88911
   88908       6   88914   88908       6   88914   88911       7   88920   88917
       6   88923   88917       6   88923   88920       7   88929   88926       6
   88932   88926       6   88932   88929       7   88938   88935       6   88941
   88935       6   88941   88938       7   88947   88944       6   88950   88944
       6   88950   88947       7   88956   88953       6   88959   88953       6
   88959   88956       7   88965   88962       6   88968   88962       6   88968
   88965       7   88974   88971       6   88977   88971       6   88977   88974
       7   88983   88980       6   88986   88980       6   88986   88983       7
   88992   88989       6   88995   88989       6   88995   88992       7   89001
   88998       6   89004   88998       6   89004   89001       7   89010   89007
       6   89013   89007       6   89013   89010       7   89019   89016       6
   89022   89016       6   89022   89019       7   89028   89025       6   89031
   89025       6   89031   89028       7   89037   89034       6   89040   89034
       6   89040   89037       7   89046   89043       6   89049   89043       6
   89049   89046       7   89055   89052       6   89058   89052       6   89058
   89055       7   89064   89061       6   89067   89061       6   89067   89064
       7   89073   89070       6   89076   89070       6   89076   89073       7
   89082   89079       6   89085   89079       6   89085   89082       7   89091
   89088       6   89094   89088       6   89094   89091       7   89100   89097
       6   89103   89097       6   89103   89100       7   89109   89106       6
   89112   89106       6   89112   89109       7   89118   89115       6   89121
   89115       6   89121   89118       7   89127   89124       6   89130   89124
       6   89130   89127       7   89136   89133       6   89139   89133       6
   89139   89136       7   89145   89142       6   89148   89142       6   89148
   89145       7   89154   89151       6   89157   89151       6   89157   89154
       7   89163   89160       6   89166   89160       6   89166   89163       7
   89172   89169       6   89175   89169       6   89175   89172       7   89181
   89178       6   89184   89178       6   89184   89181       7   89190   89187
       6   89193   89187       6   89193   89190       7   89199   89196       6
   89202   89196       6   89202   89199       7   89208   89205       6   89211
   89205       6   89211   89208       7   89217   89214       6   89220   89214
       6   89220   89217       7   89226   89223       6   89229   89223       6
   89229   89226       7   89235   89232       6   89238   89232       6   89238
   89235       7   89244   89241       6   89247   89241       6   89247   89244
       7   89253   89250       6   89256   89250       6   89256   89253       7
   89262   89259       6   89265   89259       6   89265   89262       7   89271
   89268       6   89274   89268       6   89274   89271       7   89280   89277
       6   89283   89277       6   89283   89280       7   89289   89286       6
   89292   89286       6   89292   89289       7   89298   89295       6   89301
   89295       6   89301   89298       7   89307   89304       6   89310   89304
       6   89310   89307       7   89316   89313       6   89319   89313       6
   89319   89316       7   89325   89322       6   89328   89322       6   89328
   89325       7   89334   89331       6   89337   89331       6   89337   89334
       7   89343   89340       6   89346   89340       6   89346   89343       7
   89352   89349       6   89355   89349       6   89355   89352       7   89361
   89358       6   89364   89358       6   89364   89361       7   89370   89367
       6   89373   89367       6   89373   89370       7   89379   89376       6
   89382   89376       6   89382   89379       7   89388   89385       6   89391
   89385       6   89391   89388       7   89397   89394       6   89400   89394
       6   89400   89397       7   89406   89403       6   89409   89403       6
   89409   89406       7   89415   89412       6   89418   89412       6   89418
   89415       7   89424   89421       6   89427   89421       6   89427   89424
       7   89433   89430       6   89436   89430       6   89436   89433       7
   89442   89439       6   89445   89439       6   89445   89442       7   89451
   89448       6   89454   89448       6   89454   89451       7   89460   89457
       6   89463   89457       6   89463   89460       7   89469   89466       6
   89472   89466       6   89472   89469       7   89478   89475       6   89481
   89475       6   89481   89478       7   89487   89484       6   89490   89484
       6   89490   89487       7   89496   89493       6   89499   89493       6
   89499   89496       7   89505   89502       6   89508   89502       6   89508
   89505       7   89514   89511       6   89517   89511       6   89517   89514
       7   89523   89520       6   89526   89520       6   89526   89523       7
   89532   89529       6   89535   89529       6   89535   89532       7   89541
   89538       6   89544   89538       6   89544   89541       7   89550   89547
       6   89553   89547       6   89553   89550       7   89559   89556       6
   89562   89556       6   89562   89559       7   89568   89565       6   89571
   89565       6   89571   89568       7   89577   89574       6   89580   89574
       6   89580   89577       7   89586   89583       6   89589   89583       6
   89589   89586       7   89595   89592       6   89598   89592       6   89598
   89595       7   89604   89601       6   89607   89601       6   89607   89604
       7   89613   89610       6   89616   89610       6   89616   89613       7
   89622   89619       6   89625   89619       6   89625   89622       7   89631
   89628       6   89634   89628       6   89634   89631       7   89640   89637
       6   89643   89637       6   89643   89640       7   89649   89646       6
   89652   89646       6   89652   89649       7   89658   89655       6   89661
   89655       6   89661   89658       7   89667   89664       6   89670   89664
       6   89670   89667       7   89676   89673       6   89679   89673       6
   89679   89676       7   89685   89682       6   89688   89682       6   89688
   89685       7   89694   89691       6   89697   89691       6   89697   89694
       7   89703   89700       6   89706   89700       6   89706   89703       7
   89712   89709       6   89715   89709       6   89715   89712       7   89721
   89718       6   89724   89718       6   89724   89721       7   89730   89727
       6   89733   89727       6   89733   89730       7   89739   89736       6
   89742   89736       6   89742   89739       7   89748   89745       6   89751
   89745       6   89751   89748       7   89757   89754       6   89760   89754
       6   89760   89757       7   89766   89763       6   89769   89763       6
   89769   89766       7   89775   89772       6   89778   89772       6   89778
   89775       7   89784   89781       6   89787   89781       6   89787   89784
       7   89793   89790       6   89796   89790       6   89796   89793       7
   89802   89799       6   89805   89799       6   89805   89802       7   89811
   89808       6   89814   89808       6   89814   89811       7   89820   89817
       6   89823   89817       6   89823   89820       7   89829   89826       6
   89832   89826       6   89832   89829       7   89838   89835       6   89841
   89835       6   89841   89838       7   89847   89844       6   89850   89844
       6   89850   89847       7   89856   89853       6   89859   89853       6
   89859   89856       7   89865   89862       6   89868   89862       6   89868
   89865       7   89874   89871       6   89877   89871       6   89877   89874
       7   89883   89880       6   89886   89880       6   89886   89883       7
   89892   89889       6   89895   89889       6   89895   89892       7   89901
   89898       6   89904   89898       6   89904   89901       7   89910   89907
       6   89913   89907       6   89913   89910       7   89919   89916       6
   89922   89916       6   89922   89919       7   89928   89925       6   89931
   89925       6   89931   89928       7   89937   89934       6   89940   89934
       6   89940   89937       7   89946   89943       6   89949   89943       6
   89949   89946       7   89955   89952       6   89958   89952       6   89958
   89955       7   89964   89961       6   89967   89961       6   89967   89964
       7   89973   89970       6   89976   89970       6   89976   89973       7
   89982   89979       6   89985   89979       6   89985   89982       7   89991
   89988       6   89994   89988       6   89994   89991       7   90000   89997
       6   90003   89997       6   90003   90000       7   90009   90006       6
   90012   90006       6   90012   90009       7   90018   90015       6   90021
   90015       6   90021   90018       7   90027   90024       6   90030   90024
       6   90030   90027       7   90036   90033       6   90039   90033       6
   90039   90036       7   90045   90042       6   90048   90042       6   90048
   90045       7   90054   90051       6   90057   90051       6   90057   90054
       7   90063   90060       6   90066   90060       6   90066   90063       7
   90072   90069       6   90075   90069       6   90075   90072       7   90081
   90078       6   90084   90078       6   90084   90081       7   90090   90087
       6   90093   90087       6   90093   90090       7   90099   90096       6
   90102   90096       6   90102   90099       7   90108   90105       6   90111
   90105       6   90111   90108       7   90117   90114       6   90120   90114
       6   90120   90117       7   90126   90123       6   90129   90123       6
   90129   90126       7   90135   90132       6   90138   90132       6   90138
   90135       7   90144   90141       6   90147   90141       6   90147   90144
       7   90153   90150       6   90156   90150       6   90156   90153       7
   90162   90159       6   90165   90159       6   90165   90162       7   90171
   90168       6   90174   90168       6   90174   90171       7   90180   90177
       6   90183   90177       6   90183   90180       7   90189   90186       6
   90192   90186       6   90192   90189       7   90198   90195       6   90201
   90195       6   90201   90198       7   90207   90204       6   90210   90204
       6   90210   90207       7   90216   90213       6   90219   90213       6
   90219   90216       7   90225   90222       6   90228   90222       6   90228
   90225       7   90234   90231       6   90237   90231       6   90237   90234
       7   90243   90240       6   90246   90240       6   90246   90243       7
   90252   90249       6   90255   90249       6   90255   90252       7   90261
   90258       6   90264   90258       6   90264   90261       7   90270   90267
       6   90273   90267       6   90273   90270       7   90279   90276       6
   90282   90276       6   90282   90279       7   90288   90285       6   90291
   90285       6   90291   90288       7   90297   90294       6   90300   90294
       6   90300   90297       7   90306   90303       6   90309   90303       6
   90309   90306       7   90315   90312       6   90318   90312       6   90318
   90315       7   90324   90321       6   90327   90321       6   90327   90324
       7   90333   90330       6   90336   90330       6   90336   90333       7
   90342   90339       6   90345   90339       6   90345   90342       7   90351
   90348       6   90354   90348       6   90354   90351       7   90360   90357
       6   90363   90357       6   90363   90360       7   90369   90366       6
   90372   90366       6   90372   90369       7   90378   90375       6   90381
   90375       6   90381   90378       7   90387   90384       6   90390   90384
       6   90390   90387       7   90396   90393       6   90399   90393       6
   90399   90396       7   90405   90402       6   90408   90402       6   90408
   90405       7   90414   90411       6   90417   90411       6   90417   90414
       7   90423   90420       6   90426   90420       6   90426   90423       7
   90432   90429       6   90435   90429       6   90435   90432       7   90441
   90438       6   90444   90438       6   90444   90441       7   90450   90447
       6   90453   90447       6   90453   90450       7   90459   90456       6
   90462   90456       6   90462   90459       7   90468   90465       6   90471
   90465       6   90471   90468       7   90477   90474       6   90480   90474
       6   90480   90477       7   90486   90483       6   90489   90483       6
   90489   90486       7   90495   90492       6   90498   90492       6   90498
   90495       7   90504   90501       6   90507   90501       6   90507   90504
       7   90513   90510       6   90516   90510       6   90516   90513       7
   90522   90519       6   90525   90519       6   90525   90522       7   90531
   90528       6   90534   90528       6   90534   90531       7   90540   90537
       6   90543   90537       6   90543   90540       7   90549   90546       6
   90552   90546       6   90552   90549       7   90558   90555       6   90561
   90555       6   90561   90558       7   90567   90564       6   90570   90564
       6   90570   90567       7   90576   90573       6   90579   90573       6
   90579   90576       7   90585   90582       6   90588   90582       6   90588
   90585       7   90594   90591       6   90597   90591       6   90597   90594
       7   90603   90600       6   90606   90600       6   90606   90603       7
   90612   90609       6   90615   90609       6   90615   90612       7   90621
   90618       6   90624   90618       6   90624   90621       7   90630   90627
       6   90633   90627       6   90633   90630       7   90639   90636       6
   90642   90636       6   90642   90639       7   90648   90645       6   90651
   90645       6   90651   90648       7   90657   90654       6   90660   90654
       6   90660   90657       7   90666   90663       6   90669   90663       6
   90669   90666       7   90675   90672       6   90678   90672       6   90678
   90675       7   90684   90681       6   90687   90681       6   90687   90684
       7   90693   90690       6   90696   90690       6   90696   90693       7
   90702   90699       6   90705   90699       6   90705   90702       7   90711
   90708       6   90714   90708       6   90714   90711       7   90720   90717
       6   90723   90717       6   90723   90720       7   90729   90726       6
   90732   90726       6   90732   90729       7   90738   90735       6   90741
   90735       6   90741   90738       7   90747   90744       6   90750   90744
       6   90750   90747       7   90756   90753       6   90759   90753       6
   90759   90756       7   90765   90762       6   90768   90762       6   90768
   90765       7   90774   90771       6   90777   90771       6   90777   90774
       7   90783   90780       6   90786   90780       6   90786   90783       7
   90792   90789       6   90795   90789       6   90795   90792       7   90801
   90798       6   90804   90798       6   90804   90801       7   90810   90807
       6   90813   90807       6   90813   90810       7   90819   90816       6
   90822   90816       6   90822   90819       7   90828   90825       6   90831
   90825       6   90831   90828       7   90837   90834       6   90840   90834
       6   90840   90837       7   90846   90843       6   90849   90843       6
   90849   90846       7   90855   90852       6   90858   90852       6   90858
   90855       7   90864   90861       6   90867   90861       6   90867   90864
       7   90873   90870       6   90876   90870       6   90876   90873       7
   90882   90879       6   90885   90879       6   90885   90882       7   90891
   90888       6   90894   90888       6   90894   90891       7   90900   90897
       6   90903   90897       6   90903   90900       7   90909   90906       6
   90912   90906       6   90912   90909       7   90918   90915       6   90921
   90915       6   90921   90918       7   90927   90924       6   90930   90924
       6   90930   90927       7   90936   90933       6   90939   90933       6
   90939   90936       7   90945   90942       6   90948   90942       6   90948
   90945       7   90954   90951       6   90957   90951       6   90957   90954
       7   90963   90960       6   90966   90960       6   90966   90963       7
   90972   90969       6   90975   90969       6   90975   90972       7   90981
   90978       6   90984   90978       6   90984   90981       7   90990   90987
       6   90993   90987       6   90993   90990       7   90999   90996       6
   91002   90996       6   91002   90999       7   91008   91005       6   91011
   91005       6   91011   91008       7   91017   91014       6   91020   91014
       6   91020   91017       7   91026   91023       6   91029   91023       6
   91029   91026       7   91035   91032       6   91038   91032       6   91038
   91035       7   91044   91041       6   91047   91041       6   91047   91044
       7   91053   91050       6   91056   91050       6   91056   91053       7
   91062   91059       6   91065   91059       6   91065   91062       7   91071
   91068       6   91074   91068       6   91074   91071       7   91080   91077
       6   91083   91077       6   91083   91080       7   91089   91086       6
   91092   91086       6   91092   91089       7   91098   91095       6   91101
   91095       6   91101   91098       7   91107   91104       6   91110   91104
       6   91110   91107       7   91116   91113       6   91119   91113       6
   91119   91116       7   91125   91122       6   91128   91122       6   91128
   91125       7   91134   91131       6   91137   91131       6   91137   91134
       7   91143   91140       6   91146   91140       6   91146   91143       7
   91152   91149       6   91155   91149       6   91155   91152       7   91161
   91158       6   91164   91158       6   91164   91161       7   91170   91167
       6   91173   91167       6   91173   91170       7   91179   91176       6
   91182   91176       6   91182   91179       7   91188   91185       6   91191
   91185       6   91191   91188       7   91197   91194       6   91200   91194
       6   91200   91197       7   91206   91203       6   91209   91203       6
   91209   91206       7   91215   91212       6   91218   91212       6   91218
   91215       7   91224   91221       6   91227   91221       6   91227   91224
       7   91233   91230       6   91236   91230       6   91236   91233       7
   91242   91239       6   91245   91239       6   91245   91242       7   91251
   91248       6   91254   91248       6   91254   91251       7   91260   91257
       6   91263   91257       6   91263   91260       7   91269   91266       6
   91272   91266       6   91272   91269       7   91278   91275       6   91281
   91275       6   91281   91278       7   91287   91284       6   91290   91284
       6   91290   91287       7   91296   91293       6   91299   91293       6
   91299   91296       7   91305   91302       6   91308   91302       6   91308
   91305       7   91314   91311       6   91317   91311       6   91317   91314
       7   91323   91320       6   91326   91320       6   91326   91323       7
   91332   91329       6   91335   91329       6   91335   91332       7   91341
   91338       6   91344   91338       6   91344   91341       7   91350   91347
       6   91353   91347       6   91353   91350       7   91359   91356       6
   91362   91356       6   91362   91359       7   91368   91365       6   91371
   91365       6   91371   91368       7   91377   91374       6   91380   91374
       6   91380   91377       7   91386   91383       6   91389   91383       6
   91389   91386       7   91395   91392       6   91398   91392       6   91398
   91395       7   91404   91401       6   91407   91401       6   91407   91404
       7   91413   91410       6   91416   91410       6   91416   91413       7
   91422   91419       6   91425   91419       6   91425   91422       7   91431
   91428       6   91434   91428       6   91434   91431       7   91440   91437
       6   91443   91437       6   91443   91440       7   91449   91446       6
   91452   91446       6   91452   91449       7   91458   91455       6   91461
   91455       6   91461   91458       7   91467   91464       6   91470   91464
       6   91470   91467       7   91476   91473       6   91479   91473       6
   91479   91476       7   91485   91482       6   91488   91482       6   91488
   91485       7   91494   91491       6   91497   91491       6   91497   91494
       7   91503   91500       6   91506   91500       6   91506   91503       7
   91512   91509       6   91515   91509       6   91515   91512       7   91521
   91518       6   91524   91518       6   91524   91521       7   91530   91527
       6   91533   91527       6   91533   91530       7   91539   91536       6
   91542   91536       6   91542   91539       7   91548   91545       6   91551
   91545       6   91551   91548       7   91557   91554       6   91560   91554
       6   91560   91557       7   91566   91563       6   91569   91563       6
   91569   91566       7   91575   91572       6   91578   91572       6   91578
   91575       7   91584   91581       6   91587   91581       6   91587   91584
       7   91593   91590       6   91596   91590       6   91596   91593       7
   91602   91599       6   91605   91599       6   91605   91602       7   91611
   91608       6   91614   91608       6   91614   91611       7   91620   91617
       6   91623   91617       6   91623   91620       7   91629   91626       6
   91632   91626       6   91632   91629       7   91638   91635       6   91641
   91635       6   91641   91638       7   91647   91644       6   91650   91644
       6   91650   91647       7   91656   91653       6   91659   91653       6
   91659   91656       7   91665   91662       6   91668   91662       6   91668
   91665       7   91674   91671       6   91677   91671       6   91677   91674
       7   91683   91680       6   91686   91680       6   91686   91683       7
   91692   91689       6   91695   91689       6   91695   91692       7   91701
   91698       6   91704   91698       6   91704   91701       7   91710   91707
       6   91713   91707       6   91713   91710       7   91719   91716       6
   91722   91716       6   91722   91719       7   91728   91725       6   91731
   91725       6   91731   91728       7   91737   91734       6   91740   91734
       6   91740   91737       7   91746   91743       6   91749   91743       6
   91749   91746       7   91755   91752       6   91758   91752       6   91758
   91755       7   91764   91761       6   91767   91761       6   91767   91764
       7   91773   91770       6   91776   91770       6   91776   91773       7
   91782   91779       6   91785   91779       6   91785   91782       7   91791
   91788       6   91794   91788       6   91794   91791       7   91800   91797
       6   91803   91797       6   91803   91800       7   91809   91806       6
   91812   91806       6   91812   91809       7   91818   91815       6   91821
   91815       6   91821   91818       7   91827   91824       6   91830   91824
       6   91830   91827       7   91836   91833       6   91839   91833       6
   91839   91836       7   91845   91842       6   91848   91842       6   91848
   91845       7   91854   91851       6   91857   91851       6   91857   91854
       7   91863   91860       6   91866   91860       6   91866   91863       7
   91872   91869       6   91875   91869       6   91875   91872       7   91881
   91878       6   91884   91878       6   91884   91881       7   91890   91887
       6   91893   91887       6   91893   91890       7   91899   91896       6
   91902   91896       6   91902   91899       7   91908   91905       6   91911
   91905       6   91911   91908       7   91917   91914       6   91920   91914
       6   91920   91917       7   91926   91923       6   91929   91923       6
   91929   91926       7   91935   91932       6   91938   91932       6   91938
   91935       7   91944   91941       6   91947   91941       6   91947   91944
       7   91953   91950       6   91956   91950       6   91956   91953       7
   91962   91959       6   91965   91959       6   91965   91962       7   91971
   91968       6   91974   91968       6   91974   91971       7   91980   91977
       6   91983   91977       6   91983   91980       7   91989   91986       6
   91992   91986       6   91992   91989       7   91998   91995       6   92001
   91995       6   92001   91998       7   92007   92004       6   92010   92004
       6   92010   92007       7   92016   92013       6   92019   92013       6
   92019   92016       7   92025   92022       6   92028   92022       6   92028
   92025       7   92034   92031       6   92037   92031       6   92037   92034
       7   92043   92040       6   92046   92040       6   92046   92043       7
   92052   92049       6   92055   92049       6   92055   92052       7   92061
   92058       6   92064   92058       6   92064   92061       7   92070   92067
       6   92073   92067       6   92073   92070       7   92079   92076       6
   92082   92076       6   92082   92079       7   92088   92085       6   92091
   92085       6   92091   92088       7   92097   92094       6   92100   92094
       6   92100   92097       7   92106   92103       6   92109   92103       6
   92109   92106       7   92115   92112       6   92118   92112       6   92118
   92115       7   92124   92121       6   92127   92121       6   92127   92124
       7   92133   92130       6   92136   92130       6   92136   92133       7
   92142   92139       6   92145   92139       6   92145   92142       7   92151
   92148       6   92154   92148       6   92154   92151       7   92160   92157
       6   92163   92157       6   92163   92160       7   92169   92166       6
   92172   92166       6   92172   92169       7   92178   92175       6   92181
   92175       6   92181   92178       7   92187   92184       6   92190   92184
       6   92190   92187       7   92196   92193       6   92199   92193       6
   92199   92196       7   92205   92202       6   92208   92202       6   92208
   92205       7   92214   92211       6   92217   92211       6   92217   92214
       7   92223   92220       6   92226   92220       6   92226   92223       7
   92232   92229       6   92235   92229       6   92235   92232       7   92241
   92238       6   92244   92238       6   92244   92241       7   92250   92247
       6   92253   92247       6   92253   92250       7   92259   92256       6
   92262   92256       6   92262   92259       7   92268   92265       6   92271
   92265       6   92271   92268       7   92277   92274       6   92280   92274
       6   92280   92277       7   92286   92283       6   92289   92283       6
   92289   92286       7   92295   92292       6   92298   92292       6   92298
   92295       7   92304   92301       6   92307   92301       6   92307   92304
       7   92313   92310       6   92316   92310       6   92316   92313       7
   92322   92319       6   92325   92319       6   92325   92322       7   92331
   92328       6   92334   92328       6   92334   92331       7   92340   92337
       6   92343   92337       6   92343   92340       7   92349   92346       6
   92352   92346       6   92352   92349       7   92358   92355       6   92361
   92355       6   92361   92358       7   92367   92364       6   92370   92364
       6   92370   92367       7   92376   92373       6   92379   92373       6
   92379   92376       7   92385   92382       6   92388   92382       6   92388
   92385       7   92394   92391       6   92397   92391       6   92397   92394
       7   92403   92400       6   92406   92400       6   92406   92403       7
   92412   92409       6   92415   92409       6   92415   92412       7   92421
   92418       6   92424   92418       6   92424   92421       7   92430   92427
       6   92433   92427       6   92433   92430       7   92439   92436       6
   92442   92436       6   92442   92439       7   92448   92445       6   92451
   92445       6   92451   92448       7   92457   92454       6   92460   92454
       6   92460   92457       7   92466   92463       6   92469   92463       6
   92469   92466       7   92475   92472       6   92478   92472       6   92478
   92475       7   92484   92481       6   92487   92481       6   92487   92484
       7   92493   92490       6   92496   92490       6   92496   92493       7
   92502   92499       6   92505   92499       6   92505   92502       7   92511
   92508       6   92514   92508       6   92514   92511       7   92520   92517
       6   92523   92517       6   92523   92520       7   92529   92526       6
   92532   92526       6   92532   92529       7   92538   92535       6   92541
   92535       6   92541   92538       7   92547   92544       6   92550   92544
       6   92550   92547       7   92556   92553       6   92559   92553       6
   92559   92556       7   92565   92562       6   92568   92562       6   92568
   92565       7   92574   92571       6   92577   92571       6   92577   92574
       7   92583   92580       6   92586   92580       6   92586   92583       7
   92592   92589       6   92595   92589       6   92595   92592       7   92601
   92598       6   92604   92598       6   92604   92601       7   92610   92607
       6   92613   92607       6   92613   92610       7   92619   92616       6
   92622   92616       6   92622   92619       7   92628   92625       6   92631
   92625       6   92631   92628       7   92637   92634       6   92640   92634
       6   92640   92637       7   92646   92643       6   92649   92643       6
   92649   92646       7   92655   92652       6   92658   92652       6   92658
   92655       7   92664   92661       6   92667   92661       6   92667   92664
       7   92673   92670       6   92676   92670       6   92676   92673       7
   92682   92679       6   92685   92679       6   92685   92682       7   92691
   92688       6   92694   92688       6   92694   92691       7   92700   92697
       6   92703   92697       6   92703   92700       7   92709   92706       6
   92712   92706       6   92712   92709       7   92718   92715       6   92721
   92715       6   92721   92718       7   92727   92724       6   92730   92724
       6   92730   92727       7   92736   92733       6   92739   92733       6
   92739   92736       7   92745   92742       6   92748   92742       6   92748
   92745       7   92754   92751       6   92757   92751       6   92757   92754
       7   92763   92760       6   92766   92760       6   92766   92763       7
   92772   92769       6   92775   92769       6   92775   92772       7   92781
   92778       6   92784   92778       6   92784   92781       7   92790   92787
       6   92793   92787       6   92793   92790       7   92799   92796       6
   92802   92796       6   92802   92799       7   92808   92805       6   92811
   92805       6   92811   92808       7   92817   92814       6   92820   92814
       6   92820   92817       7   92826   92823       6   92829   92823       6
   92829   92826       7   92835   92832       6   92838   92832       6   92838
   92835       7   92844   92841       6   92847   92841       6   92847   92844
       7   92853   92850       6   92856   92850       6   92856   92853       7
   92862   92859       6   92865   92859       6   92865   92862       7   92871
   92868       6   92874   92868       6   92874   92871       7   92880   92877
       6   92883   92877       6   92883   92880       7   92889   92886       6
   92892   92886       6   92892   92889       7   92898   92895       6   92901
   92895       6   92901   92898       7   92907   92904       6   92910   92904
       6   92910   92907       7   92916   92913       6   92919   92913       6
   92919   92916       7   92925   92922       6   92928   92922       6   92928
   92925       7   92934   92931       6   92937   92931       6   92937   92934
       7   92943   92940       6   92946   92940       6   92946   92943       7
   92952   92949       6   92955   92949       6   92955   92952       7   92961
   92958       6   92964   92958       6   92964   92961       7   92970   92967
       6   92973   92967       6   92973   92970       7   92979   92976       6
   92982   92976       6   92982   92979       7   92988   92985       6   92991
   92985       6   92991   92988       7   92997   92994       6   93000   92994
       6   93000   92997       7   93006   93003       6   93009   93003       6
   93009   93006       7   93015   93012       6   93018   93012       6   93018
   93015       7   93024   93021       6   93027   93021       6   93027   93024
       7   93033   93030       6   93036   93030       6   93036   93033       7
   93042   93039       6   93045   93039       6   93045   93042       7   93051
   93048       6   93054   93048       6   93054   93051       7   93060   93057
       6   93063   93057       6   93063   93060       7   93069   93066       6
   93072   93066       6   93072   93069       7   93078   93075       6   93081
   93075       6   93081   93078       7   93087   93084       6   93090   93084
       6   93090   93087       7   93096   93093       6   93099   93093       6
   93099   93096       7   93105   93102       6   93108   93102       6   93108
   93105       7   93114   93111       6   93117   93111       6   93117   93114
       7   93123   93120       6   93126   93120       6   93126   93123       7
   93132   93129       6   93135   93129       6   93135   93132       7   93141
   93138       6   93144   93138       6   93144   93141       7   93150   93147
       6   93153   93147       6   93153   93150       7   93159   93156       6
   93162   93156       6   93162   93159       7   93168   93165       6   93171
   93165       6   93171   93168       7   93177   93174       6   93180   93174
       6   93180   93177       7   93186   93183       6   93189   93183       6
   93189   93186       7   93195   93192       6   93198   93192       6   93198
   93195       7   93204   93201       6   93207   93201       6   93207   93204
       7   93213   93210       6   93216   93210       6   93216   93213       7
   93222   93219       6   93225   93219       6   93225   93222       7   93231
   93228       6   93234   93228       6   93234   93231       7   93240   93237
       6   93243   93237       6   93243   93240       7   93249   93246       6
   93252   93246       6   93252   93249       7   93258   93255       6   93261
   93255       6   93261   93258       7   93267   93264       6   93270   93264
       6   93270   93267       7   93276   93273       6   93279   93273       6
   93279   93276       7   93285   93282       6   93288   93282       6   93288
   93285       7   93294   93291       6   93297   93291       6   93297   93294
       7   93303   93300       6   93306   93300       6   93306   93303       7
   93312   93309       6   93315   93309       6   93315   93312       7   93321
   93318       6   93324   93318       6   93324   93321       7   93330   93327
       6   93333   93327       6   93333   93330       7   93339   93336       6
   93342   93336       6   93342   93339       7   93348   93345       6   93351
   93345       6   93351   93348       7   93357   93354       6   93360   93354
       6   93360   93357       7   93366   93363       6   93369   93363       6
   93369   93366       7   93375   93372       6   93378   93372       6   93378
   93375       7   93384   93381       6   93387   93381       6   93387   93384
       7   93393   93390       6   93396   93390       6   93396   93393       7
   93402   93399       6   93405   93399       6   93405   93402       7   93411
   93408       6   93414   93408       6   93414   93411       7   93420   93417
       6   93423   93417       6   93423   93420       7   93429   93426       6
   93432   93426       6   93432   93429       7   93438   93435       6   93441
   93435       6   93441   93438       7   93447   93444       6   93450   93444
       6   93450   93447       7   93456   93453       6   93459   93453       6
   93459   93456       7   93465   93462       6   93468   93462       6   93468
   93465       7   93474   93471       6   93477   93471       6   93477   93474
       7   93483   93480       6   93486   93480       6   93486   93483       7
   93492   93489       6   93495   93489       6   93495   93492       7   93501
   93498       6   93504   93498       6   93504   93501       7   93510   93507
       6   93513   93507       6   93513   93510       7   93519   93516       6
   93522   93516       6   93522   93519       7   93528   93525       6   93531
   93525       6   93531   93528       7   93537   93534       6   93540   93534
       6   93540   93537       7   93546   93543       6   93549   93543       6
   93549   93546       7   93555   93552       6   93558   93552       6   93558
   93555       7   93564   93561       6   93567   93561       6   93567   93564
       7   93573   93570       6   93576   93570       6   93576   93573       7
   93582   93579       6   93585   93579       6   93585   93582       7   93591
   93588       6   93594   93588       6   93594   93591       7   93600   93597
       6   93603   93597       6   93603   93600       7   93609   93606       6
   93612   93606       6   93612   93609       7   93618   93615       6   93621
   93615       6   93621   93618       7   93627   93624       6   93630   93624
       6   93630   93627       7   93636   93633       6   93639   93633       6
   93639   93636       7   93645   93642       6   93648   93642       6   93648
   93645       7   93654   93651       6   93657   93651       6   93657   93654
       7   93663   93660       6   93666   93660       6   93666   93663       7
   93672   93669       6   93675   93669       6   93675   93672       7   93681
   93678       6   93684   93678       6   93684   93681       7   93690   93687
       6   93693   93687       6   93693   93690       7   93699   93696       6
   93702   93696       6   93702   93699       7   93708   93705       6   93711
   93705       6   93711   93708       7   93717   93714       6   93720   93714
       6   93720   93717       7   93726   93723       6   93729   93723       6
   93729   93726       7   93735   93732       6   93738   93732       6   93738
   93735       7   93744   93741       6   93747   93741       6   93747   93744
       7   93753   93750       6   93756   93750       6   93756   93753       7
   93762   93759       6   93765   93759       6   93765   93762       7   93771
   93768       6   93774   93768       6   93774   93771       7   93780   93777
       6   93783   93777       6   93783   93780       7   93789   93786       6
   93792   93786       6   93792   93789       7   93798   93795       6   93801
   93795       6   93801   93798       7   93807   93804       6   93810   93804
       6   93810   93807       7   93816   93813       6   93819   93813       6
   93819   93816       7   93825   93822       6   93828   93822       6   93828
   93825       7   93834   93831       6   93837   93831       6   93837   93834
       7   93843   93840       6   93846   93840       6   93846   93843       7
   93852   93849       6   93855   93849       6   93855   93852       7   93861
   93858       6   93864   93858       6   93864   93861       7   93870   93867
       6   93873   93867       6   93873   93870       7   93879   93876       6
   93882   93876       6   93882   93879       7   93888   93885       6   93891
   93885       6   93891   93888       7   93897   93894       6   93900   93894
       6   93900   93897       7   93906   93903       6   93909   93903       6
   93909   93906       7   93915   93912       6   93918   93912       6   93918
   93915       7   93924   93921       6   93927   93921       6   93927   93924
       7   93933   93930       6   93936   93930       6   93936   93933       7
   93942   93939       6   93945   93939       6   93945   93942       7   93951
   93948       6   93954   93948       6   93954   93951       7   93960   93957
       6   93963   93957       6   93963   93960       7   93969   93966       6
   93972   93966       6   93972   93969       7   93978   93975       6   93981
   93975       6   93981   93978       7   93987   93984       6   93990   93984
       6   93990   93987       7   93996   93993       6   93999   93993       6
   93999   93996       7   94005   94002       6   94008   94002       6   94008
   94005       7   94014   94011       6   94017   94011       6   94017   94014
       7   94023   94020       6   94026   94020       6   94026   94023       7
   94032   94029       6   94035   94029       6   94035   94032       7   94041
   94038       6   94044   94038       6   94044   94041       7   94050   94047
       6   94053   94047       6   94053   94050       7   94059   94056       6
   94062   94056       6   94062   94059       7   94068   94065       6   94071
   94065       6   94071   94068       7   94077   94074       6   94080   94074
       6   94080   94077       7   94086   94083       6   94089   94083       6
   94089   94086       7   94095   94092       6   94098   94092       6   94098
   94095       7   94104   94101       6   94107   94101       6   94107   94104
       7   94113   94110       6   94116   94110       6   94116   94113       7
   94122   94119       6   94125   94119       6   94125   94122       7   94131
   94128       6   94134   94128       6   94134   94131       7   94140   94137
       6   94143   94137       6   94143   94140       7   94149   94146       6
   94152   94146       6   94152   94149       7   94158   94155       6   94161
   94155       6   94161   94158       7   94167   94164       6   94170   94164
       6   94170   94167       7   94176   94173       6   94179   94173       6
   94179   94176       7   94185   94182       6   94188   94182       6   94188
   94185       7   94194   94191       6   94197   94191       6   94197   94194
       7   94203   94200       6   94206   94200       6   94206   94203       7
   94212   94209       6   94215   94209       6   94215   94212       7   94221
   94218       6   94224   94218       6   94224   94221       7   94230   94227
       6   94233   94227       6   94233   94230       7   94239   94236       6
   94242   94236       6   94242   94239       7   94248   94245       6   94251
   94245       6   94251   94248       7   94257   94254       6   94260   94254
       6   94260   94257       7   94266   94263       6   94269   94263       6
   94269   94266       7   94275   94272       6   94278   94272       6   94278
   94275       7   94284   94281       6   94287   94281       6   94287   94284
       7   94293   94290       6   94296   94290       6   94296   94293       7
   94302   94299       6   94305   94299       6   94305   94302       7   94311
   94308       6   94314   94308       6   94314   94311       7   94320   94317
       6   94323   94317       6   94323   94320       7   94329   94326       6
   94332   94326       6   94332   94329       7   94338   94335       6   94341
   94335       6   94341   94338       7   94347   94344       6   94350   94344
       6   94350   94347       7   94356   94353       6   94359   94353       6
   94359   94356       7   94365   94362       6   94368   94362       6   94368
   94365       7   94374   94371       6   94377   94371       6   94377   94374
       7   94383   94380       6   94386   94380       6   94386   94383       7
   94392   94389       6   94395   94389       6   94395   94392       7   94401
   94398       6   94404   94398       6   94404   94401       7   94410   94407
       6   94413   94407       6   94413   94410       7   94419   94416       6
   94422   94416       6   94422   94419       7   94428   94425       6   94431
   94425       6   94431   94428       7   94437   94434       6   94440   94434
       6   94440   94437       7   94446   94443       6   94449   94443       6
   94449   94446       7   94455   94452       6   94458   94452       6   94458
   94455       7   94464   94461       6   94467   94461       6   94467   94464
       7   94473   94470       6   94476   94470       6   94476   94473       7
   94482   94479       6   94485   94479       6   94485   94482       7   94491
   94488       6   94494   94488       6   94494   94491       7   94500   94497
       6   94503   94497       6   94503   94500       7   94509   94506       6
   94512   94506       6   94512   94509       7   94518   94515       6   94521
   94515       6   94521   94518       7   94527   94524       6   94530   94524
       6   94530   94527       7   94536   94533       6   94539   94533       6
   94539   94536       7   94545   94542       6   94548   94542       6   94548
   94545       7   94554   94551       6   94557   94551       6   94557   94554
       7   94563   94560       6   94566   94560       6   94566   94563       7
   94572   94569       6   94575   94569       6   94575   94572       7   94581
   94578       6   94584   94578       6   94584   94581       7   94590   94587
       6   94593   94587       6   94593   94590       7   94599   94596       6
   94602   94596       6   94602   94599       7   94608   94605       6   94611
   94605       6   94611   94608       7   94617   94614       6   94620   94614
       6   94620   94617       7   94626   94623       6   94629   94623       6
   94629   94626       7   94635   94632       6   94638   94632       6   94638
   94635       7   94644   94641       6   94647   94641       6   94647   94644
       7   94653   94650       6   94656   94650       6   94656   94653       7
   94662   94659       6   94665   94659       6   94665   94662       7   94671
   94668       6   94674   94668       6   94674   94671       7   94680   94677
       6   94683   94677       6   94683   94680       7   94689   94686       6
   94692   94686       6   94692   94689       7   94698   94695       6   94701
   94695       6   94701   94698       7   94707   94704       6   94710   94704
       6   94710   94707       7   94716   94713       6   94719   94713       6
   94719   94716       7   94725   94722       6   94728   94722       6   94728
   94725       7   94734   94731       6   94737   94731       6   94737   94734
       7   94743   94740       6   94746   94740       6   94746   94743       7
   94752   94749       6   94755   94749       6   94755   94752       7   94761
   94758       6   94764   94758       6   94764   94761       7   94770   94767
       6   94773   94767       6   94773   94770       7   94779   94776       6
   94782   94776       6   94782   94779       7   94788   94785       6   94791
   94785       6   94791   94788       7   94797   94794       6   94800   94794
       6   94800   94797       7   94806   94803       6   94809   94803       6
   94809   94806       7   94815   94812       6   94818   94812       6   94818
   94815       7   94824   94821       6   94827   94821       6   94827   94824
       7   94833   94830       6   94836   94830       6   94836   94833       7
   94842   94839       6   94845   94839       6   94845   94842       7   94851
   94848       6   94854   94848       6   94854   94851       7   94860   94857
       6   94863   94857       6   94863   94860       7   94869   94866       6
   94872   94866       6   94872   94869       7   94878   94875       6   94881
   94875       6   94881   94878       7   94887   94884       6   94890   94884
       6   94890   94887       7   94896   94893       6   94899   94893       6
   94899   94896       7   94905   94902       6   94908   94902       6   94908
   94905       7   94914   94911       6   94917   94911       6   94917   94914
       7   94923   94920       6   94926   94920       6   94926   94923       7
   94932   94929       6   94935   94929       6   94935   94932       7   94941
   94938       6   94944   94938       6   94944   94941       7   94950   94947
       6   94953   94947       6   94953   94950       7   94959   94956       6
   94962   94956       6   94962   94959       7   94968   94965       6   94971
   94965       6   94971   94968       7   94977   94974       6   94980   94974
       6   94980   94977       7   94986   94983       6   94989   94983       6
   94989   94986       7   94995   94992       6   94998   94992       6   94998
   94995       7   95004   95001       6   95007   95001       6   95007   95004
       7   95013   95010       6   95016   95010       6   95016   95013       7
   95022   95019       6   95025   95019       6   95025   95022       7   95031
   95028       6   95034   95028       6   95034   95031       7   95040   95037
       6   95043   95037       6   95043   95040       7   95049   95046       6
   95052   95046       6   95052   95049       7   95058   95055       6   95061
   95055       6   95061   95058       7   95067   95064       6   95070   95064
       6   95070   95067       7   95076   95073       6   95079   95073       6
   95079   95076       7   95085   95082       6   95088   95082       6   95088
   95085       7   95094   95091       6   95097   95091       6   95097   95094
       7   95103   95100       6   95106   95100       6   95106   95103       7
   95112   95109       6   95115   95109       6   95115   95112       7   95121
   95118       6   95124   95118       6   95124   95121       7   95130   95127
       6   95133   95127       6   95133   95130       7   95139   95136       6
   95142   95136       6   95142   95139       7   95148   95145       6   95151
   95145       6   95151   95148       7   95157   95154       6   95160   95154
       6   95160   95157       7   95166   95163       6   95169   95163       6
   95169   95166       7   95175   95172       6   95178   95172       6   95178
   95175       7   95184   95181       6   95187   95181       6   95187   95184
       7   95193   95190       6   95196   95190       6   95196   95193       7
   95202   95199       6   95205   95199       6   95205   95202       7   95211
   95208       6   95214   95208       6   95214   95211       7   95220   95217
       6   95223   95217       6   95223   95220       7   95229   95226       6
   95232   95226       6   95232   95229       7   95238   95235       6   95241
   95235       6   95241   95238       7   95247   95244       6   95250   95244
       6   95250   95247       7   95256   95253       6   95259   95253       6
   95259   95256       7   95265   95262       6   95268   95262       6   95268
   95265       7   95274   95271       6   95277   95271       6   95277   95274
       7   95283   95280       6   95286   95280       6   95286   95283       7
   95292   95289       6   95295   95289       6   95295   95292       7   95301
   95298       6   95304   95298       6   95304   95301       7   95310   95307
       6   95313   95307       6   95313   95310       7   95319   95316       6
   95322   95316       6   95322   95319       7   95328   95325       6   95331
   95325       6   95331   95328       7   95337   95334       6   95340   95334
       6   95340   95337       7   95346   95343       6   95349   95343       6
   95349   95346       7   95355   95352       6   95358   95352       6   95358
   95355       7   95364   95361       6   95367   95361       6   95367   95364
       7   95373   95370       6   95376   95370       6   95376   95373       7
   95382   95379       6   95385   95379       6   95385   95382       7   95391
   95388       6   95394   95388       6   95394   95391       7   95400   95397
       6   95403   95397       6   95403   95400       7   95409   95406       6
   95412   95406       6   95412   95409       7   95418   95415       6   95421
   95415       6   95421   95418       7   95427   95424       6   95430   95424
       6   95430   95427       7   95436   95433       6   95439   95433       6
   95439   95436       7   95445   95442       6   95448   95442       6   95448
   95445       7   95454   95451       6   95457   95451       6   95457   95454
       7   95463   95460       6   95466   95460       6   95466   95463       7
   95472   95469       6   95475   95469       6   95475   95472       7   95481
   95478       6   95484   95478       6   95484   95481       7   95490   95487
       6   95493   95487       6   95493   95490       7   95499   95496       6
   95502   95496       6   95502   95499       7   95508   95505       6   95511
   95505       6   95511   95508       7   95517   95514       6   95520   95514
       6   95520   95517       7   95526   95523       6   95529   95523       6
   95529   95526       7   95535   95532       6   95538   95532       6   95538
   95535       7   95544   95541       6   95547   95541       6   95547   95544
       7   95553   95550       6   95556   95550       6   95556   95553       7
   95562   95559       6   95565   95559       6   95565   95562       7   95571
   95568       6   95574   95568       6   95574   95571       7   95580   95577
       6   95583   95577       6   95583   95580       7   95589   95586       6
   95592   95586       6   95592   95589       7   95598   95595       6   95601
   95595       6   95601   95598       7   95607   95604       6   95610   95604
       6   95610   95607       7   95616   95613       6   95619   95613       6
   95619   95616       7   95625   95622       6   95628   95622       6   95628
   95625       7   95634   95631       6   95637   95631       6   95637   95634
       7   95643   95640       6   95646   95640       6   95646   95643       7
   95652   95649       6   95655   95649       6   95655   95652       7   95661
   95658       6   95664   95658       6   95664   95661       7   95670   95667
       6   95673   95667       6   95673   95670       7   95679   95676       6
   95682   95676       6   95682   95679       7   95688   95685       6   95691
   95685       6   95691   95688       7   95697   95694       6   95700   95694
       6   95700   95697       7   95706   95703       6   95709   95703       6
   95709   95706       7   95715   95712       6   95718   95712       6   95718
   95715       7   95724   95721       6   95727   95721       6   95727   95724
       7   95733   95730       6   95736   95730       6   95736   95733       7
   95742   95739       6   95745   95739       6   95745   95742       7   95751
   95748       6   95754   95748       6   95754   95751       7   95760   95757
       6   95763   95757       6   95763   95760       7   95769   95766       6
   95772   95766       6   95772   95769       7   95778   95775       6   95781
   95775       6   95781   95778       7   95787   95784       6   95790   95784
       6   95790   95787       7   95796   95793       6   95799   95793       6
   95799   95796       7   95805   95802       6   95808   95802       6   95808
   95805       7   95814   95811       6   95817   95811       6   95817   95814
       7   95823   95820       6   95826   95820       6   95826   95823       7
   95832   95829       6   95835   95829       6   95835   95832       7   95841
   95838       6   95844   95838       6   95844   95841       7   95850   95847
       6   95853   95847       6   95853   95850       7   95859   95856       6
   95862   95856       6   95862   95859       7   95868   95865       6   95871
   95865       6   95871   95868       7   95877   95874       6   95880   95874
       6   95880   95877       7   95886   95883       6   95889   95883       6
   95889   95886       7   95895   95892       6   95898   95892       6   95898
   95895       7   95904   95901       6   95907   95901       6   95907   95904
       7   95913   95910       6   95916   95910       6   95916   95913       7
   95922   95919       6   95925   95919       6   95925   95922       7   95931
   95928       6   95934   95928       6   95934   95931       7   95940   95937
       6   95943   95937       6   95943   95940       7   95949   95946       6
   95952   95946       6   95952   95949       7   95958   95955       6   95961
   95955       6   95961   95958       7   95967   95964       6   95970   95964
       6   95970   95967       7   95976   95973       6   95979   95973       6
   95979   95976       7   95985   95982       6   95988   95982       6   95988
   95985       7   95994   95991       6   95997   95991       6   95997   95994
       7   96003   96000       6   96006   96000       6   96006   96003       7
   96012   96009       6   96015   96009       6   96015   96012       7   96021
   96018       6   96024   96018       6   96024   96021       7   96030   96027
       6   96033   96027       6   96033   96030       7   96039   96036       6
   96042   96036       6   96042   96039       7   96048   96045       6   96051
   96045       6   96051   96048       7   96057   96054       6   96060   96054
       6   96060   96057       7   96066   96063       6   96069   96063       6
   96069   96066       7   96075   96072       6   96078   96072       6   96078
   96075       7   96084   96081       6   96087   96081       6   96087   96084
       7   96093   96090       6   96096   96090       6   96096   96093       7
   96102   96099       6   96105   96099       6   96105   96102       7   96111
   96108       6   96114   96108       6   96114   96111       7   96120   96117
       6   96123   96117       6   96123   96120       7   96129   96126       6
   96132   96126       6   96132   96129       7   96138   96135       6   96141
   96135       6   96141   96138       7   96147   96144       6   96150   96144
       6   96150   96147       7   96156   96153       6   96159   96153       6
   96159   96156       7   96165   96162       6   96168   96162       6   96168
   96165       7   96174   96171       6   96177   96171       6   96177   96174
       7   96183   96180       6   96186   96180       6   96186   96183       7
   96192   96189       6   96195   96189       6   96195   96192       7   96201
   96198       6   96204   96198       6   96204   96201       7   96210   96207
       6   96213   96207       6   96213   96210       7   96219   96216       6
   96222   96216       6   96222   96219       7   96228   96225       6   96231
   96225       6   96231   96228       7   96237   96234       6   96240   96234
       6   96240   96237       7   96246   96243       6   96249   96243       6
   96249   96246       7   96255   96252       6   96258   96252       6   96258
   96255       7   96264   96261       6   96267   96261       6   96267   96264
       7   96273   96270       6   96276   96270       6   96276   96273       7
   96282   96279       6   96285   96279       6   96285   96282       7   96291
   96288       6   96294   96288       6   96294   96291       7   96300   96297
       6   96303   96297       6   96303   96300       7   96309   96306       6
   96312   96306       6   96312   96309       7   96318   96315       6   96321
   96315       6   96321   96318       7   96327   96324       6   96330   96324
       6   96330   96327       7   96336   96333       6   96339   96333       6
   96339   96336       7   96345   96342       6   96348   96342       6   96348
   96345       7   96354   96351       6   96357   96351       6   96357   96354
       7   96363   96360       6   96366   96360       6   96366   96363       7
   96372   96369       6   96375   96369       6   96375   96372       7   96381
   96378       6   96384   96378       6   96384   96381       7   96390   96387
       6   96393   96387       6   96393   96390       7   96399   96396       6
   96402   96396       6   96402   96399       7   96408   96405       6   96411
   96405       6   96411   96408       7   96417   96414       6   96420   96414
       6   96420   96417       7   96426   96423       6   96429   96423       6
   96429   96426       7   96435   96432       6   96438   96432       6   96438
   96435       7   96444   96441       6   96447   96441       6   96447   96444
       7   96453   96450       6   96456   96450       6   96456   96453       7
   96462   96459       6   96465   96459       6   96465   96462       7   96471
   96468       6   96474   96468       6   96474   96471       7   96480   96477
       6   96483   96477       6   96483   96480       7   96489   96486       6
   96492   96486       6   96492   96489       7   96498   96495       6   96501
   96495       6   96501   96498       7   96507   96504       6   96510   96504
       6   96510   96507       7   96516   96513       6   96519   96513       6
   96519   96516       7   96525   96522       6   96528   96522       6   96528
   96525       7   96534   96531       6   96537   96531       6   96537   96534
       7   96543   96540       6   96546   96540       6   96546   96543       7
   96552   96549       6   96555   96549       6   96555   96552       7   96561
   96558       6   96564   96558       6   96564   96561       7   96570   96567
       6   96573   96567       6   96573   96570       7   96579   96576       6
   96582   96576       6   96582   96579       7   96588   96585       6   96591
   96585       6   96591   96588       7   96597   96594       6   96600   96594
       6   96600   96597       7   96606   96603       6   96609   96603       6
   96609   96606       7   96615   96612       6   96618   96612       6   96618
   96615       7   96624   96621       6   96627   96621       6   96627   96624
       7   96633   96630       6   96636   96630       6   96636   96633       7
   96642   96639       6   96645   96639       6   96645   96642       7   96651
   96648       6   96654   96648       6   96654   96651       7   96660   96657
       6   96663   96657       6   96663   96660       7   96669   96666       6
   96672   96666       6   96672   96669       7   96678   96675       6   96681
   96675       6   96681   96678       7   96687   96684       6   96690   96684
       6   96690   96687       7   96696   96693       6   96699   96693       6
   96699   96696       7   96705   96702       6   96708   96702       6   96708
   96705       7   96714   96711       6   96717   96711       6   96717   96714
       7   96723   96720       6   96726   96720       6   96726   96723       7
   96732   96729       6   96735   96729       6   96735   96732       7   96741
   96738       6   96744   96738       6   96744   96741       7   96750   96747
       6   96753   96747       6   96753   96750       7   96759   96756       6
   96762   96756       6   96762   96759       7   96768   96765       6   96771
   96765       6   96771   96768       7   96777   96774       6   96780   96774
       6   96780   96777       7   96786   96783       6   96789   96783       6
   96789   96786       7   96795   96792       6   96798   96792       6   96798
   96795       7   96804   96801       6   96807   96801       6   96807   96804
       7   96813   96810       6   96816   96810       6   96816   96813       7
   96822   96819       6   96825   96819       6   96825   96822       7   96831
   96828       6   96834   96828       6   96834   96831       7   96840   96837
       6   96843   96837       6   96843   96840       7   96849   96846       6
   96852   96846       6   96852   96849       7   96858   96855       6   96861
   96855       6   96861   96858       7   96867   96864       6   96870   96864
       6   96870   96867       7   96876   96873       6   96879   96873       6
   96879   96876       7   96885   96882       6   96888   96882       6   96888
   96885       7   96894   96891       6   96897   96891       6   96897   96894
       7   96903   96900       6   96906   96900       6   96906   96903       7
   96912   96909       6   96915   96909       6   96915   96912       7   96921
   96918       6   96924   96918       6   96924   96921       7   96930   96927
       6   96933   96927       6   96933   96930       7   96939   96936       6
   96942   96936       6   96942   96939       7   96948   96945       6   96951
   96945       6   96951   96948       7   96957   96954       6   96960   96954
       6   96960   96957       7   96966   96963       6   96969   96963       6
   96969   96966       7   96975   96972       6   96978   96972       6   96978
   96975       7   96984   96981       6   96987   96981       6   96987   96984
       7   96993   96990       6   96996   96990       6   96996   96993       7
   97002   96999       6   97005   96999       6   97005   97002       7   97011
   97008       6   97014   97008       6   97014   97011       7   97020   97017
       6   97023   97017       6   97023   97020       7   97029   97026       6
   97032   97026       6   97032   97029       7   97038   97035       6   97041
   97035       6   97041   97038       7   97047   97044       6   97050   97044
       6   97050   97047       7   97056   97053       6   97059   97053       6
   97059   97056       7   97065   97062       6   97068   97062       6   97068
   97065       7   97074   97071       6   97077   97071       6   97077   97074
       7   97083   97080       6   97086   97080       6   97086   97083       7
   97092   97089       6   97095   97089       6   97095   97092       7   97101
   97098       6   97104   97098       6   97104   97101       7   97110   97107
       6   97113   97107       6   97113   97110       7   97119   97116       6
   97122   97116       6   97122   97119       7   97128   97125       6   97131
   97125       6   97131   97128       7   97137   97134       6   97140   97134
       6   97140   97137       7   97146   97143       6   97149   97143       6
   97149   97146       7   97155   97152       6   97158   97152       6   97158
   97155       7   97164   97161       6   97167   97161       6   97167   97164
       7   97173   97170       6   97176   97170       6   97176   97173       7
   97182   97179       6   97185   97179       6   97185   97182       7   97191
   97188       6   97194   97188       6   97194   97191       7   97200   97197
       6   97203   97197       6   97203   97200       7   97209   97206       6
   97212   97206       6   97212   97209       7   97218   97215       6   97221
   97215       6   97221   97218       7   97227   97224       6   97230   97224
       6   97230   97227       7   97236   97233       6   97239   97233       6
   97239   97236       7   97245   97242       6   97248   97242       6   97248
   97245       7   97254   97251       6   97257   97251       6   97257   97254
       7   97263   97260       6   97266   97260       6   97266   97263       7
   97272   97269       6   97275   97269       6   97275   97272       7   97281
   97278       6   97284   97278       6   97284   97281       7   97290   97287
       6   97293   97287       6   97293   97290       7   97299   97296       6
   97302   97296       6   97302   97299       7   97308   97305       6   97311
   97305       6   97311   97308       7   97317   97314       6   97320   97314
       6   97320   97317       7   97326   97323       6   97329   97323       6
   97329   97326       7   97335   97332       6   97338   97332       6   97338
   97335       7   97344   97341       6   97347   97341       6   97347   97344
       7   97353   97350       6   97356   97350       6   97356   97353       7
   97362   97359       6   97365   97359       6   97365   97362       7   97371
   97368       6   97374   97368       6   97374   97371       7   97380   97377
       6   97383   97377       6   97383   97380       7   97389   97386       6
   97392   97386       6   97392   97389       7   97398   97395       6   97401
   97395       6   97401   97398       7   97407   97404       6   97410   97404
       6   97410   97407       7   97416   97413       6   97419   97413       6
   97419   97416       7   97425   97422       6   97428   97422       6   97428
   97425       7   97434   97431       6   97437   97431       6   97437   97434
       7   97443   97440       6   97446   97440       6   97446   97443       7
   97452   97449       6   97455   97449       6   97455   97452       7   97461
   97458       6   97464   97458       6   97464   97461       7   97470   97467
       6   97473   97467       6   97473   97470       7   97479   97476       6
   97482   97476       6   97482   97479       7   97488   97485       6   97491
   97485       6   97491   97488       7   97497   97494       6   97500   97494
       6   97500   97497       7   97506   97503       6   97509   97503       6
   97509   97506       7   97515   97512       6   97518   97512       6   97518
   97515       7   97524   97521       6   97527   97521       6   97527   97524
       7   97533   97530       6   97536   97530       6   97536   97533       7
   97542   97539       6   97545   97539       6   97545   97542       7   97551
   97548       6   97554   97548       6   97554   97551       7   97560   97557
       6   97563   97557       6   97563   97560       7   97569   97566       6
   97572   97566       6   97572   97569       7   97578   97575       6   97581
   97575       6   97581   97578       7   97587   97584       6   97590   97584
       6   97590   97587       7   97596   97593       6   97599   97593       6
   97599   97596       7   97605   97602       6   97608   97602       6   97608
   97605       7   97614   97611       6   97617   97611       6   97617   97614
       7   97623   97620       6   97626   97620       6   97626   97623       7
   97632   97629       6   97635   97629       6   97635   97632       7   97641
   97638       6   97644   97638       6   97644   97641       7   97650   97647
       6   97653   97647       6   97653   97650       7   97659   97656       6
   97662   97656       6   97662   97659       7   97668   97665       6   97671
   97665       6   97671   97668       7   97677   97674       6   97680   97674
       6   97680   97677       7   97686   97683       6   97689   97683       6
   97689   97686       7   97695   97692       6   97698   97692       6   97698
   97695       7   97704   97701       6   97707   97701       6   97707   97704
       7   97713   97710       6   97716   97710       6   97716   97713       7
   97722   97719       6   97725   97719       6   97725   97722       7   97731
   97728       6   97734   97728       6   97734   97731       7   97740   97737
       6   97743   97737       6   97743   97740       7   97749   97746       6
   97752   97746       6   97752   97749       7   97758   97755       6   97761
   97755       6   97761   97758       7   97767   97764       6   97770   97764
       6   97770   97767       7   97776   97773       6   97779   97773       6
   97779   97776       7   97785   97782       6   97788   97782       6   97788
   97785       7   97794   97791       6   97797   97791       6   97797   97794
       7   97803   97800       6   97806   97800       6   97806   97803       7
   97812   97809       6   97815   97809       6   97815   97812       7   97821
   97818       6   97824   97818       6   97824   97821       7   97830   97827
       6   97833   97827       6   97833   97830       7   97839   97836       6
   97842   97836       6   97842   97839       7   97848   97845       6   97851
   97845       6   97851   97848       7   97857   97854       6   97860   97854
       6   97860   97857       7   97866   97863       6   97869   97863       6
   97869   97866       7   97875   97872       6   97878   97872       6   97878
   97875       7   97884   97881       6   97887   97881       6   97887   97884
       7   97893   97890       6   97896   97890       6   97896   97893       7
   97902   97899       6   97905   97899       6   97905   97902       7   97911
   97908       6   97914   97908       6   97914   97911       7   97920   97917
       6   97923   97917       6   97923   97920       7   97929   97926       6
   97932   97926       6   97932   97929       7   97938   97935       6   97941
   97935       6   97941   97938       7   97947   97944       6   97950   97944
       6   97950   97947       7   97956   97953       6   97959   97953       6
   97959   97956       7   97965   97962       6   97968   97962       6   97968
   97965       7   97974   97971       6   97977   97971       6   97977   97974
       7   97983   97980       6   97986   97980       6   97986   97983       7
   97992   97989       6   97995   97989       6   97995   97992       7   98001
   97998       6   98004   97998       6   98004   98001       7   98010   98007
       6   98013   98007       6   98013   98010       7   98019   98016       6
   98022   98016       6   98022   98019       7   98028   98025       6   98031
   98025       6   98031   98028       7   98037   98034       6   98040   98034
       6   98040   98037       7   98046   98043       6   98049   98043       6
   98049   98046       7   98055   98052       6   98058   98052       6   98058
   98055       7   98064   98061       6   98067   98061       6   98067   98064
       7   98073   98070       6   98076   98070       6   98076   98073       7
   98082   98079       6   98085   98079       6   98085   98082       7   98091
   98088       6   98094   98088       6   98094   98091       7   98100   98097
       6   98103   98097       6   98103   98100       7   98109   98106       6
   98112   98106       6   98112   98109       7   98118   98115       6   98121
   98115       6   98121   98118       7   98127   98124       6   98130   98124
       6   98130   98127       7   98136   98133       6   98139   98133       6
   98139   98136       7   98145   98142       6   98148   98142       6   98148
   98145       7   98154   98151       6   98157   98151       6   98157   98154
       7   98163   98160       6   98166   98160       6   98166   98163       7
   98172   98169       6   98175   98169       6   98175   98172       7   98181
   98178       6   98184   98178       6   98184   98181       7   98190   98187
       6   98193   98187       6   98193   98190       7   98199   98196       6
   98202   98196       6   98202   98199       7   98208   98205       6   98211
   98205       6   98211   98208       7   98217   98214       6   98220   98214
       6   98220   98217       7   98226   98223       6   98229   98223       6
   98229   98226       7   98235   98232       6   98238   98232       6   98238
   98235       7   98244   98241       6   98247   98241       6   98247   98244
       7   98253   98250       6   98256   98250       6   98256   98253       7
   98262   98259       6   98265   98259       6   98265   98262       7   98271
   98268       6   98274   98268       6   98274   98271       7   98280   98277
       6   98283   98277       6   98283   98280       7   98289   98286       6
   98292   98286       6   98292   98289       7   98298   98295       6   98301
   98295       6   98301   98298       7   98307   98304       6   98310   98304
       6   98310   98307       7   98316   98313       6   98319   98313       6
   98319   98316       7   98325   98322       6   98328   98322       6   98328
   98325       7   98334   98331       6   98337   98331       6   98337   98334
       7   98343   98340       6   98346   98340       6   98346   98343       7
   98352   98349       6   98355   98349       6   98355   98352       7   98361
   98358       6   98364   98358       6   98364   98361       7   98370   98367
       6   98373   98367       6   98373   98370       7   98379   98376       6
   98382   98376       6   98382   98379       7   98388   98385       6   98391
   98385       6   98391   98388       7   98397   98394       6   98400   98394
       6   98400   98397       7   98406   98403       6   98409   98403       6
   98409   98406       7   98415   98412       6   98418   98412       6   98418
   98415       7   98424   98421       6   98427   98421       6   98427   98424
       7   98433   98430       6   98436   98430       6   98436   98433       7
   98442   98439       6   98445   98439       6   98445   98442       7   98451
   98448       6   98454   98448       6   98454   98451       7   98460   98457
       6   98463   98457       6   98463   98460       7   98469   98466       6
   98472   98466       6   98472   98469       7   98478   98475       6   98481
   98475       6   98481   98478       7   98487   98484       6   98490   98484
       6   98490   98487       7   98496   98493       6   98499   98493       6
   98499   98496       7   98505   98502       6   98508   98502       6   98508
   98505       7   98514   98511       6   98517   98511       6   98517   98514
       7   98523   98520       6   98526   98520       6   98526   98523       7
   98532   98529       6   98535   98529       6   98535   98532       7   98541
   98538       6   98544   98538       6   98544   98541       7   98550   98547
       6   98553   98547       6   98553   98550       7   98559   98556       6
   98562   98556       6   98562   98559       7   98568   98565       6   98571
   98565       6   98571   98568       7   98577   98574       6   98580   98574
       6   98580   98577       7   98586   98583       6   98589   98583       6
   98589   98586       7   98595   98592       6   98598   98592       6   98598
   98595       7   98604   98601       6   98607   98601       6   98607   98604
       7   98613   98610       6   98616   98610       6   98616   98613       7
   98622   98619       6   98625   98619       6   98625   98622       7   98631
   98628       6   98634   98628       6   98634   98631       7   98640   98637
       6   98643   98637       6   98643   98640       7   98649   98646       6
   98652   98646       6   98652   98649       7   98658   98655       6   98661
   98655       6   98661   98658       7   98667   98664       6   98670   98664
       6   98670   98667       7   98676   98673       6   98679   98673       6
   98679   98676       7   98685   98682       6   98688   98682       6   98688
   98685       7   98694   98691       6   98697   98691       6   98697   98694
       7   98703   98700       6   98706   98700       6   98706   98703       7
   98712   98709       6   98715   98709       6   98715   98712       7   98721
   98718       6   98724   98718       6   98724   98721       7   98730   98727
       6   98733   98727       6   98733   98730       7   98739   98736       6
   98742   98736       6   98742   98739       7   98748   98745       6   98751
   98745       6   98751   98748       7   98757   98754       6   98760   98754
       6   98760   98757       7   98766   98763       6   98769   98763       6
   98769   98766       7   98775   98772       6   98778   98772       6   98778
   98775       7   98784   98781       6   98787   98781       6   98787   98784
       7   98793   98790       6   98796   98790       6   98796   98793       7
   98802   98799       6   98805   98799       6   98805   98802       7   98811
   98808       6   98814   98808       6   98814   98811       7   98820   98817
       6   98823   98817       6   98823   98820       7   98829   98826       6
   98832   98826       6   98832   98829       7   98838   98835       6   98841
   98835       6   98841   98838       7   98847   98844       6   98850   98844
       6   98850   98847       7   98856   98853       6   98859   98853       6
   98859   98856       7   98865   98862       6   98868   98862       6   98868
   98865       7   98874   98871       6   98877   98871       6   98877   98874
       7   98883   98880       6   98886   98880       6   98886   98883       7
   98892   98889       6   98895   98889       6   98895   98892       7   98901
   98898       6   98904   98898       6   98904   98901       7   98910   98907
       6   98913   98907       6   98913   98910       7   98919   98916       6
   98922   98916       6   98922   98919       7   98928   98925       6   98931
   98925       6   98931   98928       7   98937   98934       6   98940   98934
       6   98940   98937       7   98946   98943       6   98949   98943       6
   98949   98946       7   98955   98952       6   98958   98952       6   98958
   98955       7   98964   98961       6   98967   98961       6   98967   98964
       7   98973   98970       6   98976   98970       6   98976   98973       7
   98982   98979       6   98985   98979       6   98985   98982       7   98991
   98988       6   98994   98988       6   98994   98991       7   99000   98997
       6   99003   98997       6   99003   99000       7   99009   99006       6
   99012   99006       6   99012   99009       7   99018   99015       6   99021
   99015       6   99021   99018       7   99027   99024       6   99030   99024
       6   99030   99027       7   99036   99033       6   99039   99033       6
   99039   99036       7   99045   99042       6   99048   99042       6   99048
   99045       7   99054   99051       6   99057   99051       6   99057   99054
       7   99063   99060       6   99066   99060       6   99066   99063       7
   99072   99069       6   99075   99069       6   99075   99072       7   99081
   99078       6   99084   99078       6   99084   99081       7   99090   99087
       6   99093   99087       6   99093   99090       7   99099   99096       6
   99102   99096       6   99102   99099       7   99108   99105       6   99111
   99105       6   99111   99108       7   99117   99114       6   99120   99114
       6   99120   99117       7   99126   99123       6   99129   99123       6
   99129   99126       7   99135   99132       6   99138   99132       6   99138
   99135       7   99144   99141       6   99147   99141       6   99147   99144
       7   99153   99150       6   99156   99150       6   99156   99153       7
   99162   99159       6   99165   99159       6   99165   99162       7   99171
   99168       6   99174   99168       6   99174   99171       7   99180   99177
       6   99183   99177       6   99183   99180       7   99189   99186       6
   99192   99186       6   99192   99189       7   99198   99195       6   99201
   99195       6   99201   99198       7   99207   99204       6   99210   99204
       6   99210   99207       7   99216   99213       6   99219   99213       6
   99219   99216       7   99225   99222       6   99228   99222       6   99228
   99225       7   99234   99231       6   99237   99231       6   99237   99234
       7   99243   99240       6   99246   99240       6   99246   99243       7
   99252   99249       6   99255   99249       6   99255   99252       7   99261
   99258       6   99264   99258       6   99264   99261       7   99270   99267
       6   99273   99267       6   99273   99270       7   99279   99276       6
   99282   99276       6   99282   99279       7   99288   99285       6   99291
   99285       6   99291   99288       7   99297   99294       6   99300   99294
       6   99300   99297       7   99306   99303       6   99309   99303       6
   99309   99306       7   99315   99312       6   99318   99312       6   99318
   99315       7   99324   99321       6   99327   99321       6   99327   99324
       7   99333   99330       6   99336   99330       6   99336   99333       7
   99342   99339       6   99345   99339       6   99345   99342       7   99351
   99348       6   99354   99348       6   99354   99351       7   99360   99357
       6   99363   99357       6   99363   99360       7   99369   99366       6
   99372   99366       6   99372   99369       7   99378   99375       6   99381
   99375       6   99381   99378       7   99387   99384       6   99390   99384
       6   99390   99387       7   99396   99393       6   99399   99393       6
   99399   99396       7   99405   99402       6   99408   99402       6   99408
   99405       7   99414   99411       6   99417   99411       6   99417   99414
       7   99423   99420       6   99426   99420       6   99426   99423       7
   99432   99429       6   99435   99429       6   99435   99432       7   99441
   99438       6   99444   99438       6   99444   99441       7   99450   99447
       6   99453   99447       6   99453   99450       7   99459   99456       6
   99462   99456       6   99462   99459       7   99468   99465       6   99471
   99465       6   99471   99468       7   99477   99474       6   99480   99474
       6   99480   99477       7   99486   99483       6   99489   99483       6
   99489   99486       7   99495   99492       6   99498   99492       6   99498
   99495       7   99504   99501       6   99507   99501       6   99507   99504
       7   99513   99510       6   99516   99510       6   99516   99513       7
   99522   99519       6   99525   99519       6   99525   99522       7   99531
   99528       6   99534   99528       6   99534   99531       7   99540   99537
       6   99543   99537       6   99543   99540       7   99549   99546       6
   99552   99546       6   99552   99549       7   99558   99555       6   99561
   99555       6   99561   99558       7   99567   99564       6   99570   99564
       6   99570   99567       7   99576   99573       6   99579   99573       6
   99579   99576       7   99585   99582       6   99588   99582       6   99588
   99585       7   99594   99591       6   99597   99591       6   99597   99594
       7   99603   99600       6   99606   99600       6   99606   99603       7
   99612   99609       6   99615   99609       6   99615   99612       7   99621
   99618       6   99624   99618       6   99624   99621       7   99630   99627
       6   99633   99627       6   99633   99630       7   99639   99636       6
   99642   99636       6   99642   99639       7   99648   99645       6   99651
   99645       6   99651   99648       7   99657   99654       6   99660   99654
       6   99660   99657       7   99666   99663       6   99669   99663       6
   99669   99666       7   99675   99672       6   99678   99672       6   99678
   99675       7   99684   99681       6   99687   99681       6   99687   99684
       7   99693   99690       6   99696   99690       6   99696   99693       7
   99702   99699       6   99705   99699       6   99705   99702       7   99711
   99708       6   99714   99708       6   99714   99711       7   99720   99717
       6   99723   99717       6   99723   99720       7   99729   99726       6
   99732   99726       6   99732   99729       7   99738   99735       6   99741
   99735       6   99741   99738       7   99747   99744       6   99750   99744
       6   99750   99747       7   99756   99753       6   99759   99753       6
   99759   99756       7   99765   99762       6   99768   99762       6   99768
   99765       7   99774   99771       6   99777   99771       6   99777   99774
       7   99783   99780       6   99786   99780       6   99786   99783       7
   99792   99789       6   99795   99789       6   99795   99792       7   99801
   99798       6   99804   99798       6   99804   99801       7   99810   99807
       6   99813   99807       6   99813   99810       7   99819   99816       6
   99822   99816       6   99822   99819       7   99828   99825       6   99831
   99825       6   99831   99828       7   99837   99834       6   99840   99834
       6   99840   99837       7   99846   99843       6   99849   99843       6
   99849   99846       7   99855   99852       6   99858   99852       6   99858
   99855       7   99864   99861       6   99867   99861       6   99867   99864
       7   99873   99870       6   99876   99870       6   99876   99873       7
   99882   99879       6   99885   99879       6   99885   99882       7   99891
   99888       6   99894   99888       6   99894   99891       7   99900   99897
       6   99903   99897       6   99903   99900       7   99909   99906       6
   99912   99906       6   99912   99909       7   99918   99915       6   99921
   99915       6   99921   99918       7   99927   99924       6   99930   99924
       6   99930   99927       7   99936   99933       6   99939   99933       6
   99939   99936       7   99945   99942       6   99948   99942       6   99948
   99945       7   99954   99951       6   99957   99951       6   99957   99954
       7   99963   99960       6   99966   99960       6   99966   99963       7
   99972   99969       6   99975   99969       6   99975   99972       7   99981
   99978       6   99984   99978       6   99984   99981       7   99990   99987
       6   99993   99987       6   99993   99990       7   99999   99996       6
  100002   99996       6  100002   99999       7  100008  100005       6  100011
  100005       6  100011  100008       7  100017  100014       6  100020  100014
       6  100020  100017       7  100026  100023       6  100029  100023       6
  100029  100026       7  100035  100032       6  100038  100032       6  100038
  100035       7  100044  100041       6  100047  100041       6  100047  100044
       7  100053  100050       6  100056  100050       6  100056  100053       7
  100062  100059       6  100065  100059       6  100065  100062       7  100071
  100068       6  100074  100068       6  100074  100071       7  100080  100077
       6  100083  100077       6  100083  100080       7  100089  100086       6
  100092  100086       6  100092  100089       7  100098  100095       6  100101
  100095       6  100101  100098       7  100107  100104       6  100110  100104
       6  100110  100107       7  100116  100113       6  100119  100113       6
  100119  100116       7  100125  100122       6  100128  100122       6  100128
  100125       7  100134  100131       6  100137  100131       6  100137  100134
       7  100143  100140       6  100146  100140       6  100146  100143       7
  100152  100149       6  100155  100149       6  100155  100152       7  100161
  100158       6  100164  100158       6  100164  100161       7  100170  100167
       6  100173  100167       6  100173  100170       7  100179  100176       6
  100182  100176       6  100182  100179       7  100188  100185       6  100191
  100185       6  100191  100188       7  100197  100194       6  100200  100194
       6  100200  100197       7  100206  100203       6  100209  100203       6
  100209  100206       7  100215  100212       6  100218  100212       6  100218
  100215       7  100224  100221       6  100227  100221       6  100227  100224
       7  100233  100230       6  100236  100230       6  100236  100233       7
  100242  100239       6  100245  100239       6  100245  100242       7  100251
  100248       6  100254  100248       6  100254  100251       7  100260  100257
       6  100263  100257       6  100263  100260       7  100269  100266       6
  100272  100266       6  100272  100269       7  100278  100275       6  100281
  100275       6  100281  100278       7  100287  100284       6  100290  100284
       6  100290  100287       7  100296  100293       6  100299  100293       6
  100299  100296       7  100305  100302       6  100308  100302       6  100308
  100305       7  100314  100311       6  100317  100311       6  100317  100314
       7  100323  100320       6  100326  100320       6  100326  100323       7
  100332  100329       6  100335  100329       6  100335  100332       7  100341
  100338       6  100344  100338       6  100344  100341       7  100350  100347
       6  100353  100347       6  100353  100350       7  100359  100356       6
  100362  100356       6  100362  100359       7  100368  100365       6  100371
  100365       6  100371  100368       7  100377  100374       6  100380  100374
       6  100380  100377       7  100386  100383       6  100389  100383       6
  100389  100386       7  100395  100392       6  100398  100392       6  100398
  100395       7  100404  100401       6  100407  100401       6  100407  100404
       7  100413  100410       6  100416  100410       6  100416  100413       7
  100422  100419       6  100425  100419       6  100425  100422       7  100431
  100428       6  100434  100428       6  100434  100431       7  100440  100437
       6  100443  100437       6  100443  100440       7  100449  100446       6
  100452  100446       6  100452  100449       7  100458  100455       6  100461
  100455       6  100461  100458       7  100467  100464       6  100470  100464
       6  100470  100467       7  100476  100473       6  100479  100473       6
  100479  100476       7  100485  100482       6  100488  100482       6  100488
  100485       7  100494  100491       6  100497  100491       6  100497  100494
       7  100503  100500       6  100506  100500       6  100506  100503       7
  100512  100509       6  100515  100509       6  100515  100512       7  100521
  100518       6  100524  100518       6  100524  100521       7  100530  100527
       6  100533  100527       6  100533  100530       7  100539  100536       6
  100542  100536       6  100542  100539       7  100548  100545       6  100551
  100545       6  100551  100548       7  100557  100554       6  100560  100554
       6  100560  100557       7  100566  100563       6  100569  100563       6
  100569  100566       7  100575  100572       6  100578  100572       6  100578
  100575       7  100584  100581       6  100587  100581       6  100587  100584
       7  100593  100590       6  100596  100590       6  100596  100593       7
  100602  100599       6  100605  100599       6  100605  100602       7  100611
  100608       6  100614  100608       6  100614  100611       7  100620  100617
       6  100623  100617       6  100623  100620       7  100629  100626       6
  100632  100626       6  100632  100629       7  100638  100635       6  100641
  100635       6  100641  100638       7  100647  100644       6  100650  100644
       6  100650  100647       7  100656  100653       6  100659  100653       6
  100659  100656       7  100665  100662       6  100668  100662       6  100668
  100665       7  100674  100671       6  100677  100671       6  100677  100674
       7  100683  100680       6  100686  100680       6  100686  100683       7
  100692  100689       6  100695  100689       6  100695  100692       7  100701
  100698       6  100704  100698       6  100704  100701       7  100710  100707
       6  100713  100707       6  100713  100710       7  100719  100716       6
  100722  100716       6  100722  100719       7  100728  100725       6  100731
  100725       6  100731  100728       7  100737  100734       6  100740  100734
       6  100740  100737       7  100746  100743       6  100749  100743       6
  100749  100746       7  100755  100752       6  100758  100752       6  100758
  100755       7  100764  100761       6  100767  100761       6  100767  100764
       7  100773  100770       6  100776  100770       6  100776  100773       7
  100782  100779       6  100785  100779       6  100785  100782       7  100791
  100788       6  100794  100788       6  100794  100791       7  100800  100797
       6  100803  100797       6  100803  100800       7  100809  100806       6
  100812  100806       6  100812  100809       7  100818  100815       6  100821
  100815       6  100821  100818       7  100827  100824       6  100830  100824
       6  100830  100827       7  100836  100833       6  100839  100833       6
  100839  100836       7  100845  100842       6  100848  100842       6  100848
  100845       7  100854  100851       6  100857  100851       6  100857  100854
       7  100863  100860       6  100866  100860       6  100866  100863       7
  100872  100869       6  100875  100869       6  100875  100872       7  100881
  100878       6  100884  100878       6  100884  100881       7  100890  100887
       6  100893  100887       6  100893  100890       7  100899  100896       6
  100902  100896       6  100902  100899       7  100908  100905       6  100911
  100905       6  100911  100908       7  100917  100914       6  100920  100914
       6  100920  100917       7  100926  100923       6  100929  100923       6
  100929  100926       7  100935  100932       6  100938  100932       6  100938
  100935       7  100944  100941       6  100947  100941       6  100947  100944
       7  100953  100950       6  100956  100950       6  100956  100953       7
  100962  100959       6  100965  100959       6  100965  100962       7  100971
  100968       6  100974  100968       6  100974  100971       7  100980  100977
       6  100983  100977       6  100983  100980       7  100989  100986       6
  100992  100986       6  100992  100989       7  100998  100995       6  101001
  100995       6  101001  100998       7  101007  101004       6  101010  101004
       6  101010  101007       7  101016  101013       6  101019  101013       6
  101019  101016       7  101025  101022       6  101028  101022       6  101028
  101025       7  101034  101031       6  101037  101031       6  101037  101034
       7  101043  101040       6  101046  101040       6  101046  101043       7
  101052  101049       6  101055  101049       6  101055  101052       7  101061
  101058       6  101064  101058       6  101064  101061       7  101070  101067
       6  101073  101067       6  101073  101070       7  101079  101076       6
  101082  101076       6  101082  101079       7  101088  101085       6  101091
  101085       6  101091  101088       7  101097  101094       6  101100  101094
       6  101100  101097       7  101106  101103       6  101109  101103       6
  101109  101106       7  101115  101112       6  101118  101112       6  101118
  101115       7  101124  101121       6  101127  101121       6  101127  101124
       7  101133  101130       6  101136  101130       6  101136  101133       7
  101142  101139       6  101145  101139       6  101145  101142       7  101151
  101148       6  101154  101148       6  101154  101151       7  101160  101157
       6  101163  101157       6  101163  101160       7  101169  101166       6
  101172  101166       6  101172  101169       7  101178  101175       6  101181
  101175       6  101181  101178       7  101187  101184       6  101190  101184
       6  101190  101187       7  101196  101193       6  101199  101193       6
  101199  101196       7  101205  101202       6  101208  101202       6  101208
  101205       7  101214  101211       6  101217  101211       6  101217  101214
       7  101223  101220       6  101226  101220       6  101226  101223       7
  101232  101229       6  101235  101229       6  101235  101232       7  101241
  101238       6  101244  101238       6  101244  101241       7  101250  101247
       6  101253  101247       6  101253  101250       7  101259  101256       6
  101262  101256       6  101262  101259       7  101268  101265       6  101271
  101265       6  101271  101268       7  101277  101274       6  101280  101274
       6  101280  101277       7  101286  101283       6  101289  101283       6
  101289  101286       7  101295  101292       6  101298  101292       6  101298
  101295       7  101304  101301       6  101307  101301       6  101307  101304
       7  101313  101310       6  101316  101310       6  101316  101313       7
  101322  101319       6  101325  101319       6  101325  101322       7  101331
  101328       6  101334  101328       6  101334  101331       7  101340  101337
       6  101343  101337       6  101343  101340       7  101349  101346       6
  101352  101346       6  101352  101349       7  101358  101355       6  101361
  101355       6  101361  101358       7  101367  101364       6  101370  101364
       6  101370  101367       7  101376  101373       6  101379  101373       6
  101379  101376       7  101385  101382       6  101388  101382       6  101388
  101385       7  101394  101391       6  101397  101391       6  101397  101394
       7  101403  101400       6  101406  101400       6  101406  101403       7
  101412  101409       6  101415  101409       6  101415  101412       7  101421
  101418       6  101424  101418       6  101424  101421       7  101430  101427
       6  101433  101427       6  101433  101430       7  101439  101436       6
  101442  101436       6  101442  101439       7  101448  101445       6  101451
  101445       6  101451  101448       7  101457  101454       6  101460  101454
       6  101460  101457       7  101466  101463       6  101469  101463       6
  101469  101466       7  101475  101472       6  101478  101472       6  101478
  101475       7  101484  101481       6  101487  101481       6  101487  101484
       7  101493  101490       6  101496  101490       6  101496  101493       7
  101502  101499       6  101505  101499       6  101505  101502       7  101511
  101508       6  101514  101508       6  101514  101511       7  101520  101517
       6  101523  101517       6  101523  101520       7  101529  101526       6
  101532  101526       6  101532  101529       7  101538  101535       6  101541
  101535       6  101541  101538       7  101547  101544       6  101550  101544
       6  101550  101547       7  101556  101553       6  101559  101553       6
  101559  101556       7  101565  101562       6  101568  101562       6  101568
  101565       7  101574  101571       6  101577  101571       6  101577  101574
       7  101583  101580       6  101586  101580       6  101586  101583       7
  101592  101589       6  101595  101589       6  101595  101592       7  101601
  101598       6  101604  101598       6  101604  101601       7  101610  101607
       6  101613  101607       6  101613  101610       7  101619  101616       6
  101622  101616       6  101622  101619       7  101628  101625       6  101631
  101625       6  101631  101628       7  101637  101634       6  101640  101634
       6  101640  101637       7  101646  101643       6  101649  101643       6
  101649  101646       7  101655  101652       6  101658  101652       6  101658
  101655       7  101664  101661       6  101667  101661       6  101667  101664
       7  101673  101670       6  101676  101670       6  101676  101673       7
  101682  101679       6  101685  101679       6  101685  101682       7  101691
  101688       6  101694  101688       6  101694  101691       7  101700  101697
       6  101703  101697       6  101703  101700       7  101709  101706       6
  101712  101706       6  101712  101709       7  101718  101715       6  101721
  101715       6  101721  101718       7  101727  101724       6  101730  101724
       6  101730  101727       7  101736  101733       6  101739  101733       6
  101739  101736       7  101745  101742       6  101748  101742       6  101748
  101745       7  101754  101751       6  101757  101751       6  101757  101754
       7  101763  101760       6  101766  101760       6  101766  101763       7
  101772  101769       6  101775  101769       6  101775  101772       7  101781
  101778       6  101784  101778       6  101784  101781       7  101790  101787
       6  101793  101787       6  101793  101790       7  101799  101796       6
  101802  101796       6  101802  101799       7  101808  101805       6  101811
  101805       6  101811  101808       7  101817  101814       6  101820  101814
       6  101820  101817       7  101826  101823       6  101829  101823       6
  101829  101826       7  101835  101832       6  101838  101832       6  101838
  101835       7  101844  101841       6  101847  101841       6  101847  101844
       7  101853  101850       6  101856  101850       6  101856  101853       7
  101862  101859       6  101865  101859       6  101865  101862       7  101871
  101868       6  101874  101868       6  101874  101871       7  101880  101877
       6  101883  101877       6  101883  101880       7  101889  101886       6
  101892  101886       6  101892  101889       7  101898  101895       6  101901
  101895       6  101901  101898       7  101907  101904       6  101910  101904
       6  101910  101907       7  101916  101913       6  101919  101913       6
  101919  101916       7  101925  101922       6  101928  101922       6  101928
  101925       7  101934  101931       6  101937  101931       6  101937  101934
       7  101943  101940       6  101946  101940       6  101946  101943       7
  101952  101949       6  101955  101949       6  101955  101952       7  101961
  101958       6  101964  101958       6  101964  101961       7  101970  101967
       6  101973  101967       6  101973  101970       7  101979  101976       6
  101982  101976       6  101982  101979       7  101988  101985       6  101991
  101985       6  101991  101988       7  101997  101994       6  102000  101994
       6  102000  101997       7  102006  102003       6  102009  102003       6
  102009  102006       7  102015  102012       6  102018  102012       6  102018
  102015       7  102024  102021       6  102027  102021       6  102027  102024
       7  102033  102030       6  102036  102030       6  102036  102033       7
  102042  102039       6  102045  102039       6  102045  102042       7  102051
  102048       6  102054  102048       6  102054  102051       7  102060  102057
       6  102063  102057       6  102063  102060       7  102069  102066       6
  102072  102066       6  102072  102069       7  102078  102075       6  102081
  102075       6  102081  102078       7  102087  102084       6  102090  102084
       6  102090  102087       7  102096  102093       6  102099  102093       6
  102099  102096       7  102105  102102       6  102108  102102       6  102108
  102105       7  102114  102111       6  102117  102111       6  102117  102114
       7  102123  102120       6  102126  102120       6  102126  102123       7
  102132  102129       6  102135  102129       6  102135  102132       7  102141
  102138       6  102144  102138       6  102144  102141       7  102150  102147
       6  102153  102147       6  102153  102150       7  102159  102156       6
  102162  102156       6  102162  102159       7  102168  102165       6  102171
  102165       6  102171  102168       7  102177  102174       6  102180  102174
       6  102180  102177       7  102186  102183       6  102189  102183       6
  102189  102186       7  102195  102192       6  102198  102192       6  102198
  102195       7  102204  102201       6  102207  102201       6  102207  102204
       7  102213  102210       6  102216  102210       6  102216  102213       7
  102222  102219       6  102225  102219       6  102225  102222       7  102231
  102228       6  102234  102228       6  102234  102231       7  102240  102237
       6  102243  102237       6  102243  102240       7  102249  102246       6
  102252  102246       6  102252  102249       7  102258  102255       6  102261
  102255       6  102261  102258       7  102267  102264       6  102270  102264
       6  102270  102267       7  102276  102273       6  102279  102273       6
  102279  102276       7  102285  102282       6  102288  102282       6  102288
  102285       7  102294  102291       6  102297  102291       6  102297  102294
       7  102303  102300       6  102306  102300       6  102306  102303       7
  102312  102309       6  102315  102309       6  102315  102312       7  102321
  102318       6  102324  102318       6  102324  102321       7  102330  102327
       6  102333  102327       6  102333  102330       7  102339  102336       6
  102342  102336       6  102342  102339       7  102348  102345       6  102351
  102345       6  102351  102348       7  102357  102354       6  102360  102354
       6  102360  102357       7  102366  102363       6  102369  102363       6
  102369  102366       7  102375  102372       6  102378  102372       6  102378
  102375       7  102384  102381       6  102387  102381       6  102387  102384
       7  102393  102390       6  102396  102390       6  102396  102393       7
  102402  102399       6  102405  102399       6  102405  102402       7  102411
  102408       6  102414  102408       6  102414  102411       7  102420  102417
       6  102423  102417       6  102423  102420       7  102429  102426       6
  102432  102426       6  102432  102429       7  102438  102435       6  102441
  102435       6  102441  102438       7  102447  102444       6  102450  102444
       6  102450  102447       7  102456  102453       6  102459  102453       6
  102459  102456       7  102465  102462       6  102468  102462       6  102468
  102465       7  102474  102471       6  102477  102471       6  102477  102474
       7  102483  102480       6  102486  102480       6  102486  102483       7
  102492  102489       6  102495  102489       6  102495  102492       7  102501
  102498       6  102504  102498       6  102504  102501       7  102510  102507
       6  102513  102507       6  102513  102510       7  102519  102516       6
  102522  102516       6  102522  102519       7  102528  102525       6  102531
  102525       6  102531  102528       7  102537  102534       6  102540  102534
       6  102540  102537       7  102546  102543       6  102549  102543       6
  102549  102546       7  102555  102552       6  102558  102552       6  102558
  102555       7  102564  102561       6  102567  102561       6  102567  102564
       7  102573  102570       6  102576  102570       6  102576  102573       7
  102582  102579       6  102585  102579       6  102585  102582       7  102591
  102588       6  102594  102588       6  102594  102591       7  102600  102597
       6  102603  102597       6  102603  102600       7  102609  102606       6
  102612  102606       6  102612  102609       7  102618  102615       6  102621
  102615       6  102621  102618       7  102627  102624       6  102630  102624
       6  102630  102627       7  102636  102633       6  102639  102633       6
  102639  102636       7  102645  102642       6  102648  102642       6  102648
  102645       7  102654  102651       6  102657  102651       6  102657  102654
       7  102663  102660       6  102666  102660       6  102666  102663       7
  102672  102669       6  102675  102669       6  102675  102672       7  102681
  102678       6  102684  102678       6  102684  102681       7  102690  102687
       6  102693  102687       6  102693  102690       7  102699  102696       6
  102702  102696       6  102702  102699       7  102708  102705       6  102711
  102705       6  102711  102708       7  102717  102714       6  102720  102714
       6  102720  102717       7  102726  102723       6  102729  102723       6
  102729  102726       7  102735  102732       6  102738  102732       6  102738
  102735       7  102744  102741       6  102747  102741       6  102747  102744
       7  102753  102750       6  102756  102750       6  102756  102753       7
  102762  102759       6  102765  102759       6  102765  102762       7  102771
  102768       6  102774  102768       6  102774  102771       7  102780  102777
       6  102783  102777       6  102783  102780       7  102789  102786       6
  102792  102786       6  102792  102789       7  102798  102795       6  102801
  102795       6  102801  102798       7  102807  102804       6  102810  102804
       6  102810  102807       7  102816  102813       6  102819  102813       6
  102819  102816       7  102825  102822       6  102828  102822       6  102828
  102825       7  102834  102831       6  102837  102831       6  102837  102834
       7  102843  102840       6  102846  102840       6  102846  102843       7
  102852  102849       6  102855  102849       6  102855  102852       7  102861
  102858       6  102864  102858       6  102864  102861       7  102870  102867
       6  102873  102867       6  102873  102870       7  102879  102876       6
  102882  102876       6  102882  102879       7  102888  102885       6  102891
  102885       6  102891  102888       7  102897  102894       6  102900  102894
       6  102900  102897       7  102906  102903       6  102909  102903       6
  102909  102906       7  102915  102912       6  102918  102912       6  102918
  102915       7  102924  102921       6  102927  102921       6  102927  102924
       7  102933  102930       6  102936  102930       6  102936  102933       7
  102942  102939       6  102945  102939       6  102945  102942       7  102951
  102948       6  102954  102948       6  102954  102951       7  102960  102957
       6  102963  102957       6  102963  102960       7  102969  102966       6
  102972  102966       6  102972  102969       7  102978  102975       6  102981
  102975       6  102981  102978       7  102987  102984       6  102990  102984
       6  102990  102987       7  102996  102993       6  102999  102993       6
  102999  102996       7  103005  103002       6  103008  103002       6  103008
  103005       7  103014  103011       6  103017  103011       6  103017  103014
       7  103023  103020       6  103026  103020       6  103026  103023       7
  103032  103029       6  103035  103029       6  103035  103032       7  103041
  103038       6  103044  103038       6  103044  103041       7  103050  103047
       6  103053  103047       6  103053  103050       7  103059  103056       6
  103062  103056       6  103062  103059       7  103068  103065       6  103071
  103065       6  103071  103068       7  103077  103074       6  103080  103074
       6  103080  103077       7  103086  103083       6  103089  103083       6
  103089  103086       7  103095  103092       6  103098  103092       6  103098
  103095       7  103104  103101       6  103107  103101       6  103107  103104
       7  103113  103110       6  103116  103110       6  103116  103113       7
  103122  103119       6  103125  103119       6  103125  103122       7  103131
  103128       6  103134  103128       6  103134  103131       7  103140  103137
       6  103143  103137       6  103143  103140       7  103149  103146       6
  103152  103146       6  103152  103149       7  103158  103155       6  103161
  103155       6  103161  103158       7  103167  103164       6  103170  103164
       6  103170  103167       7  103176  103173       6  103179  103173       6
  103179  103176       7  103185  103182       6  103188  103182       6  103188
  103185       7  103194  103191       6  103197  103191       6  103197  103194
       7  103203  103200       6  103206  103200       6  103206  103203       7
  103212  103209       6  103215  103209       6  103215  103212       7  103221
  103218       6  103224  103218       6  103224  103221       7  103230  103227
       6  103233  103227       6  103233  103230       7  103239  103236       6
  103242  103236       6  103242  103239       7  103248  103245       6  103251
  103245       6  103251  103248       7  103257  103254       6  103260  103254
       6  103260  103257       7  103266  103263       6  103269  103263       6
  103269  103266       7  103275  103272       6  103278  103272       6  103278
  103275       7  103284  103281       6  103287  103281       6  103287  103284
       7  103293  103290       6  103296  103290       6  103296  103293       7
  103302  103299       6  103305  103299       6  103305  103302       7  103311
  103308       6  103314  103308       6  103314  103311       7  103320  103317
       6  103323  103317       6  103323  103320       7  103329  103326       6
  103332  103326       6  103332  103329       7  103338  103335       6  103341
  103335       6  103341  103338       7  103347  103344       6  103350  103344
       6  103350  103347       7  103356  103353       6  103359  103353       6
  103359  103356       7  103365  103362       6  103368  103362       6  103368
  103365       7  103374  103371       6  103377  103371       6  103377  103374
       7  103383  103380       6  103386  103380       6  103386  103383       7
  103392  103389       6  103395  103389       6  103395  103392       7  103401
  103398       6  103404  103398       6  103404  103401       7  103410  103407
       6  103413  103407       6  103413  103410       7  103419  103416       6
  103422  103416       6  103422  103419       7  103428  103425       6  103431
  103425       6  103431  103428       7  103437  103434       6  103440  103434
       6  103440  103437       7  103446  103443       6  103449  103443       6
  103449  103446       7  103455  103452       6  103458  103452       6  103458
  103455       7  103464  103461       6  103467  103461       6  103467  103464
       7  103473  103470       6  103476  103470       6  103476  103473       7
  103482  103479       6  103485  103479       6  103485  103482       7  103491
  103488       6  103494  103488       6  103494  103491       7  103500  103497
       6  103503  103497       6  103503  103500       7  103509  103506       6
  103512  103506       6  103512  103509       7  103518  103515       6  103521
  103515       6  103521  103518       7  103527  103524       6  103530  103524
       6  103530  103527       7  103536  103533       6  103539  103533       6
  103539  103536       7  103545  103542       6  103548  103542       6  103548
  103545       7  103554  103551       6  103557  103551       6  103557  103554
       7  103563  103560       6  103566  103560       6  103566  103563       7
  103572  103569       6  103575  103569       6  103575  103572       7  103581
  103578       6  103584  103578       6  103584  103581       7  103590  103587
       6  103593  103587       6  103593  103590       7  103599  103596       6
  103602  103596       6  103602  103599       7  103608  103605       6  103611
  103605       6  103611  103608       7  103617  103614       6  103620  103614
       6  103620  103617       7  103626  103623       6  103629  103623       6
  103629  103626       7  103635  103632       6  103638  103632       6  103638
  103635       7  103644  103641       6  103647  103641       6  103647  103644
       7  103653  103650       6  103656  103650       6  103656  103653       7
  103662  103659       6  103665  103659       6  103665  103662       7  103671
  103668       6  103674  103668       6  103674  103671       7  103680  103677
       6  103683  103677       6  103683  103680       7  103689  103686       6
  103692  103686       6  103692  103689       7  103698  103695       6  103701
  103695       6  103701  103698       7  103707  103704       6  103710  103704
       6  103710  103707       7  103716  103713       6  103719  103713       6
  103719  103716       7  103725  103722       6  103728  103722       6  103728
  103725       7  103734  103731       6  103737  103731       6  103737  103734
       7  103743  103740       6  103746  103740       6  103746  103743       7
  103752  103749       6  103755  103749       6  103755  103752       7  103761
  103758       6  103764  103758       6  103764  103761       7  103770  103767
       6  103773  103767       6  103773  103770       7  103779  103776       6
  103782  103776       6  103782  103779       7  103788  103785       6  103791
  103785       6  103791  103788       7  103797  103794       6  103800  103794
       6  103800  103797       7  103806  103803       6  103809  103803       6
  103809  103806       7  103815  103812       6  103818  103812       6  103818
  103815       7  103824  103821       6  103827  103821       6  103827  103824
       7  103833  103830       6  103836  103830       6  103836  103833       7
  103842  103839       6  103845  103839       6  103845  103842       7  103851
  103848       6  103854  103848       6  103854  103851       7  103860  103857
       6  103863  103857       6  103863  103860       7  103869  103866       6
  103872  103866       6  103872  103869       7  103878  103875       6  103881
  103875       6  103881  103878       7  103887  103884       6  103890  103884
       6  103890  103887       7  103896  103893       6  103899  103893       6
  103899  103896       7  103905  103902       6  103908  103902       6  103908
  103905       7  103914  103911       6  103917  103911       6  103917  103914
       7  103923  103920       6  103926  103920       6  103926  103923       7
  103932  103929       6  103935  103929       6  103935  103932       7  103941
  103938       6  103944  103938       6  103944  103941       7  103950  103947
       6  103953  103947       6  103953  103950       7  103959  103956       6
  103962  103956       6  103962  103959       7  103968  103965       6  103971
  103965       6  103971  103968       7  103977  103974       6  103980  103974
       6  103980  103977       7  103986  103983       6  103989  103983       6
  103989  103986       7  103995  103992       6  103998  103992       6  103998
  103995       7  104004  104001       6  104007  104001       6  104007  104004
       7  104013  104010       6  104016  104010       6  104016  104013       7
  104022  104019       6  104025  104019       6  104025  104022       7  104031
  104028       6  104034  104028       6  104034  104031       7  104040  104037
       6  104043  104037       6  104043  104040       7  104049  104046       6
  104052  104046       6  104052  104049       7  104058  104055       6  104061
  104055       6  104061  104058       7  104067  104064       6  104070  104064
       6  104070  104067       7  104076  104073       6  104079  104073       6
  104079  104076       7  104085  104082       6  104088  104082       6  104088
  104085       7  104094  104091       6  104097  104091       6  104097  104094
       7  104103  104100       6  104106  104100       6  104106  104103       7
  104112  104109       6  104115  104109       6  104115  104112       7  104121
  104118       6  104124  104118       6  104124  104121       7  104130  104127
       6  104133  104127       6  104133  104130       7  104139  104136       6
  104142  104136       6  104142  104139       7  104148  104145       6  104151
  104145       6  104151  104148       7  104157  104154       6  104160  104154
       6  104160  104157       7  104166  104163       6  104169  104163       6
  104169  104166       7  104175  104172       6  104178  104172       6  104178
  104175       7  104184  104181       6  104187  104181       6  104187  104184
       7  104193  104190       6  104196  104190       6  104196  104193       7
  104202  104199       6  104205  104199       6  104205  104202       7  104211
  104208       6  104214  104208       6  104214  104211       7  104220  104217
       6  104223  104217       6  104223  104220       7  104229  104226       6
  104232  104226       6  104232  104229       7  104238  104235       6  104241
  104235       6  104241  104238       7  104247  104244       6  104250  104244
       6  104250  104247       7  104256  104253       6  104259  104253       6
  104259  104256       7  104265  104262       6  104268  104262       6  104268
  104265       7  104274  104271       6  104277  104271       6  104277  104274
       7  104283  104280       6  104286  104280       6  104286  104283       7
  104292  104289       6  104295  104289       6  104295  104292       7  104301
  104298       6  104304  104298       6  104304  104301       7  104310  104307
       6  104313  104307       6  104313  104310       7  104319  104316       6
  104322  104316       6  104322  104319       7  104328  104325       6  104331
  104325       6  104331  104328       7  104337  104334       6  104340  104334
       6  104340  104337       7  104346  104343       6  104349  104343       6
  104349  104346       7  104355  104352       6  104358  104352       6  104358
  104355       7  104364  104361       6  104367  104361       6  104367  104364
       7  104373  104370       6  104376  104370       6  104376  104373       7
  104382  104379       6  104385  104379       6  104385  104382       7  104391
  104388       6  104394  104388       6  104394  104391       7  104400  104397
       6  104403  104397       6  104403  104400       7  104409  104406       6
  104412  104406       6  104412  104409       7  104418  104415       6  104421
  104415       6  104421  104418       7  104427  104424       6  104430  104424
       6  104430  104427       7  104436  104433       6  104439  104433       6
  104439  104436       7  104445  104442       6  104448  104442       6  104448
  104445       7  104454  104451       6  104457  104451       6  104457  104454
       7  104463  104460       6  104466  104460       6  104466  104463       7
  104472  104469       6  104475  104469       6  104475  104472       7  104481
  104478       6  104484  104478       6  104484  104481       7  104490  104487
       6  104493  104487       6  104493  104490       7  104499  104496       6
  104502  104496       6  104502  104499       7  104508  104505       6  104511
  104505       6  104511  104508       7  104517  104514       6  104520  104514
       6  104520  104517       7  104526  104523       6  104529  104523       6
  104529  104526       7  104535  104532       6  104538  104532       6  104538
  104535       7  104544  104541       6  104547  104541       6  104547  104544
       7  104553  104550       6  104556  104550       6  104556  104553       7
  104562  104559       6  104565  104559       6  104565  104562       7  104571
  104568       6  104574  104568       6  104574  104571       7  104580  104577
       6  104583  104577       6  104583  104580       7  104589  104586       6
  104592  104586       6  104592  104589       7  104598  104595       6  104601
  104595       6  104601  104598       7  104607  104604       6  104610  104604
       6  104610  104607       7  104616  104613       6  104619  104613       6
  104619  104616       7  104625  104622       6  104628  104622       6  104628
  104625       7  104634  104631       6  104637  104631       6  104637  104634
       7  104643  104640       6  104646  104640       6  104646  104643       7
  104652  104649       6  104655  104649       6  104655  104652       7  104661
  104658       6  104664  104658       6  104664  104661       7  104670  104667
       6  104673  104667       6  104673  104670       7  104679  104676       6
  104682  104676       6  104682  104679       7  104688  104685       6  104691
  104685       6  104691  104688       7  104697  104694       6  104700  104694
       6  104700  104697       7  104706  104703       6  104709  104703       6
  104709  104706       7  104715  104712       6  104718  104712       6  104718
  104715       7  104724  104721       6  104727  104721       6  104727  104724
       7  104733  104730       6  104736  104730       6  104736  104733       7
  104742  104739       6  104745  104739       6  104745  104742       7  104751
  104748       6  104754  104748       6  104754  104751       7  104760  104757
       6  104763  104757       6  104763  104760       7  104769  104766       6
  104772  104766       6  104772  104769       7  104778  104775       6  104781
  104775       6  104781  104778       7  104787  104784       6  104790  104784
       6  104790  104787       7  104796  104793       6  104799  104793       6
  104799  104796       7  104805  104802       6  104808  104802       6  104808
  104805       7  104814  104811       6  104817  104811       6  104817  104814
       7  104823  104820       6  104826  104820       6  104826  104823       7
  104832  104829       6  104835  104829       6  104835  104832       7  104841
  104838       6  104844  104838       6  104844  104841       7  104850  104847
       6  104853  104847       6  104853  104850       7  104859  104856       6
  104862  104856       6  104862  104859       7  104868  104865       6  104871
  104865       6  104871  104868       7  104877  104874       6  104880  104874
       6  104880  104877       7  104886  104883       6  104889  104883       6
  104889  104886       7  104895  104892       6  104898  104892       6  104898
  104895       7  104904  104901       6  104907  104901       6  104907  104904
       7  104913  104910       6  104916  104910       6  104916  104913       7
  104922  104919       6  104925  104919       6  104925  104922       7  104931
  104928       6  104934  104928       6  104934  104931       7  104940  104937
       6  104943  104937       6  104943  104940       7  104949  104946       6
  104952  104946       6  104952  104949       7  104958  104955       6  104961
  104955       6  104961  104958       7  104967  104964       6  104970  104964
       6  104970  104967       7  104976  104973       6  104979  104973       6
  104979  104976       7  104985  104982       6  104988  104982       6  104988
  104985       7  104994  104991       6  104997  104991       6  104997  104994
       7  105003  105000       6  105006  105000       6  105006  105003       7
  105012  105009       6  105015  105009       6  105015  105012       7  105021
  105018       6  105024  105018       6  105024  105021       7  105030  105027
       6  105033  105027       6  105033  105030       7  105039  105036       6
  105042  105036       6  105042  105039       7  105048  105045       6  105051
  105045       6  105051  105048       7  105057  105054       6  105060  105054
       6  105060  105057       7  105066  105063       6  105069  105063       6
  105069  105066       7  105075  105072       6  105078  105072       6  105078
  105075       7  105084  105081       6  105087  105081       6  105087  105084
       7  105093  105090       6  105096  105090       6  105096  105093       7
  105102  105099       6  105105  105099       6  105105  105102       7  105111
  105108       6  105114  105108       6  105114  105111       7  105120  105117
       6  105123  105117       6  105123  105120       7  105129  105126       6
  105132  105126       6  105132  105129       7  105138  105135       6  105141
  105135       6  105141  105138       7  105147  105144       6  105150  105144
       6  105150  105147       7  105156  105153       6  105159  105153       6
  105159  105156       7  105165  105162       6  105168  105162       6  105168
  105165       7  105174  105171       6  105177  105171       6  105177  105174
       7  105183  105180       6  105186  105180       6  105186  105183       7
  105192  105189       6  105195  105189       6  105195  105192       7  105201
  105198       6  105204  105198       6  105204  105201       7  105210  105207
       6  105213  105207       6  105213  105210       7  105219  105216       6
  105222  105216       6  105222  105219       7  105228  105225       6  105231
  105225       6  105231  105228       7  105237  105234       6  105240  105234
       6  105240  105237       7  105246  105243       6  105249  105243       6
  105249  105246       7  105255  105252       6  105258  105252       6  105258
  105255       7  105264  105261       6  105267  105261       6  105267  105264
       7  105273  105270       6  105276  105270       6  105276  105273       7
  105282  105279       6  105285  105279       6  105285  105282       7  105291
  105288       6  105294  105288       6  105294  105291       7  105300  105297
       6  105303  105297       6  105303  105300       7  105309  105306       6
  105312  105306       6  105312  105309       7  105318  105315       6  105321
  105315       6  105321  105318       7  105327  105324       6  105330  105324
       6  105330  105327       7  105336  105333       6  105339  105333       6
  105339  105336       7  105345  105342       6  105348  105342       6  105348
  105345       7  105354  105351       6  105357  105351       6  105357  105354
       7  105363  105360       6  105366  105360       6  105366  105363       7
  105372  105369       6  105375  105369       6  105375  105372       7  105381
  105378       6  105384  105378       6  105384  105381       7  105390  105387
       6  105393  105387       6  105393  105390       7  105399  105396       6
  105402  105396       6  105402  105399       7  105408  105405       6  105411
  105405       6  105411  105408       7  105417  105414       6  105420  105414
       6  105420  105417       7  105426  105423       6  105429  105423       6
  105429  105426       7  105435  105432       6  105438  105432       6  105438
  105435       7  105444  105441       6  105447  105441       6  105447  105444
       7  105453  105450       6  105456  105450       6  105456  105453       7
  105462  105459       6  105465  105459       6  105465  105462       7  105471
  105468       6  105474  105468       6  105474  105471       7  105480  105477
       6  105483  105477       6  105483  105480       7  105489  105486       6
  105492  105486       6  105492  105489       7  105498  105495       6  105501
  105495       6  105501  105498       7  105507  105504       6  105510  105504
       6  105510  105507       7  105516  105513       6  105519  105513       6
  105519  105516       7  105525  105522       6  105528  105522       6  105528
  105525       7  105534  105531       6  105537  105531       6  105537  105534
       7  105543  105540       6  105546  105540       6  105546  105543       7
  105552  105549       6  105555  105549       6  105555  105552       7  105561
  105558       6  105564  105558       6  105564  105561       7  105570  105567
       6  105573  105567       6  105573  105570       7  105579  105576       6
  105582  105576       6  105582  105579       7  105588  105585       6  105591
  105585       6  105591  105588       7  105597  105594       6  105600  105594
       6  105600  105597       7  105606  105603       6  105609  105603       6
  105609  105606       7  105615  105612       6  105618  105612       6  105618
  105615       7  105624  105621       6  105627  105621       6  105627  105624
       7  105633  105630       6  105636  105630       6  105636  105633       7
  105642  105639       6  105645  105639       6  105645  105642       7  105651
  105648       6  105654  105648       6  105654  105651       7  105660  105657
       6  105663  105657       6  105663  105660       7  105669  105666       6
  105672  105666       6  105672  105669       7  105678  105675       6  105681
  105675       6  105681  105678       7  105687  105684       6  105690  105684
       6  105690  105687       7  105696  105693       6  105699  105693       6
  105699  105696       7  105705  105702       6  105708  105702       6  105708
  105705       7  105714  105711       6  105717  105711       6  105717  105714
       7  105723  105720       6  105726  105720       6  105726  105723       7
  105732  105729       6  105735  105729       6  105735  105732       7  105741
  105738       6  105744  105738       6  105744  105741       7  105750  105747
       6  105753  105747       6  105753  105750       7  105759  105756       6
  105762  105756       6  105762  105759       7  105768  105765       6  105771
  105765       6  105771  105768       7  105777  105774       6  105780  105774
       6  105780  105777       7  105786  105783       6  105789  105783       6
  105789  105786       7  105795  105792       6  105798  105792       6  105798
  105795       7  105804  105801       6  105807  105801       6  105807  105804
       7  105813  105810       6  105816  105810       6  105816  105813       7
  105822  105819       6  105825  105819       6  105825  105822       7  105831
  105828       6  105834  105828       6  105834  105831       7  105840  105837
       6  105843  105837       6  105843  105840       7  105849  105846       6
  105852  105846       6  105852  105849       7  105858  105855       6  105861
  105855       6  105861  105858       7  105867  105864       6  105870  105864
       6  105870  105867       7  105876  105873       6  105879  105873       6
  105879  105876       7  105885  105882       6  105888  105882       6  105888
  105885       7  105894  105891       6  105897  105891       6  105897  105894
       7  105903  105900       6  105906  105900       6  105906  105903       7
  105912  105909       6  105915  105909       6  105915  105912       7  105921
  105918       6  105924  105918       6  105924  105921       7  105930  105927
       6  105933  105927       6  105933  105930       7  105939  105936       6
  105942  105936       6  105942  105939       7  105948  105945       6  105951
  105945       6  105951  105948       7  105957  105954       6  105960  105954
       6  105960  105957       7  105966  105963       6  105969  105963       6
  105969  105966       7  105975  105972       6  105978  105972       6  105978
  105975       7  105984  105981       6  105987  105981       6  105987  105984
       7  105993  105990       6  105996  105990       6  105996  105993       7
  106002  105999       6  106005  105999       6  106005  106002       7  106011
  106008       6  106014  106008       6  106014  106011       7  106020  106017
       6  106023  106017       6  106023  106020       7  106029  106026       6
  106032  106026       6  106032  106029       7  106038  106035       6  106041
  106035       6  106041  106038       7  106047  106044       6  106050  106044
       6  106050  106047       7  106056  106053       6  106059  106053       6
  106059  106056       7  106065  106062       6  106068  106062       6  106068
  106065       7  106074  106071       6  106077  106071       6  106077  106074
       7  106083  106080       6  106086  106080       6  106086  106083       7
  106092  106089       6  106095  106089       6  106095  106092       7  106101
  106098       6  106104  106098       6  106104  106101       7  106110  106107
       6  106113  106107       6  106113  106110       7  106119  106116       6
  106122  106116       6  106122  106119       7  106128  106125       6  106131
  106125       6  106131  106128       7  106137  106134       6  106140  106134
       6  106140  106137       7  106146  106143       6  106149  106143       6
  106149  106146       7  106155  106152       6  106158  106152       6  106158
  106155       7  106164  106161       6  106167  106161       6  106167  106164
       7  106173  106170       6  106176  106170       6  106176  106173       7
  106182  106179       6  106185  106179       6  106185  106182       7  106191
  106188       6  106194  106188       6  106194  106191       7  106200  106197
       6  106203  106197       6  106203  106200       7  106209  106206       6
  106212  106206       6  106212  106209       7  106218  106215       6  106221
  106215       6  106221  106218       7  106227  106224       6  106230  106224
       6  106230  106227       7  106236  106233       6  106239  106233       6
  106239  106236       7  106245  106242       6  106248  106242       6  106248
  106245       7  106254  106251       6  106257  106251       6  106257  106254
       7  106263  106260       6  106266  106260       6  106266  106263       7
  106272  106269       6  106275  106269       6  106275  106272       7  106281
  106278       6  106284  106278       6  106284  106281       7  106290  106287
       6  106293  106287       6  106293  106290       7  106299  106296       6
  106302  106296       6  106302  106299       7  106308  106305       6  106311
  106305       6  106311  106308       7  106317  106314       6  106320  106314
       6  106320  106317       7  106326  106323       6  106329  106323       6
  106329  106326       7  106335  106332       6  106338  106332       6  106338
  106335       7  106344  106341       6  106347  106341       6  106347  106344
       7  106353  106350       6  106356  106350       6  106356  106353       7
  106362  106359       6  106365  106359       6  106365  106362       7  106371
  106368       6  106374  106368       6  106374  106371       7  106380  106377
       6  106383  106377       6  106383  106380       7  106389  106386       6
  106392  106386       6  106392  106389       7  106398  106395       6  106401
  106395       6  106401  106398       7  106407  106404       6  106410  106404
       6  106410  106407       7  106416  106413       6  106419  106413       6
  106419  106416       7  106425  106422       6  106428  106422       6  106428
  106425       7  106434  106431       6  106437  106431       6  106437  106434
       7  106443  106440       6  106446  106440       6  106446  106443       7
  106452  106449       6  106455  106449       6  106455  106452       7  106461
  106458       6  106464  106458       6  106464  106461       7  106470  106467
       6  106473  106467       6  106473  106470       7  106479  106476       6
  106482  106476       6  106482  106479       7  106488  106485       6  106491
  106485       6  106491  106488       7  106497  106494       6  106500  106494
       6  106500  106497       7  106506  106503       6  106509  106503       6
  106509  106506       7  106515  106512       6  106518  106512       6  106518
  106515       7  106524  106521       6  106527  106521       6  106527  106524
       7  106533  106530       6  106536  106530       6  106536  106533       7
  106542  106539       6  106545  106539       6  106545  106542       7  106551
  106548       6  106554  106548       6  106554  106551       7  106560  106557
       6  106563  106557       6  106563  106560       7  106569  106566       6
  106572  106566       6  106572  106569       7  106578  106575       6  106581
  106575       6  106581  106578       7  106587  106584       6  106590  106584
       6  106590  106587       7  106596  106593       6  106599  106593       6
  106599  106596       7  106605  106602       6  106608  106602       6  106608
  106605       7  106614  106611       6  106617  106611       6  106617  106614
       7  106623  106620       6  106626  106620       6  106626  106623       7
  106632  106629       6  106635  106629       6  106635  106632       7  106641
  106638       6  106644  106638       6  106644  106641       7  106650  106647
       6  106653  106647       6  106653  106650       7  106659  106656       6
  106662  106656       6  106662  106659       7  106668  106665       6  106671
  106665       6  106671  106668       7  106677  106674       6  106680  106674
       6  106680  106677       7  106686  106683       6  106689  106683       6
  106689  106686       7  106695  106692       6  106698  106692       6  106698
  106695       7  106704  106701       6  106707  106701       6  106707  106704
       7  106713  106710       6  106716  106710       6  106716  106713       7
  106722  106719       6  106725  106719       6  106725  106722       7  106731
  106728       6  106734  106728       6  106734  106731       7  106740  106737
       6  106743  106737       6  106743  106740       7  106749  106746       6
  106752  106746       6  106752  106749       7  106758  106755       6  106761
  106755       6  106761  106758       7  106767  106764       6  106770  106764
       6  106770  106767       7  106776  106773       6  106779  106773       6
  106779  106776       7  106785  106782       6  106788  106782       6  106788
  106785       7  106794  106791       6  106797  106791       6  106797  106794
       7  106803  106800       6  106806  106800       6  106806  106803       7
  106812  106809       6  106815  106809       6  106815  106812       7  106821
  106818       6  106824  106818       6  106824  106821       7  106830  106827
       6  106833  106827       6  106833  106830       7  106839  106836       6
  106842  106836       6  106842  106839       7  106848  106845       6  106851
  106845       6  106851  106848       7  106857  106854       6  106860  106854
       6  106860  106857       7  106866  106863       6  106869  106863       6
  106869  106866       7  106875  106872       6  106878  106872       6  106878
  106875       7  106884  106881       6  106887  106881       6  106887  106884
       7  106893  106890       6  106896  106890       6  106896  106893       7
  106902  106899       6  106905  106899       6  106905  106902       7  106911
  106908       6  106914  106908       6  106914  106911       7  106920  106917
       6  106923  106917       6  106923  106920       7  106929  106926       6
  106932  106926       6  106932  106929       7  106938  106935       6  106941
  106935       6  106941  106938       7  106947  106944       6  106950  106944
       6  106950  106947       7  106956  106953       6  106959  106953       6
  106959  106956       7  106965  106962       6  106968  106962       6  106968
  106965       7  106974  106971       6  106977  106971       6  106977  106974
       7  106983  106980       6  106986  106980       6  106986  106983       7
  106992  106989       6  106995  106989       6  106995  106992       7  107001
  106998       6  107004  106998       6  107004  107001       7  107010  107007
       6  107013  107007       6  107013  107010       7  107019  107016       6
  107022  107016       6  107022  107019       7  107028  107025       6  107031
  107025       6  107031  107028       7  107037  107034       6  107040  107034
       6  107040  107037       7  107046  107043       6  107049  107043       6
  107049  107046       7  107055  107052       6  107058  107052       6  107058
  107055       7  107064  107061       6  107067  107061       6  107067  107064
       7  107073  107070       6  107076  107070       6  107076  107073       7
  107082  107079       6  107085  107079       6  107085  107082       7  107091
  107088       6  107094  107088       6  107094  107091       7  107100  107097
       6  107103  107097       6  107103  107100       7  107109  107106       6
  107112  107106       6  107112  107109       7  107118  107115       6  107121
  107115       6  107121  107118       7  107127  107124       6  107130  107124
       6  107130  107127       7  107136  107133       6  107139  107133       6
  107139  107136       7  107145  107142       6  107148  107142       6  107148
  107145       7  107154  107151       6  107157  107151       6  107157  107154
       7  107163  107160       6  107166  107160       6  107166  107163       7
  107172  107169       6  107175  107169       6  107175  107172       7  107181
  107178       6  107184  107178       6  107184  107181       7  107190  107187
       6  107193  107187       6  107193  107190       7  107199  107196       6
  107202  107196       6  107202  107199       7  107208  107205       6  107211
  107205       6  107211  107208       7  107217  107214       6  107220  107214
       6  107220  107217       7  107226  107223       6  107229  107223       6
  107229  107226       7  107235  107232       6  107238  107232       6  107238
  107235       7  107244  107241       6  107247  107241       6  107247  107244
       7  107253  107250       6  107256  107250       6  107256  107253       7
  107262  107259       6  107265  107259       6  107265  107262       7  107271
  107268       6  107274  107268       6  107274  107271       7  107280  107277
       6  107283  107277       6  107283  107280       7  107289  107286       6
  107292  107286       6  107292  107289       7  107298  107295       6  107301
  107295       6  107301  107298       7  107307  107304       6  107310  107304
       6  107310  107307       7  107316  107313       6  107319  107313       6
  107319  107316       7  107325  107322       6  107328  107322       6  107328
  107325       7  107334  107331       6  107337  107331       6  107337  107334
       7  107343  107340       6  107346  107340       6  107346  107343       7
  107352  107349       6  107355  107349       6  107355  107352       7  107361
  107358       6  107364  107358       6  107364  107361       7  107370  107367
       6  107373  107367       6  107373  107370       7  107379  107376       6
  107382  107376       6  107382  107379       7  107388  107385       6  107391
  107385       6  107391  107388       7  107397  107394       6  107400  107394
       6  107400  107397       7  107406  107403       6  107409  107403       6
  107409  107406       7  107415  107412       6  107418  107412       6  107418
  107415       7  107424  107421       6  107427  107421       6  107427  107424
       7  107433  107430       6  107436  107430       6  107436  107433       7
  107442  107439       6  107445  107439       6  107445  107442       7  107451
  107448       6  107454  107448       6  107454  107451       7  107460  107457
       6  107463  107457       6  107463  107460       7  107469  107466       6
  107472  107466       6  107472  107469       7  107478  107475       6  107481
  107475       6  107481  107478       7  107487  107484       6  107490  107484
       6  107490  107487       7  107496  107493       6  107499  107493       6
  107499  107496       7  107505  107502       6  107508  107502       6  107508
  107505       7  107514  107511       6  107517  107511       6  107517  107514
       7  107523  107520       6  107526  107520       6  107526  107523       7
  107532  107529       6  107535  107529       6  107535  107532       7  107541
  107538       6  107544  107538       6  107544  107541       7  107550  107547
       6  107553  107547       6  107553  107550       7  107559  107556       6
  107562  107556       6  107562  107559       7  107568  107565       6  107571
  107565       6  107571  107568       7  107577  107574       6  107580  107574
       6  107580  107577       7  107586  107583       6  107589  107583       6
  107589  107586       7  107595  107592       6  107598  107592       6  107598
  107595       7  107604  107601       6  107607  107601       6  107607  107604
       7  107613  107610       6  107616  107610       6  107616  107613       7
  107622  107619       6  107625  107619       6  107625  107622       7  107631
  107628       6  107634  107628       6  107634  107631       7  107640  107637
       6  107643  107637       6  107643  107640       7  107649  107646       6
  107652  107646       6  107652  107649       7  107658  107655       6  107661
  107655       6  107661  107658       7  107667  107664       6  107670  107664
       6  107670  107667       7  107676  107673       6  107679  107673       6
  107679  107676       7  107685  107682       6  107688  107682       6  107688
  107685       7  107694  107691       6  107697  107691       6  107697  107694
       7  107703  107700       6  107706  107700       6  107706  107703       7
  107712  107709       6  107715  107709       6  107715  107712       7  107721
  107718       6  107724  107718       6  107724  107721       7  107730  107727
       6  107733  107727       6  107733  107730       7  107739  107736       6
  107742  107736       6  107742  107739       7  107748  107745       6  107751
  107745       6  107751  107748       7  107757  107754       6  107760  107754
       6  107760  107757       7  107766  107763       6  107769  107763       6
  107769  107766       7  107775  107772       6  107778  107772       6  107778
  107775       7  107784  107781       6  107787  107781       6  107787  107784
       7  107793  107790       6  107796  107790       6  107796  107793       7
  107802  107799       6  107805  107799       6  107805  107802       7  107811
  107808       6  107814  107808       6  107814  107811       7  107820  107817
       6  107823  107817       6  107823  107820       7  107829  107826       6
  107832  107826       6  107832  107829       7  107838  107835       6  107841
  107835       6  107841  107838       7  107847  107844       6  107850  107844
       6  107850  107847       7  107856  107853       6  107859  107853       6
  107859  107856       7  107865  107862       6  107868  107862       6  107868
  107865       7  107874  107871       6  107877  107871       6  107877  107874
       7  107883  107880       6  107886  107880       6  107886  107883       7
  107892  107889       6  107895  107889       6  107895  107892       7  107901
  107898       6  107904  107898       6  107904  107901       7  107910  107907
       6  107913  107907       6  107913  107910       7  107919  107916       6
  107922  107916       6  107922  107919       7  107928  107925       6  107931
  107925       6  107931  107928       7  107937  107934       6  107940  107934
       6  107940  107937       7  107946  107943       6  107949  107943       6
  107949  107946       7  107955  107952       6  107958  107952       6  107958
  107955       7  107964  107961       6  107967  107961       6  107967  107964
       7  107973  107970       6  107976  107970       6  107976  107973       7
  107982  107979       6  107985  107979       6  107985  107982       7  107991
  107988       6  107994  107988       6  107994  107991       7  108000  107997
       6  108003  107997       6  108003  108000       7  108009  108006       6
  108012  108006       6  108012  108009       7  108018  108015       6  108021
  108015       6  108021  108018       7  108027  108024       6  108030  108024
       6  108030  108027       7  108036  108033       6  108039  108033       6
  108039  108036       7  108045  108042       6  108048  108042       6  108048
  108045       7  108054  108051       6  108057  108051       6  108057  108054
       7  108063  108060       6  108066  108060       6  108066  108063       7
  108072  108069       6  108075  108069       6  108075  108072       7  108081
  108078       6  108084  108078       6  108084  108081       7  108090  108087
       6  108093  108087       6  108093  108090       7  108099  108096       6
  108102  108096       6  108102  108099       7  108108  108105       6  108111
  108105       6  108111  108108       7  108117  108114       6  108120  108114
       6  108120  108117       7  108126  108123       6  108129  108123       6
  108129  108126       7  108135  108132       6  108138  108132       6  108138
  108135       7  108144  108141       6  108147  108141       6  108147  108144
       7  108153  108150       6  108156  108150       6  108156  108153       7
  108162  108159       6  108165  108159       6  108165  108162       7  108171
  108168       6  108174  108168       6  108174  108171       7  108180  108177
       6  108183  108177       6  108183  108180       7  108189  108186       6
  108192  108186       6  108192  108189       7  108198  108195       6  108201
  108195       6  108201  108198       7  108207  108204       6  108210  108204
       6  108210  108207       7  108216  108213       6  108219  108213       6
  108219  108216       7  108225  108222       6  108228  108222       6  108228
  108225       7  108234  108231       6  108237  108231       6  108237  108234
       7  108243  108240       6  108246  108240       6  108246  108243       7
  108252  108249       6  108255  108249       6  108255  108252       7  108261
  108258       6  108264  108258       6  108264  108261       7  108270  108267
       6  108273  108267       6  108273  108270       7  108279  108276       6
  108282  108276       6  108282  108279       7  108288  108285       6  108291
  108285       6  108291  108288       7  108297  108294       6  108300  108294
       6  108300  108297       7  108306  108303       6  108309  108303       6
  108309  108306       7  108315  108312       6  108318  108312       6  108318
  108315       7  108324  108321       6  108327  108321       6  108327  108324
       7  108333  108330       6  108336  108330       6  108336  108333       7
  108342  108339       6  108345  108339       6  108345  108342       7  108351
  108348       6  108354  108348       6  108354  108351       7  108360  108357
       6  108363  108357       6  108363  108360       7  108369  108366       6
  108372  108366       6  108372  108369       7  108378  108375       6  108381
  108375       6  108381  108378       7  108387  108384       6  108390  108384
       6  108390  108387       7  108396  108393       6  108399  108393       6
  108399  108396       7  108405  108402       6  108408  108402       6  108408
  108405       7  108414  108411       6  108417  108411       6  108417  108414
       7  108423  108420       6  108426  108420       6  108426  108423       7
  108432  108429       6  108435  108429       6  108435  108432       7  108441
  108438       6  108444  108438       6  108444  108441       7  108450  108447
       6  108453  108447       6  108453  108450       7  108459  108456       6
  108462  108456       6  108462  108459       7  108468  108465       6  108471
  108465       6  108471  108468       7  108477  108474       6  108480  108474
       6  108480  108477       7  108486  108483       6  108489  108483       6
  108489  108486       7  108495  108492       6  108498  108492       6  108498
  108495       7  108504  108501       6  108507  108501       6  108507  108504
       7  108513  108510       6  108516  108510       6  108516  108513       7
  108522  108519       6  108525  108519       6  108525  108522       7  108531
  108528       6  108534  108528       6  108534  108531       7  108540  108537
       6  108543  108537       6  108543  108540       7  108549  108546       6
  108552  108546       6  108552  108549       7  108558  108555       6  108561
  108555       6  108561  108558       7  108567  108564       6  108570  108564
       6  108570  108567       7  108576  108573       6  108579  108573       6
  108579  108576       7  108585  108582       6  108588  108582       6  108588
  108585       7  108594  108591       6  108597  108591       6  108597  108594
       7  108603  108600       6  108606  108600       6  108606  108603       7
  108612  108609       6  108615  108609       6  108615  108612       7  108621
  108618       6  108624  108618       6  108624  108621       7  108630  108627
       6  108633  108627       6  108633  108630       7  108639  108636       6
  108642  108636       6  108642  108639       7  108648  108645       6  108651
  108645       6  108651  108648       7  108657  108654       6  108660  108654
       6  108660  108657       7  108666  108663       6  108669  108663       6
  108669  108666       7  108675  108672       6  108678  108672       6  108678
  108675       7  108684  108681       6  108687  108681       6  108687  108684
       7  108693  108690       6  108696  108690       6  108696  108693       7
  108702  108699       6  108705  108699       6  108705  108702       7  108711
  108708       6  108714  108708       6  108714  108711       7  108720  108717
       6  108723  108717       6  108723  108720       7  108729  108726       6
  108732  108726       6  108732  108729       7  108738  108735       6  108741
  108735       6  108741  108738       7  108747  108744       6  108750  108744
       6  108750  108747       7  108756  108753       6  108759  108753       6
  108759  108756       7  108765  108762       6  108768  108762       6  108768
  108765       7  108774  108771       6  108777  108771       6  108777  108774
       7  108783  108780       6  108786  108780       6  108786  108783       7
  108792  108789       6  108795  108789       6  108795  108792       7  108801
  108798       6  108804  108798       6  108804  108801       7  108810  108807
       6  108813  108807       6  108813  108810       7  108819  108816       6
  108822  108816       6  108822  108819       7  108828  108825       6  108831
  108825       6  108831  108828       7  108837  108834       6  108840  108834
       6  108840  108837       7  108846  108843       6  108849  108843       6
  108849  108846       7  108855  108852       6  108858  108852       6  108858
  108855       7  108864  108861       6  108867  108861       6  108867  108864
       7  108873  108870       6  108876  108870       6  108876  108873       7
  108882  108879       6  108885  108879       6  108885  108882       7  108891
  108888       6  108894  108888       6  108894  108891       7  108900  108897
       6  108903  108897       6  108903  108900       7  108909  108906       6
  108912  108906       6  108912  108909       7  108918  108915       6  108921
  108915       6  108921  108918       7  108927  108924       6  108930  108924
       6  108930  108927       7  108936  108933       6  108939  108933       6
  108939  108936       7  108945  108942       6  108948  108942       6  108948
  108945       7  108954  108951       6  108957  108951       6  108957  108954
       7  108963  108960       6  108966  108960       6  108966  108963       7
  108972  108969       6  108975  108969       6  108975  108972       7  108981
  108978       6  108984  108978       6  108984  108981       7  108990  108987
       6  108993  108987       6  108993  108990       7  108999  108996       6
  109002  108996       6  109002  108999       7  109008  109005       6  109011
  109005       6  109011  109008       7  109017  109014       6  109020  109014
       6  109020  109017       7  109026  109023       6  109029  109023       6
  109029  109026       7  109035  109032       6  109038  109032       6  109038
  109035       7  109044  109041       6  109047  109041       6  109047  109044
       7  109053  109050       6  109056  109050       6  109056  109053       7
  109062  109059       6  109065  109059       6  109065  109062       7  109071
  109068       6  109074  109068       6  109074  109071       7  109080  109077
       6  109083  109077       6  109083  109080       7  109089  109086       6
  109092  109086       6  109092  109089       7  109098  109095       6  109101
  109095       6  109101  109098       7  109107  109104       6  109110  109104
       6  109110  109107       7  109116  109113       6  109119  109113       6
  109119  109116       7  109125  109122       6  109128  109122       6  109128
  109125       7  109134  109131       6  109137  109131       6  109137  109134
       7  109143  109140       6  109146  109140       6  109146  109143       7
  109152  109149       6  109155  109149       6  109155  109152       7  109161
  109158       6  109164  109158       6  109164  109161       7  109170  109167
       6  109173  109167       6  109173  109170       7  109179  109176       6
  109182  109176       6  109182  109179       7  109188  109185       6  109191
  109185       6  109191  109188       7  109197  109194       6  109200  109194
       6  109200  109197       7  109206  109203       6  109209  109203       6
  109209  109206       7  109215  109212       6  109218  109212       6  109218
  109215       7  109224  109221       6  109227  109221       6  109227  109224
       7  109233  109230       6  109236  109230       6  109236  109233       7
  109242  109239       6  109245  109239       6  109245  109242       7  109251
  109248       6  109254  109248       6  109254  109251       7  109260  109257
       6  109263  109257       6  109263  109260       7  109269  109266       6
  109272  109266       6  109272  109269       7  109278  109275       6  109281
  109275       6  109281  109278       7  109287  109284       6  109290  109284
       6  109290  109287       7  109296  109293       6  109299  109293       6
  109299  109296       7  109305  109302       6  109308  109302       6  109308
  109305       7  109314  109311       6  109317  109311       6  109317  109314
       7  109323  109320       6  109326  109320       6  109326  109323       7
  109332  109329       6  109335  109329       6  109335  109332       7  109341
  109338       6  109344  109338       6  109344  109341       7  109350  109347
       6  109353  109347       6  109353  109350       7  109359  109356       6
  109362  109356       6  109362  109359       7  109368  109365       6  109371
  109365       6  109371  109368       7  109377  109374       6  109380  109374
       6  109380  109377       7  109386  109383       6  109389  109383       6
  109389  109386       7  109395  109392       6  109398  109392       6  109398
  109395       7  109404  109401       6  109407  109401       6  109407  109404
       7  109413  109410       6  109416  109410       6  109416  109413       7
  109422  109419       6  109425  109419       6  109425  109422       7  109431
  109428       6  109434  109428       6  109434  109431       7  109440  109437
       6  109443  109437       6  109443  109440       7  109449  109446       6
  109452  109446       6  109452  109449       7  109458  109455       6  109461
  109455       6  109461  109458       7  109467  109464       6  109470  109464
       6  109470  109467       7  109476  109473       6  109479  109473       6
  109479  109476       7  109485  109482       6  109488  109482       6  109488
  109485       7  109494  109491       6  109497  109491       6  109497  109494
       7  109503  109500       6  109506  109500       6  109506  109503       7
  109512  109509       6  109515  109509       6  109515  109512       7  109521
  109518       6  109524  109518       6  109524  109521       7  109530  109527
       6  109533  109527       6  109533  109530       7  109539  109536       6
  109542  109536       6  109542  109539       7  109548  109545       6  109551
  109545       6  109551  109548       7  109557  109554       6  109560  109554
       6  109560  109557       7  109566  109563       6  109569  109563       6
  109569  109566       7  109575  109572       6  109578  109572       6  109578
  109575       7  109584  109581       6  109587  109581       6  109587  109584
       7  109593  109590       6  109596  109590       6  109596  109593       7
  109602  109599       6  109605  109599       6  109605  109602       7  109611
  109608       6  109614  109608       6  109614  109611       7  109620  109617
       6  109623  109617       6  109623  109620       7  109629  109626       6
  109632  109626       6  109632  109629       7  109638  109635       6  109641
  109635       6  109641  109638       7  109647  109644       6  109650  109644
       6  109650  109647       7  109656  109653       6  109659  109653       6
  109659  109656       7  109665  109662       6  109668  109662       6  109668
  109665       7  109674  109671       6  109677  109671       6  109677  109674
       7  109683  109680       6  109686  109680       6  109686  109683       7
  109692  109689       6  109695  109689       6  109695  109692       7  109701
  109698       6  109704  109698       6  109704  109701       7  109710  109707
       6  109713  109707       6  109713  109710       7  109719  109716       6
  109722  109716       6  109722  109719       7  109728  109725       6  109731
  109725       6  109731  109728       7  109737  109734       6  109740  109734
       6  109740  109737       7  109746  109743       6  109749  109743       6
  109749  109746       7  109755  109752       6  109758  109752       6  109758
  109755       7  109764  109761       6  109767  109761       6  109767  109764
       7  109773  109770       6  109776  109770       6  109776  109773       7
  109782  109779       6  109785  109779       6  109785  109782       7  109791
  109788       6  109794  109788       6  109794  109791       7  109800  109797
       6  109803  109797       6  109803  109800       7  109809  109806       6
  109812  109806       6  109812  109809       7  109818  109815       6  109821
  109815       6  109821  109818       7  109827  109824       6  109830  109824
       6  109830  109827       7  109836  109833       6  109839  109833       6
  109839  109836       7  109845  109842       6  109848  109842       6  109848
  109845       7  109854  109851       6  109857  109851       6  109857  109854
       7  109863  109860       6  109866  109860       6  109866  109863       7
  109872  109869       6  109875  109869       6  109875  109872       7  109881
  109878       6  109884  109878       6  109884  109881       7  109890  109887
       6  109893  109887       6  109893  109890       7  109899  109896       6
  109902  109896       6  109902  109899       7  109908  109905       6  109911
  109905       6  109911  109908       7  109917  109914       6  109920  109914
       6  109920  109917       7  109926  109923       6  109929  109923       6
  109929  109926       7  109935  109932       6  109938  109932       6  109938
  109935       7  109944  109941       6  109947  109941       6  109947  109944
       7  109953  109950       6  109956  109950       6  109956  109953       7
  109962  109959       6  109965  109959       6  109965  109962       7  109971
  109968       6  109974  109968       6  109974  109971       7  109980  109977
       6  109983  109977       6  109983  109980       7  109989  109986       6
  109992  109986       6  109992  109989       7  109998  109995       6  110001
  109995       6  110001  109998       7  110007  110004       6  110010  110004
       6  110010  110007       7  110016  110013       6  110019  110013       6
  110019  110016       7  110025  110022       6  110028  110022       6  110028
  110025       7  110034  110031       6  110037  110031       6  110037  110034
       7  110043  110040       6  110046  110040       6  110046  110043       7
  110052  110049       6  110055  110049       6  110055  110052       7  110061
  110058       6  110064  110058       6  110064  110061       7  110070  110067
       6  110073  110067       6  110073  110070       7  110079  110076       6
  110082  110076       6  110082  110079       7  110088  110085       6  110091
  110085       6  110091  110088       7  110097  110094       6  110100  110094
       6  110100  110097       7  110106  110103       6  110109  110103       6
  110109  110106       7  110115  110112       6  110118  110112       6  110118
  110115       7  110124  110121       6  110127  110121       6  110127  110124
       7  110133  110130       6  110136  110130       6  110136  110133       7
  110142  110139       6  110145  110139       6  110145  110142       7  110151
  110148       6  110154  110148       6  110154  110151       7  110160  110157
       6  110163  110157       6  110163  110160       7  110169  110166       6
  110172  110166       6  110172  110169       7  110178  110175       6  110181
  110175       6  110181  110178       7  110187  110184       6  110190  110184
       6  110190  110187       7  110196  110193       6  110199  110193       6
  110199  110196       7  110205  110202       6  110208  110202       6  110208
  110205       7  110214  110211       6  110217  110211       6  110217  110214
       7  110223  110220       6  110226  110220       6  110226  110223       7
  110232  110229       6  110235  110229       6  110235  110232       7  110241
  110238       6  110244  110238       6  110244  110241       7  110250  110247
       6  110253  110247       6  110253  110250       7  110259  110256       6
  110262  110256       6  110262  110259       7  110268  110265       6  110271
  110265       6  110271  110268       7  110277  110274       6  110280  110274
       6  110280  110277       7  110286  110283       6  110289  110283       6
  110289  110286       7  110295  110292       6  110298  110292       6  110298
  110295       7  110304  110301       6  110307  110301       6  110307  110304
       7  110313  110310       6  110316  110310       6  110316  110313       7
  110322  110319       6  110325  110319       6  110325  110322       7  110331
  110328       6  110334  110328       6  110334  110331       7  110340  110337
       6  110343  110337       6  110343  110340       7  110349  110346       6
  110352  110346       6  110352  110349       7  110358  110355       6  110361
  110355       6  110361  110358       7  110367  110364       6  110370  110364
       6  110370  110367       7  110376  110373       6  110379  110373       6
  110379  110376       7  110385  110382       6  110388  110382       6  110388
  110385       7  110394  110391       6  110397  110391       6  110397  110394
       7  110403  110400       6  110406  110400       6  110406  110403       7
  110412  110409       6  110415  110409       6  110415  110412       7  110421
  110418       6  110424  110418       6  110424  110421       7  110430  110427
       6  110433  110427       6  110433  110430       7  110439  110436       6
  110442  110436       6  110442  110439       7  110448  110445       6  110451
  110445       6  110451  110448       7  110457  110454       6  110460  110454
       6  110460  110457       7  110466  110463       6  110469  110463       6
  110469  110466       7  110475  110472       6  110478  110472       6  110478
  110475       7  110484  110481       6  110487  110481       6  110487  110484
       7  110493  110490       6  110496  110490       6  110496  110493       7
  110502  110499       6  110505  110499       6  110505  110502       7  110511
  110508       6  110514  110508       6  110514  110511       7  110520  110517
       6  110523  110517       6  110523  110520       7  110529  110526       6
  110532  110526       6  110532  110529       7  110538  110535       6  110541
  110535       6  110541  110538       7  110547  110544       6  110550  110544
       6  110550  110547       7  110556  110553       6  110559  110553       6
  110559  110556       7  110565  110562       6  110568  110562       6  110568
  110565       7  110574  110571       6  110577  110571       6  110577  110574
       7  110583  110580       6  110586  110580       6  110586  110583       7
  110592  110589       6  110595  110589       6  110595  110592       7  110601
  110598       6  110604  110598       6  110604  110601       7  110610  110607
       6  110613  110607       6  110613  110610       7  110619  110616       6
  110622  110616       6  110622  110619       7  110628  110625       6  110631
  110625       6  110631  110628       7  110637  110634       6  110640  110634
       6  110640  110637       7  110646  110643       6  110649  110643       6
  110649  110646       7  110655  110652       6  110658  110652       6  110658
  110655       7  110664  110661       6  110667  110661       6  110667  110664
       7  110673  110670       6  110676  110670       6  110676  110673       7
  110682  110679       6  110685  110679       6  110685  110682       7  110691
  110688       6  110694  110688       6  110694  110691       7  110700  110697
       6  110703  110697       6  110703  110700       7  110709  110706       6
  110712  110706       6  110712  110709       7  110718  110715       6  110721
  110715       6  110721  110718       7  110727  110724       6  110730  110724
       6  110730  110727       7  110736  110733       6  110739  110733       6
  110739  110736       7  110745  110742       6  110748  110742       6  110748
  110745       7  110754  110751       6  110757  110751       6  110757  110754
       7  110763  110760       6  110766  110760       6  110766  110763       7
  110772  110769       6  110775  110769       6  110775  110772       7  110781
  110778       6  110784  110778       6  110784  110781       7  110790  110787
       6  110793  110787       6  110793  110790       7  110799  110796       6
  110802  110796       6  110802  110799       7  110808  110805       6  110811
  110805       6  110811  110808       7  110817  110814       6  110820  110814
       6  110820  110817       7  110826  110823       6  110829  110823       6
  110829  110826       7  110835  110832       6  110838  110832       6  110838
  110835       7  110844  110841       6  110847  110841       6  110847  110844
       7  110853  110850       6  110856  110850       6  110856  110853       7
  110862  110859       6  110865  110859       6  110865  110862       7  110871
  110868       6  110874  110868       6  110874  110871       7  110880  110877
       6  110883  110877       6  110883  110880       7  110889  110886       6
  110892  110886       6  110892  110889       7  110898  110895       6  110901
  110895       6  110901  110898       7  110907  110904       6  110910  110904
       6  110910  110907       7  110916  110913       6  110919  110913       6
  110919  110916       7  110925  110922       6  110928  110922       6  110928
  110925       7  110934  110931       6  110937  110931       6  110937  110934
       7  110943  110940       6  110946  110940       6  110946  110943       7
  110952  110949       6  110955  110949       6  110955  110952       7  110961
  110958       6  110964  110958       6  110964  110961       7  110970  110967
       6  110973  110967       6  110973  110970       7  110979  110976       6
  110982  110976       6  110982  110979       7  110988  110985       6  110991
  110985       6  110991  110988       7  110997  110994       6  111000  110994
       6  111000  110997       7  111006  111003       6  111009  111003       6
  111009  111006       7  111015  111012       6  111018  111012       6  111018
  111015       7  111024  111021       6  111027  111021       6  111027  111024
       7  111033  111030       6  111036  111030       6  111036  111033       7
  111042  111039       6  111045  111039       6  111045  111042       7  111051
  111048       6  111054  111048       6  111054  111051       7  111060  111057
       6  111063  111057       6  111063  111060       7  111069  111066       6
  111072  111066       6  111072  111069       7  111078  111075       6  111081
  111075       6  111081  111078       7  111087  111084       6  111090  111084
       6  111090  111087       7  111096  111093       6  111099  111093       6
  111099  111096       7  111105  111102       6  111108  111102       6  111108
  111105       7  111114  111111       6  111117  111111       6  111117  111114
       7  111123  111120       6  111126  111120       6  111126  111123       7
  111132  111129       6  111135  111129       6  111135  111132       7  111141
  111138       6  111144  111138       6  111144  111141       7  111150  111147
       6  111153  111147       6  111153  111150       7  111159  111156       6
  111162  111156       6  111162  111159       7  111168  111165       6  111171
  111165       6  111171  111168       7  111177  111174       6  111180  111174
       6  111180  111177       7  111186  111183       6  111189  111183       6
  111189  111186       7  111195  111192       6  111198  111192       6  111198
  111195       7  111204  111201       6  111207  111201       6  111207  111204
       7  111213  111210       6  111216  111210       6  111216  111213       7
  111222  111219       6  111225  111219       6  111225  111222       7  111231
  111228       6  111234  111228       6  111234  111231       7  111240  111237
       6  111243  111237       6  111243  111240       7  111249  111246       6
  111252  111246       6  111252  111249       7  111258  111255       6  111261
  111255       6  111261  111258       7  111267  111264       6  111270  111264
       6  111270  111267       7  111276  111273       6  111279  111273       6
  111279  111276       7  111285  111282       6  111288  111282       6  111288
  111285       7  111294  111291       6  111297  111291       6  111297  111294
       7  111303  111300       6  111306  111300       6  111306  111303       7
  111312  111309       6  111315  111309       6  111315  111312       7  111321
  111318       6  111324  111318       6  111324  111321       7  111330  111327
       6  111333  111327       6  111333  111330       7  111339  111336       6
  111342  111336       6  111342  111339       7  111348  111345       6  111351
  111345       6  111351  111348       7  111357  111354       6  111360  111354
       6  111360  111357       7  111366  111363       6  111369  111363       6
  111369  111366       7  111375  111372       6  111378  111372       6  111378
  111375       7  111384  111381       6  111387  111381       6  111387  111384
       7  111393  111390       6  111396  111390       6  111396  111393       7
  111402  111399       6  111405  111399       6  111405  111402       7  111411
  111408       6  111414  111408       6  111414  111411       7  111420  111417
       6  111423  111417       6  111423  111420       7  111429  111426       6
  111432  111426       6  111432  111429       7  111438  111435       6  111441
  111435       6  111441  111438       7  111447  111444       6  111450  111444
       6  111450  111447       7  111456  111453       6  111459  111453       6
  111459  111456       7  111465  111462       6  111468  111462       6  111468
  111465       7  111474  111471       6  111477  111471       6  111477  111474
       7  111483  111480       6  111486  111480       6  111486  111483       7
  111492  111489       6  111495  111489       6  111495  111492       7  111501
  111498       6  111504  111498       6  111504  111501       7  111510  111507
       6  111513  111507       6  111513  111510       7  111519  111516       6
  111522  111516       6  111522  111519       7  111528  111525       6  111531
  111525       6  111531  111528       7  111537  111534       6  111540  111534
       6  111540  111537       7  111546  111543       6  111549  111543       6
  111549  111546       7  111555  111552       6  111558  111552       6  111558
  111555       7  111564  111561       6  111567  111561       6  111567  111564
       7  111573  111570       6  111576  111570       6  111576  111573       7
  111582  111579       6  111585  111579       6  111585  111582       7  111591
  111588       6  111594  111588       6  111594  111591       7  111600  111597
       6  111603  111597       6  111603  111600       7  111609  111606       6
  111612  111606       6  111612  111609       7  111618  111615       6  111621
  111615       6  111621  111618       7  111627  111624       6  111630  111624
       6  111630  111627       7  111636  111633       6  111639  111633       6
  111639  111636       7  111645  111642       6  111648  111642       6  111648
  111645       7  111654  111651       6  111657  111651       6  111657  111654
       7  111663  111660       6  111666  111660       6  111666  111663       7
  111672  111669       6  111675  111669       6  111675  111672       7  111681
  111678       6  111684  111678       6  111684  111681       7  111690  111687
       6  111693  111687       6  111693  111690       7  111699  111696       6
  111702  111696       6  111702  111699       7  111708  111705       6  111711
  111705       6  111711  111708       7  111717  111714       6  111720  111714
       6  111720  111717       7  111726  111723       6  111729  111723       6
  111729  111726       7  111735  111732       6  111738  111732       6  111738
  111735       7  111744  111741       6  111747  111741       6  111747  111744
       7  111753  111750       6  111756  111750       6  111756  111753       7
  111762  111759       6  111765  111759       6  111765  111762       7  111771
  111768       6  111774  111768       6  111774  111771       7  111780  111777
       6  111783  111777       6  111783  111780       7  111789  111786       6
  111792  111786       6  111792  111789       7  111798  111795       6  111801
  111795       6  111801  111798       7  111807  111804       6  111810  111804
       6  111810  111807       7  111816  111813       6  111819  111813       6
  111819  111816       7  111825  111822       6  111828  111822       6  111828
  111825       7  111834  111831       6  111837  111831       6  111837  111834
       7  111843  111840       6  111846  111840       6  111846  111843       7
  111852  111849       6  111855  111849       6  111855  111852       7  111861
  111858       6  111864  111858       6  111864  111861       7  111870  111867
       6  111873  111867       6  111873  111870       7  111879  111876       6
  111882  111876       6  111882  111879       7  111888  111885       6  111891
  111885       6  111891  111888       7  111897  111894       6  111900  111894
       6  111900  111897       7  111906  111903       6  111909  111903       6
  111909  111906       7  111915  111912       6  111918  111912       6  111918
  111915       7  111924  111921       6  111927  111921       6  111927  111924
       7  111933  111930       6  111936  111930       6  111936  111933       7
  111942  111939       6  111945  111939       6  111945  111942       7  111951
  111948       6  111954  111948       6  111954  111951       7  111960  111957
       6  111963  111957       6  111963  111960       7  111969  111966       6
  111972  111966       6  111972  111969       7  111978  111975       6  111981
  111975       6  111981  111978       7  111987  111984       6  111990  111984
       6  111990  111987       7  111996  111993       6  111999  111993       6
  111999  111996       7  112005  112002       6  112008  112002       6  112008
  112005       7  112014  112011       6  112017  112011       6  112017  112014
       7  112023  112020       6  112026  112020       6  112026  112023       7
  112032  112029       6  112035  112029       6  112035  112032       7  112041
  112038       6  112044  112038       6  112044  112041       7  112050  112047
       6  112053  112047       6  112053  112050       7  112059  112056       6
  112062  112056       6  112062  112059       7  112068  112065       6  112071
  112065       6  112071  112068       7  112077  112074       6  112080  112074
       6  112080  112077       7  112086  112083       6  112089  112083       6
  112089  112086       7  112095  112092       6  112098  112092       6  112098
  112095       7  112104  112101       6  112107  112101       6  112107  112104
       7  112113  112110       6  112116  112110       6  112116  112113       7
  112122  112119       6  112125  112119       6  112125  112122       7  112131
  112128       6  112134  112128       6  112134  112131       7  112140  112137
       6  112143  112137       6  112143  112140       7  112149  112146       6
  112152  112146       6  112152  112149       7  112158  112155       6  112161
  112155       6  112161  112158       7  112167  112164       6  112170  112164
       6  112170  112167       7  112176  112173       6  112179  112173       6
  112179  112176       7  112185  112182       6  112188  112182       6  112188
  112185       7  112194  112191       6  112197  112191       6  112197  112194
       7  112203  112200       6  112206  112200       6  112206  112203       7
  112212  112209       6  112215  112209       6  112215  112212       7  112221
  112218       6  112224  112218       6  112224  112221       7  112230  112227
       6  112233  112227       6  112233  112230       7  112239  112236       6
  112242  112236       6  112242  112239       7  112248  112245       6  112251
  112245       6  112251  112248       7  112257  112254       6  112260  112254
       6  112260  112257       7  112266  112263       6  112269  112263       6
  112269  112266       7  112275  112272       6  112278  112272       6  112278
  112275       7  112284  112281       6  112287  112281       6  112287  112284
       7  112293  112290       6  112296  112290       6  112296  112293       7
  112302  112299       6  112305  112299       6  112305  112302       7  112311
  112308       6  112314  112308       6  112314  112311       7  112320  112317
       6  112323  112317       6  112323  112320       7  112329  112326       6
  112332  112326       6  112332  112329       7  112338  112335       6  112341
  112335       6  112341  112338       7  112347  112344       6  112350  112344
       6  112350  112347       7  112356  112353       6  112359  112353       6
  112359  112356       7  112365  112362       6  112368  112362       6  112368
  112365       7  112374  112371       6  112377  112371       6  112377  112374
       7  112383  112380       6  112386  112380       6  112386  112383       7
  112392  112389       6  112395  112389       6  112395  112392       7  112401
  112398       6  112404  112398       6  112404  112401       7  112410  112407
       6  112413  112407       6  112413  112410       7  112419  112416       6
  112422  112416       6  112422  112419       7  112428  112425       6  112431
  112425       6  112431  112428       7  112437  112434       6  112440  112434
       6  112440  112437       7  112446  112443       6  112449  112443       6
  112449  112446       7  112455  112452       6  112458  112452       6  112458
  112455       7  112464  112461       6  112467  112461       6  112467  112464
       7  112473  112470       6  112476  112470       6  112476  112473       7
  112482  112479       6  112485  112479       6  112485  112482       7  112491
  112488       6  112494  112488       6  112494  112491       7  112500  112497
       6  112503  112497       6  112503  112500       7  112509  112506       6
  112512  112506       6  112512  112509       7  112518  112515       6  112521
  112515       6  112521  112518       7  112527  112524       6  112530  112524
       6  112530  112527       7  112536  112533       6  112539  112533       6
  112539  112536       7  112545  112542       6  112548  112542       6  112548
  112545       7  112554  112551       6  112557  112551       6  112557  112554
       7  112563  112560       6  112566  112560       6  112566  112563       7
  112572  112569       6  112575  112569       6  112575  112572       7  112581
  112578       6  112584  112578       6  112584  112581       7  112590  112587
       6  112593  112587       6  112593  112590       7  112599  112596       6
  112602  112596       6  112602  112599       7  112608  112605       6  112611
  112605       6  112611  112608       7  112617  112614       6  112620  112614
       6  112620  112617       7  112626  112623       6  112629  112623       6
  112629  112626       7  112635  112632       6  112638  112632       6  112638
  112635       7  112644  112641       6  112647  112641       6  112647  112644
       7  112653  112650       6  112656  112650       6  112656  112653       7
  112662  112659       6  112665  112659       6  112665  112662       7  112671
  112668       6  112674  112668       6  112674  112671       7  112680  112677
       6  112683  112677       6  112683  112680       7  112689  112686       6
  112692  112686       6  112692  112689       7  112698  112695       6  112701
  112695       6  112701  112698       7  112707  112704       6  112710  112704
       6  112710  112707       7  112716  112713       6  112719  112713       6
  112719  112716       7  112725  112722       6  112728  112722       6  112728
  112725       7  112734  112731       6  112737  112731       6  112737  112734
       7  112743  112740       6  112746  112740       6  112746  112743       7
  112752  112749       6  112755  112749       6  112755  112752       7  112761
  112758       6  112764  112758       6  112764  112761       7  112770  112767
       6  112773  112767       6  112773  112770       7  112779  112776       6
  112782  112776       6  112782  112779       7  112788  112785       6  112791
  112785       6  112791  112788       7  112797  112794       6  112800  112794
       6  112800  112797       7  112806  112803       6  112809  112803       6
  112809  112806       7  112815  112812       6  112818  112812       6  112818
  112815       7  112824  112821       6  112827  112821       6  112827  112824
       7  112833  112830       6  112836  112830       6  112836  112833       7
  112842  112839       6  112845  112839       6  112845  112842       7  112851
  112848       6  112854  112848       6  112854  112851       7  112860  112857
       6  112863  112857       6  112863  112860       7  112869  112866       6
  112872  112866       6  112872  112869       7  112878  112875       6  112881
  112875       6  112881  112878       7  112887  112884       6  112890  112884
       6  112890  112887       7  112896  112893       6  112899  112893       6
  112899  112896       7  112905  112902       6  112908  112902       6  112908
  112905       7  112914  112911       6  112917  112911       6  112917  112914
       7  112923  112920       6  112926  112920       6  112926  112923       7
  112932  112929       6  112935  112929       6  112935  112932       7  112941
  112938       6  112944  112938       6  112944  112941       7  112950  112947
       6  112953  112947       6  112953  112950       7  112959  112956       6
  112962  112956       6  112962  112959       7  112968  112965       6  112971
  112965       6  112971  112968       7  112977  112974       6  112980  112974
       6  112980  112977       7  112986  112983       6  112989  112983       6
  112989  112986       7  112995  112992       6  112998  112992       6  112998
  112995       7  113004  113001       6  113007  113001       6  113007  113004
       7  113013  113010       6  113016  113010       6  113016  113013       7
  113022  113019       6  113025  113019       6  113025  113022       7  113031
  113028       6  113034  113028       6  113034  113031       7  113040  113037
       6  113043  113037       6  113043  113040       7  113049  113046       6
  113052  113046       6  113052  113049       7  113058  113055       6  113061
  113055       6  113061  113058       7  113067  113064       6  113070  113064
       6  113070  113067       7  113076  113073       6  113079  113073       6
  113079  113076       7  113085  113082       6  113088  113082       6  113088
  113085       7  113094  113091       6  113097  113091       6  113097  113094
       7  113103  113100       6  113106  113100       6  113106  113103       7
  113112  113109       6  113115  113109       6  113115  113112       7  113121
  113118       6  113124  113118       6  113124  113121       7  113130  113127
       6  113133  113127       6  113133  113130       7  113139  113136       6
  113142  113136       6  113142  113139       7  113148  113145       6  113151
  113145       6  113151  113148       7  113157  113154       6  113160  113154
       6  113160  113157       7  113166  113163       6  113169  113163       6
  113169  113166       7  113175  113172       6  113178  113172       6  113178
  113175       7  113184  113181       6  113187  113181       6  113187  113184
       7  113193  113190       6  113196  113190       6  113196  113193       7
  113202  113199       6  113205  113199       6  113205  113202       7  113211
  113208       6  113214  113208       6  113214  113211       7  113220  113217
       6  113223  113217       6  113223  113220       7  113229  113226       6
  113232  113226       6  113232  113229       7  113238  113235       6  113241
  113235       6  113241  113238       7  113247  113244       6  113250  113244
       6  113250  113247       7  113256  113253       6  113259  113253       6
  113259  113256       7  113265  113262       6  113268  113262       6  113268
  113265       7  113274  113271       6  113277  113271       6  113277  113274
       7  113283  113280       6  113286  113280       6  113286  113283       7
  113292  113289       6  113295  113289       6  113295  113292       7  113301
  113298       6  113304  113298       6  113304  113301       7  113310  113307
       6  113313  113307       6  113313  113310       7  113319  113316       6
  113322  113316       6  113322  113319       7  113328  113325       6  113331
  113325       6  113331  113328       7  113337  113334       6  113340  113334
       6  113340  113337       7  113346  113343       6  113349  113343       6
  113349  113346       7  113355  113352       6  113358  113352       6  113358
  113355       7  113364  113361       6  113367  113361       6  113367  113364
       7  113373  113370       6  113376  113370       6  113376  113373       7
  113382  113379       6  113385  113379       6  113385  113382       7  113391
  113388       6  113394  113388       6  113394  113391       7  113400  113397
       6  113403  113397       6  113403  113400       7  113409  113406       6
  113412  113406       6  113412  113409       7  113418  113415       6  113421
  113415       6  113421  113418       7  113427  113424       6  113430  113424
       6  113430  113427       7  113436  113433       6  113439  113433       6
  113439  113436       7  113445  113442       6  113448  113442       6  113448
  113445       7  113454  113451       6  113457  113451       6  113457  113454
       7  113463  113460       6  113466  113460       6  113466  113463       7
  113472  113469       6  113475  113469       6  113475  113472       7  113481
  113478       6  113484  113478       6  113484  113481       7  113490  113487
       6  113493  113487       6  113493  113490       7  113499  113496       6
  113502  113496       6  113502  113499       7  113508  113505       6  113511
  113505       6  113511  113508       7  113517  113514       6  113520  113514
       6  113520  113517       7  113526  113523       6  113529  113523       6
  113529  113526       7  113535  113532       6  113538  113532       6  113538
  113535       7  113544  113541       6  113547  113541       6  113547  113544
       7  113553  113550       6  113556  113550       6  113556  113553       7
  113562  113559       6  113565  113559       6  113565  113562       7  113571
  113568       6  113574  113568       6  113574  113571       7  113580  113577
       6  113583  113577       6  113583  113580       7  113589  113586       6
  113592  113586       6  113592  113589       7  113598  113595       6  113601
  113595       6  113601  113598       7  113607  113604       6  113610  113604
       6  113610  113607       7  113616  113613       6  113619  113613       6
  113619  113616       7  113625  113622       6  113628  113622       6  113628
  113625       7  113634  113631       6  113637  113631       6  113637  113634
       7  113643  113640       6  113646  113640       6  113646  113643       7
  113652  113649       6  113655  113649       6  113655  113652       7  113661
  113658       6  113664  113658       6  113664  113661       7  113670  113667
       6  113673  113667       6  113673  113670       7  113679  113676       6
  113682  113676       6  113682  113679       7  113688  113685       6  113691
  113685       6  113691  113688       7  113697  113694       6  113700  113694
       6  113700  113697       7  113706  113703       6  113709  113703       6
  113709  113706       7  113715  113712       6  113718  113712       6  113718
  113715       7  113724  113721       6  113727  113721       6  113727  113724
       7  113733  113730       6  113736  113730       6  113736  113733       7
  113742  113739       6  113745  113739       6  113745  113742       7  113751
  113748       6  113754  113748       6  113754  113751       7  113760  113757
       6  113763  113757       6  113763  113760       7  113769  113766       6
  113772  113766       6  113772  113769       7  113778  113775       6  113781
  113775       6  113781  113778       7  113787  113784       6  113790  113784
       6  113790  113787       7  113796  113793       6  113799  113793       6
  113799  113796       7  113805  113802       6  113808  113802       6  113808
  113805       7  113814  113811       6  113817  113811       6  113817  113814
       7  113823  113820       6  113826  113820       6  113826  113823       7
  113832  113829       6  113835  113829       6  113835  113832       7  113841
  113838       6  113844  113838       6  113844  113841       7  113850  113847
       6  113853  113847       6  113853  113850       7  113859  113856       6
  113862  113856       6  113862  113859       7  113868  113865       6  113871
  113865       6  113871  113868       7  113877  113874       6  113880  113874
       6  113880  113877       7  113886  113883       6  113889  113883       6
  113889  113886       7  113895  113892       6  113898  113892       6  113898
  113895       7  113904  113901       6  113907  113901       6  113907  113904
       7  113913  113910       6  113916  113910       6  113916  113913       7
  113922  113919       6  113925  113919       6  113925  113922       7  113931
  113928       6  113934  113928       6  113934  113931       7  113940  113937
       6  113943  113937       6  113943  113940       7  113949  113946       6
  113952  113946       6  113952  113949       7  113958  113955       6  113961
  113955       6  113961  113958       7  113967  113964       6  113970  113964
       6  113970  113967       7  113976  113973       6  113979  113973       6
  113979  113976       7  113985  113982       6  113988  113982       6  113988
  113985       7  113994  113991       6  113997  113991       6  113997  113994
       7  114003  114000       6  114006  114000       6  114006  114003       7
  114012  114009       6  114015  114009       6  114015  114012       7  114021
  114018       6  114024  114018       6  114024  114021       7  114030  114027
       6  114033  114027       6  114033  114030       7  114039  114036       6
  114042  114036       6  114042  114039       7  114048  114045       6  114051
  114045       6  114051  114048       7  114057  114054       6  114060  114054
       6  114060  114057       7  114066  114063       6  114069  114063       6
  114069  114066       7  114075  114072       6  114078  114072       6  114078
  114075       7  114084  114081       6  114087  114081       6  114087  114084
       7  114093  114090       6  114096  114090       6  114096  114093       7
  114102  114099       6  114105  114099       6  114105  114102       7  114111
  114108       6  114114  114108       6  114114  114111       7  114120  114117
       6  114123  114117       6  114123  114120       7  114129  114126       6
  114132  114126       6  114132  114129       7  114138  114135       6  114141
  114135       6  114141  114138       7  114147  114144       6  114150  114144
       6  114150  114147       7  114156  114153       6  114159  114153       6
  114159  114156       7  114165  114162       6  114168  114162       6  114168
  114165       7  114174  114171       6  114177  114171       6  114177  114174
       7  114183  114180       6  114186  114180       6  114186  114183       7
  114192  114189       6  114195  114189       6  114195  114192       7  114201
  114198       6  114204  114198       6  114204  114201       7  114210  114207
       6  114213  114207       6  114213  114210       7  114219  114216       6
  114222  114216       6  114222  114219       7  114228  114225       6  114231
  114225       6  114231  114228       7  114237  114234       6  114240  114234
       6  114240  114237       7  114246  114243       6  114249  114243       6
  114249  114246       7  114255  114252       6  114258  114252       6  114258
  114255       7  114264  114261       6  114267  114261       6  114267  114264
       7  114273  114270       6  114276  114270       6  114276  114273       7
  114282  114279       6  114285  114279       6  114285  114282       7  114291
  114288       6  114294  114288       6  114294  114291       7  114300  114297
       6  114303  114297       6  114303  114300       7  114309  114306       6
  114312  114306       6  114312  114309       7  114318  114315       6  114321
  114315       6  114321  114318       7  114327  114324       6  114330  114324
       6  114330  114327       7  114336  114333       6  114339  114333       6
  114339  114336       7  114345  114342       6  114348  114342       6  114348
  114345       7  114354  114351       6  114357  114351       6  114357  114354
       7  114363  114360       6  114366  114360       6  114366  114363       7
  114372  114369       6  114375  114369       6  114375  114372       7  114381
  114378       6  114384  114378       6  114384  114381       7  114390  114387
       6  114393  114387       6  114393  114390       7  114399  114396       6
  114402  114396       6  114402  114399       7  114408  114405       6  114411
  114405       6  114411  114408       7  114417  114414       6  114420  114414
       6  114420  114417       7  114426  114423       6  114429  114423       6
  114429  114426       7  114435  114432       6  114438  114432       6  114438
  114435       7  114444  114441       6  114447  114441       6  114447  114444
       7  114453  114450       6  114456  114450       6  114456  114453       7
  114462  114459       6  114465  114459       6  114465  114462       7  114471
  114468       6  114474  114468       6  114474  114471       7  114480  114477
       6  114483  114477       6  114483  114480       7  114489  114486       6
  114492  114486       6  114492  114489       7  114498  114495       6  114501
  114495       6  114501  114498       7  114507  114504       6  114510  114504
       6  114510  114507       7  114516  114513       6  114519  114513       6
  114519  114516       7  114525  114522       6  114528  114522       6  114528
  114525       7  114534  114531       6  114537  114531       6  114537  114534
       7  114543  114540       6  114546  114540       6  114546  114543       7
  114552  114549       6  114555  114549       6  114555  114552       7  114561
  114558       6  114564  114558       6  114564  114561       7  114570  114567
       6  114573  114567       6  114573  114570       7  114579  114576       6
  114582  114576       6  114582  114579       7  114588  114585       6  114591
  114585       6  114591  114588       7  114597  114594       6  114600  114594
       6  114600  114597       7  114606  114603       6  114609  114603       6
  114609  114606       7  114615  114612       6  114618  114612       6  114618
  114615       7  114624  114621       6  114627  114621       6  114627  114624
       7  114633  114630       6  114636  114630       6  114636  114633       7
  114642  114639       6  114645  114639       6  114645  114642       7  114651
  114648       6  114654  114648       6  114654  114651       7  114660  114657
       6  114663  114657       6  114663  114660       7  114669  114666       6
  114672  114666       6  114672  114669       7  114678  114675       6  114681
  114675       6  114681  114678       7  114687  114684       6  114690  114684
       6  114690  114687       7  114696  114693       6  114699  114693       6
  114699  114696       7  114705  114702       6  114708  114702       6  114708
  114705       7  114714  114711       6  114717  114711       6  114717  114714
       7  114723  114720       6  114726  114720       6  114726  114723       7
  114732  114729       6  114735  114729       6  114735  114732       7  114741
  114738       6  114744  114738       6  114744  114741       7  114750  114747
       6  114753  114747       6  114753  114750       7  114759  114756       6
  114762  114756       6  114762  114759       7  114768  114765       6  114771
  114765       6  114771  114768       7  114777  114774       6  114780  114774
       6  114780  114777       7  114786  114783       6  114789  114783       6
  114789  114786       7  114795  114792       6  114798  114792       6  114798
  114795       7  114804  114801       6  114807  114801       6  114807  114804
       7  114813  114810       6  114816  114810       6  114816  114813       7
  114822  114819       6  114825  114819       6  114825  114822       7  114831
  114828       6  114834  114828       6  114834  114831       7  114840  114837
       6  114843  114837       6  114843  114840       7  114849  114846       6
  114852  114846       6  114852  114849       7  114858  114855       6  114861
  114855       6  114861  114858       7  114867  114864       6  114870  114864
       6  114870  114867       7  114876  114873       6  114879  114873       6
  114879  114876       7  114885  114882       6  114888  114882       6  114888
  114885       7  114894  114891       6  114897  114891       6  114897  114894
       7  114903  114900       6  114906  114900       6  114906  114903       7
  114912  114909       6  114915  114909       6  114915  114912       7  114921
  114918       6  114924  114918       6  114924  114921       7  114930  114927
       6  114933  114927       6  114933  114930       7  114939  114936       6
  114942  114936       6  114942  114939       7  114948  114945       6  114951
  114945       6  114951  114948       7  114957  114954       6  114960  114954
       6  114960  114957       7  114966  114963       6  114969  114963       6
  114969  114966       7  114975  114972       6  114978  114972       6  114978
  114975       7  114984  114981       6  114987  114981       6  114987  114984
       7  114993  114990       6  114996  114990       6  114996  114993       7
  115002  114999       6  115005  114999       6  115005  115002       7  115011
  115008       6  115014  115008       6  115014  115011       7  115020  115017
       6  115023  115017       6  115023  115020       7  115029  115026       6
  115032  115026       6  115032  115029       7  115038  115035       6  115041
  115035       6  115041  115038       7  115047  115044       6  115050  115044
       6  115050  115047       7  115056  115053       6  115059  115053       6
  115059  115056       7  115065  115062       6  115068  115062       6  115068
  115065       7  115074  115071       6  115077  115071       6  115077  115074
       7  115083  115080       6  115086  115080       6  115086  115083       7
  115092  115089       6  115095  115089       6  115095  115092       7  115101
  115098       6  115104  115098       6  115104  115101       7  115110  115107
       6  115113  115107       6  115113  115110       7  115119  115116       6
  115122  115116       6  115122  115119       7  115128  115125       6  115131
  115125       6  115131  115128       7  115137  115134       6  115140  115134
       6  115140  115137       7  115146  115143       6  115149  115143       6
  115149  115146       7  115155  115152       6  115158  115152       6  115158
  115155       7  115164  115161       6  115167  115161       6  115167  115164
       7  115173  115170       6  115176  115170       6  115176  115173       7
  115182  115179       6  115185  115179       6  115185  115182       7  115191
  115188       6  115194  115188       6  115194  115191       7  115200  115197
       6  115203  115197       6  115203  115200       7  115209  115206       6
  115212  115206       6  115212  115209       7  115218  115215       6  115221
  115215       6  115221  115218       7  115227  115224       6  115230  115224
       6  115230  115227       7  115236  115233       6  115239  115233       6
  115239  115236       7  115245  115242       6  115248  115242       6  115248
  115245       7  115254  115251       6  115257  115251       6  115257  115254
       7  115263  115260       6  115266  115260       6  115266  115263       7
  115272  115269       6  115275  115269       6  115275  115272       7  115281
  115278       6  115284  115278       6  115284  115281       7  115290  115287
       6  115293  115287       6  115293  115290       7  115299  115296       6
  115302  115296       6  115302  115299       7  115308  115305       6  115311
  115305       6  115311  115308       7  115317  115314       6  115320  115314
       6  115320  115317       7  115326  115323       6  115329  115323       6
  115329  115326       7  115335  115332       6  115338  115332       6  115338
  115335       7  115344  115341       6  115347  115341       6  115347  115344
       7  115353  115350       6  115356  115350       6  115356  115353       7
  115362  115359       6  115365  115359       6  115365  115362       7  115371
  115368       6  115374  115368       6  115374  115371       7  115380  115377
       6  115383  115377       6  115383  115380       7  115389  115386       6
  115392  115386       6  115392  115389       7  115398  115395       6  115401
  115395       6  115401  115398       7  115407  115404       6  115410  115404
       6  115410  115407       7  115416  115413       6  115419  115413       6
  115419  115416       7  115425  115422       6  115428  115422       6  115428
  115425       7  115434  115431       6  115437  115431       6  115437  115434
       7  115443  115440       6  115446  115440       6  115446  115443       7
  115452  115449       6  115455  115449       6  115455  115452       7  115461
  115458       6  115464  115458       6  115464  115461       7  115470  115467
       6  115473  115467       6  115473  115470       7  115479  115476       6
  115482  115476       6  115482  115479       7  115488  115485       6  115491
  115485       6  115491  115488       7  115497  115494       6  115500  115494
       6  115500  115497       7  115506  115503       6  115509  115503       6
  115509  115506       7  115515  115512       6  115518  115512       6  115518
  115515       7  115524  115521       6  115527  115521       6  115527  115524
       7  115533  115530       6  115536  115530       6  115536  115533       7
  115542  115539       6  115545  115539       6  115545  115542       7  115551
  115548       6  115554  115548       6  115554  115551       7  115560  115557
       6  115563  115557       6  115563  115560       7  115569  115566       6
  115572  115566       6  115572  115569       7  115578  115575       6  115581
  115575       6  115581  115578       7  115587  115584       6  115590  115584
       6  115590  115587       7  115596  115593       6  115599  115593       6
  115599  115596       7  115605  115602       6  115608  115602       6  115608
  115605       7  115614  115611       6  115617  115611       6  115617  115614
       7  115623  115620       6  115626  115620       6  115626  115623       7
  115632  115629       6  115635  115629       6  115635  115632       7  115641
  115638       6  115644  115638       6  115644  115641       7  115650  115647
       6  115653  115647       6  115653  115650       7  115659  115656       6
  115662  115656       6  115662  115659       7  115668  115665       6  115671
  115665       6  115671  115668       7  115677  115674       6  115680  115674
       6  115680  115677       7  115686  115683       6  115689  115683       6
  115689  115686       7  115695  115692       6  115698  115692       6  115698
  115695       7  115704  115701       6  115707  115701       6  115707  115704
       7  115713  115710       6  115716  115710       6  115716  115713       7
  115722  115719       6  115725  115719       6  115725  115722       7  115731
  115728       6  115734  115728       6  115734  115731       7  115740  115737
       6  115743  115737       6  115743  115740       7  115749  115746       6
  115752  115746       6  115752  115749       7  115758  115755       6  115761
  115755       6  115761  115758       7  115767  115764       6  115770  115764
       6  115770  115767       7  115776  115773       6  115779  115773       6
  115779  115776       7  115785  115782       6  115788  115782       6  115788
  115785       7  115794  115791       6  115797  115791       6  115797  115794
       7  115803  115800       6  115806  115800       6  115806  115803       7
  115812  115809       6  115815  115809       6  115815  115812       7  115821
  115818       6  115824  115818       6  115824  115821       7  115830  115827
       6  115833  115827       6  115833  115830       7  115839  115836       6
  115842  115836       6  115842  115839       7  115848  115845       6  115851
  115845       6  115851  115848       7  115857  115854       6  115860  115854
       6  115860  115857       7  115866  115863       6  115869  115863       6
  115869  115866       7  115875  115872       6  115878  115872       6  115878
  115875       7  115884  115881       6  115887  115881       6  115887  115884
       7  115893  115890       6  115896  115890       6  115896  115893       7
  115902  115899       6  115905  115899       6  115905  115902       7  115911
  115908       6  115914  115908       6  115914  115911       7  115920  115917
       6  115923  115917       6  115923  115920       7  115929  115926       6
  115932  115926       6  115932  115929       7  115938  115935       6  115941
  115935       6  115941  115938       7  115947  115944       6  115950  115944
       6  115950  115947       7  115956  115953       6  115959  115953       6
  115959  115956       7  115965  115962       6  115968  115962       6  115968
  115965       7  115974  115971       6  115977  115971       6  115977  115974
       7  115983  115980       6  115986  115980       6  115986  115983       7
  115992  115989       6  115995  115989       6  115995  115992       7  116001
  115998       6  116004  115998       6  116004  116001       7  116010  116007
       6  116013  116007       6  116013  116010       7  116019  116016       6
  116022  116016       6  116022  116019       7  116028  116025       6  116031
  116025       6  116031  116028       7  116037  116034       6  116040  116034
       6  116040  116037       7  116046  116043       6  116049  116043       6
  116049  116046       7  116055  116052       6  116058  116052       6  116058
  116055       7  116064  116061       6  116067  116061       6  116067  116064
       7  116073  116070       6  116076  116070       6  116076  116073       7
  116082  116079       6  116085  116079       6  116085  116082       7  116091
  116088       6  116094  116088       6  116094  116091       7  116100  116097
       6  116103  116097       6  116103  116100       7  116109  116106       6
  116112  116106       6  116112  116109       7  116118  116115       6  116121
  116115       6  116121  116118       7  116127  116124       6  116130  116124
       6  116130  116127       7  116136  116133       6  116139  116133       6
  116139  116136       7  116145  116142       6  116148  116142       6  116148
  116145       7  116154  116151       6  116157  116151       6  116157  116154
       7  116163  116160       6  116166  116160       6  116166  116163       7
  116172  116169       6  116175  116169       6  116175  116172       7  116181
  116178       6  116184  116178       6  116184  116181       7  116190  116187
       6  116193  116187       6  116193  116190       7  116199  116196       6
  116202  116196       6  116202  116199       7  116208  116205       6  116211
  116205       6  116211  116208       7  116217  116214       6  116220  116214
       6  116220  116217       7  116226  116223       6  116229  116223       6
  116229  116226       7  116235  116232       6  116238  116232       6  116238
  116235       7  116244  116241       6  116247  116241       6  116247  116244
       7  116253  116250       6  116256  116250       6  116256  116253       7
  116262  116259       6  116265  116259       6  116265  116262       7  116271
  116268       6  116274  116268       6  116274  116271       7  116280  116277
       6  116283  116277       6  116283  116280       7  116289  116286       6
  116292  116286       6  116292  116289       7  116298  116295       6  116301
  116295       6  116301  116298       7  116307  116304       6  116310  116304
       6  116310  116307       7  116316  116313       6  116319  116313       6
  116319  116316       7  116325  116322       6  116328  116322       6  116328
  116325       7  116334  116331       6  116337  116331       6  116337  116334
       7  116343  116340       6  116346  116340       6  116346  116343       7
  116352  116349       6  116355  116349       6  116355  116352       7  116361
  116358       6  116364  116358       6  116364  116361       7  116370  116367
       6  116373  116367       6  116373  116370       7  116379  116376       6
  116382  116376       6  116382  116379       7  116388  116385       6  116391
  116385       6  116391  116388       7  116397  116394       6  116400  116394
       6  116400  116397       7  116406  116403       6  116409  116403       6
  116409  116406       7  116415  116412       6  116418  116412       6  116418
  116415       7  116424  116421       6  116427  116421       6  116427  116424
       7  116433  116430       6  116436  116430       6  116436  116433       7
  116442  116439       6  116445  116439       6  116445  116442       7  116451
  116448       6  116454  116448       6  116454  116451       7  116460  116457
       6  116463  116457       6  116463  116460       7  116469  116466       6
  116472  116466       6  116472  116469       7  116478  116475       6  116481
  116475       6  116481  116478       7  116487  116484       6  116490  116484
       6  116490  116487       7  116496  116493       6  116499  116493       6
  116499  116496       7  116505  116502       6  116508  116502       6  116508
  116505       7  116514  116511       6  116517  116511       6  116517  116514
       7  116523  116520       6  116526  116520       6  116526  116523       7
  116532  116529       6  116535  116529       6  116535  116532       7  116541
  116538       6  116544  116538       6  116544  116541       7  116550  116547
       6  116553  116547       6  116553  116550       7  116559  116556       6
  116562  116556       6  116562  116559       7  116568  116565       6  116571
  116565       6  116571  116568       7  116577  116574       6  116580  116574
       6  116580  116577       7  116586  116583       6  116589  116583       6
  116589  116586       7  116595  116592       6  116598  116592       6  116598
  116595       7  116604  116601       6  116607  116601       6  116607  116604
       7  116613  116610       6  116616  116610       6  116616  116613       7
  116622  116619       6  116625  116619       6  116625  116622       7  116631
  116628       6  116634  116628       6  116634  116631       7  116640  116637
       6  116643  116637       6  116643  116640       7  116649  116646       6
  116652  116646       6  116652  116649       7  116658  116655       6  116661
  116655       6  116661  116658       7  116667  116664       6  116670  116664
       6  116670  116667       7  116676  116673       6  116679  116673       6
  116679  116676       7  116685  116682       6  116688  116682       6  116688
  116685       7  116694  116691       6  116697  116691       6  116697  116694
       7  116703  116700       6  116706  116700       6  116706  116703       7
  116712  116709       6  116715  116709       6  116715  116712       7  116721
  116718       6  116724  116718       6  116724  116721       7  116730  116727
       6  116733  116727       6  116733  116730       7  116739  116736       6
  116742  116736       6  116742  116739       7  116748  116745       6  116751
  116745       6  116751  116748       7  116757  116754       6  116760  116754
       6  116760  116757       7  116766  116763       6  116769  116763       6
  116769  116766       7  116775  116772       6  116778  116772       6  116778
  116775       7  116784  116781       6  116787  116781       6  116787  116784
       7  116793  116790       6  116796  116790       6  116796  116793       7
  116802  116799       6  116805  116799       6  116805  116802       7  116811
  116808       6  116814  116808       6  116814  116811       7  116820  116817
       6  116823  116817       6  116823  116820       7  116829  116826       6
  116832  116826       6  116832  116829       7  116838  116835       6  116841
  116835       6  116841  116838       7  116847  116844       6  116850  116844
       6  116850  116847       7  116856  116853       6  116859  116853       6
  116859  116856       7  116865  116862       6  116868  116862       6  116868
  116865       7  116874  116871       6  116877  116871       6  116877  116874
       7  116883  116880       6  116886  116880       6  116886  116883       7
  116892  116889       6  116895  116889       6  116895  116892       7  116901
  116898       6  116904  116898       6  116904  116901       7  116910  116907
       6  116913  116907       6  116913  116910       7  116919  116916       6
  116922  116916       6  116922  116919       7  116928  116925       6  116931
  116925       6  116931  116928       7  116937  116934       6  116940  116934
       6  116940  116937       7  116946  116943       6  116949  116943       6
  116949  116946       7  116955  116952       6  116958  116952       6  116958
  116955       7  116964  116961       6  116967  116961       6  116967  116964
       7  116973  116970       6  116976  116970       6  116976  116973       7
  116982  116979       6  116985  116979       6  116985  116982       7  116991
  116988       6  116994  116988       6  116994  116991       7  117000  116997
       6  117003  116997       6  117003  117000       7  117009  117006       6
  117012  117006       6  117012  117009       7  117018  117015       6  117021
  117015       6  117021  117018       7  117027  117024       6  117030  117024
       6  117030  117027       7  117036  117033       6  117039  117033       6
  117039  117036       7  117045  117042       6  117048  117042       6  117048
  117045       7  117054  117051       6  117057  117051       6  117057  117054
       7  117063  117060       6  117066  117060       6  117066  117063       7
  117072  117069       6  117075  117069       6  117075  117072       7  117081
  117078       6  117084  117078       6  117084  117081       7  117090  117087
       6  117093  117087       6  117093  117090       7  117099  117096       6
  117102  117096       6  117102  117099       7  117108  117105       6  117111
  117105       6  117111  117108       7  117117  117114       6  117120  117114
       6  117120  117117       7  117126  117123       6  117129  117123       6
  117129  117126       7  117135  117132       6  117138  117132       6  117138
  117135       7  117144  117141       6  117147  117141       6  117147  117144
       7  117153  117150       6  117156  117150       6  117156  117153       7
  117162  117159       6  117165  117159       6  117165  117162       7  117171
  117168       6  117174  117168       6  117174  117171       7  117180  117177
       6  117183  117177       6  117183  117180       7  117189  117186       6
  117192  117186       6  117192  117189       7  117198  117195       6  117201
  117195       6  117201  117198       7  117207  117204       6  117210  117204
       6  117210  117207       7  117216  117213       6  117219  117213       6
  117219  117216       7  117225  117222       6  117228  117222       6  117228
  117225       7  117234  117231       6  117237  117231       6  117237  117234
       7  117243  117240       6  117246  117240       6  117246  117243       7
  117252  117249       6  117255  117249       6  117255  117252       7  117261
  117258       6  117264  117258       6  117264  117261       7  117270  117267
       6  117273  117267       6  117273  117270       7  117279  117276       6
  117282  117276       6  117282  117279       7  117288  117285       6  117291
  117285       6  117291  117288       7  117297  117294       6  117300  117294
       6  117300  117297       7  117306  117303       6  117309  117303       6
  117309  117306       7  117315  117312       6  117318  117312       6  117318
  117315       7  117324  117321       6  117327  117321       6  117327  117324
       7  117333  117330       6  117336  117330       6  117336  117333       7
  117342  117339       6  117345  117339       6  117345  117342       7  117351
  117348       6  117354  117348       6  117354  117351       7  117360  117357
       6  117363  117357       6  117363  117360       7  117369  117366       6
  117372  117366       6  117372  117369       7  117378  117375       6  117381
  117375       6  117381  117378       7  117387  117384       6  117390  117384
       6  117390  117387       7  117396  117393       6  117399  117393       6
  117399  117396       7  117405  117402       6  117408  117402       6  117408
  117405       7  117414  117411       6  117417  117411       6  117417  117414
       7  117423  117420       6  117426  117420       6  117426  117423       7
  117432  117429       6  117435  117429       6  117435  117432       7  117441
  117438       6  117444  117438       6  117444  117441       7  117450  117447
       6  117453  117447       6  117453  117450       7  117459  117456       6
  117462  117456       6  117462  117459       7  117468  117465       6  117471
  117465       6  117471  117468       7  117477  117474       6  117480  117474
       6  117480  117477       7  117486  117483       6  117489  117483       6
  117489  117486       7  117495  117492       6  117498  117492       6  117498
  117495       7  117504  117501       6  117507  117501       6  117507  117504
       7  117513  117510       6  117516  117510       6  117516  117513       7
  117522  117519       6  117525  117519       6  117525  117522       7  117531
  117528       6  117534  117528       6  117534  117531       7  117540  117537
       6  117543  117537       6  117543  117540       7  117549  117546       6
  117552  117546       6  117552  117549       7  117558  117555       6  117561
  117555       6  117561  117558       7  117567  117564       6  117570  117564
       6  117570  117567       7  117576  117573       6  117579  117573       6
  117579  117576       7  117585  117582       6  117588  117582       6  117588
  117585       7  117594  117591       6  117597  117591       6  117597  117594
       7  117603  117600       6  117606  117600       6  117606  117603       7
  117612  117609       6  117615  117609       6  117615  117612       7  117621
  117618       6  117624  117618       6  117624  117621       7  117630  117627
       6  117633  117627       6  117633  117630       7  117639  117636       6
  117642  117636       6  117642  117639       7  117648  117645       6  117651
  117645       6  117651  117648       7  117657  117654       6  117660  117654
       6  117660  117657       7  117666  117663       6  117669  117663       6
  117669  117666       7  117675  117672       6  117678  117672       6  117678
  117675       7  117684  117681       6  117687  117681       6  117687  117684
       7  117693  117690       6  117696  117690       6  117696  117693       7
  117702  117699       6  117705  117699       6  117705  117702       7  117711
  117708       6  117714  117708       6  117714  117711       7  117720  117717
       6  117723  117717       6  117723  117720       7  117729  117726       6
  117732  117726       6  117732  117729       7  117738  117735       6  117741
  117735       6  117741  117738       7  117747  117744       6  117750  117744
       6  117750  117747       7  117756  117753       6  117759  117753       6
  117759  117756       7  117765  117762       6  117768  117762       6  117768
  117765       7  117774  117771       6  117777  117771       6  117777  117774
       7  117783  117780       6  117786  117780       6  117786  117783       7
  117792  117789       6  117795  117789       6  117795  117792       7  117801
  117798       6  117804  117798       6  117804  117801       7  117810  117807
       6  117813  117807       6  117813  117810       7  117819  117816       6
  117822  117816       6  117822  117819       7  117828  117825       6  117831
  117825       6  117831  117828       7  117837  117834       6  117840  117834
       6  117840  117837       7  117846  117843       6  117849  117843       6
  117849  117846       7  117855  117852       6  117858  117852       6  117858
  117855       7  117864  117861       6  117867  117861       6  117867  117864
       7  117873  117870       6  117876  117870       6  117876  117873       7
  117882  117879       6  117885  117879       6  117885  117882       7  117891
  117888       6  117894  117888       6  117894  117891       7  117900  117897
       6  117903  117897       6  117903  117900       7  117909  117906       6
  117912  117906       6  117912  117909       7  117918  117915       6  117921
  117915       6  117921  117918       7  117927  117924       6  117930  117924
       6  117930  117927       7  117936  117933       6  117939  117933       6
  117939  117936       7  117945  117942       6  117948  117942       6  117948
  117945       7  117954  117951       6  117957  117951       6  117957  117954
       7  117963  117960       6  117966  117960       6  117966  117963       7
  117972  117969       6  117975  117969       6  117975  117972       7  117981
  117978       6  117984  117978       6  117984  117981       7  117990  117987
       6  117993  117987       6  117993  117990       7  117999  117996       6
  118002  117996       6  118002  117999       7  118008  118005       6  118011
  118005       6  118011  118008       7  118017  118014       6  118020  118014
       6  118020  118017       7  118026  118023       6  118029  118023       6
  118029  118026       7  118035  118032       6  118038  118032       6  118038
  118035       7  118044  118041       6  118047  118041       6  118047  118044
       7  118053  118050       6  118056  118050       6  118056  118053       7
  118062  118059       6  118065  118059       6  118065  118062       7  118071
  118068       6  118074  118068       6  118074  118071       7  118080  118077
       6  118083  118077       6  118083  118080       7  118089  118086       6
  118092  118086       6  118092  118089       7  118098  118095       6  118101
  118095       6  118101  118098       7  118107  118104       6  118110  118104
       6  118110  118107       7  118116  118113       6  118119  118113       6
  118119  118116       7  118125  118122       6  118128  118122       6  118128
  118125       7  118134  118131       6  118137  118131       6  118137  118134
       7  118143  118140       6  118146  118140       6  118146  118143       7
  118152  118149       6  118155  118149       6  118155  118152       7  118161
  118158       6  118164  118158       6  118164  118161       7  118170  118167
       6  118173  118167       6  118173  118170       7  118179  118176       6
  118182  118176       6  118182  118179       7  118188  118185       6  118191
  118185       6  118191  118188       7  118197  118194       6  118200  118194
       6  118200  118197       7  118206  118203       6  118209  118203       6
  118209  118206       7  118215  118212       6  118218  118212       6  118218
  118215       7  118224  118221       6  118227  118221       6  118227  118224
       7  118233  118230       6  118236  118230       6  118236  118233       7
  118242  118239       6  118245  118239       6  118245  118242       7  118251
  118248       6  118254  118248       6  118254  118251       7  118260  118257
       6  118263  118257       6  118263  118260       7  118269  118266       6
  118272  118266       6  118272  118269       7  118278  118275       6  118281
  118275       6  118281  118278       7  118287  118284       6  118290  118284
       6  118290  118287       7  118296  118293       6  118299  118293       6
  118299  118296       7  118305  118302       6  118308  118302       6  118308
  118305       7  118314  118311       6  118317  118311       6  118317  118314
       7  118323  118320       6  118326  118320       6  118326  118323       7
  118332  118329       6  118335  118329       6  118335  118332       7  118341
  118338       6  118344  118338       6  118344  118341       7  118350  118347
       6  118353  118347       6  118353  118350       7  118359  118356       6
  118362  118356       6  118362  118359       7  118368  118365       6  118371
  118365       6  118371  118368       7  118377  118374       6  118380  118374
       6  118380  118377       7  118386  118383       6  118389  118383       6
  118389  118386       7  118395  118392       6  118398  118392       6  118398
  118395       7  118404  118401       6  118407  118401       6  118407  118404
       7  118413  118410       6  118416  118410       6  118416  118413       7
  118422  118419       6  118425  118419       6  118425  118422       7  118431
  118428       6  118434  118428       6  118434  118431       7  118440  118437
       6  118443  118437       6  118443  118440       7  118449  118446       6
  118452  118446       6  118452  118449       7  118458  118455       6  118461
  118455       6  118461  118458       7  118467  118464       6  118470  118464
       6  118470  118467       7  118476  118473       6  118479  118473       6
  118479  118476       7  118485  118482       6  118488  118482       6  118488
  118485       7  118494  118491       6  118497  118491       6  118497  118494
       7  118503  118500       6  118506  118500       6  118506  118503       7
  118512  118509       6  118515  118509       6  118515  118512       7  118521
  118518       6  118524  118518       6  118524  118521       7  118530  118527
       6  118533  118527       6  118533  118530       7  118539  118536       6
  118542  118536       6  118542  118539       7  118548  118545       6  118551
  118545       6  118551  118548       7  118557  118554       6  118560  118554
       6  118560  118557       7  118566  118563       6  118569  118563       6
  118569  118566       7  118575  118572       6  118578  118572       6  118578
  118575       7  118584  118581       6  118587  118581       6  118587  118584
       7  118593  118590       6  118596  118590       6  118596  118593       7
  118602  118599       6  118605  118599       6  118605  118602       7  118611
  118608       6  118614  118608       6  118614  118611       7  118620  118617
       6  118623  118617       6  118623  118620       7  118629  118626       6
  118632  118626       6  118632  118629       7  118638  118635       6  118641
  118635       6  118641  118638       7  118647  118644       6  118650  118644
       6  118650  118647       7  118656  118653       6  118659  118653       6
  118659  118656       7  118665  118662       6  118668  118662       6  118668
  118665       7  118674  118671       6  118677  118671       6  118677  118674
       7  118683  118680       6  118686  118680       6  118686  118683       7
  118692  118689       6  118695  118689       6  118695  118692       7  118701
  118698       6  118704  118698       6  118704  118701       7  118710  118707
       6  118713  118707       6  118713  118710       7  118719  118716       6
  118722  118716       6  118722  118719       7  118728  118725       6  118731
  118725       6  118731  118728       7  118737  118734       6  118740  118734
       6  118740  118737       7  118746  118743       6  118749  118743       6
  118749  118746       7  118755  118752       6  118758  118752       6  118758
  118755       7  118764  118761       6  118767  118761       6  118767  118764
       7  118773  118770       6  118776  118770       6  118776  118773       7
  118782  118779       6  118785  118779       6  118785  118782       7  118791
  118788       6  118794  118788       6  118794  118791       7  118800  118797
       6  118803  118797       6  118803  118800       7  118809  118806       6
  118812  118806       6  118812  118809       7  118818  118815       6  118821
  118815       6  118821  118818       7  118827  118824       6  118830  118824
       6  118830  118827       7  118836  118833       6  118839  118833       6
  118839  118836       7  118845  118842       6  118848  118842       6  118848
  118845       7  118854  118851       6  118857  118851       6  118857  118854
       7  118863  118860       6  118866  118860       6  118866  118863       7
  118872  118869       6  118875  118869       6  118875  118872       7  118881
  118878       6  118884  118878       6  118884  118881       7  118890  118887
       6  118893  118887       6  118893  118890       7  118899  118896       6
  118902  118896       6  118902  118899       7  118908  118905       6  118911
  118905       6  118911  118908       7  118917  118914       6  118920  118914
       6  118920  118917       7  118926  118923       6  118929  118923       6
  118929  118926       7  118935  118932       6  118938  118932       6  118938
  118935       7  118944  118941       6  118947  118941       6  118947  118944
       7  118953  118950       6  118956  118950       6  118956  118953       7
  118962  118959       6  118965  118959       6  118965  118962       7  118971
  118968       6  118974  118968       6  118974  118971       7  118980  118977
       6  118983  118977       6  118983  118980       7  118989  118986       6
  118992  118986       6  118992  118989       7  118998  118995       6  119001
  118995       6  119001  118998       7  119007  119004       6  119010  119004
       6  119010  119007       7  119016  119013       6  119019  119013       6
  119019  119016       7  119025  119022       6  119028  119022       6  119028
  119025       7  119034  119031       6  119037  119031       6  119037  119034
       7  119043  119040       6  119046  119040       6  119046  119043       7
  119052  119049       6  119055  119049       6  119055  119052       7  119061
  119058       6  119064  119058       6  119064  119061       7  119070  119067
       6  119073  119067       6  119073  119070       7  119079  119076       6
  119082  119076       6  119082  119079       7  119088  119085       6  119091
  119085       6  119091  119088       7  119097  119094       6  119100  119094
       6  119100  119097       7  119106  119103       6  119109  119103       6
  119109  119106       7  119115  119112       6  119118  119112       6  119118
  119115       7  119124  119121       6  119127  119121       6  119127  119124
       7  119133  119130       6  119136  119130       6  119136  119133       7
  119142  119139       6  119145  119139       6  119145  119142       7  119151
  119148       6  119154  119148       6  119154  119151       7  119160  119157
       6  119163  119157       6  119163  119160       7  119169  119166       6
  119172  119166       6  119172  119169       7  119178  119175       6  119181
  119175       6  119181  119178       7  119187  119184       6  119190  119184
       6  119190  119187       7  119196  119193       6  119199  119193       6
  119199  119196       7  119205  119202       6  119208  119202       6  119208
  119205       7  119214  119211       6  119217  119211       6  119217  119214
       7  119223  119220       6  119226  119220       6  119226  119223       7
  119232  119229       6  119235  119229       6  119235  119232       7  119241
  119238       6  119244  119238       6  119244  119241       7  119250  119247
       6  119253  119247       6  119253  119250       7  119259  119256       6
  119262  119256       6  119262  119259       7  119268  119265       6  119271
  119265       6  119271  119268       7  119277  119274       6  119280  119274
       6  119280  119277       7  119286  119283       6  119289  119283       6
  119289  119286       7  119295  119292       6  119298  119292       6  119298
  119295       7  119304  119301       6  119307  119301       6  119307  119304
       7  119313  119310       6  119316  119310       6  119316  119313       7
  119322  119319       6  119325  119319       6  119325  119322       7  119331
  119328       6  119334  119328       6  119334  119331       7  119340  119337
       6  119343  119337       6  119343  119340       7  119349  119346       6
  119352  119346       6  119352  119349       7  119358  119355       6  119361
  119355       6  119361  119358       7  119367  119364       6  119370  119364
       6  119370  119367       7  119376  119373       6  119379  119373       6
  119379  119376       7  119385  119382       6  119388  119382       6  119388
  119385       7  119394  119391       6  119397  119391       6  119397  119394
       7  119403  119400       6  119406  119400       6  119406  119403       7
  119412  119409       6  119415  119409       6  119415  119412       7  119421
  119418       6  119424  119418       6  119424  119421       7  119430  119427
       6  119433  119427       6  119433  119430       7  119439  119436       6
  119442  119436       6  119442  119439       7  119448  119445       6  119451
  119445       6  119451  119448       7  119457  119454       6  119460  119454
       6  119460  119457       7  119466  119463       6  119469  119463       6
  119469  119466       7  119475  119472       6  119478  119472       6  119478
  119475       7  119484  119481       6  119487  119481       6  119487  119484
       7  119493  119490       6  119496  119490       6  119496  119493       7
  119502  119499       6  119505  119499       6  119505  119502       7  119511
  119508       6  119514  119508       6  119514  119511       7  119520  119517
       6  119523  119517       6  119523  119520       7  119529  119526       6
  119532  119526       6  119532  119529       7  119538  119535       6  119541
  119535       6  119541  119538       7  119547  119544       6  119550  119544
       6  119550  119547       7  119556  119553       6  119559  119553       6
  119559  119556       7  119565  119562       6  119568  119562       6  119568
  119565       7  119574  119571       6  119577  119571       6  119577  119574
       7  119583  119580       6  119586  119580       6  119586  119583       7
  119592  119589       6  119595  119589       6  119595  119592       7  119601
  119598       6  119604  119598       6  119604  119601       7  119610  119607
       6  119613  119607       6  119613  119610       7  119619  119616       6
  119622  119616       6  119622  119619       7  119628  119625       6  119631
  119625       6  119631  119628       7  119637  119634       6  119640  119634
       6  119640  119637       7  119646  119643       6  119649  119643       6
  119649  119646       7  119655  119652       6  119658  119652       6  119658
  119655       7  119664  119661       6  119667  119661       6  119667  119664
       7  119673  119670       6  119676  119670       6  119676  119673       7
  119682  119679       6  119685  119679       6  119685  119682       7  119691
  119688       6  119694  119688       6  119694  119691       7  119700  119697
       6  119703  119697       6  119703  119700       7  119709  119706       6
  119712  119706       6  119712  119709       7  119718  119715       6  119721
  119715       6  119721  119718       7  119727  119724       6  119730  119724
       6  119730  119727       7  119736  119733       6  119739  119733       6
  119739  119736       7  119745  119742       6  119748  119742       6  119748
  119745       7  119754  119751       6  119757  119751       6  119757  119754
       7  119763  119760       6  119766  119760       6  119766  119763       7
  119772  119769       6  119775  119769       6  119775  119772       7  119781
  119778       6  119784  119778       6  119784  119781       7  119790  119787
       6  119793  119787       6  119793  119790       7  119799  119796       6
  119802  119796       6  119802  119799       7  119808  119805       6  119811
  119805       6  119811  119808       7  119817  119814       6  119820  119814
       6  119820  119817       7  119826  119823       6  119829  119823       6
  119829  119826       7  119835  119832       6  119838  119832       6  119838
  119835       7  119844  119841       6  119847  119841       6  119847  119844
       7  119853  119850       6  119856  119850       6  119856  119853       7
  119862  119859       6  119865  119859       6  119865  119862       7  119871
  119868       6  119874  119868       6  119874  119871       7  119880  119877
       6  119883  119877       6  119883  119880       7  119889  119886       6
  119892  119886       6  119892  119889       7  119898  119895       6  119901
  119895       6  119901  119898       7  119907  119904       6  119910  119904
       6  119910  119907       7  119916  119913       6  119919  119913       6
  119919  119916       7  119925  119922       6  119928  119922       6  119928
  119925       7  119934  119931       6  119937  119931       6  119937  119934
       7  119943  119940       6  119946  119940       6  119946  119943       7
  119952  119949       6  119955  119949       6  119955  119952       7  119961
  119958       6  119964  119958       6  119964  119961       7  119970  119967
       6  119973  119967       6  119973  119970       7  119979  119976       6
  119982  119976       6  119982  119979       7  119988  119985       6  119991
  119985       6  119991  119988       7  119997  119994       6  120000  119994
       6  120000  119997       7  120006  120003       6  120009  120003       6
  120009  120006       7  120015  120012       6  120018  120012       6  120018
  120015       7  120024  120021       6  120027  120021       6  120027  120024
       7  120033  120030       6  120036  120030       6  120036  120033       7
  120042  120039       6  120045  120039       6  120045  120042       7  120051
  120048       6  120054  120048       6  120054  120051       7  120060  120057
       6  120063  120057       6  120063  120060       7  120069  120066       6
  120072  120066       6  120072  120069       7  120078  120075       6  120081
  120075       6  120081  120078       7  120087  120084       6  120090  120084
       6  120090  120087       7  120096  120093       6  120099  120093       6
  120099  120096       7  120105  120102       6  120108  120102       6  120108
  120105       7  120114  120111       6  120117  120111       6  120117  120114
       7  120123  120120       6  120126  120120       6  120126  120123       7
  120132  120129       6  120135  120129       6  120135  120132       7  120141
  120138       6  120144  120138       6  120144  120141       7  120150  120147
       6  120153  120147       6  120153  120150       7  120159  120156       6
  120162  120156       6  120162  120159       7  120168  120165       6  120171
  120165       6  120171  120168       7  120177  120174       6  120180  120174
       6  120180  120177       7  120186  120183       6  120189  120183       6
  120189  120186       7  120195  120192       6  120198  120192       6  120198
  120195       7  120204  120201       6  120207  120201       6  120207  120204
       7  120213  120210       6  120216  120210       6  120216  120213       7
  120222  120219       6  120225  120219       6  120225  120222       7  120231
  120228       6  120234  120228       6  120234  120231       7  120240  120237
       6  120243  120237       6  120243  120240       7  120249  120246       6
  120252  120246       6  120252  120249       7  120258  120255       6  120261
  120255       6  120261  120258       7  120267  120264       6  120270  120264
       6  120270  120267       7  120276  120273       6  120279  120273       6
  120279  120276       7  120285  120282       6  120288  120282       6  120288
  120285       7  120294  120291       6  120297  120291       6  120297  120294
       7  120303  120300       6  120306  120300       6  120306  120303       7
  120312  120309       6  120315  120309       6  120315  120312       7  120321
  120318       6  120324  120318       6  120324  120321       7  120330  120327
       6  120333  120327       6  120333  120330       7  120339  120336       6
  120342  120336       6  120342  120339       7  120348  120345       6  120351
  120345       6  120351  120348       7  120357  120354       6  120360  120354
       6  120360  120357       7  120366  120363       6  120369  120363       6
  120369  120366       7  120375  120372       6  120378  120372       6  120378
  120375       7  120384  120381       6  120387  120381       6  120387  120384
       7  120393  120390       6  120396  120390       6  120396  120393       7
  120402  120399       6  120405  120399       6  120405  120402       7  120411
  120408       6  120414  120408       6  120414  120411       7  120420  120417
       6  120423  120417       6  120423  120420       7  120429  120426       6
  120432  120426       6  120432  120429       7  120438  120435       6  120441
  120435       6  120441  120438       7  120447  120444       6  120450  120444
       6  120450  120447       7  120456  120453       6  120459  120453       6
  120459  120456       7  120465  120462       6  120468  120462       6  120468
  120465       7  120474  120471       6  120477  120471       6  120477  120474
       7  120483  120480       6  120486  120480       6  120486  120483       7
  120492  120489       6  120495  120489       6  120495  120492       7  120501
  120498       6  120504  120498       6  120504  120501       7  120510  120507
       6  120513  120507       6  120513  120510       7  120519  120516       6
  120522  120516       6  120522  120519       7  120528  120525       6  120531
  120525       6  120531  120528       7  120537  120534       6  120540  120534
       6  120540  120537       7  120546  120543       6  120549  120543       6
  120549  120546       7  120555  120552       6  120558  120552       6  120558
  120555       7  120564  120561       6  120567  120561       6  120567  120564
       7  120573  120570       6  120576  120570       6  120576  120573       7
  120582  120579       6  120585  120579       6  120585  120582       7  120591
  120588       6  120594  120588       6  120594  120591       7  120600  120597
       6  120603  120597       6  120603  120600       7  120609  120606       6
  120612  120606       6  120612  120609       7  120618  120615       6  120621
  120615       6  120621  120618       7  120627  120624       6  120630  120624
       6  120630  120627       7  120636  120633       6  120639  120633       6
  120639  120636       7  120645  120642       6  120648  120642       6  120648
  120645       7  120654  120651       6  120657  120651       6  120657  120654
       7  120663  120660       6  120666  120660       6  120666  120663       7
  120672  120669       6  120675  120669       6  120675  120672       7  120681
  120678       6  120684  120678       6  120684  120681       7  120690  120687
       6  120693  120687       6  120693  120690       7  120699  120696       6
  120702  120696       6  120702  120699       7  120708  120705       6  120711
  120705       6  120711  120708       7  120717  120714       6  120720  120714
       6  120720  120717       7  120726  120723       6  120729  120723       6
  120729  120726       7  120735  120732       6  120738  120732       6  120738
  120735       7  120744  120741       6  120747  120741       6  120747  120744
       7  120753  120750       6  120756  120750       6  120756  120753       7
  120762  120759       6  120765  120759       6  120765  120762       7  120771
  120768       6  120774  120768       6  120774  120771       7  120780  120777
       6  120783  120777       6  120783  120780       7  120789  120786       6
  120792  120786       6  120792  120789       7  120798  120795       6  120801
  120795       6  120801  120798       7  120807  120804       6  120810  120804
       6  120810  120807       7  120816  120813       6  120819  120813       6
  120819  120816       7  120825  120822       6  120828  120822       6  120828
  120825       7  120834  120831       6  120837  120831       6  120837  120834
       7  120843  120840       6  120846  120840       6  120846  120843       7
  120852  120849       6  120855  120849       6  120855  120852       7  120861
  120858       6  120864  120858       6  120864  120861       7  120870  120867
       6  120873  120867       6  120873  120870       7  120879  120876       6
  120882  120876       6  120882  120879       7  120888  120885       6  120891
  120885       6  120891  120888       7  120897  120894       6  120900  120894
       6  120900  120897       7  120906  120903       6  120909  120903       6
  120909  120906       7  120915  120912       6  120918  120912       6  120918
  120915       7  120924  120921       6  120927  120921       6  120927  120924
       7  120933  120930       6  120936  120930       6  120936  120933       7
  120942  120939       6  120945  120939       6  120945  120942       7  120951
  120948       6  120954  120948       6  120954  120951       7  120960  120957
       6  120963  120957       6  120963  120960       7  120969  120966       6
  120972  120966       6  120972  120969       7  120978  120975       6  120981
  120975       6  120981  120978       7  120987  120984       6  120990  120984
       6  120990  120987       7  120996  120993       6  120999  120993       6
  120999  120996       7  121005  121002       6  121008  121002       6  121008
  121005       7  121014  121011       6  121017  121011       6  121017  121014
       7  121023  121020       6  121026  121020       6  121026  121023       7
  121032  121029       6  121035  121029       6  121035  121032       7  121041
  121038       6  121044  121038       6  121044  121041       7  121050  121047
       6  121053  121047       6  121053  121050       7  121059  121056       6
  121062  121056       6  121062  121059       7  121068  121065       6  121071
  121065       6  121071  121068       7  121077  121074       6  121080  121074
       6  121080  121077       7  121086  121083       6  121089  121083       6
  121089  121086       7  121095  121092       6  121098  121092       6  121098
  121095       7  121104  121101       6  121107  121101       6  121107  121104
       7  121113  121110       6  121116  121110       6  121116  121113       7
  121122  121119       6  121125  121119       6  121125  121122       7  121131
  121128       6  121134  121128       6  121134  121131       7  121140  121137
       6  121143  121137       6  121143  121140       7  121149  121146       6
  121152  121146       6  121152  121149       7  121158  121155       6  121161
  121155       6  121161  121158       7  121167  121164       6  121170  121164
       6  121170  121167       7  121176  121173       6  121179  121173       6
  121179  121176       7  121185  121182       6  121188  121182       6  121188
  121185       7  121194  121191       6  121197  121191       6  121197  121194
       7  121203  121200       6  121206  121200       6  121206  121203       7
  121212  121209       6  121215  121209       6  121215  121212       7  121221
  121218       6  121224  121218       6  121224  121221       7  121230  121227
       6  121233  121227       6  121233  121230       7  121239  121236       6
  121242  121236       6  121242  121239       7  121248  121245       6  121251
  121245       6  121251  121248       7  121257  121254       6  121260  121254
       6  121260  121257       7  121266  121263       6  121269  121263       6
  121269  121266       7  121275  121272       6  121278  121272       6  121278
  121275       7  121284  121281       6  121287  121281       6  121287  121284
       7  121293  121290       6  121296  121290       6  121296  121293       7
  121302  121299       6  121305  121299       6  121305  121302       7  121311
  121308       6  121314  121308       6  121314  121311       7  121320  121317
       6  121323  121317       6  121323  121320       7  121329  121326       6
  121332  121326       6  121332  121329       7  121338  121335       6  121341
  121335       6  121341  121338       7  121347  121344       6  121350  121344
       6  121350  121347       7  121356  121353       6  121359  121353       6
  121359  121356       7  121365  121362       6  121368  121362       6  121368
  121365       7  121374  121371       6  121377  121371       6  121377  121374
       7  121383  121380       6  121386  121380       6  121386  121383       7
  121392  121389       6  121395  121389       6  121395  121392       7  121401
  121398       6  121404  121398       6  121404  121401       7  121410  121407
       6  121413  121407       6  121413  121410       7  121419  121416       6
  121422  121416       6  121422  121419       7  121428  121425       6  121431
  121425       6  121431  121428       7  121437  121434       6  121440  121434
       6  121440  121437       7  121446  121443       6  121449  121443       6
  121449  121446       7  121455  121452       6  121458  121452       6  121458
  121455       7  121464  121461       6  121467  121461       6  121467  121464
       7  121473  121470       6  121476  121470       6  121476  121473       7
  121482  121479       6  121485  121479       6  121485  121482       7  121491
  121488       6  121494  121488       6  121494  121491       7  121500  121497
       6  121503  121497       6  121503  121500       7  121509  121506       6
  121512  121506       6  121512  121509       7  121518  121515       6  121521
  121515       6  121521  121518       7  121527  121524       6  121530  121524
       6  121530  121527       7  121536  121533       6  121539  121533       6
  121539  121536       7  121545  121542       6  121548  121542       6  121548
  121545       7  121554  121551       6  121557  121551       6  121557  121554
       7  121563  121560       6  121566  121560       6  121566  121563       7
  121572  121569       6  121575  121569       6  121575  121572       7  121581
  121578       6  121584  121578       6  121584  121581       7  121590  121587
       6  121593  121587       6  121593  121590       7  121599  121596       6
  121602  121596       6  121602  121599       7  121608  121605       6  121611
  121605       6  121611  121608       7  121617  121614       6  121620  121614
       6  121620  121617       7  121626  121623       6  121629  121623       6
  121629  121626       7  121635  121632       6  121638  121632       6  121638
  121635       7  121644  121641       6  121647  121641       6  121647  121644
       7  121653  121650       6  121656  121650       6  121656  121653       7
  121662  121659       6  121665  121659       6  121665  121662       7  121671
  121668       6  121674  121668       6  121674  121671       7  121680  121677
       6  121683  121677       6  121683  121680       7  121689  121686       6
  121692  121686       6  121692  121689       7  121698  121695       6  121701
  121695       6  121701  121698       7  121707  121704       6  121710  121704
       6  121710  121707       7  121716  121713       6  121719  121713       6
  121719  121716       7  121725  121722       6  121728  121722       6  121728
  121725       7  121734  121731       6  121737  121731       6  121737  121734
       7  121743  121740       6  121746  121740       6  121746  121743       7
  121752  121749       6  121755  121749       6  121755  121752       7  121761
  121758       6  121764  121758       6  121764  121761       7  121770  121767
       6  121773  121767       6  121773  121770       7  121779  121776       6
  121782  121776       6  121782  121779       7  121788  121785       6  121791
  121785       6  121791  121788       7  121797  121794       6  121800  121794
       6  121800  121797       7  121806  121803       6  121809  121803       6
  121809  121806       7  121815  121812       6  121818  121812       6  121818
  121815       7  121824  121821       6  121827  121821       6  121827  121824
       7  121833  121830       6  121836  121830       6  121836  121833       7
  121842  121839       6  121845  121839       6  121845  121842       7  121851
  121848       6  121854  121848       6  121854  121851       7  121860  121857
       6  121863  121857       6  121863  121860       7  121869  121866       6
  121872  121866       6  121872  121869       7  121878  121875       6  121881
  121875       6  121881  121878       7  121887  121884       6  121890  121884
       6  121890  121887       7  121896  121893       6  121899  121893       6
  121899  121896       7  121905  121902       6  121908  121902       6  121908
  121905       7  121914  121911       6  121917  121911       6  121917  121914
       7  121923  121920       6  121926  121920       6  121926  121923       7
  121932  121929       6  121935  121929       6  121935  121932       7  121941
  121938       6  121944  121938       6  121944  121941       7  121950  121947
       6  121953  121947       6  121953  121950       7  121959  121956       6
  121962  121956       6  121962  121959       7  121968  121965       6  121971
  121965       6  121971  121968       7  121977  121974       6  121980  121974
       6  121980  121977       7  121986  121983       6  121989  121983       6
  121989  121986       7  121995  121992       6  121998  121992       6  121998
  121995       7  122004  122001       6  122007  122001       6  122007  122004
       7  122013  122010       6  122016  122010       6  122016  122013       7
  122022  122019       6  122025  122019       6  122025  122022       7  122031
  122028       6  122034  122028       6  122034  122031       7  122040  122037
       6  122043  122037       6  122043  122040       7  122049  122046       6
  122052  122046       6  122052  122049       7  122058  122055       6  122061
  122055       6  122061  122058       7  122067  122064       6  122070  122064
       6  122070  122067       7  122076  122073       6  122079  122073       6
  122079  122076       7  122085  122082       6  122088  122082       6  122088
  122085       7  122094  122091       6  122097  122091       6  122097  122094
       7  122103  122100       6  122106  122100       6  122106  122103       7
  122112  122109       6  122115  122109       6  122115  122112       7  122121
  122118       6  122124  122118       6  122124  122121       7  122130  122127
       6  122133  122127       6  122133  122130       7  122139  122136       6
  122142  122136       6  122142  122139       7  122148  122145       6  122151
  122145       6  122151  122148       7  122157  122154       6  122160  122154
       6  122160  122157       7  122166  122163       6  122169  122163       6
  122169  122166       7  122175  122172       6  122178  122172       6  122178
  122175       7  122184  122181       6  122187  122181       6  122187  122184
       7  122193  122190       6  122196  122190       6  122196  122193       7
  122202  122199       6  122205  122199       6  122205  122202       7  122211
  122208       6  122214  122208       6  122214  122211       7  122220  122217
       6  122223  122217       6  122223  122220       7  122229  122226       6
  122232  122226       6  122232  122229       7  122238  122235       6  122241
  122235       6  122241  122238       7  122247  122244       6  122250  122244
       6  122250  122247       7  122256  122253       6  122259  122253       6
  122259  122256       7  122265  122262       6  122268  122262       6  122268
  122265       7  122274  122271       6  122277  122271       6  122277  122274
       7  122283  122280       6  122286  122280       6  122286  122283       7
  122292  122289       6  122295  122289       6  122295  122292       7  122301
  122298       6  122304  122298       6  122304  122301       7  122310  122307
       6  122313  122307       6  122313  122310       7  122319  122316       6
  122322  122316       6  122322  122319       7  122328  122325       6  122331
  122325       6  122331  122328       7  122337  122334       6  122340  122334
       6  122340  122337       7  122346  122343       6  122349  122343       6
  122349  122346       7  122355  122352       6  122358  122352       6  122358
  122355       7  122364  122361       6  122367  122361       6  122367  122364
       7  122373  122370       6  122376  122370       6  122376  122373       7
  122382  122379       6  122385  122379       6  122385  122382       7  122391
  122388       6  122394  122388       6  122394  122391       7  122400  122397
       6  122403  122397       6  122403  122400       7  122409  122406       6
  122412  122406       6  122412  122409       7  122418  122415       6  122421
  122415       6  122421  122418       7  122427  122424       6  122430  122424
       6  122430  122427       7  122436  122433       6  122439  122433       6
  122439  122436       7  122445  122442       6  122448  122442       6  122448
  122445       7  122454  122451       6  122457  122451       6  122457  122454
       7  122463  122460       6  122466  122460       6  122466  122463       7
  122472  122469       6  122475  122469       6  122475  122472       7  122481
  122478       6  122484  122478       6  122484  122481       7  122490  122487
       6  122493  122487       6  122493  122490       7  122499  122496       6
  122502  122496       6  122502  122499       7  122508  122505       6  122511
  122505       6  122511  122508       7  122517  122514       6  122520  122514
       6  122520  122517       7  122526  122523       6  122529  122523       6
  122529  122526       7  122535  122532       6  122538  122532       6  122538
  122535       7  122544  122541       6  122547  122541       6  122547  122544
       7  122553  122550       6  122556  122550       6  122556  122553       7
  122562  122559       6  122565  122559       6  122565  122562       7  122571
  122568       6  122574  122568       6  122574  122571       7  122580  122577
       6  122583  122577       6  122583  122580       7  122589  122586       6
  122592  122586       6  122592  122589       7  122598  122595       6  122601
  122595       6  122601  122598       7  122607  122604       6  122610  122604
       6  122610  122607       7  122616  122613       6  122619  122613       6
  122619  122616       7  122625  122622       6  122628  122622       6  122628
  122625       7  122634  122631       6  122637  122631       6  122637  122634
       7  122643  122640       6  122646  122640       6  122646  122643       7
  122652  122649       6  122655  122649       6  122655  122652       7  122661
  122658       6  122664  122658       6  122664  122661       7  122670  122667
       6  122673  122667       6  122673  122670       7  122679  122676       6
  122682  122676       6  122682  122679       7  122688  122685       6  122691
  122685       6  122691  122688       7  122697  122694       6  122700  122694
       6  122700  122697       7  122706  122703       6  122709  122703       6
  122709  122706       7  122715  122712       6  122718  122712       6  122718
  122715       7  122724  122721       6  122727  122721       6  122727  122724
       7  122733  122730       6  122736  122730       6  122736  122733       7
  122742  122739       6  122745  122739       6  122745  122742       7  122751
  122748       6  122754  122748       6  122754  122751       7  122760  122757
       6  122763  122757       6  122763  122760       7  122769  122766       6
  122772  122766       6  122772  122769       7  122778  122775       6  122781
  122775       6  122781  122778       7  122787  122784       6  122790  122784
       6  122790  122787       7  122796  122793       6  122799  122793       6
  122799  122796       7  122805  122802       6  122808  122802       6  122808
  122805       7  122814  122811       6  122817  122811       6  122817  122814
       7  122823  122820       6  122826  122820       6  122826  122823       7
  122832  122829       6  122835  122829       6  122835  122832       7  122841
  122838       6  122844  122838       6  122844  122841       7  122850  122847
       6  122853  122847       6  122853  122850       7  122859  122856       6
  122862  122856       6  122862  122859       7  122868  122865       6  122871
  122865       6  122871  122868       7  122877  122874       6  122880  122874
       6  122880  122877       7  122886  122883       6  122889  122883       6
  122889  122886       7  122895  122892       6  122898  122892       6  122898
  122895       7  122904  122901       6  122907  122901       6  122907  122904
       7  122913  122910       6  122916  122910       6  122916  122913       7
  122922  122919       6  122925  122919       6  122925  122922       7  122931
  122928       6  122934  122928       6  122934  122931       7  122940  122937
       6  122943  122937       6  122943  122940       7  122949  122946       6
  122952  122946       6  122952  122949       7  122958  122955       6  122961
  122955       6  122961  122958       7  122967  122964       6  122970  122964
       6  122970  122967       7  122976  122973       6  122979  122973       6
  122979  122976       7  122985  122982       6  122988  122982       6  122988
  122985       7  122994  122991       6  122997  122991       6  122997  122994
       7  123003  123000       6  123006  123000       6  123006  123003       7
  123012  123009       6  123015  123009       6  123015  123012       7  123021
  123018       6  123024  123018       6  123024  123021       7  123030  123027
       6  123033  123027       6  123033  123030       7  123039  123036       6
  123042  123036       6  123042  123039       7  123048  123045       6  123051
  123045       6  123051  123048       7  123057  123054       6  123060  123054
       6  123060  123057       7  123066  123063       6  123069  123063       6
  123069  123066       7  123075  123072       6  123078  123072       6  123078
  123075       7  123084  123081       6  123087  123081       6  123087  123084
       7  123093  123090       6  123096  123090       6  123096  123093       7
  123102  123099       6  123105  123099       6  123105  123102       7  123111
  123108       6  123114  123108       6  123114  123111       7  123120  123117
       6  123123  123117       6  123123  123120       7  123129  123126       6
  123132  123126       6  123132  123129       7  123138  123135       6  123141
  123135       6  123141  123138       7  123147  123144       6  123150  123144
       6  123150  123147       7  123156  123153       6  123159  123153       6
  123159  123156       7  123165  123162       6  123168  123162       6  123168
  123165       7  123174  123171       6  123177  123171       6  123177  123174
       7  123183  123180       6  123186  123180       6  123186  123183       7
  123192  123189       6  123195  123189       6  123195  123192       7  123201
  123198       6  123204  123198       6  123204  123201       7  123210  123207
       6  123213  123207       6  123213  123210       7  123219  123216       6
  123222  123216       6  123222  123219       7  123228  123225       6  123231
  123225       6  123231  123228       7  123237  123234       6  123240  123234
       6  123240  123237       7  123246  123243       6  123249  123243       6
  123249  123246       7  123255  123252       6  123258  123252       6  123258
  123255       7  123264  123261       6  123267  123261       6  123267  123264
       7  123273  123270       6  123276  123270       6  123276  123273       7
  123282  123279       6  123285  123279       6  123285  123282       7  123291
  123288       6  123294  123288       6  123294  123291       7  123300  123297
       6  123303  123297       6  123303  123300       7  123309  123306       6
  123312  123306       6  123312  123309       7  123318  123315       6  123321
  123315       6  123321  123318       7  123327  123324       6  123330  123324
       6  123330  123327       7  123336  123333       6  123339  123333       6
  123339  123336       7  123345  123342       6  123348  123342       6  123348
  123345       7  123354  123351       6  123357  123351       6  123357  123354
       7  123363  123360       6  123366  123360       6  123366  123363       7
  123372  123369       6  123375  123369       6  123375  123372       7  123381
  123378       6  123384  123378       6  123384  123381       7  123390  123387
       6  123393  123387       6  123393  123390       7  123399  123396       6
  123402  123396       6  123402  123399       7  123408  123405       6  123411
  123405       6  123411  123408       7  123417  123414       6  123420  123414
       6  123420  123417       7  123426  123423       6  123429  123423       6
  123429  123426       7  123435  123432       6  123438  123432       6  123438
  123435       7  123444  123441       6  123447  123441       6  123447  123444
       7  123453  123450       6  123456  123450       6  123456  123453       7
  123462  123459       6  123465  123459       6  123465  123462       7  123471
  123468       6  123474  123468       6  123474  123471       7  123480  123477
       6  123483  123477       6  123483  123480       7  123489  123486       6
  123492  123486       6  123492  123489       7  123498  123495       6  123501
  123495       6  123501  123498       7  123507  123504       6  123510  123504
       6  123510  123507       7  123516  123513       6  123519  123513       6
  123519  123516       7  123525  123522       6  123528  123522       6  123528
  123525       7  123534  123531       6  123537  123531       6  123537  123534
       7  123543  123540       6  123546  123540       6  123546  123543       7
  123552  123549       6  123555  123549       6  123555  123552       7  123561
  123558       6  123564  123558       6  123564  123561       7  123570  123567
       6  123573  123567       6  123573  123570       7  123579  123576       6
  123582  123576       6  123582  123579       7  123588  123585       6  123591
  123585       6  123591  123588       7  123597  123594       6  123600  123594
       6  123600  123597       7  123606  123603       6  123609  123603       6
  123609  123606       7  123615  123612       6  123618  123612       6  123618
  123615       7  123624  123621       6  123627  123621       6  123627  123624
       7  123633  123630       6  123636  123630       6  123636  123633       7
  123642  123639       6  123645  123639       6  123645  123642       7  123651
  123648       6  123654  123648       6  123654  123651       7  123660  123657
       6  123663  123657       6  123663  123660       7  123669  123666       6
  123672  123666       6  123672  123669       7  123678  123675       6  123681
  123675       6  123681  123678       7  123687  123684       6  123690  123684
       6  123690  123687       7  123696  123693       6  123699  123693       6
  123699  123696       7  123705  123702       6  123708  123702       6  123708
  123705       7  123714  123711       6  123717  123711       6  123717  123714
       7  123723  123720       6  123726  123720       6  123726  123723       7
  123732  123729       6  123735  123729       6  123735  123732       7  123741
  123738       6  123744  123738       6  123744  123741       7  123750  123747
       6  123753  123747       6  123753  123750       7  123759  123756       6
  123762  123756       6  123762  123759       7  123768  123765       6  123771
  123765       6  123771  123768       7  123777  123774       6  123780  123774
       6  123780  123777       7  123786  123783       6  123789  123783       6
  123789  123786       7  123795  123792       6  123798  123792       6  123798
  123795       7  123804  123801       6  123807  123801       6  123807  123804
       7  123813  123810       6  123816  123810       6  123816  123813       7
  123822  123819       6  123825  123819       6  123825  123822       7  123831
  123828       6  123834  123828       6  123834  123831       7  123840  123837
       6  123843  123837       6  123843  123840       7  123849  123846       6
  123852  123846       6  123852  123849       7  123858  123855       6  123861
  123855       6  123861  123858       7  123867  123864       6  123870  123864
       6  123870  123867       7  123876  123873       6  123879  123873       6
  123879  123876       7  123885  123882       6  123888  123882       6  123888
  123885       7  123894  123891       6  123897  123891       6  123897  123894
       7  123903  123900       6  123906  123900       6  123906  123903       7
  123912  123909       6  123915  123909       6  123915  123912       7  123921
  123918       6  123924  123918       6  123924  123921       7  123930  123927
       6  123933  123927       6  123933  123930       7  123939  123936       6
  123942  123936       6  123942  123939       7  123948  123945       6  123951
  123945       6  123951  123948       7  123957  123954       6  123960  123954
       6  123960  123957       7  123966  123963       6  123969  123963       6
  123969  123966       7  123975  123972       6  123978  123972       6  123978
  123975       7  123984  123981       6  123987  123981       6  123987  123984
       7  123993  123990       6  123996  123990       6  123996  123993       7
  124002  123999       6  124005  123999       6  124005  124002       7  124011
  124008       6  124014  124008       6  124014  124011       7  124020  124017
       6  124023  124017       6  124023  124020       7  124029  124026       6
  124032  124026       6  124032  124029       7  124038  124035       6  124041
  124035       6  124041  124038       7  124047  124044       6  124050  124044
       6  124050  124047       7  124056  124053       6  124059  124053       6
  124059  124056       7  124065  124062       6  124068  124062       6  124068
  124065       7  124074  124071       6  124077  124071       6  124077  124074
       7  124083  124080       6  124086  124080       6  124086  124083       7
  124092  124089       6  124095  124089       6  124095  124092       7  124101
  124098       6  124104  124098       6  124104  124101       7  124110  124107
       6  124113  124107       6  124113  124110       7  124119  124116       6
  124122  124116       6  124122  124119       7  124128  124125       6  124131
  124125       6  124131  124128       7  124137  124134       6  124140  124134
       6  124140  124137       7  124146  124143       6  124149  124143       6
  124149  124146       7  124155  124152       6  124158  124152       6  124158
  124155       7  124164  124161       6  124167  124161       6  124167  124164
       7  124173  124170       6  124176  124170       6  124176  124173       7
  124182  124179       6  124185  124179       6  124185  124182       7  124191
  124188       6  124194  124188       6  124194  124191       7  124200  124197
       6  124203  124197       6  124203  124200       7  124209  124206       6
  124212  124206       6  124212  124209       7  124218  124215       6  124221
  124215       6  124221  124218       7  124227  124224       6  124230  124224
       6  124230  124227       7  124236  124233       6  124239  124233       6
  124239  124236       7  124245  124242       6  124248  124242       6  124248
  124245       7  124254  124251       6  124257  124251       6  124257  124254
       7  124263  124260       6  124266  124260       6  124266  124263       7
  124272  124269       6  124275  124269       6  124275  124272       7  124281
  124278       6  124284  124278       6  124284  124281       7  124290  124287
       6  124293  124287       6  124293  124290       7  124299  124296       6
  124302  124296       6  124302  124299       7  124308  124305       6  124311
  124305       6  124311  124308       7  124317  124314       6  124320  124314
       6  124320  124317       7  124326  124323       6  124329  124323       6
  124329  124326       7  124335  124332       6  124338  124332       6  124338
  124335       7  124344  124341       6  124347  124341       6  124347  124344
       7  124353  124350       6  124356  124350       6  124356  124353       7
  124362  124359       6  124365  124359       6  124365  124362       7  124371
  124368       6  124374  124368       6  124374  124371       7  124380  124377
       6  124383  124377       6  124383  124380       7  124389  124386       6
  124392  124386       6  124392  124389       7  124398  124395       6  124401
  124395       6  124401  124398       7  124407  124404       6  124410  124404
       6  124410  124407       7  124416  124413       6  124419  124413       6
  124419  124416       7  124425  124422       6  124428  124422       6  124428
  124425       7  124434  124431       6  124437  124431       6  124437  124434
       7  124443  124440       6  124446  124440       6  124446  124443       7
  124452  124449       6  124455  124449       6  124455  124452       7  124461
  124458       6  124464  124458       6  124464  124461       7  124470  124467
       6  124473  124467       6  124473  124470       7  124479  124476       6
  124482  124476       6  124482  124479       7  124488  124485       6  124491
  124485       6  124491  124488       7  124497  124494       6  124500  124494
       6  124500  124497       7  124506  124503       6  124509  124503       6
  124509  124506       7  124515  124512       6  124518  124512       6  124518
  124515       7  124524  124521       6  124527  124521       6  124527  124524
       7  124533  124530       6  124536  124530       6  124536  124533       7
  124542  124539       6  124545  124539       6  124545  124542       7  124551
  124548       6  124554  124548       6  124554  124551       7  124560  124557
       6  124563  124557       6  124563  124560       7  124569  124566       6
  124572  124566       6  124572  124569       7  124578  124575       6  124581
  124575       6  124581  124578       7  124587  124584       6  124590  124584
       6  124590  124587       7  124596  124593       6  124599  124593       6
  124599  124596       7  124605  124602       6  124608  124602       6  124608
  124605       7  124614  124611       6  124617  124611       6  124617  124614
       7  124623  124620       6  124626  124620       6  124626  124623       7
  124632  124629       6  124635  124629       6  124635  124632       7  124641
  124638       6  124644  124638       6  124644  124641       7  124650  124647
       6  124653  124647       6  124653  124650       7  124659  124656       6
  124662  124656       6  124662  124659       7  124668  124665       6  124671
  124665       6  124671  124668       7  124677  124674       6  124680  124674
       6  124680  124677       7  124686  124683       6  124689  124683       6
  124689  124686       7  124695  124692       6  124698  124692       6  124698
  124695       7  124704  124701       6  124707  124701       6  124707  124704
       7  124713  124710       6  124716  124710       6  124716  124713       7
  124722  124719       6  124725  124719       6  124725  124722       7  124731
  124728       6  124734  124728       6  124734  124731       7  124740  124737
       6  124743  124737       6  124743  124740       7  124749  124746       6
  124752  124746       6  124752  124749       7  124758  124755       6  124761
  124755       6  124761  124758       7  124767  124764       6  124770  124764
       6  124770  124767       7  124776  124773       6  124779  124773       6
  124779  124776       7  124785  124782       6  124788  124782       6  124788
  124785       7  124794  124791       6  124797  124791       6  124797  124794
       7  124803  124800       6  124806  124800       6  124806  124803       7
  124812  124809       6  124815  124809       6  124815  124812       7  124821
  124818       6  124824  124818       6  124824  124821       7  124830  124827
       6  124833  124827       6  124833  124830       7  124839  124836       6
  124842  124836       6  124842  124839       7  124848  124845       6  124851
  124845       6  124851  124848       7  124857  124854       6  124860  124854
       6  124860  124857       7  124866  124863       6  124869  124863       6
  124869  124866       7  124875  124872       6  124878  124872       6  124878
  124875       7  124884  124881       6  124887  124881       6  124887  124884
       7  124893  124890       6  124896  124890       6  124896  124893       7
  124902  124899       6  124905  124899       6  124905  124902       7  124911
  124908       6  124914  124908       6  124914  124911       7  124920  124917
       6  124923  124917       6  124923  124920       7  124929  124926       6
  124932  124926       6  124932  124929       7  124938  124935       6  124941
  124935       6  124941  124938       7  124947  124944       6  124950  124944
       6  124950  124947       7  124956  124953       6  124959  124953       6
  124959  124956       7  124965  124962       6  124968  124962       6  124968
  124965       7  124974  124971       6  124977  124971       6  124977  124974
       7  124983  124980       6  124986  124980       6  124986  124983       7
  124992  124989       6  124995  124989       6  124995  124992       7  125001
  124998       6  125004  124998       6  125004  125001       7  125010  125007
       6  125013  125007       6  125013  125010       7  125019  125016       6
  125022  125016       6  125022  125019       7  125028  125025       6  125031
  125025       6  125031  125028       7  125037  125034       6  125040  125034
       6  125040  125037       7  125046  125043       6  125049  125043       6
  125049  125046       7  125055  125052       6  125058  125052       6  125058
  125055       7  125064  125061       6  125067  125061       6  125067  125064
       7  125073  125070       6  125076  125070       6  125076  125073       7
  125082  125079       6  125085  125079       6  125085  125082       7  125091
  125088       6  125094  125088       6  125094  125091       7  125100  125097
       6  125103  125097       6  125103  125100       7  125109  125106       6
  125112  125106       6  125112  125109       7  125118  125115       6  125121
  125115       6  125121  125118       7  125127  125124       6  125130  125124
       6  125130  125127       7  125136  125133       6  125139  125133       6
  125139  125136       7  125145  125142       6  125148  125142       6  125148
  125145       7  125154  125151       6  125157  125151       6  125157  125154
       7  125163  125160       6  125166  125160       6  125166  125163       7
  125172  125169       6  125175  125169       6  125175  125172       7  125181
  125178       6  125184  125178       6  125184  125181       7  125190  125187
       6  125193  125187       6  125193  125190       7  125199  125196       6
  125202  125196       6  125202  125199       7  125208  125205       6  125211
  125205       6  125211  125208       7  125217  125214       6  125220  125214
       6  125220  125217       7  125226  125223       6  125229  125223       6
  125229  125226       7  125235  125232       6  125238  125232       6  125238
  125235       7  125244  125241       6  125247  125241       6  125247  125244
       7  125253  125250       6  125256  125250       6  125256  125253       7
  125262  125259       6  125265  125259       6  125265  125262       7  125271
  125268       6  125274  125268       6  125274  125271       7  125280  125277
       6  125283  125277       6  125283  125280       7  125289  125286       6
  125292  125286       6  125292  125289       7  125298  125295       6  125301
  125295       6  125301  125298       7  125307  125304       6  125310  125304
       6  125310  125307       7  125316  125313       6  125319  125313       6
  125319  125316       7  125325  125322       6  125328  125322       6  125328
  125325       7  125334  125331       6  125337  125331       6  125337  125334
       7  125343  125340       6  125346  125340       6  125346  125343       7
  125352  125349       6  125355  125349       6  125355  125352       7  125361
  125358       6  125364  125358       6  125364  125361       7  125370  125367
       6  125373  125367       6  125373  125370       7  125379  125376       6
  125382  125376       6  125382  125379       7  125388  125385       6  125391
  125385       6  125391  125388       7  125397  125394       6  125400  125394
       6  125400  125397       7  125406  125403       6  125409  125403       6
  125409  125406       7  125415  125412       6  125418  125412       6  125418
  125415       7  125424  125421       6  125427  125421       6  125427  125424
       7  125433  125430       6  125436  125430       6  125436  125433       7
  125442  125439       6  125445  125439       6  125445  125442       7  125451
  125448       6  125454  125448       6  125454  125451       7  125460  125457
       6  125463  125457       6  125463  125460       7  125469  125466       6
  125472  125466       6  125472  125469       7  125478  125475       6  125481
  125475       6  125481  125478       7  125487  125484       6  125490  125484
       6  125490  125487       7  125496  125493       6  125499  125493       6
  125499  125496       7  125505  125502       6  125508  125502       6  125508
  125505       7  125514  125511       6  125517  125511       6  125517  125514
       7  125523  125520       6  125526  125520       6  125526  125523       7
  125532  125529       6  125535  125529       6  125535  125532       7  125541
  125538       6  125544  125538       6  125544  125541       7  125550  125547
       6  125553  125547       6  125553  125550       7  125559  125556       6
  125562  125556       6  125562  125559       7  125568  125565       6  125571
  125565       6  125571  125568       7  125577  125574       6  125580  125574
       6  125580  125577       7  125586  125583       6  125589  125583       6
  125589  125586       7  125595  125592       6  125598  125592       6  125598
  125595       7  125604  125601       6  125607  125601       6  125607  125604
       7  125613  125610       6  125616  125610       6  125616  125613       7
  125622  125619       6  125625  125619       6  125625  125622       7  125631
  125628       6  125634  125628       6  125634  125631       7  125640  125637
       6  125643  125637       6  125643  125640       7  125649  125646       6
  125652  125646       6  125652  125649       7  125658  125655       6  125661
  125655       6  125661  125658       7  125667  125664       6  125670  125664
       6  125670  125667       7  125676  125673       6  125679  125673       6
  125679  125676       7  125685  125682       6  125688  125682       6  125688
  125685       7  125694  125691       6  125697  125691       6  125697  125694
       7  125703  125700       6  125706  125700       6  125706  125703       7
  125712  125709       6  125715  125709       6  125715  125712       7  125721
  125718       6  125724  125718       6  125724  125721       7  125730  125727
       6  125733  125727       6  125733  125730       7  125739  125736       6
  125742  125736       6  125742  125739       7  125748  125745       6  125751
  125745       6  125751  125748       7  125757  125754       6  125760  125754
       6  125760  125757       7  125766  125763       6  125769  125763       6
  125769  125766       7  125775  125772       6  125778  125772       6  125778
  125775       7  125784  125781       6  125787  125781       6  125787  125784
       7  125793  125790       6  125796  125790       6  125796  125793       7
  125802  125799       6  125805  125799       6  125805  125802       7  125811
  125808       6  125814  125808       6  125814  125811       7  125820  125817
       6  125823  125817       6  125823  125820       7  125829  125826       6
  125832  125826       6  125832  125829       7  125838  125835       6  125841
  125835       6  125841  125838       7  125847  125844       6  125850  125844
       6  125850  125847       7  125856  125853       6  125859  125853       6
  125859  125856       7  125865  125862       6  125868  125862       6  125868
  125865       7  125874  125871       6  125877  125871       6  125877  125874
       7  125883  125880       6  125886  125880       6  125886  125883       7
  125892  125889       6  125895  125889       6  125895  125892       7  125901
  125898       6  125904  125898       6  125904  125901       7  125910  125907
       6  125913  125907       6  125913  125910       7  125919  125916       6
  125922  125916       6  125922  125919       7  125928  125925       6  125931
  125925       6  125931  125928       7  125937  125934       6  125940  125934
       6  125940  125937       7  125946  125943       6  125949  125943       6
  125949  125946       7  125955  125952       6  125958  125952       6  125958
  125955       7  125964  125961       6  125967  125961       6  125967  125964
       7  125973  125970       6  125976  125970       6  125976  125973       7
  125982  125979       6  125985  125979       6  125985  125982       7  125991
  125988       6  125994  125988       6  125994  125991       7  126000  125997
       6  126003  125997       6  126003  126000       7  126009  126006       6
  126012  126006       6  126012  126009       7  126018  126015       6  126021
  126015       6  126021  126018       7  126027  126024       6  126030  126024
       6  126030  126027       7  126036  126033       6  126039  126033       6
  126039  126036       7  126045  126042       6  126048  126042       6  126048
  126045       7  126054  126051       6  126057  126051       6  126057  126054
       7  126063  126060       6  126066  126060       6  126066  126063       7
  126072  126069       6  126075  126069       6  126075  126072       7  126081
  126078       6  126084  126078       6  126084  126081       7  126090  126087
       6  126093  126087       6  126093  126090       7  126099  126096       6
  126102  126096       6  126102  126099       7  126108  126105       6  126111
  126105       6  126111  126108       7  126117  126114       6  126120  126114
       6  126120  126117       7  126126  126123       6  126129  126123       6
  126129  126126       7  126135  126132       6  126138  126132       6  126138
  126135       7  126144  126141       6  126147  126141       6  126147  126144
       7  126153  126150       6  126156  126150       6  126156  126153       7
  126162  126159       6  126165  126159       6  126165  126162       7  126171
  126168       6  126174  126168       6  126174  126171       7  126180  126177
       6  126183  126177       6  126183  126180       7  126189  126186       6
  126192  126186       6  126192  126189       7  126198  126195       6  126201
  126195       6  126201  126198       7  126207  126204       6  126210  126204
       6  126210  126207       7  126216  126213       6  126219  126213       6
  126219  126216       7  126225  126222       6  126228  126222       6  126228
  126225       7  126234  126231       6  126237  126231       6  126237  126234
       7  126243  126240       6  126246  126240       6  126246  126243       7
  126252  126249       6  126255  126249       6  126255  126252       7  126261
  126258       6  126264  126258       6  126264  126261       7  126270  126267
       6  126273  126267       6  126273  126270       7  126279  126276       6
  126282  126276       6  126282  126279       7  126288  126285       6  126291
  126285       6  126291  126288       7  126297  126294       6  126300  126294
       6  126300  126297       7  126306  126303       6  126309  126303       6
  126309  126306       7  126315  126312       6  126318  126312       6  126318
  126315       7  126324  126321       6  126327  126321       6  126327  126324
       7  126333  126330       6  126336  126330       6  126336  126333       7
  126342  126339       6  126345  126339       6  126345  126342       7  126351
  126348       6  126354  126348       6  126354  126351       7  126360  126357
       6  126363  126357       6  126363  126360       7  126369  126366       6
  126372  126366       6  126372  126369       7  126378  126375       6  126381
  126375       6  126381  126378       7  126387  126384       6  126390  126384
       6  126390  126387       7  126396  126393       6  126399  126393       6
  126399  126396       7  126405  126402       6  126408  126402       6  126408
  126405       7  126414  126411       6  126417  126411       6  126417  126414
       7  126423  126420       6  126426  126420       6  126426  126423       7
  126432  126429       6  126435  126429       6  126435  126432       7  126441
  126438       6  126444  126438       6  126444  126441       7  126450  126447
       6  126453  126447       6  126453  126450       7  126459  126456       6
  126462  126456       6  126462  126459       7  126468  126465       6  126471
  126465       6  126471  126468       7  126477  126474       6  126480  126474
       6  126480  126477       7  126486  126483       6  126489  126483       6
  126489  126486       7  126495  126492       6  126498  126492       6  126498
  126495       7  126504  126501       6  126507  126501       6  126507  126504
       7  126513  126510       6  126516  126510       6  126516  126513       7
  126522  126519       6  126525  126519       6  126525  126522       7  126531
  126528       6  126534  126528       6  126534  126531       7  126540  126537
       6  126543  126537       6  126543  126540       7  126549  126546       6
  126552  126546       6  126552  126549       7  126558  126555       6  126561
  126555       6  126561  126558       7  126567  126564       6  126570  126564
       6  126570  126567       7  126576  126573       6  126579  126573       6
  126579  126576       7  126585  126582       6  126588  126582       6  126588
  126585       7  126594  126591       6  126597  126591       6  126597  126594
       7  126603  126600       6  126606  126600       6  126606  126603       7
  126612  126609       6  126615  126609       6  126615  126612       7  126621
  126618       6  126624  126618       6  126624  126621       7  126630  126627
       6  126633  126627       6  126633  126630       7  126639  126636       6
  126642  126636       6  126642  126639       7  126648  126645       6  126651
  126645       6  126651  126648       7  126657  126654       6  126660  126654
       6  126660  126657       7  126666  126663       6  126669  126663       6
  126669  126666       7  126675  126672       6  126678  126672       6  126678
  126675       7  126684  126681       6  126687  126681       6  126687  126684
       7  126693  126690       6  126696  126690       6  126696  126693       7
  126702  126699       6  126705  126699       6  126705  126702       7  126711
  126708       6  126714  126708       6  126714  126711       7  126720  126717
       6  126723  126717       6  126723  126720       7  126729  126726       6
  126732  126726       6  126732  126729       7  126738  126735       6  126741
  126735       6  126741  126738       7  126747  126744       6  126750  126744
       6  126750  126747       7  126756  126753       6  126759  126753       6
  126759  126756       7  126765  126762       6  126768  126762       6  126768
  126765       7  126774  126771       6  126777  126771       6  126777  126774
       7  126783  126780       6  126786  126780       6  126786  126783       7
  126792  126789       6  126795  126789       6  126795  126792       7  126801
  126798       6  126804  126798       6  126804  126801       7  126810  126807
       6  126813  126807       6  126813  126810       7  126819  126816       6
  126822  126816       6  126822  126819       7  126828  126825       6  126831
  126825       6  126831  126828       7  126837  126834       6  126840  126834
       6  126840  126837       7  126846  126843       6  126849  126843       6
  126849  126846       7  126855  126852       6  126858  126852       6  126858
  126855       7  126864  126861       6  126867  126861       6  126867  126864
       7  126873  126870       6  126876  126870       6  126876  126873       7
  126882  126879       6  126885  126879       6  126885  126882       7  126891
  126888       6  126894  126888       6  126894  126891       7  126900  126897
       6  126903  126897       6  126903  126900       7  126909  126906       6
  126912  126906       6  126912  126909       7  126918  126915       6  126921
  126915       6  126921  126918       7  126927  126924       6  126930  126924
       6  126930  126927       7  126936  126933       6  126939  126933       6
  126939  126936       7  126945  126942       6  126948  126942       6  126948
  126945       7  126954  126951       6  126957  126951       6  126957  126954
       7  126963  126960       6  126966  126960       6  126966  126963       7
  126972  126969       6  126975  126969       6  126975  126972       7  126981
  126978       6  126984  126978       6  126984  126981       7  126990  126987
       6  126993  126987       6  126993  126990       7  126999  126996       6
  127002  126996       6  127002  126999       7  127008  127005       6  127011
  127005       6  127011  127008       7  127017  127014       6  127020  127014
       6  127020  127017       7  127026  127023       6  127029  127023       6
  127029  127026       7  127035  127032       6  127038  127032       6  127038
  127035       7  127044  127041       6  127047  127041       6  127047  127044
       7  127053  127050       6  127056  127050       6  127056  127053       7
  127062  127059       6  127065  127059       6  127065  127062       7  127071
  127068       6  127074  127068       6  127074  127071       7  127080  127077
       6  127083  127077       6  127083  127080       7  127089  127086       6
  127092  127086       6  127092  127089       7  127098  127095       6  127101
  127095       6  127101  127098       7  127107  127104       6  127110  127104
       6  127110  127107       7  127116  127113       6  127119  127113       6
  127119  127116       7  127125  127122       6  127128  127122       6  127128
  127125       7  127134  127131       6  127137  127131       6  127137  127134
       7  127143  127140       6  127146  127140       6  127146  127143       7
  127152  127149       6  127155  127149       6  127155  127152       7  127161
  127158       6  127164  127158       6  127164  127161       7  127170  127167
       6  127173  127167       6  127173  127170       7  127179  127176       6
  127182  127176       6  127182  127179       7  127188  127185       6  127191
  127185       6  127191  127188       7  127197  127194       6  127200  127194
       6  127200  127197       7  127206  127203       6  127209  127203       6
  127209  127206       7  127215  127212       6  127218  127212       6  127218
  127215       7  127224  127221       6  127227  127221       6  127227  127224
       7  127233  127230       6  127236  127230       6  127236  127233       7
  127242  127239       6  127245  127239       6  127245  127242       7  127251
  127248       6  127254  127248       6  127254  127251       7  127260  127257
       6  127263  127257       6  127263  127260       7  127269  127266       6
  127272  127266       6  127272  127269       7  127278  127275       6  127281
  127275       6  127281  127278       7  127287  127284       6  127290  127284
       6  127290  127287       7  127296  127293       6  127299  127293       6
  127299  127296       7  127305  127302       6  127308  127302       6  127308
  127305       7  127314  127311       6  127317  127311       6  127317  127314
       7  127323  127320       6  127326  127320       6  127326  127323       7
  127332  127329       6  127335  127329       6  127335  127332       7  127341
  127338       6  127344  127338       6  127344  127341       7  127350  127347
       6  127353  127347       6  127353  127350       7  127359  127356       6
  127362  127356       6  127362  127359       7  127368  127365       6  127371
  127365       6  127371  127368       7  127377  127374       6  127380  127374
       6  127380  127377       7  127386  127383       6  127389  127383       6
  127389  127386       7  127395  127392       6  127398  127392       6  127398
  127395       7  127404  127401       6  127407  127401       6  127407  127404
       7  127413  127410       6  127416  127410       6  127416  127413       7
  127422  127419       6  127425  127419       6  127425  127422       7  127431
  127428       6  127434  127428       6  127434  127431       7  127440  127437
       6  127443  127437       6  127443  127440       7  127449  127446       6
  127452  127446       6  127452  127449       7  127458  127455       6  127461
  127455       6  127461  127458       7  127467  127464       6  127470  127464
       6  127470  127467       7  127476  127473       6  127479  127473       6
  127479  127476       7  127485  127482       6  127488  127482       6  127488
  127485       7  127494  127491       6  127497  127491       6  127497  127494
       7  127503  127500       6  127506  127500       6  127506  127503       7
  127512  127509       6  127515  127509       6  127515  127512       7  127521
  127518       6  127524  127518       6  127524  127521       7  127530  127527
       6  127533  127527       6  127533  127530       7  127539  127536       6
  127542  127536       6  127542  127539       7  127548  127545       6  127551
  127545       6  127551  127548       7  127557  127554       6  127560  127554
       6  127560  127557       7  127566  127563       6  127569  127563       6
  127569  127566       7  127575  127572       6  127578  127572       6  127578
  127575       7  127584  127581       6  127587  127581       6  127587  127584
       7  127593  127590       6  127596  127590       6  127596  127593       7
  127602  127599       6  127605  127599       6  127605  127602       7  127611
  127608       6  127614  127608       6  127614  127611       7  127620  127617
       6  127623  127617       6  127623  127620       7  127629  127626       6
  127632  127626       6  127632  127629       7  127638  127635       6  127641
  127635       6  127641  127638       7  127647  127644       6  127650  127644
       6  127650  127647       7  127656  127653       6  127659  127653       6
  127659  127656       7  127665  127662       6  127668  127662       6  127668
  127665       7  127674  127671       6  127677  127671       6  127677  127674
       7  127683  127680       6  127686  127680       6  127686  127683       7
  127692  127689       6  127695  127689       6  127695  127692       7  127701
  127698       6  127704  127698       6  127704  127701       7  127710  127707
       6  127713  127707       6  127713  127710       7  127719  127716       6
  127722  127716       6  127722  127719       7  127728  127725       6  127731
  127725       6  127731  127728       7  127737  127734       6  127740  127734
       6  127740  127737       7  127746  127743       6  127749  127743       6
  127749  127746       7  127755  127752       6  127758  127752       6  127758
  127755       7  127764  127761       6  127767  127761       6  127767  127764
       7  127773  127770       6  127776  127770       6  127776  127773       7
  127782  127779       6  127785  127779       6  127785  127782       7  127791
  127788       6  127794  127788       6  127794  127791       7  127800  127797
       6  127803  127797       6  127803  127800       7  127809  127806       6
  127812  127806       6  127812  127809       7  127818  127815       6  127821
  127815       6  127821  127818       7  127827  127824       6  127830  127824
       6  127830  127827       7  127836  127833       6  127839  127833       6
  127839  127836       7  127845  127842       6  127848  127842       6  127848
  127845       7  127854  127851       6  127857  127851       6  127857  127854
       7  127863  127860       6  127866  127860       6  127866  127863       7
  127872  127869       6  127875  127869       6  127875  127872       7  127881
  127878       6  127884  127878       6  127884  127881       7  127890  127887
       6  127893  127887       6  127893  127890       7  127899  127896       6
  127902  127896       6  127902  127899       7  127908  127905       6  127911
  127905       6  127911  127908       7  127917  127914       6  127920  127914
       6  127920  127917       7  127926  127923       6  127929  127923       6
  127929  127926       7  127935  127932       6  127938  127932       6  127938
  127935       7  127944  127941       6  127947  127941       6  127947  127944
       7  127953  127950       6  127956  127950       6  127956  127953       7
  127962  127959       6  127965  127959       6  127965  127962       7  127971
  127968       6  127974  127968       6  127974  127971       7  127980  127977
       6  127983  127977       6  127983  127980       7  127989  127986       6
  127992  127986       6  127992  127989       7  127998  127995       6  128001
  127995       6  128001  127998       7  128007  128004       6  128010  128004
       6  128010  128007       7  128016  128013       6  128019  128013       6
  128019  128016       7  128025  128022       6  128028  128022       6  128028
  128025       7  128034  128031       6  128037  128031       6  128037  128034
       7  128043  128040       6  128046  128040       6  128046  128043       7
  128052  128049       6  128055  128049       6  128055  128052       7  128061
  128058       6  128064  128058       6  128064  128061       7  128070  128067
       6  128073  128067       6  128073  128070       7  128079  128076       6
  128082  128076       6  128082  128079       7  128088  128085       6  128091
  128085       6  128091  128088       7  128097  128094       6  128100  128094
       6  128100  128097       7  128106  128103       6  128109  128103       6
  128109  128106       7  128115  128112       6  128118  128112       6  128118
  128115       7  128124  128121       6  128127  128121       6  128127  128124
       7  128133  128130       6  128136  128130       6  128136  128133       7
  128142  128139       6  128145  128139       6  128145  128142       7  128151
  128148       6  128154  128148       6  128154  128151       7  128160  128157
       6  128163  128157       6  128163  128160       7  128169  128166       6
  128172  128166       6  128172  128169       7  128178  128175       6  128181
  128175       6  128181  128178       7  128187  128184       6  128190  128184
       6  128190  128187       7  128196  128193       6  128199  128193       6
  128199  128196       7  128205  128202       6  128208  128202       6  128208
  128205       7  128214  128211       6  128217  128211       6  128217  128214
       7  128223  128220       6  128226  128220       6  128226  128223       7
  128232  128229       6  128235  128229       6  128235  128232       7  128241
  128238       6  128244  128238       6  128244  128241       7  128250  128247
       6  128253  128247       6  128253  128250       7  128259  128256       6
  128262  128256       6  128262  128259       7  128268  128265       6  128271
  128265       6  128271  128268       7  128277  128274       6  128280  128274
       6  128280  128277       7  128286  128283       6  128289  128283       6
  128289  128286       7  128295  128292       6  128298  128292       6  128298
  128295       7  128304  128301       6  128307  128301       6  128307  128304
       7  128313  128310       6  128316  128310       6  128316  128313       7
  128322  128319       6  128325  128319       6  128325  128322       7  128331
  128328       6  128334  128328       6  128334  128331       7  128340  128337
       6  128343  128337       6  128343  128340       7  128349  128346       6
  128352  128346       6  128352  128349       7  128358  128355       6  128361
  128355       6  128361  128358       7  128367  128364       6  128370  128364
       6  128370  128367       7  128376  128373       6  128379  128373       6
  128379  128376       7  128385  128382       6  128388  128382       6  128388
  128385       7  128394  128391       6  128397  128391       6  128397  128394
       7  128403  128400       6  128406  128400       6  128406  128403       7
  128412  128409       6  128415  128409       6  128415  128412       7  128421
  128418       6  128424  128418       6  128424  128421       7  128430  128427
       6  128433  128427       6  128433  128430       7  128439  128436       6
  128442  128436       6  128442  128439       7  128448  128445       6  128451
  128445       6  128451  128448       7  128457  128454       6  128460  128454
       6  128460  128457       7  128466  128463       6  128469  128463       6
  128469  128466       7  128475  128472       6  128478  128472       6  128478
  128475       7  128484  128481       6  128487  128481       6  128487  128484
       7  128493  128490       6  128496  128490       6  128496  128493       7
  128502  128499       6  128505  128499       6  128505  128502       7  128511
  128508       6  128514  128508       6  128514  128511       7  128520  128517
       6  128523  128517       6  128523  128520       7  128529  128526       6
  128532  128526       6  128532  128529       7  128538  128535       6  128541
  128535       6  128541  128538       7  128547  128544       6  128550  128544
       6  128550  128547       7  128556  128553       6  128559  128553       6
  128559  128556       7  128565  128562       6  128568  128562       6  128568
  128565       7  128574  128571       6  128577  128571       6  128577  128574
       7  128583  128580       6  128586  128580       6  128586  128583       7
  128592  128589       6  128595  128589       6  128595  128592       7  128601
  128598       6  128604  128598       6  128604  128601       7  128610  128607
       6  128613  128607       6  128613  128610       7  128619  128616       6
  128622  128616       6  128622  128619       7  128628  128625       6  128631
  128625       6  128631  128628       7  128637  128634       6  128640  128634
       6  128640  128637       7  128646  128643       6  128649  128643       6
  128649  128646       7  128655  128652       6  128658  128652       6  128658
  128655       7  128664  128661       6  128667  128661       6  128667  128664
       7  128673  128670       6  128676  128670       6  128676  128673       7
  128682  128679       6  128685  128679       6  128685  128682       7  128691
  128688       6  128694  128688       6  128694  128691       7  128700  128697
       6  128703  128697       6  128703  128700       7  128709  128706       6
  128712  128706       6  128712  128709       7  128718  128715       6  128721
  128715       6  128721  128718       7  128727  128724       6  128730  128724
       6  128730  128727       7  128736  128733       6  128739  128733       6
  128739  128736       7  128745  128742       6  128748  128742       6  128748
  128745       7  128754  128751       6  128757  128751       6  128757  128754
       7  128763  128760       6  128766  128760       6  128766  128763       7
  128772  128769       6  128775  128769       6  128775  128772       7  128781
  128778       6  128784  128778       6  128784  128781       7  128790  128787
       6  128793  128787       6  128793  128790       7  128799  128796       6
  128802  128796       6  128802  128799       7  128808  128805       6  128811
  128805       6  128811  128808       7  128817  128814       6  128820  128814
       6  128820  128817       7  128826  128823       6  128829  128823       6
  128829  128826       7  128835  128832       6  128838  128832       6  128838
  128835       7  128844  128841       6  128847  128841       6  128847  128844
       7  128853  128850       6  128856  128850       6  128856  128853       7
  128862  128859       6  128865  128859       6  128865  128862       7  128871
  128868       6  128874  128868       6  128874  128871       7  128880  128877
       6  128883  128877       6  128883  128880       7  128889  128886       6
  128892  128886       6  128892  128889       7  128898  128895       6  128901
  128895       6  128901  128898       7  128907  128904       6  128910  128904
       6  128910  128907       7  128916  128913       6  128919  128913       6
  128919  128916       7  128925  128922       6  128928  128922       6  128928
  128925       7  128934  128931       6  128937  128931       6  128937  128934
       7  128943  128940       6  128946  128940       6  128946  128943       7
  128952  128949       6  128955  128949       6  128955  128952       7  128961
  128958       6  128964  128958       6  128964  128961       7  128970  128967
       6  128973  128967       6  128973  128970       7  128979  128976       6
  128982  128976       6  128982  128979       7  128988  128985       6  128991
  128985       6  128991  128988       7  128997  128994       6  129000  128994
       6  129000  128997       7  129006  129003       6  129009  129003       6
  129009  129006       7  129015  129012       6  129018  129012       6  129018
  129015       7  129024  129021       6  129027  129021       6  129027  129024
       7  129033  129030       6  129036  129030       6  129036  129033       7
  129042  129039       6  129045  129039       6  129045  129042       7  129051
  129048       6  129054  129048       6  129054  129051       7  129060  129057
       6  129063  129057       6  129063  129060       7  129069  129066       6
  129072  129066       6  129072  129069       7  129078  129075       6  129081
  129075       6  129081  129078       7  129087  129084       6  129090  129084
       6  129090  129087       7  129096  129093       6  129099  129093       6
  129099  129096       7  129105  129102       6  129108  129102       6  129108
  129105       7  129114  129111       6  129117  129111       6  129117  129114
       7  129123  129120       6  129126  129120       6  129126  129123       7
  129132  129129       6  129135  129129       6  129135  129132       7  129141
  129138       6  129144  129138       6  129144  129141       7  129150  129147
       6  129153  129147       6  129153  129150       7  129159  129156       6
  129162  129156       6  129162  129159       7  129168  129165       6  129171
  129165       6  129171  129168       7  129177  129174       6  129180  129174
       6  129180  129177       7  129186  129183       6  129189  129183       6
  129189  129186       7  129195  129192       6  129198  129192       6  129198
  129195       7  129204  129201       6  129207  129201       6  129207  129204
       7  129213  129210       6  129216  129210       6  129216  129213       7
  129222  129219       6  129225  129219       6  129225  129222       7  129231
  129228       6  129234  129228       6  129234  129231       7  129240  129237
       6  129243  129237       6  129243  129240       7  129249  129246       6
  129252  129246       6  129252  129249       7  129258  129255       6  129261
  129255       6  129261  129258       7  129267  129264       6  129270  129264
       6  129270  129267       7  129276  129273       6  129279  129273       6
  129279  129276       7  129285  129282       6  129288  129282       6  129288
  129285       7  129294  129291       6  129297  129291       6  129297  129294
       7  129303  129300       6  129306  129300       6  129306  129303       7
  129312  129309       6  129315  129309       6  129315  129312       7  129321
  129318       6  129324  129318       6  129324  129321       7  129330  129327
       6  129333  129327       6  129333  129330       7  129339  129336       6
  129342  129336       6  129342  129339       7  129348  129345       6  129351
  129345       6  129351  129348       7  129357  129354       6  129360  129354
       6  129360  129357       7  129366  129363       6  129369  129363       6
  129369  129366       7  129375  129372       6  129378  129372       6  129378
  129375       7  129384  129381       6  129387  129381       6  129387  129384
       7  129393  129390       6  129396  129390       6  129396  129393       7
  129402  129399       6  129405  129399       6  129405  129402       7  129411
  129408       6  129414  129408       6  129414  129411       7  129420  129417
       6  129423  129417       6  129423  129420       7  129429  129426       6
  129432  129426       6  129432  129429       7  129438  129435       6  129441
  129435       6  129441  129438       7  129447  129444       6  129450  129444
       6  129450  129447       7  129456  129453       6  129459  129453       6
  129459  129456       7  129465  129462       6  129468  129462       6  129468
  129465       7  129474  129471       6  129477  129471       6  129477  129474
       7  129483  129480       6  129486  129480       6  129486  129483       7
  129492  129489       6  129495  129489       6  129495  129492       7  129501
  129498       6  129504  129498       6  129504  129501       7  129510  129507
       6  129513  129507       6  129513  129510       7  129519  129516       6
  129522  129516       6  129522  129519       7  129528  129525       6  129531
  129525       6  129531  129528       7  129537  129534       6  129540  129534
       6  129540  129537       7  129546  129543       6  129549  129543       6
  129549  129546       7  129555  129552       6  129558  129552       6  129558
  129555       7  129564  129561       6  129567  129561       6  129567  129564
       7  129573  129570       6  129576  129570       6  129576  129573       7
  129582  129579       6  129585  129579       6  129585  129582       7  129591
  129588       6  129594  129588       6  129594  129591       7  129600  129597
       6  129603  129597       6  129603  129600       7  129609  129606       6
  129612  129606       6  129612  129609       7  129618  129615       6  129621
  129615       6  129621  129618       7  129627  129624       6  129630  129624
       6  129630  129627       7  129636  129633       6  129639  129633       6
  129639  129636       7  129645  129642       6  129648  129642       6  129648
  129645       7  129654  129651       6  129657  129651       6  129657  129654
       7  129663  129660       6  129666  129660       6  129666  129663       7
  129672  129669       6  129675  129669       6  129675  129672       7  129681
  129678       6  129684  129678       6  129684  129681       7  129690  129687
       6  129693  129687       6  129693  129690       7  129699  129696       6
  129702  129696       6  129702  129699       7  129708  129705       6  129711
  129705       6  129711  129708       7  129717  129714       6  129720  129714
       6  129720  129717       7  129726  129723       6  129729  129723       6
  129729  129726       7  129735  129732       6  129738  129732       6  129738
  129735       7  129744  129741       6  129747  129741       6  129747  129744
       7  129753  129750       6  129756  129750       6  129756  129753       7
  129762  129759       6  129765  129759       6  129765  129762       7  129771
  129768       6  129774  129768       6  129774  129771       7  129780  129777
       6  129783  129777       6  129783  129780       7  129789  129786       6
  129792  129786       6  129792  129789       7  129798  129795       6  129801
  129795       6  129801  129798       7  129807  129804       6  129810  129804
       6  129810  129807       7  129816  129813       6  129819  129813       6
  129819  129816       7  129825  129822       6  129828  129822       6  129828
  129825       7  129834  129831       6  129837  129831       6  129837  129834
       7  129843  129840       6  129846  129840       6  129846  129843       7
  129852  129849       6  129855  129849       6  129855  129852       7  129861
  129858       6  129864  129858       6  129864  129861       7  129870  129867
       6  129873  129867       6  129873  129870       7  129879  129876       6
  129882  129876       6  129882  129879       7  129888  129885       6  129891
  129885       6  129891  129888       7  129897  129894       6  129900  129894
       6  129900  129897       7  129906  129903       6  129909  129903       6
  129909  129906       7  129915  129912       6  129918  129912       6  129918
  129915       7  129924  129921       6  129927  129921       6  129927  129924
       7  129933  129930       6  129936  129930       6  129936  129933       7
  129942  129939       6  129945  129939       6  129945  129942       7  129951
  129948       6  129954  129948       6  129954  129951       7  129960  129957
       6  129963  129957       6  129963  129960       7  129969  129966       6
  129972  129966       6  129972  129969       7  129978  129975       6  129981
  129975       6  129981  129978       7  129987  129984       6  129990  129984
       6  129990  129987       7  129996  129993       6  129999  129993       6
  129999  129996       7  130005  130002       6  130008  130002       6  130008
  130005       7  130014  130011       6  130017  130011       6  130017  130014
       7  130023  130020       6  130026  130020       6  130026  130023       7
  130032  130029       6  130035  130029       6  130035  130032       7  130041
  130038       6  130044  130038       6  130044  130041       7  130050  130047
       6  130053  130047       6  130053  130050       7  130059  130056       6
  130062  130056       6  130062  130059       7  130068  130065       6  130071
  130065       6  130071  130068       7  130077  130074       6  130080  130074
       6  130080  130077       7  130086  130083       6  130089  130083       6
  130089  130086       7  130095  130092       6  130098  130092       6  130098
  130095       7  130104  130101       6  130107  130101       6  130107  130104
       7  130113  130110       6  130116  130110       6  130116  130113       7
  130122  130119       6  130125  130119       6  130125  130122       7  130131
  130128       6  130134  130128       6  130134  130131       7  130140  130137
       6  130143  130137       6  130143  130140       7  130149  130146       6
  130152  130146       6  130152  130149       7  130158  130155       6  130161
  130155       6  130161  130158       7  130167  130164       6  130170  130164
       6  130170  130167       7  130176  130173       6  130179  130173       6
  130179  130176       7  130185  130182       6  130188  130182       6  130188
  130185       7  130194  130191       6  130197  130191       6  130197  130194
       7  130203  130200       6  130206  130200       6  130206  130203       7
  130212  130209       6  130215  130209       6  130215  130212       7  130221
  130218       6  130224  130218       6  130224  130221       7  130230  130227
       6  130233  130227       6  130233  130230       7  130239  130236       6
  130242  130236       6  130242  130239       7  130248  130245       6  130251
  130245       6  130251  130248       7  130257  130254       6  130260  130254
       6  130260  130257       7  130266  130263       6  130269  130263       6
  130269  130266       7  130275  130272       6  130278  130272       6  130278
  130275       7  130284  130281       6  130287  130281       6  130287  130284
       7  130293  130290       6  130296  130290       6  130296  130293       7
  130302  130299       6  130305  130299       6  130305  130302       7  130311
  130308       6  130314  130308       6  130314  130311       7  130320  130317
       6  130323  130317       6  130323  130320       7  130329  130326       6
  130332  130326       6  130332  130329       7  130338  130335       6  130341
  130335       6  130341  130338       7  130347  130344       6  130350  130344
       6  130350  130347       7  130356  130353       6  130359  130353       6
  130359  130356       7  130365  130362       6  130368  130362       6  130368
  130365       7  130374  130371       6  130377  130371       6  130377  130374
       7  130383  130380       6  130386  130380       6  130386  130383       7
  130392  130389       6  130395  130389       6  130395  130392       7  130401
  130398       6  130404  130398       6  130404  130401       7  130410  130407
       6  130413  130407       6  130413  130410       7  130419  130416       6
  130422  130416       6  130422  130419       7  130428  130425       6  130431
  130425       6  130431  130428       7  130437  130434       6  130440  130434
       6  130440  130437       7  130446  130443       6  130449  130443       6
  130449  130446       7  130455  130452       6  130458  130452       6  130458
  130455       7  130464  130461       6  130467  130461       6  130467  130464
       7  130473  130470       6  130476  130470       6  130476  130473       7
  130482  130479       6  130485  130479       6  130485  130482       7  130491
  130488       6  130494  130488       6  130494  130491       7  130500  130497
       6  130503  130497       6  130503  130500       7  130509  130506       6
  130512  130506       6  130512  130509       7  130518  130515       6  130521
  130515       6  130521  130518       7  130527  130524       6  130530  130524
       6  130530  130527       7  130536  130533       6  130539  130533       6
  130539  130536       7  130545  130542       6  130548  130542       6  130548
  130545       7  130554  130551       6  130557  130551       6  130557  130554
       7  130563  130560       6  130566  130560       6  130566  130563       7
  130572  130569       6  130575  130569       6  130575  130572       7  130581
  130578       6  130584  130578       6  130584  130581       7  130590  130587
       6  130593  130587       6  130593  130590       7  130599  130596       6
  130602  130596       6  130602  130599       7  130608  130605       6  130611
  130605       6  130611  130608       7  130617  130614       6  130620  130614
       6  130620  130617       7  130626  130623       6  130629  130623       6
  130629  130626       7  130635  130632       6  130638  130632       6  130638
  130635       7  130644  130641       6  130647  130641       6  130647  130644
       7  130653  130650       6  130656  130650       6  130656  130653       7
  130662  130659       6  130665  130659       6  130665  130662       7  130671
  130668       6  130674  130668       6  130674  130671       7  130680  130677
       6  130683  130677       6  130683  130680       7  130689  130686       6
  130692  130686       6  130692  130689       7  130698  130695       6  130701
  130695       6  130701  130698       7  130707  130704       6  130710  130704
       6  130710  130707       7  130716  130713       6  130719  130713       6
  130719  130716       7  130725  130722       6  130728  130722       6  130728
  130725       7  130734  130731       6  130737  130731       6  130737  130734
       7  130743  130740       6  130746  130740       6  130746  130743       7
  130752  130749       6  130755  130749       6  130755  130752       7  130761
  130758       6  130764  130758       6  130764  130761       7  130770  130767
       6  130773  130767       6  130773  130770       7  130779  130776       6
  130782  130776       6  130782  130779       7  130788  130785       6  130791
  130785       6  130791  130788       7  130797  130794       6  130800  130794
       6  130800  130797       7  130806  130803       6  130809  130803       6
  130809  130806       7  130815  130812       6  130818  130812       6  130818
  130815       7  130824  130821       6  130827  130821       6  130827  130824
       7  130833  130830       6  130836  130830       6  130836  130833       7
  130842  130839       6  130845  130839       6  130845  130842       7  130851
  130848       6  130854  130848       6  130854  130851       7  130860  130857
       6  130863  130857       6  130863  130860       7  130869  130866       6
  130872  130866       6  130872  130869       7  130878  130875       6  130881
  130875       6  130881  130878       7  130887  130884       6  130890  130884
       6  130890  130887       7  130896  130893       6  130899  130893       6
  130899  130896       7  130905  130902       6  130908  130902       6  130908
  130905       7  130914  130911       6  130917  130911       6  130917  130914
       7  130923  130920       6  130926  130920       6  130926  130923       7
  130932  130929       6  130935  130929       6  130935  130932       7  130941
  130938       6  130944  130938       6  130944  130941       7  130950  130947
       6  130953  130947       6  130953  130950       7  130959  130956       6
  130962  130956       6  130962  130959       7  130968  130965       6  130971
  130965       6  130971  130968       7  130977  130974       6  130980  130974
       6  130980  130977       7  130986  130983       6  130989  130983       6
  130989  130986       7  130995  130992       6  130998  130992       6  130998
  130995       7  131004  131001       6  131007  131001       6  131007  131004
       7  131013  131010       6  131016  131010       6  131016  131013       7
  131022  131019       6  131025  131019       6  131025  131022       7  131031
  131028       6  131034  131028       6  131034  131031       7  131040  131037
       6  131043  131037       6  131043  131040       7  131049  131046       6
  131052  131046       6  131052  131049       7  131058  131055       6  131061
  131055       6  131061  131058       7  131067  131064       6  131070  131064
       6  131070  131067       7  131076  131073       6  131079  131073       6
  131079  131076       7  131085  131082       6  131088  131082       6  131088
  131085       7  131094  131091       6  131097  131091       6  131097  131094
       7  131103  131100       6  131106  131100       6  131106  131103       7
  131112  131109       6  131115  131109       6  131115  131112       7  131121
  131118       6  131124  131118       6  131124  131121       7  131130  131127
       6  131133  131127       6  131133  131130       7  131139  131136       6
  131142  131136       6  131142  131139       7  131148  131145       6  131151
  131145       6  131151  131148       7  131157  131154       6  131160  131154
       6  131160  131157       7  131166  131163       6  131169  131163       6
  131169  131166       7  131175  131172       6  131178  131172       6  131178
  131175       7  131184  131181       6  131187  131181       6  131187  131184
       7  131193  131190       6  131196  131190       6  131196  131193       7
  131202  131199       6  131205  131199       6  131205  131202       7  131211
  131208       6  131214  131208       6  131214  131211       7  131220  131217
       6  131223  131217       6  131223  131220       7  131229  131226       6
  131232  131226       6  131232  131229       7  131238  131235       6  131241
  131235       6  131241  131238       7  131247  131244       6  131250  131244
       6  131250  131247       7  131256  131253       6  131259  131253       6
  131259  131256       7  131265  131262       6  131268  131262       6  131268
  131265       7  131274  131271       6  131277  131271       6  131277  131274
       7  131283  131280       6  131286  131280       6  131286  131283       7
  131292  131289       6  131295  131289       6  131295  131292       7  131301
  131298       6  131304  131298       6  131304  131301       7  131310  131307
       6  131313  131307       6  131313  131310       7  131319  131316       6
  131322  131316       6  131322  131319       7  131328  131325       6  131331
  131325       6  131331  131328       7  131337  131334       6  131340  131334
       6  131340  131337       7  131346  131343       6  131349  131343       6
  131349  131346       7  131355  131352       6  131358  131352       6  131358
  131355       7  131364  131361       6  131367  131361       6  131367  131364
       7  131373  131370       6  131376  131370       6  131376  131373       7
  131382  131379       6  131385  131379       6  131385  131382       7  131391
  131388       6  131394  131388       6  131394  131391       7  131400  131397
       6  131403  131397       6  131403  131400       7  131409  131406       6
  131412  131406       6  131412  131409       7  131418  131415       6  131421
  131415       6  131421  131418       7  131427  131424       6  131430  131424
       6  131430  131427       7  131436  131433       6  131439  131433       6
  131439  131436       7  131445  131442       6  131448  131442       6  131448
  131445       7  131454  131451       6  131457  131451       6  131457  131454
       7  131463  131460       6  131466  131460       6  131466  131463       7
  131472  131469       6  131475  131469       6  131475  131472       7  131481
  131478       6  131484  131478       6  131484  131481       7  131490  131487
       6  131493  131487       6  131493  131490       7  131499  131496       6
  131502  131496       6  131502  131499       7  131508  131505       6  131511
  131505       6  131511  131508       7  131517  131514       6  131520  131514
       6  131520  131517       7  131526  131523       6  131529  131523       6
  131529  131526       7  131535  131532       6  131538  131532       6  131538
  131535       7  131544  131541       6  131547  131541       6  131547  131544
       7  131553  131550       6  131556  131550       6  131556  131553       7
  131562  131559       6  131565  131559       6  131565  131562       7  131571
  131568       6  131574  131568       6  131574  131571       7  131580  131577
       6  131583  131577       6  131583  131580       7  131589  131586       6
  131592  131586       6  131592  131589       7  131598  131595       6  131601
  131595       6  131601  131598       7  131607  131604       6  131610  131604
       6  131610  131607       7  131616  131613       6  131619  131613       6
  131619  131616       7  131625  131622       6  131628  131622       6  131628
  131625       7  131634  131631       6  131637  131631       6  131637  131634
       7  131643  131640       6  131646  131640       6  131646  131643       7
  131652  131649       6  131655  131649       6  131655  131652       7  131661
  131658       6  131664  131658       6  131664  131661       7  131670  131667
       6  131673  131667       6  131673  131670       7  131679  131676       6
  131682  131676       6  131682  131679       7  131688  131685       6  131691
  131685       6  131691  131688       7  131697  131694       6  131700  131694
       6  131700  131697       7  131706  131703       6  131709  131703       6
  131709  131706       7  131715  131712       6  131718  131712       6  131718
  131715       7  131724  131721       6  131727  131721       6  131727  131724
       7  131733  131730       6  131736  131730       6  131736  131733       7
  131742  131739       6  131745  131739       6  131745  131742       7  131751
  131748       6  131754  131748       6  131754  131751       7  131760  131757
       6  131763  131757       6  131763  131760       7  131769  131766       6
  131772  131766       6  131772  131769       7  131778  131775       6  131781
  131775       6  131781  131778       7  131787  131784       6  131790  131784
       6  131790  131787       7  131796  131793       6  131799  131793       6
  131799  131796       7  131805  131802       6  131808  131802       6  131808
  131805       7  131814  131811       6  131817  131811       6  131817  131814
       7  131823  131820       6  131826  131820       6  131826  131823       7
  131832  131829       6  131835  131829       6  131835  131832       7  131841
  131838       6  131844  131838       6  131844  131841       7  131850  131847
       6  131853  131847       6  131853  131850       7  131859  131856       6
  131862  131856       6  131862  131859       7  131868  131865       6  131871
  131865       6  131871  131868       7  131877  131874       6  131880  131874
       6  131880  131877       7  131886  131883       6  131889  131883       6
  131889  131886       7  131895  131892       6  131898  131892       6  131898
  131895       7  131904  131901       6  131907  131901       6  131907  131904
       7  131913  131910       6  131916  131910       6  131916  131913       7
  131922  131919       6  131925  131919       6  131925  131922       7  131931
  131928       6  131934  131928       6  131934  131931       7  131940  131937
       6  131943  131937       6  131943  131940       7  131949  131946       6
  131952  131946       6  131952  131949       7  131958  131955       6  131961
  131955       6  131961  131958       7  131967  131964       6  131970  131964
       6  131970  131967       7  131976  131973       6  131979  131973       6
  131979  131976       7  131985  131982       6  131988  131982       6  131988
  131985       7  131994  131991       6  131997  131991       6  131997  131994
       7  132003  132000       6  132006  132000       6  132006  132003       7
  132012  132009       6  132015  132009       6  132015  132012       7  132021
  132018       6  132024  132018       6  132024  132021       7  132030  132027
       6  132033  132027       6  132033  132030       7  132039  132036       6
  132042  132036       6  132042  132039       7  132048  132045       6  132051
  132045       6  132051  132048       7  132057  132054       6  132060  132054
       6  132060  132057       7  132066  132063       6  132069  132063       6
  132069  132066       7  132075  132072       6  132078  132072       6  132078
  132075       7  132084  132081       6  132087  132081       6  132087  132084
       7  132093  132090       6  132096  132090       6  132096  132093       7
  132102  132099       6  132105  132099       6  132105  132102       7  132111
  132108       6  132114  132108       6  132114  132111       7  132120  132117
       6  132123  132117       6  132123  132120       7  132129  132126       6
  132132  132126       6  132132  132129       7  132138  132135       6  132141
  132135       6  132141  132138       7  132147  132144       6  132150  132144
       6  132150  132147       7  132156  132153       6  132159  132153       6
  132159  132156       7  132165  132162       6  132168  132162       6  132168
  132165       7  132174  132171       6  132177  132171       6  132177  132174
       7  132183  132180       6  132186  132180       6  132186  132183       7
  132192  132189       6  132195  132189       6  132195  132192       7  132201
  132198       6  132204  132198       6  132204  132201       7  132210  132207
       6  132213  132207       6  132213  132210       7  132219  132216       6
  132222  132216       6  132222  132219       7  132228  132225       6  132231
  132225       6  132231  132228       7  132237  132234       6  132240  132234
       6  132240  132237       7  132246  132243       6  132249  132243       6
  132249  132246       7  132255  132252       6  132258  132252       6  132258
  132255       7  132264  132261       6  132267  132261       6  132267  132264
       7  132273  132270       6  132276  132270       6  132276  132273       7
  132282  132279       6  132285  132279       6  132285  132282       7  132291
  132288       6  132294  132288       6  132294  132291       7  132300  132297
       6  132303  132297       6  132303  132300       7  132309  132306       6
  132312  132306       6  132312  132309       7  132318  132315       6  132321
  132315       6  132321  132318       7  132327  132324       6  132330  132324
       6  132330  132327       7  132336  132333       6  132339  132333       6
  132339  132336       7  132345  132342       6  132348  132342       6  132348
  132345       7  132354  132351       6  132357  132351       6  132357  132354
       7  132363  132360       6  132366  132360       6  132366  132363       7
  132372  132369       6  132375  132369       6  132375  132372       7  132381
  132378       6  132384  132378       6  132384  132381       7  132390  132387
       6  132393  132387       6  132393  132390       7  132399  132396       6
  132402  132396       6  132402  132399       7  132408  132405       6  132411
  132405       6  132411  132408       7  132417  132414       6  132420  132414
       6  132420  132417       7  132426  132423       6  132429  132423       6
  132429  132426       7  132435  132432       6  132438  132432       6  132438
  132435       7  132444  132441       6  132447  132441       6  132447  132444
       7  132453  132450       6  132456  132450       6  132456  132453       7
  132462  132459       6  132465  132459       6  132465  132462       7  132471
  132468       6  132474  132468       6  132474  132471       7  132480  132477
       6  132483  132477       6  132483  132480       7  132489  132486       6
  132492  132486       6  132492  132489       7  132498  132495       6  132501
  132495       6  132501  132498       7  132507  132504       6  132510  132504
       6  132510  132507       7  132516  132513       6  132519  132513       6
  132519  132516       7  132525  132522       6  132528  132522       6  132528
  132525       7  132534  132531       6  132537  132531       6  132537  132534
       7  132543  132540       6  132546  132540       6  132546  132543       7
  132552  132549       6  132555  132549       6  132555  132552       7  132561
  132558       6  132564  132558       6  132564  132561       7  132570  132567
       6  132573  132567       6  132573  132570       7  132579  132576       6
  132582  132576       6  132582  132579       7  132588  132585       6  132591
  132585       6  132591  132588       7  132597  132594       6  132600  132594
       6  132600  132597       7  132606  132603       6  132609  132603       6
  132609  132606       7  132615  132612       6  132618  132612       6  132618
  132615       7  132624  132621       6  132627  132621       6  132627  132624
       7  132633  132630       6  132636  132630       6  132636  132633       7
  132642  132639       6  132645  132639       6  132645  132642       7  132651
  132648       6  132654  132648       6  132654  132651       7  132660  132657
       6  132663  132657       6  132663  132660       7  132669  132666       6
  132672  132666       6  132672  132669       7  132678  132675       6  132681
  132675       6  132681  132678       7  132687  132684       6  132690  132684
       6  132690  132687       7  132696  132693       6  132699  132693       6
  132699  132696       7  132705  132702       6  132708  132702       6  132708
  132705       7  132714  132711       6  132717  132711       6  132717  132714
       7  132723  132720       6  132726  132720       6  132726  132723       7
  132732  132729       6  132735  132729       6  132735  132732       7  132741
  132738       6  132744  132738       6  132744  132741       7  132750  132747
       6  132753  132747       6  132753  132750       7  132759  132756       6
  132762  132756       6  132762  132759       7  132768  132765       6  132771
  132765       6  132771  132768       7  132777  132774       6  132780  132774
       6  132780  132777       7  132786  132783       6  132789  132783       6
  132789  132786       7  132795  132792       6  132798  132792       6  132798
  132795       7  132804  132801       6  132807  132801       6  132807  132804
       7  132813  132810       6  132816  132810       6  132816  132813       7
  132822  132819       6  132825  132819       6  132825  132822       7  132831
  132828       6  132834  132828       6  132834  132831       7  132840  132837
       6  132843  132837       6  132843  132840       7  132849  132846       6
  132852  132846       6  132852  132849       7  132858  132855       6  132861
  132855       6  132861  132858       7  132867  132864       6  132870  132864
       6  132870  132867       7  132876  132873       6  132879  132873       6
  132879  132876       7  132885  132882       6  132888  132882       6  132888
  132885       7  132894  132891       6  132897  132891       6  132897  132894
       7  132903  132900       6  132906  132900       6  132906  132903       7
  132912  132909       6  132915  132909       6  132915  132912       7  132921
  132918       6  132924  132918       6  132924  132921       7  132930  132927
       6  132933  132927       6  132933  132930       7  132939  132936       6
  132942  132936       6  132942  132939       7  132948  132945       6  132951
  132945       6  132951  132948       7  132957  132954       6  132960  132954
       6  132960  132957       7  132966  132963       6  132969  132963       6
  132969  132966       7  132975  132972       6  132978  132972       6  132978
  132975       7  132984  132981       6  132987  132981       6  132987  132984
       7  132993  132990       6  132996  132990       6  132996  132993       7
  133002  132999       6  133005  132999       6  133005  133002       7  133011
  133008       6  133014  133008       6  133014  133011       7  133020  133017
       6  133023  133017       6  133023  133020       7  133029  133026       6
  133032  133026       6  133032  133029       7  133038  133035       6  133041
  133035       6  133041  133038       7  133047  133044       6  133050  133044
       6  133050  133047       7  133056  133053       6  133059  133053       6
  133059  133056       7  133065  133062       6  133068  133062       6  133068
  133065       7  133074  133071       6  133077  133071       6  133077  133074
       7  133083  133080       6  133086  133080       6  133086  133083       7
  133092  133089       6  133095  133089       6  133095  133092       7  133101
  133098       6  133104  133098       6  133104  133101       7  133110  133107
       6  133113  133107       6  133113  133110       7  133119  133116       6
  133122  133116       6  133122  133119       7  133128  133125       6  133131
  133125       6  133131  133128       7  133137  133134       6  133140  133134
       6  133140  133137       7  133146  133143       6  133149  133143       6
  133149  133146       7  133155  133152       6  133158  133152       6  133158
  133155       7  133164  133161       6  133167  133161       6  133167  133164
       7  133173  133170       6  133176  133170       6  133176  133173       7
  133182  133179       6  133185  133179       6  133185  133182       7  133191
  133188       6  133194  133188       6  133194  133191       7  133200  133197
       6  133203  133197       6  133203  133200       7  133209  133206       6
  133212  133206       6  133212  133209       7  133218  133215       6  133221
  133215       6  133221  133218       7  133227  133224       6  133230  133224
       6  133230  133227       7  133236  133233       6  133239  133233       6
  133239  133236       7  133245  133242       6  133248  133242       6  133248
  133245       7  133254  133251       6  133257  133251       6  133257  133254
       7  133263  133260       6  133266  133260       6  133266  133263       7
  133272  133269       6  133275  133269       6  133275  133272       7  133281
  133278       6  133284  133278       6  133284  133281       7  133290  133287
       6  133293  133287       6  133293  133290       7  133299  133296       6
  133302  133296       6  133302  133299       7  133308  133305       6  133311
  133305       6  133311  133308       7  133317  133314       6  133320  133314
       6  133320  133317       7  133326  133323       6  133329  133323       6
  133329  133326       7  133335  133332       6  133338  133332       6  133338
  133335       7  133344  133341       6  133347  133341       6  133347  133344
       7  133353  133350       6  133356  133350       6  133356  133353       7
  133362  133359       6  133365  133359       6  133365  133362       7  133371
  133368       6  133374  133368       6  133374  133371       7  133380  133377
       6  133383  133377       6  133383  133380       7  133389  133386       6
  133392  133386       6  133392  133389       7  133398  133395       6  133401
  133395       6  133401  133398       7  133407  133404       6  133410  133404
       6  133410  133407       7  133416  133413       6  133419  133413       6
  133419  133416       7  133425  133422       6  133428  133422       6  133428
  133425       7  133434  133431       6  133437  133431       6  133437  133434
       7  133443  133440       6  133446  133440       6  133446  133443       7
  133452  133449       6  133455  133449       6  133455  133452       7  133461
  133458       6  133464  133458       6  133464  133461       7  133470  133467
       6  133473  133467       6  133473  133470       7  133479  133476       6
  133482  133476       6  133482  133479       7  133488  133485       6  133491
  133485       6  133491  133488       7  133497  133494       6  133500  133494
       6  133500  133497       7  133506  133503       6  133509  133503       6
  133509  133506       7  133515  133512       6  133518  133512       6  133518
  133515       7  133524  133521       6  133527  133521       6  133527  133524
       7  133533  133530       6  133536  133530       6  133536  133533       7
  133542  133539       6  133545  133539       6  133545  133542       7  133551
  133548       6  133554  133548       6  133554  133551       7  133560  133557
       6  133563  133557       6  133563  133560       7  133569  133566       6
  133572  133566       6  133572  133569       7  133578  133575       6  133581
  133575       6  133581  133578       7  133587  133584       6  133590  133584
       6  133590  133587       7  133596  133593       6  133599  133593       6
  133599  133596       7  133605  133602       6  133608  133602       6  133608
  133605       7  133614  133611       6  133617  133611       6  133617  133614
       7  133623  133620       6  133626  133620       6  133626  133623       7
  133632  133629       6  133635  133629       6  133635  133632       7  133641
  133638       6  133644  133638       6  133644  133641       7  133650  133647
       6  133653  133647       6  133653  133650       7  133659  133656       6
  133662  133656       6  133662  133659       7  133668  133665       6  133671
  133665       6  133671  133668       7  133677  133674       6  133680  133674
       6  133680  133677       7  133686  133683       6  133689  133683       6
  133689  133686       7  133695  133692       6  133698  133692       6  133698
  133695       7  133704  133701       6  133707  133701       6  133707  133704
       7  133713  133710       6  133716  133710       6  133716  133713       7
  133722  133719       6  133725  133719       6  133725  133722       7  133731
  133728       6  133734  133728       6  133734  133731       7  133740  133737
       6  133743  133737       6  133743  133740       7  133749  133746       6
  133752  133746       6  133752  133749       7  133758  133755       6  133761
  133755       6  133761  133758       7  133767  133764       6  133770  133764
       6  133770  133767       7  133776  133773       6  133779  133773       6
  133779  133776       7  133785  133782       6  133788  133782       6  133788
  133785       7  133794  133791       6  133797  133791       6  133797  133794
       7  133803  133800       6  133806  133800       6  133806  133803       7
  133812  133809       6  133815  133809       6  133815  133812       7  133821
  133818       6  133824  133818       6  133824  133821       7  133830  133827
       6  133833  133827       6  133833  133830       7  133839  133836       6
  133842  133836       6  133842  133839       7  133848  133845       6  133851
  133845       6  133851  133848       7  133857  133854       6  133860  133854
       6  133860  133857       7  133866  133863       6  133869  133863       6
  133869  133866       7  133875  133872       6  133878  133872       6  133878
  133875       7  133884  133881       6  133887  133881       6  133887  133884
       7  133893  133890       6  133896  133890       6  133896  133893       7
  133902  133899       6  133905  133899       6  133905  133902       7  133911
  133908       6  133914  133908       6  133914  133911       7  133920  133917
       6  133923  133917       6  133923  133920       7  133929  133926       6
  133932  133926       6  133932  133929       7  133938  133935       6  133941
  133935       6  133941  133938       7  133947  133944       6  133950  133944
       6  133950  133947       7  133956  133953       6  133959  133953       6
  133959  133956       7  133965  133962       6  133968  133962       6  133968
  133965       7  133974  133971       6  133977  133971       6  133977  133974
       7  133983  133980       6  133986  133980       6  133986  133983       7
  133992  133989       6  133995  133989       6  133995  133992       7  134001
  133998       6  134004  133998       6  134004  134001       7  134010  134007
       6  134013  134007       6  134013  134010       7  134019  134016       6
  134022  134016       6  134022  134019       7  134028  134025       6  134031
  134025       6  134031  134028       7  134037  134034       6  134040  134034
       6  134040  134037       7  134046  134043       6  134049  134043       6
  134049  134046       7  134055  134052       6  134058  134052       6  134058
  134055       7  134064  134061       6  134067  134061       6  134067  134064
       7  134073  134070       6  134076  134070       6  134076  134073       7
  134082  134079       6  134085  134079       6  134085  134082       7  134091
  134088       6  134094  134088       6  134094  134091       7  134100  134097
       6  134103  134097       6  134103  134100       7  134109  134106       6
  134112  134106       6  134112  134109       7  134118  134115       6  134121
  134115       6  134121  134118       7  134127  134124       6  134130  134124
       6  134130  134127       7  134136  134133       6  134139  134133       6
  134139  134136       7  134145  134142       6  134148  134142       6  134148
  134145       7  134154  134151       6  134157  134151       6  134157  134154
       7  134163  134160       6  134166  134160       6  134166  134163       7
  134172  134169       6  134175  134169       6  134175  134172       7  134181
  134178       6  134184  134178       6  134184  134181       7  134190  134187
       6  134193  134187       6  134193  134190       7  134199  134196       6
  134202  134196       6  134202  134199       7  134208  134205       6  134211
  134205       6  134211  134208       7  134217  134214       6  134220  134214
       6  134220  134217       7  134226  134223       6  134229  134223       6
  134229  134226       7  134235  134232       6  134238  134232       6  134238
  134235       7  134244  134241       6  134247  134241       6  134247  134244
       7  134253  134250       6  134256  134250       6  134256  134253       7
  134262  134259       6  134265  134259       6  134265  134262       7  134271
  134268       6  134274  134268       6  134274  134271       7  134280  134277
       6  134283  134277       6  134283  134280       7  134289  134286       6
  134292  134286       6  134292  134289       7  134298  134295       6  134301
  134295       6  134301  134298       7  134307  134304       6  134310  134304
       6  134310  134307       7  134316  134313       6  134319  134313       6
  134319  134316       7  134325  134322       6  134328  134322       6  134328
  134325       7  134334  134331       6  134337  134331       6  134337  134334
       7  134343  134340       6  134346  134340       6  134346  134343       7
  134352  134349       6  134355  134349       6  134355  134352       7  134361
  134358       6  134364  134358       6  134364  134361       7  134370  134367
       6  134373  134367       6  134373  134370       7  134379  134376       6
  134382  134376       6  134382  134379       7  134388  134385       6  134391
  134385       6  134391  134388       7  134397  134394       6  134400  134394
       6  134400  134397       7  134406  134403       6  134409  134403       6
  134409  134406       7  134415  134412       6  134418  134412       6  134418
  134415       7  134424  134421       6  134427  134421       6  134427  134424
       7  134433  134430       6  134436  134430       6  134436  134433       7
  134442  134439       6  134445  134439       6  134445  134442       7  134451
  134448       6  134454  134448       6  134454  134451       7  134460  134457
       6  134463  134457       6  134463  134460       7  134469  134466       6
  134472  134466       6  134472  134469       7  134478  134475       6  134481
  134475       6  134481  134478       7  134487  134484       6  134490  134484
       6  134490  134487       7  134496  134493       6  134499  134493       6
  134499  134496       7  134505  134502       6  134508  134502       6  134508
  134505       7  134514  134511       6  134517  134511       6  134517  134514
       7  134523  134520       6  134526  134520       6  134526  134523       7
  134532  134529       6  134535  134529       6  134535  134532       7  134541
  134538       6  134544  134538       6  134544  134541       7  134550  134547
       6  134553  134547       6  134553  134550       7  134559  134556       6
  134562  134556       6  134562  134559       7  134568  134565       6  134571
  134565       6  134571  134568       7  134577  134574       6  134580  134574
       6  134580  134577       7  134586  134583       6  134589  134583       6
  134589  134586       7  134595  134592       6  134598  134592       6  134598
  134595       7  134604  134601       6  134607  134601       6  134607  134604
       7  134613  134610       6  134616  134610       6  134616  134613       7
  134622  134619       6  134625  134619       6  134625  134622       7  134631
  134628       6  134634  134628       6  134634  134631       7  134640  134637
       6  134643  134637       6  134643  134640       7  134649  134646       6
  134652  134646       6  134652  134649       7  134658  134655       6  134661
  134655       6  134661  134658       7  134667  134664       6  134670  134664
       6  134670  134667       7  134676  134673       6  134679  134673       6
  134679  134676       7  134685  134682       6  134688  134682       6  134688
  134685       7  134694  134691       6  134697  134691       6  134697  134694
       7  134703  134700       6  134706  134700       6  134706  134703       7
  134712  134709       6  134715  134709       6  134715  134712       7  134721
  134718       6  134724  134718       6  134724  134721       7  134730  134727
       6  134733  134727       6  134733  134730       7  134739  134736       6
  134742  134736       6  134742  134739       7  134748  134745       6  134751
  134745       6  134751  134748       7  134757  134754       6  134760  134754
       6  134760  134757       7  134766  134763       6  134769  134763       6
  134769  134766       7  134775  134772       6  134778  134772       6  134778
  134775       7  134784  134781       6  134787  134781       6  134787  134784
       7  134793  134790       6  134796  134790       6  134796  134793       7
  134802  134799       6  134805  134799       6  134805  134802       7  134811
  134808       6  134814  134808       6  134814  134811       7  134820  134817
       6  134823  134817       6  134823  134820       7  134829  134826       6
  134832  134826       6  134832  134829       7  134838  134835       6  134841
  134835       6  134841  134838       7  134847  134844       6  134850  134844
       6  134850  134847       7  134856  134853       6  134859  134853       6
  134859  134856       7  134865  134862       6  134868  134862       6  134868
  134865       7  134874  134871       6  134877  134871       6  134877  134874
       7  134883  134880       6  134886  134880       6  134886  134883       7
  134892  134889       6  134895  134889       6  134895  134892       7  134901
  134898       6  134904  134898       6  134904  134901       7  134910  134907
       6  134913  134907       6  134913  134910       7  134919  134916       6
  134922  134916       6  134922  134919       7  134928  134925       6  134931
  134925       6  134931  134928       7  134937  134934       6  134940  134934
       6  134940  134937       7  134946  134943       6  134949  134943       6
  134949  134946       7  134955  134952       6  134958  134952       6  134958
  134955       7  134964  134961       6  134967  134961       6  134967  134964
       7  134973  134970       6  134976  134970       6  134976  134973       7
  134982  134979       6  134985  134979       6  134985  134982       7  134991
  134988       6  134994  134988       6  134994  134991       7  135000  134997
       6  135003  134997       6  135003  135000       7  135009  135006       6
  135012  135006       6  135012  135009       7  135018  135015       6  135021
  135015       6  135021  135018       7  135027  135024       6  135030  135024
       6  135030  135027       7  135036  135033       6  135039  135033       6
  135039  135036       7  135045  135042       6  135048  135042       6  135048
  135045       7  135054  135051       6  135057  135051       6  135057  135054
       7  135063  135060       6  135066  135060       6  135066  135063       7
  135072  135069       6  135075  135069       6  135075  135072       7  135081
  135078       6  135084  135078       6  135084  135081       7  135090  135087
       6  135093  135087       6  135093  135090       7  135099  135096       6
  135102  135096       6  135102  135099       7  135108  135105       6  135111
  135105       6  135111  135108       7  135117  135114       6  135120  135114
       6  135120  135117       7  135126  135123       6  135129  135123       6
  135129  135126       7  135135  135132       6  135138  135132       6  135138
  135135       7  135144  135141       6  135147  135141       6  135147  135144
       7  135153  135150       6  135156  135150       6  135156  135153       7
  135162  135159       6  135165  135159       6  135165  135162       7  135171
  135168       6  135174  135168       6  135174  135171       7  135180  135177
       6  135183  135177       6  135183  135180       7  135189  135186       6
  135192  135186       6  135192  135189       7  135198  135195       6  135201
  135195       6  135201  135198       7  135207  135204       6  135210  135204
       6  135210  135207       7  135216  135213       6  135219  135213       6
  135219  135216       7  135225  135222       6  135228  135222       6  135228
  135225       7  135234  135231       6  135237  135231       6  135237  135234
       7  135243  135240       6  135246  135240       6  135246  135243       7
  135252  135249       6  135255  135249       6  135255  135252       7  135261
  135258       6  135264  135258       6  135264  135261       7  135270  135267
       6  135273  135267       6  135273  135270       7  135279  135276       6
  135282  135276       6  135282  135279       7  135288  135285       6  135291
  135285       6  135291  135288       7  135297  135294       6  135300  135294
       6  135300  135297       7  135306  135303       6  135309  135303       6
  135309  135306       7  135315  135312       6  135318  135312       6  135318
  135315       7  135324  135321       6  135327  135321       6  135327  135324
       7  135333  135330       6  135336  135330       6  135336  135333       7
  135342  135339       6  135345  135339       6  135345  135342       7  135351
  135348       6  135354  135348       6  135354  135351       7  135360  135357
       6  135363  135357       6  135363  135360       7  135369  135366       6
  135372  135366       6  135372  135369       7  135378  135375       6  135381
  135375       6  135381  135378       7  135387  135384       6  135390  135384
       6  135390  135387       7  135396  135393       6  135399  135393       6
  135399  135396       7  135405  135402       6  135408  135402       6  135408
  135405       7  135414  135411       6  135417  135411       6  135417  135414
       7  135423  135420       6  135426  135420       6  135426  135423       7
  135432  135429       6  135435  135429       6  135435  135432       7  135441
  135438       6  135444  135438       6  135444  135441       7  135450  135447
       6  135453  135447       6  135453  135450       7  135459  135456       6
  135462  135456       6  135462  135459       7  135468  135465       6  135471
  135465       6  135471  135468       7  135477  135474       6  135480  135474
       6  135480  135477       7  135486  135483       6  135489  135483       6
  135489  135486       7  135495  135492       6  135498  135492       6  135498
  135495       7  135504  135501       6  135507  135501       6  135507  135504
       7  135513  135510       6  135516  135510       6  135516  135513       7
  135522  135519       6  135525  135519       6  135525  135522       7  135531
  135528       6  135534  135528       6  135534  135531       7  135540  135537
       6  135543  135537       6  135543  135540       7  135549  135546       6
  135552  135546       6  135552  135549       7  135558  135555       6  135561
  135555       6  135561  135558       7  135567  135564       6  135570  135564
       6  135570  135567       7  135576  135573       6  135579  135573       6
  135579  135576       7  135585  135582       6  135588  135582       6  135588
  135585       7  135594  135591       6  135597  135591       6  135597  135594
       7  135603  135600       6  135606  135600       6  135606  135603       7
  135612  135609       6  135615  135609       6  135615  135612       7  135621
  135618       6  135624  135618       6  135624  135621       7  135630  135627
       6  135633  135627       6  135633  135630       7  135639  135636       6
  135642  135636       6  135642  135639       7  135648  135645       6  135651
  135645       6  135651  135648       7  135657  135654       6  135660  135654
       6  135660  135657       7  135666  135663       6  135669  135663       6
  135669  135666       7  135675  135672       6  135678  135672       6  135678
  135675       7  135684  135681       6  135687  135681       6  135687  135684
       7  135693  135690       6  135696  135690       6  135696  135693       7
  135702  135699       6  135705  135699       6  135705  135702       7  135711
  135708       6  135714  135708       6  135714  135711       7  135720  135717
       6  135723  135717       6  135723  135720       7  135729  135726       6
  135732  135726       6  135732  135729       7  135738  135735       6  135741
  135735       6  135741  135738       7  135747  135744       6  135750  135744
       6  135750  135747       7  135756  135753       6  135759  135753       6
  135759  135756       7  135765  135762       6  135768  135762       6  135768
  135765       7  135774  135771       6  135777  135771       6  135777  135774
       7  135783  135780       6  135786  135780       6  135786  135783       7
  135792  135789       6  135795  135789       6  135795  135792       7  135801
  135798       6  135804  135798       6  135804  135801       7  135810  135807
       6  135813  135807       6  135813  135810       7  135819  135816       6
  135822  135816       6  135822  135819       7  135828  135825       6  135831
  135825       6  135831  135828       7  135837  135834       6  135840  135834
       6  135840  135837       7  135846  135843       6  135849  135843       6
  135849  135846       7  135855  135852       6  135858  135852       6  135858
  135855       7  135864  135861       6  135867  135861       6  135867  135864
       7  135873  135870       6  135876  135870       6  135876  135873       7
  135882  135879       6  135885  135879       6  135885  135882       7  135891
  135888       6  135894  135888       6  135894  135891       7  135900  135897
       6  135903  135897       6  135903  135900       7  135909  135906       6
  135912  135906       6  135912  135909       7  135918  135915       6  135921
  135915       6  135921  135918       7  135927  135924       6  135930  135924
       6  135930  135927       7  135936  135933       6  135939  135933       6
  135939  135936       7  135945  135942       6  135948  135942       6  135948
  135945       7  135954  135951       6  135957  135951       6  135957  135954
       7  135963  135960       6  135966  135960       6  135966  135963       7
  135972  135969       6  135975  135969       6  135975  135972       7  135981
  135978       6  135984  135978       6  135984  135981       7  135990  135987
       6  135993  135987       6  135993  135990       7  135999  135996       6
  136002  135996       6  136002  135999       7  136008  136005       6  136011
  136005       6  136011  136008       7  136017  136014       6  136020  136014
       6  136020  136017       7  136026  136023       6  136029  136023       6
  136029  136026       7  136035  136032       6  136038  136032       6  136038
  136035       7  136044  136041       6  136047  136041       6  136047  136044
       7  136053  136050       6  136056  136050       6  136056  136053       7
  136062  136059       6  136065  136059       6  136065  136062       7  136071
  136068       6  136074  136068       6  136074  136071       7  136080  136077
       6  136083  136077       6  136083  136080       7  136089  136086       6
  136092  136086       6  136092  136089       7  136098  136095       6  136101
  136095       6  136101  136098       7  136107  136104       6  136110  136104
       6  136110  136107       7  136116  136113       6  136119  136113       6
  136119  136116       7  136125  136122       6  136128  136122       6  136128
  136125       7  136134  136131       6  136137  136131       6  136137  136134
       7  136143  136140       6  136146  136140       6  136146  136143       7
  136152  136149       6  136155  136149       6  136155  136152       7  136161
  136158       6  136164  136158       6  136164  136161       7  136170  136167
       6  136173  136167       6  136173  136170       7  136179  136176       6
  136182  136176       6  136182  136179       7  136188  136185       6  136191
  136185       6  136191  136188       7  136197  136194       6  136200  136194
       6  136200  136197       7  136206  136203       6  136209  136203       6
  136209  136206       7  136215  136212       6  136218  136212       6  136218
  136215       7  136224  136221       6  136227  136221       6  136227  136224
       7  136233  136230       6  136236  136230       6  136236  136233       7
  136242  136239       6  136245  136239       6  136245  136242       7  136251
  136248       6  136254  136248       6  136254  136251       7  136260  136257
       6  136263  136257       6  136263  136260       7  136269  136266       6
  136272  136266       6  136272  136269       7  136278  136275       6  136281
  136275       6  136281  136278       7  136287  136284       6  136290  136284
       6  136290  136287       7  136296  136293       6  136299  136293       6
  136299  136296       7  136305  136302       6  136308  136302       6  136308
  136305       7  136314  136311       6  136317  136311       6  136317  136314
       7  136323  136320       6  136326  136320       6  136326  136323       7
  136332  136329       6  136335  136329       6  136335  136332       7  136341
  136338       6  136344  136338       6  136344  136341       7  136350  136347
       6  136353  136347       6  136353  136350       7  136359  136356       6
  136362  136356       6  136362  136359       7  136368  136365       6  136371
  136365       6  136371  136368       7  136377  136374       6  136380  136374
       6  136380  136377       7  136386  136383       6  136389  136383       6
  136389  136386       7  136395  136392       6  136398  136392       6  136398
  136395       7  136404  136401       6  136407  136401       6  136407  136404
       7  136413  136410       6  136416  136410       6  136416  136413       7
  136422  136419       6  136425  136419       6  136425  136422       7  136431
  136428       6  136434  136428       6  136434  136431       7  136440  136437
       6  136443  136437       6  136443  136440       7  136449  136446       6
  136452  136446       6  136452  136449       7  136458  136455       6  136461
  136455       6  136461  136458       7  136467  136464       6  136470  136464
       6  136470  136467       7  136476  136473       6  136479  136473       6
  136479  136476       7  136485  136482       6  136488  136482       6  136488
  136485       7  136494  136491       6  136497  136491       6  136497  136494
       7  136503  136500       6  136506  136500       6  136506  136503       7
  136512  136509       6  136515  136509       6  136515  136512       7  136521
  136518       6  136524  136518       6  136524  136521       7  136530  136527
       6  136533  136527       6  136533  136530       7  136539  136536       6
  136542  136536       6  136542  136539       7  136548  136545       6  136551
  136545       6  136551  136548       7  136557  136554       6  136560  136554
       6  136560  136557       7  136566  136563       6  136569  136563       6
  136569  136566       7  136575  136572       6  136578  136572       6  136578
  136575       7  136584  136581       6  136587  136581       6  136587  136584
       7  136593  136590       6  136596  136590       6  136596  136593       7
  136602  136599       6  136605  136599       6  136605  136602       7  136611
  136608       6  136614  136608       6  136614  136611       7  136620  136617
       6  136623  136617       6  136623  136620       7  136629  136626       6
  136632  136626       6  136632  136629       7  136638  136635       6  136641
  136635       6  136641  136638       7  136647  136644       6  136650  136644
       6  136650  136647       7  136656  136653       6  136659  136653       6
  136659  136656       7  136665  136662       6  136668  136662       6  136668
  136665       7  136674  136671       6  136677  136671       6  136677  136674
       7  136683  136680       6  136686  136680       6  136686  136683       7
  136692  136689       6  136695  136689       6  136695  136692       7  136701
  136698       6  136704  136698       6  136704  136701       7  136710  136707
       6  136713  136707       6  136713  136710       7  136719  136716       6
  136722  136716       6  136722  136719       7  136728  136725       6  136731
  136725       6  136731  136728       7  136737  136734       6  136740  136734
       6  136740  136737       7  136746  136743       6  136749  136743       6
  136749  136746       7  136755  136752       6  136758  136752       6  136758
  136755       7  136764  136761       6  136767  136761       6  136767  136764
       7  136773  136770       6  136776  136770       6  136776  136773       7
  136782  136779       6  136785  136779       6  136785  136782       7  136791
  136788       6  136794  136788       6  136794  136791       7  136800  136797
       6  136803  136797       6  136803  136800       7  136809  136806       6
  136812  136806       6  136812  136809       7  136818  136815       6  136821
  136815       6  136821  136818       7  136827  136824       6  136830  136824
       6  136830  136827       7  136836  136833       6  136839  136833       6
  136839  136836       7  136845  136842       6  136848  136842       6  136848
  136845       7  136854  136851       6  136857  136851       6  136857  136854
       7  136863  136860       6  136866  136860       6  136866  136863       7
  136872  136869       6  136875  136869       6  136875  136872       7  136881
  136878       6  136884  136878       6  136884  136881       7  136890  136887
       6  136893  136887       6  136893  136890       7  136899  136896       6
  136902  136896       6  136902  136899       7  136908  136905       6  136911
  136905       6  136911  136908       7  136917  136914       6  136920  136914
       6  136920  136917       7  136926  136923       6  136929  136923       6
  136929  136926       7  136935  136932       6  136938  136932       6  136938
  136935       7  136944  136941       6  136947  136941       6  136947  136944
       7  136953  136950       6  136956  136950       6  136956  136953       7
  136962  136959       6  136965  136959       6  136965  136962       7  136971
  136968       6  136974  136968       6  136974  136971       7  136980  136977
       6  136983  136977       6  136983  136980       7  136989  136986       6
  136992  136986       6  136992  136989       7  136998  136995       6  137001
  136995       6  137001  136998       7  137007  137004       6  137010  137004
       6  137010  137007       7  137016  137013       6  137019  137013       6
  137019  137016       7  137025  137022       6  137028  137022       6  137028
  137025       7  137034  137031       6  137037  137031       6  137037  137034
       7  137043  137040       6  137046  137040       6  137046  137043       7
  137052  137049       6  137055  137049       6  137055  137052       7  137061
  137058       6  137064  137058       6  137064  137061       7  137070  137067
       6  137073  137067       6  137073  137070       7  137079  137076       6
  137082  137076       6  137082  137079       7  137088  137085       6  137091
  137085       6  137091  137088       7  137097  137094       6  137100  137094
       6  137100  137097       7  137106  137103       6  137109  137103       6
  137109  137106       7  137115  137112       6  137118  137112       6  137118
  137115       7  137124  137121       6  137127  137121       6  137127  137124
       7  137133  137130       6  137136  137130       6  137136  137133       7
  137142  137139       6  137145  137139       6  137145  137142       7  137151
  137148       6  137154  137148       6  137154  137151       7  137160  137157
       6  137163  137157       6  137163  137160       7  137169  137166       6
  137172  137166       6  137172  137169       7  137178  137175       6  137181
  137175       6  137181  137178       7  137187  137184       6  137190  137184
       6  137190  137187       7  137196  137193       6  137199  137193       6
  137199  137196       7  137205  137202       6  137208  137202       6  137208
  137205       7  137214  137211       6  137217  137211       6  137217  137214
       7  137223  137220       6  137226  137220       6  137226  137223       7
  137232  137229       6  137235  137229       6  137235  137232       7  137241
  137238       6  137244  137238       6  137244  137241       7  137250  137247
       6  137253  137247       6  137253  137250       7  137259  137256       6
  137262  137256       6  137262  137259       7  137268  137265       6  137271
  137265       6  137271  137268       7  137277  137274       6  137280  137274
       6  137280  137277       7  137286  137283       6  137289  137283       6
  137289  137286       7  137295  137292       6  137298  137292       6  137298
  137295       7  137304  137301       6  137307  137301       6  137307  137304
       7  137313  137310       6  137316  137310       6  137316  137313       7
  137322  137319       6  137325  137319       6  137325  137322       7  137331
  137328       6  137334  137328       6  137334  137331       7  137340  137337
       6  137343  137337       6  137343  137340       7  137349  137346       6
  137352  137346       6  137352  137349       7  137358  137355       6  137361
  137355       6  137361  137358       7  137367  137364       6  137370  137364
       6  137370  137367       7  137376  137373       6  137379  137373       6
  137379  137376       7  137385  137382       6  137388  137382       6  137388
  137385       7  137394  137391       6  137397  137391       6  137397  137394
       7  137403  137400       6  137406  137400       6  137406  137403       7
  137412  137409       6  137415  137409       6  137415  137412       7  137421
  137418       6  137424  137418       6  137424  137421       7  137430  137427
       6  137433  137427       6  137433  137430       7  137439  137436       6
  137442  137436       6  137442  137439       7  137448  137445       6  137451
  137445       6  137451  137448       7  137457  137454       6  137460  137454
       6  137460  137457       7  137466  137463       6  137469  137463       6
  137469  137466       7  137475  137472       6  137478  137472       6  137478
  137475       7  137484  137481       6  137487  137481       6  137487  137484
       7  137493  137490       6  137496  137490       6  137496  137493       7
  137502  137499       6  137505  137499       6  137505  137502       7  137511
  137508       6  137514  137508       6  137514  137511       7  137520  137517
       6  137523  137517       6  137523  137520       7  137529  137526       6
  137532  137526       6  137532  137529       7  137538  137535       6  137541
  137535       6  137541  137538       7  137547  137544       6  137550  137544
       6  137550  137547       7  137556  137553       6  137559  137553       6
  137559  137556       7  137565  137562       6  137568  137562       6  137568
  137565       7  137574  137571       6  137577  137571       6  137577  137574
       7  137583  137580       6  137586  137580       6  137586  137583       7
  137592  137589       6  137595  137589       6  137595  137592       7  137601
  137598       6  137604  137598       6  137604  137601       7  137610  137607
       6  137613  137607       6  137613  137610       7  137619  137616       6
  137622  137616       6  137622  137619       7  137628  137625       6  137631
  137625       6  137631  137628       7  137637  137634       6  137640  137634
       6  137640  137637       7  137646  137643       6  137649  137643       6
  137649  137646       7  137655  137652       6  137658  137652       6  137658
  137655       7  137664  137661       6  137667  137661       6  137667  137664
       7  137673  137670       6  137676  137670       6  137676  137673       7
  137682  137679       6  137685  137679       6  137685  137682       7  137691
  137688       6  137694  137688       6  137694  137691       7  137700  137697
       6  137703  137697       6  137703  137700       7  137709  137706       6
  137712  137706       6  137712  137709       7  137718  137715       6  137721
  137715       6  137721  137718       7  137727  137724       6  137730  137724
       6  137730  137727       7  137736  137733       6  137739  137733       6
  137739  137736       7  137745  137742       6  137748  137742       6  137748
  137745       7  137754  137751       6  137757  137751       6  137757  137754
       7  137763  137760       6  137766  137760       6  137766  137763       7
  137772  137769       6  137775  137769       6  137775  137772       7  137781
  137778       6  137784  137778       6  137784  137781       7  137790  137787
       6  137793  137787       6  137793  137790       7  137799  137796       6
  137802  137796       6  137802  137799       7  137808  137805       6  137811
  137805       6  137811  137808       7  137817  137814       6  137820  137814
       6  137820  137817       7  137826  137823       6  137829  137823       6
  137829  137826       7  137835  137832       6  137838  137832       6  137838
  137835       7  137844  137841       6  137847  137841       6  137847  137844
       7  137853  137850       6  137856  137850       6  137856  137853       7
  137862  137859       6  137865  137859       6  137865  137862       7  137871
  137868       6  137874  137868       6  137874  137871       7  137880  137877
       6  137883  137877       6  137883  137880       7  137889  137886       6
  137892  137886       6  137892  137889       7  137898  137895       6  137901
  137895       6  137901  137898       7  137907  137904       6  137910  137904
       6  137910  137907       7  137916  137913       6  137919  137913       6
  137919  137916       7  137925  137922       6  137928  137922       6  137928
  137925       7  137934  137931       6  137937  137931       6  137937  137934
       7  137943  137940       6  137946  137940       6  137946  137943       7
  137952  137949       6  137955  137949       6  137955  137952       7  137961
  137958       6  137964  137958       6  137964  137961       7  137970  137967
       6  137973  137967       6  137973  137970       7  137979  137976       6
  137982  137976       6  137982  137979       7  137988  137985       6  137991
  137985       6  137991  137988       7  137997  137994       6  138000  137994
       6  138000  137997       7  138006  138003       6  138009  138003       6
  138009  138006       7  138015  138012       6  138018  138012       6  138018
  138015       7  138024  138021       6  138027  138021       6  138027  138024
       7  138033  138030       6  138036  138030       6  138036  138033       7
  138042  138039       6  138045  138039       6  138045  138042       7  138051
  138048       6  138054  138048       6  138054  138051       7  138060  138057
       6  138063  138057       6  138063  138060       7  138069  138066       6
  138072  138066       6  138072  138069       7  138078  138075       6  138081
  138075       6  138081  138078       7  138087  138084       6  138090  138084
       6  138090  138087       7  138096  138093       6  138099  138093       6
  138099  138096       7  138105  138102       6  138108  138102       6  138108
  138105       7  138114  138111       6  138117  138111       6  138117  138114
       7  138123  138120       6  138126  138120       6  138126  138123       7
  138132  138129       6  138135  138129       6  138135  138132       7  138141
  138138       6  138144  138138       6  138144  138141       7  138150  138147
       6  138153  138147       6  138153  138150       7  138159  138156       6
  138162  138156       6  138162  138159       7  138168  138165       6  138171
  138165       6  138171  138168       7  138177  138174       6  138180  138174
       6  138180  138177       7  138186  138183       6  138189  138183       6
  138189  138186       7  138195  138192       6  138198  138192       6  138198
  138195       7  138204  138201       6  138207  138201       6  138207  138204
       7  138213  138210       6  138216  138210       6  138216  138213       7
  138222  138219       6  138225  138219       6  138225  138222       7  138231
  138228       6  138234  138228       6  138234  138231       7  138240  138237
       6  138243  138237       6  138243  138240       7  138249  138246       6
  138252  138246       6  138252  138249       7  138258  138255       6  138261
  138255       6  138261  138258       7  138267  138264       6  138270  138264
       6  138270  138267       7  138276  138273       6  138279  138273       6
  138279  138276       7  138285  138282       6  138288  138282       6  138288
  138285       7  138294  138291       6  138297  138291       6  138297  138294
       7  138303  138300       6  138306  138300       6  138306  138303       7
  138312  138309       6  138315  138309       6  138315  138312       7  138321
  138318       6  138324  138318       6  138324  138321       7  138330  138327
       6  138333  138327       6  138333  138330       7  138339  138336       6
  138342  138336       6  138342  138339       7  138348  138345       6  138351
  138345       6  138351  138348       7  138357  138354       6  138360  138354
       6  138360  138357       7  138366  138363       6  138369  138363       6
  138369  138366       7  138375  138372       6  138378  138372       6  138378
  138375       7  138384  138381       6  138387  138381       6  138387  138384
       7  138393  138390       6  138396  138390       6  138396  138393       7
  138402  138399       6  138405  138399       6  138405  138402       7  138411
  138408       6  138414  138408       6  138414  138411       7  138420  138417
       6  138423  138417       6  138423  138420       7  138429  138426       6
  138432  138426       6  138432  138429       7  138438  138435       6  138441
  138435       6  138441  138438       7  138447  138444       6  138450  138444
       6  138450  138447       7  138456  138453       6  138459  138453       6
  138459  138456       7  138465  138462       6  138468  138462       6  138468
  138465       7  138474  138471       6  138477  138471       6  138477  138474
       7  138483  138480       6  138486  138480       6  138486  138483       7
  138492  138489       6  138495  138489       6  138495  138492       7  138501
  138498       6  138504  138498       6  138504  138501       7  138510  138507
       6  138513  138507       6  138513  138510       7  138519  138516       6
  138522  138516       6  138522  138519       7  138528  138525       6  138531
  138525       6  138531  138528       7  138537  138534       6  138540  138534
       6  138540  138537       7  138546  138543       6  138549  138543       6
  138549  138546       7  138555  138552       6  138558  138552       6  138558
  138555       7  138564  138561       6  138567  138561       6  138567  138564
       7  138573  138570       6  138576  138570       6  138576  138573       7
  138582  138579       6  138585  138579       6  138585  138582       7  138591
  138588       6  138594  138588       6  138594  138591       7  138600  138597
       6  138603  138597       6  138603  138600       7  138609  138606       6
  138612  138606       6  138612  138609       7  138618  138615       6  138621
  138615       6  138621  138618       7  138627  138624       6  138630  138624
       6  138630  138627       7  138636  138633       6  138639  138633       6
  138639  138636       7  138645  138642       6  138648  138642       6  138648
  138645       7  138654  138651       6  138657  138651       6  138657  138654
       7  138663  138660       6  138666  138660       6  138666  138663       7
  138672  138669       6  138675  138669       6  138675  138672       7  138681
  138678       6  138684  138678       6  138684  138681       7  138690  138687
       6  138693  138687       6  138693  138690       7  138699  138696       6
  138702  138696       6  138702  138699       7  138708  138705       6  138711
  138705       6  138711  138708       7  138717  138714       6  138720  138714
       6  138720  138717       7  138726  138723       6  138729  138723       6
  138729  138726       7  138735  138732       6  138738  138732       6  138738
  138735       7  138744  138741       6  138747  138741       6  138747  138744
       7  138753  138750       6  138756  138750       6  138756  138753       7
  138762  138759       6  138765  138759       6  138765  138762       7  138771
  138768       6  138774  138768       6  138774  138771       7  138780  138777
       6  138783  138777       6  138783  138780       7  138789  138786       6
  138792  138786       6  138792  138789       7  138798  138795       6  138801
  138795       6  138801  138798       7  138807  138804       6  138810  138804
       6  138810  138807       7  138816  138813       6  138819  138813       6
  138819  138816       7  138825  138822       6  138828  138822       6  138828
  138825       7  138834  138831       6  138837  138831       6  138837  138834
       7  138843  138840       6  138846  138840       6  138846  138843       7
  138852  138849       6  138855  138849       6  138855  138852       7  138861
  138858       6  138864  138858       6  138864  138861       7  138870  138867
       6  138873  138867       6  138873  138870       7  138879  138876       6
  138882  138876       6  138882  138879       7  138888  138885       6  138891
  138885       6  138891  138888       7  138897  138894       6  138900  138894
       6  138900  138897       7  138906  138903       6  138909  138903       6
  138909  138906       7  138915  138912       6  138918  138912       6  138918
  138915       7  138924  138921       6  138927  138921       6  138927  138924
       7  138933  138930       6  138936  138930       6  138936  138933       7
  138942  138939       6  138945  138939       6  138945  138942       7  138951
  138948       6  138954  138948       6  138954  138951       7  138960  138957
       6  138963  138957       6  138963  138960       7  138969  138966       6
  138972  138966       6  138972  138969       7  138978  138975       6  138981
  138975       6  138981  138978       7  138987  138984       6  138990  138984
       6  138990  138987       7  138996  138993       6  138999  138993       6
  138999  138996       7  139005  139002       6  139008  139002       6  139008
  139005       7  139014  139011       6  139017  139011       6  139017  139014
       7  139023  139020       6  139026  139020       6  139026  139023       7
  139032  139029       6  139035  139029       6  139035  139032       7  139041
  139038       6  139044  139038       6  139044  139041       7  139050  139047
       6  139053  139047       6  139053  139050       7  139059  139056       6
  139062  139056       6  139062  139059       7  139068  139065       6  139071
  139065       6  139071  139068       7  139077  139074       6  139080  139074
       6  139080  139077       7  139086  139083       6  139089  139083       6
  139089  139086       7  139095  139092       6  139098  139092       6  139098
  139095       7  139104  139101       6  139107  139101       6  139107  139104
       7  139113  139110       6  139116  139110       6  139116  139113       7
  139122  139119       6  139125  139119       6  139125  139122       7  139131
  139128       6  139134  139128       6  139134  139131       7  139140  139137
       6  139143  139137       6  139143  139140       7  139149  139146       6
  139152  139146       6  139152  139149       7  139158  139155       6  139161
  139155       6  139161  139158       7  139167  139164       6  139170  139164
       6  139170  139167       7  139176  139173       6  139179  139173       6
  139179  139176       7  139185  139182       6  139188  139182       6  139188
  139185       7  139194  139191       6  139197  139191       6  139197  139194
       7  139203  139200       6  139206  139200       6  139206  139203       7
  139212  139209       6  139215  139209       6  139215  139212       7  139221
  139218       6  139224  139218       6  139224  139221       7  139230  139227
       6  139233  139227       6  139233  139230       7  139239  139236       6
  139242  139236       6  139242  139239       7  139248  139245       6  139251
  139245       6  139251  139248       7  139257  139254       6  139260  139254
       6  139260  139257       7  139266  139263       6  139269  139263       6
  139269  139266       7  139275  139272       6  139278  139272       6  139278
  139275       7  139284  139281       6  139287  139281       6  139287  139284
       7  139293  139290       6  139296  139290       6  139296  139293       7
  139302  139299       6  139305  139299       6  139305  139302       7  139311
  139308       6  139314  139308       6  139314  139311       7  139320  139317
       6  139323  139317       6  139323  139320       7  139329  139326       6
  139332  139326       6  139332  139329       7  139338  139335       6  139341
  139335       6  139341  139338       7  139347  139344       6  139350  139344
       6  139350  139347       7  139356  139353       6  139359  139353       6
  139359  139356       7  139365  139362       6  139368  139362       6  139368
  139365       7  139374  139371       6  139377  139371       6  139377  139374
       7  139383  139380       6  139386  139380       6  139386  139383       7
  139392  139389       6  139395  139389       6  139395  139392       7  139401
  139398       6  139404  139398       6  139404  139401       7  139410  139407
       6  139413  139407       6  139413  139410       7  139419  139416       6
  139422  139416       6  139422  139419       7  139428  139425       6  139431
  139425       6  139431  139428       7  139437  139434       6  139440  139434
       6  139440  139437       7  139446  139443       6  139449  139443       6
  139449  139446       7  139455  139452       6  139458  139452       6  139458
  139455       7  139464  139461       6  139467  139461       6  139467  139464
       7  139473  139470       6  139476  139470       6  139476  139473       7
  139482  139479       6  139485  139479       6  139485  139482       7  139491
  139488       6  139494  139488       6  139494  139491       7  139500  139497
       6  139503  139497       6  139503  139500       7  139509  139506       6
  139512  139506       6  139512  139509       7  139518  139515       6  139521
  139515       6  139521  139518       7  139527  139524       6  139530  139524
       6  139530  139527       7  139536  139533       6  139539  139533       6
  139539  139536       7  139545  139542       6  139548  139542       6  139548
  139545       7  139554  139551       6  139557  139551       6  139557  139554
       7  139563  139560       6  139566  139560       6  139566  139563       7
  139572  139569       6  139575  139569       6  139575  139572       7  139581
  139578       6  139584  139578       6  139584  139581       7  139590  139587
       6  139593  139587       6  139593  139590       7  139599  139596       6
  139602  139596       6  139602  139599       7  139608  139605       6  139611
  139605       6  139611  139608       7  139617  139614       6  139620  139614
       6  139620  139617       7  139626  139623       6  139629  139623       6
  139629  139626       7  139635  139632       6  139638  139632       6  139638
  139635       7  139644  139641       6  139647  139641       6  139647  139644
       7  139653  139650       6  139656  139650       6  139656  139653       7
  139662  139659       6  139665  139659       6  139665  139662       7  139671
  139668       6  139674  139668       6  139674  139671       7  139680  139677
       6  139683  139677       6  139683  139680       7  139689  139686       6
  139692  139686       6  139692  139689       7  139698  139695       6  139701
  139695       6  139701  139698       7  139707  139704       6  139710  139704
       6  139710  139707       7  139716  139713       6  139719  139713       6
  139719  139716       7  139725  139722       6  139728  139722       6  139728
  139725       7  139734  139731       6  139737  139731       6  139737  139734
       7  139743  139740       6  139746  139740       6  139746  139743       7
  139752  139749       6  139755  139749       6  139755  139752       7  139761
  139758       6  139764  139758       6  139764  139761       7  139770  139767
       6  139773  139767       6  139773  139770       7  139779  139776       6
  139782  139776       6  139782  139779       7  139788  139785       6  139791
  139785       6  139791  139788       7  139797  139794       6  139800  139794
       6  139800  139797       7  139806  139803       6  139809  139803       6
  139809  139806       7  139815  139812       6  139818  139812       6  139818
  139815       7  139824  139821       6  139827  139821       6  139827  139824
       7  139833  139830       6  139836  139830       6  139836  139833       7
  139842  139839       6  139845  139839       6  139845  139842       7  139851
  139848       6  139854  139848       6  139854  139851       7  139860  139857
       6  139863  139857       6  139863  139860       7  139869  139866       6
  139872  139866       6  139872  139869       7  139878  139875       6  139881
  139875       6  139881  139878       7  139887  139884       6  139890  139884
       6  139890  139887       7  139896  139893       6  139899  139893       6
  139899  139896       7  139905  139902       6  139908  139902       6  139908
  139905       7  139914  139911       6  139917  139911       6  139917  139914
       7  139923  139920       6  139926  139920       6  139926  139923       7
  139932  139929       6  139935  139929       6  139935  139932       7  139941
  139938       6  139944  139938       6  139944  139941       7  139950  139947
       6  139953  139947       6  139953  139950       7  139959  139956       6
  139962  139956       6  139962  139959       7  139968  139965       6  139971
  139965       6  139971  139968       7  139977  139974       6  139980  139974
       6  139980  139977       7  139986  139983       6  139989  139983       6
  139989  139986       7  139995  139992       6  139998  139992       6  139998
  139995       7  140004  140001       6  140007  140001       6  140007  140004
       7  140013  140010       6  140016  140010       6  140016  140013       7
  140022  140019       6  140025  140019       6  140025  140022       7  140031
  140028       6  140034  140028       6  140034  140031       7  140040  140037
       6  140043  140037       6  140043  140040       7  140049  140046       6
  140052  140046       6  140052  140049       7  140058  140055       6  140061
  140055       6  140061  140058       7  140067  140064       6  140070  140064
       6  140070  140067       7  140076  140073       6  140079  140073       6
  140079  140076       7  140085  140082       6  140088  140082       6  140088
  140085       7  140094  140091       6  140097  140091       6  140097  140094
       7  140103  140100       6  140106  140100       6  140106  140103       7
  140112  140109       6  140115  140109       6  140115  140112       7  140121
  140118       6  140124  140118       6  140124  140121       7  140130  140127
       6  140133  140127       6  140133  140130       7  140139  140136       6
  140142  140136       6  140142  140139       7  140148  140145       6  140151
  140145       6  140151  140148       7  140157  140154       6  140160  140154
       6  140160  140157       7  140166  140163       6  140169  140163       6
  140169  140166       7  140175  140172       6  140178  140172       6  140178
  140175       7  140184  140181       6  140187  140181       6  140187  140184
       7  140193  140190       6  140196  140190       6  140196  140193       7
  140202  140199       6  140205  140199       6  140205  140202       7  140211
  140208       6  140214  140208       6  140214  140211       7  140220  140217
       6  140223  140217       6  140223  140220       7  140229  140226       6
  140232  140226       6  140232  140229       7  140238  140235       6  140241
  140235       6  140241  140238       7  140247  140244       6  140250  140244
       6  140250  140247       7  140256  140253       6  140259  140253       6
  140259  140256       7  140265  140262       6  140268  140262       6  140268
  140265       7  140274  140271       6  140277  140271       6  140277  140274
       7  140283  140280       6  140286  140280       6  140286  140283       7
  140292  140289       6  140295  140289       6  140295  140292       7  140301
  140298       6  140304  140298       6  140304  140301       7  140310  140307
       6  140313  140307       6  140313  140310       7  140319  140316       6
  140322  140316       6  140322  140319       7  140328  140325       6  140331
  140325       6  140331  140328       7  140337  140334       6  140340  140334
       6  140340  140337       7  140346  140343       6  140349  140343       6
  140349  140346       7  140355  140352       6  140358  140352       6  140358
  140355       7  140364  140361       6  140367  140361       6  140367  140364
       7  140373  140370       6  140376  140370       6  140376  140373       7
  140382  140379       6  140385  140379       6  140385  140382       7  140391
  140388       6  140394  140388       6  140394  140391       7  140400  140397
       6  140403  140397       6  140403  140400       7  140409  140406       6
  140412  140406       6  140412  140409       7  140418  140415       6  140421
  140415       6  140421  140418       7  140427  140424       6  140430  140424
       6  140430  140427       7  140436  140433       6  140439  140433       6
  140439  140436       7  140445  140442       6  140448  140442       6  140448
  140445       7  140454  140451       6  140457  140451       6  140457  140454
       7  140463  140460       6  140466  140460       6  140466  140463       7
  140472  140469       6  140475  140469       6  140475  140472       7  140481
  140478       6  140484  140478       6  140484  140481       7  140490  140487
       6  140493  140487       6  140493  140490       7  140499  140496       6
  140502  140496       6  140502  140499       7  140508  140505       6  140511
  140505       6  140511  140508       7  140517  140514       6  140520  140514
       6  140520  140517       7  140526  140523       6  140529  140523       6
  140529  140526       7  140535  140532       6  140538  140532       6  140538
  140535       7  140544  140541       6  140547  140541       6  140547  140544
       7  140553  140550       6  140556  140550       6  140556  140553       7
  140562  140559       6  140565  140559       6  140565  140562       7  140571
  140568       6  140574  140568       6  140574  140571       7  140580  140577
       6  140583  140577       6  140583  140580       7  140589  140586       6
  140592  140586       6  140592  140589       7  140598  140595       6  140601
  140595       6  140601  140598       7  140607  140604       6  140610  140604
       6  140610  140607       7  140616  140613       6  140619  140613       6
  140619  140616       7  140625  140622       6  140628  140622       6  140628
  140625       7  140634  140631       6  140637  140631       6  140637  140634
       7  140643  140640       6  140646  140640       6  140646  140643       7
  140652  140649       6  140655  140649       6  140655  140652       7  140661
  140658       6  140664  140658       6  140664  140661       7  140670  140667
       6  140673  140667       6  140673  140670       7  140679  140676       6
  140682  140676       6  140682  140679       7  140688  140685       6  140691
  140685       6  140691  140688       7  140697  140694       6  140700  140694
       6  140700  140697       7  140706  140703       6  140709  140703       6
  140709  140706       7  140715  140712       6  140718  140712       6  140718
  140715       7  140724  140721       6  140727  140721       6  140727  140724
       7  140733  140730       6  140736  140730       6  140736  140733       7
  140742  140739       6  140745  140739       6  140745  140742       7  140751
  140748       6  140754  140748       6  140754  140751       7  140760  140757
       6  140763  140757       6  140763  140760       7  140769  140766       6
  140772  140766       6  140772  140769       7  140778  140775       6  140781
  140775       6  140781  140778       7  140787  140784       6  140790  140784
       6  140790  140787       7  140796  140793       6  140799  140793       6
  140799  140796       7  140805  140802       6  140808  140802       6  140808
  140805       7  140814  140811       6  140817  140811       6  140817  140814
       7  140823  140820       6  140826  140820       6  140826  140823       7
  140832  140829       6  140835  140829       6  140835  140832       7  140841
  140838       6  140844  140838       6  140844  140841       7  140850  140847
       6  140853  140847       6  140853  140850       7  140859  140856       6
  140862  140856       6  140862  140859       7  140868  140865       6  140871
  140865       6  140871  140868       7  140877  140874       6  140880  140874
       6  140880  140877       7  140886  140883       6  140889  140883       6
  140889  140886       7  140895  140892       6  140898  140892       6  140898
  140895       7  140904  140901       6  140907  140901       6  140907  140904
       7  140913  140910       6  140916  140910       6  140916  140913       7
  140922  140919       6  140925  140919       6  140925  140922       7  140931
  140928       6  140934  140928       6  140934  140931       7  140940  140937
       6  140943  140937       6  140943  140940       7  140949  140946       6
  140952  140946       6  140952  140949       7  140958  140955       6  140961
  140955       6  140961  140958       7  140967  140964       6  140970  140964
       6  140970  140967       7  140976  140973       6  140979  140973       6
  140979  140976       7  140985  140982       6  140988  140982       6  140988
  140985       7  140994  140991       6  140997  140991       6  140997  140994
       7  141003  141000       6  141006  141000       6  141006  141003       7
  141012  141009       6  141015  141009       6  141015  141012       7  141021
  141018       6  141024  141018       6  141024  141021       7  141030  141027
       6  141033  141027       6  141033  141030       7  141039  141036       6
  141042  141036       6  141042  141039       7  141048  141045       6  141051
  141045       6  141051  141048       7  141057  141054       6  141060  141054
       6  141060  141057       7  141066  141063       6  141069  141063       6
  141069  141066       7  141075  141072       6  141078  141072       6  141078
  141075       7  141084  141081       6  141087  141081       6  141087  141084
       7  141093  141090       6  141096  141090       6  141096  141093       7
  141102  141099       6  141105  141099       6  141105  141102       7  141111
  141108       6  141114  141108       6  141114  141111       7  141120  141117
       6  141123  141117       6  141123  141120       7  141129  141126       6
  141132  141126       6  141132  141129       7  141138  141135       6  141141
  141135       6  141141  141138       7  141147  141144       6  141150  141144
       6  141150  141147       7  141156  141153       6  141159  141153       6
  141159  141156       7  141165  141162       6  141168  141162       6  141168
  141165       7  141174  141171       6  141177  141171       6  141177  141174
       7  141183  141180       6  141186  141180       6  141186  141183       7
  141192  141189       6  141195  141189       6  141195  141192       7  141201
  141198       6  141204  141198       6  141204  141201       7  141210  141207
       6  141213  141207       6  141213  141210       7  141219  141216       6
  141222  141216       6  141222  141219       7  141228  141225       6  141231
  141225       6  141231  141228       7  141237  141234       6  141240  141234
       6  141240  141237       7  141246  141243       6  141249  141243       6
  141249  141246       7  141255  141252       6  141258  141252       6  141258
  141255       7  141264  141261       6  141267  141261       6  141267  141264
       7  141273  141270       6  141276  141270       6  141276  141273       7
  141282  141279       6  141285  141279       6  141285  141282       7  141291
  141288       6  141294  141288       6  141294  141291       7  141300  141297
       6  141303  141297       6  141303  141300       7  141309  141306       6
  141312  141306       6  141312  141309       7  141318  141315       6  141321
  141315       6  141321  141318       7  141327  141324       6  141330  141324
       6  141330  141327       7  141336  141333       6  141339  141333       6
  141339  141336       7  141345  141342       6  141348  141342       6  141348
  141345       7  141354  141351       6  141357  141351       6  141357  141354
       7  141363  141360       6  141366  141360       6  141366  141363       7
  141372  141369       6  141375  141369       6  141375  141372       7  141381
  141378       6  141384  141378       6  141384  141381       7  141390  141387
       6  141393  141387       6  141393  141390       7  141399  141396       6
  141402  141396       6  141402  141399       7  141408  141405       6  141411
  141405       6  141411  141408       7  141417  141414       6  141420  141414
       6  141420  141417       7  141426  141423       6  141429  141423       6
  141429  141426       7  141435  141432       6  141438  141432       6  141438
  141435       7  141444  141441       6  141447  141441       6  141447  141444
       7  141453  141450       6  141456  141450       6  141456  141453       7
  141462  141459       6  141465  141459       6  141465  141462       7  141471
  141468       6  141474  141468       6  141474  141471       7  141480  141477
       6  141483  141477       6  141483  141480       7  141489  141486       6
  141492  141486       6  141492  141489       7  141498  141495       6  141501
  141495       6  141501  141498       7  141507  141504       6  141510  141504
       6  141510  141507       7  141516  141513       6  141519  141513       6
  141519  141516       7  141525  141522       6  141528  141522       6  141528
  141525       7  141534  141531       6  141537  141531       6  141537  141534
       7  141543  141540       6  141546  141540       6  141546  141543       7
  141552  141549       6  141555  141549       6  141555  141552       7  141561
  141558       6  141564  141558       6  141564  141561       7  141570  141567
       6  141573  141567       6  141573  141570       7  141579  141576       6
  141582  141576       6  141582  141579       7  141588  141585       6  141591
  141585       6  141591  141588       7  141597  141594       6  141600  141594
       6  141600  141597       7  141606  141603       6  141609  141603       6
  141609  141606       7  141615  141612       6  141618  141612       6  141618
  141615       7  141624  141621       6  141627  141621       6  141627  141624
       7  141633  141630       6  141636  141630       6  141636  141633       7
  141642  141639       6  141645  141639       6  141645  141642       7  141651
  141648       6  141654  141648       6  141654  141651       7  141660  141657
       6  141663  141657       6  141663  141660       7  141669  141666       6
  141672  141666       6  141672  141669       7  141678  141675       6  141681
  141675       6  141681  141678       7  141687  141684       6  141690  141684
       6  141690  141687       7  141696  141693       6  141699  141693       6
  141699  141696       7  141705  141702       6  141708  141702       6  141708
  141705       7  141714  141711       6  141717  141711       6  141717  141714
       7  141723  141720       6  141726  141720       6  141726  141723       7
  141732  141729       6  141735  141729       6  141735  141732       7  141741
  141738       6  141744  141738       6  141744  141741       7  141750  141747
       6  141753  141747       6  141753  141750       7  141759  141756       6
  141762  141756       6  141762  141759       7  141768  141765       6  141771
  141765       6  141771  141768       7  141777  141774       6  141780  141774
       6  141780  141777       7  141786  141783       6  141789  141783       6
  141789  141786       7  141795  141792       6  141798  141792       6  141798
  141795       7  141804  141801       6  141807  141801       6  141807  141804
       7  141813  141810       6  141816  141810       6  141816  141813       7
  141822  141819       6  141825  141819       6  141825  141822       7  141831
  141828       6  141834  141828       6  141834  141831       7  141840  141837
       6  141843  141837       6  141843  141840       7  141849  141846       6
  141852  141846       6  141852  141849       7  141858  141855       6  141861
  141855       6  141861  141858       7  141867  141864       6  141870  141864
       6  141870  141867       7  141876  141873       6  141879  141873       6
  141879  141876       7  141885  141882       6  141888  141882       6  141888
  141885       7  141894  141891       6  141897  141891       6  141897  141894
       7  141903  141900       6  141906  141900       6  141906  141903       7
  141912  141909       6  141915  141909       6  141915  141912       7  141921
  141918       6  141924  141918       6  141924  141921       7  141930  141927
       6  141933  141927       6  141933  141930       7  141939  141936       6
  141942  141936       6  141942  141939       7  141948  141945       6  141951
  141945       6  141951  141948       7  141957  141954       6  141960  141954
       6  141960  141957       7  141966  141963       6  141969  141963       6
  141969  141966       7  141975  141972       6  141978  141972       6  141978
  141975       7  141984  141981       6  141987  141981       6  141987  141984
       7  141993  141990       6  141996  141990       6  141996  141993       7
  142002  141999       6  142005  141999       6  142005  142002       7  142011
  142008       6  142014  142008       6  142014  142011       7  142020  142017
       6  142023  142017       6  142023  142020       7  142029  142026       6
  142032  142026       6  142032  142029       7  142038  142035       6  142041
  142035       6  142041  142038       7  142047  142044       6  142050  142044
       6  142050  142047       7  142056  142053       6  142059  142053       6
  142059  142056       7  142065  142062       6  142068  142062       6  142068
  142065       7  142074  142071       6  142077  142071       6  142077  142074
       7  142083  142080       6  142086  142080       6  142086  142083       7
  142092  142089       6  142095  142089       6  142095  142092       7  142101
  142098       6  142104  142098       6  142104  142101       7  142110  142107
       6  142113  142107       6  142113  142110       7  142119  142116       6
  142122  142116       6  142122  142119       7  142128  142125       6  142131
  142125       6  142131  142128       7  142137  142134       6  142140  142134
       6  142140  142137       7  142146  142143       6  142149  142143       6
  142149  142146       7  142155  142152       6  142158  142152       6  142158
  142155       7  142164  142161       6  142167  142161       6  142167  142164
       7  142173  142170       6  142176  142170       6  142176  142173       7
  142182  142179       6  142185  142179       6  142185  142182       7  142191
  142188       6  142194  142188       6  142194  142191       7  142200  142197
       6  142203  142197       6  142203  142200       7  142209  142206       6
  142212  142206       6  142212  142209       7  142218  142215       6  142221
  142215       6  142221  142218       7  142227  142224       6  142230  142224
       6  142230  142227       7  142236  142233       6  142239  142233       6
  142239  142236       7  142245  142242       6  142248  142242       6  142248
  142245       7  142254  142251       6  142257  142251       6  142257  142254
       7  142263  142260       6  142266  142260       6  142266  142263       7
  142272  142269       6  142275  142269       6  142275  142272       7  142281
  142278       6  142284  142278       6  142284  142281       7  142290  142287
       6  142293  142287       6  142293  142290       7  142299  142296       6
  142302  142296       6  142302  142299       7  142308  142305       6  142311
  142305       6  142311  142308       7  142317  142314       6  142320  142314
       6  142320  142317       7  142326  142323       6  142329  142323       6
  142329  142326       7  142335  142332       6  142338  142332       6  142338
  142335       7  142344  142341       6  142347  142341       6  142347  142344
       7  142353  142350       6  142356  142350       6  142356  142353       7
  142362  142359       6  142365  142359       6  142365  142362       7  142371
  142368       6  142374  142368       6  142374  142371       7  142380  142377
       6  142383  142377       6  142383  142380       7  142389  142386       6
  142392  142386       6  142392  142389       7  142398  142395       6  142401
  142395       6  142401  142398       7  142407  142404       6  142410  142404
       6  142410  142407       7  142416  142413       6  142419  142413       6
  142419  142416       7  142425  142422       6  142428  142422       6  142428
  142425       7  142434  142431       6  142437  142431       6  142437  142434
       7  142443  142440       6  142446  142440       6  142446  142443       7
  142452  142449       6  142455  142449       6  142455  142452       7  142461
  142458       6  142464  142458       6  142464  142461       7  142470  142467
       6  142473  142467       6  142473  142470       7  142479  142476       6
  142482  142476       6  142482  142479       7  142488  142485       6  142491
  142485       6  142491  142488       7  142497  142494       6  142500  142494
       6  142500  142497       7  142506  142503       6  142509  142503       6
  142509  142506       7  142515  142512       6  142518  142512       6  142518
  142515       7  142524  142521       6  142527  142521       6  142527  142524
       7  142533  142530       6  142536  142530       6  142536  142533       7
  142542  142539       6  142545  142539       6  142545  142542       7  142551
  142548       6  142554  142548       6  142554  142551       7  142560  142557
       6  142563  142557       6  142563  142560       7  142569  142566       6
  142572  142566       6  142572  142569       7  142578  142575       6  142581
  142575       6  142581  142578       7  142587  142584       6  142590  142584
       6  142590  142587       7  142596  142593       6  142599  142593       6
  142599  142596       7  142605  142602       6  142608  142602       6  142608
  142605       7  142614  142611       6  142617  142611       6  142617  142614
       7  142623  142620       6  142626  142620       6  142626  142623       7
  142632  142629       6  142635  142629       6  142635  142632       7  142641
  142638       6  142644  142638       6  142644  142641       7  142650  142647
       6  142653  142647       6  142653  142650       7  142659  142656       6
  142662  142656       6  142662  142659       7  142668  142665       6  142671
  142665       6  142671  142668       7  142677  142674       6  142680  142674
       6  142680  142677       7  142686  142683       6  142689  142683       6
  142689  142686       7  142695  142692       6  142698  142692       6  142698
  142695       7  142704  142701       6  142707  142701       6  142707  142704
       7  142713  142710       6  142716  142710       6  142716  142713       7
  142722  142719       6  142725  142719       6  142725  142722       7  142731
  142728       6  142734  142728       6  142734  142731       7  142740  142737
       6  142743  142737       6  142743  142740       7  142749  142746       6
  142752  142746       6  142752  142749       7  142758  142755       6  142761
  142755       6  142761  142758       7  142767  142764       6  142770  142764
       6  142770  142767       7  142776  142773       6  142779  142773       6
  142779  142776       7  142785  142782       6  142788  142782       6  142788
  142785       7  142794  142791       6  142797  142791       6  142797  142794
       7  142803  142800       6  142806  142800       6  142806  142803       7
  142812  142809       6  142815  142809       6  142815  142812       7  142821
  142818       6  142824  142818       6  142824  142821       7  142830  142827
       6  142833  142827       6  142833  142830       7  142839  142836       6
  142842  142836       6  142842  142839       7  142848  142845       6  142851
  142845       6  142851  142848       7  142857  142854       6  142860  142854
       6  142860  142857       7  142866  142863       6  142869  142863       6
  142869  142866       7  142875  142872       6  142878  142872       6  142878
  142875       7  142884  142881       6  142887  142881       6  142887  142884
       7  142893  142890       6  142896  142890       6  142896  142893       7
  142902  142899       6  142905  142899       6  142905  142902       7  142911
  142908       6  142914  142908       6  142914  142911       7  142920  142917
       6  142923  142917       6  142923  142920       7  142929  142926       6
  142932  142926       6  142932  142929       7  142938  142935       6  142941
  142935       6  142941  142938       7  142947  142944       6  142950  142944
       6  142950  142947       7  142956  142953       6  142959  142953       6
  142959  142956       7  142965  142962       6  142968  142962       6  142968
  142965       7  142974  142971       6  142977  142971       6  142977  142974
       7  142983  142980       6  142986  142980       6  142986  142983       7
  142992  142989       6  142995  142989       6  142995  142992       7  143001
  142998       6  143004  142998       6  143004  143001       7  143010  143007
       6  143013  143007       6  143013  143010       7  143019  143016       6
  143022  143016       6  143022  143019       7  143028  143025       6  143031
  143025       6  143031  143028       7  143037  143034       6  143040  143034
       6  143040  143037       7  143046  143043       6  143049  143043       6
  143049  143046       7  143055  143052       6  143058  143052       6  143058
  143055       7  143064  143061       6  143067  143061       6  143067  143064
       7  143073  143070       6  143076  143070       6  143076  143073       7
  143082  143079       6  143085  143079       6  143085  143082       7  143091
  143088       6  143094  143088       6  143094  143091       7  143100  143097
       6  143103  143097       6  143103  143100       7  143109  143106       6
  143112  143106       6  143112  143109       7  143118  143115       6  143121
  143115       6  143121  143118       7  143127  143124       6  143130  143124
       6  143130  143127       7  143136  143133       6  143139  143133       6
  143139  143136       7  143145  143142       6  143148  143142       6  143148
  143145       7  143154  143151       6  143157  143151       6  143157  143154
       7  143163  143160       6  143166  143160       6  143166  143163       7
  143172  143169       6  143175  143169       6  143175  143172       7  143181
  143178       6  143184  143178       6  143184  143181       7  143190  143187
       6  143193  143187       6  143193  143190       7  143199  143196       6
  143202  143196       6  143202  143199       7  143208  143205       6  143211
  143205       6  143211  143208       7  143217  143214       6  143220  143214
       6  143220  143217       7  143226  143223       6  143229  143223       6
  143229  143226       7  143235  143232       6  143238  143232       6  143238
  143235       7  143244  143241       6  143247  143241       6  143247  143244
       7  143253  143250       6  143256  143250       6  143256  143253       7
  143262  143259       6  143265  143259       6  143265  143262       7  143271
  143268       6  143274  143268       6  143274  143271       7  143280  143277
       6  143283  143277       6  143283  143280       7  143289  143286       6
  143292  143286       6  143292  143289       7  143298  143295       6  143301
  143295       6  143301  143298       7  143307  143304       6  143310  143304
       6  143310  143307       7  143316  143313       6  143319  143313       6
  143319  143316       7  143325  143322       6  143328  143322       6  143328
  143325       7  143334  143331       6  143337  143331       6  143337  143334
       7  143343  143340       6  143346  143340       6  143346  143343       7
  143352  143349       6  143355  143349       6  143355  143352       7  143361
  143358       6  143364  143358       6  143364  143361       7  143370  143367
       6  143373  143367       6  143373  143370       7  143379  143376       6
  143382  143376       6  143382  143379       7  143388  143385       6  143391
  143385       6  143391  143388       7  143397  143394       6  143400  143394
       6  143400  143397       7  143406  143403       6  143409  143403       6
  143409  143406       7  143415  143412       6  143418  143412       6  143418
  143415       7  143424  143421       6  143427  143421       6  143427  143424
       7  143433  143430       6  143436  143430       6  143436  143433       7
  143442  143439       6  143445  143439       6  143445  143442       7  143451
  143448       6  143454  143448       6  143454  143451       7  143460  143457
       6  143463  143457       6  143463  143460       7  143469  143466       6
  143472  143466       6  143472  143469       7  143478  143475       6  143481
  143475       6  143481  143478       7  143487  143484       6  143490  143484
       6  143490  143487       7  143496  143493       6  143499  143493       6
  143499  143496       7  143505  143502       6  143508  143502       6  143508
  143505       7  143514  143511       6  143517  143511       6  143517  143514
       7  143523  143520       6  143526  143520       6  143526  143523       7
  143532  143529       6  143535  143529       6  143535  143532       7  143541
  143538       6  143544  143538       6  143544  143541       7  143550  143547
       6  143553  143547       6  143553  143550       7  143559  143556       6
  143562  143556       6  143562  143559       7  143568  143565       6  143571
  143565       6  143571  143568       7  143577  143574       6  143580  143574
       6  143580  143577       7  143586  143583       6  143589  143583       6
  143589  143586       7  143595  143592       6  143598  143592       6  143598
  143595       7  143604  143601       6  143607  143601       6  143607  143604
       7  143613  143610       6  143616  143610       6  143616  143613       7
  143622  143619       6  143625  143619       6  143625  143622       7  143631
  143628       6  143634  143628       6  143634  143631       7  143640  143637
       6  143643  143637       6  143643  143640       7  143649  143646       6
  143652  143646       6  143652  143649       7  143658  143655       6  143661
  143655       6  143661  143658       7  143667  143664       6  143670  143664
       6  143670  143667       7  143676  143673       6  143679  143673       6
  143679  143676       7  143685  143682       6  143688  143682       6  143688
  143685       7  143694  143691       6  143697  143691       6  143697  143694
       7  143703  143700       6  143706  143700       6  143706  143703       7
  143712  143709       6  143715  143709       6  143715  143712       7  143721
  143718       6  143724  143718       6  143724  143721       7  143730  143727
       6  143733  143727       6  143733  143730       7  143739  143736       6
  143742  143736       6  143742  143739       7  143748  143745       6  143751
  143745       6  143751  143748       7  143757  143754       6  143760  143754
       6  143760  143757       7  143766  143763       6  143769  143763       6
  143769  143766       7  143775  143772       6  143778  143772       6  143778
  143775       7  143784  143781       6  143787  143781       6  143787  143784
       7  143793  143790       6  143796  143790       6  143796  143793       7
  143802  143799       6  143805  143799       6  143805  143802       7  143811
  143808       6  143814  143808       6  143814  143811       7  143820  143817
       6  143823  143817       6  143823  143820       7  143829  143826       6
  143832  143826       6  143832  143829       7  143838  143835       6  143841
  143835       6  143841  143838       7  143847  143844       6  143850  143844
       6  143850  143847       7  143856  143853       6  143859  143853       6
  143859  143856       7  143865  143862       6  143868  143862       6  143868
  143865       7  143874  143871       6  143877  143871       6  143877  143874
       7  143883  143880       6  143886  143880       6  143886  143883       7
  143892  143889       6  143895  143889       6  143895  143892       7  143901
  143898       6  143904  143898       6  143904  143901       7  143910  143907
       6  143913  143907       6  143913  143910       7  143919  143916       6
  143922  143916       6  143922  143919       7  143928  143925       6  143931
  143925       6  143931  143928       7  143937  143934       6  143940  143934
       6  143940  143937       7  143946  143943       6  143949  143943       6
  143949  143946       7  143955  143952       6  143958  143952       6  143958
  143955       7  143964  143961       6  143967  143961       6  143967  143964
       7  143973  143970       6  143976  143970       6  143976  143973       7
  143982  143979       6  143985  143979       6  143985  143982       7  143991
  143988       6  143994  143988       6  143994  143991       7  144000  143997
       6  144003  143997       6  144003  144000       7  144009  144006       6
  144012  144006       6  144012  144009       7  144018  144015       6  144021
  144015       6  144021  144018       7  144027  144024       6  144030  144024
       6  144030  144027       7  144036  144033       6  144039  144033       6
  144039  144036       7  144045  144042       6  144048  144042       6  144048
  144045       7  144054  144051       6  144057  144051       6  144057  144054
       7  144063  144060       6  144066  144060       6  144066  144063       7
  144072  144069       6  144075  144069       6  144075  144072       7  144081
  144078       6  144084  144078       6  144084  144081       7  144090  144087
       6  144093  144087       6  144093  144090       7  144099  144096       6
  144102  144096       6  144102  144099       7  144108  144105       6  144111
  144105       6  144111  144108       7  144117  144114       6  144120  144114
       6  144120  144117       7  144126  144123       6  144129  144123       6
  144129  144126       7  144135  144132       6  144138  144132       6  144138
  144135       7  144144  144141       6  144147  144141       6  144147  144144
       7  144153  144150       6  144156  144150       6  144156  144153       7
  144162  144159       6  144165  144159       6  144165  144162       7  144171
  144168       6  144174  144168       6  144174  144171       7  144180  144177
       6  144183  144177       6  144183  144180       7  144189  144186       6
  144192  144186       6  144192  144189       7  144198  144195       6  144201
  144195       6  144201  144198       7  144207  144204       6  144210  144204
       6  144210  144207       7  144216  144213       6  144219  144213       6
  144219  144216       7  144225  144222       6  144228  144222       6  144228
  144225       7  144234  144231       6  144237  144231       6  144237  144234
       7  144243  144240       6  144246  144240       6  144246  144243       7
  144252  144249       6  144255  144249       6  144255  144252       7  144261
  144258       6  144264  144258       6  144264  144261       7  144270  144267
       6  144273  144267       6  144273  144270       7  144279  144276       6
  144282  144276       6  144282  144279       7  144288  144285       6  144291
  144285       6  144291  144288       7  144297  144294       6  144300  144294
       6  144300  144297       7  144306  144303       6  144309  144303       6
  144309  144306       7  144315  144312       6  144318  144312       6  144318
  144315       7  144324  144321       6  144327  144321       6  144327  144324
       7  144333  144330       6  144336  144330       6  144336  144333       7
  144342  144339       6  144345  144339       6  144345  144342       7  144351
  144348       6  144354  144348       6  144354  144351       7  144360  144357
       6  144363  144357       6  144363  144360       7  144369  144366       6
  144372  144366       6  144372  144369       7  144378  144375       6  144381
  144375       6  144381  144378       7  144387  144384       6  144390  144384
       6  144390  144387       7  144396  144393       6  144399  144393       6
  144399  144396       7  144405  144402       6  144408  144402       6  144408
  144405       7  144414  144411       6  144417  144411       6  144417  144414
       7  144423  144420       6  144426  144420       6  144426  144423       7
  144432  144429       6  144435  144429       6  144435  144432       7  144441
  144438       6  144444  144438       6  144444  144441       7  144450  144447
       6  144453  144447       6  144453  144450       7  144459  144456       6
  144462  144456       6  144462  144459       7  144468  144465       6  144471
  144465       6  144471  144468       7  144477  144474       6  144480  144474
       6  144480  144477       7  144486  144483       6  144489  144483       6
  144489  144486       7  144495  144492       6  144498  144492       6  144498
  144495       7  144504  144501       6  144507  144501       6  144507  144504
       7  144513  144510       6  144516  144510       6  144516  144513       7
  144522  144519       6  144525  144519       6  144525  144522       7  144531
  144528       6  144534  144528       6  144534  144531       7  144540  144537
       6  144543  144537       6  144543  144540       7  144549  144546       6
  144552  144546       6  144552  144549       7  144558  144555       6  144561
  144555       6  144561  144558       7  144567  144564       6  144570  144564
       6  144570  144567       7  144576  144573       6  144579  144573       6
  144579  144576       7  144585  144582       6  144588  144582       6  144588
  144585       7  144594  144591       6  144597  144591       6  144597  144594
       7  144603  144600       6  144606  144600       6  144606  144603       7
  144612  144609       6  144615  144609       6  144615  144612       7  144621
  144618       6  144624  144618       6  144624  144621       7  144630  144627
       6  144633  144627       6  144633  144630       7  144639  144636       6
  144642  144636       6  144642  144639       7  144648  144645       6  144651
  144645       6  144651  144648       7  144657  144654       6  144660  144654
       6  144660  144657       7  144666  144663       6  144669  144663       6
  144669  144666       7  144675  144672       6  144678  144672       6  144678
  144675       7  144684  144681       6  144687  144681       6  144687  144684
       7  144693  144690       6  144696  144690       6  144696  144693       7
  144702  144699       6  144705  144699       6  144705  144702       7  144711
  144708       6  144714  144708       6  144714  144711       7  144720  144717
       6  144723  144717       6  144723  144720       7  144729  144726       6
  144732  144726       6  144732  144729       7  144738  144735       6  144741
  144735       6  144741  144738       7  144747  144744       6  144750  144744
       6  144750  144747       7  144756  144753       6  144759  144753       6
  144759  144756       7  144765  144762       6  144768  144762       6  144768
  144765       7  144774  144771       6  144777  144771       6  144777  144774
       7  144783  144780       6  144786  144780       6  144786  144783       7
  144792  144789       6  144795  144789       6  144795  144792       7  144801
  144798       6  144804  144798       6  144804  144801       7  144810  144807
       6  144813  144807       6  144813  144810       7  144819  144816       6
  144822  144816       6  144822  144819       7  144828  144825       6  144831
  144825       6  144831  144828       7  144837  144834       6  144840  144834
       6  144840  144837       7  144846  144843       6  144849  144843       6
  144849  144846       7  144855  144852       6  144858  144852       6  144858
  144855       7  144864  144861       6  144867  144861       6  144867  144864
       7  144873  144870       6  144876  144870       6  144876  144873       7
  144882  144879       6  144885  144879       6  144885  144882       7  144891
  144888       6  144894  144888       6  144894  144891       7  144900  144897
       6  144903  144897       6  144903  144900       7  144909  144906       6
  144912  144906       6  144912  144909       7  144918  144915       6  144921
  144915       6  144921  144918       7  144927  144924       6  144930  144924
       6  144930  144927       7  144936  144933       6  144939  144933       6
  144939  144936       7  144945  144942       6  144948  144942       6  144948
  144945       7  144954  144951       6  144957  144951       6  144957  144954
       7  144963  144960       6  144966  144960       6  144966  144963       7
  144972  144969       6  144975  144969       6  144975  144972       7  144981
  144978       6  144984  144978       6  144984  144981       7  144990  144987
       6  144993  144987       6  144993  144990       7  144999  144996       6
  145002  144996       6  145002  144999       7  145008  145005       6  145011
  145005       6  145011  145008       7  145017  145014       6  145020  145014
       6  145020  145017       7  145026  145023       6  145029  145023       6
  145029  145026       7  145035  145032       6  145038  145032       6  145038
  145035       7  145044  145041       6  145047  145041       6  145047  145044
       7  145053  145050       6  145056  145050       6  145056  145053       7
  145062  145059       6  145065  145059       6  145065  145062       7  145071
  145068       6  145074  145068       6  145074  145071       7  145080  145077
       6  145083  145077       6  145083  145080       7  145089  145086       6
  145092  145086       6  145092  145089       7  145098  145095       6  145101
  145095       6  145101  145098       7  145107  145104       6  145110  145104
       6  145110  145107       7  145116  145113       6  145119  145113       6
  145119  145116       7  145125  145122       6  145128  145122       6  145128
  145125       7  145134  145131       6  145137  145131       6  145137  145134
       7  145143  145140       6  145146  145140       6  145146  145143       7
  145152  145149       6  145155  145149       6  145155  145152       7  145161
  145158       6  145164  145158       6  145164  145161       7  145170  145167
       6  145173  145167       6  145173  145170       7  145179  145176       6
  145182  145176       6  145182  145179       7  145188  145185       6  145191
  145185       6  145191  145188       7  145197  145194       6  145200  145194
       6  145200  145197       7  145206  145203       6  145209  145203       6
  145209  145206       7  145215  145212       6  145218  145212       6  145218
  145215       7  145224  145221       6  145227  145221       6  145227  145224
       7  145233  145230       6  145236  145230       6  145236  145233       7
  145242  145239       6  145245  145239       6  145245  145242       7  145251
  145248       6  145254  145248       6  145254  145251       7  145260  145257
       6  145263  145257       6  145263  145260       7  145269  145266       6
  145272  145266       6  145272  145269       7  145278  145275       6  145281
  145275       6  145281  145278       7  145287  145284       6  145290  145284
       6  145290  145287       7  145296  145293       6  145299  145293       6
  145299  145296       7  145305  145302       6  145308  145302       6  145308
  145305       7  145314  145311       6  145317  145311       6  145317  145314
       7  145323  145320       6  145326  145320       6  145326  145323       7
  145332  145329       6  145335  145329       6  145335  145332       7  145341
  145338       6  145344  145338       6  145344  145341       7  145350  145347
       6  145353  145347       6  145353  145350       7  145359  145356       6
  145362  145356       6  145362  145359       7  145368  145365       6  145371
  145365       6  145371  145368       7  145377  145374       6  145380  145374
       6  145380  145377       7  145386  145383       6  145389  145383       6
  145389  145386       7  145395  145392       6  145398  145392       6  145398
  145395       7  145404  145401       6  145407  145401       6  145407  145404
       7  145413  145410       6  145416  145410       6  145416  145413       7
  145422  145419       6  145425  145419       6  145425  145422       7  145431
  145428       6  145434  145428       6  145434  145431       7  145440  145437
       6  145443  145437       6  145443  145440       7  145449  145446       6
  145452  145446       6  145452  145449       7  145458  145455       6  145461
  145455       6  145461  145458       7  145467  145464       6  145470  145464
       6  145470  145467       7  145476  145473       6  145479  145473       6
  145479  145476       7  145485  145482       6  145488  145482       6  145488
  145485       7  145494  145491       6  145497  145491       6  145497  145494
       7  145503  145500       6  145506  145500       6  145506  145503       7
  145512  145509       6  145515  145509       6  145515  145512       7  145521
  145518       6  145524  145518       6  145524  145521       7  145530  145527
       6  145533  145527       6  145533  145530       7  145539  145536       6
  145542  145536       6  145542  145539       7  145548  145545       6  145551
  145545       6  145551  145548       7  145557  145554       6  145560  145554
       6  145560  145557       7  145566  145563       6  145569  145563       6
  145569  145566       7  145575  145572       6  145578  145572       6  145578
  145575       7  145584  145581       6  145587  145581       6  145587  145584
       7  145593  145590       6  145596  145590       6  145596  145593       7
  145602  145599       6  145605  145599       6  145605  145602       7  145611
  145608       6  145614  145608       6  145614  145611       7  145620  145617
       6  145623  145617       6  145623  145620       7  145629  145626       6
  145632  145626       6  145632  145629       7  145638  145635       6  145641
  145635       6  145641  145638       7  145647  145644       6  145650  145644
       6  145650  145647       7  145656  145653       6  145659  145653       6
  145659  145656       7  145665  145662       6  145668  145662       6  145668
  145665       7  145674  145671       6  145677  145671       6  145677  145674
       7  145683  145680       6  145686  145680       6  145686  145683       7
  145692  145689       6  145695  145689       6  145695  145692       7  145701
  145698       6  145704  145698       6  145704  145701       7  145710  145707
       6  145713  145707       6  145713  145710       7  145719  145716       6
  145722  145716       6  145722  145719       7  145728  145725       6  145731
  145725       6  145731  145728       7  145737  145734       6  145740  145734
       6  145740  145737       7  145746  145743       6  145749  145743       6
  145749  145746       7  145755  145752       6  145758  145752       6  145758
  145755       7  145764  145761       6  145767  145761       6  145767  145764
       7  145773  145770       6  145776  145770       6  145776  145773       7
  145782  145779       6  145785  145779       6  145785  145782       7  145791
  145788       6  145794  145788       6  145794  145791       7  145800  145797
       6  145803  145797       6  145803  145800       7  145809  145806       6
  145812  145806       6  145812  145809       7  145818  145815       6  145821
  145815       6  145821  145818       7  145827  145824       6  145830  145824
       6  145830  145827       7  145836  145833       6  145839  145833       6
  145839  145836       7  145845  145842       6  145848  145842       6  145848
  145845       7  145854  145851       6  145857  145851       6  145857  145854
       7  145863  145860       6  145866  145860       6  145866  145863       7
  145872  145869       6  145875  145869       6  145875  145872       7  145881
  145878       6  145884  145878       6  145884  145881       7  145890  145887
       6  145893  145887       6  145893  145890       7  145899  145896       6
  145902  145896       6  145902  145899       7  145908  145905       6  145911
  145905       6  145911  145908       7  145917  145914       6  145920  145914
       6  145920  145917       7  145926  145923       6  145929  145923       6
  145929  145926       7  145935  145932       6  145938  145932       6  145938
  145935       7  145944  145941       6  145947  145941       6  145947  145944
       7  145953  145950       6  145956  145950       6  145956  145953       7
  145962  145959       6  145965  145959       6  145965  145962       7  145971
  145968       6  145974  145968       6  145974  145971       7  145980  145977
       6  145983  145977       6  145983  145980       7  145989  145986       6
  145992  145986       6  145992  145989       7  145998  145995       6  146001
  145995       6  146001  145998       7  146007  146004       6  146010  146004
       6  146010  146007       7  146016  146013       6  146019  146013       6
  146019  146016       7  146025  146022       6  146028  146022       6  146028
  146025       7  146034  146031       6  146037  146031       6  146037  146034
       7  146043  146040       6  146046  146040       6  146046  146043       7
  146052  146049       6  146055  146049       6  146055  146052       7  146061
  146058       6  146064  146058       6  146064  146061       7  146070  146067
       6  146073  146067       6  146073  146070       7  146079  146076       6
  146082  146076       6  146082  146079       7  146088  146085       6  146091
  146085       6  146091  146088       7  146097  146094       6  146100  146094
       6  146100  146097       7  146106  146103       6  146109  146103       6
  146109  146106       7  146115  146112       6  146118  146112       6  146118
  146115       7  146124  146121       6  146127  146121       6  146127  146124
       7  146133  146130       6  146136  146130       6  146136  146133       7
  146142  146139       6  146145  146139       6  146145  146142       7  146151
  146148       6  146154  146148       6  146154  146151       7  146160  146157
       6  146163  146157       6  146163  146160       7  146169  146166       6
  146172  146166       6  146172  146169       7  146178  146175       6  146181
  146175       6  146181  146178       7  146187  146184       6  146190  146184
       6  146190  146187       7  146196  146193       6  146199  146193       6
  146199  146196       7  146205  146202       6  146208  146202       6  146208
  146205       7  146214  146211       6  146217  146211       6  146217  146214
       7  146223  146220       6  146226  146220       6  146226  146223       7
  146232  146229       6  146235  146229       6  146235  146232       7  146241
  146238       6  146244  146238       6  146244  146241       7  146250  146247
       6  146253  146247       6  146253  146250       7  146259  146256       6
  146262  146256       6  146262  146259       7  146268  146265       6  146271
  146265       6  146271  146268       7  146277  146274       6  146280  146274
       6  146280  146277       7  146286  146283       6  146289  146283       6
  146289  146286       7  146295  146292       6  146298  146292       6  146298
  146295       7  146304  146301       6  146307  146301       6  146307  146304
       7  146313  146310       6  146316  146310       6  146316  146313       7
  146322  146319       6  146325  146319       6  146325  146322       7  146331
  146328       6  146334  146328       6  146334  146331       7  146340  146337
       6  146343  146337       6  146343  146340       7  146349  146346       6
  146352  146346       6  146352  146349       7  146358  146355       6  146361
  146355       6  146361  146358       7  146367  146364       6  146370  146364
       6  146370  146367       7  146376  146373       6  146379  146373       6
  146379  146376       7  146385  146382       6  146388  146382       6  146388
  146385       7  146394  146391       6  146397  146391       6  146397  146394
       7  146403  146400       6  146406  146400       6  146406  146403       7
  146412  146409       6  146415  146409       6  146415  146412       7  146421
  146418       6  146424  146418       6  146424  146421       7  146430  146427
       6  146433  146427       6  146433  146430       7  146439  146436       6
  146442  146436       6  146442  146439       7  146448  146445       6  146451
  146445       6  146451  146448       7  146457  146454       6  146460  146454
       6  146460  146457       7  146466  146463       6  146469  146463       6
  146469  146466       7  146475  146472       6  146478  146472       6  146478
  146475       7  146484  146481       6  146487  146481       6  146487  146484
       7  146493  146490       6  146496  146490       6  146496  146493       7
  146502  146499       6  146505  146499       6  146505  146502       7  146511
  146508       6  146514  146508       6  146514  146511       7  146520  146517
       6  146523  146517       6  146523  146520       7  146529  146526       6
  146532  146526       6  146532  146529       7  146538  146535       6  146541
  146535       6  146541  146538       7  146547  146544       6  146550  146544
       6  146550  146547       7  146556  146553       6  146559  146553       6
  146559  146556       7  146565  146562       6  146568  146562       6  146568
  146565       7  146574  146571       6  146577  146571       6  146577  146574
       7  146583  146580       6  146586  146580       6  146586  146583       7
  146592  146589       6  146595  146589       6  146595  146592       7  146601
  146598       6  146604  146598       6  146604  146601       7  146610  146607
       6  146613  146607       6  146613  146610       7  146619  146616       6
  146622  146616       6  146622  146619       7  146628  146625       6  146631
  146625       6  146631  146628       7  146637  146634       6  146640  146634
       6  146640  146637       7  146646  146643       6  146649  146643       6
  146649  146646       7  146655  146652       6  146658  146652       6  146658
  146655       7  146664  146661       6  146667  146661       6  146667  146664
       7  146673  146670       6  146676  146670       6  146676  146673       7
  146682  146679       6  146685  146679       6  146685  146682       7  146691
  146688       6  146694  146688       6  146694  146691       7  146700  146697
       6  146703  146697       6  146703  146700       7  146709  146706       6
  146712  146706       6  146712  146709       7  146718  146715       6  146721
  146715       6  146721  146718       7  146727  146724       6  146730  146724
       6  146730  146727       7  146736  146733       6  146739  146733       6
  146739  146736       7  146745  146742       6  146748  146742       6  146748
  146745       7  146754  146751       6  146757  146751       6  146757  146754
       7  146763  146760       6  146766  146760       6  146766  146763       7
  146772  146769       6  146775  146769       6  146775  146772       7  146781
  146778       6  146784  146778       6  146784  146781       7  146790  146787
       6  146793  146787       6  146793  146790       7  146799  146796       6
  146802  146796       6  146802  146799       7  146808  146805       6  146811
  146805       6  146811  146808       7  146817  146814       6  146820  146814
       6  146820  146817       7  146826  146823       6  146829  146823       6
  146829  146826       7  146835  146832       6  146838  146832       6  146838
  146835       7  146844  146841       6  146847  146841       6  146847  146844
       7  146853  146850       6  146856  146850       6  146856  146853       7
  146862  146859       6  146865  146859       6  146865  146862       7  146871
  146868       6  146874  146868       6  146874  146871       7  146880  146877
       6  146883  146877       6  146883  146880       7  146889  146886       6
  146892  146886       6  146892  146889       7  146898  146895       6  146901
  146895       6  146901  146898       7  146907  146904       6  146910  146904
       6  146910  146907       7  146916  146913       6  146919  146913       6
  146919  146916       7  146925  146922       6  146928  146922       6  146928
  146925       7  146934  146931       6  146937  146931       6  146937  146934
       7  146943  146940       6  146946  146940       6  146946  146943       7
  146952  146949       6  146955  146949       6  146955  146952       7  146961
  146958       6  146964  146958       6  146964  146961       7  146970  146967
       6  146973  146967       6  146973  146970       7  146979  146976       6
  146982  146976       6  146982  146979       7  146988  146985       6  146991
  146985       6  146991  146988       7  146997  146994       6  147000  146994
       6  147000  146997       7  147006  147003       6  147009  147003       6
  147009  147006       7  147015  147012       6  147018  147012       6  147018
  147015       7  147024  147021       6  147027  147021       6  147027  147024
       7  147033  147030       6  147036  147030       6  147036  147033       7
  147042  147039       6  147045  147039       6  147045  147042       7  147051
  147048       6  147054  147048       6  147054  147051       7  147060  147057
       6  147063  147057       6  147063  147060       7  147069  147066       6
  147072  147066       6  147072  147069       7  147078  147075       6  147081
  147075       6  147081  147078       7  147087  147084       6  147090  147084
       6  147090  147087       7  147096  147093       6  147099  147093       6
  147099  147096       7  147105  147102       6  147108  147102       6  147108
  147105       7  147114  147111       6  147117  147111       6  147117  147114
       7  147123  147120       6  147126  147120       6  147126  147123       7
  147132  147129       6  147135  147129       6  147135  147132       7  147141
  147138       6  147144  147138       6  147144  147141       7  147150  147147
       6  147153  147147       6  147153  147150       7  147159  147156       6
  147162  147156       6  147162  147159       7  147168  147165       6  147171
  147165       6  147171  147168       7  147177  147174       6  147180  147174
       6  147180  147177       7  147186  147183       6  147189  147183       6
  147189  147186       7  147195  147192       6  147198  147192       6  147198
  147195       7  147204  147201       6  147207  147201       6  147207  147204
       7  147213  147210       6  147216  147210       6  147216  147213       7
  147222  147219       6  147225  147219       6  147225  147222       7  147231
  147228       6  147234  147228       6  147234  147231       7  147240  147237
       6  147243  147237       6  147243  147240       7  147249  147246       6
  147252  147246       6  147252  147249       7  147258  147255       6  147261
  147255       6  147261  147258       7  147267  147264       6  147270  147264
       6  147270  147267       7  147276  147273       6  147279  147273       6
  147279  147276       7  147285  147282       6  147288  147282       6  147288
  147285       7  147294  147291       6  147297  147291       6  147297  147294
       7  147303  147300       6  147306  147300       6  147306  147303       7
  147312  147309       6  147315  147309       6  147315  147312       7  147321
  147318       6  147324  147318       6  147324  147321       7  147330  147327
       6  147333  147327       6  147333  147330       7  147339  147336       6
  147342  147336       6  147342  147339       7  147348  147345       6  147351
  147345       6  147351  147348       7  147357  147354       6  147360  147354
       6  147360  147357       7  147366  147363       6  147369  147363       6
  147369  147366       7  147375  147372       6  147378  147372       6  147378
  147375       7  147384  147381       6  147387  147381       6  147387  147384
       7  147393  147390       6  147396  147390       6  147396  147393       7
  147402  147399       6  147405  147399       6  147405  147402       7  147411
  147408       6  147414  147408       6  147414  147411       7  147420  147417
       6  147423  147417       6  147423  147420       7  147429  147426       6
  147432  147426       6  147432  147429       7  147438  147435       6  147441
  147435       6  147441  147438       7  147447  147444       6  147450  147444
       6  147450  147447       7  147456  147453       6  147459  147453       6
  147459  147456       7  147465  147462       6  147468  147462       6  147468
  147465       7  147474  147471       6  147477  147471       6  147477  147474
       7  147483  147480       6  147486  147480       6  147486  147483       7
  147492  147489       6  147495  147489       6  147495  147492       7  147501
  147498       6  147504  147498       6  147504  147501       7  147510  147507
       6  147513  147507       6  147513  147510       7  147519  147516       6
  147522  147516       6  147522  147519       7  147528  147525       6  147531
  147525       6  147531  147528       7  147537  147534       6  147540  147534
       6  147540  147537       7  147546  147543       6  147549  147543       6
  147549  147546       7  147555  147552       6  147558  147552       6  147558
  147555       7  147564  147561       6  147567  147561       6  147567  147564
       7  147573  147570       6  147576  147570       6  147576  147573       7
  147582  147579       6  147585  147579       6  147585  147582       7  147591
  147588       6  147594  147588       6  147594  147591       7  147600  147597
       6  147603  147597       6  147603  147600       7  147609  147606       6
  147612  147606       6  147612  147609       7  147618  147615       6  147621
  147615       6  147621  147618       7  147627  147624       6  147630  147624
       6  147630  147627       7  147636  147633       6  147639  147633       6
  147639  147636       7  147645  147642       6  147648  147642       6  147648
  147645       7  147654  147651       6  147657  147651       6  147657  147654
       7  147663  147660       6  147666  147660       6  147666  147663       7
  147672  147669       6  147675  147669       6  147675  147672       7  147681
  147678       6  147684  147678       6  147684  147681       7  147690  147687
       6  147693  147687       6  147693  147690       7  147699  147696       6
  147702  147696       6  147702  147699       7  147708  147705       6  147711
  147705       6  147711  147708       7  147717  147714       6  147720  147714
       6  147720  147717       7  147726  147723       6  147729  147723       6
  147729  147726       7  147735  147732       6  147738  147732       6  147738
  147735       7  147744  147741       6  147747  147741       6  147747  147744
       7  147753  147750       6  147756  147750       6  147756  147753       7
  147762  147759       6  147765  147759       6  147765  147762       7  147771
  147768       6  147774  147768       6  147774  147771       7  147780  147777
       6  147783  147777       6  147783  147780       7  147789  147786       6
  147792  147786       6  147792  147789       7  147798  147795       6  147801
  147795       6  147801  147798       7  147807  147804       6  147810  147804
       6  147810  147807       7  147816  147813       6  147819  147813       6
  147819  147816       7  147825  147822       6  147828  147822       6  147828
  147825       7  147834  147831       6  147837  147831       6  147837  147834
       7  147843  147840       6  147846  147840       6  147846  147843       7
  147852  147849       6  147855  147849       6  147855  147852       7  147861
  147858       6  147864  147858       6  147864  147861       7  147870  147867
       6  147873  147867       6  147873  147870       7  147879  147876       6
  147882  147876       6  147882  147879       7  147888  147885       6  147891
  147885       6  147891  147888       7  147897  147894       6  147900  147894
       6  147900  147897       7  147906  147903       6  147909  147903       6
  147909  147906       7  147915  147912       6  147918  147912       6  147918
  147915       7  147924  147921       6  147927  147921       6  147927  147924
       7  147933  147930       6  147936  147930       6  147936  147933       7
  147942  147939       6  147945  147939       6  147945  147942       7  147951
  147948       6  147954  147948       6  147954  147951       7  147960  147957
       6  147963  147957       6  147963  147960       7  147969  147966       6
  147972  147966       6  147972  147969       7  147978  147975       6  147981
  147975       6  147981  147978       7  147987  147984       6  147990  147984
       6  147990  147987       7  147996  147993       6  147999  147993       6
  147999  147996       7  148005  148002       6  148008  148002       6  148008
  148005       7  148014  148011       6  148017  148011       6  148017  148014
       7  148023  148020       6  148026  148020       6  148026  148023       7
  148032  148029       6  148035  148029       6  148035  148032       7  148041
  148038       6  148044  148038       6  148044  148041       7  148050  148047
       6  148053  148047       6  148053  148050       7  148059  148056       6
  148062  148056       6  148062  148059       7  148068  148065       6  148071
  148065       6  148071  148068       7  148077  148074       6  148080  148074
       6  148080  148077       7  148086  148083       6  148089  148083       6
  148089  148086       7  148095  148092       6  148098  148092       6  148098
  148095       7  148104  148101       6  148107  148101       6  148107  148104
       7  148113  148110       6  148116  148110       6  148116  148113       7
  148122  148119       6  148125  148119       6  148125  148122       7  148131
  148128       6  148134  148128       6  148134  148131       7  148140  148137
       6  148143  148137       6  148143  148140       7  148149  148146       6
  148152  148146       6  148152  148149       7  148158  148155       6  148161
  148155       6  148161  148158       7  148167  148164       6  148170  148164
       6  148170  148167       7  148176  148173       6  148179  148173       6
  148179  148176       7  148185  148182       6  148188  148182       6  148188
  148185       7  148194  148191       6  148197  148191       6  148197  148194
       7  148203  148200       6  148206  148200       6  148206  148203       7
  148212  148209       6  148215  148209       6  148215  148212       7  148221
  148218       6  148224  148218       6  148224  148221       7  148230  148227
       6  148233  148227       6  148233  148230       7  148239  148236       6
  148242  148236       6  148242  148239       7  148248  148245       6  148251
  148245       6  148251  148248       7  148257  148254       6  148260  148254
       6  148260  148257       7  148266  148263       6  148269  148263       6
  148269  148266       7  148275  148272       6  148278  148272       6  148278
  148275       7  148284  148281       6  148287  148281       6  148287  148284
       7  148293  148290       6  148296  148290       6  148296  148293       7
  148302  148299       6  148305  148299       6  148305  148302       7  148311
  148308       6  148314  148308       6  148314  148311       7  148320  148317
       6  148323  148317       6  148323  148320       7  148329  148326       6
  148332  148326       6  148332  148329       7  148338  148335       6  148341
  148335       6  148341  148338       7  148347  148344       6  148350  148344
       6  148350  148347       7  148356  148353       6  148359  148353       6
  148359  148356       7  148365  148362       6  148368  148362       6  148368
  148365       7  148374  148371       6  148377  148371       6  148377  148374
       7  148383  148380       6  148386  148380       6  148386  148383       7
  148392  148389       6  148395  148389       6  148395  148392       7  148401
  148398       6  148404  148398       6  148404  148401       7  148410  148407
       6  148413  148407       6  148413  148410       7  148419  148416       6
  148422  148416       6  148422  148419       7  148428  148425       6  148431
  148425       6  148431  148428       7  148437  148434       6  148440  148434
       6  148440  148437       7  148446  148443       6  148449  148443       6
  148449  148446       7  148455  148452       6  148458  148452       6  148458
  148455       7  148464  148461       6  148467  148461       6  148467  148464
       7  148473  148470       6  148476  148470       6  148476  148473       7
  148482  148479       6  148485  148479       6  148485  148482       7  148491
  148488       6  148494  148488       6  148494  148491       7  148500  148497
       6  148503  148497       6  148503  148500       7  148509  148506       6
  148512  148506       6  148512  148509       7  148518  148515       6  148521
  148515       6  148521  148518       7  148527  148524       6  148530  148524
       6  148530  148527       7  148536  148533       6  148539  148533       6
  148539  148536       7  148545  148542       6  148548  148542       6  148548
  148545       7  148554  148551       6  148557  148551       6  148557  148554
       7  148563  148560       6  148566  148560       6  148566  148563       7
  148572  148569       6  148575  148569       6  148575  148572       7  148581
  148578       6  148584  148578       6  148584  148581       7  148590  148587
       6  148593  148587       6  148593  148590       7  148599  148596       6
  148602  148596       6  148602  148599       7  148608  148605       6  148611
  148605       6  148611  148608       7  148617  148614       6  148620  148614
       6  148620  148617       7  148626  148623       6  148629  148623       6
  148629  148626       7  148635  148632       6  148638  148632       6  148638
  148635       7  148644  148641       6  148647  148641       6  148647  148644
       7  148653  148650       6  148656  148650       6  148656  148653       7
  148662  148659       6  148665  148659       6  148665  148662       7  148671
  148668       6  148674  148668       6  148674  148671       7  148680  148677
       6  148683  148677       6  148683  148680       7  148689  148686       6
  148692  148686       6  148692  148689       7  148698  148695       6  148701
  148695       6  148701  148698       7  148707  148704       6  148710  148704
       6  148710  148707       7  148716  148713       6  148719  148713       6
  148719  148716       7  148725  148722       6  148728  148722       6  148728
  148725       7  148734  148731       6  148737  148731       6  148737  148734
       7  148743  148740       6  148746  148740       6  148746  148743       7
  148752  148749       6  148755  148749       6  148755  148752       7  148761
  148758       6  148764  148758       6  148764  148761       7  148770  148767
       6  148773  148767       6  148773  148770       7  148779  148776       6
  148782  148776       6  148782  148779       7  148788  148785       6  148791
  148785       6  148791  148788       7  148797  148794       6  148800  148794
       6  148800  148797       7  148806  148803       6  148809  148803       6
  148809  148806       7  148815  148812       6  148818  148812       6  148818
  148815       7  148824  148821       6  148827  148821       6  148827  148824
       7  148833  148830       6  148836  148830       6  148836  148833       7
  148842  148839       6  148845  148839       6  148845  148842       7  148851
  148848       6  148854  148848       6  148854  148851       7  148860  148857
       6  148863  148857       6  148863  148860       7  148869  148866       6
  148872  148866       6  148872  148869       7  148878  148875       6  148881
  148875       6  148881  148878       7  148887  148884       6  148890  148884
       6  148890  148887       7  148896  148893       6  148899  148893       6
  148899  148896       7  148905  148902       6  148908  148902       6  148908
  148905       7  148914  148911       6  148917  148911       6  148917  148914
       7  148923  148920       6  148926  148920       6  148926  148923       7
  148932  148929       6  148935  148929       6  148935  148932       7  148941
  148938       6  148944  148938       6  148944  148941       7  148950  148947
       6  148953  148947       6  148953  148950       7  148959  148956       6
  148962  148956       6  148962  148959       7  148968  148965       6  148971
  148965       6  148971  148968       7  148977  148974       6  148980  148974
       6  148980  148977       7  148986  148983       6  148989  148983       6
  148989  148986       7  148995  148992       6  148998  148992       6  148998
  148995       7  149004  149001       6  149007  149001       6  149007  149004
       7  149013  149010       6  149016  149010       6  149016  149013       7
  149022  149019       6  149025  149019       6  149025  149022       7  149031
  149028       6  149034  149028       6  149034  149031       7  149040  149037
       6  149043  149037       6  149043  149040       7  149049  149046       6
  149052  149046       6  149052  149049       7  149058  149055       6  149061
  149055       6  149061  149058       7  149067  149064       6  149070  149064
       6  149070  149067       7  149076  149073       6  149079  149073       6
  149079  149076       7  149085  149082       6  149088  149082       6  149088
  149085       7  149094  149091       6  149097  149091       6  149097  149094
       7  149103  149100       6  149106  149100       6  149106  149103       7
  149112  149109       6  149115  149109       6  149115  149112       7  149121
  149118       6  149124  149118       6  149124  149121       7  149130  149127
       6  149133  149127       6  149133  149130       7  149139  149136       6
  149142  149136       6  149142  149139       7  149148  149145       6  149151
  149145       6  149151  149148       7  149157  149154       6  149160  149154
       6  149160  149157       7  149166  149163       6  149169  149163       6
  149169  149166       7  149175  149172       6  149178  149172       6  149178
  149175       7  149184  149181       6  149187  149181       6  149187  149184
       7  149193  149190       6  149196  149190       6  149196  149193       7
  149202  149199       6  149205  149199       6  149205  149202       7  149211
  149208       6  149214  149208       6  149214  149211       7  149220  149217
       6  149223  149217       6  149223  149220       7  149229  149226       6
  149232  149226       6  149232  149229       7  149238  149235       6  149241
  149235       6  149241  149238       7  149247  149244       6  149250  149244
       6  149250  149247       7  149256  149253       6  149259  149253       6
  149259  149256       7  149265  149262       6  149268  149262       6  149268
  149265       7  149274  149271       6  149277  149271       6  149277  149274
       7  149283  149280       6  149286  149280       6  149286  149283       7
  149292  149289       6  149295  149289       6  149295  149292       7  149301
  149298       6  149304  149298       6  149304  149301       7  149310  149307
       6  149313  149307       6  149313  149310       7  149319  149316       6
  149322  149316       6  149322  149319       7  149328  149325       6  149331
  149325       6  149331  149328       7  149337  149334       6  149340  149334
       6  149340  149337       7  149346  149343       6  149349  149343       6
  149349  149346       7  149355  149352       6  149358  149352       6  149358
  149355       7  149364  149361       6  149367  149361       6  149367  149364
       7  149373  149370       6  149376  149370       6  149376  149373       7
  149382  149379       6  149385  149379       6  149385  149382       7  149391
  149388       6  149394  149388       6  149394  149391       7  149400  149397
       6  149403  149397       6  149403  149400       7  149409  149406       6
  149412  149406       6  149412  149409       7  149418  149415       6  149421
  149415       6  149421  149418       7  149427  149424       6  149430  149424
       6  149430  149427       7  149436  149433       6  149439  149433       6
  149439  149436       7  149445  149442       6  149448  149442       6  149448
  149445       7  149454  149451       6  149457  149451       6  149457  149454
       7  149463  149460       6  149466  149460       6  149466  149463       7
  149472  149469       6  149475  149469       6  149475  149472       7  149481
  149478       6  149484  149478       6  149484  149481       7  149490  149487
       6  149493  149487       6  149493  149490       7  149499  149496       6
  149502  149496       6  149502  149499       7  149508  149505       6  149511
  149505       6  149511  149508       7  149517  149514       6  149520  149514
       6  149520  149517       7  149526  149523       6  149529  149523       6
  149529  149526       7  149535  149532       6  149538  149532       6  149538
  149535       7  149544  149541       6  149547  149541       6  149547  149544
       7  149553  149550       6  149556  149550       6  149556  149553       7
  149562  149559       6  149565  149559       6  149565  149562       7  149571
  149568       6  149574  149568       6  149574  149571       7  149580  149577
       6  149583  149577       6  149583  149580       7  149589  149586       6
  149592  149586       6  149592  149589       7  149598  149595       6  149601
  149595       6  149601  149598       7  149607  149604       6  149610  149604
       6  149610  149607       7  149616  149613       6  149619  149613       6
  149619  149616       7  149625  149622       6  149628  149622       6  149628
  149625       7  149634  149631       6  149637  149631       6  149637  149634
       7  149643  149640       6  149646  149640       6  149646  149643       7
  149652  149649       6  149655  149649       6  149655  149652       7  149661
  149658       6  149664  149658       6  149664  149661       7  149670  149667
       6  149673  149667       6  149673  149670       7  149679  149676       6
  149682  149676       6  149682  149679       7  149688  149685       6  149691
  149685       6  149691  149688       7  149697  149694       6  149700  149694
       6  149700  149697       7  149706  149703       6  149709  149703       6
  149709  149706       7  149715  149712       6  149718  149712       6  149718
  149715       7  149724  149721       6  149727  149721       6  149727  149724
       7  149733  149730       6  149736  149730       6  149736  149733       7
  149742  149739       6  149745  149739       6  149745  149742       7  149751
  149748       6  149754  149748       6  149754  149751       7  149760  149757
       6  149763  149757       6  149763  149760       7  149769  149766       6
  149772  149766       6  149772  149769       7  149778  149775       6  149781
  149775       6  149781  149778       7  149787  149784       6  149790  149784
       6  149790  149787       7  149796  149793       6  149799  149793       6
  149799  149796       7  149805  149802       6  149808  149802       6  149808
  149805       7  149814  149811       6  149817  149811       6  149817  149814
       7  149823  149820       6  149826  149820       6  149826  149823       7
  149832  149829       6  149835  149829       6  149835  149832       7  149841
  149838       6  149844  149838       6  149844  149841       7  149850  149847
       6  149853  149847       6  149853  149850       7  149859  149856       6
  149862  149856       6  149862  149859       7  149868  149865       6  149871
  149865       6  149871  149868       7  149877  149874       6  149880  149874
       6  149880  149877       7  149886  149883       6  149889  149883       6
  149889  149886       7  149895  149892       6  149898  149892       6  149898
  149895       7  149904  149901       6  149907  149901       6  149907  149904
       7  149913  149910       6  149916  149910       6  149916  149913       7
  149922  149919       6  149925  149919       6  149925  149922       7  149931
  149928       6  149934  149928       6  149934  149931       7  149940  149937
       6  149943  149937       6  149943  149940       7  149949  149946       6
  149952  149946       6  149952  149949       7  149958  149955       6  149961
  149955       6  149961  149958       7  149967  149964       6  149970  149964
       6  149970  149967       7  149976  149973       6  149979  149973       6
  149979  149976       7  149985  149982       6  149988  149982       6  149988
  149985       7  149994  149991       6  149997  149991       6  149997  149994
       7  150003  150000       6  150006  150000       6  150006  150003       7
  150012  150009       6  150015  150009       6  150015  150012       7  150021
  150018       6  150024  150018       6  150024  150021       7  150030  150027
       6  150033  150027       6  150033  150030       7  150039  150036       6
  150042  150036       6  150042  150039       7  150048  150045       6  150051
  150045       6  150051  150048       7  150057  150054       6  150060  150054
       6  150060  150057       7  150066  150063       6  150069  150063       6
  150069  150066       7  150075  150072       6  150078  150072       6  150078
  150075       7  150084  150081       6  150087  150081       6  150087  150084
       7  150093  150090       6  150096  150090       6  150096  150093       7
  150102  150099       6  150105  150099       6  150105  150102       7  150111
  150108       6  150114  150108       6  150114  150111       7  150120  150117
       6  150123  150117       6  150123  150120       7  150129  150126       6
  150132  150126       6  150132  150129       7  150138  150135       6  150141
  150135       6  150141  150138       7  150147  150144       6  150150  150144
       6  150150  150147       7  150156  150153       6  150159  150153       6
  150159  150156       7  150165  150162       6  150168  150162       6  150168
  150165       7  150174  150171       6  150177  150171       6  150177  150174
       7  150183  150180       6  150186  150180       6  150186  150183       7
  150192  150189       6  150195  150189       6  150195  150192       7  150201
  150198       6  150204  150198       6  150204  150201       7  150210  150207
       6  150213  150207       6  150213  150210       7  150219  150216       6
  150222  150216       6  150222  150219       7  150228  150225       6  150231
  150225       6  150231  150228       7  150237  150234       6  150240  150234
       6  150240  150237       7  150246  150243       6  150249  150243       6
  150249  150246       7  150255  150252       6  150258  150252       6  150258
  150255       7  150264  150261       6  150267  150261       6  150267  150264
       7  150273  150270       6  150276  150270       6  150276  150273       7
  150282  150279       6  150285  150279       6  150285  150282       7  150291
  150288       6  150294  150288       6  150294  150291       7  150300  150297
       6  150303  150297       6  150303  150300       7  150309  150306       6
  150312  150306       6  150312  150309       7  150318  150315       6  150321
  150315       6  150321  150318       7  150327  150324       6  150330  150324
       6  150330  150327       7  150336  150333       6  150339  150333       6
  150339  150336       7  150345  150342       6  150348  150342       6  150348
  150345       7  150354  150351       6  150357  150351       6  150357  150354
       7  150363  150360       6  150366  150360       6  150366  150363       7
  150372  150369       6  150375  150369       6  150375  150372       7  150381
  150378       6  150384  150378       6  150384  150381       7  150390  150387
       6  150393  150387       6  150393  150390       7  150399  150396       6
  150402  150396       6  150402  150399       7  150408  150405       6  150411
  150405       6  150411  150408       7  150417  150414       6  150420  150414
       6  150420  150417       7  150426  150423       6  150429  150423       6
  150429  150426       7  150435  150432       6  150438  150432       6  150438
  150435       7  150444  150441       6  150447  150441       6  150447  150444
       7  150453  150450       6  150456  150450       6  150456  150453       7
  150462  150459       6  150465  150459       6  150465  150462       7  150471
  150468       6  150474  150468       6  150474  150471       7  150480  150477
       6  150483  150477       6  150483  150480       7  150489  150486       6
  150492  150486       6  150492  150489       7  150498  150495       6  150501
  150495       6  150501  150498       7  150507  150504       6  150510  150504
       6  150510  150507       7  150516  150513       6  150519  150513       6
  150519  150516       7  150525  150522       6  150528  150522       6  150528
  150525       7  150534  150531       6  150537  150531       6  150537  150534
       7  150543  150540       6  150546  150540       6  150546  150543       7
  150552  150549       6  150555  150549       6  150555  150552       7  150561
  150558       6  150564  150558       6  150564  150561       7  150570  150567
       6  150573  150567       6  150573  150570       7  150579  150576       6
  150582  150576       6  150582  150579       7  150588  150585       6  150591
  150585       6  150591  150588       7  150597  150594       6  150600  150594
       6  150600  150597       7  150606  150603       6  150609  150603       6
  150609  150606       7  150615  150612       6  150618  150612       6  150618
  150615       7  150624  150621       6  150627  150621       6  150627  150624
       7  150633  150630       6  150636  150630       6  150636  150633       7
  150642  150639       6  150645  150639       6  150645  150642       7  150651
  150648       6  150654  150648       6  150654  150651       7  150660  150657
       6  150663  150657       6  150663  150660       7  150669  150666       6
  150672  150666       6  150672  150669       7  150678  150675       6  150681
  150675       6  150681  150678       7  150687  150684       6  150690  150684
       6  150690  150687       7  150696  150693       6  150699  150693       6
  150699  150696       7  150705  150702       6  150708  150702       6  150708
  150705       7  150714  150711       6  150717  150711       6  150717  150714
       7  150723  150720       6  150726  150720       6  150726  150723       7
  150732  150729       6  150735  150729       6  150735  150732       7  150741
  150738       6  150744  150738       6  150744  150741       7  150750  150747
       6  150753  150747       6  150753  150750       7  150759  150756       6
  150762  150756       6  150762  150759       7  150768  150765       6  150771
  150765       6  150771  150768       7  150777  150774       6  150780  150774
       6  150780  150777       7  150786  150783       6  150789  150783       6
  150789  150786       7  150795  150792       6  150798  150792       6  150798
  150795       7  150804  150801       6  150807  150801       6  150807  150804
       7  150813  150810       6  150816  150810       6  150816  150813       7
  150822  150819       6  150825  150819       6  150825  150822       7  150831
  150828       6  150834  150828       6  150834  150831       7  150840  150837
       6  150843  150837       6  150843  150840       7  150849  150846       6
  150852  150846       6  150852  150849       7  150858  150855       6  150861
  150855       6  150861  150858       7  150867  150864       6  150870  150864
       6  150870  150867       7  150876  150873       6  150879  150873       6
  150879  150876       7  150885  150882       6  150888  150882       6  150888
  150885       7  150894  150891       6  150897  150891       6  150897  150894
       7  150903  150900       6  150906  150900       6  150906  150903       7
  150912  150909       6  150915  150909       6  150915  150912       7  150921
  150918       6  150924  150918       6  150924  150921       7  150930  150927
       6  150933  150927       6  150933  150930       7  150939  150936       6
  150942  150936       6  150942  150939       7  150948  150945       6  150951
  150945       6  150951  150948       7  150957  150954       6  150960  150954
       6  150960  150957       7  150966  150963       6  150969  150963       6
  150969  150966       7  150975  150972       6  150978  150972       6  150978
  150975       7  150984  150981       6  150987  150981       6  150987  150984
       7  150993  150990       6  150996  150990       6  150996  150993       7
  151002  150999       6  151005  150999       6  151005  151002       7  151011
  151008       6  151014  151008       6  151014  151011       7  151020  151017
       6  151023  151017       6  151023  151020       7  151029  151026       6
  151032  151026       6  151032  151029       7  151038  151035       6  151041
  151035       6  151041  151038       7  151047  151044       6  151050  151044
       6  151050  151047       7  151056  151053       6  151059  151053       6
  151059  151056       7  151065  151062       6  151068  151062       6  151068
  151065       7  151074  151071       6  151077  151071       6  151077  151074
       7  151083  151080       6  151086  151080       6  151086  151083       7
  151092  151089       6  151095  151089       6  151095  151092       7  151101
  151098       6  151104  151098       6  151104  151101       7  151110  151107
       6  151113  151107       6  151113  151110       7  151119  151116       6
  151122  151116       6  151122  151119       7  151128  151125       6  151131
  151125       6  151131  151128       7  151137  151134       6  151140  151134
       6  151140  151137       7  151146  151143       6  151149  151143       6
  151149  151146       7  151155  151152       6  151158  151152       6  151158
  151155       7  151164  151161       6  151167  151161       6  151167  151164
       7  151173  151170       6  151176  151170       6  151176  151173       7
  151182  151179       6  151185  151179       6  151185  151182       7  151191
  151188       6  151194  151188       6  151194  151191       7  151200  151197
       6  151203  151197       6  151203  151200       7  151209  151206       6
  151212  151206       6  151212  151209       7  151218  151215       6  151221
  151215       6  151221  151218       7  151227  151224       6  151230  151224
       6  151230  151227       7  151236  151233       6  151239  151233       6
  151239  151236       7  151245  151242       6  151248  151242       6  151248
  151245       7  151254  151251       6  151257  151251       6  151257  151254
       7  151263  151260       6  151266  151260       6  151266  151263       7
  151272  151269       6  151275  151269       6  151275  151272       7  151281
  151278       6  151284  151278       6  151284  151281       7  151290  151287
       6  151293  151287       6  151293  151290       7  151299  151296       6
  151302  151296       6  151302  151299       7  151308  151305       6  151311
  151305       6  151311  151308       7  151317  151314       6  151320  151314
       6  151320  151317       7  151326  151323       6  151329  151323       6
  151329  151326       7  151335  151332       6  151338  151332       6  151338
  151335       7  151344  151341       6  151347  151341       6  151347  151344
       7  151353  151350       6  151356  151350       6  151356  151353       7
  151362  151359       6  151365  151359       6  151365  151362       7  151371
  151368       6  151374  151368       6  151374  151371       7  151380  151377
       6  151383  151377       6  151383  151380       7  151389  151386       6
  151392  151386       6  151392  151389       7  151398  151395       6  151401
  151395       6  151401  151398       7  151407  151404       6  151410  151404
       6  151410  151407       7  151416  151413       6  151419  151413       6
  151419  151416       7  151425  151422       6  151428  151422       6  151428
  151425       7  151434  151431       6  151437  151431       6  151437  151434
       7  151443  151440       6  151446  151440       6  151446  151443       7
  151452  151449       6  151455  151449       6  151455  151452       7  151461
  151458       6  151464  151458       6  151464  151461       7  151470  151467
       6  151473  151467       6  151473  151470       7  151479  151476       6
  151482  151476       6  151482  151479       7  151488  151485       6  151491
  151485       6  151491  151488       7  151497  151494       6  151500  151494
       6  151500  151497       7  151506  151503       6  151509  151503       6
  151509  151506       7  151515  151512       6  151518  151512       6  151518
  151515       7  151524  151521       6  151527  151521       6  151527  151524
       7  151533  151530       6  151536  151530       6  151536  151533       7
  151542  151539       6  151545  151539       6  151545  151542       7  151551
  151548       6  151554  151548       6  151554  151551       7  151560  151557
       6  151563  151557       6  151563  151560       7  151569  151566       6
  151572  151566       6  151572  151569       7  151578  151575       6  151581
  151575       6  151581  151578       7  151587  151584       6  151590  151584
       6  151590  151587       7  151596  151593       6  151599  151593       6
  151599  151596       7  151605  151602       6  151608  151602       6  151608
  151605       7  151614  151611       6  151617  151611       6  151617  151614
       7  151623  151620       6  151626  151620       6  151626  151623       7
  151632  151629       6  151635  151629       6  151635  151632       7  151641
  151638       6  151644  151638       6  151644  151641       7  151650  151647
       6  151653  151647       6  151653  151650       7  151659  151656       6
  151662  151656       6  151662  151659       7  151668  151665       6  151671
  151665       6  151671  151668       7  151677  151674       6  151680  151674
       6  151680  151677       7  151686  151683       6  151689  151683       6
  151689  151686       7  151695  151692       6  151698  151692       6  151698
  151695       7  151704  151701       6  151707  151701       6  151707  151704
       7  151713  151710       6  151716  151710       6  151716  151713       7
  151722  151719       6  151725  151719       6  151725  151722       7  151731
  151728       6  151734  151728       6  151734  151731       7  151740  151737
       6  151743  151737       6  151743  151740       7  151749  151746       6
  151752  151746       6  151752  151749       7  151758  151755       6  151761
  151755       6  151761  151758       7  151767  151764       6  151770  151764
       6  151770  151767       7  151776  151773       6  151779  151773       6
  151779  151776       7  151785  151782       6  151788  151782       6  151788
  151785       7  151794  151791       6  151797  151791       6  151797  151794
       7  151803  151800       6  151806  151800       6  151806  151803       7
  151812  151809       6  151815  151809       6  151815  151812       7  151821
  151818       6  151824  151818       6  151824  151821       7  151830  151827
       6  151833  151827       6  151833  151830       7  151839  151836       6
  151842  151836       6  151842  151839       7  151848  151845       6  151851
  151845       6  151851  151848       7  151857  151854       6  151860  151854
       6  151860  151857       7  151866  151863       6  151869  151863       6
  151869  151866       7  151875  151872       6  151878  151872       6  151878
  151875       7  151884  151881       6  151887  151881       6  151887  151884
       7  151893  151890       6  151896  151890       6  151896  151893       7
  151902  151899       6  151905  151899       6  151905  151902       7  151911
  151908       6  151914  151908       6  151914  151911       7  151920  151917
       6  151923  151917       6  151923  151920       7  151929  151926       6
  151932  151926       6  151932  151929       7  151938  151935       6  151941
  151935       6  151941  151938       7  151947  151944       6  151950  151944
       6  151950  151947       7  151956  151953       6  151959  151953       6
  151959  151956       7  151965  151962       6  151968  151962       6  151968
  151965       7  151974  151971       6  151977  151971       6  151977  151974
       7  151983  151980       6  151986  151980       6  151986  151983       7
  151992  151989       6  151995  151989       6  151995  151992       7  152001
  151998       6  152004  151998       6  152004  152001       7  152010  152007
       6  152013  152007       6  152013  152010       7  152019  152016       6
  152022  152016       6  152022  152019       7  152028  152025       6  152031
  152025       6  152031  152028       7  152037  152034       6  152040  152034
       6  152040  152037       7  152046  152043       6  152049  152043       6
  152049  152046       7  152055  152052       6  152058  152052       6  152058
  152055       7  152064  152061       6  152067  152061       6  152067  152064
       7  152073  152070       6  152076  152070       6  152076  152073       7
  152082  152079       6  152085  152079       6  152085  152082       7  152091
  152088       6  152094  152088       6  152094  152091       7  152100  152097
       6  152103  152097       6  152103  152100       7  152109  152106       6
  152112  152106       6  152112  152109       7  152118  152115       6  152121
  152115       6  152121  152118       7  152127  152124       6  152130  152124
       6  152130  152127       7  152136  152133       6  152139  152133       6
  152139  152136       7  152145  152142       6  152148  152142       6  152148
  152145       7  152154  152151       6  152157  152151       6  152157  152154
       7  152163  152160       6  152166  152160       6  152166  152163       7
  152172  152169       6  152175  152169       6  152175  152172       7  152181
  152178       6  152184  152178       6  152184  152181       7  152190  152187
       6  152193  152187       6  152193  152190       7  152199  152196       6
  152202  152196       6  152202  152199       7  152208  152205       6  152211
  152205       6  152211  152208       7  152217  152214       6  152220  152214
       6  152220  152217       7  152226  152223       6  152229  152223       6
  152229  152226       7  152235  152232       6  152238  152232       6  152238
  152235       7  152244  152241       6  152247  152241       6  152247  152244
       7  152253  152250       6  152256  152250       6  152256  152253       7
  152262  152259       6  152265  152259       6  152265  152262       7  152271
  152268       6  152274  152268       6  152274  152271       7  152280  152277
       6  152283  152277       6  152283  152280       7  152289  152286       6
  152292  152286       6  152292  152289       7  152298  152295       6  152301
  152295       6  152301  152298       7  152307  152304       6  152310  152304
       6  152310  152307       7  152316  152313       6  152319  152313       6
  152319  152316       7  152325  152322       6  152328  152322       6  152328
  152325       7  152334  152331       6  152337  152331       6  152337  152334
       7  152343  152340       6  152346  152340       6  152346  152343       7
  152352  152349       6  152355  152349       6  152355  152352       7  152361
  152358       6  152364  152358       6  152364  152361       7  152370  152367
       6  152373  152367       6  152373  152370       7  152379  152376       6
  152382  152376       6  152382  152379       7  152388  152385       6  152391
  152385       6  152391  152388       7  152397  152394       6  152400  152394
       6  152400  152397       7  152406  152403       6  152409  152403       6
  152409  152406       7  152415  152412       6  152418  152412       6  152418
  152415       7  152424  152421       6  152427  152421       6  152427  152424
       7  152433  152430       6  152436  152430       6  152436  152433       7
  152442  152439       6  152445  152439       6  152445  152442       7  152451
  152448       6  152454  152448       6  152454  152451       7  152460  152457
       6  152463  152457       6  152463  152460       7  152469  152466       6
  152472  152466       6  152472  152469       7  152478  152475       6  152481
  152475       6  152481  152478       7  152487  152484       6  152490  152484
       6  152490  152487       7  152496  152493       6  152499  152493       6
  152499  152496       7  152505  152502       6  152508  152502       6  152508
  152505       7  152514  152511       6  152517  152511       6  152517  152514
       7  152523  152520       6  152526  152520       6  152526  152523       7
  152532  152529       6  152535  152529       6  152535  152532       7  152541
  152538       6  152544  152538       6  152544  152541       7  152550  152547
       6  152553  152547       6  152553  152550       7  152559  152556       6
  152562  152556       6  152562  152559       7  152568  152565       6  152571
  152565       6  152571  152568       7  152577  152574       6  152580  152574
       6  152580  152577       7  152586  152583       6  152589  152583       6
  152589  152586       7  152595  152592       6  152598  152592       6  152598
  152595       7  152604  152601       6  152607  152601       6  152607  152604
       7  152613  152610       6  152616  152610       6  152616  152613       7
  152622  152619       6  152625  152619       6  152625  152622       7  152631
  152628       6  152634  152628       6  152634  152631       7  152640  152637
       6  152643  152637       6  152643  152640       7  152649  152646       6
  152652  152646       6  152652  152649       7  152658  152655       6  152661
  152655       6  152661  152658       7  152667  152664       6  152670  152664
       6  152670  152667       7  152676  152673       6  152679  152673       6
  152679  152676       7  152685  152682       6  152688  152682       6  152688
  152685       7  152694  152691       6  152697  152691       6  152697  152694
       7  152703  152700       6  152706  152700       6  152706  152703       7
  152712  152709       6  152715  152709       6  152715  152712       7  152721
  152718       6  152724  152718       6  152724  152721       7  152730  152727
       6  152733  152727       6  152733  152730       7  152739  152736       6
  152742  152736       6  152742  152739       7  152748  152745       6  152751
  152745       6  152751  152748       7  152757  152754       6  152760  152754
       6  152760  152757       7  152766  152763       6  152769  152763       6
  152769  152766       7  152775  152772       6  152778  152772       6  152778
  152775       7  152784  152781       6  152787  152781       6  152787  152784
       7  152793  152790       6  152796  152790       6  152796  152793       7
  152802  152799       6  152805  152799       6  152805  152802       7  152811
  152808       6  152814  152808       6  152814  152811       7  152820  152817
       6  152823  152817       6  152823  152820       7  152829  152826       6
  152832  152826       6  152832  152829       7  152838  152835       6  152841
  152835       6  152841  152838       7  152847  152844       6  152850  152844
       6  152850  152847       7  152856  152853       6  152859  152853       6
  152859  152856       7  152865  152862       6  152868  152862       6  152868
  152865       7  152874  152871       6  152877  152871       6  152877  152874
       7  152883  152880       6  152886  152880       6  152886  152883       7
  152892  152889       6  152895  152889       6  152895  152892       7  152901
  152898       6  152904  152898       6  152904  152901       7  152910  152907
       6  152913  152907       6  152913  152910       7  152919  152916       6
  152922  152916       6  152922  152919       7  152928  152925       6  152931
  152925       6  152931  152928       7  152937  152934       6  152940  152934
       6  152940  152937       7  152946  152943       6  152949  152943       6
  152949  152946       7  152955  152952       6  152958  152952       6  152958
  152955       7  152964  152961       6  152967  152961       6  152967  152964
       7  152973  152970       6  152976  152970       6  152976  152973       7
  152982  152979       6  152985  152979       6  152985  152982       7  152991
  152988       6  152994  152988       6  152994  152991       7  153000  152997
       6  153003  152997       6  153003  153000       7  153009  153006       6
  153012  153006       6  153012  153009       7  153018  153015       6  153021
  153015       6  153021  153018       7  153027  153024       6  153030  153024
       6  153030  153027       7  153036  153033       6  153039  153033       6
  153039  153036       7  153045  153042       6  153048  153042       6  153048
  153045       7  153054  153051       6  153057  153051       6  153057  153054
       7  153063  153060       6  153066  153060       6  153066  153063       7
  153072  153069       6  153075  153069       6  153075  153072       7  153081
  153078       6  153084  153078       6  153084  153081       7  153090  153087
       6  153093  153087       6  153093  153090       7  153099  153096       6
  153102  153096       6  153102  153099       7  153108  153105       6  153111
  153105       6  153111  153108       7  153117  153114       6  153120  153114
       6  153120  153117       7  153126  153123       6  153129  153123       6
  153129  153126       7  153135  153132       6  153138  153132       6  153138
  153135       7  153144  153141       6  153147  153141       6  153147  153144
       7  153153  153150       6  153156  153150       6  153156  153153       7
  153162  153159       6  153165  153159       6  153165  153162       7  153171
  153168       6  153174  153168       6  153174  153171       7  153180  153177
       6  153183  153177       6  153183  153180       7  153189  153186       6
  153192  153186       6  153192  153189       7  153198  153195       6  153201
  153195       6  153201  153198       7  153207  153204       6  153210  153204
       6  153210  153207       7  153216  153213       6  153219  153213       6
  153219  153216       7  153225  153222       6  153228  153222       6  153228
  153225       7  153234  153231       6  153237  153231       6  153237  153234
       7  153243  153240       6  153246  153240       6  153246  153243       7
  153252  153249       6  153255  153249       6  153255  153252       7  153261
  153258       6  153264  153258       6  153264  153261       7  153270  153267
       6  153273  153267       6  153273  153270       7  153279  153276       6
  153282  153276       6  153282  153279       7  153288  153285       6  153291
  153285       6  153291  153288       7  153297  153294       6  153300  153294
       6  153300  153297       7  153306  153303       6  153309  153303       6
  153309  153306       7  153315  153312       6  153318  153312       6  153318
  153315       7  153324  153321       6  153327  153321       6  153327  153324
       7  153333  153330       6  153336  153330       6  153336  153333       7
  153342  153339       6  153345  153339       6  153345  153342       7  153351
  153348       6  153354  153348       6  153354  153351       7  153360  153357
       6  153363  153357       6  153363  153360       7  153369  153366       6
  153372  153366       6  153372  153369       7  153378  153375       6  153381
  153375       6  153381  153378       7  153387  153384       6  153390  153384
       6  153390  153387       7  153396  153393       6  153399  153393       6
  153399  153396       7  153405  153402       6  153408  153402       6  153408
  153405       7  153414  153411       6  153417  153411       6  153417  153414
       7  153423  153420       6  153426  153420       6  153426  153423       7
  153432  153429       6  153435  153429       6  153435  153432       7  153441
  153438       6  153444  153438       6  153444  153441       7  153450  153447
       6  153453  153447       6  153453  153450       7  153459  153456       6
  153462  153456       6  153462  153459       7  153468  153465       6  153471
  153465       6  153471  153468       7  153477  153474       6  153480  153474
       6  153480  153477       7  153486  153483       6  153489  153483       6
  153489  153486       7  153495  153492       6  153498  153492       6  153498
  153495       7  153504  153501       6  153507  153501       6  153507  153504
       7  153513  153510       6  153516  153510       6  153516  153513       7
  153522  153519       6  153525  153519       6  153525  153522       7  153531
  153528       6  153534  153528       6  153534  153531       7  153540  153537
       6  153543  153537       6  153543  153540       7  153549  153546       6
  153552  153546       6  153552  153549       7  153558  153555       6  153561
  153555       6  153561  153558       7  153567  153564       6  153570  153564
       6  153570  153567       7  153576  153573       6  153579  153573       6
  153579  153576       7  153585  153582       6  153588  153582       6  153588
  153585       7  153594  153591       6  153597  153591       6  153597  153594
       7  153603  153600       6  153606  153600       6  153606  153603       7
  153612  153609       6  153615  153609       6  153615  153612       7  153621
  153618       6  153624  153618       6  153624  153621       7  153630  153627
       6  153633  153627       6  153633  153630       7  153639  153636       6
  153642  153636       6  153642  153639       7  153648  153645       6  153651
  153645       6  153651  153648       7  153657  153654       6  153660  153654
       6  153660  153657       7  153666  153663       6  153669  153663       6
  153669  153666       7  153675  153672       6  153678  153672       6  153678
  153675       7  153684  153681       6  153687  153681       6  153687  153684
       7  153693  153690       6  153696  153690       6  153696  153693       7
  153702  153699       6  153705  153699       6  153705  153702       7  153711
  153708       6  153714  153708       6  153714  153711       7  153720  153717
       6  153723  153717       6  153723  153720       7  153729  153726       6
  153732  153726       6  153732  153729       7  153738  153735       6  153741
  153735       6  153741  153738       7  153747  153744       6  153750  153744
       6  153750  153747       7  153756  153753       6  153759  153753       6
  153759  153756       7  153765  153762       6  153768  153762       6  153768
  153765       7  153774  153771       6  153777  153771       6  153777  153774
       7  153783  153780       6  153786  153780       6  153786  153783       7
  153792  153789       6  153795  153789       6  153795  153792       7  153801
  153798       6  153804  153798       6  153804  153801       7  153810  153807
       6  153813  153807       6  153813  153810       7  153819  153816       6
  153822  153816       6  153822  153819       7  153828  153825       6  153831
  153825       6  153831  153828       7  153837  153834       6  153840  153834
       6  153840  153837       7  153846  153843       6  153849  153843       6
  153849  153846       7  153855  153852       6  153858  153852       6  153858
  153855       7  153864  153861       6  153867  153861       6  153867  153864
       7  153873  153870       6  153876  153870       6  153876  153873       7
  153882  153879       6  153885  153879       6  153885  153882       7  153891
  153888       6  153894  153888       6  153894  153891       7  153900  153897
       6  153903  153897       6  153903  153900       7  153909  153906       6
  153912  153906       6  153912  153909       7  153918  153915       6  153921
  153915       6  153921  153918       7  153927  153924       6  153930  153924
       6  153930  153927       7  153936  153933       6  153939  153933       6
  153939  153936       7  153945  153942       6  153948  153942       6  153948
  153945       7  153954  153951       6  153957  153951       6  153957  153954
       7  153963  153960       6  153966  153960       6  153966  153963       7
  153972  153969       6  153975  153969       6  153975  153972       7  153981
  153978       6  153984  153978       6  153984  153981       7  153990  153987
       6  153993  153987       6  153993  153990       7  153999  153996       6
  154002  153996       6  154002  153999       7  154008  154005       6  154011
  154005       6  154011  154008       7  154017  154014       6  154020  154014
       6  154020  154017       7  154026  154023       6  154029  154023       6
  154029  154026       7  154035  154032       6  154038  154032       6  154038
  154035       7  154044  154041       6  154047  154041       6  154047  154044
       7  154053  154050       6  154056  154050       6  154056  154053       7
  154062  154059       6  154065  154059       6  154065  154062       7  154071
  154068       6  154074  154068       6  154074  154071       7  154080  154077
       6  154083  154077       6  154083  154080       7  154089  154086       6
  154092  154086       6  154092  154089       7  154098  154095       6  154101
  154095       6  154101  154098       7  154107  154104       6  154110  154104
       6  154110  154107       7  154116  154113       6  154119  154113       6
  154119  154116       7  154125  154122       6  154128  154122       6  154128
  154125       7  154134  154131       6  154137  154131       6  154137  154134
       7  154143  154140       6  154146  154140       6  154146  154143       7
  154152  154149       6  154155  154149       6  154155  154152       7  154161
  154158       6  154164  154158       6  154164  154161       7  154170  154167
       6  154173  154167       6  154173  154170       7  154179  154176       6
  154182  154176       6  154182  154179       7  154188  154185       6  154191
  154185       6  154191  154188       7  154197  154194       6  154200  154194
       6  154200  154197       7  154206  154203       6  154209  154203       6
  154209  154206       7  154215  154212       6  154218  154212       6  154218
  154215       7  154224  154221       6  154227  154221       6  154227  154224
       7  154233  154230       6  154236  154230       6  154236  154233       7
  154242  154239       6  154245  154239       6  154245  154242       7  154251
  154248       6  154254  154248       6  154254  154251       7  154260  154257
       6  154263  154257       6  154263  154260       7  154269  154266       6
  154272  154266       6  154272  154269       7  154278  154275       6  154281
  154275       6  154281  154278       7  154287  154284       6  154290  154284
       6  154290  154287       7  154296  154293       6  154299  154293       6
  154299  154296       7  154305  154302       6  154308  154302       6  154308
  154305       7  154314  154311       6  154317  154311       6  154317  154314
       7  154323  154320       6  154326  154320       6  154326  154323       7
  154332  154329       6  154335  154329       6  154335  154332       7  154341
  154338       6  154344  154338       6  154344  154341       7  154350  154347
       6  154353  154347       6  154353  154350       7  154359  154356       6
  154362  154356       6  154362  154359       7  154368  154365       6  154371
  154365       6  154371  154368       7  154377  154374       6  154380  154374
       6  154380  154377       7  154386  154383       6  154389  154383       6
  154389  154386       7  154395  154392       6  154398  154392       6  154398
  154395       7  154404  154401       6  154407  154401       6  154407  154404
       7  154413  154410       6  154416  154410       6  154416  154413       7
  154422  154419       6  154425  154419       6  154425  154422       7  154431
  154428       6  154434  154428       6  154434  154431       7  154440  154437
       6  154443  154437       6  154443  154440       7  154449  154446       6
  154452  154446       6  154452  154449       7  154458  154455       6  154461
  154455       6  154461  154458       7  154467  154464       6  154470  154464
       6  154470  154467       7  154476  154473       6  154479  154473       6
  154479  154476       7  154485  154482       6  154488  154482       6  154488
  154485       7  154494  154491       6  154497  154491       6  154497  154494
       7  154503  154500       6  154506  154500       6  154506  154503       7
  154512  154509       6  154515  154509       6  154515  154512       7  154521
  154518       6  154524  154518       6  154524  154521       7  154530  154527
       6  154533  154527       6  154533  154530       7  154539  154536       6
  154542  154536       6  154542  154539       7  154548  154545       6  154551
  154545       6  154551  154548       7  154557  154554       6  154560  154554
       6  154560  154557       7  154566  154563       6  154569  154563       6
  154569  154566       7  154575  154572       6  154578  154572       6  154578
  154575       7  154584  154581       6  154587  154581       6  154587  154584
       7  154593  154590       6  154596  154590       6  154596  154593       7
  154602  154599       6  154605  154599       6  154605  154602       7  154611
  154608       6  154614  154608       6  154614  154611       7  154620  154617
       6  154623  154617       6  154623  154620       7  154629  154626       6
  154632  154626       6  154632  154629       7  154638  154635       6  154641
  154635       6  154641  154638       7  154647  154644       6  154650  154644
       6  154650  154647       7  154656  154653       6  154659  154653       6
  154659  154656       7  154665  154662       6  154668  154662       6  154668
  154665       7  154674  154671       6  154677  154671       6  154677  154674
       7  154683  154680       6  154686  154680       6  154686  154683       7
  154692  154689       6  154695  154689       6  154695  154692       7  154701
  154698       6  154704  154698       6  154704  154701       7  154710  154707
       6  154713  154707       6  154713  154710       7  154719  154716       6
  154722  154716       6  154722  154719       7  154728  154725       6  154731
  154725       6  154731  154728       7  154737  154734       6  154740  154734
       6  154740  154737       7  154746  154743       6  154749  154743       6
  154749  154746       7  154755  154752       6  154758  154752       6  154758
  154755       7  154764  154761       6  154767  154761       6  154767  154764
       7  154773  154770       6  154776  154770       6  154776  154773       7
  154782  154779       6  154785  154779       6  154785  154782       7  154791
  154788       6  154794  154788       6  154794  154791       7  154800  154797
       6  154803  154797       6  154803  154800       7  154809  154806       6
  154812  154806       6  154812  154809       7  154818  154815       6  154821
  154815       6  154821  154818       7  154827  154824       6  154830  154824
       6  154830  154827       7  154836  154833       6  154839  154833       6
  154839  154836       7  154845  154842       6  154848  154842       6  154848
  154845       7  154854  154851       6  154857  154851       6  154857  154854
       7  154863  154860       6  154866  154860       6  154866  154863       7
  154872  154869       6  154875  154869       6  154875  154872       7  154881
  154878       6  154884  154878       6  154884  154881       7  154890  154887
       6  154893  154887       6  154893  154890       7  154899  154896       6
  154902  154896       6  154902  154899       7  154908  154905       6  154911
  154905       6  154911  154908       7  154917  154914       6  154920  154914
       6  154920  154917       7  154926  154923       6  154929  154923       6
  154929  154926       7  154935  154932       6  154938  154932       6  154938
  154935       7  154944  154941       6  154947  154941       6  154947  154944
       7  154953  154950       6  154956  154950       6  154956  154953       7
  154962  154959       6  154965  154959       6  154965  154962       7  154971
  154968       6  154974  154968       6  154974  154971       7  154980  154977
       6  154983  154977       6  154983  154980       7  154989  154986       6
  154992  154986       6  154992  154989       7  154998  154995       6  155001
  154995       6  155001  154998       7  155007  155004       6  155010  155004
       6  155010  155007       7  155016  155013       6  155019  155013       6
  155019  155016       7  155025  155022       6  155028  155022       6  155028
  155025       7  155034  155031       6  155037  155031       6  155037  155034
       7  155043  155040       6  155046  155040       6  155046  155043       7
  155052  155049       6  155055  155049       6  155055  155052       7  155061
  155058       6  155064  155058       6  155064  155061       7  155070  155067
       6  155073  155067       6  155073  155070       7  155079  155076       6
  155082  155076       6  155082  155079       7  155088  155085       6  155091
  155085       6  155091  155088       7  155097  155094       6  155100  155094
       6  155100  155097       7  155106  155103       6  155109  155103       6
  155109  155106       7  155115  155112       6  155118  155112       6  155118
  155115       7  155124  155121       6  155127  155121       6  155127  155124
       7  155133  155130       6  155136  155130       6  155136  155133       7
  155142  155139       6  155145  155139       6  155145  155142       7  155151
  155148       6  155154  155148       6  155154  155151       7  155160  155157
       6  155163  155157       6  155163  155160       7  155169  155166       6
  155172  155166       6  155172  155169       7  155178  155175       6  155181
  155175       6  155181  155178       7  155187  155184       6  155190  155184
       6  155190  155187       7  155196  155193       6  155199  155193       6
  155199  155196       7  155205  155202       6  155208  155202       6  155208
  155205       7  155214  155211       6  155217  155211       6  155217  155214
       7  155223  155220       6  155226  155220       6  155226  155223       7
  155232  155229       6  155235  155229       6  155235  155232       7  155241
  155238       6  155244  155238       6  155244  155241       7  155250  155247
       6  155253  155247       6  155253  155250       7  155259  155256       6
  155262  155256       6  155262  155259       7  155268  155265       6  155271
  155265       6  155271  155268       7  155277  155274       6  155280  155274
       6  155280  155277       7  155286  155283       6  155289  155283       6
  155289  155286       7  155295  155292       6  155298  155292       6  155298
  155295       7  155304  155301       6  155307  155301       6  155307  155304
       7  155313  155310       6  155316  155310       6  155316  155313       7
  155322  155319       6  155325  155319       6  155325  155322       7  155331
  155328       6  155334  155328       6  155334  155331       7  155340  155337
       6  155343  155337       6  155343  155340       7  155349  155346       6
  155352  155346       6  155352  155349       7  155358  155355       6  155361
  155355       6  155361  155358       7  155367  155364       6  155370  155364
       6  155370  155367       7  155376  155373       6  155379  155373       6
  155379  155376       7  155385  155382       6  155388  155382       6  155388
  155385       7  155394  155391       6  155397  155391       6  155397  155394
       7  155403  155400       6  155406  155400       6  155406  155403       7
  155412  155409       6  155415  155409       6  155415  155412       7  155421
  155418       6  155424  155418       6  155424  155421       7  155430  155427
       6  155433  155427       6  155433  155430       7  155439  155436       6
  155442  155436       6  155442  155439       7  155448  155445       6  155451
  155445       6  155451  155448       7  155457  155454       6  155460  155454
       6  155460  155457       7  155466  155463       6  155469  155463       6
  155469  155466       7  155475  155472       6  155478  155472       6  155478
  155475       7  155484  155481       6  155487  155481       6  155487  155484
       7  155493  155490       6  155496  155490       6  155496  155493       7
  155502  155499       6  155505  155499       6  155505  155502       7  155511
  155508       6  155514  155508       6  155514  155511       7  155520  155517
       6  155523  155517       6  155523  155520       7  155529  155526       6
  155532  155526       6  155532  155529       7  155538  155535       6  155541
  155535       6  155541  155538       7  155547  155544       6  155550  155544
       6  155550  155547       7  155556  155553       6  155559  155553       6
  155559  155556       7  155565  155562       6  155568  155562       6  155568
  155565       7  155574  155571       6  155577  155571       6  155577  155574
       7  155583  155580       6  155586  155580       6  155586  155583       7
  155592  155589       6  155595  155589       6  155595  155592       7  155601
  155598       6  155604  155598       6  155604  155601       7  155610  155607
       6  155613  155607       6  155613  155610       7  155619  155616       6
  155622  155616       6  155622  155619       7  155628  155625       6  155631
  155625       6  155631  155628       7  155637  155634       6  155640  155634
       6  155640  155637       7  155646  155643       6  155649  155643       6
  155649  155646       7  155655  155652       6  155658  155652       6  155658
  155655       7  155664  155661       6  155667  155661       6  155667  155664
       7  155673  155670       6  155676  155670       6  155676  155673       7
  155682  155679       6  155685  155679       6  155685  155682       7  155691
  155688       6  155694  155688       6  155694  155691       7  155700  155697
       6  155703  155697       6  155703  155700       7  155709  155706       6
  155712  155706       6  155712  155709       7  155718  155715       6  155721
  155715       6  155721  155718       7  155727  155724       6  155730  155724
       6  155730  155727       7  155736  155733       6  155739  155733       6
  155739  155736       7  155745  155742       6  155748  155742       6  155748
  155745       7  155754  155751       6  155757  155751       6  155757  155754
       7  155763  155760       6  155766  155760       6  155766  155763       7
  155772  155769       6  155775  155769       6  155775  155772       7  155781
  155778       6  155784  155778       6  155784  155781       7  155790  155787
       6  155793  155787       6  155793  155790       7  155799  155796       6
  155802  155796       6  155802  155799       7  155808  155805       6  155811
  155805       6  155811  155808       7  155817  155814       6  155820  155814
       6  155820  155817       7  155826  155823       6  155829  155823       6
  155829  155826       7  155835  155832       6  155838  155832       6  155838
  155835       7  155844  155841       6  155847  155841       6  155847  155844
       7  155853  155850       6  155856  155850       6  155856  155853       7
  155862  155859       6  155865  155859       6  155865  155862       7  155871
  155868       6  155874  155868       6  155874  155871       7  155880  155877
       6  155883  155877       6  155883  155880       7  155889  155886       6
  155892  155886       6  155892  155889       7  155898  155895       6  155901
  155895       6  155901  155898       7  155907  155904       6  155910  155904
       6  155910  155907       7  155916  155913       6  155919  155913       6
  155919  155916       7  155925  155922       6  155928  155922       6  155928
  155925       7  155934  155931       6  155937  155931       6  155937  155934
       7  155943  155940       6  155946  155940       6  155946  155943       7
  155952  155949       6  155955  155949       6  155955  155952       7  155961
  155958       6  155964  155958       6  155964  155961       7  155970  155967
       6  155973  155967       6  155973  155970       7  155979  155976       6
  155982  155976       6  155982  155979       7  155988  155985       6  155991
  155985       6  155991  155988       7  155997  155994       6  156000  155994
       6  156000  155997       7  156006  156003       6  156009  156003       6
  156009  156006       7  156015  156012       6  156018  156012       6  156018
  156015       7  156024  156021       6  156027  156021       6  156027  156024
       7  156033  156030       6  156036  156030       6  156036  156033       7
  156042  156039       6  156045  156039       6  156045  156042       7  156051
  156048       6  156054  156048       6  156054  156051       7  156060  156057
       6  156063  156057       6  156063  156060       7  156069  156066       6
  156072  156066       6  156072  156069       7  156078  156075       6  156081
  156075       6  156081  156078       7  156087  156084       6  156090  156084
       6  156090  156087       7  156096  156093       6  156099  156093       6
  156099  156096       7  156105  156102       6  156108  156102       6  156108
  156105       7  156114  156111       6  156117  156111       6  156117  156114
       7  156123  156120       6  156126  156120       6  156126  156123       7
  156132  156129       6  156135  156129       6  156135  156132       7  156141
  156138       6  156144  156138       6  156144  156141       7  156150  156147
       6  156153  156147       6  156153  156150       7  156159  156156       6
  156162  156156       6  156162  156159       7  156168  156165       6  156171
  156165       6  156171  156168       7  156177  156174       6  156180  156174
       6  156180  156177       7  156186  156183       6  156189  156183       6
  156189  156186       7  156195  156192       6  156198  156192       6  156198
  156195       7  156204  156201       6  156207  156201       6  156207  156204
       7  156213  156210       6  156216  156210       6  156216  156213       7
  156222  156219       6  156225  156219       6  156225  156222       7  156231
  156228       6  156234  156228       6  156234  156231       7  156240  156237
       6  156243  156237       6  156243  156240       7  156249  156246       6
  156252  156246       6  156252  156249       7  156258  156255       6  156261
  156255       6  156261  156258       7  156267  156264       6  156270  156264
       6  156270  156267       7  156276  156273       6  156279  156273       6
  156279  156276       7  156285  156282       6  156288  156282       6  156288
  156285       7  156294  156291       6  156297  156291       6  156297  156294
       7  156303  156300       6  156306  156300       6  156306  156303       7
  156312  156309       6  156315  156309       6  156315  156312       7  156321
  156318       6  156324  156318       6  156324  156321       7  156330  156327
       6  156333  156327       6  156333  156330       7  156339  156336       6
  156342  156336       6  156342  156339       7  156348  156345       6  156351
  156345       6  156351  156348       7  156357  156354       6  156360  156354
       6  156360  156357       7  156366  156363       6  156369  156363       6
  156369  156366       7  156375  156372       6  156378  156372       6  156378
  156375       7  156384  156381       6  156387  156381       6  156387  156384
       7  156393  156390       6  156396  156390       6  156396  156393       7
  156402  156399       6  156405  156399       6  156405  156402       7  156411
  156408       6  156414  156408       6  156414  156411       7  156420  156417
       6  156423  156417       6  156423  156420       7  156429  156426       6
  156432  156426       6  156432  156429       7  156438  156435       6  156441
  156435       6  156441  156438       7  156447  156444       6  156450  156444
       6  156450  156447       7  156456  156453       6  156459  156453       6
  156459  156456       7  156465  156462       6  156468  156462       6  156468
  156465       7  156474  156471       6  156477  156471       6  156477  156474
       7  156483  156480       6  156486  156480       6  156486  156483       7
  156492  156489       6  156495  156489       6  156495  156492       7  156501
  156498       6  156504  156498       6  156504  156501       7  156510  156507
       6  156513  156507       6  156513  156510       7  156519  156516       6
  156522  156516       6  156522  156519       7  156528  156525       6  156531
  156525       6  156531  156528       7  156537  156534       6  156540  156534
       6  156540  156537       7  156546  156543       6  156549  156543       6
  156549  156546       7  156555  156552       6  156558  156552       6  156558
  156555       7  156564  156561       6  156567  156561       6  156567  156564
       7  156573  156570       6  156576  156570       6  156576  156573       7
  156582  156579       6  156585  156579       6  156585  156582       7  156591
  156588       6  156594  156588       6  156594  156591       7  156600  156597
       6  156603  156597       6  156603  156600       7  156609  156606       6
  156612  156606       6  156612  156609       7  156618  156615       6  156621
  156615       6  156621  156618       7  156627  156624       6  156630  156624
       6  156630  156627       7  156636  156633       6  156639  156633       6
  156639  156636       7  156645  156642       6  156648  156642       6  156648
  156645       7  156654  156651       6  156657  156651       6  156657  156654
       7  156663  156660       6  156666  156660       6  156666  156663       7
  156672  156669       6  156675  156669       6  156675  156672       7  156681
  156678       6  156684  156678       6  156684  156681       7  156690  156687
       6  156693  156687       6  156693  156690       7  156699  156696       6
  156702  156696       6  156702  156699       7  156708  156705       6  156711
  156705       6  156711  156708       7  156717  156714       6  156720  156714
       6  156720  156717       7  156726  156723       6  156729  156723       6
  156729  156726       7  156735  156732       6  156738  156732       6  156738
  156735       7  156744  156741       6  156747  156741       6  156747  156744
       7  156753  156750       6  156756  156750       6  156756  156753       7
  156762  156759       6  156765  156759       6  156765  156762       7  156771
  156768       6  156774  156768       6  156774  156771       7  156780  156777
       6  156783  156777       6  156783  156780       7  156789  156786       6
  156792  156786       6  156792  156789       7  156798  156795       6  156801
  156795       6  156801  156798       7  156807  156804       6  156810  156804
       6  156810  156807       7  156816  156813       6  156819  156813       6
  156819  156816       7  156825  156822       6  156828  156822       6  156828
  156825       7  156834  156831       6  156837  156831       6  156837  156834
       7  156843  156840       6  156846  156840       6  156846  156843       7
  156852  156849       6  156855  156849       6  156855  156852       7  156861
  156858       6  156864  156858       6  156864  156861       7  156870  156867
       6  156873  156867       6  156873  156870       7  156879  156876       6
  156882  156876       6  156882  156879       7  156888  156885       6  156891
  156885       6  156891  156888       7  156897  156894       6  156900  156894
       6  156900  156897       7  156906  156903       6  156909  156903       6
  156909  156906       7  156915  156912       6  156918  156912       6  156918
  156915       7  156924  156921       6  156927  156921       6  156927  156924
       7  156933  156930       6  156936  156930       6  156936  156933       7
  156942  156939       6  156945  156939       6  156945  156942       7  156951
  156948       6  156954  156948       6  156954  156951       7  156960  156957
       6  156963  156957       6  156963  156960       7  156969  156966       6
  156972  156966       6  156972  156969       7  156978  156975       6  156981
  156975       6  156981  156978       7  156987  156984       6  156990  156984
       6  156990  156987       7  156996  156993       6  156999  156993       6
  156999  156996       7  157005  157002       6  157008  157002       6  157008
  157005       7  157014  157011       6  157017  157011       6  157017  157014
       7  157023  157020       6  157026  157020       6  157026  157023       7
  157032  157029       6  157035  157029       6  157035  157032       7  157041
  157038       6  157044  157038       6  157044  157041       7  157050  157047
       6  157053  157047       6  157053  157050       7  157059  157056       6
  157062  157056       6  157062  157059       7  157068  157065       6  157071
  157065       6  157071  157068       7  157077  157074       6  157080  157074
       6  157080  157077       7  157086  157083       6  157089  157083       6
  157089  157086       7  157095  157092       6  157098  157092       6  157098
  157095       7  157104  157101       6  157107  157101       6  157107  157104
       7  157113  157110       6  157116  157110       6  157116  157113       7
  157122  157119       6  157125  157119       6  157125  157122       7  157131
  157128       6  157134  157128       6  157134  157131       7  157140  157137
       6  157143  157137       6  157143  157140       7  157149  157146       6
  157152  157146       6  157152  157149       7  157158  157155       6  157161
  157155       6  157161  157158       7  157167  157164       6  157170  157164
       6  157170  157167       7  157176  157173       6  157179  157173       6
  157179  157176       7  157185  157182       6  157188  157182       6  157188
  157185       7  157194  157191       6  157197  157191       6  157197  157194
       7  157203  157200       6  157206  157200       6  157206  157203       7
  157212  157209       6  157215  157209       6  157215  157212       7  157221
  157218       6  157224  157218       6  157224  157221       7  157230  157227
       6  157233  157227       6  157233  157230       7  157239  157236       6
  157242  157236       6  157242  157239       7  157248  157245       6  157251
  157245       6  157251  157248       7  157257  157254       6  157260  157254
       6  157260  157257       7  157266  157263       6  157269  157263       6
  157269  157266       7  157275  157272       6  157278  157272       6  157278
  157275       7  157284  157281       6  157287  157281       6  157287  157284
       7  157293  157290       6  157296  157290       6  157296  157293       7
  157302  157299       6  157305  157299       6  157305  157302       7  157311
  157308       6  157314  157308       6  157314  157311       7  157320  157317
       6  157323  157317       6  157323  157320       7  157329  157326       6
  157332  157326       6  157332  157329       7  157338  157335       6  157341
  157335       6  157341  157338       7  157347  157344       6  157350  157344
       6  157350  157347       7  157356  157353       6  157359  157353       6
  157359  157356       7  157365  157362       6  157368  157362       6  157368
  157365       7  157374  157371       6  157377  157371       6  157377  157374
       7  157383  157380       6  157386  157380       6  157386  157383       7
  157392  157389       6  157395  157389       6  157395  157392       7  157401
  157398       6  157404  157398       6  157404  157401       7  157410  157407
       6  157413  157407       6  157413  157410       7  157419  157416       6
  157422  157416       6  157422  157419       7  157428  157425       6  157431
  157425       6  157431  157428       7  157437  157434       6  157440  157434
       6  157440  157437       7  157446  157443       6  157449  157443       6
  157449  157446       7  157455  157452       6  157458  157452       6  157458
  157455       7  157464  157461       6  157467  157461       6  157467  157464
       7  157473  157470       6  157476  157470       6  157476  157473       7
  157482  157479       6  157485  157479       6  157485  157482       7  157491
  157488       6  157494  157488       6  157494  157491       7  157500  157497
       6  157503  157497       6  157503  157500       7  157509  157506       6
  157512  157506       6  157512  157509       7  157518  157515       6  157521
  157515       6  157521  157518       7  157527  157524       6  157530  157524
       6  157530  157527       7  157536  157533       6  157539  157533       6
  157539  157536       7  157545  157542       6  157548  157542       6  157548
  157545       7  157554  157551       6  157557  157551       6  157557  157554
       7  157563  157560       6  157566  157560       6  157566  157563       7
  157572  157569       6  157575  157569       6  157575  157572       7  157581
  157578       6  157584  157578       6  157584  157581       7  157590  157587
       6  157593  157587       6  157593  157590       7  157599  157596       6
  157602  157596       6  157602  157599       7  157608  157605       6  157611
  157605       6  157611  157608       7  157617  157614       6  157620  157614
       6  157620  157617       7  157626  157623       6  157629  157623       6
  157629  157626       7  157635  157632       6  157638  157632       6  157638
  157635       7  157644  157641       6  157647  157641       6  157647  157644
       7  157653  157650       6  157656  157650       6  157656  157653       7
  157662  157659       6  157665  157659       6  157665  157662       7  157671
  157668       6  157674  157668       6  157674  157671       7  157680  157677
       6  157683  157677       6  157683  157680       7  157689  157686       6
  157692  157686       6  157692  157689       7  157698  157695       6  157701
  157695       6  157701  157698       7  157707  157704       6  157710  157704
       6  157710  157707       7  157716  157713       6  157719  157713       6
  157719  157716       7  157725  157722       6  157728  157722       6  157728
  157725       7  157734  157731       6  157737  157731       6  157737  157734
       7  157743  157740       6  157746  157740       6  157746  157743       7
  157752  157749       6  157755  157749       6  157755  157752       7  157761
  157758       6  157764  157758       6  157764  157761       7  157770  157767
       6  157773  157767       6  157773  157770       7  157779  157776       6
  157782  157776       6  157782  157779       7  157788  157785       6  157791
  157785       6  157791  157788       7  157797  157794       6  157800  157794
       6  157800  157797       7  157806  157803       6  157809  157803       6
  157809  157806       7  157815  157812       6  157818  157812       6  157818
  157815       7  157824  157821       6  157827  157821       6  157827  157824
       7  157833  157830       6  157836  157830       6  157836  157833       7
  157842  157839       6  157845  157839       6  157845  157842       7  157851
  157848       6  157854  157848       6  157854  157851       7  157860  157857
       6  157863  157857       6  157863  157860       7  157869  157866       6
  157872  157866       6  157872  157869       7  157878  157875       6  157881
  157875       6  157881  157878       7  157887  157884       6  157890  157884
       6  157890  157887       7  157896  157893       6  157899  157893       6
  157899  157896       7  157905  157902       6  157908  157902       6  157908
  157905       7  157914  157911       6  157917  157911       6  157917  157914
       7  157923  157920       6  157926  157920       6  157926  157923       7
  157932  157929       6  157935  157929       6  157935  157932       7  157941
  157938       6  157944  157938       6  157944  157941       7  157950  157947
       6  157953  157947       6  157953  157950       7  157959  157956       6
  157962  157956       6  157962  157959       7  157968  157965       6  157971
  157965       6  157971  157968       7  157977  157974       6  157980  157974
       6  157980  157977       7  157986  157983       6  157989  157983       6
  157989  157986       7  157995  157992       6  157998  157992       6  157998
  157995       7  158004  158001       6  158007  158001       6  158007  158004
       7  158013  158010       6  158016  158010       6  158016  158013       7
  158022  158019       6  158025  158019       6  158025  158022       7  158031
  158028       6  158034  158028       6  158034  158031       7  158040  158037
       6  158043  158037       6  158043  158040       7  158049  158046       6
  158052  158046       6  158052  158049       7  158058  158055       6  158061
  158055       6  158061  158058       7  158067  158064       6  158070  158064
       6  158070  158067       7  158076  158073       6  158079  158073       6
  158079  158076       7  158085  158082       6  158088  158082       6  158088
  158085       7  158094  158091       6  158097  158091       6  158097  158094
       7  158103  158100       6  158106  158100       6  158106  158103       7
  158112  158109       6  158115  158109       6  158115  158112       7  158121
  158118       6  158124  158118       6  158124  158121       7  158130  158127
       6  158133  158127       6  158133  158130       7  158139  158136       6
  158142  158136       6  158142  158139       7  158148  158145       6  158151
  158145       6  158151  158148       7  158157  158154       6  158160  158154
       6  158160  158157       7  158166  158163       6  158169  158163       6
  158169  158166       7  158175  158172       6  158178  158172       6  158178
  158175       7  158184  158181       6  158187  158181       6  158187  158184
       7  158193  158190       6  158196  158190       6  158196  158193       7
  158202  158199       6  158205  158199       6  158205  158202       7  158211
  158208       6  158214  158208       6  158214  158211       7  158220  158217
       6  158223  158217       6  158223  158220       7  158229  158226       6
  158232  158226       6  158232  158229       7  158238  158235       6  158241
  158235       6  158241  158238       7  158247  158244       6  158250  158244
       6  158250  158247       7  158256  158253       6  158259  158253       6
  158259  158256       7  158265  158262       6  158268  158262       6  158268
  158265       7  158274  158271       6  158277  158271       6  158277  158274
       7  158283  158280       6  158286  158280       6  158286  158283       7
  158292  158289       6  158295  158289       6  158295  158292       7  158301
  158298       6  158304  158298       6  158304  158301       7  158310  158307
       6  158313  158307       6  158313  158310       7  158319  158316       6
  158322  158316       6  158322  158319       7  158328  158325       6  158331
  158325       6  158331  158328       7  158337  158334       6  158340  158334
       6  158340  158337       7  158346  158343       6  158349  158343       6
  158349  158346       7  158355  158352       6  158358  158352       6  158358
  158355       7  158364  158361       6  158367  158361       6  158367  158364
       7  158373  158370       6  158376  158370       6  158376  158373       7
  158382  158379       6  158385  158379       6  158385  158382       7  158391
  158388       6  158394  158388       6  158394  158391       7  158400  158397
       6  158403  158397       6  158403  158400       7  158409  158406       6
  158412  158406       6  158412  158409       7  158418  158415       6  158421
  158415       6  158421  158418       7  158427  158424       6  158430  158424
       6  158430  158427       7  158436  158433       6  158439  158433       6
  158439  158436       7  158445  158442       6  158448  158442       6  158448
  158445       7  158454  158451       6  158457  158451       6  158457  158454
       7  158463  158460       6  158466  158460       6  158466  158463       7
  158472  158469       6  158475  158469       6  158475  158472       7  158481
  158478       6  158484  158478       6  158484  158481       7  158490  158487
       6  158493  158487       6  158493  158490       7  158499  158496       6
  158502  158496       6  158502  158499       7  158508  158505       6  158511
  158505       6  158511  158508       7  158517  158514       6  158520  158514
       6  158520  158517       7  158526  158523       6  158529  158523       6
  158529  158526       7  158535  158532       6  158538  158532       6  158538
  158535       7  158544  158541       6  158547  158541       6  158547  158544
       7  158553  158550       6  158556  158550       6  158556  158553       7
  158562  158559       6  158565  158559       6  158565  158562       7  158571
  158568       6  158574  158568       6  158574  158571       7  158580  158577
       6  158583  158577       6  158583  158580       7  158589  158586       6
  158592  158586       6  158592  158589       7  158598  158595       6  158601
  158595       6  158601  158598       7  158607  158604       6  158610  158604
       6  158610  158607       7  158616  158613       6  158619  158613       6
  158619  158616       7  158625  158622       6  158628  158622       6  158628
  158625       7  158634  158631       6  158637  158631       6  158637  158634
       7  158643  158640       6  158646  158640       6  158646  158643       7
  158652  158649       6  158655  158649       6  158655  158652       7  158661
  158658       6  158664  158658       6  158664  158661       7  158670  158667
       6  158673  158667       6  158673  158670       7  158679  158676       6
  158682  158676       6  158682  158679       7  158688  158685       6  158691
  158685       6  158691  158688       7  158697  158694       6  158700  158694
       6  158700  158697       7  158706  158703       6  158709  158703       6
  158709  158706       7  158715  158712       6  158718  158712       6  158718
  158715       7  158724  158721       6  158727  158721       6  158727  158724
       7  158733  158730       6  158736  158730       6  158736  158733       7
  158742  158739       6  158745  158739       6  158745  158742       7  158751
  158748       6  158754  158748       6  158754  158751       7  158760  158757
       6  158763  158757       6  158763  158760       7  158769  158766       6
  158772  158766       6  158772  158769       7  158778  158775       6  158781
  158775       6  158781  158778       7  158787  158784       6  158790  158784
       6  158790  158787       7  158796  158793       6  158799  158793       6
  158799  158796       7  158805  158802       6  158808  158802       6  158808
  158805       7  158814  158811       6  158817  158811       6  158817  158814
       7  158823  158820       6  158826  158820       6  158826  158823       7
  158832  158829       6  158835  158829       6  158835  158832       7  158841
  158838       6  158844  158838       6  158844  158841       7  158850  158847
       6  158853  158847       6  158853  158850       7  158859  158856       6
  158862  158856       6  158862  158859       7  158868  158865       6  158871
  158865       6  158871  158868       7  158877  158874       6  158880  158874
       6  158880  158877       7  158886  158883       6  158889  158883       6
  158889  158886       7  158895  158892       6  158898  158892       6  158898
  158895       7  158904  158901       6  158907  158901       6  158907  158904
       7  158913  158910       6  158916  158910       6  158916  158913       7
  158922  158919       6  158925  158919       6  158925  158922       7  158931
  158928       6  158934  158928       6  158934  158931       7  158940  158937
       6  158943  158937       6  158943  158940       7  158949  158946       6
  158952  158946       6  158952  158949       7  158958  158955       6  158961
  158955       6  158961  158958       7  158967  158964       6  158970  158964
       6  158970  158967       7  158976  158973       6  158979  158973       6
  158979  158976       7  158985  158982       6  158988  158982       6  158988
  158985       7  158994  158991       6  158997  158991       6  158997  158994
       7  159003  159000       6  159006  159000       6  159006  159003       7
  159012  159009       6  159015  159009       6  159015  159012       7  159021
  159018       6  159024  159018       6  159024  159021       7  159030  159027
       6  159033  159027       6  159033  159030       7  159039  159036       6
  159042  159036       6  159042  159039       7  159048  159045       6  159051
  159045       6  159051  159048       7  159057  159054       6  159060  159054
       6  159060  159057       7  159066  159063       6  159069  159063       6
  159069  159066       7  159075  159072       6  159078  159072       6  159078
  159075       7  159084  159081       6  159087  159081       6  159087  159084
       7  159093  159090       6  159096  159090       6  159096  159093       7
  159102  159099       6  159105  159099       6  159105  159102       7  159111
  159108       6  159114  159108       6  159114  159111       7  159120  159117
       6  159123  159117       6  159123  159120       7  159129  159126       6
  159132  159126       6  159132  159129       7  159138  159135       6  159141
  159135       6  159141  159138       7  159147  159144       6  159150  159144
       6  159150  159147       7  159156  159153       6  159159  159153       6
  159159  159156       7  159165  159162       6  159168  159162       6  159168
  159165       7  159174  159171       6  159177  159171       6  159177  159174
       7  159183  159180       6  159186  159180       6  159186  159183       7
  159192  159189       6  159195  159189       6  159195  159192       7  159201
  159198       6  159204  159198       6  159204  159201       7  159210  159207
       6  159213  159207       6  159213  159210       7  159219  159216       6
  159222  159216       6  159222  159219       7  159228  159225       6  159231
  159225       6  159231  159228       7  159237  159234       6  159240  159234
       6  159240  159237       7  159246  159243       6  159249  159243       6
  159249  159246       7  159255  159252       6  159258  159252       6  159258
  159255       7  159264  159261       6  159267  159261       6  159267  159264
       7  159273  159270       6  159276  159270       6  159276  159273       7
  159282  159279       6  159285  159279       6  159285  159282       7  159291
  159288       6  159294  159288       6  159294  159291       7  159300  159297
       6  159303  159297       6  159303  159300       7  159309  159306       6
  159312  159306       6  159312  159309       7  159318  159315       6  159321
  159315       6  159321  159318       7  159327  159324       6  159330  159324
       6  159330  159327       7  159336  159333       6  159339  159333       6
  159339  159336       7  159345  159342       6  159348  159342       6  159348
  159345       7  159354  159351       6  159357  159351       6  159357  159354
       7  159363  159360       6  159366  159360       6  159366  159363       7
  159372  159369       6  159375  159369       6  159375  159372       7  159381
  159378       6  159384  159378       6  159384  159381       7  159390  159387
       6  159393  159387       6  159393  159390       7  159399  159396       6
  159402  159396       6  159402  159399       7  159408  159405       6  159411
  159405       6  159411  159408       7  159417  159414       6  159420  159414
       6  159420  159417       7  159426  159423       6  159429  159423       6
  159429  159426       7  159435  159432       6  159438  159432       6  159438
  159435       7  159444  159441       6  159447  159441       6  159447  159444
       7  159453  159450       6  159456  159450       6  159456  159453       7
  159462  159459       6  159465  159459       6  159465  159462       7  159471
  159468       6  159474  159468       6  159474  159471       7  159480  159477
       6  159483  159477       6  159483  159480       7  159489  159486       6
  159492  159486       6  159492  159489       7  159498  159495       6  159501
  159495       6  159501  159498       7  159507  159504       6  159510  159504
       6  159510  159507       7  159516  159513       6  159519  159513       6
  159519  159516       7  159525  159522       6  159528  159522       6  159528
  159525       7  159534  159531       6  159537  159531       6  159537  159534
       7  159543  159540       6  159546  159540       6  159546  159543       7
  159552  159549       6  159555  159549       6  159555  159552       7  159561
  159558       6  159564  159558       6  159564  159561       7  159570  159567
       6  159573  159567       6  159573  159570       7  159579  159576       6
  159582  159576       6  159582  159579       7  159588  159585       6  159591
  159585       6  159591  159588       7  159597  159594       6  159600  159594
       6  159600  159597       7  159606  159603       6  159609  159603       6
  159609  159606       7  159615  159612       6  159618  159612       6  159618
  159615       7  159624  159621       6  159627  159621       6  159627  159624
       7  159633  159630       6  159636  159630       6  159636  159633       7
  159642  159639       6  159645  159639       6  159645  159642       7  159651
  159648       6  159654  159648       6  159654  159651       7  159660  159657
       6  159663  159657       6  159663  159660       7  159669  159666       6
  159672  159666       6  159672  159669       7  159678  159675       6  159681
  159675       6  159681  159678       7  159687  159684       6  159690  159684
       6  159690  159687       7  159696  159693       6  159699  159693       6
  159699  159696       7  159705  159702       6  159708  159702       6  159708
  159705       7  159714  159711       6  159717  159711       6  159717  159714
       7  159723  159720       6  159726  159720       6  159726  159723       7
  159732  159729       6  159735  159729       6  159735  159732       7  159741
  159738       6  159744  159738       6  159744  159741       7  159750  159747
       6  159753  159747       6  159753  159750       7  159759  159756       6
  159762  159756       6  159762  159759       7  159768  159765       6  159771
  159765       6  159771  159768       7  159777  159774       6  159780  159774
       6  159780  159777       7  159786  159783       6  159789  159783       6
  159789  159786       7  159795  159792       6  159798  159792       6  159798
  159795       7  159804  159801       6  159807  159801       6  159807  159804
       7  159813  159810       6  159816  159810       6  159816  159813       7
  159822  159819       6  159825  159819       6  159825  159822       7  159831
  159828       6  159834  159828       6  159834  159831       7  159840  159837
       6  159843  159837       6  159843  159840       7  159849  159846       6
  159852  159846       6  159852  159849       7  159858  159855       6  159861
  159855       6  159861  159858       7  159867  159864       6  159870  159864
       6  159870  159867       7  159876  159873       6  159879  159873       6
  159879  159876       7  159885  159882       6  159888  159882       6  159888
  159885       7  159894  159891       6  159897  159891       6  159897  159894
       7  159903  159900       6  159906  159900       6  159906  159903       7
  159912  159909       6  159915  159909       6  159915  159912       7  159921
  159918       6  159924  159918       6  159924  159921       7  159930  159927
       6  159933  159927       6  159933  159930       7  159939  159936       6
  159942  159936       6  159942  159939       7  159948  159945       6  159951
  159945       6  159951  159948       7  159957  159954       6  159960  159954
       6  159960  159957       7  159966  159963       6  159969  159963       6
  159969  159966       7  159975  159972       6  159978  159972       6  159978
  159975       7  159984  159981       6  159987  159981       6  159987  159984
       7  159993  159990       6  159996  159990       6  159996  159993       7
  160002  159999       6  160005  159999       6  160005  160002       7  160011
  160008       6  160014  160008       6  160014  160011       7  160020  160017
       6  160023  160017       6  160023  160020       7  160029  160026       6
  160032  160026       6  160032  160029       7  160038  160035       6  160041
  160035       6  160041  160038       7  160047  160044       6  160050  160044
       6  160050  160047       7  160056  160053       6  160059  160053       6
  160059  160056       7  160065  160062       6  160068  160062       6  160068
  160065       7  160074  160071       6  160077  160071       6  160077  160074
       7  160083  160080       6  160086  160080       6  160086  160083       7
  160092  160089       6  160095  160089       6  160095  160092       7  160101
  160098       6  160104  160098       6  160104  160101       7  160110  160107
       6  160113  160107       6  160113  160110       7  160119  160116       6
  160122  160116       6  160122  160119       7  160128  160125       6  160131
  160125       6  160131  160128       7  160137  160134       6  160140  160134
       6  160140  160137       7  160146  160143       6  160149  160143       6
  160149  160146       7  160155  160152       6  160158  160152       6  160158
  160155       7  160164  160161       6  160167  160161       6  160167  160164
       7  160173  160170       6  160176  160170       6  160176  160173       7
  160182  160179       6  160185  160179       6  160185  160182       7  160191
  160188       6  160194  160188       6  160194  160191       7  160200  160197
       6  160203  160197       6  160203  160200       7  160209  160206       6
  160212  160206       6  160212  160209       7  160218  160215       6  160221
  160215       6  160221  160218       7  160227  160224       6  160230  160224
       6  160230  160227       7  160236  160233       6  160239  160233       6
  160239  160236       7  160245  160242       6  160248  160242       6  160248
  160245       7  160254  160251       6  160257  160251       6  160257  160254
       7  160263  160260       6  160266  160260       6  160266  160263       7
  160272  160269       6  160275  160269       6  160275  160272       7  160281
  160278       6  160284  160278       6  160284  160281       7  160290  160287
       6  160293  160287       6  160293  160290       7  160299  160296       6
  160302  160296       6  160302  160299       7  160308  160305       6  160311
  160305       6  160311  160308       7  160317  160314       6  160320  160314
       6  160320  160317       7  160326  160323       6  160329  160323       6
  160329  160326       7  160335  160332       6  160338  160332       6  160338
  160335       7  160344  160341       6  160347  160341       6  160347  160344
       7  160353  160350       6  160356  160350       6  160356  160353       7
  160362  160359       6  160365  160359       6  160365  160362       7  160371
  160368       6  160374  160368       6  160374  160371       7  160380  160377
       6  160383  160377       6  160383  160380       7  160389  160386       6
  160392  160386       6  160392  160389       7  160398  160395       6  160401
  160395       6  160401  160398       7  160407  160404       6  160410  160404
       6  160410  160407       7  160416  160413       6  160419  160413       6
  160419  160416       7  160425  160422       6  160428  160422       6  160428
  160425       7  160434  160431       6  160437  160431       6  160437  160434
       7  160443  160440       6  160446  160440       6  160446  160443       7
  160452  160449       6  160455  160449       6  160455  160452       7  160461
  160458       6  160464  160458       6  160464  160461       7  160470  160467
       6  160473  160467       6  160473  160470       7  160479  160476       6
  160482  160476       6  160482  160479       7  160488  160485       6  160491
  160485       6  160491  160488       7  160497  160494       6  160500  160494
       6  160500  160497       7  160506  160503       6  160509  160503       6
  160509  160506       7  160515  160512       6  160518  160512       6  160518
  160515       7  160524  160521       6  160527  160521       6  160527  160524
       7  160533  160530       6  160536  160530       6  160536  160533       7
  160542  160539       6  160545  160539       6  160545  160542       7  160551
  160548       6  160554  160548       6  160554  160551       7  160560  160557
       6  160563  160557       6  160563  160560       7  160569  160566       6
  160572  160566       6  160572  160569       7  160578  160575       6  160581
  160575       6  160581  160578       7  160587  160584       6  160590  160584
       6  160590  160587       7  160596  160593       6  160599  160593       6
  160599  160596       7  160605  160602       6  160608  160602       6  160608
  160605       7  160614  160611       6  160617  160611       6  160617  160614
       7  160623  160620       6  160626  160620       6  160626  160623       7
  160632  160629       6  160635  160629       6  160635  160632       7  160641
  160638       6  160644  160638       6  160644  160641       7  160650  160647
       6  160653  160647       6  160653  160650       7  160659  160656       6
  160662  160656       6  160662  160659       7  160668  160665       6  160671
  160665       6  160671  160668       7  160677  160674       6  160680  160674
       6  160680  160677       7  160686  160683       6  160689  160683       6
  160689  160686       7  160695  160692       6  160698  160692       6  160698
  160695       7  160704  160701       6  160707  160701       6  160707  160704
       7  160713  160710       6  160716  160710       6  160716  160713       7
  160722  160719       6  160725  160719       6  160725  160722       7  160731
  160728       6  160734  160728       6  160734  160731       7  160740  160737
       6  160743  160737       6  160743  160740       7  160749  160746       6
  160752  160746       6  160752  160749       7  160758  160755       6  160761
  160755       6  160761  160758       7  160767  160764       6  160770  160764
       6  160770  160767       7  160776  160773       6  160779  160773       6
  160779  160776       7  160785  160782       6  160788  160782       6  160788
  160785       7  160794  160791       6  160797  160791       6  160797  160794
       7  160803  160800       6  160806  160800       6  160806  160803       7
  160812  160809       6  160815  160809       6  160815  160812       7  160821
  160818       6  160824  160818       6  160824  160821       7  160830  160827
       6  160833  160827       6  160833  160830       7  160839  160836       6
  160842  160836       6  160842  160839       7  160848  160845       6  160851
  160845       6  160851  160848       7  160857  160854       6  160860  160854
       6  160860  160857       7  160866  160863       6  160869  160863       6
  160869  160866       7  160875  160872       6  160878  160872       6  160878
  160875       7  160884  160881       6  160887  160881       6  160887  160884
       7  160893  160890       6  160896  160890       6  160896  160893       7
  160902  160899       6  160905  160899       6  160905  160902       7  160911
  160908       6  160914  160908       6  160914  160911       7  160920  160917
       6  160923  160917       6  160923  160920       7  160929  160926       6
  160932  160926       6  160932  160929       7  160938  160935       6  160941
  160935       6  160941  160938       7  160947  160944       6  160950  160944
       6  160950  160947       7  160956  160953       6  160959  160953       6
  160959  160956       7  160965  160962       6  160968  160962       6  160968
  160965       7  160974  160971       6  160977  160971       6  160977  160974
       7  160983  160980       6  160986  160980       6  160986  160983       7
  160992  160989       6  160995  160989       6  160995  160992       7  161001
  160998       6  161004  160998       6  161004  161001       7  161010  161007
       6  161013  161007       6  161013  161010       7  161019  161016       6
  161022  161016       6  161022  161019       7  161028  161025       6  161031
  161025       6  161031  161028       7  161037  161034       6  161040  161034
       6  161040  161037       7  161046  161043       6  161049  161043       6
  161049  161046       7  161055  161052       6  161058  161052       6  161058
  161055       7  161064  161061       6  161067  161061       6  161067  161064
       7  161073  161070       6  161076  161070       6  161076  161073       7
  161082  161079       6  161085  161079       6  161085  161082       7  161091
  161088       6  161094  161088       6  161094  161091       7  161100  161097
       6  161103  161097       6  161103  161100       7  161109  161106       6
  161112  161106       6  161112  161109       7  161118  161115       6  161121
  161115       6  161121  161118       7  161127  161124       6  161130  161124
       6  161130  161127       7  161136  161133       6  161139  161133       6
  161139  161136       7  161145  161142       6  161148  161142       6  161148
  161145       7  161154  161151       6  161157  161151       6  161157  161154
       7  161163  161160       6  161166  161160       6  161166  161163       7
  161172  161169       6  161175  161169       6  161175  161172       7  161181
  161178       6  161184  161178       6  161184  161181       7  161190  161187
       6  161193  161187       6  161193  161190       7  161199  161196       6
  161202  161196       6  161202  161199       7  161208  161205       6  161211
  161205       6  161211  161208       7  161217  161214       6  161220  161214
       6  161220  161217       7  161226  161223       6  161229  161223       6
  161229  161226       7  161235  161232       6  161238  161232       6  161238
  161235       7  161244  161241       6  161247  161241       6  161247  161244
       7  161253  161250       6  161256  161250       6  161256  161253       7
  161262  161259       6  161265  161259       6  161265  161262       7  161271
  161268       6  161274  161268       6  161274  161271       7  161280  161277
       6  161283  161277       6  161283  161280       7  161289  161286       6
  161292  161286       6  161292  161289       7  161298  161295       6  161301
  161295       6  161301  161298       7  161307  161304       6  161310  161304
       6  161310  161307       7  161316  161313       6  161319  161313       6
  161319  161316       7  161325  161322       6  161328  161322       6  161328
  161325       7  161334  161331       6  161337  161331       6  161337  161334
       7  161343  161340       6  161346  161340       6  161346  161343       7
  161352  161349       6  161355  161349       6  161355  161352       7  161361
  161358       6  161364  161358       6  161364  161361       7  161370  161367
       6  161373  161367       6  161373  161370       7  161379  161376       6
  161382  161376       6  161382  161379       7  161388  161385       6  161391
  161385       6  161391  161388       7  161397  161394       6  161400  161394
       6  161400  161397       7  161406  161403       6  161409  161403       6
  161409  161406       7  161415  161412       6  161418  161412       6  161418
  161415       7  161424  161421       6  161427  161421       6  161427  161424
       7  161433  161430       6  161436  161430       6  161436  161433       7
  161442  161439       6  161445  161439       6  161445  161442       7  161451
  161448       6  161454  161448       6  161454  161451       7  161460  161457
       6  161463  161457       6  161463  161460       7  161469  161466       6
  161472  161466       6  161472  161469       7  161478  161475       6  161481
  161475       6  161481  161478       7  161487  161484       6  161490  161484
       6  161490  161487       7  161496  161493       6  161499  161493       6
  161499  161496       7  161505  161502       6  161508  161502       6  161508
  161505       7  161514  161511       6  161517  161511       6  161517  161514
       7  161523  161520       6  161526  161520       6  161526  161523       7
  161532  161529       6  161535  161529       6  161535  161532       7  161541
  161538       6  161544  161538       6  161544  161541       7  161550  161547
       6  161553  161547       6  161553  161550       7  161559  161556       6
  161562  161556       6  161562  161559       7  161568  161565       6  161571
  161565       6  161571  161568       7  161577  161574       6  161580  161574
       6  161580  161577       7  161586  161583       6  161589  161583       6
  161589  161586       7  161595  161592       6  161598  161592       6  161598
  161595       7  161604  161601       6  161607  161601       6  161607  161604
       7  161613  161610       6  161616  161610       6  161616  161613       7
  161622  161619       6  161625  161619       6  161625  161622       7  161631
  161628       6  161634  161628       6  161634  161631       7  161640  161637
       6  161643  161637       6  161643  161640       7  161649  161646       6
  161652  161646       6  161652  161649       7  161658  161655       6  161661
  161655       6  161661  161658       7  161667  161664       6  161670  161664
       6  161670  161667       7  161676  161673       6  161679  161673       6
  161679  161676       7  161685  161682       6  161688  161682       6  161688
  161685       7  161694  161691       6  161697  161691       6  161697  161694
       7  161703  161700       6  161706  161700       6  161706  161703       7
  161712  161709       6  161715  161709       6  161715  161712       7  161721
  161718       6  161724  161718       6  161724  161721       7  161730  161727
       6  161733  161727       6  161733  161730       7  161739  161736       6
  161742  161736       6  161742  161739       7  161748  161745       6  161751
  161745       6  161751  161748       7  161757  161754       6  161760  161754
       6  161760  161757       7  161766  161763       6  161769  161763       6
  161769  161766       7  161775  161772       6  161778  161772       6  161778
  161775       7  161784  161781       6  161787  161781       6  161787  161784
       7  161793  161790       6  161796  161790       6  161796  161793       7
  161802  161799       6  161805  161799       6  161805  161802       7  161811
  161808       6  161814  161808       6  161814  161811       7  161820  161817
       6  161823  161817       6  161823  161820       7  161829  161826       6
  161832  161826       6  161832  161829       7  161838  161835       6  161841
  161835       6  161841  161838       7  161847  161844       6  161850  161844
       6  161850  161847       7  161856  161853       6  161859  161853       6
  161859  161856       7  161865  161862       6  161868  161862       6  161868
  161865       7  161874  161871       6  161877  161871       6  161877  161874
       7  161883  161880       6  161886  161880       6  161886  161883       7
  161892  161889       6  161895  161889       6  161895  161892       7  161901
  161898       6  161904  161898       6  161904  161901       7  161910  161907
       6  161913  161907       6  161913  161910       7  161919  161916       6
  161922  161916       6  161922  161919       7  161928  161925       6  161931
  161925       6  161931  161928       7  161937  161934       6  161940  161934
       6  161940  161937       7  161946  161943       6  161949  161943       6
  161949  161946       7  161955  161952       6  161958  161952       6  161958
  161955       7  161964  161961       6  161967  161961       6  161967  161964
       7  161973  161970       6  161976  161970       6  161976  161973       7
  161982  161979       6  161985  161979       6  161985  161982       7  161991
  161988       6  161994  161988       6  161994  161991       7  162000  161997
       6  162003  161997       6  162003  162000       7  162009  162006       6
  162012  162006       6  162012  162009       7  162018  162015       6  162021
  162015       6  162021  162018       7  162027  162024       6  162030  162024
       6  162030  162027       7  162036  162033       6  162039  162033       6
  162039  162036       7  162045  162042       6  162048  162042       6  162048
  162045       7  162054  162051       6  162057  162051       6  162057  162054
       7  162063  162060       6  162066  162060       6  162066  162063       7
  162072  162069       6  162075  162069       6  162075  162072       7  162081
  162078       6  162084  162078       6  162084  162081       7  162090  162087
       6  162093  162087       6  162093  162090       7  162099  162096       6
  162102  162096       6  162102  162099       7  162108  162105       6  162111
  162105       6  162111  162108       7  162117  162114       6  162120  162114
       6  162120  162117       7  162126  162123       6  162129  162123       6
  162129  162126       7  162135  162132       6  162138  162132       6  162138
  162135       7  162144  162141       6  162147  162141       6  162147  162144
       7  162153  162150       6  162156  162150       6  162156  162153       7
  162162  162159       6  162165  162159       6  162165  162162       7  162171
  162168       6  162174  162168       6  162174  162171       7  162180  162177
       6  162183  162177       6  162183  162180       7  162189  162186       6
  162192  162186       6  162192  162189       7  162198  162195       6  162201
  162195       6  162201  162198       7  162207  162204       6  162210  162204
       6  162210  162207       7  162216  162213       6  162219  162213       6
  162219  162216       7  162225  162222       6  162228  162222       6  162228
  162225       7  162234  162231       6  162237  162231       6  162237  162234
       7  162243  162240       6  162246  162240       6  162246  162243       7
  162252  162249       6  162255  162249       6  162255  162252       7  162261
  162258       6  162264  162258       6  162264  162261       7  162270  162267
       6  162273  162267       6  162273  162270       7  162279  162276       6
  162282  162276       6  162282  162279       7  162288  162285       6  162291
  162285       6  162291  162288       7  162297  162294       6  162300  162294
       6  162300  162297       7  162306  162303       6  162309  162303       6
  162309  162306       7  162315  162312       6  162318  162312       6  162318
  162315       7  162324  162321       6  162327  162321       6  162327  162324
       7  162333  162330       6  162336  162330       6  162336  162333       7
  162342  162339       6  162345  162339       6  162345  162342       7  162351
  162348       6  162354  162348       6  162354  162351       7  162360  162357
       6  162363  162357       6  162363  162360       7  162369  162366       6
  162372  162366       6  162372  162369       7  162378  162375       6  162381
  162375       6  162381  162378       7  162387  162384       6  162390  162384
       6  162390  162387       7  162396  162393       6  162399  162393       6
  162399  162396       7  162405  162402       6  162408  162402       6  162408
  162405       7  162414  162411       6  162417  162411       6  162417  162414
       7  162423  162420       6  162426  162420       6  162426  162423       7
  162432  162429       6  162435  162429       6  162435  162432       7  162441
  162438       6  162444  162438       6  162444  162441       7  162450  162447
       6  162453  162447       6  162453  162450       7  162459  162456       6
  162462  162456       6  162462  162459       7  162468  162465       6  162471
  162465       6  162471  162468       7  162477  162474       6  162480  162474
       6  162480  162477       7  162486  162483       6  162489  162483       6
  162489  162486       7  162495  162492       6  162498  162492       6  162498
  162495       7  162504  162501       6  162507  162501       6  162507  162504
       7  162513  162510       6  162516  162510       6  162516  162513       7
  162522  162519       6  162525  162519       6  162525  162522       7  162531
  162528       6  162534  162528       6  162534  162531       7  162540  162537
       6  162543  162537       6  162543  162540       7  162549  162546       6
  162552  162546       6  162552  162549       7  162558  162555       6  162561
  162555       6  162561  162558       7  162567  162564       6  162570  162564
       6  162570  162567       7  162576  162573       6  162579  162573       6
  162579  162576       7  162585  162582       6  162588  162582       6  162588
  162585       7  162594  162591       6  162597  162591       6  162597  162594
       7  162603  162600       6  162606  162600       6  162606  162603       7
  162612  162609       6  162615  162609       6  162615  162612       7  162621
  162618       6  162624  162618       6  162624  162621       7  162630  162627
       6  162633  162627       6  162633  162630       7  162639  162636       6
  162642  162636       6  162642  162639       7  162648  162645       6  162651
  162645       6  162651  162648       7  162657  162654       6  162660  162654
       6  162660  162657       7  162666  162663       6  162669  162663       6
  162669  162666       7  162675  162672       6  162678  162672       6  162678
  162675       7  162684  162681       6  162687  162681       6  162687  162684
       7  162693  162690       6  162696  162690       6  162696  162693       7
  162702  162699       6  162705  162699       6  162705  162702       7  162711
  162708       6  162714  162708       6  162714  162711       7  162720  162717
       6  162723  162717       6  162723  162720       7  162729  162726       6
  162732  162726       6  162732  162729       7  162738  162735       6  162741
  162735       6  162741  162738       7  162747  162744       6  162750  162744
       6  162750  162747       7  162756  162753       6  162759  162753       6
  162759  162756       7  162765  162762       6  162768  162762       6  162768
  162765       7  162774  162771       6  162777  162771       6  162777  162774
       7  162783  162780       6  162786  162780       6  162786  162783       7
  162792  162789       6  162795  162789       6  162795  162792       7  162801
  162798       6  162804  162798       6  162804  162801       7  162810  162807
       6  162813  162807       6  162813  162810       7  162819  162816       6
  162822  162816       6  162822  162819       7  162828  162825       6  162831
  162825       6  162831  162828       7  162837  162834       6  162840  162834
       6  162840  162837       7  162846  162843       6  162849  162843       6
  162849  162846       7  162855  162852       6  162858  162852       6  162858
  162855       7  162864  162861       6  162867  162861       6  162867  162864
       7  162873  162870       6  162876  162870       6  162876  162873       7
  162882  162879       6  162885  162879       6  162885  162882       7  162891
  162888       6  162894  162888       6  162894  162891       7  162900  162897
       6  162903  162897       6  162903  162900       7  162909  162906       6
  162912  162906       6  162912  162909       7  162918  162915       6  162921
  162915       6  162921  162918       7  162927  162924       6  162930  162924
       6  162930  162927       7  162936  162933       6  162939  162933       6
  162939  162936       7  162945  162942       6  162948  162942       6  162948
  162945       7  162954  162951       6  162957  162951       6  162957  162954
       7  162963  162960       6  162966  162960       6  162966  162963       7
  162972  162969       6  162975  162969       6  162975  162972       7  162981
  162978       6  162984  162978       6  162984  162981       7  162990  162987
       6  162993  162987       6  162993  162990       7  162999  162996       6
  163002  162996       6  163002  162999       7  163008  163005       6  163011
  163005       6  163011  163008       7  163017  163014       6  163020  163014
       6  163020  163017       7  163026  163023       6  163029  163023       6
  163029  163026       7  163035  163032       6  163038  163032       6  163038
  163035       7  163044  163041       6  163047  163041       6  163047  163044
       7  163053  163050       6  163056  163050       6  163056  163053       7
  163062  163059       6  163065  163059       6  163065  163062       7  163071
  163068       6  163074  163068       6  163074  163071       7  163080  163077
       6  163083  163077       6  163083  163080       7  163089  163086       6
  163092  163086       6  163092  163089       7  163098  163095       6  163101
  163095       6  163101  163098       7  163107  163104       6  163110  163104
       6  163110  163107       7  163116  163113       6  163119  163113       6
  163119  163116       7  163125  163122       6  163128  163122       6  163128
  163125       7  163134  163131       6  163137  163131       6  163137  163134
       7  163143  163140       6  163146  163140       6  163146  163143       7
  163152  163149       6  163155  163149       6  163155  163152       7  163161
  163158       6  163164  163158       6  163164  163161       7  163170  163167
       6  163173  163167       6  163173  163170       7  163179  163176       6
  163182  163176       6  163182  163179       7  163188  163185       6  163191
  163185       6  163191  163188       7  163197  163194       6  163200  163194
       6  163200  163197       7  163206  163203       6  163209  163203       6
  163209  163206       7  163215  163212       6  163218  163212       6  163218
  163215       7  163224  163221       6  163227  163221       6  163227  163224
       7  163233  163230       6  163236  163230       6  163236  163233       7
  163242  163239       6  163245  163239       6  163245  163242       7  163251
  163248       6  163254  163248       6  163254  163251       7  163260  163257
       6  163263  163257       6  163263  163260       7  163269  163266       6
  163272  163266       6  163272  163269       7  163278  163275       6  163281
  163275       6  163281  163278       7  163287  163284       6  163290  163284
       6  163290  163287       7  163296  163293       6  163299  163293       6
  163299  163296       7  163305  163302       6  163308  163302       6  163308
  163305       7  163314  163311       6  163317  163311       6  163317  163314
       7  163323  163320       6  163326  163320       6  163326  163323       7
  163332  163329       6  163335  163329       6  163335  163332       7  163341
  163338       6  163344  163338       6  163344  163341       7  163350  163347
       6  163353  163347       6  163353  163350       7  163359  163356       6
  163362  163356       6  163362  163359       7  163368  163365       6  163371
  163365       6  163371  163368       7  163377  163374       6  163380  163374
       6  163380  163377       7  163386  163383       6  163389  163383       6
  163389  163386       7  163395  163392       6  163398  163392       6  163398
  163395       7  163404  163401       6  163407  163401       6  163407  163404
       7  163413  163410       6  163416  163410       6  163416  163413       7
  163422  163419       6  163425  163419       6  163425  163422       7  163431
  163428       6  163434  163428       6  163434  163431       7  163440  163437
       6  163443  163437       6  163443  163440       7  163449  163446       6
  163452  163446       6  163452  163449       7  163458  163455       6  163461
  163455       6  163461  163458       7  163467  163464       6  163470  163464
       6  163470  163467       7  163476  163473       6  163479  163473       6
  163479  163476       7  163485  163482       6  163488  163482       6  163488
  163485       7  163494  163491       6  163497  163491       6  163497  163494
       7  163503  163500       6  163506  163500       6  163506  163503       7
  163512  163509       6  163515  163509       6  163515  163512       7  163521
  163518       6  163524  163518       6  163524  163521       7  163530  163527
       6  163533  163527       6  163533  163530       7  163539  163536       6
  163542  163536       6  163542  163539       7  163548  163545       6  163551
  163545       6  163551  163548       7  163557  163554       6  163560  163554
       6  163560  163557       7  163566  163563       6  163569  163563       6
  163569  163566       7  163575  163572       6  163578  163572       6  163578
  163575       7  163584  163581       6  163587  163581       6  163587  163584
       7  163593  163590       6  163596  163590       6  163596  163593       7
  163602  163599       6  163605  163599       6  163605  163602       7  163611
  163608       6  163614  163608       6  163614  163611       7  163620  163617
       6  163623  163617       6  163623  163620       7  163629  163626       6
  163632  163626       6  163632  163629       7  163638  163635       6  163641
  163635       6  163641  163638       7  163647  163644       6  163650  163644
       6  163650  163647       7  163656  163653       6  163659  163653       6
  163659  163656       7  163665  163662       6  163668  163662       6  163668
  163665       7  163674  163671       6  163677  163671       6  163677  163674
       7  163683  163680       6  163686  163680       6  163686  163683       7
  163692  163689       6  163695  163689       6  163695  163692       7  163701
  163698       6  163704  163698       6  163704  163701       7  163710  163707
       6  163713  163707       6  163713  163710       7  163719  163716       6
  163722  163716       6  163722  163719       7  163728  163725       6  163731
  163725       6  163731  163728       7  163737  163734       6  163740  163734
       6  163740  163737       7  163746  163743       6  163749  163743       6
  163749  163746       7  163755  163752       6  163758  163752       6  163758
  163755       7  163764  163761       6  163767  163761       6  163767  163764
       7  163773  163770       6  163776  163770       6  163776  163773       7
  163782  163779       6  163785  163779       6  163785  163782       7  163791
  163788       6  163794  163788       6  163794  163791       7  163800  163797
       6  163803  163797       6  163803  163800       7  163809  163806       6
  163812  163806       6  163812  163809       7  163818  163815       6  163821
  163815       6  163821  163818       7  163827  163824       6  163830  163824
       6  163830  163827       7  163836  163833       6  163839  163833       6
  163839  163836       7  163845  163842       6  163848  163842       6  163848
  163845       7  163854  163851       6  163857  163851       6  163857  163854
       7  163863  163860       6  163866  163860       6  163866  163863       7
  163872  163869       6  163875  163869       6  163875  163872       7  163881
  163878       6  163884  163878       6  163884  163881       7  163890  163887
       6  163893  163887       6  163893  163890       7  163899  163896       6
  163902  163896       6  163902  163899       7  163908  163905       6  163911
  163905       6  163911  163908       7  163917  163914       6  163920  163914
       6  163920  163917       7  163926  163923       6  163929  163923       6
  163929  163926       7  163935  163932       6  163938  163932       6  163938
  163935       7  163944  163941       6  163947  163941       6  163947  163944
       7  163953  163950       6  163956  163950       6  163956  163953       7
  163962  163959       6  163965  163959       6  163965  163962       7  163971
  163968       6  163974  163968       6  163974  163971       7  163980  163977
       6  163983  163977       6  163983  163980       7  163989  163986       6
  163992  163986       6  163992  163989       7  163998  163995       6  164001
  163995       6  164001  163998       7  164007  164004       6  164010  164004
       6  164010  164007       7  164016  164013       6  164019  164013       6
  164019  164016       7  164025  164022       6  164028  164022       6  164028
  164025       7  164034  164031       6  164037  164031       6  164037  164034
       7  164043  164040       6  164046  164040       6  164046  164043       7
  164052  164049       6  164055  164049       6  164055  164052       7  164061
  164058       6  164064  164058       6  164064  164061       7  164070  164067
       6  164073  164067       6  164073  164070       7  164079  164076       6
  164082  164076       6  164082  164079       7  164088  164085       6  164091
  164085       6  164091  164088       7  164097  164094       6  164100  164094
       6  164100  164097       7  164106  164103       6  164109  164103       6
  164109  164106       7  164115  164112       6  164118  164112       6  164118
  164115       7  164124  164121       6  164127  164121       6  164127  164124
       7  164133  164130       6  164136  164130       6  164136  164133       7
  164142  164139       6  164145  164139       6  164145  164142       7  164151
  164148       6  164154  164148       6  164154  164151       7  164160  164157
       6  164163  164157       6  164163  164160       7  164169  164166       6
  164172  164166       6  164172  164169       7  164178  164175       6  164181
  164175       6  164181  164178       7  164187  164184       6  164190  164184
       6  164190  164187       7  164196  164193       6  164199  164193       6
  164199  164196       7  164205  164202       6  164208  164202       6  164208
  164205       7  164214  164211       6  164217  164211       6  164217  164214
       7  164223  164220       6  164226  164220       6  164226  164223       7
  164232  164229       6  164235  164229       6  164235  164232       7  164241
  164238       6  164244  164238       6  164244  164241       7  164250  164247
       6  164253  164247       6  164253  164250       7  164259  164256       6
  164262  164256       6  164262  164259       7  164268  164265       6  164271
  164265       6  164271  164268       7  164277  164274       6  164280  164274
       6  164280  164277       7  164286  164283       6  164289  164283       6
  164289  164286       7  164295  164292       6  164298  164292       6  164298
  164295       7  164304  164301       6  164307  164301       6  164307  164304
       7  164313  164310       6  164316  164310       6  164316  164313       7
  164322  164319       6  164325  164319       6  164325  164322       7  164331
  164328       6  164334  164328       6  164334  164331       7  164340  164337
       6  164343  164337       6  164343  164340       7  164349  164346       6
  164352  164346       6  164352  164349       7  164358  164355       6  164361
  164355       6  164361  164358       7  164367  164364       6  164370  164364
       6  164370  164367       7  164376  164373       6  164379  164373       6
  164379  164376       7  164385  164382       6  164388  164382       6  164388
  164385       7  164394  164391       6  164397  164391       6  164397  164394
       7  164403  164400       6  164406  164400       6  164406  164403       7
  164412  164409       6  164415  164409       6  164415  164412       7  164421
  164418       6  164424  164418       6  164424  164421       7  164430  164427
       6  164433  164427       6  164433  164430       7  164439  164436       6
  164442  164436       6  164442  164439       7  164448  164445       6  164451
  164445       6  164451  164448       7  164457  164454       6  164460  164454
       6  164460  164457       7  164466  164463       6  164469  164463       6
  164469  164466       7  164475  164472       6  164478  164472       6  164478
  164475       7  164484  164481       6  164487  164481       6  164487  164484
       7  164493  164490       6  164496  164490       6  164496  164493       7
  164502  164499       6  164505  164499       6  164505  164502       7  164511
  164508       6  164514  164508       6  164514  164511       7  164520  164517
       6  164523  164517       6  164523  164520       7  164529  164526       6
  164532  164526       6  164532  164529       7  164538  164535       6  164541
  164535       6  164541  164538       7  164547  164544       6  164550  164544
       6  164550  164547       7  164556  164553       6  164559  164553       6
  164559  164556       7  164565  164562       6  164568  164562       6  164568
  164565       7  164574  164571       6  164577  164571       6  164577  164574
       7  164583  164580       6  164586  164580       6  164586  164583       7
  164592  164589       6  164595  164589       6  164595  164592       7  164601
  164598       6  164604  164598       6  164604  164601       7  164610  164607
       6  164613  164607       6  164613  164610       7  164619  164616       6
  164622  164616       6  164622  164619       7  164628  164625       6  164631
  164625       6  164631  164628       7  164637  164634       6  164640  164634
       6  164640  164637       7  164646  164643       6  164649  164643       6
  164649  164646       7  164655  164652       6  164658  164652       6  164658
  164655       7  164664  164661       6  164667  164661       6  164667  164664
       7  164673  164670       6  164676  164670       6  164676  164673       7
  164682  164679       6  164685  164679       6  164685  164682       7  164691
  164688       6  164694  164688       6  164694  164691       7  164700  164697
       6  164703  164697       6  164703  164700       7  164709  164706       6
  164712  164706       6  164712  164709       7  164718  164715       6  164721
  164715       6  164721  164718       7  164727  164724       6  164730  164724
       6  164730  164727       7  164736  164733       6  164739  164733       6
  164739  164736       7  164745  164742       6  164748  164742       6  164748
  164745       7  164754  164751       6  164757  164751       6  164757  164754
       7  164763  164760       6  164766  164760       6  164766  164763       7
  164772  164769       6  164775  164769       6  164775  164772       7  164781
  164778       6  164784  164778       6  164784  164781       7  164790  164787
       6  164793  164787       6  164793  164790       7  164799  164796       6
  164802  164796       6  164802  164799       7  164808  164805       6  164811
  164805       6  164811  164808       7  164817  164814       6  164820  164814
       6  164820  164817       7  164826  164823       6  164829  164823       6
  164829  164826       7  164835  164832       6  164838  164832       6  164838
  164835       7  164844  164841       6  164847  164841       6  164847  164844
       7  164853  164850       6  164856  164850       6  164856  164853       7
  164862  164859       6  164865  164859       6  164865  164862       7  164871
  164868       6  164874  164868       6  164874  164871       7  164880  164877
       6  164883  164877       6  164883  164880       7  164889  164886       6
  164892  164886       6  164892  164889       7  164898  164895       6  164901
  164895       6  164901  164898       7  164907  164904       6  164910  164904
       6  164910  164907       7  164916  164913       6  164919  164913       6
  164919  164916       7  164925  164922       6  164928  164922       6  164928
  164925       7  164934  164931       6  164937  164931       6  164937  164934
       7  164943  164940       6  164946  164940       6  164946  164943       7
  164952  164949       6  164955  164949       6  164955  164952       7  164961
  164958       6  164964  164958       6  164964  164961       7  164970  164967
       6  164973  164967       6  164973  164970       7  164979  164976       6
  164982  164976       6  164982  164979       7  164988  164985       6  164991
  164985       6  164991  164988       7  164997  164994       6  165000  164994
       6  165000  164997       7  165006  165003       6  165009  165003       6
  165009  165006       7  165015  165012       6  165018  165012       6  165018
  165015       7  165024  165021       6  165027  165021       6  165027  165024
       7  165033  165030       6  165036  165030       6  165036  165033       7
  165042  165039       6  165045  165039       6  165045  165042       7  165051
  165048       6  165054  165048       6  165054  165051       7  165060  165057
       6  165063  165057       6  165063  165060       7  165069  165066       6
  165072  165066       6  165072  165069       7  165078  165075       6  165081
  165075       6  165081  165078       7  165087  165084       6  165090  165084
       6  165090  165087       7  165096  165093       6  165099  165093       6
  165099  165096       7  165105  165102       6  165108  165102       6  165108
  165105       7  165114  165111       6  165117  165111       6  165117  165114
       7  165123  165120       6  165126  165120       6  165126  165123       7
  165132  165129       6  165135  165129       6  165135  165132       7  165141
  165138       6  165144  165138       6  165144  165141       7  165150  165147
       6  165153  165147       6  165153  165150       7  165159  165156       6
  165162  165156       6  165162  165159       7  165168  165165       6  165171
  165165       6  165171  165168       7  165177  165174       6  165180  165174
       6  165180  165177       7  165186  165183       6  165189  165183       6
  165189  165186       7  165195  165192       6  165198  165192       6  165198
  165195       7  165204  165201       6  165207  165201       6  165207  165204
       7  165213  165210       6  165216  165210       6  165216  165213       7
  165222  165219       6  165225  165219       6  165225  165222       7  165231
  165228       6  165234  165228       6  165234  165231       7  165240  165237
       6  165243  165237       6  165243  165240       7  165249  165246       6
  165252  165246       6  165252  165249       7  165258  165255       6  165261
  165255       6  165261  165258       7  165267  165264       6  165270  165264
       6  165270  165267       7  165276  165273       6  165279  165273       6
  165279  165276       7  165285  165282       6  165288  165282       6  165288
  165285       7  165294  165291       6  165297  165291       6  165297  165294
       7  165303  165300       6  165306  165300       6  165306  165303       7
  165312  165309       6  165315  165309       6  165315  165312       7  165321
  165318       6  165324  165318       6  165324  165321       7  165330  165327
       6  165333  165327       6  165333  165330       7  165339  165336       6
  165342  165336       6  165342  165339       7  165348  165345       6  165351
  165345       6  165351  165348       7  165357  165354       6  165360  165354
       6  165360  165357       7  165366  165363       6  165369  165363       6
  165369  165366       7  165375  165372       6  165378  165372       6  165378
  165375       7  165384  165381       6  165387  165381       6  165387  165384
       7  165393  165390       6  165396  165390       6  165396  165393       7
  165402  165399       6  165405  165399       6  165405  165402       7  165411
  165408       6  165414  165408       6  165414  165411       7  165420  165417
       6  165423  165417       6  165423  165420       7  165429  165426       6
  165432  165426       6  165432  165429       7  165438  165435       6  165441
  165435       6  165441  165438       7  165447  165444       6  165450  165444
       6  165450  165447       7  165456  165453       6  165459  165453       6
  165459  165456       7  165465  165462       6  165468  165462       6  165468
  165465       7  165474  165471       6  165477  165471       6  165477  165474
       7  165483  165480       6  165486  165480       6  165486  165483       7
  165492  165489       6  165495  165489       6  165495  165492       7  165501
  165498       6  165504  165498       6  165504  165501       7  165510  165507
       6  165513  165507       6  165513  165510       7  165519  165516       6
  165522  165516       6  165522  165519       7  165528  165525       6  165531
  165525       6  165531  165528       7  165537  165534       6  165540  165534
       6  165540  165537       7  165546  165543       6  165549  165543       6
  165549  165546       7  165555  165552       6  165558  165552       6  165558
  165555       7  165564  165561       6  165567  165561       6  165567  165564
       7  165573  165570       6  165576  165570       6  165576  165573       7
  165582  165579       6  165585  165579       6  165585  165582       7  165591
  165588       6  165594  165588       6  165594  165591       7  165600  165597
       6  165603  165597       6  165603  165600       7  165609  165606       6
  165612  165606       6  165612  165609       7  165618  165615       6  165621
  165615       6  165621  165618       7  165627  165624       6  165630  165624
       6  165630  165627       7  165636  165633       6  165639  165633       6
  165639  165636       7  165645  165642       6  165648  165642       6  165648
  165645       7  165654  165651       6  165657  165651       6  165657  165654
       7  165663  165660       6  165666  165660       6  165666  165663       7
  165672  165669       6  165675  165669       6  165675  165672       7  165681
  165678       6  165684  165678       6  165684  165681       7  165690  165687
       6  165693  165687       6  165693  165690       7  165699  165696       6
  165702  165696       6  165702  165699       7  165708  165705       6  165711
  165705       6  165711  165708       7  165717  165714       6  165720  165714
       6  165720  165717       7  165726  165723       6  165729  165723       6
  165729  165726       7  165735  165732       6  165738  165732       6  165738
  165735       7  165744  165741       6  165747  165741       6  165747  165744
       7  165753  165750       6  165756  165750       6  165756  165753       7
  165762  165759       6  165765  165759       6  165765  165762       7  165771
  165768       6  165774  165768       6  165774  165771       7  165780  165777
       6  165783  165777       6  165783  165780       7  165789  165786       6
  165792  165786       6  165792  165789       7  165798  165795       6  165801
  165795       6  165801  165798       7  165807  165804       6  165810  165804
       6  165810  165807       7  165816  165813       6  165819  165813       6
  165819  165816       7  165825  165822       6  165828  165822       6  165828
  165825       7  165834  165831       6  165837  165831       6  165837  165834
       7  165843  165840       6  165846  165840       6  165846  165843       7
  165852  165849       6  165855  165849       6  165855  165852       7  165861
  165858       6  165864  165858       6  165864  165861       7  165870  165867
       6  165873  165867       6  165873  165870       7  165879  165876       6
  165882  165876       6  165882  165879       7  165888  165885       6  165891
  165885       6  165891  165888       7  165897  165894       6  165900  165894
       6  165900  165897       7  165906  165903       6  165909  165903       6
  165909  165906       7  165915  165912       6  165918  165912       6  165918
  165915       7  165924  165921       6  165927  165921       6  165927  165924
       7  165933  165930       6  165936  165930       6  165936  165933       7
  165942  165939       6  165945  165939       6  165945  165942       7  165951
  165948       6  165954  165948       6  165954  165951       7  165960  165957
       6  165963  165957       6  165963  165960       7  165969  165966       6
  165972  165966       6  165972  165969       7  165978  165975       6  165981
  165975       6  165981  165978       7  165987  165984       6  165990  165984
       6  165990  165987       7  165996  165993       6  165999  165993       6
  165999  165996       7  166005  166002       6  166008  166002       6  166008
  166005       7  166014  166011       6  166017  166011       6  166017  166014
       7  166023  166020       6  166026  166020       6  166026  166023       7
  166032  166029       6  166035  166029       6  166035  166032       7  166041
  166038       6  166044  166038       6  166044  166041       7  166050  166047
       6  166053  166047       6  166053  166050       7  166059  166056       6
  166062  166056       6  166062  166059       7  166068  166065       6  166071
  166065       6  166071  166068       7  166077  166074       6  166080  166074
       6  166080  166077       7  166086  166083       6  166089  166083       6
  166089  166086       7  166095  166092       6  166098  166092       6  166098
  166095       7  166104  166101       6  166107  166101       6  166107  166104
       7  166113  166110       6  166116  166110       6  166116  166113       7
  166122  166119       6  166125  166119       6  166125  166122       7  166131
  166128       6  166134  166128       6  166134  166131       7  166140  166137
       6  166143  166137       6  166143  166140       7  166149  166146       6
  166152  166146       6  166152  166149       7  166158  166155       6  166161
  166155       6  166161  166158       7  166167  166164       6  166170  166164
       6  166170  166167       7  166176  166173       6  166179  166173       6
  166179  166176       7  166185  166182       6  166188  166182       6  166188
  166185       7  166194  166191       6  166197  166191       6  166197  166194
       7  166203  166200       6  166206  166200       6  166206  166203       7
  166212  166209       6  166215  166209       6  166215  166212       7  166221
  166218       6  166224  166218       6  166224  166221       7  166230  166227
       6  166233  166227       6  166233  166230       7  166239  166236       6
  166242  166236       6  166242  166239       7  166248  166245       6  166251
  166245       6  166251  166248       7  166257  166254       6  166260  166254
       6  166260  166257       7  166266  166263       6  166269  166263       6
  166269  166266       7  166275  166272       6  166278  166272       6  166278
  166275       7  166284  166281       6  166287  166281       6  166287  166284
       7  166293  166290       6  166296  166290       6  166296  166293       7
  166302  166299       6  166305  166299       6  166305  166302       7  166311
  166308       6  166314  166308       6  166314  166311       7  166320  166317
       6  166323  166317       6  166323  166320       7  166329  166326       6
  166332  166326       6  166332  166329       7  166338  166335       6  166341
  166335       6  166341  166338       7  166347  166344       6  166350  166344
       6  166350  166347       7  166356  166353       6  166359  166353       6
  166359  166356       7  166365  166362       6  166368  166362       6  166368
  166365       7  166374  166371       6  166377  166371       6  166377  166374
       7  166383  166380       6  166386  166380       6  166386  166383       7
  166392  166389       6  166395  166389       6  166395  166392       7  166401
  166398       6  166404  166398       6  166404  166401       7  166410  166407
       6  166413  166407       6  166413  166410       7  166419  166416       6
  166422  166416       6  166422  166419       7  166428  166425       6  166431
  166425       6  166431  166428       7  166437  166434       6  166440  166434
       6  166440  166437       7  166446  166443       6  166449  166443       6
  166449  166446       7  166455  166452       6  166458  166452       6  166458
  166455       7  166464  166461       6  166467  166461       6  166467  166464
       7  166473  166470       6  166476  166470       6  166476  166473       7
  166482  166479       6  166485  166479       6  166485  166482       7  166491
  166488       6  166494  166488       6  166494  166491       7  166500  166497
       6  166503  166497       6  166503  166500       7  166509  166506       6
  166512  166506       6  166512  166509       7  166518  166515       6  166521
  166515       6  166521  166518       7  166527  166524       6  166530  166524
       6  166530  166527       7  166536  166533       6  166539  166533       6
  166539  166536       7  166545  166542       6  166548  166542       6  166548
  166545       7  166554  166551       6  166557  166551       6  166557  166554
       7  166563  166560       6  166566  166560       6  166566  166563       7
  166572  166569       6  166575  166569       6  166575  166572       7  166581
  166578       6  166584  166578       6  166584  166581       7  166590  166587
       6  166593  166587       6  166593  166590       7  166599  166596       6
  166602  166596       6  166602  166599       7  166608  166605       6  166611
  166605       6  166611  166608       7  166617  166614       6  166620  166614
       6  166620  166617       7  166626  166623       6  166629  166623       6
  166629  166626       7  166635  166632       6  166638  166632       6  166638
  166635       7  166644  166641       6  166647  166641       6  166647  166644
       7  166653  166650       6  166656  166650       6  166656  166653       7
  166662  166659       6  166665  166659       6  166665  166662       7  166671
  166668       6  166674  166668       6  166674  166671       7  166680  166677
       6  166683  166677       6  166683  166680       7  166689  166686       6
  166692  166686       6  166692  166689       7  166698  166695       6  166701
  166695       6  166701  166698       7  166707  166704       6  166710  166704
       6  166710  166707       7  166716  166713       6  166719  166713       6
  166719  166716       7  166725  166722       6  166728  166722       6  166728
  166725       7  166734  166731       6  166737  166731       6  166737  166734
       7  166743  166740       6  166746  166740       6  166746  166743       7
  166752  166749       6  166755  166749       6  166755  166752       7  166761
  166758       6  166764  166758       6  166764  166761       7  166770  166767
       6  166773  166767       6  166773  166770       7  166779  166776       6
  166782  166776       6  166782  166779       7  166788  166785       6  166791
  166785       6  166791  166788       7  166797  166794       6  166800  166794
       6  166800  166797       7  166806  166803       6  166809  166803       6
  166809  166806       7  166815  166812       6  166818  166812       6  166818
  166815       7  166824  166821       6  166827  166821       6  166827  166824
       7  166833  166830       6  166836  166830       6  166836  166833       7
  166842  166839       6  166845  166839       6  166845  166842       7  166851
  166848       6  166854  166848       6  166854  166851       7  166860  166857
       6  166863  166857       6  166863  166860       7  166869  166866       6
  166872  166866       6  166872  166869       7  166878  166875       6  166881
  166875       6  166881  166878       7  166887  166884       6  166890  166884
       6  166890  166887       7  166896  166893       6  166899  166893       6
  166899  166896       7  166905  166902       6  166908  166902       6  166908
  166905       7  166914  166911       6  166917  166911       6  166917  166914
       7  166923  166920       6  166926  166920       6  166926  166923       7
  166932  166929       6  166935  166929       6  166935  166932       7  166941
  166938       6  166944  166938       6  166944  166941       7  166950  166947
       6  166953  166947       6  166953  166950       7  166959  166956       6
  166962  166956       6  166962  166959       7  166968  166965       6  166971
  166965       6  166971  166968       7  166977  166974       6  166980  166974
       6  166980  166977       7  166986  166983       6  166989  166983       6
  166989  166986       7  166995  166992       6  166998  166992       6  166998
  166995       7  167004  167001       6  167007  167001       6  167007  167004
       7  167013  167010       6  167016  167010       6  167016  167013       7
  167022  167019       6  167025  167019       6  167025  167022       7  167031
  167028       6  167034  167028       6  167034  167031       7  167040  167037
       6  167043  167037       6  167043  167040       7  167049  167046       6
  167052  167046       6  167052  167049       7  167058  167055       6  167061
  167055       6  167061  167058       7  167067  167064       6  167070  167064
       6  167070  167067       7  167076  167073       6  167079  167073       6
  167079  167076       7  167085  167082       6  167088  167082       6  167088
  167085       7  167094  167091       6  167097  167091       6  167097  167094
       7  167103  167100       6  167106  167100       6  167106  167103       7
  167112  167109       6  167115  167109       6  167115  167112       7  167121
  167118       6  167124  167118       6  167124  167121       7  167130  167127
       6  167133  167127       6  167133  167130       7  167139  167136       6
  167142  167136       6  167142  167139       7  167148  167145       6  167151
  167145       6  167151  167148       7  167157  167154       6  167160  167154
       6  167160  167157       7  167166  167163       6  167169  167163       6
  167169  167166       7  167175  167172       6  167178  167172       6  167178
  167175       7  167184  167181       6  167187  167181       6  167187  167184
       7  167193  167190       6  167196  167190       6  167196  167193       7
  167202  167199       6  167205  167199       6  167205  167202       7  167211
  167208       6  167214  167208       6  167214  167211       7  167220  167217
       6  167223  167217       6  167223  167220       7  167229  167226       6
  167232  167226       6  167232  167229       7  167238  167235       6  167241
  167235       6  167241  167238       7  167247  167244       6  167250  167244
       6  167250  167247       7  167256  167253       6  167259  167253       6
  167259  167256       7  167265  167262       6  167268  167262       6  167268
  167265       7  167274  167271       6  167277  167271       6  167277  167274
       7  167283  167280       6  167286  167280       6  167286  167283       7
  167292  167289       6  167295  167289       6  167295  167292       7  167301
  167298       6  167304  167298       6  167304  167301       7  167310  167307
       6  167313  167307       6  167313  167310       7  167319  167316       6
  167322  167316       6  167322  167319       7  167328  167325       6  167331
  167325       6  167331  167328       7  167337  167334       6  167340  167334
       6  167340  167337       7  167346  167343       6  167349  167343       6
  167349  167346       7  167355  167352       6  167358  167352       6  167358
  167355       7  167364  167361       6  167367  167361       6  167367  167364
       7  167373  167370       6  167376  167370       6  167376  167373       7
  167382  167379       6  167385  167379       6  167385  167382       7  167391
  167388       6  167394  167388       6  167394  167391       7  167400  167397
       6  167403  167397       6  167403  167400       7  167409  167406       6
  167412  167406       6  167412  167409       7  167418  167415       6  167421
  167415       6  167421  167418       7  167427  167424       6  167430  167424
       6  167430  167427       7  167436  167433       6  167439  167433       6
  167439  167436       7  167445  167442       6  167448  167442       6  167448
  167445       7  167454  167451       6  167457  167451       6  167457  167454
       7  167463  167460       6  167466  167460       6  167466  167463       7
  167472  167469       6  167475  167469       6  167475  167472       7  167481
  167478       6  167484  167478       6  167484  167481       7  167490  167487
       6  167493  167487       6  167493  167490       7  167499  167496       6
  167502  167496       6  167502  167499       7  167508  167505       6  167511
  167505       6  167511  167508       7  167517  167514       6  167520  167514
       6  167520  167517       7  167526  167523       6  167529  167523       6
  167529  167526       7  167535  167532       6  167538  167532       6  167538
  167535       7  167544  167541       6  167547  167541       6  167547  167544
       7  167553  167550       6  167556  167550       6  167556  167553       7
  167562  167559       6  167565  167559       6  167565  167562       7  167571
  167568       6  167574  167568       6  167574  167571       7  167580  167577
       6  167583  167577       6  167583  167580       7  167589  167586       6
  167592  167586       6  167592  167589       7  167598  167595       6  167601
  167595       6  167601  167598       7  167607  167604       6  167610  167604
       6  167610  167607       7  167616  167613       6  167619  167613       6
  167619  167616       7  167625  167622       6  167628  167622       6  167628
  167625       7  167634  167631       6  167637  167631       6  167637  167634
       7  167643  167640       6  167646  167640       6  167646  167643       7
  167652  167649       6  167655  167649       6  167655  167652       7  167661
  167658       6  167664  167658       6  167664  167661       7  167670  167667
       6  167673  167667       6  167673  167670       7  167679  167676       6
  167682  167676       6  167682  167679       7  167688  167685       6  167691
  167685       6  167691  167688       7  167697  167694       6  167700  167694
       6  167700  167697       7  167706  167703       6  167709  167703       6
  167709  167706       7  167715  167712       6  167718  167712       6  167718
  167715       7  167724  167721       6  167727  167721       6  167727  167724
       7  167733  167730       6  167736  167730       6  167736  167733       7
  167742  167739       6  167745  167739       6  167745  167742       7  167751
  167748       6  167754  167748       6  167754  167751       7  167760  167757
       6  167763  167757       6  167763  167760       7  167769  167766       6
  167772  167766       6  167772  167769       7  167778  167775       6  167781
  167775       6  167781  167778       7  167787  167784       6  167790  167784
       6  167790  167787       7  167796  167793       6  167799  167793       6
  167799  167796       7  167805  167802       6  167808  167802       6  167808
  167805       7  167814  167811       6  167817  167811       6  167817  167814
       7  167823  167820       6  167826  167820       6  167826  167823       7
  167832  167829       6  167835  167829       6  167835  167832       7  167841
  167838       6  167844  167838       6  167844  167841       7  167850  167847
       6  167853  167847       6  167853  167850       7  167859  167856       6
  167862  167856       6  167862  167859       7  167868  167865       6  167871
  167865       6  167871  167868       7  167877  167874       6  167880  167874
       6  167880  167877       7  167886  167883       6  167889  167883       6
  167889  167886       7  167895  167892       6  167898  167892       6  167898
  167895       7  167904  167901       6  167907  167901       6  167907  167904
       7  167913  167910       6  167916  167910       6  167916  167913       7
  167922  167919       6  167925  167919       6  167925  167922       7  167931
  167928       6  167934  167928       6  167934  167931       7  167940  167937
       6  167943  167937       6  167943  167940       7  167949  167946       6
  167952  167946       6  167952  167949       7  167958  167955       6  167961
  167955       6  167961  167958       7  167967  167964       6  167970  167964
       6  167970  167967       7  167976  167973       6  167979  167973       6
  167979  167976       7  167985  167982       6  167988  167982       6  167988
  167985       7  167994  167991       6  167997  167991       6  167997  167994
       7  168003  168000       6  168006  168000       6  168006  168003       7
  168012  168009       6  168015  168009       6  168015  168012       7  168021
  168018       6  168024  168018       6  168024  168021       7  168030  168027
       6  168033  168027       6  168033  168030       7  168039  168036       6
  168042  168036       6  168042  168039       7  168048  168045       6  168051
  168045       6  168051  168048       7  168057  168054       6  168060  168054
       6  168060  168057       7  168066  168063       6  168069  168063       6
  168069  168066       7  168075  168072       6  168078  168072       6  168078
  168075       7  168084  168081       6  168087  168081       6  168087  168084
       7  168093  168090       6  168096  168090       6  168096  168093       7
  168102  168099       6  168105  168099       6  168105  168102       7  168111
  168108       6  168114  168108       6  168114  168111       7  168120  168117
       6  168123  168117       6  168123  168120       7  168129  168126       6
  168132  168126       6  168132  168129       7  168138  168135       6  168141
  168135       6  168141  168138       7  168147  168144       6  168150  168144
       6  168150  168147       7  168156  168153       6  168159  168153       6
  168159  168156       7  168165  168162       6  168168  168162       6  168168
  168165       7  168174  168171       6  168177  168171       6  168177  168174
       7  168183  168180       6  168186  168180       6  168186  168183       7
  168192  168189       6  168195  168189       6  168195  168192       7  168201
  168198       6  168204  168198       6  168204  168201       7  168210  168207
       6  168213  168207       6  168213  168210       7  168219  168216       6
  168222  168216       6  168222  168219       7  168228  168225       6  168231
  168225       6  168231  168228       7  168237  168234       6  168240  168234
       6  168240  168237       7  168246  168243       6  168249  168243       6
  168249  168246       7  168255  168252       6  168258  168252       6  168258
  168255       7  168264  168261       6  168267  168261       6  168267  168264
       7  168273  168270       6  168276  168270       6  168276  168273       7
  168282  168279       6  168285  168279       6  168285  168282       7  168291
  168288       6  168294  168288       6  168294  168291       7  168300  168297
       6  168303  168297       6  168303  168300       7  168309  168306       6
  168312  168306       6  168312  168309       7  168318  168315       6  168321
  168315       6  168321  168318       7  168327  168324       6  168330  168324
       6  168330  168327       7  168336  168333       6  168339  168333       6
  168339  168336       7  168345  168342       6  168348  168342       6  168348
  168345       7  168354  168351       6  168357  168351       6  168357  168354
       7  168363  168360       6  168366  168360       6  168366  168363       7
  168372  168369       6  168375  168369       6  168375  168372       7  168381
  168378       6  168384  168378       6  168384  168381       7  168390  168387
       6  168393  168387       6  168393  168390       7  168399  168396       6
  168402  168396       6  168402  168399       7  168408  168405       6  168411
  168405       6  168411  168408       7  168417  168414       6  168420  168414
       6  168420  168417       7  168426  168423       6  168429  168423       6
  168429  168426       7  168435  168432       6  168438  168432       6  168438
  168435       7  168444  168441       6  168447  168441       6  168447  168444
       7  168453  168450       6  168456  168450       6  168456  168453       7
  168462  168459       6  168465  168459       6  168465  168462       7  168471
  168468       6  168474  168468       6  168474  168471       7  168480  168477
       6  168483  168477       6  168483  168480       7  168489  168486       6
  168492  168486       6  168492  168489       7  168498  168495       6  168501
  168495       6  168501  168498       7  168507  168504       6  168510  168504
       6  168510  168507       7  168516  168513       6  168519  168513       6
  168519  168516       7  168525  168522       6  168528  168522       6  168528
  168525       7  168534  168531       6  168537  168531       6  168537  168534
       7  168543  168540       6  168546  168540       6  168546  168543       7
  168552  168549       6  168555  168549       6  168555  168552       7  168561
  168558       6  168564  168558       6  168564  168561       7  168570  168567
       6  168573  168567       6  168573  168570       7  168579  168576       6
  168582  168576       6  168582  168579       7  168588  168585       6  168591
  168585       6  168591  168588       7  168597  168594       6  168600  168594
       6  168600  168597       7  168606  168603       6  168609  168603       6
  168609  168606       7  168615  168612       6  168618  168612       6  168618
  168615       7  168624  168621       6  168627  168621       6  168627  168624
       7  168633  168630       6  168636  168630       6  168636  168633       7
  168642  168639       6  168645  168639       6  168645  168642       7  168651
  168648       6  168654  168648       6  168654  168651       7  168660  168657
       6  168663  168657       6  168663  168660       7  168669  168666       6
  168672  168666       6  168672  168669       7  168678  168675       6  168681
  168675       6  168681  168678       7  168687  168684       6  168690  168684
       6  168690  168687       7  168696  168693       6  168699  168693       6
  168699  168696       7  168705  168702       6  168708  168702       6  168708
  168705       7  168714  168711       6  168717  168711       6  168717  168714
       7  168723  168720       6  168726  168720       6  168726  168723       7
  168732  168729       6  168735  168729       6  168735  168732       7  168741
  168738       6  168744  168738       6  168744  168741       7  168750  168747
       6  168753  168747       6  168753  168750       7  168759  168756       6
  168762  168756       6  168762  168759       7  168768  168765       6  168771
  168765       6  168771  168768       7  168777  168774       6  168780  168774
       6  168780  168777       7  168786  168783       6  168789  168783       6
  168789  168786       7  168795  168792       6  168798  168792       6  168798
  168795       7  168804  168801       6  168807  168801       6  168807  168804
       7  168813  168810       6  168816  168810       6  168816  168813       7
  168822  168819       6  168825  168819       6  168825  168822       7  168831
  168828       6  168834  168828       6  168834  168831       7  168840  168837
       6  168843  168837       6  168843  168840       7  168849  168846       6
  168852  168846       6  168852  168849       7  168858  168855       6  168861
  168855       6  168861  168858       7  168867  168864       6  168870  168864
       6  168870  168867       7  168876  168873       6  168879  168873       6
  168879  168876       7  168885  168882       6  168888  168882       6  168888
  168885       7  168894  168891       6  168897  168891       6  168897  168894
       7  168903  168900       6  168906  168900       6  168906  168903       7
  168912  168909       6  168915  168909       6  168915  168912       7  168921
  168918       6  168924  168918       6  168924  168921       7  168930  168927
       6  168933  168927       6  168933  168930       7  168939  168936       6
  168942  168936       6  168942  168939       7  168948  168945       6  168951
  168945       6  168951  168948       7  168957  168954       6  168960  168954
       6  168960  168957       7  168966  168963       6  168969  168963       6
  168969  168966       7  168975  168972       6  168978  168972       6  168978
  168975       7  168984  168981       6  168987  168981       6  168987  168984
       7  168993  168990       6  168996  168990       6  168996  168993       7
  169002  168999       6  169005  168999       6  169005  169002       7  169011
  169008       6  169014  169008       6  169014  169011       7  169020  169017
       6  169023  169017       6  169023  169020       7  169029  169026       6
  169032  169026       6  169032  169029       7  169038  169035       6  169041
  169035       6  169041  169038       7  169047  169044       6  169050  169044
       6  169050  169047       7  169056  169053       6  169059  169053       6
  169059  169056       7  169065  169062       6  169068  169062       6  169068
  169065       7  169074  169071       6  169077  169071       6  169077  169074
       7  169083  169080       6  169086  169080       6  169086  169083       7
  169092  169089       6  169095  169089       6  169095  169092       7  169101
  169098       6  169104  169098       6  169104  169101       7  169110  169107
       6  169113  169107       6  169113  169110       7  169119  169116       6
  169122  169116       6  169122  169119       7  169128  169125       6  169131
  169125       6  169131  169128       7  169137  169134       6  169140  169134
       6  169140  169137       7  169146  169143       6  169149  169143       6
  169149  169146       7  169155  169152       6  169158  169152       6  169158
  169155       7  169164  169161       6  169167  169161       6  169167  169164
       7  169173  169170       6  169176  169170       6  169176  169173       7
  169182  169179       6  169185  169179       6  169185  169182       7  169191
  169188       6  169194  169188       6  169194  169191       7  169200  169197
       6  169203  169197       6  169203  169200       7  169209  169206       6
  169212  169206       6  169212  169209       7  169218  169215       6  169221
  169215       6  169221  169218       7  169227  169224       6  169230  169224
       6  169230  169227       7  169236  169233       6  169239  169233       6
  169239  169236       7  169245  169242       6  169248  169242       6  169248
  169245       7  169254  169251       6  169257  169251       6  169257  169254
       7  169263  169260       6  169266  169260       6  169266  169263       7
  169272  169269       6  169275  169269       6  169275  169272       7  169281
  169278       6  169284  169278       6  169284  169281       7  169290  169287
       6  169293  169287       6  169293  169290       7  169299  169296       6
  169302  169296       6  169302  169299       7  169308  169305       6  169311
  169305       6  169311  169308       7  169317  169314       6  169320  169314
       6  169320  169317       7  169326  169323       6  169329  169323       6
  169329  169326       7  169335  169332       6  169338  169332       6  169338
  169335       7  169344  169341       6  169347  169341       6  169347  169344
       7  169353  169350       6  169356  169350       6  169356  169353       7
  169362  169359       6  169365  169359       6  169365  169362       7  169371
  169368       6  169374  169368       6  169374  169371       7  169380  169377
       6  169383  169377       6  169383  169380       7  169389  169386       6
  169392  169386       6  169392  169389       7  169398  169395       6  169401
  169395       6  169401  169398       7  169407  169404       6  169410  169404
       6  169410  169407       7  169416  169413       6  169419  169413       6
  169419  169416       7  169425  169422       6  169428  169422       6  169428
  169425       7  169434  169431       6  169437  169431       6  169437  169434
       7  169443  169440       6  169446  169440       6  169446  169443       7
  169452  169449       6  169455  169449       6  169455  169452       7  169461
  169458       6  169464  169458       6  169464  169461       7  169470  169467
       6  169473  169467       6  169473  169470       7  169479  169476       6
  169482  169476       6  169482  169479       7  169488  169485       6  169491
  169485       6  169491  169488       7  169497  169494       6  169500  169494
       6  169500  169497       7  169506  169503       6  169509  169503       6
  169509  169506       7  169515  169512       6  169518  169512       6  169518
  169515       7  169524  169521       6  169527  169521       6  169527  169524
       7  169533  169530       6  169536  169530       6  169536  169533       7
  169542  169539       6  169545  169539       6  169545  169542       7  169551
  169548       6  169554  169548       6  169554  169551       7  169560  169557
       6  169563  169557       6  169563  169560       7  169569  169566       6
  169572  169566       6  169572  169569       7  169578  169575       6  169581
  169575       6  169581  169578       7  169587  169584       6  169590  169584
       6  169590  169587       7  169596  169593       6  169599  169593       6
  169599  169596       7  169605  169602       6  169608  169602       6  169608
  169605       7  169614  169611       6  169617  169611       6  169617  169614
       7  169623  169620       6  169626  169620       6  169626  169623       7
  169632  169629       6  169635  169629       6  169635  169632       7  169641
  169638       6  169644  169638       6  169644  169641       7  169650  169647
       6  169653  169647       6  169653  169650       7  169659  169656       6
  169662  169656       6  169662  169659       7  169668  169665       6  169671
  169665       6  169671  169668       7  169677  169674       6  169680  169674
       6  169680  169677       7  169686  169683       6  169689  169683       6
  169689  169686       7  169695  169692       6  169698  169692       6  169698
  169695       7  169704  169701       6  169707  169701       6  169707  169704
       7  169713  169710       6  169716  169710       6  169716  169713       7
  169722  169719       6  169725  169719       6  169725  169722       7  169731
  169728       6  169734  169728       6  169734  169731       7  169740  169737
       6  169743  169737       6  169743  169740       7  169749  169746       6
  169752  169746       6  169752  169749       7  169758  169755       6  169761
  169755       6  169761  169758       7  169767  169764       6  169770  169764
       6  169770  169767       7  169776  169773       6  169779  169773       6
  169779  169776       7  169785  169782       6  169788  169782       6  169788
  169785       7  169794  169791       6  169797  169791       6  169797  169794
       7  169803  169800       6  169806  169800       6  169806  169803       7
  169812  169809       6  169815  169809       6  169815  169812       7  169821
  169818       6  169824  169818       6  169824  169821       7  169830  169827
       6  169833  169827       6  169833  169830       7  169839  169836       6
  169842  169836       6  169842  169839       7  169848  169845       6  169851
  169845       6  169851  169848       7  169857  169854       6  169860  169854
       6  169860  169857       7  169866  169863       6  169869  169863       6
  169869  169866       7  169875  169872       6  169878  169872       6  169878
  169875       7  169884  169881       6  169887  169881       6  169887  169884
       7  169893  169890       6  169896  169890       6  169896  169893       7
  169902  169899       6  169905  169899       6  169905  169902       7  169911
  169908       6  169914  169908       6  169914  169911       7  169920  169917
       6  169923  169917       6  169923  169920       7  169929  169926       6
  169932  169926       6  169932  169929       7  169938  169935       6  169941
  169935       6  169941  169938       7  169947  169944       6  169950  169944
       6  169950  169947       7  169956  169953       6  169959  169953       6
  169959  169956       7  169965  169962       6  169968  169962       6  169968
  169965       7  169974  169971       6  169977  169971       6  169977  169974
       7  169983  169980       6  169986  169980       6  169986  169983       7
  169992  169989       6  169995  169989       6  169995  169992       7  170001
  169998       6  170004  169998       6  170004  170001       7  170010  170007
       6  170013  170007       6  170013  170010       7  170019  170016       6
  170022  170016       6  170022  170019       7  170028  170025       6  170031
  170025       6  170031  170028       7  170037  170034       6  170040  170034
       6  170040  170037       7  170046  170043       6  170049  170043       6
  170049  170046       7  170055  170052       6  170058  170052       6  170058
  170055       7  170064  170061       6  170067  170061       6  170067  170064
       7  170073  170070       6  170076  170070       6  170076  170073       7
  170082  170079       6  170085  170079       6  170085  170082       7  170091
  170088       6  170094  170088       6  170094  170091       7  170100  170097
       6  170103  170097       6  170103  170100       7  170109  170106       6
  170112  170106       6  170112  170109       7  170118  170115       6  170121
  170115       6  170121  170118       7  170127  170124       6  170130  170124
       6  170130  170127       7  170136  170133       6  170139  170133       6
  170139  170136       7  170145  170142       6  170148  170142       6  170148
  170145       7  170154  170151       6  170157  170151       6  170157  170154
       7  170163  170160       6  170166  170160       6  170166  170163       7
  170172  170169       6  170175  170169       6  170175  170172       7  170181
  170178       6  170184  170178       6  170184  170181       7  170190  170187
       6  170193  170187       6  170193  170190       7  170199  170196       6
  170202  170196       6  170202  170199       7  170208  170205       6  170211
  170205       6  170211  170208       7  170217  170214       6  170220  170214
       6  170220  170217       7  170226  170223       6  170229  170223       6
  170229  170226       7  170235  170232       6  170238  170232       6  170238
  170235       7  170244  170241       6  170247  170241       6  170247  170244
       7  170253  170250       6  170256  170250       6  170256  170253       7
  170262  170259       6  170265  170259       6  170265  170262       7  170271
  170268       6  170274  170268       6  170274  170271       7  170280  170277
       6  170283  170277       6  170283  170280       7  170289  170286       6
  170292  170286       6  170292  170289       7  170298  170295       6  170301
  170295       6  170301  170298       7  170307  170304       6  170310  170304
       6  170310  170307       7  170316  170313       6  170319  170313       6
  170319  170316       7  170325  170322       6  170328  170322       6  170328
  170325       7  170334  170331       6  170337  170331       6  170337  170334
       7  170343  170340       6  170346  170340       6  170346  170343       7
  170352  170349       6  170355  170349       6  170355  170352       7  170361
  170358       6  170364  170358       6  170364  170361       7  170370  170367
       6  170373  170367       6  170373  170370       7  170379  170376       6
  170382  170376       6  170382  170379       7  170388  170385       6  170391
  170385       6  170391  170388       7  170397  170394       6  170400  170394
       6  170400  170397       7  170406  170403       6  170409  170403       6
  170409  170406       7  170415  170412       6  170418  170412       6  170418
  170415       7  170424  170421       6  170427  170421       6  170427  170424
       7  170433  170430       6  170436  170430       6  170436  170433       7
  170442  170439       6  170445  170439       6  170445  170442       7  170451
  170448       6  170454  170448       6  170454  170451       7  170460  170457
       6  170463  170457       6  170463  170460       7  170469  170466       6
  170472  170466       6  170472  170469       7  170478  170475       6  170481
  170475       6  170481  170478       7  170487  170484       6  170490  170484
       6  170490  170487       7  170496  170493       6  170499  170493       6
  170499  170496       7  170505  170502       6  170508  170502       6  170508
  170505       7  170514  170511       6  170517  170511       6  170517  170514
       7  170523  170520       6  170526  170520       6  170526  170523       7
  170532  170529       6  170535  170529       6  170535  170532       7  170541
  170538       6  170544  170538       6  170544  170541       7  170550  170547
       6  170553  170547       6  170553  170550       7  170559  170556       6
  170562  170556       6  170562  170559       7  170568  170565       6  170571
  170565       6  170571  170568       7  170577  170574       6  170580  170574
       6  170580  170577       7  170586  170583       6  170589  170583       6
  170589  170586       7  170595  170592       6  170598  170592       6  170598
  170595       7  170604  170601       6  170607  170601       6  170607  170604
       7  170613  170610       6  170616  170610       6  170616  170613       7
  170622  170619       6  170625  170619       6  170625  170622       7  170631
  170628       6  170634  170628       6  170634  170631       7  170640  170637
       6  170643  170637       6  170643  170640       7  170649  170646       6
  170652  170646       6  170652  170649       7  170658  170655       6  170661
  170655       6  170661  170658       7  170667  170664       6  170670  170664
       6  170670  170667       7  170676  170673       6  170679  170673       6
  170679  170676       7  170685  170682       6  170688  170682       6  170688
  170685       7  170694  170691       6  170697  170691       6  170697  170694
       7  170703  170700       6  170706  170700       6  170706  170703       7
  170712  170709       6  170715  170709       6  170715  170712       7  170721
  170718       6  170724  170718       6  170724  170721       7  170730  170727
       6  170733  170727       6  170733  170730       7  170739  170736       6
  170742  170736       6  170742  170739       7  170748  170745       6  170751
  170745       6  170751  170748       7  170757  170754       6  170760  170754
       6  170760  170757       7  170766  170763       6  170769  170763       6
  170769  170766       7  170775  170772       6  170778  170772       6  170778
  170775       7  170784  170781       6  170787  170781       6  170787  170784
       7  170793  170790       6  170796  170790       6  170796  170793       7
  170802  170799       6  170805  170799       6  170805  170802       7  170811
  170808       6  170814  170808       6  170814  170811       7  170820  170817
       6  170823  170817       6  170823  170820       7  170829  170826       6
  170832  170826       6  170832  170829       7  170838  170835       6  170841
  170835       6  170841  170838       7  170847  170844       6  170850  170844
       6  170850  170847       7  170856  170853       6  170859  170853       6
  170859  170856       7  170865  170862       6  170868  170862       6  170868
  170865       7  170874  170871       6  170877  170871       6  170877  170874
       7  170883  170880       6  170886  170880       6  170886  170883       7
  170892  170889       6  170895  170889       6  170895  170892       7  170901
  170898       6  170904  170898       6  170904  170901       7  170910  170907
       6  170913  170907       6  170913  170910       7  170919  170916       6
  170922  170916       6  170922  170919       7  170928  170925       6  170931
  170925       6  170931  170928       7  170937  170934       6  170940  170934
       6  170940  170937       7  170946  170943       6  170949  170943       6
  170949  170946       7  170955  170952       6  170958  170952       6  170958
  170955       7  170964  170961       6  170967  170961       6  170967  170964
       7  170973  170970       6  170976  170970       6  170976  170973       7
  170982  170979       6  170985  170979       6  170985  170982       7  170991
  170988       6  170994  170988       6  170994  170991       7  171000  170997
       6  171003  170997       6  171003  171000       7  171009  171006       6
  171012  171006       6  171012  171009       7  171018  171015       6  171021
  171015       6  171021  171018       7  171027  171024       6  171030  171024
       6  171030  171027       7  171036  171033       6  171039  171033       6
  171039  171036       7  171045  171042       6  171048  171042       6  171048
  171045       7  171054  171051       6  171057  171051       6  171057  171054
       7  171063  171060       6  171066  171060       6  171066  171063       7
  171072  171069       6  171075  171069       6  171075  171072       7  171081
  171078       6  171084  171078       6  171084  171081       7  171090  171087
       6  171093  171087       6  171093  171090       7  171099  171096       6
  171102  171096       6  171102  171099       7  171108  171105       6  171111
  171105       6  171111  171108       7  171117  171114       6  171120  171114
       6  171120  171117       7  171126  171123       6  171129  171123       6
  171129  171126       7  171135  171132       6  171138  171132       6  171138
  171135       7  171144  171141       6  171147  171141       6  171147  171144
       7  171153  171150       6  171156  171150       6  171156  171153       7
  171162  171159       6  171165  171159       6  171165  171162       7  171171
  171168       6  171174  171168       6  171174  171171       7  171180  171177
       6  171183  171177       6  171183  171180       7  171189  171186       6
  171192  171186       6  171192  171189       7  171198  171195       6  171201
  171195       6  171201  171198       7  171207  171204       6  171210  171204
       6  171210  171207       7  171216  171213       6  171219  171213       6
  171219  171216       7  171225  171222       6  171228  171222       6  171228
  171225       7  171234  171231       6  171237  171231       6  171237  171234
       7  171243  171240       6  171246  171240       6  171246  171243       7
  171252  171249       6  171255  171249       6  171255  171252       7  171261
  171258       6  171264  171258       6  171264  171261       7  171270  171267
       6  171273  171267       6  171273  171270       7  171279  171276       6
  171282  171276       6  171282  171279       7  171288  171285       6  171291
  171285       6  171291  171288       7  171297  171294       6  171300  171294
       6  171300  171297       7  171306  171303       6  171309  171303       6
  171309  171306       7  171315  171312       6  171318  171312       6  171318
  171315       7  171324  171321       6  171327  171321       6  171327  171324
       7  171333  171330       6  171336  171330       6  171336  171333       7
  171342  171339       6  171345  171339       6  171345  171342       7  171351
  171348       6  171354  171348       6  171354  171351       7  171360  171357
       6  171363  171357       6  171363  171360       7  171369  171366       6
  171372  171366       6  171372  171369       7  171378  171375       6  171381
  171375       6  171381  171378       7  171387  171384       6  171390  171384
       6  171390  171387       7  171396  171393       6  171399  171393       6
  171399  171396       7  171405  171402       6  171408  171402       6  171408
  171405       7  171414  171411       6  171417  171411       6  171417  171414
       7  171423  171420       6  171426  171420       6  171426  171423       7
  171432  171429       6  171435  171429       6  171435  171432       7  171441
  171438       6  171444  171438       6  171444  171441       7  171450  171447
       6  171453  171447       6  171453  171450       7  171459  171456       6
  171462  171456       6  171462  171459       7  171468  171465       6  171471
  171465       6  171471  171468       7  171477  171474       6  171480  171474
       6  171480  171477       7  171486  171483       6  171489  171483       6
  171489  171486       7  171495  171492       6  171498  171492       6  171498
  171495       7  171504  171501       6  171507  171501       6  171507  171504
       7  171513  171510       6  171516  171510       6  171516  171513       7
  171522  171519       6  171525  171519       6  171525  171522       7  171531
  171528       6  171534  171528       6  171534  171531       7  171540  171537
       6  171543  171537       6  171543  171540       7  171549  171546       6
  171552  171546       6  171552  171549       7  171558  171555       6  171561
  171555       6  171561  171558       7  171567  171564       6  171570  171564
       6  171570  171567       7  171576  171573       6  171579  171573       6
  171579  171576       7  171585  171582       6  171588  171582       6  171588
  171585       7  171594  171591       6  171597  171591       6  171597  171594
       7  171603  171600       6  171606  171600       6  171606  171603       7
  171612  171609       6  171615  171609       6  171615  171612       7  171621
  171618       6  171624  171618       6  171624  171621       7  171630  171627
       6  171633  171627       6  171633  171630       7  171639  171636       6
  171642  171636       6  171642  171639       7  171648  171645       6  171651
  171645       6  171651  171648       7  171657  171654       6  171660  171654
       6  171660  171657       7  171666  171663       6  171669  171663       6
  171669  171666       7  171675  171672       6  171678  171672       6  171678
  171675       7  171684  171681       6  171687  171681       6  171687  171684
       7  171693  171690       6  171696  171690       6  171696  171693       7
  171702  171699       6  171705  171699       6  171705  171702       7  171711
  171708       6  171714  171708       6  171714  171711       7  171720  171717
       6  171723  171717       6  171723  171720       7  171729  171726       6
  171732  171726       6  171732  171729       7  171738  171735       6  171741
  171735       6  171741  171738       7  171747  171744       6  171750  171744
       6  171750  171747       7  171756  171753       6  171759  171753       6
  171759  171756       7  171765  171762       6  171768  171762       6  171768
  171765       7  171774  171771       6  171777  171771       6  171777  171774
       7  171783  171780       6  171786  171780       6  171786  171783       7
  171792  171789       6  171795  171789       6  171795  171792       7  171801
  171798       6  171804  171798       6  171804  171801       7  171810  171807
       6  171813  171807       6  171813  171810       7  171819  171816       6
  171822  171816       6  171822  171819       7  171828  171825       6  171831
  171825       6  171831  171828       7  171837  171834       6  171840  171834
       6  171840  171837       7  171846  171843       6  171849  171843       6
  171849  171846       7  171855  171852       6  171858  171852       6  171858
  171855       7  171864  171861       6  171867  171861       6  171867  171864
       7  171873  171870       6  171876  171870       6  171876  171873       7
  171882  171879       6  171885  171879       6  171885  171882       7  171891
  171888       6  171894  171888       6  171894  171891       7  171900  171897
       6  171903  171897       6  171903  171900       7  171909  171906       6
  171912  171906       6  171912  171909       7  171918  171915       6  171921
  171915       6  171921  171918       7  171927  171924       6  171930  171924
       6  171930  171927       7  171936  171933       6  171939  171933       6
  171939  171936       7  171945  171942       6  171948  171942       6  171948
  171945       7  171954  171951       6  171957  171951       6  171957  171954
       7  171963  171960       6  171966  171960       6  171966  171963       7
  171972  171969       6  171975  171969       6  171975  171972       7  171981
  171978       6  171984  171978       6  171984  171981       7  171990  171987
       6  171993  171987       6  171993  171990       7  171999  171996       6
  172002  171996       6  172002  171999       7  172008  172005       6  172011
  172005       6  172011  172008       7  172017  172014       6  172020  172014
       6  172020  172017       7  172026  172023       6  172029  172023       6
  172029  172026       7  172035  172032       6  172038  172032       6  172038
  172035       7  172044  172041       6  172047  172041       6  172047  172044
       7  172053  172050       6  172056  172050       6  172056  172053       7
  172062  172059       6  172065  172059       6  172065  172062       7  172071
  172068       6  172074  172068       6  172074  172071       7  172080  172077
       6  172083  172077       6  172083  172080       7  172089  172086       6
  172092  172086       6  172092  172089       7  172098  172095       6  172101
  172095       6  172101  172098       7  172107  172104       6  172110  172104
       6  172110  172107       7  172116  172113       6  172119  172113       6
  172119  172116       7  172125  172122       6  172128  172122       6  172128
  172125       7  172134  172131       6  172137  172131       6  172137  172134
       7  172143  172140       6  172146  172140       6  172146  172143       7
  172152  172149       6  172155  172149       6  172155  172152       7  172161
  172158       6  172164  172158       6  172164  172161       7  172170  172167
       6  172173  172167       6  172173  172170       7  172179  172176       6
  172182  172176       6  172182  172179       7  172188  172185       6  172191
  172185       6  172191  172188       7  172197  172194       6  172200  172194
       6  172200  172197       7  172206  172203       6  172209  172203       6
  172209  172206       7  172215  172212       6  172218  172212       6  172218
  172215       7  172224  172221       6  172227  172221       6  172227  172224
       7  172233  172230       6  172236  172230       6  172236  172233       7
  172242  172239       6  172245  172239       6  172245  172242       7  172251
  172248       6  172254  172248       6  172254  172251       7  172260  172257
       6  172263  172257       6  172263  172260       7  172269  172266       6
  172272  172266       6  172272  172269       7  172278  172275       6  172281
  172275       6  172281  172278       7  172287  172284       6  172290  172284
       6  172290  172287       7  172296  172293       6  172299  172293       6
  172299  172296       7  172305  172302       6  172308  172302       6  172308
  172305       7  172314  172311       6  172317  172311       6  172317  172314
       7  172323  172320       6  172326  172320       6  172326  172323       7
  172332  172329       6  172335  172329       6  172335  172332       7  172341
  172338       6  172344  172338       6  172344  172341       7  172350  172347
       6  172353  172347       6  172353  172350       7  172359  172356       6
  172362  172356       6  172362  172359       7  172368  172365       6  172371
  172365       6  172371  172368       7  172377  172374       6  172380  172374
       6  172380  172377       7  172386  172383       6  172389  172383       6
  172389  172386       7  172395  172392       6  172398  172392       6  172398
  172395       7  172404  172401       6  172407  172401       6  172407  172404
       7  172413  172410       6  172416  172410       6  172416  172413       7
  172422  172419       6  172425  172419       6  172425  172422       7  172431
  172428       6  172434  172428       6  172434  172431       7  172440  172437
       6  172443  172437       6  172443  172440       7  172449  172446       6
  172452  172446       6  172452  172449       7  172458  172455       6  172461
  172455       6  172461  172458       7  172467  172464       6  172470  172464
       6  172470  172467       7  172476  172473       6  172479  172473       6
  172479  172476       7  172485  172482       6  172488  172482       6  172488
  172485       7  172494  172491       6  172497  172491       6  172497  172494
       7  172503  172500       6  172506  172500       6  172506  172503       7
  172512  172509       6  172515  172509       6  172515  172512       7  172521
  172518       6  172524  172518       6  172524  172521       7  172530  172527
       6  172533  172527       6  172533  172530       7  172539  172536       6
  172542  172536       6  172542  172539       7  172548  172545       6  172551
  172545       6  172551  172548       7  172557  172554       6  172560  172554
       6  172560  172557       7  172566  172563       6  172569  172563       6
  172569  172566       7  172575  172572       6  172578  172572       6  172578
  172575       7  172584  172581       6  172587  172581       6  172587  172584
       7  172593  172590       6  172596  172590       6  172596  172593       7
  172602  172599       6  172605  172599       6  172605  172602       7  172611
  172608       6  172614  172608       6  172614  172611       7  172620  172617
       6  172623  172617       6  172623  172620       7  172629  172626       6
  172632  172626       6  172632  172629       7  172638  172635       6  172641
  172635       6  172641  172638       7  172647  172644       6  172650  172644
       6  172650  172647       7  172656  172653       6  172659  172653       6
  172659  172656       7  172665  172662       6  172668  172662       6  172668
  172665       7  172674  172671       6  172677  172671       6  172677  172674
       7  172683  172680       6  172686  172680       6  172686  172683       7
  172692  172689       6  172695  172689       6  172695  172692       7  172701
  172698       6  172704  172698       6  172704  172701       7  172710  172707
       6  172713  172707       6  172713  172710       7  172719  172716       6
  172722  172716       6  172722  172719       7  172728  172725       6  172731
  172725       6  172731  172728       7  172737  172734       6  172740  172734
       6  172740  172737       7  172746  172743       6  172749  172743       6
  172749  172746       7  172755  172752       6  172758  172752       6  172758
  172755       7  172764  172761       6  172767  172761       6  172767  172764
       7  172773  172770       6  172776  172770       6  172776  172773       7
  172782  172779       6  172785  172779       6  172785  172782       7  172791
  172788       6  172794  172788       6  172794  172791       7  172800  172797
       6  172803  172797       6  172803  172800       7  172809  172806       6
  172812  172806       6  172812  172809       7  172818  172815       6  172821
  172815       6  172821  172818       7  172827  172824       6  172830  172824
       6  172830  172827       7  172836  172833       6  172839  172833       6
  172839  172836       7  172845  172842       6  172848  172842       6  172848
  172845       7  172854  172851       6  172857  172851       6  172857  172854
       7  172863  172860       6  172866  172860       6  172866  172863       7
  172872  172869       6  172875  172869       6  172875  172872       7  172881
  172878       6  172884  172878       6  172884  172881       7  172890  172887
       6  172893  172887       6  172893  172890       7  172899  172896       6
  172902  172896       6  172902  172899       7  172908  172905       6  172911
  172905       6  172911  172908       7  172917  172914       6  172920  172914
       6  172920  172917       7  172926  172923       6  172929  172923       6
  172929  172926       7  172935  172932       6  172938  172932       6  172938
  172935       7  172944  172941       6  172947  172941       6  172947  172944
       7  172953  172950       6  172956  172950       6  172956  172953       7
  172962  172959       6  172965  172959       6  172965  172962       7  172971
  172968       6  172974  172968       6  172974  172971       7  172980  172977
       6  172983  172977       6  172983  172980       7  172989  172986       6
  172992  172986       6  172992  172989       7  172998  172995       6  173001
  172995       6  173001  172998       7  173007  173004       6  173010  173004
       6  173010  173007       7  173016  173013       6  173019  173013       6
  173019  173016       7  173025  173022       6  173028  173022       6  173028
  173025       7  173034  173031       6  173037  173031       6  173037  173034
       7  173043  173040       6  173046  173040       6  173046  173043       7
  173052  173049       6  173055  173049       6  173055  173052       7  173061
  173058       6  173064  173058       6  173064  173061       7  173070  173067
       6  173073  173067       6  173073  173070       7  173079  173076       6
  173082  173076       6  173082  173079       7  173088  173085       6  173091
  173085       6  173091  173088       7  173097  173094       6  173100  173094
       6  173100  173097       7  173106  173103       6  173109  173103       6
  173109  173106       7  173115  173112       6  173118  173112       6  173118
  173115       7  173124  173121       6  173127  173121       6  173127  173124
       7  173133  173130       6  173136  173130       6  173136  173133       7
  173142  173139       6  173145  173139       6  173145  173142       7  173151
  173148       6  173154  173148       6  173154  173151       7  173160  173157
       6  173163  173157       6  173163  173160       7  173169  173166       6
  173172  173166       6  173172  173169       7  173178  173175       6  173181
  173175       6  173181  173178       7  173187  173184       6  173190  173184
       6  173190  173187       7  173196  173193       6  173199  173193       6
  173199  173196       7  173205  173202       6  173208  173202       6  173208
  173205       7  173214  173211       6  173217  173211       6  173217  173214
       7  173223  173220       6  173226  173220       6  173226  173223       7
  173232  173229       6  173235  173229       6  173235  173232       7  173241
  173238       6  173244  173238       6  173244  173241       7  173250  173247
       6  173253  173247       6  173253  173250       7  173259  173256       6
  173262  173256       6  173262  173259       7  173268  173265       6  173271
  173265       6  173271  173268       7  173277  173274       6  173280  173274
       6  173280  173277       7  173286  173283       6  173289  173283       6
  173289  173286       7  173295  173292       6  173298  173292       6  173298
  173295       7  173304  173301       6  173307  173301       6  173307  173304
       7  173313  173310       6  173316  173310       6  173316  173313       7
  173322  173319       6  173325  173319       6  173325  173322       7  173331
  173328       6  173334  173328       6  173334  173331       7  173340  173337
       6  173343  173337       6  173343  173340       7  173349  173346       6
  173352  173346       6  173352  173349       7  173358  173355       6  173361
  173355       6  173361  173358       7  173367  173364       6  173370  173364
       6  173370  173367       7  173376  173373       6  173379  173373       6
  173379  173376       7  173385  173382       6  173388  173382       6  173388
  173385       7  173394  173391       6  173397  173391       6  173397  173394
       7  173403  173400       6  173406  173400       6  173406  173403       7
  173412  173409       6  173415  173409       6  173415  173412       7  173421
  173418       6  173424  173418       6  173424  173421       7  173430  173427
       6  173433  173427       6  173433  173430       7  173439  173436       6
  173442  173436       6  173442  173439       7  173448  173445       6  173451
  173445       6  173451  173448       7  173457  173454       6  173460  173454
       6  173460  173457       7  173466  173463       6  173469  173463       6
  173469  173466       7  173475  173472       6  173478  173472       6  173478
  173475       7  173484  173481       6  173487  173481       6  173487  173484
       7  173493  173490       6  173496  173490       6  173496  173493       7
  173502  173499       6  173505  173499       6  173505  173502       7  173511
  173508       6  173514  173508       6  173514  173511       7  173520  173517
       6  173523  173517       6  173523  173520       7  173529  173526       6
  173532  173526       6  173532  173529       7  173538  173535       6  173541
  173535       6  173541  173538       7  173547  173544       6  173550  173544
       6  173550  173547       7  173556  173553       6  173559  173553       6
  173559  173556       7  173565  173562       6  173568  173562       6  173568
  173565       7  173574  173571       6  173577  173571       6  173577  173574
       7  173583  173580       6  173586  173580       6  173586  173583       7
  173592  173589       6  173595  173589       6  173595  173592       7  173601
  173598       6  173604  173598       6  173604  173601       7  173610  173607
       6  173613  173607       6  173613  173610       7  173619  173616       6
  173622  173616       6  173622  173619       7  173628  173625       6  173631
  173625       6  173631  173628       7  173637  173634       6  173640  173634
       6  173640  173637       7  173646  173643       6  173649  173643       6
  173649  173646       7  173655  173652       6  173658  173652       6  173658
  173655       7  173664  173661       6  173667  173661       6  173667  173664
       7  173673  173670       6  173676  173670       6  173676  173673       7
  173682  173679       6  173685  173679       6  173685  173682       7  173691
  173688       6  173694  173688       6  173694  173691       7  173700  173697
       6  173703  173697       6  173703  173700       7  173709  173706       6
  173712  173706       6  173712  173709       7  173718  173715       6  173721
  173715       6  173721  173718       7  173727  173724       6  173730  173724
       6  173730  173727       7  173736  173733       6  173739  173733       6
  173739  173736       7  173745  173742       6  173748  173742       6  173748
  173745       7  173754  173751       6  173757  173751       6  173757  173754
       7  173763  173760       6  173766  173760       6  173766  173763       7
  173772  173769       6  173775  173769       6  173775  173772       7  173781
  173778       6  173784  173778       6  173784  173781       7  173790  173787
       6  173793  173787       6  173793  173790       7  173799  173796       6
  173802  173796       6  173802  173799       7  173808  173805       6  173811
  173805       6  173811  173808       7  173817  173814       6  173820  173814
       6  173820  173817       7  173826  173823       6  173829  173823       6
  173829  173826       7  173835  173832       6  173838  173832       6  173838
  173835       7  173844  173841       6  173847  173841       6  173847  173844
       7  173853  173850       6  173856  173850       6  173856  173853       7
  173862  173859       6  173865  173859       6  173865  173862       7  173871
  173868       6  173874  173868       6  173874  173871       7  173880  173877
       6  173883  173877       6  173883  173880       7  173889  173886       6
  173892  173886       6  173892  173889       7  173898  173895       6  173901
  173895       6  173901  173898       7  173907  173904       6  173910  173904
       6  173910  173907       7  173916  173913       6  173919  173913       6
  173919  173916       7  173925  173922       6  173928  173922       6  173928
  173925       7  173934  173931       6  173937  173931       6  173937  173934
       7  173943  173940       6  173946  173940       6  173946  173943       7
  173952  173949       6  173955  173949       6  173955  173952       7  173961
  173958       6  173964  173958       6  173964  173961       7  173970  173967
       6  173973  173967       6  173973  173970       7  173979  173976       6
  173982  173976       6  173982  173979       7  173988  173985       6  173991
  173985       6  173991  173988       7  173997  173994       6  174000  173994
       6  174000  173997       7  174006  174003       6  174009  174003       6
  174009  174006       7  174015  174012       6  174018  174012       6  174018
  174015       7  174024  174021       6  174027  174021       6  174027  174024
       7  174033  174030       6  174036  174030       6  174036  174033       7
  174042  174039       6  174045  174039       6  174045  174042       7  174051
  174048       6  174054  174048       6  174054  174051       7  174060  174057
       6  174063  174057       6  174063  174060       7  174069  174066       6
  174072  174066       6  174072  174069       7  174078  174075       6  174081
  174075       6  174081  174078       7  174087  174084       6  174090  174084
       6  174090  174087       7  174096  174093       6  174099  174093       6
  174099  174096       7  174105  174102       6  174108  174102       6  174108
  174105       7  174114  174111       6  174117  174111       6  174117  174114
       7  174123  174120       6  174126  174120       6  174126  174123       7
  174132  174129       6  174135  174129       6  174135  174132       7  174141
  174138       6  174144  174138       6  174144  174141       7  174150  174147
       6  174153  174147       6  174153  174150       7  174159  174156       6
  174162  174156       6  174162  174159       7  174168  174165       6  174171
  174165       6  174171  174168       7  174177  174174       6  174180  174174
       6  174180  174177       7  174186  174183       6  174189  174183       6
  174189  174186       7  174195  174192       6  174198  174192       6  174198
  174195       7  174204  174201       6  174207  174201       6  174207  174204
       7  174213  174210       6  174216  174210       6  174216  174213       7
  174222  174219       6  174225  174219       6  174225  174222       7  174231
  174228       6  174234  174228       6  174234  174231       7  174240  174237
       6  174243  174237       6  174243  174240       7  174249  174246       6
  174252  174246       6  174252  174249       7  174258  174255       6  174261
  174255       6  174261  174258       7  174267  174264       6  174270  174264
       6  174270  174267       7  174276  174273       6  174279  174273       6
  174279  174276       7  174285  174282       6  174288  174282       6  174288
  174285       7  174294  174291       6  174297  174291       6  174297  174294
       7  174303  174300       6  174306  174300       6  174306  174303       7
  174312  174309       6  174315  174309       6  174315  174312       7  174321
  174318       6  174324  174318       6  174324  174321       7  174330  174327
       6  174333  174327       6  174333  174330       7  174339  174336       6
  174342  174336       6  174342  174339       7  174348  174345       6  174351
  174345       6  174351  174348       7  174357  174354       6  174360  174354
       6  174360  174357       7  174366  174363       6  174369  174363       6
  174369  174366       7  174375  174372       6  174378  174372       6  174378
  174375       7  174384  174381       6  174387  174381       6  174387  174384
       7  174393  174390       6  174396  174390       6  174396  174393       7
  174402  174399       6  174405  174399       6  174405  174402       7  174411
  174408       6  174414  174408       6  174414  174411       7  174420  174417
       6  174423  174417       6  174423  174420       7  174429  174426       6
  174432  174426       6  174432  174429       7  174438  174435       6  174441
  174435       6  174441  174438       7  174447  174444       6  174450  174444
       6  174450  174447       7  174456  174453       6  174459  174453       6
  174459  174456       7  174465  174462       6  174468  174462       6  174468
  174465       7  174474  174471       6  174477  174471       6  174477  174474
       7  174483  174480       6  174486  174480       6  174486  174483       7
  174492  174489       6  174495  174489       6  174495  174492       7  174501
  174498       6  174504  174498       6  174504  174501       7  174510  174507
       6  174513  174507       6  174513  174510       7  174519  174516       6
  174522  174516       6  174522  174519       7  174528  174525       6  174531
  174525       6  174531  174528       7  174537  174534       6  174540  174534
       6  174540  174537       7  174546  174543       6  174549  174543       6
  174549  174546       7  174555  174552       6  174558  174552       6  174558
  174555       7  174564  174561       6  174567  174561       6  174567  174564
       7  174573  174570       6  174576  174570       6  174576  174573       7
  174582  174579       6  174585  174579       6  174585  174582       7  174591
  174588       6  174594  174588       6  174594  174591       7  174600  174597
       6  174603  174597       6  174603  174600       7  174609  174606       6
  174612  174606       6  174612  174609       7  174618  174615       6  174621
  174615       6  174621  174618       7  174627  174624       6  174630  174624
       6  174630  174627       7  174636  174633       6  174639  174633       6
  174639  174636       7  174645  174642       6  174648  174642       6  174648
  174645       7  174654  174651       6  174657  174651       6  174657  174654
       7  174663  174660       6  174666  174660       6  174666  174663       7
  174672  174669       6  174675  174669       6  174675  174672       7  174681
  174678       6  174684  174678       6  174684  174681       7  174690  174687
       6  174693  174687       6  174693  174690       7  174699  174696       6
  174702  174696       6  174702  174699       7  174708  174705       6  174711
  174705       6  174711  174708       7  174717  174714       6  174720  174714
       6  174720  174717       7  174726  174723       6  174729  174723       6
  174729  174726       7  174735  174732       6  174738  174732       6  174738
  174735       7  174744  174741       6  174747  174741       6  174747  174744
       7  174753  174750       6  174756  174750       6  174756  174753       7
  174762  174759       6  174765  174759       6  174765  174762       7  174771
  174768       6  174774  174768       6  174774  174771       7  174780  174777
       6  174783  174777       6  174783  174780       7  174789  174786       6
  174792  174786       6  174792  174789       7  174798  174795       6  174801
  174795       6  174801  174798       7  174807  174804       6  174810  174804
       6  174810  174807       7  174816  174813       6  174819  174813       6
  174819  174816       7  174825  174822       6  174828  174822       6  174828
  174825       7  174834  174831       6  174837  174831       6  174837  174834
       7  174843  174840       6  174846  174840       6  174846  174843       7
  174852  174849       6  174855  174849       6  174855  174852       7  174861
  174858       6  174864  174858       6  174864  174861       7  174870  174867
       6  174873  174867       6  174873  174870       7  174879  174876       6
  174882  174876       6  174882  174879       7  174888  174885       6  174891
  174885       6  174891  174888       7  174897  174894       6  174900  174894
       6  174900  174897       7  174906  174903       6  174909  174903       6
  174909  174906       7  174915  174912       6  174918  174912       6  174918
  174915       7  174924  174921       6  174927  174921       6  174927  174924
       7  174933  174930       6  174936  174930       6  174936  174933       7
  174942  174939       6  174945  174939       6  174945  174942       7  174951
  174948       6  174954  174948       6  174954  174951       7  174960  174957
       6  174963  174957       6  174963  174960       7  174969  174966       6
  174972  174966       6  174972  174969       7  174978  174975       6  174981
  174975       6  174981  174978       7  174987  174984       6  174990  174984
       6  174990  174987       7  174996  174993       6  174999  174993       6
  174999  174996       7  175005  175002       6  175008  175002       6  175008
  175005       7  175014  175011       6  175017  175011       6  175017  175014
       7  175023  175020       6  175026  175020       6  175026  175023       7
  175032  175029       6  175035  175029       6  175035  175032       7  175041
  175038       6  175044  175038       6  175044  175041       7  175050  175047
       6  175053  175047       6  175053  175050       7  175059  175056       6
  175062  175056       6  175062  175059       7  175068  175065       6  175071
  175065       6  175071  175068       7  175077  175074       6  175080  175074
       6  175080  175077       7  175086  175083       6  175089  175083       6
  175089  175086       7  175095  175092       6  175098  175092       6  175098
  175095       7  175104  175101       6  175107  175101       6  175107  175104
       7  175113  175110       6  175116  175110       6  175116  175113       7
  175122  175119       6  175125  175119       6  175125  175122       7  175131
  175128       6  175134  175128       6  175134  175131       7  175140  175137
       6  175143  175137       6  175143  175140       7  175149  175146       6
  175152  175146       6  175152  175149       7  175158  175155       6  175161
  175155       6  175161  175158       7  175167  175164       6  175170  175164
       6  175170  175167       7  175176  175173       6  175179  175173       6
  175179  175176       7  175185  175182       6  175188  175182       6  175188
  175185       7  175194  175191       6  175197  175191       6  175197  175194
       7  175203  175200       6  175206  175200       6  175206  175203       7
  175212  175209       6  175215  175209       6  175215  175212       7  175221
  175218       6  175224  175218       6  175224  175221       7  175230  175227
       6  175233  175227       6  175233  175230       7  175239  175236       6
  175242  175236       6  175242  175239       7  175248  175245       6  175251
  175245       6  175251  175248       7  175257  175254       6  175260  175254
       6  175260  175257       7  175266  175263       6  175269  175263       6
  175269  175266       7  175275  175272       6  175278  175272       6  175278
  175275       7  175284  175281       6  175287  175281       6  175287  175284
       7  175293  175290       6  175296  175290       6  175296  175293       7
  175302  175299       6  175305  175299       6  175305  175302       7  175311
  175308       6  175314  175308       6  175314  175311       7  175320  175317
       6  175323  175317       6  175323  175320       7  175329  175326       6
  175332  175326       6  175332  175329       7  175338  175335       6  175341
  175335       6  175341  175338       7  175347  175344       6  175350  175344
       6  175350  175347       7  175356  175353       6  175359  175353       6
  175359  175356       7  175365  175362       6  175368  175362       6  175368
  175365       7  175374  175371       6  175377  175371       6  175377  175374
       7  175383  175380       6  175386  175380       6  175386  175383       7
  175392  175389       6  175395  175389       6  175395  175392       7  175401
  175398       6  175404  175398       6  175404  175401       7  175410  175407
       6  175413  175407       6  175413  175410       7  175419  175416       6
  175422  175416       6  175422  175419       7  175428  175425       6  175431
  175425       6  175431  175428       7  175437  175434       6  175440  175434
       6  175440  175437       7  175446  175443       6  175449  175443       6
  175449  175446       7  175455  175452       6  175458  175452       6  175458
  175455       7  175464  175461       6  175467  175461       6  175467  175464
       7  175473  175470       6  175476  175470       6  175476  175473       7
  175482  175479       6  175485  175479       6  175485  175482       7  175491
  175488       6  175494  175488       6  175494  175491       7  175500  175497
       6  175503  175497       6  175503  175500       7  175509  175506       6
  175512  175506       6  175512  175509       7  175518  175515       6  175521
  175515       6  175521  175518       7  175527  175524       6  175530  175524
       6  175530  175527       7  175536  175533       6  175539  175533       6
  175539  175536       7  175545  175542       6  175548  175542       6  175548
  175545       7  175554  175551       6  175557  175551       6  175557  175554
       7  175563  175560       6  175566  175560       6  175566  175563       7
  175572  175569       6  175575  175569       6  175575  175572       7  175581
  175578       6  175584  175578       6  175584  175581       7  175590  175587
       6  175593  175587       6  175593  175590       7  175599  175596       6
  175602  175596       6  175602  175599       7  175608  175605       6  175611
  175605       6  175611  175608       7  175617  175614       6  175620  175614
       6  175620  175617       7  175626  175623       6  175629  175623       6
  175629  175626       7  175635  175632       6  175638  175632       6  175638
  175635       7  175644  175641       6  175647  175641       6  175647  175644
       7  175653  175650       6  175656  175650       6  175656  175653       7
  175662  175659       6  175665  175659       6  175665  175662       7  175671
  175668       6  175674  175668       6  175674  175671       7  175680  175677
       6  175683  175677       6  175683  175680       7  175689  175686       6
  175692  175686       6  175692  175689       7  175698  175695       6  175701
  175695       6  175701  175698       7  175707  175704       6  175710  175704
       6  175710  175707       7  175716  175713       6  175719  175713       6
  175719  175716       7  175725  175722       6  175728  175722       6  175728
  175725       7  175734  175731       6  175737  175731       6  175737  175734
       7  175743  175740       6  175746  175740       6  175746  175743       7
  175752  175749       6  175755  175749       6  175755  175752       7  175761
  175758       6  175764  175758       6  175764  175761       7  175770  175767
       6  175773  175767       6  175773  175770       7  175779  175776       6
  175782  175776       6  175782  175779       7  175788  175785       6  175791
  175785       6  175791  175788       7  175797  175794       6  175800  175794
       6  175800  175797       7  175806  175803       6  175809  175803       6
  175809  175806       7  175815  175812       6  175818  175812       6  175818
  175815       7  175824  175821       6  175827  175821       6  175827  175824
       7  175833  175830       6  175836  175830       6  175836  175833       7
  175842  175839       6  175845  175839       6  175845  175842       7  175851
  175848       6  175854  175848       6  175854  175851       7  175860  175857
       6  175863  175857       6  175863  175860       7  175869  175866       6
  175872  175866       6  175872  175869       7  175878  175875       6  175881
  175875       6  175881  175878       7  175887  175884       6  175890  175884
       6  175890  175887       7  175896  175893       6  175899  175893       6
  175899  175896       7  175905  175902       6  175908  175902       6  175908
  175905       7  175914  175911       6  175917  175911       6  175917  175914
       7  175923  175920       6  175926  175920       6  175926  175923       7
  175932  175929       6  175935  175929       6  175935  175932       7  175941
  175938       6  175944  175938       6  175944  175941       7  175950  175947
       6  175953  175947       6  175953  175950       7  175959  175956       6
  175962  175956       6  175962  175959       7  175968  175965       6  175971
  175965       6  175971  175968       7  175977  175974       6  175980  175974
       6  175980  175977       7  175986  175983       6  175989  175983       6
  175989  175986       7  175995  175992       6  175998  175992       6  175998
  175995       7  176004  176001       6  176007  176001       6  176007  176004
       7  176013  176010       6  176016  176010       6  176016  176013       7
  176022  176019       6  176025  176019       6  176025  176022       7  176031
  176028       6  176034  176028       6  176034  176031       7  176040  176037
       6  176043  176037       6  176043  176040       7  176049  176046       6
  176052  176046       6  176052  176049       7  176058  176055       6  176061
  176055       6  176061  176058       7  176067  176064       6  176070  176064
       6  176070  176067       7  176076  176073       6  176079  176073       6
  176079  176076       7  176085  176082       6  176088  176082       6  176088
  176085       7  176094  176091       6  176097  176091       6  176097  176094
       7  176103  176100       6  176106  176100       6  176106  176103       7
  176112  176109       6  176115  176109       6  176115  176112       7  176121
  176118       6  176124  176118       6  176124  176121       7  176130  176127
       6  176133  176127       6  176133  176130       7  176139  176136       6
  176142  176136       6  176142  176139       7  176148  176145       6  176151
  176145       6  176151  176148       7  176157  176154       6  176160  176154
       6  176160  176157       7  176166  176163       6  176169  176163       6
  176169  176166       7  176175  176172       6  176178  176172       6  176178
  176175       7  176184  176181       6  176187  176181       6  176187  176184
       7  176193  176190       6  176196  176190       6  176196  176193       7
  176202  176199       6  176205  176199       6  176205  176202       7  176211
  176208       6  176214  176208       6  176214  176211       7  176220  176217
       6  176223  176217       6  176223  176220       7  176229  176226       6
  176232  176226       6  176232  176229       7  176238  176235       6  176241
  176235       6  176241  176238       7  176247  176244       6  176250  176244
       6  176250  176247       7  176256  176253       6  176259  176253       6
  176259  176256       7  176265  176262       6  176268  176262       6  176268
  176265       7  176274  176271       6  176277  176271       6  176277  176274
       7  176283  176280       6  176286  176280       6  176286  176283       7
  176292  176289       6  176295  176289       6  176295  176292       7  176301
  176298       6  176304  176298       6  176304  176301       7  176310  176307
       6  176313  176307       6  176313  176310       7  176319  176316       6
  176322  176316       6  176322  176319       7  176328  176325       6  176331
  176325       6  176331  176328       7  176337  176334       6  176340  176334
       6  176340  176337       7  176346  176343       6  176349  176343       6
  176349  176346       7  176355  176352       6  176358  176352       6  176358
  176355       7  176364  176361       6  176367  176361       6  176367  176364
       7  176373  176370       6  176376  176370       6  176376  176373       7
  176382  176379       6  176385  176379       6  176385  176382       7  176391
  176388       6  176394  176388       6  176394  176391       7  176400  176397
       6  176403  176397       6  176403  176400       7  176409  176406       6
  176412  176406       6  176412  176409       7  176418  176415       6  176421
  176415       6  176421  176418       7  176427  176424       6  176430  176424
       6  176430  176427       7  176436  176433       6  176439  176433       6
  176439  176436       7  176445  176442       6  176448  176442       6  176448
  176445       7  176454  176451       6  176457  176451       6  176457  176454
       7  176463  176460       6  176466  176460       6  176466  176463       7
  176472  176469       6  176475  176469       6  176475  176472       7  176481
  176478       6  176484  176478       6  176484  176481       7  176490  176487
       6  176493  176487       6  176493  176490       7  176499  176496       6
  176502  176496       6  176502  176499       7  176508  176505       6  176511
  176505       6  176511  176508       7  176517  176514       6  176520  176514
       6  176520  176517       7  176526  176523       6  176529  176523       6
  176529  176526       7  176535  176532       6  176538  176532       6  176538
  176535       7  176544  176541       6  176547  176541       6  176547  176544
       7  176553  176550       6  176556  176550       6  176556  176553       7
  176562  176559       6  176565  176559       6  176565  176562       7  176571
  176568       6  176574  176568       6  176574  176571       7  176580  176577
       6  176583  176577       6  176583  176580       7  176589  176586       6
  176592  176586       6  176592  176589       7  176598  176595       6  176601
  176595       6  176601  176598       7  176607  176604       6  176610  176604
       6  176610  176607       7  176616  176613       6  176619  176613       6
  176619  176616       7  176625  176622       6  176628  176622       6  176628
  176625       7  176634  176631       6  176637  176631       6  176637  176634
       7  176643  176640       6  176646  176640       6  176646  176643       7
  176652  176649       6  176655  176649       6  176655  176652       7  176661
  176658       6  176664  176658       6  176664  176661       7  176670  176667
       6  176673  176667       6  176673  176670       7  176679  176676       6
  176682  176676       6  176682  176679       7  176688  176685       6  176691
  176685       6  176691  176688       7  176697  176694       6  176700  176694
       6  176700  176697       7  176706  176703       6  176709  176703       6
  176709  176706       7  176715  176712       6  176718  176712       6  176718
  176715       7  176724  176721       6  176727  176721       6  176727  176724
       7  176733  176730       6  176736  176730       6  176736  176733       7
  176742  176739       6  176745  176739       6  176745  176742       7  176751
  176748       6  176754  176748       6  176754  176751       7  176760  176757
       6  176763  176757       6  176763  176760       7  176769  176766       6
  176772  176766       6  176772  176769       7  176778  176775       6  176781
  176775       6  176781  176778       7  176787  176784       6  176790  176784
       6  176790  176787       7  176796  176793       6  176799  176793       6
  176799  176796       7  176805  176802       6  176808  176802       6  176808
  176805       7  176814  176811       6  176817  176811       6  176817  176814
       7  176823  176820       6  176826  176820       6  176826  176823       7
  176832  176829       6  176835  176829       6  176835  176832       7  176841
  176838       6  176844  176838       6  176844  176841       7  176850  176847
       6  176853  176847       6  176853  176850       7  176859  176856       6
  176862  176856       6  176862  176859       7  176868  176865       6  176871
  176865       6  176871  176868       7  176877  176874       6  176880  176874
       6  176880  176877       7  176886  176883       6  176889  176883       6
  176889  176886       7  176895  176892       6  176898  176892       6  176898
  176895       7  176904  176901       6  176907  176901       6  176907  176904
       7  176913  176910       6  176916  176910       6  176916  176913       7
  176922  176919       6  176925  176919       6  176925  176922       7  176931
  176928       6  176934  176928       6  176934  176931       7  176940  176937
       6  176943  176937       6  176943  176940       7  176949  176946       6
  176952  176946       6  176952  176949       7  176958  176955       6  176961
  176955       6  176961  176958       7  176967  176964       6  176970  176964
       6  176970  176967       7  176976  176973       6  176979  176973       6
  176979  176976       7  176985  176982       6  176988  176982       6  176988
  176985       7  176994  176991       6  176997  176991       6  176997  176994
       7  177003  177000       6  177006  177000       6  177006  177003       7
  177012  177009       6  177015  177009       6  177015  177012       7  177021
  177018       6  177024  177018       6  177024  177021       7  177030  177027
       6  177033  177027       6  177033  177030       7  177039  177036       6
  177042  177036       6  177042  177039       7  177048  177045       6  177051
  177045       6  177051  177048       7  177057  177054       6  177060  177054
       6  177060  177057       7  177066  177063       6  177069  177063       6
  177069  177066       7  177075  177072       6  177078  177072       6  177078
  177075       7  177084  177081       6  177087  177081       6  177087  177084
       7  177093  177090       6  177096  177090       6  177096  177093       7
  177102  177099       6  177105  177099       6  177105  177102       7  177111
  177108       6  177114  177108       6  177114  177111       7  177120  177117
       6  177123  177117       6  177123  177120       7  177129  177126       6
  177132  177126       6  177132  177129       7  177138  177135       6  177141
  177135       6  177141  177138       7  177147  177144       6  177150  177144
       6  177150  177147       7  177156  177153       6  177159  177153       6
  177159  177156       7  177165  177162       6  177168  177162       6  177168
  177165       7  177174  177171       6  177177  177171       6  177177  177174
       7  177183  177180       6  177186  177180       6  177186  177183       7
  177192  177189       6  177195  177189       6  177195  177192       7  177201
  177198       6  177204  177198       6  177204  177201       7  177210  177207
       6  177213  177207       6  177213  177210       7  177219  177216       6
  177222  177216       6  177222  177219       7  177228  177225       6  177231
  177225       6  177231  177228       7  177237  177234       6  177240  177234
       6  177240  177237       7  177246  177243       6  177249  177243       6
  177249  177246       7  177255  177252       6  177258  177252       6  177258
  177255       7  177264  177261       6  177267  177261       6  177267  177264
       7  177273  177270       6  177276  177270       6  177276  177273       7
  177282  177279       6  177285  177279       6  177285  177282       7  177291
  177288       6  177294  177288       6  177294  177291       7  177300  177297
       6  177303  177297       6  177303  177300       7  177309  177306       6
  177312  177306       6  177312  177309       7  177318  177315       6  177321
  177315       6  177321  177318       7  177327  177324       6  177330  177324
       6  177330  177327       7  177336  177333       6  177339  177333       6
  177339  177336       7  177345  177342       6  177348  177342       6  177348
  177345       7  177354  177351       6  177357  177351       6  177357  177354
       7  177363  177360       6  177366  177360       6  177366  177363       7
  177372  177369       6  177375  177369       6  177375  177372       7  177381
  177378       6  177384  177378       6  177384  177381       7  177390  177387
       6  177393  177387       6  177393  177390       7  177399  177396       6
  177402  177396       6  177402  177399       7  177408  177405       6  177411
  177405       6  177411  177408       7  177417  177414       6  177420  177414
       6  177420  177417       7  177426  177423       6  177429  177423       6
  177429  177426       7  177435  177432       6  177438  177432       6  177438
  177435       7  177444  177441       6  177447  177441       6  177447  177444
       7  177453  177450       6  177456  177450       6  177456  177453       7
  177462  177459       6  177465  177459       6  177465  177462       7  177471
  177468       6  177474  177468       6  177474  177471       7  177480  177477
       6  177483  177477       6  177483  177480       7  177489  177486       6
  177492  177486       6  177492  177489       7  177498  177495       6  177501
  177495       6  177501  177498       7  177507  177504       6  177510  177504
       6  177510  177507       7  177516  177513       6  177519  177513       6
  177519  177516       7  177525  177522       6  177528  177522       6  177528
  177525       7  177534  177531       6  177537  177531       6  177537  177534
       7  177543  177540       6  177546  177540       6  177546  177543       7
  177552  177549       6  177555  177549       6  177555  177552       7  177561
  177558       6  177564  177558       6  177564  177561       7  177570  177567
       6  177573  177567       6  177573  177570       7  177579  177576       6
  177582  177576       6  177582  177579       7  177588  177585       6  177591
  177585       6  177591  177588       7  177597  177594       6  177600  177594
       6  177600  177597       7  177606  177603       6  177609  177603       6
  177609  177606       7  177615  177612       6  177618  177612       6  177618
  177615       7  177624  177621       6  177627  177621       6  177627  177624
       7  177633  177630       6  177636  177630       6  177636  177633       7
  177642  177639       6  177645  177639       6  177645  177642       7  177651
  177648       6  177654  177648       6  177654  177651       7  177660  177657
       6  177663  177657       6  177663  177660       7  177669  177666       6
  177672  177666       6  177672  177669       7  177678  177675       6  177681
  177675       6  177681  177678       7  177687  177684       6  177690  177684
       6  177690  177687       7  177696  177693       6  177699  177693       6
  177699  177696       7  177705  177702       6  177708  177702       6  177708
  177705       7  177714  177711       6  177717  177711       6  177717  177714
       7  177723  177720       6  177726  177720       6  177726  177723       7
  177732  177729       6  177735  177729       6  177735  177732       7  177741
  177738       6  177744  177738       6  177744  177741       7  177750  177747
       6  177753  177747       6  177753  177750       7  177759  177756       6
  177762  177756       6  177762  177759       7  177768  177765       6  177771
  177765       6  177771  177768       7  177777  177774       6  177780  177774
       6  177780  177777       7  177786  177783       6  177789  177783       6
  177789  177786       7  177795  177792       6  177798  177792       6  177798
  177795       7  177804  177801       6  177807  177801       6  177807  177804
       7  177813  177810       6  177816  177810       6  177816  177813       7
  177822  177819       6  177825  177819       6  177825  177822       7  177831
  177828       6  177834  177828       6  177834  177831       7  177840  177837
       6  177843  177837       6  177843  177840       7  177849  177846       6
  177852  177846       6  177852  177849       7  177858  177855       6  177861
  177855       6  177861  177858       7  177867  177864       6  177870  177864
       6  177870  177867       7  177876  177873       6  177879  177873       6
  177879  177876       7  177885  177882       6  177888  177882       6  177888
  177885       7  177894  177891       6  177897  177891       6  177897  177894
       7  177903  177900       6  177906  177900       6  177906  177903       7
  177912  177909       6  177915  177909       6  177915  177912       7  177921
  177918       6  177924  177918       6  177924  177921       7  177930  177927
       6  177933  177927       6  177933  177930       7  177939  177936       6
  177942  177936       6  177942  177939       7  177948  177945       6  177951
  177945       6  177951  177948       7  177957  177954       6  177960  177954
       6  177960  177957       7  177966  177963       6  177969  177963       6
  177969  177966       7  177975  177972       6  177978  177972       6  177978
  177975       7  177984  177981       6  177987  177981       6  177987  177984
       7  177993  177990       6  177996  177990       6  177996  177993       7
  178002  177999       6  178005  177999       6  178005  178002       7  178011
  178008       6  178014  178008       6  178014  178011       7  178020  178017
       6  178023  178017       6  178023  178020       7  178029  178026       6
  178032  178026       6  178032  178029       7  178038  178035       6  178041
  178035       6  178041  178038       7  178047  178044       6  178050  178044
       6  178050  178047       7  178056  178053       6  178059  178053       6
  178059  178056       7  178065  178062       6  178068  178062       6  178068
  178065       7  178074  178071       6  178077  178071       6  178077  178074
       7  178083  178080       6  178086  178080       6  178086  178083       7
  178092  178089       6  178095  178089       6  178095  178092       7  178101
  178098       6  178104  178098       6  178104  178101       7  178110  178107
       6  178113  178107       6  178113  178110       7  178119  178116       6
  178122  178116       6  178122  178119       7  178128  178125       6  178131
  178125       6  178131  178128       7  178137  178134       6  178140  178134
       6  178140  178137       7  178146  178143       6  178149  178143       6
  178149  178146       7  178155  178152       6  178158  178152       6  178158
  178155       7  178164  178161       6  178167  178161       6  178167  178164
       7  178173  178170       6  178176  178170       6  178176  178173       7
  178182  178179       6  178185  178179       6  178185  178182       7  178191
  178188       6  178194  178188       6  178194  178191       7  178200  178197
       6  178203  178197       6  178203  178200       7  178209  178206       6
  178212  178206       6  178212  178209       7  178218  178215       6  178221
  178215       6  178221  178218       7  178227  178224       6  178230  178224
       6  178230  178227       7  178236  178233       6  178239  178233       6
  178239  178236       7  178245  178242       6  178248  178242       6  178248
  178245       7  178254  178251       6  178257  178251       6  178257  178254
       7  178263  178260       6  178266  178260       6  178266  178263       7
  178272  178269       6  178275  178269       6  178275  178272       7  178281
  178278       6  178284  178278       6  178284  178281       7  178290  178287
       6  178293  178287       6  178293  178290       7  178299  178296       6
  178302  178296       6  178302  178299       7  178308  178305       6  178311
  178305       6  178311  178308       7  178317  178314       6  178320  178314
       6  178320  178317       7  178326  178323       6  178329  178323       6
  178329  178326       7  178335  178332       6  178338  178332       6  178338
  178335       7  178344  178341       6  178347  178341       6  178347  178344
       7  178353  178350       6  178356  178350       6  178356  178353       7
  178362  178359       6  178365  178359       6  178365  178362       7  178371
  178368       6  178374  178368       6  178374  178371       7  178380  178377
       6  178383  178377       6  178383  178380       7  178389  178386       6
  178392  178386       6  178392  178389       7  178398  178395       6  178401
  178395       6  178401  178398       7  178407  178404       6  178410  178404
       6  178410  178407       7  178416  178413       6  178419  178413       6
  178419  178416       7  178425  178422       6  178428  178422       6  178428
  178425       7  178434  178431       6  178437  178431       6  178437  178434
       7  178443  178440       6  178446  178440       6  178446  178443       7
  178452  178449       6  178455  178449       6  178455  178452       7  178461
  178458       6  178464  178458       6  178464  178461       7  178470  178467
       6  178473  178467       6  178473  178470       7  178479  178476       6
  178482  178476       6  178482  178479       7  178488  178485       6  178491
  178485       6  178491  178488       7  178497  178494       6  178500  178494
       6  178500  178497       7  178506  178503       6  178509  178503       6
  178509  178506       7  178515  178512       6  178518  178512       6  178518
  178515       7  178524  178521       6  178527  178521       6  178527  178524
       7  178533  178530       6  178536  178530       6  178536  178533       7
  178542  178539       6  178545  178539       6  178545  178542       7  178551
  178548       6  178554  178548       6  178554  178551       7  178560  178557
       6  178563  178557       6  178563  178560       7  178569  178566       6
  178572  178566       6  178572  178569       7  178578  178575       6  178581
  178575       6  178581  178578       7  178587  178584       6  178590  178584
       6  178590  178587       7  178596  178593       6  178599  178593       6
  178599  178596       7  178605  178602       6  178608  178602       6  178608
  178605       7  178614  178611       6  178617  178611       6  178617  178614
       7  178623  178620       6  178626  178620       6  178626  178623       7
  178632  178629       6  178635  178629       6  178635  178632       7  178641
  178638       6  178644  178638       6  178644  178641       7  178650  178647
       6  178653  178647       6  178653  178650       7  178659  178656       6
  178662  178656       6  178662  178659       7  178668  178665       6  178671
  178665       6  178671  178668       7  178677  178674       6  178680  178674
       6  178680  178677       7  178686  178683       6  178689  178683       6
  178689  178686       7  178695  178692       6  178698  178692       6  178698
  178695       7  178704  178701       6  178707  178701       6  178707  178704
       7  178713  178710       6  178716  178710       6  178716  178713       7
  178722  178719       6  178725  178719       6  178725  178722       7  178731
  178728       6  178734  178728       6  178734  178731       7  178740  178737
       6  178743  178737       6  178743  178740       7  178749  178746       6
  178752  178746       6  178752  178749       7  178758  178755       6  178761
  178755       6  178761  178758       7  178767  178764       6  178770  178764
       6  178770  178767       7  178776  178773       6  178779  178773       6
  178779  178776       7  178785  178782       6  178788  178782       6  178788
  178785       7  178794  178791       6  178797  178791       6  178797  178794
       7  178803  178800       6  178806  178800       6  178806  178803       7
  178812  178809       6  178815  178809       6  178815  178812       7  178821
  178818       6  178824  178818       6  178824  178821       7  178830  178827
       6  178833  178827       6  178833  178830       7  178839  178836       6
  178842  178836       6  178842  178839       7  178848  178845       6  178851
  178845       6  178851  178848       7  178857  178854       6  178860  178854
       6  178860  178857       7  178866  178863       6  178869  178863       6
  178869  178866       7  178875  178872       6  178878  178872       6  178878
  178875       7  178884  178881       6  178887  178881       6  178887  178884
       7  178893  178890       6  178896  178890       6  178896  178893       7
  178902  178899       6  178905  178899       6  178905  178902       7  178911
  178908       6  178914  178908       6  178914  178911       7  178920  178917
       6  178923  178917       6  178923  178920       7  178929  178926       6
  178932  178926       6  178932  178929       7  178938  178935       6  178941
  178935       6  178941  178938       7  178947  178944       6  178950  178944
       6  178950  178947       7  178956  178953       6  178959  178953       6
  178959  178956       7  178965  178962       6  178968  178962       6  178968
  178965       7  178974  178971       6  178977  178971       6  178977  178974
       7  178983  178980       6  178986  178980       6  178986  178983       7
  178992  178989       6  178995  178989       6  178995  178992       7  179001
  178998       6  179004  178998       6  179004  179001       7  179010  179007
       6  179013  179007       6  179013  179010       7  179019  179016       6
  179022  179016       6  179022  179019       7  179028  179025       6  179031
  179025       6  179031  179028       7  179037  179034       6  179040  179034
       6  179040  179037       7  179046  179043       6  179049  179043       6
  179049  179046       7  179055  179052       6  179058  179052       6  179058
  179055       7  179064  179061       6  179067  179061       6  179067  179064
       7  179073  179070       6  179076  179070       6  179076  179073       7
  179082  179079       6  179085  179079       6  179085  179082       7  179091
  179088       6  179094  179088       6  179094  179091       7  179100  179097
       6  179103  179097       6  179103  179100       7  179109  179106       6
  179112  179106       6  179112  179109       7  179118  179115       6  179121
  179115       6  179121  179118       7  179127  179124       6  179130  179124
       6  179130  179127       7  179136  179133       6  179139  179133       6
  179139  179136       7  179145  179142       6  179148  179142       6  179148
  179145       7  179154  179151       6  179157  179151       6  179157  179154
       7  179163  179160       6  179166  179160       6  179166  179163       7
  179172  179169       6  179175  179169       6  179175  179172       7  179181
  179178       6  179184  179178       6  179184  179181       7  179190  179187
       6  179193  179187       6  179193  179190       7  179199  179196       6
  179202  179196       6  179202  179199       7  179208  179205       6  179211
  179205       6  179211  179208       7  179217  179214       6  179220  179214
       6  179220  179217       7  179226  179223       6  179229  179223       6
  179229  179226       7  179235  179232       6  179238  179232       6  179238
  179235       7  179244  179241       6  179247  179241       6  179247  179244
       7  179253  179250       6  179256  179250       6  179256  179253       7
  179262  179259       6  179265  179259       6  179265  179262       7  179271
  179268       6  179274  179268       6  179274  179271       7  179280  179277
       6  179283  179277       6  179283  179280       7  179289  179286       6
  179292  179286       6  179292  179289       7  179298  179295       6  179301
  179295       6  179301  179298       7  179307  179304       6  179310  179304
       6  179310  179307       7  179316  179313       6  179319  179313       6
  179319  179316       7  179325  179322       6  179328  179322       6  179328
  179325       7  179334  179331       6  179337  179331       6  179337  179334
       7  179343  179340       6  179346  179340       6  179346  179343       7
  179352  179349       6  179355  179349       6  179355  179352       7  179361
  179358       6  179364  179358       6  179364  179361       7  179370  179367
       6  179373  179367       6  179373  179370       7  179379  179376       6
  179382  179376       6  179382  179379       7  179388  179385       6  179391
  179385       6  179391  179388       7  179397  179394       6  179400  179394
       6  179400  179397       7  179406  179403       6  179409  179403       6
  179409  179406       7  179415  179412       6  179418  179412       6  179418
  179415       7  179424  179421       6  179427  179421       6  179427  179424
       7  179433  179430       6  179436  179430       6  179436  179433       7
  179442  179439       6  179445  179439       6  179445  179442       7  179451
  179448       6  179454  179448       6  179454  179451       7  179460  179457
       6  179463  179457       6  179463  179460       7  179469  179466       6
  179472  179466       6  179472  179469       7  179478  179475       6  179481
  179475       6  179481  179478       7  179487  179484       6  179490  179484
       6  179490  179487       7  179496  179493       6  179499  179493       6
  179499  179496       7  179505  179502       6  179508  179502       6  179508
  179505       7  179514  179511       6  179517  179511       6  179517  179514
       7  179523  179520       6  179526  179520       6  179526  179523       7
  179532  179529       6  179535  179529       6  179535  179532       7  179541
  179538       6  179544  179538       6  179544  179541       7  179550  179547
       6  179553  179547       6  179553  179550       7  179559  179556       6
  179562  179556       6  179562  179559       7  179568  179565       6  179571
  179565       6  179571  179568       7  179577  179574       6  179580  179574
       6  179580  179577       7  179586  179583       6  179589  179583       6
  179589  179586       7  179595  179592       6  179598  179592       6  179598
  179595       7  179604  179601       6  179607  179601       6  179607  179604
       7  179613  179610       6  179616  179610       6  179616  179613       7
  179622  179619       6  179625  179619       6  179625  179622       7  179631
  179628       6  179634  179628       6  179634  179631       7  179640  179637
       6  179643  179637       6  179643  179640       7  179649  179646       6
  179652  179646       6  179652  179649       7  179658  179655       6  179661
  179655       6  179661  179658       7  179667  179664       6  179670  179664
       6  179670  179667       7  179676  179673       6  179679  179673       6
  179679  179676       7  179685  179682       6  179688  179682       6  179688
  179685       7  179694  179691       6  179697  179691       6  179697  179694
       7  179703  179700       6  179706  179700       6  179706  179703       7
  179712  179709       6  179715  179709       6  179715  179712       7  179721
  179718       6  179724  179718       6  179724  179721       7  179730  179727
       6  179733  179727       6  179733  179730       7  179739  179736       6
  179742  179736       6  179742  179739       7  179748  179745       6  179751
  179745       6  179751  179748       7  179757  179754       6  179760  179754
       6  179760  179757       7  179766  179763       6  179769  179763       6
  179769  179766       7  179775  179772       6  179778  179772       6  179778
  179775       7  179784  179781       6  179787  179781       6  179787  179784
       7  179793  179790       6  179796  179790       6  179796  179793       7
  179802  179799       6  179805  179799       6  179805  179802       7  179811
  179808       6  179814  179808       6  179814  179811       7  179820  179817
       6  179823  179817       6  179823  179820       7  179829  179826       6
  179832  179826       6  179832  179829       7  179838  179835       6  179841
  179835       6  179841  179838       7  179847  179844       6  179850  179844
       6  179850  179847       7  179856  179853       6  179859  179853       6
  179859  179856       7  179865  179862       6  179868  179862       6  179868
  179865       7  179874  179871       6  179877  179871       6  179877  179874
       7  179883  179880       6  179886  179880       6  179886  179883       7
  179892  179889       6  179895  179889       6  179895  179892       7  179901
  179898       6  179904  179898       6  179904  179901       7  179910  179907
       6  179913  179907       6  179913  179910       7  179919  179916       6
  179922  179916       6  179922  179919       7  179928  179925       6  179931
  179925       6  179931  179928       7  179937  179934       6  179940  179934
       6  179940  179937       7  179946  179943       6  179949  179943       6
  179949  179946       7  179955  179952       6  179958  179952       6  179958
  179955       7  179964  179961       6  179967  179961       6  179967  179964
       7  179973  179970       6  179976  179970       6  179976  179973       7
  179982  179979       6  179985  179979       6  179985  179982       7  179991
  179988       6  179994  179988       6  179994  179991       7  180000  179997
       6  180003  179997       6  180003  180000       7  180009  180006       6
  180012  180006       6  180012  180009       7  180018  180015       6  180021
  180015       6  180021  180018       7  180027  180024       6  180030  180024
       6  180030  180027       7  180036  180033       6  180039  180033       6
  180039  180036       7  180045  180042       6  180048  180042       6  180048
  180045       7  180054  180051       6  180057  180051       6  180057  180054
       7  180063  180060       6  180066  180060       6  180066  180063       7
  180072  180069       6  180075  180069       6  180075  180072       7  180081
  180078       6  180084  180078       6  180084  180081       7  180090  180087
       6  180093  180087       6  180093  180090       7  180099  180096       6
  180102  180096       6  180102  180099       7  180108  180105       6  180111
  180105       6  180111  180108       7  180117  180114       6  180120  180114
       6  180120  180117       7  180126  180123       6  180129  180123       6
  180129  180126       7  180135  180132       6  180138  180132       6  180138
  180135       7  180144  180141       6  180147  180141       6  180147  180144
       7  180153  180150       6  180156  180150       6  180156  180153       7
  180162  180159       6  180165  180159       6  180165  180162       7  180171
  180168       6  180174  180168       6  180174  180171       7  180180  180177
       6  180183  180177       6  180183  180180       7  180189  180186       6
  180192  180186       6  180192  180189       7  180198  180195       6  180201
  180195       6  180201  180198       7  180207  180204       6  180210  180204
       6  180210  180207       7  180216  180213       6  180219  180213       6
  180219  180216       7  180225  180222       6  180228  180222       6  180228
  180225       7  180234  180231       6  180237  180231       6  180237  180234
       7  180243  180240       6  180246  180240       6  180246  180243       7
  180252  180249       6  180255  180249       6  180255  180252       7  180261
  180258       6  180264  180258       6  180264  180261       7  180270  180267
       6  180273  180267       6  180273  180270       7  180279  180276       6
  180282  180276       6  180282  180279       7  180288  180285       6  180291
  180285       6  180291  180288       7  180297  180294       6  180300  180294
       6  180300  180297       7  180306  180303       6  180309  180303       6
  180309  180306       7  180315  180312       6  180318  180312       6  180318
  180315       7  180324  180321       6  180327  180321       6  180327  180324
       7  180333  180330       6  180336  180330       6  180336  180333       7
  180342  180339       6  180345  180339       6  180345  180342       7  180351
  180348       6  180354  180348       6  180354  180351       7  180360  180357
       6  180363  180357       6  180363  180360       7  180369  180366       6
  180372  180366       6  180372  180369       7  180378  180375       6  180381
  180375       6  180381  180378       7  180387  180384       6  180390  180384
       6  180390  180387       7  180396  180393       6  180399  180393       6
  180399  180396       7  180405  180402       6  180408  180402       6  180408
  180405       7  180414  180411       6  180417  180411       6  180417  180414
       7  180423  180420       6  180426  180420       6  180426  180423       7
  180432  180429       6  180435  180429       6  180435  180432       7  180441
  180438       6  180444  180438       6  180444  180441       7  180450  180447
       6  180453  180447       6  180453  180450       7  180459  180456       6
  180462  180456       6  180462  180459       7  180468  180465       6  180471
  180465       6  180471  180468       7  180477  180474       6  180480  180474
       6  180480  180477       7  180486  180483       6  180489  180483       6
  180489  180486       7  180495  180492       6  180498  180492       6  180498
  180495       7  180504  180501       6  180507  180501       6  180507  180504
       7  180513  180510       6  180516  180510       6  180516  180513       7
  180522  180519       6  180525  180519       6  180525  180522       7  180531
  180528       6  180534  180528       6  180534  180531       7  180540  180537
       6  180543  180537       6  180543  180540       7  180549  180546       6
  180552  180546       6  180552  180549       7  180558  180555       6  180561
  180555       6  180561  180558       7  180567  180564       6  180570  180564
       6  180570  180567       7  180576  180573       6  180579  180573       6
  180579  180576       7  180585  180582       6  180588  180582       6  180588
  180585       7  180594  180591       6  180597  180591       6  180597  180594
       7  180603  180600       6  180606  180600       6  180606  180603       7
  180612  180609       6  180615  180609       6  180615  180612       7  180621
  180618       6  180624  180618       6  180624  180621       7  180630  180627
       6  180633  180627       6  180633  180630       7  180639  180636       6
  180642  180636       6  180642  180639       7  180648  180645       6  180651
  180645       6  180651  180648       7  180657  180654       6  180660  180654
       6  180660  180657       7  180666  180663       6  180669  180663       6
  180669  180666       7  180675  180672       6  180678  180672       6  180678
  180675       7  180684  180681       6  180687  180681       6  180687  180684
       7  180693  180690       6  180696  180690       6  180696  180693       7
  180702  180699       6  180705  180699       6  180705  180702       7  180711
  180708       6  180714  180708       6  180714  180711       7  180720  180717
       6  180723  180717       6  180723  180720       7  180729  180726       6
  180732  180726       6  180732  180729       7  180738  180735       6  180741
  180735       6  180741  180738       7  180747  180744       6  180750  180744
       6  180750  180747       7  180756  180753       6  180759  180753       6
  180759  180756       7  180765  180762       6  180768  180762       6  180768
  180765       7  180774  180771       6  180777  180771       6  180777  180774
       7  180783  180780       6  180786  180780       6  180786  180783       7
  180792  180789       6  180795  180789       6  180795  180792       7  180801
  180798       6  180804  180798       6  180804  180801       7  180810  180807
       6  180813  180807       6  180813  180810       7  180819  180816       6
  180822  180816       6  180822  180819       7  180828  180825       6  180831
  180825       6  180831  180828       7  180837  180834       6  180840  180834
       6  180840  180837       7  180846  180843       6  180849  180843       6
  180849  180846       7  180855  180852       6  180858  180852       6  180858
  180855       7  180864  180861       6  180867  180861       6  180867  180864
       7  180873  180870       6  180876  180870       6  180876  180873       7
  180882  180879       6  180885  180879       6  180885  180882       7  180891
  180888       6  180894  180888       6  180894  180891       7  180900  180897
       6  180903  180897       6  180903  180900       7  180909  180906       6
  180912  180906       6  180912  180909       7  180918  180915       6  180921
  180915       6  180921  180918       7  180927  180924       6  180930  180924
       6  180930  180927       7  180936  180933       6  180939  180933       6
  180939  180936       7  180945  180942       6  180948  180942       6  180948
  180945       7  180954  180951       6  180957  180951       6  180957  180954
       7  180963  180960       6  180966  180960       6  180966  180963       7
  180972  180969       6  180975  180969       6  180975  180972       7  180981
  180978       6  180984  180978       6  180984  180981       7  180990  180987
       6  180993  180987       6  180993  180990       7  180999  180996       6
  181002  180996       6  181002  180999       7  181008  181005       6  181011
  181005       6  181011  181008       7  181017  181014       6  181020  181014
       6  181020  181017       7  181026  181023       6  181029  181023       6
  181029  181026       7  181035  181032       6  181038  181032       6  181038
  181035       7  181044  181041       6  181047  181041       6  181047  181044
       7  181053  181050       6  181056  181050       6  181056  181053       7
  181062  181059       6  181065  181059       6  181065  181062       7  181071
  181068       6  181074  181068       6  181074  181071       7  181080  181077
       6  181083  181077       6  181083  181080       7  181089  181086       6
  181092  181086       6  181092  181089       7  181098  181095       6  181101
  181095       6  181101  181098       7  181107  181104       6  181110  181104
       6  181110  181107       7  181116  181113       6  181119  181113       6
  181119  181116       7  181125  181122       6  181128  181122       6  181128
  181125       7  181134  181131       6  181137  181131       6  181137  181134
       7  181143  181140       6  181146  181140       6  181146  181143       7
  181152  181149       6  181155  181149       6  181155  181152       7  181161
  181158       6  181164  181158       6  181164  181161       7  181170  181167
       6  181173  181167       6  181173  181170       7  181179  181176       6
  181182  181176       6  181182  181179       7  181188  181185       6  181191
  181185       6  181191  181188       7  181197  181194       6  181200  181194
       6  181200  181197       7  181206  181203       6  181209  181203       6
  181209  181206       7  181215  181212       6  181218  181212       6  181218
  181215       7  181224  181221       6  181227  181221       6  181227  181224
       7  181233  181230       6  181236  181230       6  181236  181233       7
  181242  181239       6  181245  181239       6  181245  181242       7  181251
  181248       6  181254  181248       6  181254  181251       7  181260  181257
       6  181263  181257       6  181263  181260       7  181269  181266       6
  181272  181266       6  181272  181269       7  181278  181275       6  181281
  181275       6  181281  181278       7  181287  181284       6  181290  181284
       6  181290  181287       7  181296  181293       6  181299  181293       6
  181299  181296       7  181305  181302       6  181308  181302       6  181308
  181305       7  181314  181311       6  181317  181311       6  181317  181314
       7  181323  181320       6  181326  181320       6  181326  181323       7
  181332  181329       6  181335  181329       6  181335  181332       7  181341
  181338       6  181344  181338       6  181344  181341       7  181350  181347
       6  181353  181347       6  181353  181350       7  181359  181356       6
  181362  181356       6  181362  181359       7  181368  181365       6  181371
  181365       6  181371  181368       7  181377  181374       6  181380  181374
       6  181380  181377       7  181386  181383       6  181389  181383       6
  181389  181386       7  181395  181392       6  181398  181392       6  181398
  181395       7  181404  181401       6  181407  181401       6  181407  181404
       7  181413  181410       6  181416  181410       6  181416  181413       7
  181422  181419       6  181425  181419       6  181425  181422       7  181431
  181428       6  181434  181428       6  181434  181431       7  181440  181437
       6  181443  181437       6  181443  181440       7  181449  181446       6
  181452  181446       6  181452  181449       7  181458  181455       6  181461
  181455       6  181461  181458       7  181467  181464       6  181470  181464
       6  181470  181467       7  181476  181473       6  181479  181473       6
  181479  181476       7  181485  181482       6  181488  181482       6  181488
  181485       7  181494  181491       6  181497  181491       6  181497  181494
       7  181503  181500       6  181506  181500       6  181506  181503       7
  181512  181509       6  181515  181509       6  181515  181512       7  181521
  181518       6  181524  181518       6  181524  181521       7  181530  181527
       6  181533  181527       6  181533  181530       7  181539  181536       6
  181542  181536       6  181542  181539       7  181548  181545       6  181551
  181545       6  181551  181548       7  181557  181554       6  181560  181554
       6  181560  181557       7  181566  181563       6  181569  181563       6
  181569  181566       7  181575  181572       6  181578  181572       6  181578
  181575       7  181584  181581       6  181587  181581       6  181587  181584
       7  181593  181590       6  181596  181590       6  181596  181593       7
  181602  181599       6  181605  181599       6  181605  181602       7  181611
  181608       6  181614  181608       6  181614  181611       7  181620  181617
       6  181623  181617       6  181623  181620       7  181629  181626       6
  181632  181626       6  181632  181629       7  181638  181635       6  181641
  181635       6  181641  181638       7  181647  181644       6  181650  181644
       6  181650  181647       7  181656  181653       6  181659  181653       6
  181659  181656       7  181665  181662       6  181668  181662       6  181668
  181665       7  181674  181671       6  181677  181671       6  181677  181674
       7  181683  181680       6  181686  181680       6  181686  181683       7
  181692  181689       6  181695  181689       6  181695  181692       7  181701
  181698       6  181704  181698       6  181704  181701       7  181710  181707
       6  181713  181707       6  181713  181710       7  181719  181716       6
  181722  181716       6  181722  181719       7  181728  181725       6  181731
  181725       6  181731  181728       7  181737  181734       6  181740  181734
       6  181740  181737       7  181746  181743       6  181749  181743       6
  181749  181746       7  181755  181752       6  181758  181752       6  181758
  181755       7  181764  181761       6  181767  181761       6  181767  181764
       7  181773  181770       6  181776  181770       6  181776  181773       7
  181782  181779       6  181785  181779       6  181785  181782       7  181791
  181788       6  181794  181788       6  181794  181791       7  181800  181797
       6  181803  181797       6  181803  181800       7  181809  181806       6
  181812  181806       6  181812  181809       7  181818  181815       6  181821
  181815       6  181821  181818       7  181827  181824       6  181830  181824
       6  181830  181827       7  181836  181833       6  181839  181833       6
  181839  181836       7  181845  181842       6  181848  181842       6  181848
  181845       7  181854  181851       6  181857  181851       6  181857  181854
       7  181863  181860       6  181866  181860       6  181866  181863       7
  181872  181869       6  181875  181869       6  181875  181872       7  181881
  181878       6  181884  181878       6  181884  181881       7  181890  181887
       6  181893  181887       6  181893  181890       7  181899  181896       6
  181902  181896       6  181902  181899       7  181908  181905       6  181911
  181905       6  181911  181908       7  181917  181914       6  181920  181914
       6  181920  181917       7  181926  181923       6  181929  181923       6
  181929  181926       7  181935  181932       6  181938  181932       6  181938
  181935       7  181944  181941       6  181947  181941       6  181947  181944
       7  181953  181950       6  181956  181950       6  181956  181953       7
  181962  181959       6  181965  181959       6  181965  181962       7  181971
  181968       6  181974  181968       6  181974  181971       7  181980  181977
       6  181983  181977       6  181983  181980       7  181989  181986       6
  181992  181986       6  181992  181989       7  181998  181995       6  182001
  181995       6  182001  181998       7  182007  182004       6  182010  182004
       6  182010  182007       7  182016  182013       6  182019  182013       6
  182019  182016       7  182025  182022       6  182028  182022       6  182028
  182025       7  182034  182031       6  182037  182031       6  182037  182034
       7  182043  182040       6  182046  182040       6  182046  182043       7
  182052  182049       6  182055  182049       6  182055  182052       7  182061
  182058       6  182064  182058       6  182064  182061       7  182070  182067
       6  182073  182067       6  182073  182070       7  182079  182076       6
  182082  182076       6  182082  182079       7  182088  182085       6  182091
  182085       6  182091  182088       7  182097  182094       6  182100  182094
       6  182100  182097       7  182106  182103       6  182109  182103       6
  182109  182106       7  182115  182112       6  182118  182112       6  182118
  182115       7  182124  182121       6  182127  182121       6  182127  182124
       7  182133  182130       6  182136  182130       6  182136  182133       7
  182142  182139       6  182145  182139       6  182145  182142       7  182151
  182148       6  182154  182148       6  182154  182151       7  182160  182157
       6  182163  182157       6  182163  182160       7  182169  182166       6
  182172  182166       6  182172  182169       7  182178  182175       6  182181
  182175       6  182181  182178       7  182187  182184       6  182190  182184
       6  182190  182187       7  182196  182193       6  182199  182193       6
  182199  182196       7  182205  182202       6  182208  182202       6  182208
  182205       7  182214  182211       6  182217  182211       6  182217  182214
       7  182223  182220       6  182226  182220       6  182226  182223       7
  182232  182229       6  182235  182229       6  182235  182232       7  182241
  182238       6  182244  182238       6  182244  182241       7  182250  182247
       6  182253  182247       6  182253  182250       7  182259  182256       6
  182262  182256       6  182262  182259       7  182268  182265       6  182271
  182265       6  182271  182268       7  182277  182274       6  182280  182274
       6  182280  182277       7  182286  182283       6  182289  182283       6
  182289  182286       7  182295  182292       6  182298  182292       6  182298
  182295       7  182304  182301       6  182307  182301       6  182307  182304
       7  182313  182310       6  182316  182310       6  182316  182313       7
  182322  182319       6  182325  182319       6  182325  182322       7  182331
  182328       6  182334  182328       6  182334  182331       7  182340  182337
       6  182343  182337       6  182343  182340       7  182349  182346       6
  182352  182346       6  182352  182349       7  182358  182355       6  182361
  182355       6  182361  182358       7  182367  182364       6  182370  182364
       6  182370  182367       7  182376  182373       6  182379  182373       6
  182379  182376       7  182385  182382       6  182388  182382       6  182388
  182385       7  182394  182391       6  182397  182391       6  182397  182394
       7  182403  182400       6  182406  182400       6  182406  182403       7
  182412  182409       6  182415  182409       6  182415  182412       7  182421
  182418       6  182424  182418       6  182424  182421       7  182430  182427
       6  182433  182427       6  182433  182430       7  182439  182436       6
  182442  182436       6  182442  182439       7  182448  182445       6  182451
  182445       6  182451  182448       7  182457  182454       6  182460  182454
       6  182460  182457       7  182466  182463       6  182469  182463       6
  182469  182466       7  182475  182472       6  182478  182472       6  182478
  182475       7  182484  182481       6  182487  182481       6  182487  182484
       7  182493  182490       6  182496  182490       6  182496  182493       7
  182502  182499       6  182505  182499       6  182505  182502       7  182511
  182508       6  182514  182508       6  182514  182511       7  182520  182517
       6  182523  182517       6  182523  182520       7  182529  182526       6
  182532  182526       6  182532  182529       7  182538  182535       6  182541
  182535       6  182541  182538       7  182547  182544       6  182550  182544
       6  182550  182547       7  182556  182553       6  182559  182553       6
  182559  182556       7  182565  182562       6  182568  182562       6  182568
  182565       7  182574  182571       6  182577  182571       6  182577  182574
       7  182583  182580       6  182586  182580       6  182586  182583       7
  182592  182589       6  182595  182589       6  182595  182592       7  182601
  182598       6  182604  182598       6  182604  182601       7  182610  182607
       6  182613  182607       6  182613  182610       7  182619  182616       6
  182622  182616       6  182622  182619       7  182628  182625       6  182631
  182625       6  182631  182628       7  182637  182634       6  182640  182634
       6  182640  182637       7  182646  182643       6  182649  182643       6
  182649  182646       7  182655  182652       6  182658  182652       6  182658
  182655       7  182664  182661       6  182667  182661       6  182667  182664
       7  182673  182670       6  182676  182670       6  182676  182673       7
  182682  182679       6  182685  182679       6  182685  182682       7  182691
  182688       6  182694  182688       6  182694  182691       7  182700  182697
       6  182703  182697       6  182703  182700       7  182709  182706       6
  182712  182706       6  182712  182709       7  182718  182715       6  182721
  182715       6  182721  182718       7  182727  182724       6  182730  182724
       6  182730  182727       7  182736  182733       6  182739  182733       6
  182739  182736       7  182745  182742       6  182748  182742       6  182748
  182745       7  182754  182751       6  182757  182751       6  182757  182754
       7  182763  182760       6  182766  182760       6  182766  182763       7
  182772  182769       6  182775  182769       6  182775  182772       7  182781
  182778       6  182784  182778       6  182784  182781       7  182790  182787
       6  182793  182787       6  182793  182790       7  182799  182796       6
  182802  182796       6  182802  182799       7  182808  182805       6  182811
  182805       6  182811  182808       7  182817  182814       6  182820  182814
       6  182820  182817       7  182826  182823       6  182829  182823       6
  182829  182826       7  182835  182832       6  182838  182832       6  182838
  182835       7  182844  182841       6  182847  182841       6  182847  182844
       7  182853  182850       6  182856  182850       6  182856  182853       7
  182862  182859       6  182865  182859       6  182865  182862       7  182871
  182868       6  182874  182868       6  182874  182871       7  182880  182877
       6  182883  182877       6  182883  182880       7  182889  182886       6
  182892  182886       6  182892  182889       7  182898  182895       6  182901
  182895       6  182901  182898       7  182907  182904       6  182910  182904
       6  182910  182907       7  182916  182913       6  182919  182913       6
  182919  182916       7  182925  182922       6  182928  182922       6  182928
  182925       7  182934  182931       6  182937  182931       6  182937  182934
       7  182943  182940       6  182946  182940       6  182946  182943       7
  182952  182949       6  182955  182949       6  182955  182952       7  182961
  182958       6  182964  182958       6  182964  182961       7  182970  182967
       6  182973  182967       6  182973  182970       7  182979  182976       6
  182982  182976       6  182982  182979       7  182988  182985       6  182991
  182985       6  182991  182988       7  182997  182994       6  183000  182994
       6  183000  182997       7  183006  183003       6  183009  183003       6
  183009  183006       7  183015  183012       6  183018  183012       6  183018
  183015       7  183024  183021       6  183027  183021       6  183027  183024
       7  183033  183030       6  183036  183030       6  183036  183033       7
  183042  183039       6  183045  183039       6  183045  183042       7  183051
  183048       6  183054  183048       6  183054  183051       7  183060  183057
       6  183063  183057       6  183063  183060       7  183069  183066       6
  183072  183066       6  183072  183069       7  183078  183075       6  183081
  183075       6  183081  183078       7  183087  183084       6  183090  183084
       6  183090  183087       7  183096  183093       6  183099  183093       6
  183099  183096       7  183105  183102       6  183108  183102       6  183108
  183105       7  183114  183111       6  183117  183111       6  183117  183114
       7  183123  183120       6  183126  183120       6  183126  183123       7
  183132  183129       6  183135  183129       6  183135  183132       7  183141
  183138       6  183144  183138       6  183144  183141       7  183150  183147
       6  183153  183147       6  183153  183150       7  183159  183156       6
  183162  183156       6  183162  183159       7  183168  183165       6  183171
  183165       6  183171  183168       7  183177  183174       6  183180  183174
       6  183180  183177       7  183186  183183       6  183189  183183       6
  183189  183186       7  183195  183192       6  183198  183192       6  183198
  183195       7  183204  183201       6  183207  183201       6  183207  183204
       7  183213  183210       6  183216  183210       6  183216  183213       7
  183222  183219       6  183225  183219       6  183225  183222       7  183231
  183228       6  183234  183228       6  183234  183231       7  183240  183237
       6  183243  183237       6  183243  183240       7  183249  183246       6
  183252  183246       6  183252  183249       7  183258  183255       6  183261
  183255       6  183261  183258       7  183267  183264       6  183270  183264
       6  183270  183267       7  183276  183273       6  183279  183273       6
  183279  183276       7  183285  183282       6  183288  183282       6  183288
  183285       7  183294  183291       6  183297  183291       6  183297  183294
       7  183303  183300       6  183306  183300       6  183306  183303       7
  183312  183309       6  183315  183309       6  183315  183312       7  183321
  183318       6  183324  183318       6  183324  183321       7  183330  183327
       6  183333  183327       6  183333  183330       7  183339  183336       6
  183342  183336       6  183342  183339       7  183348  183345       6  183351
  183345       6  183351  183348       7  183357  183354       6  183360  183354
       6  183360  183357       7  183366  183363       6  183369  183363       6
  183369  183366       7  183375  183372       6  183378  183372       6  183378
  183375       7  183384  183381       6  183387  183381       6  183387  183384
       7  183393  183390       6  183396  183390       6  183396  183393       7
  183402  183399       6  183405  183399       6  183405  183402       7  183411
  183408       6  183414  183408       6  183414  183411       7  183420  183417
       6  183423  183417       6  183423  183420       7  183429  183426       6
  183432  183426       6  183432  183429       7  183438  183435       6  183441
  183435       6  183441  183438       7  183447  183444       6  183450  183444
       6  183450  183447       7  183456  183453       6  183459  183453       6
  183459  183456       7  183465  183462       6  183468  183462       6  183468
  183465       7  183474  183471       6  183477  183471       6  183477  183474
       7  183483  183480       6  183486  183480       6  183486  183483       7
  183492  183489       6  183495  183489       6  183495  183492       7  183501
  183498       6  183504  183498       6  183504  183501       7  183510  183507
       6  183513  183507       6  183513  183510       7  183519  183516       6
  183522  183516       6  183522  183519       7  183528  183525       6  183531
  183525       6  183531  183528       7  183537  183534       6  183540  183534
       6  183540  183537       7  183546  183543       6  183549  183543       6
  183549  183546       7  183555  183552       6  183558  183552       6  183558
  183555       7  183564  183561       6  183567  183561       6  183567  183564
       7  183573  183570       6  183576  183570       6  183576  183573       7
  183582  183579       6  183585  183579       6  183585  183582       7  183591
  183588       6  183594  183588       6  183594  183591       7  183600  183597
       6  183603  183597       6  183603  183600       7  183609  183606       6
  183612  183606       6  183612  183609       7  183618  183615       6  183621
  183615       6  183621  183618       7  183627  183624       6  183630  183624
       6  183630  183627       7  183636  183633       6  183639  183633       6
  183639  183636       7  183645  183642       6  183648  183642       6  183648
  183645       7  183654  183651       6  183657  183651       6  183657  183654
       7  183663  183660       6  183666  183660       6  183666  183663       7
  183672  183669       6  183675  183669       6  183675  183672       7  183681
  183678       6  183684  183678       6  183684  183681       7  183690  183687
       6  183693  183687       6  183693  183690       7  183699  183696       6
  183702  183696       6  183702  183699       7  183708  183705       6  183711
  183705       6  183711  183708       7  183717  183714       6  183720  183714
       6  183720  183717       7  183726  183723       6  183729  183723       6
  183729  183726       7  183735  183732       6  183738  183732       6  183738
  183735       7  183744  183741       6  183747  183741       6  183747  183744
       7  183753  183750       6  183756  183750       6  183756  183753       7
  183762  183759       6  183765  183759       6  183765  183762       7  183771
  183768       6  183774  183768       6  183774  183771       7  183780  183777
       6  183783  183777       6  183783  183780       7  183789  183786       6
  183792  183786       6  183792  183789       7  183798  183795       6  183801
  183795       6  183801  183798       7  183807  183804       6  183810  183804
       6  183810  183807       7  183816  183813       6  183819  183813       6
  183819  183816       7  183825  183822       6  183828  183822       6  183828
  183825       7  183834  183831       6  183837  183831       6  183837  183834
       7  183843  183840       6  183846  183840       6  183846  183843       7
  183852  183849       6  183855  183849       6  183855  183852       7  183861
  183858       6  183864  183858       6  183864  183861       7  183870  183867
       6  183873  183867       6  183873  183870       7  183879  183876       6
  183882  183876       6  183882  183879       7  183888  183885       6  183891
  183885       6  183891  183888       7  183897  183894       6  183900  183894
       6  183900  183897       7  183906  183903       6  183909  183903       6
  183909  183906       7  183915  183912       6  183918  183912       6  183918
  183915       7  183924  183921       6  183927  183921       6  183927  183924
       7  183933  183930       6  183936  183930       6  183936  183933       7
  183942  183939       6  183945  183939       6  183945  183942       7  183951
  183948       6  183954  183948       6  183954  183951       7  183960  183957
       6  183963  183957       6  183963  183960       7  183969  183966       6
  183972  183966       6  183972  183969       7  183978  183975       6  183981
  183975       6  183981  183978       7  183987  183984       6  183990  183984
       6  183990  183987       7  183996  183993       6  183999  183993       6
  183999  183996       7  184005  184002       6  184008  184002       6  184008
  184005       7  184014  184011       6  184017  184011       6  184017  184014
       7  184023  184020       6  184026  184020       6  184026  184023       7
  184032  184029       6  184035  184029       6  184035  184032       7  184041
  184038       6  184044  184038       6  184044  184041       7  184050  184047
       6  184053  184047       6  184053  184050       7  184059  184056       6
  184062  184056       6  184062  184059       7  184068  184065       6  184071
  184065       6  184071  184068       7  184077  184074       6  184080  184074
       6  184080  184077       7  184086  184083       6  184089  184083       6
  184089  184086       7  184095  184092       6  184098  184092       6  184098
  184095       7  184104  184101       6  184107  184101       6  184107  184104
       7  184113  184110       6  184116  184110       6  184116  184113       7
  184122  184119       6  184125  184119       6  184125  184122       7  184131
  184128       6  184134  184128       6  184134  184131       7  184140  184137
       6  184143  184137       6  184143  184140       7  184149  184146       6
  184152  184146       6  184152  184149       7  184158  184155       6  184161
  184155       6  184161  184158       7  184167  184164       6  184170  184164
       6  184170  184167       7  184176  184173       6  184179  184173       6
  184179  184176       7  184185  184182       6  184188  184182       6  184188
  184185       7  184194  184191       6  184197  184191       6  184197  184194
       7  184203  184200       6  184206  184200       6  184206  184203       7
  184212  184209       6  184215  184209       6  184215  184212       7  184221
  184218       6  184224  184218       6  184224  184221       7  184230  184227
       6  184233  184227       6  184233  184230       7  184239  184236       6
  184242  184236       6  184242  184239       7  184248  184245       6  184251
  184245       6  184251  184248       7  184257  184254       6  184260  184254
       6  184260  184257       7  184266  184263       6  184269  184263       6
  184269  184266       7  184275  184272       6  184278  184272       6  184278
  184275       7  184284  184281       6  184287  184281       6  184287  184284
       7  184293  184290       6  184296  184290       6  184296  184293       7
  184302  184299       6  184305  184299       6  184305  184302       7  184311
  184308       6  184314  184308       6  184314  184311       7  184320  184317
       6  184323  184317       6  184323  184320       7  184329  184326       6
  184332  184326       6  184332  184329       7  184338  184335       6  184341
  184335       6  184341  184338       7  184347  184344       6  184350  184344
       6  184350  184347       7  184356  184353       6  184359  184353       6
  184359  184356       7  184365  184362       6  184368  184362       6  184368
  184365       7  184374  184371       6  184377  184371       6  184377  184374
       7  184383  184380       6  184386  184380       6  184386  184383       7
  184392  184389       6  184395  184389       6  184395  184392       7  184401
  184398       6  184404  184398       6  184404  184401       7  184410  184407
       6  184413  184407       6  184413  184410       7  184419  184416       6
  184422  184416       6  184422  184419       7  184428  184425       6  184431
  184425       6  184431  184428       7  184437  184434       6  184440  184434
       6  184440  184437       7  184446  184443       6  184449  184443       6
  184449  184446       7  184455  184452       6  184458  184452       6  184458
  184455       7  184464  184461       6  184467  184461       6  184467  184464
       7  184473  184470       6  184476  184470       6  184476  184473       7
  184482  184479       6  184485  184479       6  184485  184482       7  184491
  184488       6  184494  184488       6  184494  184491       7  184500  184497
       6  184503  184497       6  184503  184500       7  184509  184506       6
  184512  184506       6  184512  184509       7  184518  184515       6  184521
  184515       6  184521  184518       7  184527  184524       6  184530  184524
       6  184530  184527       7  184536  184533       6  184539  184533       6
  184539  184536       7  184545  184542       6  184548  184542       6  184548
  184545       7  184554  184551       6  184557  184551       6  184557  184554
       7  184563  184560       6  184566  184560       6  184566  184563       7
  184572  184569       6  184575  184569       6  184575  184572       7  184581
  184578       6  184584  184578       6  184584  184581       7  184590  184587
       6  184593  184587       6  184593  184590       7  184599  184596       6
  184602  184596       6  184602  184599       7  184608  184605       6  184611
  184605       6  184611  184608       7  184617  184614       6  184620  184614
       6  184620  184617       7  184626  184623       6  184629  184623       6
  184629  184626       7  184635  184632       6  184638  184632       6  184638
  184635       7  184644  184641       6  184647  184641       6  184647  184644
       7  184653  184650       6  184656  184650       6  184656  184653       7
  184662  184659       6  184665  184659       6  184665  184662       7  184671
  184668       6  184674  184668       6  184674  184671       7  184680  184677
       6  184683  184677       6  184683  184680       7  184689  184686       6
  184692  184686       6  184692  184689       7  184698  184695       6  184701
  184695       6  184701  184698       7  184707  184704       6  184710  184704
       6  184710  184707       7  184716  184713       6  184719  184713       6
  184719  184716       7  184725  184722       6  184728  184722       6  184728
  184725       7  184734  184731       6  184737  184731       6  184737  184734
       7  184743  184740       6  184746  184740       6  184746  184743       7
  184752  184749       6  184755  184749       6  184755  184752       7  184761
  184758       6  184764  184758       6  184764  184761       7  184770  184767
       6  184773  184767       6  184773  184770       7  184779  184776       6
  184782  184776       6  184782  184779       7  184788  184785       6  184791
  184785       6  184791  184788       7  184797  184794       6  184800  184794
       6  184800  184797       7  184806  184803       6  184809  184803       6
  184809  184806       7  184815  184812       6  184818  184812       6  184818
  184815       7  184824  184821       6  184827  184821       6  184827  184824
       7  184833  184830       6  184836  184830       6  184836  184833       7
  184842  184839       6  184845  184839       6  184845  184842       7  184851
  184848       6  184854  184848       6  184854  184851       7  184860  184857
       6  184863  184857       6  184863  184860       7  184869  184866       6
  184872  184866       6  184872  184869       7  184878  184875       6  184881
  184875       6  184881  184878       7  184887  184884       6  184890  184884
       6  184890  184887       7  184896  184893       6  184899  184893       6
  184899  184896       7  184905  184902       6  184908  184902       6  184908
  184905       7  184914  184911       6  184917  184911       6  184917  184914
       7  184923  184920       6  184926  184920       6  184926  184923       7
  184932  184929       6  184935  184929       6  184935  184932       7  184941
  184938       6  184944  184938       6  184944  184941       7  184950  184947
       6  184953  184947       6  184953  184950       7  184959  184956       6
  184962  184956       6  184962  184959       7  184968  184965       6  184971
  184965       6  184971  184968       7  184977  184974       6  184980  184974
       6  184980  184977       7  184986  184983       6  184989  184983       6
  184989  184986       7  184995  184992       6  184998  184992       6  184998
  184995       7  185004  185001       6  185007  185001       6  185007  185004
       7  185013  185010       6  185016  185010       6  185016  185013       7
  185022  185019       6  185025  185019       6  185025  185022       7  185031
  185028       6  185034  185028       6  185034  185031       7  185040  185037
       6  185043  185037       6  185043  185040       7  185049  185046       6
  185052  185046       6  185052  185049       7  185058  185055       6  185061
  185055       6  185061  185058       7  185067  185064       6  185070  185064
       6  185070  185067       7  185076  185073       6  185079  185073       6
  185079  185076       7  185085  185082       6  185088  185082       6  185088
  185085       7  185094  185091       6  185097  185091       6  185097  185094
       7  185103  185100       6  185106  185100       6  185106  185103       7
  185112  185109       6  185115  185109       6  185115  185112       7  185121
  185118       6  185124  185118       6  185124  185121       7  185130  185127
       6  185133  185127       6  185133  185130       7  185139  185136       6
  185142  185136       6  185142  185139       7  185148  185145       6  185151
  185145       6  185151  185148       7  185157  185154       6  185160  185154
       6  185160  185157       7  185166  185163       6  185169  185163       6
  185169  185166       7  185175  185172       6  185178  185172       6  185178
  185175       7  185184  185181       6  185187  185181       6  185187  185184
       7  185193  185190       6  185196  185190       6  185196  185193       7
  185202  185199       6  185205  185199       6  185205  185202       7  185211
  185208       6  185214  185208       6  185214  185211       7  185220  185217
       6  185223  185217       6  185223  185220       7  185229  185226       6
  185232  185226       6  185232  185229       7  185238  185235       6  185241
  185235       6  185241  185238       7  185247  185244       6  185250  185244
       6  185250  185247       7  185256  185253       6  185259  185253       6
  185259  185256       7  185265  185262       6  185268  185262       6  185268
  185265       7  185274  185271       6  185277  185271       6  185277  185274
       7  185283  185280       6  185286  185280       6  185286  185283       7
  185292  185289       6  185295  185289       6  185295  185292       7  185301
  185298       6  185304  185298       6  185304  185301       7  185310  185307
       6  185313  185307       6  185313  185310       7  185319  185316       6
  185322  185316       6  185322  185319       7  185328  185325       6  185331
  185325       6  185331  185328       7  185337  185334       6  185340  185334
       6  185340  185337       7  185346  185343       6  185349  185343       6
  185349  185346       7  185355  185352       6  185358  185352       6  185358
  185355       7  185364  185361       6  185367  185361       6  185367  185364
       7  185373  185370       6  185376  185370       6  185376  185373       7
  185382  185379       6  185385  185379       6  185385  185382       7  185391
  185388       6  185394  185388       6  185394  185391       7  185400  185397
       6  185403  185397       6  185403  185400       7  185409  185406       6
  185412  185406       6  185412  185409       7  185418  185415       6  185421
  185415       6  185421  185418       7  185427  185424       6  185430  185424
       6  185430  185427       7  185436  185433       6  185439  185433       6
  185439  185436       7  185445  185442       6  185448  185442       6  185448
  185445       7  185454  185451       6  185457  185451       6  185457  185454
       7  185463  185460       6  185466  185460       6  185466  185463       7
  185472  185469       6  185475  185469       6  185475  185472       7  185481
  185478       6  185484  185478       6  185484  185481       7  185490  185487
       6  185493  185487       6  185493  185490       7  185499  185496       6
  185502  185496       6  185502  185499       7  185508  185505       6  185511
  185505       6  185511  185508       7  185517  185514       6  185520  185514
       6  185520  185517       7  185526  185523       6  185529  185523       6
  185529  185526       7  185535  185532       6  185538  185532       6  185538
  185535       7  185544  185541       6  185547  185541       6  185547  185544
       7  185553  185550       6  185556  185550       6  185556  185553       7
  185562  185559       6  185565  185559       6  185565  185562       7  185571
  185568       6  185574  185568       6  185574  185571       7  185580  185577
       6  185583  185577       6  185583  185580       7  185589  185586       6
  185592  185586       6  185592  185589       7  185598  185595       6  185601
  185595       6  185601  185598       7  185607  185604       6  185610  185604
       6  185610  185607       7  185616  185613       6  185619  185613       6
  185619  185616       7  185625  185622       6  185628  185622       6  185628
  185625       7  185634  185631       6  185637  185631       6  185637  185634
       7  185643  185640       6  185646  185640       6  185646  185643       7
  185652  185649       6  185655  185649       6  185655  185652       7  185661
  185658       6  185664  185658       6  185664  185661       7  185670  185667
       6  185673  185667       6  185673  185670       7  185679  185676       6
  185682  185676       6  185682  185679       7  185688  185685       6  185691
  185685       6  185691  185688       7  185697  185694       6  185700  185694
       6  185700  185697       7  185706  185703       6  185709  185703       6
  185709  185706       7  185715  185712       6  185718  185712       6  185718
  185715       7  185724  185721       6  185727  185721       6  185727  185724
       7  185733  185730       6  185736  185730       6  185736  185733       7
  185742  185739       6  185745  185739       6  185745  185742       7  185751
  185748       6  185754  185748       6  185754  185751       7  185760  185757
       6  185763  185757       6  185763  185760       7  185769  185766       6
  185772  185766       6  185772  185769       7  185778  185775       6  185781
  185775       6  185781  185778       7  185787  185784       6  185790  185784
       6  185790  185787       7  185796  185793       6  185799  185793       6
  185799  185796       7  185805  185802       6  185808  185802       6  185808
  185805       7  185814  185811       6  185817  185811       6  185817  185814
       7  185823  185820       6  185826  185820       6  185826  185823       7
  185832  185829       6  185835  185829       6  185835  185832       7  185841
  185838       6  185844  185838       6  185844  185841       7  185850  185847
       6  185853  185847       6  185853  185850       7  185859  185856       6
  185862  185856       6  185862  185859       7  185868  185865       6  185871
  185865       6  185871  185868       7  185877  185874       6  185880  185874
       6  185880  185877       7  185886  185883       6  185889  185883       6
  185889  185886       7  185895  185892       6  185898  185892       6  185898
  185895       7  185904  185901       6  185907  185901       6  185907  185904
       7  185913  185910       6  185916  185910       6  185916  185913       7
  185922  185919       6  185925  185919       6  185925  185922       7  185931
  185928       6  185934  185928       6  185934  185931       7  185940  185937
       6  185943  185937       6  185943  185940       7  185949  185946       6
  185952  185946       6  185952  185949       7  185958  185955       6  185961
  185955       6  185961  185958       7  185967  185964       6  185970  185964
       6  185970  185967       7  185976  185973       6  185979  185973       6
  185979  185976       7  185985  185982       6  185988  185982       6  185988
  185985       7  185994  185991       6  185997  185991       6  185997  185994
       7  186003  186000       6  186006  186000       6  186006  186003       7
  186012  186009       6  186015  186009       6  186015  186012       7  186021
  186018       6  186024  186018       6  186024  186021       7  186030  186027
       6  186033  186027       6  186033  186030       7  186039  186036       6
  186042  186036       6  186042  186039       7  186048  186045       6  186051
  186045       6  186051  186048       7  186057  186054       6  186060  186054
       6  186060  186057       7  186066  186063       6  186069  186063       6
  186069  186066       7  186075  186072       6  186078  186072       6  186078
  186075       7  186084  186081       6  186087  186081       6  186087  186084
       7  186093  186090       6  186096  186090       6  186096  186093       7
  186102  186099       6  186105  186099       6  186105  186102       7  186111
  186108       6  186114  186108       6  186114  186111       7  186120  186117
       6  186123  186117       6  186123  186120       7  186129  186126       6
  186132  186126       6  186132  186129       7  186138  186135       6  186141
  186135       6  186141  186138       7  186147  186144       6  186150  186144
       6  186150  186147       7  186156  186153       6  186159  186153       6
  186159  186156       7  186165  186162       6  186168  186162       6  186168
  186165       7  186174  186171       6  186177  186171       6  186177  186174
       7  186183  186180       6  186186  186180       6  186186  186183       7
  186192  186189       6  186195  186189       6  186195  186192       7  186201
  186198       6  186204  186198       6  186204  186201       7  186210  186207
       6  186213  186207       6  186213  186210       7  186219  186216       6
  186222  186216       6  186222  186219       7  186228  186225       6  186231
  186225       6  186231  186228       7  186237  186234       6  186240  186234
       6  186240  186237       7  186246  186243       6  186249  186243       6
  186249  186246       7  186255  186252       6  186258  186252       6  186258
  186255       7  186264  186261       6  186267  186261       6  186267  186264
       7  186273  186270       6  186276  186270       6  186276  186273       7
  186282  186279       6  186285  186279       6  186285  186282       7  186291
  186288       6  186294  186288       6  186294  186291       7  186300  186297
       6  186303  186297       6  186303  186300       7  186309  186306       6
  186312  186306       6  186312  186309       7  186318  186315       6  186321
  186315       6  186321  186318       7  186327  186324       6  186330  186324
       6  186330  186327       7  186336  186333       6  186339  186333       6
  186339  186336       7  186345  186342       6  186348  186342       6  186348
  186345       7  186354  186351       6  186357  186351       6  186357  186354
       7  186363  186360       6  186366  186360       6  186366  186363       7
  186372  186369       6  186375  186369       6  186375  186372       7  186381
  186378       6  186384  186378       6  186384  186381       7  186390  186387
       6  186393  186387       6  186393  186390       7  186399  186396       6
  186402  186396       6  186402  186399       7  186408  186405       6  186411
  186405       6  186411  186408       7  186417  186414       6  186420  186414
       6  186420  186417       7  186426  186423       6  186429  186423       6
  186429  186426       7  186435  186432       6  186438  186432       6  186438
  186435       7  186444  186441       6  186447  186441       6  186447  186444
       7  186453  186450       6  186456  186450       6  186456  186453       7
  186462  186459       6  186465  186459       6  186465  186462       7  186471
  186468       6  186474  186468       6  186474  186471       7  186480  186477
       6  186483  186477       6  186483  186480       7  186489  186486       6
  186492  186486       6  186492  186489       7  186498  186495       6  186501
  186495       6  186501  186498       7  186507  186504       6  186510  186504
       6  186510  186507       7  186516  186513       6  186519  186513       6
  186519  186516       7  186525  186522       6  186528  186522       6  186528
  186525       7  186534  186531       6  186537  186531       6  186537  186534
       7  186543  186540       6  186546  186540       6  186546  186543       7
  186552  186549       6  186555  186549       6  186555  186552       7  186561
  186558       6  186564  186558       6  186564  186561       7  186570  186567
       6  186573  186567       6  186573  186570       7  186579  186576       6
  186582  186576       6  186582  186579       7  186588  186585       6  186591
  186585       6  186591  186588       7  186597  186594       6  186600  186594
       6  186600  186597       7  186606  186603       6  186609  186603       6
  186609  186606       7  186615  186612       6  186618  186612       6  186618
  186615       7  186624  186621       6  186627  186621       6  186627  186624
       7  186633  186630       6  186636  186630       6  186636  186633       7
  186642  186639       6  186645  186639       6  186645  186642       7  186651
  186648       6  186654  186648       6  186654  186651       7  186660  186657
       6  186663  186657       6  186663  186660       7  186669  186666       6
  186672  186666       6  186672  186669       7  186678  186675       6  186681
  186675       6  186681  186678       7  186687  186684       6  186690  186684
       6  186690  186687       7  186696  186693       6  186699  186693       6
  186699  186696       7  186705  186702       6  186708  186702       6  186708
  186705       7  186714  186711       6  186717  186711       6  186717  186714
       7  186723  186720       6  186726  186720       6  186726  186723       7
  186732  186729       6  186735  186729       6  186735  186732       7  186741
  186738       6  186744  186738       6  186744  186741       7  186750  186747
       6  186753  186747       6  186753  186750       7  186759  186756       6
  186762  186756       6  186762  186759       7  186768  186765       6  186771
  186765       6  186771  186768       7  186777  186774       6  186780  186774
       6  186780  186777       7  186786  186783       6  186789  186783       6
  186789  186786       7  186795  186792       6  186798  186792       6  186798
  186795       7  186804  186801       6  186807  186801       6  186807  186804
       7  186813  186810       6  186816  186810       6  186816  186813       7
  186822  186819       6  186825  186819       6  186825  186822       7  186831
  186828       6  186834  186828       6  186834  186831       7  186840  186837
       6  186843  186837       6  186843  186840       7  186849  186846       6
  186852  186846       6  186852  186849       7  186858  186855       6  186861
  186855       6  186861  186858       7  186867  186864       6  186870  186864
       6  186870  186867       7  186876  186873       6  186879  186873       6
  186879  186876       7  186885  186882       6  186888  186882       6  186888
  186885       7  186894  186891       6  186897  186891       6  186897  186894
       7  186903  186900       6  186906  186900       6  186906  186903       7
  186912  186909       6  186915  186909       6  186915  186912       7  186921
  186918       6  186924  186918       6  186924  186921       7  186930  186927
       6  186933  186927       6  186933  186930       7  186939  186936       6
  186942  186936       6  186942  186939       7  186948  186945       6  186951
  186945       6  186951  186948       7  186957  186954       6  186960  186954
       6  186960  186957       7  186966  186963       6  186969  186963       6
  186969  186966       7  186975  186972       6  186978  186972       6  186978
  186975       7  186984  186981       6  186987  186981       6  186987  186984
       7  186993  186990       6  186996  186990       6  186996  186993       7
  187002  186999       6  187005  186999       6  187005  187002       7  187011
  187008       6  187014  187008       6  187014  187011       7  187020  187017
       6  187023  187017       6  187023  187020       7  187029  187026       6
  187032  187026       6  187032  187029       7  187038  187035       6  187041
  187035       6  187041  187038       7  187047  187044       6  187050  187044
       6  187050  187047       7  187056  187053       6  187059  187053       6
  187059  187056       7  187065  187062       6  187068  187062       6  187068
  187065       7  187074  187071       6  187077  187071       6  187077  187074
       7  187083  187080       6  187086  187080       6  187086  187083       7
  187092  187089       6  187095  187089       6  187095  187092       7  187101
  187098       6  187104  187098       6  187104  187101       7  187110  187107
       6  187113  187107       6  187113  187110       7  187119  187116       6
  187122  187116       6  187122  187119       7  187128  187125       6  187131
  187125       6  187131  187128       7  187137  187134       6  187140  187134
       6  187140  187137       7  187146  187143       6  187149  187143       6
  187149  187146       7  187155  187152       6  187158  187152       6  187158
  187155       7  187164  187161       6  187167  187161       6  187167  187164
       7  187173  187170       6  187176  187170       6  187176  187173       7
  187182  187179       6  187185  187179       6  187185  187182       7  187191
  187188       6  187194  187188       6  187194  187191       7  187200  187197
       6  187203  187197       6  187203  187200       7  187209  187206       6
  187212  187206       6  187212  187209       7  187218  187215       6  187221
  187215       6  187221  187218       7  187227  187224       6  187230  187224
       6  187230  187227       7  187236  187233       6  187239  187233       6
  187239  187236       7  187245  187242       6  187248  187242       6  187248
  187245       7  187254  187251       6  187257  187251       6  187257  187254
       7  187263  187260       6  187266  187260       6  187266  187263       7
  187272  187269       6  187275  187269       6  187275  187272       7  187281
  187278       6  187284  187278       6  187284  187281       7  187290  187287
       6  187293  187287       6  187293  187290       7  187299  187296       6
  187302  187296       6  187302  187299       7  187308  187305       6  187311
  187305       6  187311  187308       7  187317  187314       6  187320  187314
       6  187320  187317       7  187326  187323       6  187329  187323       6
  187329  187326       7  187335  187332       6  187338  187332       6  187338
  187335       7  187344  187341       6  187347  187341       6  187347  187344
       7  187353  187350       6  187356  187350       6  187356  187353       7
  187362  187359       6  187365  187359       6  187365  187362       7  187371
  187368       6  187374  187368       6  187374  187371       7  187380  187377
       6  187383  187377       6  187383  187380       7  187389  187386       6
  187392  187386       6  187392  187389       7  187398  187395       6  187401
  187395       6  187401  187398       7  187407  187404       6  187410  187404
       6  187410  187407       7  187416  187413       6  187419  187413       6
  187419  187416       7  187425  187422       6  187428  187422       6  187428
  187425       7  187434  187431       6  187437  187431       6  187437  187434
       7  187443  187440       6  187446  187440       6  187446  187443       7
  187452  187449       6  187455  187449       6  187455  187452       7  187461
  187458       6  187464  187458       6  187464  187461       7  187470  187467
       6  187473  187467       6  187473  187470       7  187479  187476       6
  187482  187476       6  187482  187479       7  187488  187485       6  187491
  187485       6  187491  187488       7  187497  187494       6  187500  187494
       6  187500  187497       7  187506  187503       6  187509  187503       6
  187509  187506       7  187515  187512       6  187518  187512       6  187518
  187515       7  187524  187521       6  187527  187521       6  187527  187524
       7  187533  187530       6  187536  187530       6  187536  187533       7
  187542  187539       6  187545  187539       6  187545  187542       7  187551
  187548       6  187554  187548       6  187554  187551       7  187560  187557
       6  187563  187557       6  187563  187560       7  187569  187566       6
  187572  187566       6  187572  187569       7  187578  187575       6  187581
  187575       6  187581  187578       7  187587  187584       6  187590  187584
       6  187590  187587       7  187596  187593       6  187599  187593       6
  187599  187596       7  187605  187602       6  187608  187602       6  187608
  187605       7  187614  187611       6  187617  187611       6  187617  187614
       7  187623  187620       6  187626  187620       6  187626  187623       7
  187632  187629       6  187635  187629       6  187635  187632       7  187641
  187638       6  187644  187638       6  187644  187641       7  187650  187647
       6  187653  187647       6  187653  187650       7  187659  187656       6
  187662  187656       6  187662  187659       7  187668  187665       6  187671
  187665       6  187671  187668       7  187677  187674       6  187680  187674
       6  187680  187677       7  187686  187683       6  187689  187683       6
  187689  187686       7  187695  187692       6  187698  187692       6  187698
  187695       7  187704  187701       6  187707  187701       6  187707  187704
       7  187713  187710       6  187716  187710       6  187716  187713       7
  187722  187719       6  187725  187719       6  187725  187722       7  187731
  187728       6  187734  187728       6  187734  187731       7  187740  187737
       6  187743  187737       6  187743  187740       7  187749  187746       6
  187752  187746       6  187752  187749       7  187758  187755       6  187761
  187755       6  187761  187758       7  187767  187764       6  187770  187764
       6  187770  187767       7  187776  187773       6  187779  187773       6
  187779  187776       7  187785  187782       6  187788  187782       6  187788
  187785       7  187794  187791       6  187797  187791       6  187797  187794
       7  187803  187800       6  187806  187800       6  187806  187803       7
  187812  187809       6  187815  187809       6  187815  187812       7  187821
  187818       6  187824  187818       6  187824  187821       7  187830  187827
       6  187833  187827       6  187833  187830       7  187839  187836       6
  187842  187836       6  187842  187839       7  187848  187845       6  187851
  187845       6  187851  187848       7  187857  187854       6  187860  187854
       6  187860  187857       7  187866  187863       6  187869  187863       6
  187869  187866       7  187875  187872       6  187878  187872       6  187878
  187875       7  187884  187881       6  187887  187881       6  187887  187884
       7  187893  187890       6  187896  187890       6  187896  187893       7
  187902  187899       6  187905  187899       6  187905  187902       7  187911
  187908       6  187914  187908       6  187914  187911       7  187920  187917
       6  187923  187917       6  187923  187920       7  187929  187926       6
  187932  187926       6  187932  187929       7  187938  187935       6  187941
  187935       6  187941  187938       7  187947  187944       6  187950  187944
       6  187950  187947       7  187956  187953       6  187959  187953       6
  187959  187956       7  187965  187962       6  187968  187962       6  187968
  187965       7  187974  187971       6  187977  187971       6  187977  187974
       7  187983  187980       6  187986  187980       6  187986  187983       7
  187992  187989       6  187995  187989       6  187995  187992       7  188001
  187998       6  188004  187998       6  188004  188001       7  188010  188007
       6  188013  188007       6  188013  188010       7  188019  188016       6
  188022  188016       6  188022  188019       7  188028  188025       6  188031
  188025       6  188031  188028       7  188037  188034       6  188040  188034
       6  188040  188037       7  188046  188043       6  188049  188043       6
  188049  188046       7  188055  188052       6  188058  188052       6  188058
  188055       7  188064  188061       6  188067  188061       6  188067  188064
       7  188073  188070       6  188076  188070       6  188076  188073       7
  188082  188079       6  188085  188079       6  188085  188082       7  188091
  188088       6  188094  188088       6  188094  188091       7  188100  188097
       6  188103  188097       6  188103  188100       7  188109  188106       6
  188112  188106       6  188112  188109       7  188118  188115       6  188121
  188115       6  188121  188118       7  188127  188124       6  188130  188124
       6  188130  188127       7  188136  188133       6  188139  188133       6
  188139  188136       7  188145  188142       6  188148  188142       6  188148
  188145       7  188154  188151       6  188157  188151       6  188157  188154
       7  188163  188160       6  188166  188160       6  188166  188163       7
  188172  188169       6  188175  188169       6  188175  188172       7  188181
  188178       6  188184  188178       6  188184  188181       7  188190  188187
       6  188193  188187       6  188193  188190       7  188199  188196       6
  188202  188196       6  188202  188199       7  188208  188205       6  188211
  188205       6  188211  188208       7  188217  188214       6  188220  188214
       6  188220  188217       7  188226  188223       6  188229  188223       6
  188229  188226       7  188235  188232       6  188238  188232       6  188238
  188235       7  188244  188241       6  188247  188241       6  188247  188244
       7  188253  188250       6  188256  188250       6  188256  188253       7
  188262  188259       6  188265  188259       6  188265  188262       7  188271
  188268       6  188274  188268       6  188274  188271       7  188280  188277
       6  188283  188277       6  188283  188280       7  188289  188286       6
  188292  188286       6  188292  188289       7  188298  188295       6  188301
  188295       6  188301  188298       7  188307  188304       6  188310  188304
       6  188310  188307       7  188316  188313       6  188319  188313       6
  188319  188316       7  188325  188322       6  188328  188322       6  188328
  188325       7  188334  188331       6  188337  188331       6  188337  188334
       7  188343  188340       6  188346  188340       6  188346  188343       7
  188352  188349       6  188355  188349       6  188355  188352       7  188361
  188358       6  188364  188358       6  188364  188361       7  188370  188367
       6  188373  188367       6  188373  188370       7  188379  188376       6
  188382  188376       6  188382  188379       7  188388  188385       6  188391
  188385       6  188391  188388       7  188397  188394       6  188400  188394
       6  188400  188397       7  188406  188403       6  188409  188403       6
  188409  188406       7  188415  188412       6  188418  188412       6  188418
  188415       7  188424  188421       6  188427  188421       6  188427  188424
       7  188433  188430       6  188436  188430       6  188436  188433       7
  188442  188439       6  188445  188439       6  188445  188442       7  188451
  188448       6  188454  188448       6  188454  188451       7  188460  188457
       6  188463  188457       6  188463  188460       7  188469  188466       6
  188472  188466       6  188472  188469       7  188478  188475       6  188481
  188475       6  188481  188478       7  188487  188484       6  188490  188484
       6  188490  188487       7  188496  188493       6  188499  188493       6
  188499  188496       7  188505  188502       6  188508  188502       6  188508
  188505       7  188514  188511       6  188517  188511       6  188517  188514
       7  188523  188520       6  188526  188520       6  188526  188523       7
  188532  188529       6  188535  188529       6  188535  188532       7  188541
  188538       6  188544  188538       6  188544  188541       7  188550  188547
       6  188553  188547       6  188553  188550       7  188559  188556       6
  188562  188556       6  188562  188559       7  188568  188565       6  188571
  188565       6  188571  188568       7  188577  188574       6  188580  188574
       6  188580  188577       7  188586  188583       6  188589  188583       6
  188589  188586       7  188595  188592       6  188598  188592       6  188598
  188595       7  188604  188601       6  188607  188601       6  188607  188604
       7  188613  188610       6  188616  188610       6  188616  188613       7
  188622  188619       6  188625  188619       6  188625  188622       7  188631
  188628       6  188634  188628       6  188634  188631       7  188640  188637
       6  188643  188637       6  188643  188640       7  188649  188646       6
  188652  188646       6  188652  188649       7  188658  188655       6  188661
  188655       6  188661  188658       7  188667  188664       6  188670  188664
       6  188670  188667       7  188676  188673       6  188679  188673       6
  188679  188676       7  188685  188682       6  188688  188682       6  188688
  188685       7  188694  188691       6  188697  188691       6  188697  188694
       7  188703  188700       6  188706  188700       6  188706  188703       7
  188712  188709       6  188715  188709       6  188715  188712       7  188721
  188718       6  188724  188718       6  188724  188721       7  188730  188727
       6  188733  188727       6  188733  188730       7  188739  188736       6
  188742  188736       6  188742  188739       7  188748  188745       6  188751
  188745       6  188751  188748       7  188757  188754       6  188760  188754
       6  188760  188757       7  188766  188763       6  188769  188763       6
  188769  188766       7  188775  188772       6  188778  188772       6  188778
  188775       7  188784  188781       6  188787  188781       6  188787  188784
       7  188793  188790       6  188796  188790       6  188796  188793       7
  188802  188799       6  188805  188799       6  188805  188802       7  188811
  188808       6  188814  188808       6  188814  188811       7  188820  188817
       6  188823  188817       6  188823  188820       7  188829  188826       6
  188832  188826       6  188832  188829       7  188838  188835       6  188841
  188835       6  188841  188838       7  188847  188844       6  188850  188844
       6  188850  188847       7  188856  188853       6  188859  188853       6
  188859  188856       7  188865  188862       6  188868  188862       6  188868
  188865       7  188874  188871       6  188877  188871       6  188877  188874
       7  188883  188880       6  188886  188880       6  188886  188883       7
  188892  188889       6  188895  188889       6  188895  188892       7  188901
  188898       6  188904  188898       6  188904  188901       7  188910  188907
       6  188913  188907       6  188913  188910       7  188919  188916       6
  188922  188916       6  188922  188919       7  188928  188925       6  188931
  188925       6  188931  188928       7  188937  188934       6  188940  188934
       6  188940  188937       7  188946  188943       6  188949  188943       6
  188949  188946       7  188955  188952       6  188958  188952       6  188958
  188955       7  188964  188961       6  188967  188961       6  188967  188964
       7  188973  188970       6  188976  188970       6  188976  188973       7
  188982  188979       6  188985  188979       6  188985  188982       7  188991
  188988       6  188994  188988       6  188994  188991       7  189000  188997
       6  189003  188997       6  189003  189000       7  189009  189006       6
  189012  189006       6  189012  189009       7  189018  189015       6  189021
  189015       6  189021  189018       7  189027  189024       6  189030  189024
       6  189030  189027       7  189036  189033       6  189039  189033       6
  189039  189036       7  189045  189042       6  189048  189042       6  189048
  189045       7  189054  189051       6  189057  189051       6  189057  189054
       7  189063  189060       6  189066  189060       6  189066  189063       7
  189072  189069       6  189075  189069       6  189075  189072       7  189081
  189078       6  189084  189078       6  189084  189081       7  189090  189087
       6  189093  189087       6  189093  189090       7  189099  189096       6
  189102  189096       6  189102  189099       7  189108  189105       6  189111
  189105       6  189111  189108       7  189117  189114       6  189120  189114
       6  189120  189117       7  189126  189123       6  189129  189123       6
  189129  189126       7  189135  189132       6  189138  189132       6  189138
  189135       7  189144  189141       6  189147  189141       6  189147  189144
       7  189153  189150       6  189156  189150       6  189156  189153       7
  189162  189159       6  189165  189159       6  189165  189162       7  189171
  189168       6  189174  189168       6  189174  189171       7  189180  189177
       6  189183  189177       6  189183  189180       7  189189  189186       6
  189192  189186       6  189192  189189       7  189198  189195       6  189201
  189195       6  189201  189198       7  189207  189204       6  189210  189204
       6  189210  189207       7  189216  189213       6  189219  189213       6
  189219  189216       7  189225  189222       6  189228  189222       6  189228
  189225       7  189234  189231       6  189237  189231       6  189237  189234
       7  189243  189240       6  189246  189240       6  189246  189243       7
  189252  189249       6  189255  189249       6  189255  189252       7  189261
  189258       6  189264  189258       6  189264  189261       7  189270  189267
       6  189273  189267       6  189273  189270       7  189279  189276       6
  189282  189276       6  189282  189279       7  189288  189285       6  189291
  189285       6  189291  189288       7  189297  189294       6  189300  189294
       6  189300  189297       7  189306  189303       6  189309  189303       6
  189309  189306       7  189315  189312       6  189318  189312       6  189318
  189315       7  189324  189321       6  189327  189321       6  189327  189324
       7  189333  189330       6  189336  189330       6  189336  189333       7
  189342  189339       6  189345  189339       6  189345  189342       7  189351
  189348       6  189354  189348       6  189354  189351       7  189360  189357
       6  189363  189357       6  189363  189360       7  189369  189366       6
  189372  189366       6  189372  189369       7  189378  189375       6  189381
  189375       6  189381  189378       7  189387  189384       6  189390  189384
       6  189390  189387       7  189396  189393       6  189399  189393       6
  189399  189396       7  189405  189402       6  189408  189402       6  189408
  189405       7  189414  189411       6  189417  189411       6  189417  189414
       7  189423  189420       6  189426  189420       6  189426  189423       7
  189432  189429       6  189435  189429       6  189435  189432       7  189441
  189438       6  189444  189438       6  189444  189441       7  189450  189447
       6  189453  189447       6  189453  189450       7  189459  189456       6
  189462  189456       6  189462  189459       7  189468  189465       6  189471
  189465       6  189471  189468       7  189477  189474       6  189480  189474
       6  189480  189477       7  189486  189483       6  189489  189483       6
  189489  189486       7  189495  189492       6  189498  189492       6  189498
  189495       7  189504  189501       6  189507  189501       6  189507  189504
       7  189513  189510       6  189516  189510       6  189516  189513       7
  189522  189519       6  189525  189519       6  189525  189522       7  189531
  189528       6  189534  189528       6  189534  189531       7  189540  189537
       6  189543  189537       6  189543  189540       7  189549  189546       6
  189552  189546       6  189552  189549       7  189558  189555       6  189561
  189555       6  189561  189558       7  189567  189564       6  189570  189564
       6  189570  189567       7  189576  189573       6  189579  189573       6
  189579  189576       7  189585  189582       6  189588  189582       6  189588
  189585       7  189594  189591       6  189597  189591       6  189597  189594
       7  189603  189600       6  189606  189600       6  189606  189603       7
  189612  189609       6  189615  189609       6  189615  189612       7  189621
  189618       6  189624  189618       6  189624  189621       7  189630  189627
       6  189633  189627       6  189633  189630       7  189639  189636       6
  189642  189636       6  189642  189639       7  189648  189645       6  189651
  189645       6  189651  189648       7  189657  189654       6  189660  189654
       6  189660  189657       7  189666  189663       6  189669  189663       6
  189669  189666       7  189675  189672       6  189678  189672       6  189678
  189675       7  189684  189681       6  189687  189681       6  189687  189684
       7  189693  189690       6  189696  189690       6  189696  189693       7
  189702  189699       6  189705  189699       6  189705  189702       7  189711
  189708       6  189714  189708       6  189714  189711       7  189720  189717
       6  189723  189717       6  189723  189720       7  189729  189726       6
  189732  189726       6  189732  189729       7  189738  189735       6  189741
  189735       6  189741  189738       7  189747  189744       6  189750  189744
       6  189750  189747       7  189756  189753       6  189759  189753       6
  189759  189756       7  189765  189762       6  189768  189762       6  189768
  189765       7  189774  189771       6  189777  189771       6  189777  189774
       7  189783  189780       6  189786  189780       6  189786  189783       7
  189792  189789       6  189795  189789       6  189795  189792       7  189801
  189798       6  189804  189798       6  189804  189801       7  189810  189807
       6  189813  189807       6  189813  189810       7  189819  189816       6
  189822  189816       6  189822  189819       7  189828  189825       6  189831
  189825       6  189831  189828       7  189837  189834       6  189840  189834
       6  189840  189837       7  189846  189843       6  189849  189843       6
  189849  189846       7  189855  189852       6  189858  189852       6  189858
  189855       7  189864  189861       6  189867  189861       6  189867  189864
       7  189873  189870       6  189876  189870       6  189876  189873       7
  189882  189879       6  189885  189879       6  189885  189882       7  189891
  189888       6  189894  189888       6  189894  189891       7  189900  189897
       6  189903  189897       6  189903  189900       7  189909  189906       6
  189912  189906       6  189912  189909       7  189918  189915       6  189921
  189915       6  189921  189918       7  189927  189924       6  189930  189924
       6  189930  189927       7  189936  189933       6  189939  189933       6
  189939  189936       7  189945  189942       6  189948  189942       6  189948
  189945       7  189954  189951       6  189957  189951       6  189957  189954
       7  189963  189960       6  189966  189960       6  189966  189963       7
  189972  189969       6  189975  189969       6  189975  189972       7  189981
  189978       6  189984  189978       6  189984  189981       7  189990  189987
       6  189993  189987       6  189993  189990       7  189999  189996       6
  190002  189996       6  190002  189999       7  190008  190005       6  190011
  190005       6  190011  190008       7  190017  190014       6  190020  190014
       6  190020  190017       7  190026  190023       6  190029  190023       6
  190029  190026       7  190035  190032       6  190038  190032       6  190038
  190035       7  190044  190041       6  190047  190041       6  190047  190044
       7  190053  190050       6  190056  190050       6  190056  190053       7
  190062  190059       6  190065  190059       6  190065  190062       7  190071
  190068       6  190074  190068       6  190074  190071       7  190080  190077
       6  190083  190077       6  190083  190080       7  190089  190086       6
  190092  190086       6  190092  190089       7  190098  190095       6  190101
  190095       6  190101  190098       7  190107  190104       6  190110  190104
       6  190110  190107       7  190116  190113       6  190119  190113       6
  190119  190116       7  190125  190122       6  190128  190122       6  190128
  190125       7  190134  190131       6  190137  190131       6  190137  190134
       7  190143  190140       6  190146  190140       6  190146  190143       7
  190152  190149       6  190155  190149       6  190155  190152       7  190161
  190158       6  190164  190158       6  190164  190161       7  190170  190167
       6  190173  190167       6  190173  190170       7  190179  190176       6
  190182  190176       6  190182  190179       7  190188  190185       6  190191
  190185       6  190191  190188       7  190197  190194       6  190200  190194
       6  190200  190197       7  190206  190203       6  190209  190203       6
  190209  190206       7  190215  190212       6  190218  190212       6  190218
  190215       7  190224  190221       6  190227  190221       6  190227  190224
       7  190233  190230       6  190236  190230       6  190236  190233       7
  190242  190239       6  190245  190239       6  190245  190242       7  190251
  190248       6  190254  190248       6  190254  190251       7  190260  190257
       6  190263  190257       6  190263  190260       7  190269  190266       6
  190272  190266       6  190272  190269       7  190278  190275       6  190281
  190275       6  190281  190278       7  190287  190284       6  190290  190284
       6  190290  190287       7  190296  190293       6  190299  190293       6
  190299  190296       7  190305  190302       6  190308  190302       6  190308
  190305       7  190314  190311       6  190317  190311       6  190317  190314
       7  190323  190320       6  190326  190320       6  190326  190323       7
  190332  190329       6  190335  190329       6  190335  190332       7  190341
  190338       6  190344  190338       6  190344  190341       7  190350  190347
       6  190353  190347       6  190353  190350       7  190359  190356       6
  190362  190356       6  190362  190359       7  190368  190365       6  190371
  190365       6  190371  190368       7  190377  190374       6  190380  190374
       6  190380  190377       7  190386  190383       6  190389  190383       6
  190389  190386       7  190395  190392       6  190398  190392       6  190398
  190395       7  190404  190401       6  190407  190401       6  190407  190404
       7  190413  190410       6  190416  190410       6  190416  190413       7
  190422  190419       6  190425  190419       6  190425  190422       7  190431
  190428       6  190434  190428       6  190434  190431       7  190440  190437
       6  190443  190437       6  190443  190440       7  190449  190446       6
  190452  190446       6  190452  190449       7  190458  190455       6  190461
  190455       6  190461  190458       7  190467  190464       6  190470  190464
       6  190470  190467       7  190476  190473       6  190479  190473       6
  190479  190476       7  190485  190482       6  190488  190482       6  190488
  190485       7  190494  190491       6  190497  190491       6  190497  190494
       7  190503  190500       6  190506  190500       6  190506  190503       7
  190512  190509       6  190515  190509       6  190515  190512       7  190521
  190518       6  190524  190518       6  190524  190521       7  190530  190527
       6  190533  190527       6  190533  190530       7  190539  190536       6
  190542  190536       6  190542  190539       7  190548  190545       6  190551
  190545       6  190551  190548       7  190557  190554       6  190560  190554
       6  190560  190557       7  190566  190563       6  190569  190563       6
  190569  190566       7  190575  190572       6  190578  190572       6  190578
  190575       7  190584  190581       6  190587  190581       6  190587  190584
       7  190593  190590       6  190596  190590       6  190596  190593       7
  190602  190599       6  190605  190599       6  190605  190602       7  190611
  190608       6  190614  190608       6  190614  190611       7  190620  190617
       6  190623  190617       6  190623  190620       7  190629  190626       6
  190632  190626       6  190632  190629       7  190638  190635       6  190641
  190635       6  190641  190638       7  190647  190644       6  190650  190644
       6  190650  190647       7  190656  190653       6  190659  190653       6
  190659  190656       7  190665  190662       6  190668  190662       6  190668
  190665       7  190674  190671       6  190677  190671       6  190677  190674
       7  190683  190680       6  190686  190680       6  190686  190683       7
  190692  190689       6  190695  190689       6  190695  190692       7  190701
  190698       6  190704  190698       6  190704  190701       7  190710  190707
       6  190713  190707       6  190713  190710       7  190719  190716       6
  190722  190716       6  190722  190719       7  190728  190725       6  190731
  190725       6  190731  190728       7  190737  190734       6  190740  190734
       6  190740  190737       7  190746  190743       6  190749  190743       6
  190749  190746       7  190755  190752       6  190758  190752       6  190758
  190755       7  190764  190761       6  190767  190761       6  190767  190764
       7  190773  190770       6  190776  190770       6  190776  190773       7
  190782  190779       6  190785  190779       6  190785  190782       7  190791
  190788       6  190794  190788       6  190794  190791       7  190800  190797
       6  190803  190797       6  190803  190800       7  190809  190806       6
  190812  190806       6  190812  190809       7  190818  190815       6  190821
  190815       6  190821  190818       7  190827  190824       6  190830  190824
       6  190830  190827       7  190836  190833       6  190839  190833       6
  190839  190836       7  190845  190842       6  190848  190842       6  190848
  190845       7  190854  190851       6  190857  190851       6  190857  190854
       7  190863  190860       6  190866  190860       6  190866  190863       7
  190872  190869       6  190875  190869       6  190875  190872       7  190881
  190878       6  190884  190878       6  190884  190881       7  190890  190887
       6  190893  190887       6  190893  190890       7  190899  190896       6
  190902  190896       6  190902  190899       7  190908  190905       6  190911
  190905       6  190911  190908       7  190917  190914       6  190920  190914
       6  190920  190917       7  190926  190923       6  190929  190923       6
  190929  190926       7  190935  190932       6  190938  190932       6  190938
  190935       7  190944  190941       6  190947  190941       6  190947  190944
       7  190953  190950       6  190956  190950       6  190956  190953       7
  190962  190959       6  190965  190959       6  190965  190962       7  190971
  190968       6  190974  190968       6  190974  190971       7  190980  190977
       6  190983  190977       6  190983  190980       7  190989  190986       6
  190992  190986       6  190992  190989       7  190998  190995       6  191001
  190995       6  191001  190998       7  191007  191004       6  191010  191004
       6  191010  191007       7  191016  191013       6  191019  191013       6
  191019  191016       7  191025  191022       6  191028  191022       6  191028
  191025       7  191034  191031       6  191037  191031       6  191037  191034
       7  191043  191040       6  191046  191040       6  191046  191043       7
  191052  191049       6  191055  191049       6  191055  191052       7  191061
  191058       6  191064  191058       6  191064  191061       7  191070  191067
       6  191073  191067       6  191073  191070       7  191079  191076       6
  191082  191076       6  191082  191079       7  191088  191085       6  191091
  191085       6  191091  191088       7  191097  191094       6  191100  191094
       6  191100  191097       7  191106  191103       6  191109  191103       6
  191109  191106       7  191115  191112       6  191118  191112       6  191118
  191115       7  191124  191121       6  191127  191121       6  191127  191124
       7  191133  191130       6  191136  191130       6  191136  191133       7
  191142  191139       6  191145  191139       6  191145  191142       7  191151
  191148       6  191154  191148       6  191154  191151       7  191160  191157
       6  191163  191157       6  191163  191160       7  191169  191166       6
  191172  191166       6  191172  191169       7  191178  191175       6  191181
  191175       6  191181  191178       7  191187  191184       6  191190  191184
       6  191190  191187       7  191196  191193       6  191199  191193       6
  191199  191196       7  191205  191202       6  191208  191202       6  191208
  191205       7  191214  191211       6  191217  191211       6  191217  191214
       7  191223  191220       6  191226  191220       6  191226  191223       7
  191232  191229       6  191235  191229       6  191235  191232       7  191241
  191238       6  191244  191238       6  191244  191241       7  191250  191247
       6  191253  191247       6  191253  191250       7  191259  191256       6
  191262  191256       6  191262  191259       7  191268  191265       6  191271
  191265       6  191271  191268       7  191277  191274       6  191280  191274
       6  191280  191277       7  191286  191283       6  191289  191283       6
  191289  191286       7  191295  191292       6  191298  191292       6  191298
  191295       7  191304  191301       6  191307  191301       6  191307  191304
       7  191313  191310       6  191316  191310       6  191316  191313       7
  191322  191319       6  191325  191319       6  191325  191322       7  191331
  191328       6  191334  191328       6  191334  191331       7  191340  191337
       6  191343  191337       6  191343  191340       7  191349  191346       6
  191352  191346       6  191352  191349       7  191358  191355       6  191361
  191355       6  191361  191358       7  191367  191364       6  191370  191364
       6  191370  191367       7  191376  191373       6  191379  191373       6
  191379  191376       7  191385  191382       6  191388  191382       6  191388
  191385       7  191394  191391       6  191397  191391       6  191397  191394
       7  191403  191400       6  191406  191400       6  191406  191403       7
  191412  191409       6  191415  191409       6  191415  191412       7  191421
  191418       6  191424  191418       6  191424  191421       7  191430  191427
       6  191433  191427       6  191433  191430       7  191439  191436       6
  191442  191436       6  191442  191439       7  191448  191445       6  191451
  191445       6  191451  191448       7  191457  191454       6  191460  191454
       6  191460  191457       7  191466  191463       6  191469  191463       6
  191469  191466       7  191475  191472       6  191478  191472       6  191478
  191475       7  191484  191481       6  191487  191481       6  191487  191484
       7  191493  191490       6  191496  191490       6  191496  191493       7
  191502  191499       6  191505  191499       6  191505  191502       7  191511
  191508       6  191514  191508       6  191514  191511       7  191520  191517
       6  191523  191517       6  191523  191520       7  191529  191526       6
  191532  191526       6  191532  191529       7  191538  191535       6  191541
  191535       6  191541  191538       7  191547  191544       6  191550  191544
       6  191550  191547       7  191556  191553       6  191559  191553       6
  191559  191556       7  191565  191562       6  191568  191562       6  191568
  191565       7  191574  191571       6  191577  191571       6  191577  191574
       7  191583  191580       6  191586  191580       6  191586  191583       7
  191592  191589       6  191595  191589       6  191595  191592       7  191601
  191598       6  191604  191598       6  191604  191601       7  191610  191607
       6  191613  191607       6  191613  191610       7  191619  191616       6
  191622  191616       6  191622  191619       7  191628  191625       6  191631
  191625       6  191631  191628       7  191637  191634       6  191640  191634
       6  191640  191637       7  191646  191643       6  191649  191643       6
  191649  191646       7  191655  191652       6  191658  191652       6  191658
  191655       7  191664  191661       6  191667  191661       6  191667  191664
       7  191673  191670       6  191676  191670       6  191676  191673       7
  191682  191679       6  191685  191679       6  191685  191682       7  191691
  191688       6  191694  191688       6  191694  191691       7  191700  191697
       6  191703  191697       6  191703  191700       7  191709  191706       6
  191712  191706       6  191712  191709       7  191718  191715       6  191721
  191715       6  191721  191718       7  191727  191724       6  191730  191724
       6  191730  191727       7  191736  191733       6  191739  191733       6
  191739  191736       7  191745  191742       6  191748  191742       6  191748
  191745       7  191754  191751       6  191757  191751       6  191757  191754
       7  191763  191760       6  191766  191760       6  191766  191763       7
  191772  191769       6  191775  191769       6  191775  191772       7  191781
  191778       6  191784  191778       6  191784  191781       7  191790  191787
       6  191793  191787       6  191793  191790       7  191799  191796       6
  191802  191796       6  191802  191799       7  191808  191805       6  191811
  191805       6  191811  191808       7  191817  191814       6  191820  191814
       6  191820  191817       7  191826  191823       6  191829  191823       6
  191829  191826       7  191835  191832       6  191838  191832       6  191838
  191835       7  191844  191841       6  191847  191841       6  191847  191844
       7  191853  191850       6  191856  191850       6  191856  191853       7
  191862  191859       6  191865  191859       6  191865  191862       7  191871
  191868       6  191874  191868       6  191874  191871       7  191880  191877
       6  191883  191877       6  191883  191880       7  191889  191886       6
  191892  191886       6  191892  191889       7  191898  191895       6  191901
  191895       6  191901  191898       7  191907  191904       6  191910  191904
       6  191910  191907       7  191916  191913       6  191919  191913       6
  191919  191916       7  191925  191922       6  191928  191922       6  191928
  191925       7  191934  191931       6  191937  191931       6  191937  191934
       7  191943  191940       6  191946  191940       6  191946  191943       7
  191952  191949       6  191955  191949       6  191955  191952       7  191961
  191958       6  191964  191958       6  191964  191961       7  191970  191967
       6  191973  191967       6  191973  191970       7  191979  191976       6
  191982  191976       6  191982  191979       7  191988  191985       6  191991
  191985       6  191991  191988       7  191997  191994       6  192000  191994
       6  192000  191997       7  192006  192003       6  192009  192003       6
  192009  192006       7  192015  192012       6  192018  192012       6  192018
  192015       7  192024  192021       6  192027  192021       6  192027  192024
       7  192033  192030       6  192036  192030       6  192036  192033       7
  192042  192039       6  192045  192039       6  192045  192042       7  192051
  192048       6  192054  192048       6  192054  192051       7  192060  192057
       6  192063  192057       6  192063  192060       7  192069  192066       6
  192072  192066       6  192072  192069       7  192078  192075       6  192081
  192075       6  192081  192078       7  192087  192084       6  192090  192084
       6  192090  192087       7  192096  192093       6  192099  192093       6
  192099  192096       7  192105  192102       6  192108  192102       6  192108
  192105       7  192114  192111       6  192117  192111       6  192117  192114
       7  192123  192120       6  192126  192120       6  192126  192123       7
  192132  192129       6  192135  192129       6  192135  192132       7  192141
  192138       6  192144  192138       6  192144  192141       7  192150  192147
       6  192153  192147       6  192153  192150       7  192159  192156       6
  192162  192156       6  192162  192159       7  192168  192165       6  192171
  192165       6  192171  192168       7  192177  192174       6  192180  192174
       6  192180  192177       7  192186  192183       6  192189  192183       6
  192189  192186       7  192195  192192       6  192198  192192       6  192198
  192195       7  192204  192201       6  192207  192201       6  192207  192204
       7  192213  192210       6  192216  192210       6  192216  192213       7
  192222  192219       6  192225  192219       6  192225  192222       7  192231
  192228       6  192234  192228       6  192234  192231       7  192240  192237
       6  192243  192237       6  192243  192240       7  192249  192246       6
  192252  192246       6  192252  192249       7  192258  192255       6  192261
  192255       6  192261  192258       7  192267  192264       6  192270  192264
       6  192270  192267       7  192276  192273       6  192279  192273       6
  192279  192276       7  192285  192282       6  192288  192282       6  192288
  192285       7  192294  192291       6  192297  192291       6  192297  192294
       7  192303  192300       6  192306  192300       6  192306  192303       7
  192312  192309       6  192315  192309       6  192315  192312       7  192321
  192318       6  192324  192318       6  192324  192321       7  192330  192327
       6  192333  192327       6  192333  192330       7  192339  192336       6
  192342  192336       6  192342  192339       7  192348  192345       6  192351
  192345       6  192351  192348       7  192357  192354       6  192360  192354
       6  192360  192357       7  192366  192363       6  192369  192363       6
  192369  192366       7  192375  192372       6  192378  192372       6  192378
  192375       7  192384  192381       6  192387  192381       6  192387  192384
       7  192393  192390       6  192396  192390       6  192396  192393       7
  192402  192399       6  192405  192399       6  192405  192402       7  192411
  192408       6  192414  192408       6  192414  192411       7  192420  192417
       6  192423  192417       6  192423  192420       7  192429  192426       6
  192432  192426       6  192432  192429       7  192438  192435       6  192441
  192435       6  192441  192438       7  192447  192444       6  192450  192444
       6  192450  192447       7  192456  192453       6  192459  192453       6
  192459  192456       7  192465  192462       6  192468  192462       6  192468
  192465       7  192474  192471       6  192477  192471       6  192477  192474
       7  192483  192480       6  192486  192480       6  192486  192483       7
  192492  192489       6  192495  192489       6  192495  192492       7  192501
  192498       6  192504  192498       6  192504  192501       7  192510  192507
       6  192513  192507       6  192513  192510       7  192519  192516       6
  192522  192516       6  192522  192519       7  192528  192525       6  192531
  192525       6  192531  192528       7  192537  192534       6  192540  192534
       6  192540  192537       7  192546  192543       6  192549  192543       6
  192549  192546       7  192555  192552       6  192558  192552       6  192558
  192555       7  192564  192561       6  192567  192561       6  192567  192564
       7  192573  192570       6  192576  192570       6  192576  192573       7
  192582  192579       6  192585  192579       6  192585  192582       7  192591
  192588       6  192594  192588       6  192594  192591       7  192600  192597
       6  192603  192597       6  192603  192600       7  192609  192606       6
  192612  192606       6  192612  192609       7  192618  192615       6  192621
  192615       6  192621  192618       7  192627  192624       6  192630  192624
       6  192630  192627       7  192636  192633       6  192639  192633       6
  192639  192636       7  192645  192642       6  192648  192642       6  192648
  192645       7  192654  192651       6  192657  192651       6  192657  192654
       7  192663  192660       6  192666  192660       6  192666  192663       7
  192672  192669       6  192675  192669       6  192675  192672       7  192681
  192678       6  192684  192678       6  192684  192681       7  192690  192687
       6  192693  192687       6  192693  192690       7  192699  192696       6
  192702  192696       6  192702  192699       7  192708  192705       6  192711
  192705       6  192711  192708       7  192717  192714       6  192720  192714
       6  192720  192717       7  192726  192723       6  192729  192723       6
  192729  192726       7  192735  192732       6  192738  192732       6  192738
  192735       7  192744  192741       6  192747  192741       6  192747  192744
       7  192753  192750       6  192756  192750       6  192756  192753       7
  192762  192759       6  192765  192759       6  192765  192762       7  192771
  192768       6  192774  192768       6  192774  192771       7  192780  192777
       6  192783  192777       6  192783  192780       7  192789  192786       6
  192792  192786       6  192792  192789       7  192798  192795       6  192801
  192795       6  192801  192798       7  192807  192804       6  192810  192804
       6  192810  192807       7  192816  192813       6  192819  192813       6
  192819  192816       7  192825  192822       6  192828  192822       6  192828
  192825       7  192834  192831       6  192837  192831       6  192837  192834
       7  192843  192840       6  192846  192840       6  192846  192843       7
  192852  192849       6  192855  192849       6  192855  192852       7  192861
  192858       6  192864  192858       6  192864  192861       7  192870  192867
       6  192873  192867       6  192873  192870       7  192879  192876       6
  192882  192876       6  192882  192879       7  192888  192885       6  192891
  192885       6  192891  192888       7  192897  192894       6  192900  192894
       6  192900  192897       7  192906  192903       6  192909  192903       6
  192909  192906       7  192915  192912       6  192918  192912       6  192918
  192915       7  192924  192921       6  192927  192921       6  192927  192924
       7  192933  192930       6  192936  192930       6  192936  192933       7
  192942  192939       6  192945  192939       6  192945  192942       7  192951
  192948       6  192954  192948       6  192954  192951       7  192960  192957
       6  192963  192957       6  192963  192960       7  192969  192966       6
  192972  192966       6  192972  192969       7  192978  192975       6  192981
  192975       6  192981  192978       7  192987  192984       6  192990  192984
       6  192990  192987       7  192996  192993       6  192999  192993       6
  192999  192996       7  193005  193002       6  193008  193002       6  193008
  193005       7  193014  193011       6  193017  193011       6  193017  193014
       7  193023  193020       6  193026  193020       6  193026  193023       7
  193032  193029       6  193035  193029       6  193035  193032       7  193041
  193038       6  193044  193038       6  193044  193041       7  193050  193047
       6  193053  193047       6  193053  193050       7  193059  193056       6
  193062  193056       6  193062  193059       7  193068  193065       6  193071
  193065       6  193071  193068       7  193077  193074       6  193080  193074
       6  193080  193077       7  193086  193083       6  193089  193083       6
  193089  193086       7  193095  193092       6  193098  193092       6  193098
  193095       7  193104  193101       6  193107  193101       6  193107  193104
       7  193113  193110       6  193116  193110       6  193116  193113       7
  193122  193119       6  193125  193119       6  193125  193122       7  193131
  193128       6  193134  193128       6  193134  193131       7  193140  193137
       6  193143  193137       6  193143  193140       7  193149  193146       6
  193152  193146       6  193152  193149       7  193158  193155       6  193161
  193155       6  193161  193158       7  193167  193164       6  193170  193164
       6  193170  193167       7  193176  193173       6  193179  193173       6
  193179  193176       7  193185  193182       6  193188  193182       6  193188
  193185       7  193194  193191       6  193197  193191       6  193197  193194
       7  193203  193200       6  193206  193200       6  193206  193203       7
  193212  193209       6  193215  193209       6  193215  193212       7  193221
  193218       6  193224  193218       6  193224  193221       7  193230  193227
       6  193233  193227       6  193233  193230       7  193239  193236       6
  193242  193236       6  193242  193239       7  193248  193245       6  193251
  193245       6  193251  193248       7  193257  193254       6  193260  193254
       6  193260  193257       7  193266  193263       6  193269  193263       6
  193269  193266       7  193275  193272       6  193278  193272       6  193278
  193275       7  193284  193281       6  193287  193281       6  193287  193284
       7  193293  193290       6  193296  193290       6  193296  193293       7
  193302  193299       6  193305  193299       6  193305  193302       7  193311
  193308       6  193314  193308       6  193314  193311       7  193320  193317
       6  193323  193317       6  193323  193320       7  193329  193326       6
  193332  193326       6  193332  193329       7  193338  193335       6  193341
  193335       6  193341  193338       7  193347  193344       6  193350  193344
       6  193350  193347       7  193356  193353       6  193359  193353       6
  193359  193356       7  193365  193362       6  193368  193362       6  193368
  193365       7  193374  193371       6  193377  193371       6  193377  193374
       7  193383  193380       6  193386  193380       6  193386  193383       7
  193392  193389       6  193395  193389       6  193395  193392       7  193401
  193398       6  193404  193398       6  193404  193401       7  193410  193407
       6  193413  193407       6  193413  193410       7  193419  193416       6
  193422  193416       6  193422  193419       7  193428  193425       6  193431
  193425       6  193431  193428       7  193437  193434       6  193440  193434
       6  193440  193437       7  193446  193443       6  193449  193443       6
  193449  193446       7  193455  193452       6  193458  193452       6  193458
  193455       7  193464  193461       6  193467  193461       6  193467  193464
       7  193473  193470       6  193476  193470       6  193476  193473       7
  193482  193479       6  193485  193479       6  193485  193482       7  193491
  193488       6  193494  193488       6  193494  193491       7  193500  193497
       6  193503  193497       6  193503  193500       7  193509  193506       6
  193512  193506       6  193512  193509       7  193518  193515       6  193521
  193515       6  193521  193518       7  193527  193524       6  193530  193524
       6  193530  193527       7  193536  193533       6  193539  193533       6
  193539  193536       7  193545  193542       6  193548  193542       6  193548
  193545       7  193554  193551       6  193557  193551       6  193557  193554
       7  193563  193560       6  193566  193560       6  193566  193563       7
  193572  193569       6  193575  193569       6  193575  193572       7  193581
  193578       6  193584  193578       6  193584  193581       7  193590  193587
       6  193593  193587       6  193593  193590       7  193599  193596       6
  193602  193596       6  193602  193599       7  193608  193605       6  193611
  193605       6  193611  193608       7  193617  193614       6  193620  193614
       6  193620  193617       7  193626  193623       6  193629  193623       6
  193629  193626       7  193635  193632       6  193638  193632       6  193638
  193635       7  193644  193641       6  193647  193641       6  193647  193644
       7  193653  193650       6  193656  193650       6  193656  193653       7
  193662  193659       6  193665  193659       6  193665  193662       7  193671
  193668       6  193674  193668       6  193674  193671       7  193680  193677
       6  193683  193677       6  193683  193680       7  193689  193686       6
  193692  193686       6  193692  193689       7  193698  193695       6  193701
  193695       6  193701  193698       7  193707  193704       6  193710  193704
       6  193710  193707       7  193716  193713       6  193719  193713       6
  193719  193716       7  193725  193722       6  193728  193722       6  193728
  193725       7  193734  193731       6  193737  193731       6  193737  193734
       7  193743  193740       6  193746  193740       6  193746  193743       7
  193752  193749       6  193755  193749       6  193755  193752       7  193761
  193758       6  193764  193758       6  193764  193761       7  193770  193767
       6  193773  193767       6  193773  193770       7  193779  193776       6
  193782  193776       6  193782  193779       7  193788  193785       6  193791
  193785       6  193791  193788       7  193797  193794       6  193800  193794
       6  193800  193797       7  193806  193803       6  193809  193803       6
  193809  193806       7  193815  193812       6  193818  193812       6  193818
  193815       7  193824  193821       6  193827  193821       6  193827  193824
       7  193833  193830       6  193836  193830       6  193836  193833       7
  193842  193839       6  193845  193839       6  193845  193842       7  193851
  193848       6  193854  193848       6  193854  193851       7  193860  193857
       6  193863  193857       6  193863  193860       7  193869  193866       6
  193872  193866       6  193872  193869       7  193878  193875       6  193881
  193875       6  193881  193878       7  193887  193884       6  193890  193884
       6  193890  193887       7  193896  193893       6  193899  193893       6
  193899  193896       7  193905  193902       6  193908  193902       6  193908
  193905       7  193914  193911       6  193917  193911       6  193917  193914
       7  193923  193920       6  193926  193920       6  193926  193923       7
  193932  193929       6  193935  193929       6  193935  193932       7  193941
  193938       6  193944  193938       6  193944  193941       7  193950  193947
       6  193953  193947       6  193953  193950       7  193959  193956       6
  193962  193956       6  193962  193959       7  193968  193965       6  193971
  193965       6  193971  193968       7  193977  193974       6  193980  193974
       6  193980  193977       7  193986  193983       6  193989  193983       6
  193989  193986       7  193995  193992       6  193998  193992       6  193998
  193995       7  194004  194001       6  194007  194001       6  194007  194004
       7  194013  194010       6  194016  194010       6  194016  194013       7
  194022  194019       6  194025  194019       6  194025  194022       7  194031
  194028       6  194034  194028       6  194034  194031       7  194040  194037
       6  194043  194037       6  194043  194040       7  194049  194046       6
  194052  194046       6  194052  194049       7  194058  194055       6  194061
  194055       6  194061  194058       7  194067  194064       6  194070  194064
       6  194070  194067       7  194076  194073       6  194079  194073       6
  194079  194076       7  194085  194082       6  194088  194082       6  194088
  194085       7  194094  194091       6  194097  194091       6  194097  194094
       7  194103  194100       6  194106  194100       6  194106  194103       7
  194112  194109       6  194115  194109       6  194115  194112       7  194121
  194118       6  194124  194118       6  194124  194121       7  194130  194127
       6  194133  194127       6  194133  194130       7  194139  194136       6
  194142  194136       6  194142  194139       7  194148  194145       6  194151
  194145       6  194151  194148       7  194157  194154       6  194160  194154
       6  194160  194157       7  194166  194163       6  194169  194163       6
  194169  194166       7  194175  194172       6  194178  194172       6  194178
  194175       7  194184  194181       6  194187  194181       6  194187  194184
       7  194193  194190       6  194196  194190       6  194196  194193       7
  194202  194199       6  194205  194199       6  194205  194202       7  194211
  194208       6  194214  194208       6  194214  194211       7  194220  194217
       6  194223  194217       6  194223  194220       7  194229  194226       6
  194232  194226       6  194232  194229       7  194238  194235       6  194241
  194235       6  194241  194238       7  194247  194244       6  194250  194244
       6  194250  194247       7  194256  194253       6  194259  194253       6
  194259  194256       7  194265  194262       6  194268  194262       6  194268
  194265       7  194274  194271       6  194277  194271       6  194277  194274
       7  194283  194280       6  194286  194280       6  194286  194283       7
  194292  194289       6  194295  194289       6  194295  194292       7  194301
  194298       6  194304  194298       6  194304  194301       7  194310  194307
       6  194313  194307       6  194313  194310       7  194319  194316       6
  194322  194316       6  194322  194319       7  194328  194325       6  194331
  194325       6  194331  194328       7  194337  194334       6  194340  194334
       6  194340  194337       7  194346  194343       6  194349  194343       6
  194349  194346       7  194355  194352       6  194358  194352       6  194358
  194355       7  194364  194361       6  194367  194361       6  194367  194364
       7  194373  194370       6  194376  194370       6  194376  194373       7
  194382  194379       6  194385  194379       6  194385  194382       7  194391
  194388       6  194394  194388       6  194394  194391       7  194400  194397
       6  194403  194397       6  194403  194400       7  194409  194406       6
  194412  194406       6  194412  194409       7  194418  194415       6  194421
  194415       6  194421  194418       7  194427  194424       6  194430  194424
       6  194430  194427       7  194436  194433       6  194439  194433       6
  194439  194436       7  194445  194442       6  194448  194442       6  194448
  194445       7  194454  194451       6  194457  194451       6  194457  194454
       7  194463  194460       6  194466  194460       6  194466  194463       7
  194472  194469       6  194475  194469       6  194475  194472       7  194481
  194478       6  194484  194478       6  194484  194481       7  194490  194487
       6  194493  194487       6  194493  194490       7  194499  194496       6
  194502  194496       6  194502  194499       7  194508  194505       6  194511
  194505       6  194511  194508       7  194517  194514       6  194520  194514
       6  194520  194517       7  194526  194523       6  194529  194523       6
  194529  194526       7  194535  194532       6  194538  194532       6  194538
  194535       7  194544  194541       6  194547  194541       6  194547  194544
       7  194553  194550       6  194556  194550       6  194556  194553       7
  194562  194559       6  194565  194559       6  194565  194562       7  194571
  194568       6  194574  194568       6  194574  194571       7  194580  194577
       6  194583  194577       6  194583  194580       7  194589  194586       6
  194592  194586       6  194592  194589       7  194598  194595       6  194601
  194595       6  194601  194598       7  194607  194604       6  194610  194604
       6  194610  194607       7  194616  194613       6  194619  194613       6
  194619  194616       7  194625  194622       6  194628  194622       6  194628
  194625       7  194634  194631       6  194637  194631       6  194637  194634
       7  194643  194640       6  194646  194640       6  194646  194643       7
  194652  194649       6  194655  194649       6  194655  194652       7  194661
  194658       6  194664  194658       6  194664  194661       7  194670  194667
       6  194673  194667       6  194673  194670       7  194679  194676       6
  194682  194676       6  194682  194679       7  194688  194685       6  194691
  194685       6  194691  194688       7  194697  194694       6  194700  194694
       6  194700  194697       7  194706  194703       6  194709  194703       6
  194709  194706       7  194715  194712       6  194718  194712       6  194718
  194715       7  194724  194721       6  194727  194721       6  194727  194724
       7  194733  194730       6  194736  194730       6  194736  194733       7
  194742  194739       6  194745  194739       6  194745  194742       7  194751
  194748       6  194754  194748       6  194754  194751       7  194760  194757
       6  194763  194757       6  194763  194760       7  194769  194766       6
  194772  194766       6  194772  194769       7  194778  194775       6  194781
  194775       6  194781  194778       7  194787  194784       6  194790  194784
       6  194790  194787       7  194796  194793       6  194799  194793       6
  194799  194796       7  194805  194802       6  194808  194802       6  194808
  194805       7  194814  194811       6  194817  194811       6  194817  194814
       7  194823  194820       6  194826  194820       6  194826  194823       7
  194832  194829       6  194835  194829       6  194835  194832       7  194841
  194838       6  194844  194838       6  194844  194841       7  194850  194847
       6  194853  194847       6  194853  194850       7  194859  194856       6
  194862  194856       6  194862  194859       7  194868  194865       6  194871
  194865       6  194871  194868       7  194877  194874       6  194880  194874
       6  194880  194877       7  194886  194883       6  194889  194883       6
  194889  194886       7  194895  194892       6  194898  194892       6  194898
  194895       7  194904  194901       6  194907  194901       6  194907  194904
       7  194913  194910       6  194916  194910       6  194916  194913       7
  194922  194919       6  194925  194919       6  194925  194922       7  194931
  194928       6  194934  194928       6  194934  194931       7  194940  194937
       6  194943  194937       6  194943  194940       7  194949  194946       6
  194952  194946       6  194952  194949       7  194958  194955       6  194961
  194955       6  194961  194958       7  194967  194964       6  194970  194964
       6  194970  194967       7  194976  194973       6  194979  194973       6
  194979  194976       7  194985  194982       6  194988  194982       6  194988
  194985       7  194994  194991       6  194997  194991       6  194997  194994
       7  195003  195000       6  195006  195000       6  195006  195003       7
  195012  195009       6  195015  195009       6  195015  195012       7  195021
  195018       6  195024  195018       6  195024  195021       7  195030  195027
       6  195033  195027       6  195033  195030       7  195039  195036       6
  195042  195036       6  195042  195039       7  195048  195045       6  195051
  195045       6  195051  195048       7  195057  195054       6  195060  195054
       6  195060  195057       7  195066  195063       6  195069  195063       6
  195069  195066       7  195075  195072       6  195078  195072       6  195078
  195075       7  195084  195081       6  195087  195081       6  195087  195084
       7  195093  195090       6  195096  195090       6  195096  195093       7
  195102  195099       6  195105  195099       6  195105  195102       7  195111
  195108       6  195114  195108       6  195114  195111       7  195120  195117
       6  195123  195117       6  195123  195120       7  195129  195126       6
  195132  195126       6  195132  195129       7  195138  195135       6  195141
  195135       6  195141  195138       7  195147  195144       6  195150  195144
       6  195150  195147       7  195156  195153       6  195159  195153       6
  195159  195156       7  195165  195162       6  195168  195162       6  195168
  195165       7  195174  195171       6  195177  195171       6  195177  195174
       7  195183  195180       6  195186  195180       6  195186  195183       7
  195192  195189       6  195195  195189       6  195195  195192       7  195201
  195198       6  195204  195198       6  195204  195201       7  195210  195207
       6  195213  195207       6  195213  195210       7  195219  195216       6
  195222  195216       6  195222  195219       7  195228  195225       6  195231
  195225       6  195231  195228       7  195237  195234       6  195240  195234
       6  195240  195237       7  195246  195243       6  195249  195243       6
  195249  195246       7  195255  195252       6  195258  195252       6  195258
  195255       7  195264  195261       6  195267  195261       6  195267  195264
       7  195273  195270       6  195276  195270       6  195276  195273       7
  195282  195279       6  195285  195279       6  195285  195282       7  195291
  195288       6  195294  195288       6  195294  195291       7  195300  195297
       6  195303  195297       6  195303  195300       7  195309  195306       6
  195312  195306       6  195312  195309       7  195318  195315       6  195321
  195315       6  195321  195318       7  195327  195324       6  195330  195324
       6  195330  195327       7  195336  195333       6  195339  195333       6
  195339  195336       7  195345  195342       6  195348  195342       6  195348
  195345       7  195354  195351       6  195357  195351       6  195357  195354
       7  195363  195360       6  195366  195360       6  195366  195363       7
  195372  195369       6  195375  195369       6  195375  195372       7  195381
  195378       6  195384  195378       6  195384  195381       7  195390  195387
       6  195393  195387       6  195393  195390       7  195399  195396       6
  195402  195396       6  195402  195399       7  195408  195405       6  195411
  195405       6  195411  195408       7  195417  195414       6  195420  195414
       6  195420  195417       7  195426  195423       6  195429  195423       6
  195429  195426       7  195435  195432       6  195438  195432       6  195438
  195435       7  195444  195441       6  195447  195441       6  195447  195444
       7  195453  195450       6  195456  195450       6  195456  195453       7
  195462  195459       6  195465  195459       6  195465  195462       7  195471
  195468       6  195474  195468       6  195474  195471       7  195480  195477
       6  195483  195477       6  195483  195480       7  195489  195486       6
  195492  195486       6  195492  195489       7  195498  195495       6  195501
  195495       6  195501  195498       7  195507  195504       6  195510  195504
       6  195510  195507       7  195516  195513       6  195519  195513       6
  195519  195516       7  195525  195522       6  195528  195522       6  195528
  195525       7  195534  195531       6  195537  195531       6  195537  195534
       7  195543  195540       6  195546  195540       6  195546  195543       7
  195552  195549       6  195555  195549       6  195555  195552       7  195561
  195558       6  195564  195558       6  195564  195561       7  195570  195567
       6  195573  195567       6  195573  195570       7  195579  195576       6
  195582  195576       6  195582  195579       7  195588  195585       6  195591
  195585       6  195591  195588       7  195597  195594       6  195600  195594
       6  195600  195597       7  195606  195603       6  195609  195603       6
  195609  195606       7  195615  195612       6  195618  195612       6  195618
  195615       7  195624  195621       6  195627  195621       6  195627  195624
       7  195633  195630       6  195636  195630       6  195636  195633       7
  195642  195639       6  195645  195639       6  195645  195642       7  195651
  195648       6  195654  195648       6  195654  195651       7  195660  195657
       6  195663  195657       6  195663  195660       7  195669  195666       6
  195672  195666       6  195672  195669       7  195678  195675       6  195681
  195675       6  195681  195678       7  195687  195684       6  195690  195684
       6  195690  195687       7  195696  195693       6  195699  195693       6
  195699  195696       7  195705  195702       6  195708  195702       6  195708
  195705       7  195714  195711       6  195717  195711       6  195717  195714
       7  195723  195720       6  195726  195720       6  195726  195723       7
  195732  195729       6  195735  195729       6  195735  195732       7  195741
  195738       6  195744  195738       6  195744  195741       7  195750  195747
       6  195753  195747       6  195753  195750       7  195759  195756       6
  195762  195756       6  195762  195759       7  195768  195765       6  195771
  195765       6  195771  195768       7  195777  195774       6  195780  195774
       6  195780  195777       7  195786  195783       6  195789  195783       6
  195789  195786       7  195795  195792       6  195798  195792       6  195798
  195795       7  195804  195801       6  195807  195801       6  195807  195804
       7  195813  195810       6  195816  195810       6  195816  195813       7
  195822  195819       6  195825  195819       6  195825  195822       7  195831
  195828       6  195834  195828       6  195834  195831       7  195840  195837
       6  195843  195837       6  195843  195840       7  195849  195846       6
  195852  195846       6  195852  195849       7  195858  195855       6  195861
  195855       6  195861  195858       7  195867  195864       6  195870  195864
       6  195870  195867       7  195876  195873       6  195879  195873       6
  195879  195876       7  195885  195882       6  195888  195882       6  195888
  195885       7  195894  195891       6  195897  195891       6  195897  195894
       7  195903  195900       6  195906  195900       6  195906  195903       7
  195912  195909       6  195915  195909       6  195915  195912       7  195921
  195918       6  195924  195918       6  195924  195921       7  195930  195927
       6  195933  195927       6  195933  195930       7  195939  195936       6
  195942  195936       6  195942  195939       7  195948  195945       6  195951
  195945       6  195951  195948       7  195957  195954       6  195960  195954
       6  195960  195957       7  195966  195963       6  195969  195963       6
  195969  195966       7  195975  195972       6  195978  195972       6  195978
  195975       7  195984  195981       6  195987  195981       6  195987  195984
       7  195993  195990       6  195996  195990       6  195996  195993       7
  196002  195999       6  196005  195999       6  196005  196002       7  196011
  196008       6  196014  196008       6  196014  196011       7  196020  196017
       6  196023  196017       6  196023  196020       7  196029  196026       6
  196032  196026       6  196032  196029       7  196038  196035       6  196041
  196035       6  196041  196038       7  196047  196044       6  196050  196044
       6  196050  196047       7  196056  196053       6  196059  196053       6
  196059  196056       7  196065  196062       6  196068  196062       6  196068
  196065       7  196074  196071       6  196077  196071       6  196077  196074
       7  196083  196080       6  196086  196080       6  196086  196083       7
  196092  196089       6  196095  196089       6  196095  196092       7  196101
  196098       6  196104  196098       6  196104  196101       7  196110  196107
       6  196113  196107       6  196113  196110       7  196119  196116       6
  196122  196116       6  196122  196119       7  196128  196125       6  196131
  196125       6  196131  196128       7  196137  196134       6  196140  196134
       6  196140  196137       7  196146  196143       6  196149  196143       6
  196149  196146       7  196155  196152       6  196158  196152       6  196158
  196155       7  196164  196161       6  196167  196161       6  196167  196164
       7  196173  196170       6  196176  196170       6  196176  196173       7
  196182  196179       6  196185  196179       6  196185  196182       7  196191
  196188       6  196194  196188       6  196194  196191       7  196200  196197
       6  196203  196197       6  196203  196200       7  196209  196206       6
  196212  196206       6  196212  196209       7  196218  196215       6  196221
  196215       6  196221  196218       7  196227  196224       6  196230  196224
       6  196230  196227       7  196236  196233       6  196239  196233       6
  196239  196236       7  196245  196242       6  196248  196242       6  196248
  196245       7  196254  196251       6  196257  196251       6  196257  196254
       7  196263  196260       6  196266  196260       6  196266  196263       7
  196272  196269       6  196275  196269       6  196275  196272       7  196281
  196278       6  196284  196278       6  196284  196281       7  196290  196287
       6  196293  196287       6  196293  196290       7  196299  196296       6
  196302  196296       6  196302  196299       7  196308  196305       6  196311
  196305       6  196311  196308       7  196317  196314       6  196320  196314
       6  196320  196317       7  196326  196323       6  196329  196323       6
  196329  196326       7  196335  196332       6  196338  196332       6  196338
  196335       7  196344  196341       6  196347  196341       6  196347  196344
       7  196353  196350       6  196356  196350       6  196356  196353       7
  196362  196359       6  196365  196359       6  196365  196362       7  196371
  196368       6  196374  196368       6  196374  196371       7  196380  196377
       6  196383  196377       6  196383  196380       7  196389  196386       6
  196392  196386       6  196392  196389       7  196398  196395       6  196401
  196395       6  196401  196398       7  196407  196404       6  196410  196404
       6  196410  196407       7  196416  196413       6  196419  196413       6
  196419  196416       7  196425  196422       6  196428  196422       6  196428
  196425       7  196434  196431       6  196437  196431       6  196437  196434
       7  196443  196440       6  196446  196440       6  196446  196443       7
  196452  196449       6  196455  196449       6  196455  196452       7  196461
  196458       6  196464  196458       6  196464  196461       7  196470  196467
       6  196473  196467       6  196473  196470       7  196479  196476       6
  196482  196476       6  196482  196479       7  196488  196485       6  196491
  196485       6  196491  196488       7  196497  196494       6  196500  196494
       6  196500  196497       7  196506  196503       6  196509  196503       6
  196509  196506       7  196515  196512       6  196518  196512       6  196518
  196515       7  196524  196521       6  196527  196521       6  196527  196524
       7  196533  196530       6  196536  196530       6  196536  196533       7
  196542  196539       6  196545  196539       6  196545  196542       7  196551
  196548       6  196554  196548       6  196554  196551       7  196560  196557
       6  196563  196557       6  196563  196560       7  196569  196566       6
  196572  196566       6  196572  196569       7  196578  196575       6  196581
  196575       6  196581  196578       7  196587  196584       6  196590  196584
       6  196590  196587       7  196596  196593       6  196599  196593       6
  196599  196596       7  196605  196602       6  196608  196602       6  196608
  196605       7  196614  196611       6  196617  196611       6  196617  196614
       7  196623  196620       6  196626  196620       6  196626  196623       7
  196632  196629       6  196635  196629       6  196635  196632       7  196641
  196638       6  196644  196638       6  196644  196641       7  196650  196647
       6  196653  196647       6  196653  196650       7  196659  196656       6
  196662  196656       6  196662  196659       7  196668  196665       6  196671
  196665       6  196671  196668       7  196677  196674       6  196680  196674
       6  196680  196677       7  196686  196683       6  196689  196683       6
  196689  196686       7  196695  196692       6  196698  196692       6  196698
  196695       7  196704  196701       6  196707  196701       6  196707  196704
       7  196713  196710       6  196716  196710       6  196716  196713       7
  196722  196719       6  196725  196719       6  196725  196722       7  196731
  196728       6  196734  196728       6  196734  196731       7  196740  196737
       6  196743  196737       6  196743  196740       7  196749  196746       6
  196752  196746       6  196752  196749       7  196758  196755       6  196761
  196755       6  196761  196758       7  196767  196764       6  196770  196764
       6  196770  196767       7  196776  196773       6  196779  196773       6
  196779  196776       7  196785  196782       6  196788  196782       6  196788
  196785       7  196794  196791       6  196797  196791       6  196797  196794
       7  196803  196800       6  196806  196800       6  196806  196803       7
  196812  196809       6  196815  196809       6  196815  196812       7  196821
  196818       6  196824  196818       6  196824  196821       7  196830  196827
       6  196833  196827       6  196833  196830       7  196839  196836       6
  196842  196836       6  196842  196839       7  196848  196845       6  196851
  196845       6  196851  196848       7  196857  196854       6  196860  196854
       6  196860  196857       7  196866  196863       6  196869  196863       6
  196869  196866       7  196875  196872       6  196878  196872       6  196878
  196875       7  196884  196881       6  196887  196881       6  196887  196884
       7  196893  196890       6  196896  196890       6  196896  196893       7
  196902  196899       6  196905  196899       6  196905  196902       7  196911
  196908       6  196914  196908       6  196914  196911       7  196920  196917
       6  196923  196917       6  196923  196920       7  196929  196926       6
  196932  196926       6  196932  196929       7  196938  196935       6  196941
  196935       6  196941  196938       7  196947  196944       6  196950  196944
       6  196950  196947       7  196956  196953       6  196959  196953       6
  196959  196956       7  196965  196962       6  196968  196962       6  196968
  196965       7  196974  196971       6  196977  196971       6  196977  196974
       7  196983  196980       6  196986  196980       6  196986  196983       7
  196992  196989       6  196995  196989       6  196995  196992       7  197001
  196998       6  197004  196998       6  197004  197001       7  197010  197007
       6  197013  197007       6  197013  197010       7  197019  197016       6
  197022  197016       6  197022  197019       7  197028  197025       6  197031
  197025       6  197031  197028       7  197037  197034       6  197040  197034
       6  197040  197037       7  197046  197043       6  197049  197043       6
  197049  197046       7  197055  197052       6  197058  197052       6  197058
  197055       7  197064  197061       6  197067  197061       6  197067  197064
       7  197073  197070       6  197076  197070       6  197076  197073       7
  197082  197079       6  197085  197079       6  197085  197082       7  197091
  197088       6  197094  197088       6  197094  197091       7  197100  197097
       6  197103  197097       6  197103  197100       7  197109  197106       6
  197112  197106       6  197112  197109       7  197118  197115       6  197121
  197115       6  197121  197118       7  197127  197124       6  197130  197124
       6  197130  197127       7  197136  197133       6  197139  197133       6
  197139  197136       7  197145  197142       6  197148  197142       6  197148
  197145       7  197154  197151       6  197157  197151       6  197157  197154
       7  197163  197160       6  197166  197160       6  197166  197163       7
  197172  197169       6  197175  197169       6  197175  197172       7  197181
  197178       6  197184  197178       6  197184  197181       7  197190  197187
       6  197193  197187       6  197193  197190       7  197199  197196       6
  197202  197196       6  197202  197199       7  197208  197205       6  197211
  197205       6  197211  197208       7  197217  197214       6  197220  197214
       6  197220  197217       7  197226  197223       6  197229  197223       6
  197229  197226       7  197235  197232       6  197238  197232       6  197238
  197235       7  197244  197241       6  197247  197241       6  197247  197244
       7  197253  197250       6  197256  197250       6  197256  197253       7
  197262  197259       6  197265  197259       6  197265  197262       7  197271
  197268       6  197274  197268       6  197274  197271       7  197280  197277
       6  197283  197277       6  197283  197280       7  197289  197286       6
  197292  197286       6  197292  197289       7  197298  197295       6  197301
  197295       6  197301  197298       7  197307  197304       6  197310  197304
       6  197310  197307       7  197316  197313       6  197319  197313       6
  197319  197316       7  197325  197322       6  197328  197322       6  197328
  197325       7  197334  197331       6  197337  197331       6  197337  197334
       7  197343  197340       6  197346  197340       6  197346  197343       7
  197352  197349       6  197355  197349       6  197355  197352       7  197361
  197358       6  197364  197358       6  197364  197361       7  197370  197367
       6  197373  197367       6  197373  197370       7  197379  197376       6
  197382  197376       6  197382  197379       7  197388  197385       6  197391
  197385       6  197391  197388       7  197397  197394       6  197400  197394
       6  197400  197397       7  197406  197403       6  197409  197403       6
  197409  197406       7  197415  197412       6  197418  197412       6  197418
  197415       7  197424  197421       6  197427  197421       6  197427  197424
       7  197433  197430       6  197436  197430       6  197436  197433       7
  197442  197439       6  197445  197439       6  197445  197442       7  197451
  197448       6  197454  197448       6  197454  197451       7  197460  197457
       6  197463  197457       6  197463  197460       7  197469  197466       6
  197472  197466       6  197472  197469       7  197478  197475       6  197481
  197475       6  197481  197478       7  197487  197484       6  197490  197484
       6  197490  197487       7  197496  197493       6  197499  197493       6
  197499  197496       7  197505  197502       6  197508  197502       6  197508
  197505       7  197514  197511       6  197517  197511       6  197517  197514
       7  197523  197520       6  197526  197520       6  197526  197523       7
  197532  197529       6  197535  197529       6  197535  197532       7  197541
  197538       6  197544  197538       6  197544  197541       7  197550  197547
       6  197553  197547       6  197553  197550       7  197559  197556       6
  197562  197556       6  197562  197559       7  197568  197565       6  197571
  197565       6  197571  197568       7  197577  197574       6  197580  197574
       6  197580  197577       7  197586  197583       6  197589  197583       6
  197589  197586       7  197595  197592       6  197598  197592       6  197598
  197595       7  197604  197601       6  197607  197601       6  197607  197604
       7  197613  197610       6  197616  197610       6  197616  197613       7
  197622  197619       6  197625  197619       6  197625  197622       7  197631
  197628       6  197634  197628       6  197634  197631       7  197640  197637
       6  197643  197637       6  197643  197640       7  197649  197646       6
  197652  197646       6  197652  197649       7  197658  197655       6  197661
  197655       6  197661  197658       7  197667  197664       6  197670  197664
       6  197670  197667       7  197676  197673       6  197679  197673       6
  197679  197676       7  197685  197682       6  197688  197682       6  197688
  197685       7  197694  197691       6  197697  197691       6  197697  197694
       7  197703  197700       6  197706  197700       6  197706  197703       7
  197712  197709       6  197715  197709       6  197715  197712       7  197721
  197718       6  197724  197718       6  197724  197721       7  197730  197727
       6  197733  197727       6  197733  197730       7  197739  197736       6
  197742  197736       6  197742  197739       7  197748  197745       6  197751
  197745       6  197751  197748       7  197757  197754       6  197760  197754
       6  197760  197757       7  197766  197763       6  197769  197763       6
  197769  197766       7  197775  197772       6  197778  197772       6  197778
  197775       7  197784  197781       6  197787  197781       6  197787  197784
       7  197793  197790       6  197796  197790       6  197796  197793       7
  197802  197799       6  197805  197799       6  197805  197802       7  197811
  197808       6  197814  197808       6  197814  197811       7  197820  197817
       6  197823  197817       6  197823  197820       7  197829  197826       6
  197832  197826       6  197832  197829       7  197838  197835       6  197841
  197835       6  197841  197838       7  197847  197844       6  197850  197844
       6  197850  197847       7  197856  197853       6  197859  197853       6
  197859  197856       7  197865  197862       6  197868  197862       6  197868
  197865       7  197874  197871       6  197877  197871       6  197877  197874
       7  197883  197880       6  197886  197880       6  197886  197883       7
  197892  197889       6  197895  197889       6  197895  197892       7  197901
  197898       6  197904  197898       6  197904  197901       7  197910  197907
       6  197913  197907       6  197913  197910       7  197919  197916       6
  197922  197916       6  197922  197919       7  197928  197925       6  197931
  197925       6  197931  197928       7  197937  197934       6  197940  197934
       6  197940  197937       7  197946  197943       6  197949  197943       6
  197949  197946       7  197955  197952       6  197958  197952       6  197958
  197955       7  197964  197961       6  197967  197961       6  197967  197964
       7  197973  197970       6  197976  197970       6  197976  197973       7
  197982  197979       6  197985  197979       6  197985  197982       7  197991
  197988       6  197994  197988       6  197994  197991       7  198000  197997
       6  198003  197997       6  198003  198000       7  198009  198006       6
  198012  198006       6  198012  198009       7  198018  198015       6  198021
  198015       6  198021  198018       7  198027  198024       6  198030  198024
       6  198030  198027       7  198036  198033       6  198039  198033       6
  198039  198036       7  198045  198042       6  198048  198042       6  198048
  198045       7  198054  198051       6  198057  198051       6  198057  198054
       7  198063  198060       6  198066  198060       6  198066  198063       7
  198072  198069       6  198075  198069       6  198075  198072       7  198081
  198078       6  198084  198078       6  198084  198081       7  198090  198087
       6  198093  198087       6  198093  198090       7  198099  198096       6
  198102  198096       6  198102  198099       7  198108  198105       6  198111
  198105       6  198111  198108       7  198117  198114       6  198120  198114
       6  198120  198117       7  198126  198123       6  198129  198123       6
  198129  198126       7  198135  198132       6  198138  198132       6  198138
  198135       7  198144  198141       6  198147  198141       6  198147  198144
       7  198153  198150       6  198156  198150       6  198156  198153       7
  198162  198159       6  198165  198159       6  198165  198162       7  198171
  198168       6  198174  198168       6  198174  198171       7  198180  198177
       6  198183  198177       6  198183  198180       7  198189  198186       6
  198192  198186       6  198192  198189       7  198198  198195       6  198201
  198195       6  198201  198198       7  198207  198204       6  198210  198204
       6  198210  198207       7  198216  198213       6  198219  198213       6
  198219  198216       7  198225  198222       6  198228  198222       6  198228
  198225       7  198234  198231       6  198237  198231       6  198237  198234
       7  198243  198240       6  198246  198240       6  198246  198243       7
  198252  198249       6  198255  198249       6  198255  198252       7  198261
  198258       6  198264  198258       6  198264  198261       7  198270  198267
       6  198273  198267       6  198273  198270       7  198279  198276       6
  198282  198276       6  198282  198279       7  198288  198285       6  198291
  198285       6  198291  198288       7  198297  198294       6  198300  198294
       6  198300  198297       7  198306  198303       6  198309  198303       6
  198309  198306       7  198315  198312       6  198318  198312       6  198318
  198315       7  198324  198321       6  198327  198321       6  198327  198324
       7  198333  198330       6  198336  198330       6  198336  198333       7
  198342  198339       6  198345  198339       6  198345  198342       7  198351
  198348       6  198354  198348       6  198354  198351       7  198360  198357
       6  198363  198357       6  198363  198360       7  198369  198366       6
  198372  198366       6  198372  198369       7  198378  198375       6  198381
  198375       6  198381  198378       7  198387  198384       6  198390  198384
       6  198390  198387       7  198396  198393       6  198399  198393       6
  198399  198396       7  198405  198402       6  198408  198402       6  198408
  198405       7  198414  198411       6  198417  198411       6  198417  198414
       7  198423  198420       6  198426  198420       6  198426  198423       7
  198432  198429       6  198435  198429       6  198435  198432       7  198441
  198438       6  198444  198438       6  198444  198441       7  198450  198447
       6  198453  198447       6  198453  198450       7  198459  198456       6
  198462  198456       6  198462  198459       7  198468  198465       6  198471
  198465       6  198471  198468       7  198477  198474       6  198480  198474
       6  198480  198477       7  198486  198483       6  198489  198483       6
  198489  198486       7  198495  198492       6  198498  198492       6  198498
  198495       7  198504  198501       6  198507  198501       6  198507  198504
       7  198513  198510       6  198516  198510       6  198516  198513       7
  198522  198519       6  198525  198519       6  198525  198522       7  198531
  198528       6  198534  198528       6  198534  198531       7  198540  198537
       6  198543  198537       6  198543  198540       7  198549  198546       6
  198552  198546       6  198552  198549       7  198558  198555       6  198561
  198555       6  198561  198558       7  198567  198564       6  198570  198564
       6  198570  198567       7  198576  198573       6  198579  198573       6
  198579  198576       7  198585  198582       6  198588  198582       6  198588
  198585       7  198594  198591       6  198597  198591       6  198597  198594
       7  198603  198600       6  198606  198600       6  198606  198603       7
  198612  198609       6  198615  198609       6  198615  198612       7  198621
  198618       6  198624  198618       6  198624  198621       7  198630  198627
       6  198633  198627       6  198633  198630       7  198639  198636       6
  198642  198636       6  198642  198639       7  198648  198645       6  198651
  198645       6  198651  198648       7  198657  198654       6  198660  198654
       6  198660  198657       7  198666  198663       6  198669  198663       6
  198669  198666       7  198675  198672       6  198678  198672       6  198678
  198675       7  198684  198681       6  198687  198681       6  198687  198684
       7  198693  198690       6  198696  198690       6  198696  198693       7
  198702  198699       6  198705  198699       6  198705  198702       7  198711
  198708       6  198714  198708       6  198714  198711       7  198720  198717
       6  198723  198717       6  198723  198720       7  198729  198726       6
  198732  198726       6  198732  198729       7  198738  198735       6  198741
  198735       6  198741  198738       7  198747  198744       6  198750  198744
       6  198750  198747       7  198756  198753       6  198759  198753       6
  198759  198756       7  198765  198762       6  198768  198762       6  198768
  198765       7  198774  198771       6  198777  198771       6  198777  198774
       7  198783  198780       6  198786  198780       6  198786  198783       7
  198792  198789       6  198795  198789       6  198795  198792       7  198801
  198798       6  198804  198798       6  198804  198801       7  198810  198807
       6  198813  198807       6  198813  198810       7  198819  198816       6
  198822  198816       6  198822  198819       7  198828  198825       6  198831
  198825       6  198831  198828       7  198837  198834       6  198840  198834
       6  198840  198837       7  198846  198843       6  198849  198843       6
  198849  198846       7  198855  198852       6  198858  198852       6  198858
  198855       7  198864  198861       6  198867  198861       6  198867  198864
       7  198873  198870       6  198876  198870       6  198876  198873       7
  198882  198879       6  198885  198879       6  198885  198882       7  198891
  198888       6  198894  198888       6  198894  198891       7  198900  198897
       6  198903  198897       6  198903  198900       7  198909  198906       6
  198912  198906       6  198912  198909       7  198918  198915       6  198921
  198915       6  198921  198918       7  198927  198924       6  198930  198924
       6  198930  198927       7  198936  198933       6  198939  198933       6
  198939  198936       7  198945  198942       6  198948  198942       6  198948
  198945       7  198954  198951       6  198957  198951       6  198957  198954
       7  198963  198960       6  198966  198960       6  198966  198963       7
  198972  198969       6  198975  198969       6  198975  198972       7  198981
  198978       6  198984  198978       6  198984  198981       7  198990  198987
       6  198993  198987       6  198993  198990       7  198999  198996       6
  199002  198996       6  199002  198999       7  199008  199005       6  199011
  199005       6  199011  199008       7  199017  199014       6  199020  199014
       6  199020  199017       7  199026  199023       6  199029  199023       6
  199029  199026       7  199035  199032       6  199038  199032       6  199038
  199035       7  199044  199041       6  199047  199041       6  199047  199044
       7  199053  199050       6  199056  199050       6  199056  199053       7
  199062  199059       6  199065  199059       6  199065  199062       7  199071
  199068       6  199074  199068       6  199074  199071       7  199080  199077
       6  199083  199077       6  199083  199080       7  199089  199086       6
  199092  199086       6  199092  199089       7  199098  199095       6  199101
  199095       6  199101  199098       7  199107  199104       6  199110  199104
       6  199110  199107       7  199116  199113       6  199119  199113       6
  199119  199116       7  199125  199122       6  199128  199122       6  199128
  199125       7  199134  199131       6  199137  199131       6  199137  199134
       7  199143  199140       6  199146  199140       6  199146  199143       7
  199152  199149       6  199155  199149       6  199155  199152       7  199161
  199158       6  199164  199158       6  199164  199161       7  199170  199167
       6  199173  199167       6  199173  199170       7  199179  199176       6
  199182  199176       6  199182  199179       7  199188  199185       6  199191
  199185       6  199191  199188       7  199197  199194       6  199200  199194
       6  199200  199197       7  199206  199203       6  199209  199203       6
  199209  199206       7  199215  199212       6  199218  199212       6  199218
  199215       7  199224  199221       6  199227  199221       6  199227  199224
       7  199233  199230       6  199236  199230       6  199236  199233       7
  199242  199239       6  199245  199239       6  199245  199242       7  199251
  199248       6  199254  199248       6  199254  199251       7  199260  199257
       6  199263  199257       6  199263  199260       7  199269  199266       6
  199272  199266       6  199272  199269       7  199278  199275       6  199281
  199275       6  199281  199278       7  199287  199284       6  199290  199284
       6  199290  199287       7  199296  199293       6  199299  199293       6
  199299  199296       7  199305  199302       6  199308  199302       6  199308
  199305       7  199314  199311       6  199317  199311       6  199317  199314
       7  199323  199320       6  199326  199320       6  199326  199323       7
  199332  199329       6  199335  199329       6  199335  199332       7  199341
  199338       6  199344  199338       6  199344  199341       7  199350  199347
       6  199353  199347       6  199353  199350       7  199359  199356       6
  199362  199356       6  199362  199359       7  199368  199365       6  199371
  199365       6  199371  199368       7  199377  199374       6  199380  199374
       6  199380  199377       7  199386  199383       6  199389  199383       6
  199389  199386       7  199395  199392       6  199398  199392       6  199398
  199395       7  199404  199401       6  199407  199401       6  199407  199404
       7  199413  199410       6  199416  199410       6  199416  199413       7
  199422  199419       6  199425  199419       6  199425  199422       7  199431
  199428       6  199434  199428       6  199434  199431       7  199440  199437
       6  199443  199437       6  199443  199440       7  199449  199446       6
  199452  199446       6  199452  199449       7  199458  199455       6  199461
  199455       6  199461  199458       7  199467  199464       6  199470  199464
       6  199470  199467       7  199476  199473       6  199479  199473       6
  199479  199476       7  199485  199482       6  199488  199482       6  199488
  199485       7  199494  199491       6  199497  199491       6  199497  199494
       7  199503  199500       6  199506  199500       6  199506  199503       7
  199512  199509       6  199515  199509       6  199515  199512       7  199521
  199518       6  199524  199518       6  199524  199521       7  199530  199527
       6  199533  199527       6  199533  199530       7  199539  199536       6
  199542  199536       6  199542  199539       7  199548  199545       6  199551
  199545       6  199551  199548       7  199557  199554       6  199560  199554
       6  199560  199557       7  199566  199563       6  199569  199563       6
  199569  199566       7  199575  199572       6  199578  199572       6  199578
  199575       7  199584  199581       6  199587  199581       6  199587  199584
       7  199593  199590       6  199596  199590       6  199596  199593       7
  199602  199599       6  199605  199599       6  199605  199602       7  199611
  199608       6  199614  199608       6  199614  199611       7  199620  199617
       6  199623  199617       6  199623  199620       7  199629  199626       6
  199632  199626       6  199632  199629       7  199638  199635       6  199641
  199635       6  199641  199638       7  199647  199644       6  199650  199644
       6  199650  199647       7  199656  199653       6  199659  199653       6
  199659  199656       7  199665  199662       6  199668  199662       6  199668
  199665       7  199674  199671       6  199677  199671       6  199677  199674
       7  199683  199680       6  199686  199680       6  199686  199683       7
  199692  199689       6  199695  199689       6  199695  199692       7  199701
  199698       6  199704  199698       6  199704  199701       7  199710  199707
       6  199713  199707       6  199713  199710       7  199719  199716       6
  199722  199716       6  199722  199719       7  199728  199725       6  199731
  199725       6  199731  199728       7  199737  199734       6  199740  199734
       6  199740  199737       7  199746  199743       6  199749  199743       6
  199749  199746       7  199755  199752       6  199758  199752       6  199758
  199755       7  199764  199761       6  199767  199761       6  199767  199764
       7  199773  199770       6  199776  199770       6  199776  199773       7
  199782  199779       6  199785  199779       6  199785  199782       7  199791
  199788       6  199794  199788       6  199794  199791       7  199800  199797
       6  199803  199797       6  199803  199800       7  199809  199806       6
  199812  199806       6  199812  199809       7  199818  199815       6  199821
  199815       6  199821  199818       7  199827  199824       6  199830  199824
       6  199830  199827       7  199836  199833       6  199839  199833       6
  199839  199836       7  199845  199842       6  199848  199842       6  199848
  199845       7  199854  199851       6  199857  199851       6  199857  199854
       7  199863  199860       6  199866  199860       6  199866  199863       7
  199872  199869       6  199875  199869       6  199875  199872       7  199881
  199878       6  199884  199878       6  199884  199881       7  199890  199887
       6  199893  199887       6  199893  199890       7  199899  199896       6
  199902  199896       6  199902  199899       7  199908  199905       6  199911
  199905       6  199911  199908       7  199917  199914       6  199920  199914
       6  199920  199917       7  199926  199923       6  199929  199923       6
  199929  199926       7  199935  199932       6  199938  199932       6  199938
  199935       7  199944  199941       6  199947  199941       6  199947  199944
       7  199953  199950       6  199956  199950       6  199956  199953       7
  199962  199959       6  199965  199959       6  199965  199962       7  199971
  199968       6  199974  199968       6  199974  199971       7  199980  199977
       6  199983  199977       6  199983  199980       7  199989  199986       6
  199992  199986       6  199992  199989       7  199998  199995       6  200001
  199995       6  200001  199998       7  200007  200004       6  200010  200004
       6  200010  200007       7  200016  200013       6  200019  200013       6
  200019  200016       7  200025  200022       6  200028  200022       6  200028
  200025       7  200034  200031       6  200037  200031       6  200037  200034
       7  200043  200040       6  200046  200040       6  200046  200043       7
  200052  200049       6  200055  200049       6  200055  200052       7  200061
  200058       6  200064  200058       6  200064  200061       7  200070  200067
       6  200073  200067       6  200073  200070       7  200079  200076       6
  200082  200076       6  200082  200079       7  200088  200085       6  200091
  200085       6  200091  200088       7  200097  200094       6  200100  200094
       6  200100  200097       7  200106  200103       6  200109  200103       6
  200109  200106       7  200115  200112       6  200118  200112       6  200118
  200115       7  200124  200121       6  200127  200121       6  200127  200124
       7  200133  200130       6  200136  200130       6  200136  200133       7
  200142  200139       6  200145  200139       6  200145  200142       7  200151
  200148       6  200154  200148       6  200154  200151       7  200160  200157
       6  200163  200157       6  200163  200160       7  200169  200166       6
  200172  200166       6  200172  200169       7  200178  200175       6  200181
  200175       6  200181  200178       7  200187  200184       6  200190  200184
       6  200190  200187       7  200196  200193       6  200199  200193       6
  200199  200196       7  200205  200202       6  200208  200202       6  200208
  200205       7  200214  200211       6  200217  200211       6  200217  200214
       7  200223  200220       6  200226  200220       6  200226  200223       7
  200232  200229       6  200235  200229       6  200235  200232       7  200241
  200238       6  200244  200238       6  200244  200241       7  200250  200247
       6  200253  200247       6  200253  200250       7  200259  200256       6
  200262  200256       6  200262  200259       7  200268  200265       6  200271
  200265       6  200271  200268       7  200277  200274       6  200280  200274
       6  200280  200277       7  200286  200283       6  200289  200283       6
  200289  200286       7  200295  200292       6  200298  200292       6  200298
  200295       7  200304  200301       6  200307  200301       6  200307  200304
       7  200313  200310       6  200316  200310       6  200316  200313       7
  200322  200319       6  200325  200319       6  200325  200322       7  200331
  200328       6  200334  200328       6  200334  200331       7  200340  200337
       6  200343  200337       6  200343  200340       7  200349  200346       6
  200352  200346       6  200352  200349       7  200358  200355       6  200361
  200355       6  200361  200358       7  200367  200364       6  200370  200364
       6  200370  200367       7  200376  200373       6  200379  200373       6
  200379  200376       7  200385  200382       6  200388  200382       6  200388
  200385       7  200394  200391       6  200397  200391       6  200397  200394
       7  200403  200400       6  200406  200400       6  200406  200403       7
  200412  200409       6  200415  200409       6  200415  200412       7  200421
  200418       6  200424  200418       6  200424  200421       7  200430  200427
       6  200433  200427       6  200433  200430       7  200439  200436       6
  200442  200436       6  200442  200439       7  200448  200445       6  200451
  200445       6  200451  200448       7  200457  200454       6  200460  200454
       6  200460  200457       7  200466  200463       6  200469  200463       6
  200469  200466       7  200475  200472       6  200478  200472       6  200478
  200475       7  200484  200481       6  200487  200481       6  200487  200484
       7  200493  200490       6  200496  200490       6  200496  200493       7
  200502  200499       6  200505  200499       6  200505  200502       7  200511
  200508       6  200514  200508       6  200514  200511       7  200520  200517
       6  200523  200517       6  200523  200520       7  200529  200526       6
  200532  200526       6  200532  200529       7  200538  200535       6  200541
  200535       6  200541  200538       7  200547  200544       6  200550  200544
       6  200550  200547       7  200556  200553       6  200559  200553       6
  200559  200556       7  200565  200562       6  200568  200562       6  200568
  200565       7  200574  200571       6  200577  200571       6  200577  200574
       7  200583  200580       6  200586  200580       6  200586  200583       7
  200592  200589       6  200595  200589       6  200595  200592       7  200601
  200598       6  200604  200598       6  200604  200601       7  200610  200607
       6  200613  200607       6  200613  200610       7  200619  200616       6
  200622  200616       6  200622  200619       7  200628  200625       6  200631
  200625       6  200631  200628       7  200637  200634       6  200640  200634
       6  200640  200637       7  200646  200643       6  200649  200643       6
  200649  200646       7  200655  200652       6  200658  200652       6  200658
  200655       7  200664  200661       6  200667  200661       6  200667  200664
       7  200673  200670       6  200676  200670       6  200676  200673       7
  200682  200679       6  200685  200679       6  200685  200682       7  200691
  200688       6  200694  200688       6  200694  200691       7  200700  200697
       6  200703  200697       6  200703  200700       7  200709  200706       6
  200712  200706       6  200712  200709       7  200718  200715       6  200721
  200715       6  200721  200718       7  200727  200724       6  200730  200724
       6  200730  200727       7  200736  200733       6  200739  200733       6
  200739  200736       7  200745  200742       6  200748  200742       6  200748
  200745       7  200754  200751       6  200757  200751       6  200757  200754
       7  200763  200760       6  200766  200760       6  200766  200763       7
  200772  200769       6  200775  200769       6  200775  200772       7  200781
  200778       6  200784  200778       6  200784  200781       7  200790  200787
       6  200793  200787       6  200793  200790       7  200799  200796       6
  200802  200796       6  200802  200799       7  200808  200805       6  200811
  200805       6  200811  200808       7  200817  200814       6  200820  200814
       6  200820  200817       7  200826  200823       6  200829  200823       6
  200829  200826       7  200835  200832       6  200838  200832       6  200838
  200835       7  200844  200841       6  200847  200841       6  200847  200844
       7  200853  200850       6  200856  200850       6  200856  200853       7
  200862  200859       6  200865  200859       6  200865  200862       7  200871
  200868       6  200874  200868       6  200874  200871       7  200880  200877
       6  200883  200877       6  200883  200880       7  200889  200886       6
  200892  200886       6  200892  200889       7  200898  200895       6  200901
  200895       6  200901  200898       7  200907  200904       6  200910  200904
       6  200910  200907       7  200916  200913       6  200919  200913       6
  200919  200916       7  200925  200922       6  200928  200922       6  200928
  200925       7  200934  200931       6  200937  200931       6  200937  200934
       7  200943  200940       6  200946  200940       6  200946  200943       7
  200952  200949       6  200955  200949       6  200955  200952       7  200961
  200958       6  200964  200958       6  200964  200961       7  200970  200967
       6  200973  200967       6  200973  200970       7  200979  200976       6
  200982  200976       6  200982  200979       7  200988  200985       6  200991
  200985       6  200991  200988       7  200997  200994       6  201000  200994
       6  201000  200997       7  201006  201003       6  201009  201003       6
  201009  201006       7  201015  201012       6  201018  201012       6  201018
  201015       7  201024  201021       6  201027  201021       6  201027  201024
       7  201033  201030       6  201036  201030       6  201036  201033       7
  201042  201039       6  201045  201039       6  201045  201042       7  201051
  201048       6  201054  201048       6  201054  201051       7  201060  201057
       6  201063  201057       6  201063  201060       7  201069  201066       6
  201072  201066       6  201072  201069       7  201078  201075       6  201081
  201075       6  201081  201078       7  201087  201084       6  201090  201084
       6  201090  201087       7  201096  201093       6  201099  201093       6
  201099  201096       7  201105  201102       6  201108  201102       6  201108
  201105       7  201114  201111       6  201117  201111       6  201117  201114
       7  201123  201120       6  201126  201120       6  201126  201123       7
  201132  201129       6  201135  201129       6  201135  201132       7  201141
  201138       6  201144  201138       6  201144  201141       7  201150  201147
       6  201153  201147       6  201153  201150       7  201159  201156       6
  201162  201156       6  201162  201159       7  201168  201165       6  201171
  201165       6  201171  201168       7  201177  201174       6  201180  201174
       6  201180  201177       7  201186  201183       6  201189  201183       6
  201189  201186       7  201195  201192       6  201198  201192       6  201198
  201195       7  201204  201201       6  201207  201201       6  201207  201204
       7  201213  201210       6  201216  201210       6  201216  201213       7
  201222  201219       6  201225  201219       6  201225  201222       7  201231
  201228       6  201234  201228       6  201234  201231       7  201240  201237
       6  201243  201237       6  201243  201240       7  201249  201246       6
  201252  201246       6  201252  201249       7  201258  201255       6  201261
  201255       6  201261  201258       7  201267  201264       6  201270  201264
       6  201270  201267       7  201276  201273       6  201279  201273       6
  201279  201276       7  201285  201282       6  201288  201282       6  201288
  201285       7  201294  201291       6  201297  201291       6  201297  201294
       7  201303  201300       6  201306  201300       6  201306  201303       7
  201312  201309       6  201315  201309       6  201315  201312       7  201321
  201318       6  201324  201318       6  201324  201321       7  201330  201327
       6  201333  201327       6  201333  201330       7  201339  201336       6
  201342  201336       6  201342  201339       7  201348  201345       6  201351
  201345       6  201351  201348       7  201357  201354       6  201360  201354
       6  201360  201357       7  201366  201363       6  201369  201363       6
  201369  201366       7  201375  201372       6  201378  201372       6  201378
  201375       7  201384  201381       6  201387  201381       6  201387  201384
       7  201393  201390       6  201396  201390       6  201396  201393       7
  201402  201399       6  201405  201399       6  201405  201402       7  201411
  201408       6  201414  201408       6  201414  201411       7  201420  201417
       6  201423  201417       6  201423  201420       7  201429  201426       6
  201432  201426       6  201432  201429       7  201438  201435       6  201441
  201435       6  201441  201438       7  201447  201444       6  201450  201444
       6  201450  201447       7  201456  201453       6  201459  201453       6
  201459  201456       7  201465  201462       6  201468  201462       6  201468
  201465       7  201474  201471       6  201477  201471       6  201477  201474
       7  201483  201480       6  201486  201480       6  201486  201483       7
  201492  201489       6  201495  201489       6  201495  201492       7  201501
  201498       6  201504  201498       6  201504  201501       7  201510  201507
       6  201513  201507       6  201513  201510       7  201519  201516       6
  201522  201516       6  201522  201519       7  201528  201525       6  201531
  201525       6  201531  201528       7  201537  201534       6  201540  201534
       6  201540  201537       7  201546  201543       6  201549  201543       6
  201549  201546       7  201555  201552       6  201558  201552       6  201558
  201555       7  201564  201561       6  201567  201561       6  201567  201564
       7  201573  201570       6  201576  201570       6  201576  201573       7
  201582  201579       6  201585  201579       6  201585  201582       7  201591
  201588       6  201594  201588       6  201594  201591       7  201600  201597
       6  201603  201597       6  201603  201600       7  201609  201606       6
  201612  201606       6  201612  201609       7  201618  201615       6  201621
  201615       6  201621  201618       7  201627  201624       6  201630  201624
       6  201630  201627       7  201636  201633       6  201639  201633       6
  201639  201636       7  201645  201642       6  201648  201642       6  201648
  201645       7  201654  201651       6  201657  201651       6  201657  201654
       7  201663  201660       6  201666  201660       6  201666  201663       7
  201672  201669       6  201675  201669       6  201675  201672       7  201681
  201678       6  201684  201678       6  201684  201681       7  201690  201687
       6  201693  201687       6  201693  201690       7  201699  201696       6
  201702  201696       6  201702  201699       7  201708  201705       6  201711
  201705       6  201711  201708       7  201717  201714       6  201720  201714
       6  201720  201717       7  201726  201723       6  201729  201723       6
  201729  201726       7  201735  201732       6  201738  201732       6  201738
  201735       7  201744  201741       6  201747  201741       6  201747  201744
       7  201753  201750       6  201756  201750       6  201756  201753       7
  201762  201759       6  201765  201759       6  201765  201762       7  201771
  201768       6  201774  201768       6  201774  201771       7  201780  201777
       6  201783  201777       6  201783  201780       7  201789  201786       6
  201792  201786       6  201792  201789       7  201798  201795       6  201801
  201795       6  201801  201798       7  201807  201804       6  201810  201804
       6  201810  201807       7  201816  201813       6  201819  201813       6
  201819  201816       7  201825  201822       6  201828  201822       6  201828
  201825       7  201834  201831       6  201837  201831       6  201837  201834
       7  201843  201840       6  201846  201840       6  201846  201843       7
  201852  201849       6  201855  201849       6  201855  201852       7  201861
  201858       6  201864  201858       6  201864  201861       7  201870  201867
       6  201873  201867       6  201873  201870       7  201879  201876       6
  201882  201876       6  201882  201879       7  201888  201885       6  201891
  201885       6  201891  201888       7  201897  201894       6  201900  201894
       6  201900  201897       7  201906  201903       6  201909  201903       6
  201909  201906       7  201915  201912       6  201918  201912       6  201918
  201915       7  201924  201921       6  201927  201921       6  201927  201924
       7  201933  201930       6  201936  201930       6  201936  201933       7
  201942  201939       6  201945  201939       6  201945  201942       7  201951
  201948       6  201954  201948       6  201954  201951       7  201960  201957
       6  201963  201957       6  201963  201960       7  201969  201966       6
  201972  201966       6  201972  201969       7  201978  201975       6  201981
  201975       6  201981  201978       7  201987  201984       6  201990  201984
       6  201990  201987       7  201996  201993       6  201999  201993       6
  201999  201996       7  202005  202002       6  202008  202002       6  202008
  202005       7  202014  202011       6  202017  202011       6  202017  202014
       7  202023  202020       6  202026  202020       6  202026  202023       7
  202032  202029       6  202035  202029       6  202035  202032       7  202041
  202038       6  202044  202038       6  202044  202041       7  202050  202047
       6  202053  202047       6  202053  202050       7  202059  202056       6
  202062  202056       6  202062  202059       7  202068  202065       6  202071
  202065       6  202071  202068       7  202077  202074       6  202080  202074
       6  202080  202077       7  202086  202083       6  202089  202083       6
  202089  202086       7  202095  202092       6  202098  202092       6  202098
  202095       7  202104  202101       6  202107  202101       6  202107  202104
       7  202113  202110       6  202116  202110       6  202116  202113       7
  202122  202119       6  202125  202119       6  202125  202122       7  202131
  202128       6  202134  202128       6  202134  202131       7  202140  202137
       6  202143  202137       6  202143  202140       7  202149  202146       6
  202152  202146       6  202152  202149       7  202158  202155       6  202161
  202155       6  202161  202158       7  202167  202164       6  202170  202164
       6  202170  202167       7  202176  202173       6  202179  202173       6
  202179  202176       7  202185  202182       6  202188  202182       6  202188
  202185       7  202194  202191       6  202197  202191       6  202197  202194
       7  202203  202200       6  202206  202200       6  202206  202203       7
  202212  202209       6  202215  202209       6  202215  202212       7  202221
  202218       6  202224  202218       6  202224  202221       7  202230  202227
       6  202233  202227       6  202233  202230       7  202239  202236       6
  202242  202236       6  202242  202239       7  202248  202245       6  202251
  202245       6  202251  202248       7  202257  202254       6  202260  202254
       6  202260  202257       7  202266  202263       6  202269  202263       6
  202269  202266       7  202275  202272       6  202278  202272       6  202278
  202275       7  202284  202281       6  202287  202281       6  202287  202284
       7  202293  202290       6  202296  202290       6  202296  202293       7
  202302  202299       6  202305  202299       6  202305  202302       7  202311
  202308       6  202314  202308       6  202314  202311       7  202320  202317
       6  202323  202317       6  202323  202320       7  202329  202326       6
  202332  202326       6  202332  202329       7  202338  202335       6  202341
  202335       6  202341  202338       7  202347  202344       6  202350  202344
       6  202350  202347       7  202356  202353       6  202359  202353       6
  202359  202356       7  202365  202362       6  202368  202362       6  202368
  202365       7  202374  202371       6  202377  202371       6  202377  202374
       7  202383  202380       6  202386  202380       6  202386  202383       7
  202392  202389       6  202395  202389       6  202395  202392       7  202401
  202398       6  202404  202398       6  202404  202401       7  202410  202407
       6  202413  202407       6  202413  202410       7  202419  202416       6
  202422  202416       6  202422  202419       7  202428  202425       6  202431
  202425       6  202431  202428       7  202437  202434       6  202440  202434
       6  202440  202437       7  202446  202443       6  202449  202443       6
  202449  202446       7  202455  202452       6  202458  202452       6  202458
  202455       7  202464  202461       6  202467  202461       6  202467  202464
       7  202473  202470       6  202476  202470       6  202476  202473       7
  202482  202479       6  202485  202479       6  202485  202482       7  202491
  202488       6  202494  202488       6  202494  202491       7  202500  202497
       6  202503  202497       6  202503  202500       7  202509  202506       6
  202512  202506       6  202512  202509       7  202518  202515       6  202521
  202515       6  202521  202518       7  202527  202524       6  202530  202524
       6  202530  202527       7  202536  202533       6  202539  202533       6
  202539  202536       7  202545  202542       6  202548  202542       6  202548
  202545       7  202554  202551       6  202557  202551       6  202557  202554
       7  202563  202560       6  202566  202560       6  202566  202563       7
  202572  202569       6  202575  202569       6  202575  202572       7  202581
  202578       6  202584  202578       6  202584  202581       7  202590  202587
       6  202593  202587       6  202593  202590       7  202599  202596       6
  202602  202596       6  202602  202599       7  202608  202605       6  202611
  202605       6  202611  202608       7  202617  202614       6  202620  202614
       6  202620  202617       7  202626  202623       6  202629  202623       6
  202629  202626       7  202635  202632       6  202638  202632       6  202638
  202635       7  202644  202641       6  202647  202641       6  202647  202644
       7  202653  202650       6  202656  202650       6  202656  202653       7
  202662  202659       6  202665  202659       6  202665  202662       7  202671
  202668       6  202674  202668       6  202674  202671       7  202680  202677
       6  202683  202677       6  202683  202680       7  202689  202686       6
  202692  202686       6  202692  202689       7  202698  202695       6  202701
  202695       6  202701  202698       7  202707  202704       6  202710  202704
       6  202710  202707       7  202716  202713       6  202719  202713       6
  202719  202716       7  202725  202722       6  202728  202722       6  202728
  202725       7  202734  202731       6  202737  202731       6  202737  202734
       7  202743  202740       6  202746  202740       6  202746  202743       7
  202752  202749       6  202755  202749       6  202755  202752       7  202761
  202758       6  202764  202758       6  202764  202761       7  202770  202767
       6  202773  202767       6  202773  202770       7  202779  202776       6
  202782  202776       6  202782  202779       7  202788  202785       6  202791
  202785       6  202791  202788       7  202797  202794       6  202800  202794
       6  202800  202797       7  202806  202803       6  202809  202803       6
  202809  202806       7  202815  202812       6  202818  202812       6  202818
  202815       7  202824  202821       6  202827  202821       6  202827  202824
       7  202833  202830       6  202836  202830       6  202836  202833       7
  202842  202839       6  202845  202839       6  202845  202842       7  202851
  202848       6  202854  202848       6  202854  202851       7  202860  202857
       6  202863  202857       6  202863  202860       7  202869  202866       6
  202872  202866       6  202872  202869       7  202878  202875       6  202881
  202875       6  202881  202878       7  202887  202884       6  202890  202884
       6  202890  202887       7  202896  202893       6  202899  202893       6
  202899  202896       7  202905  202902       6  202908  202902       6  202908
  202905       7  202914  202911       6  202917  202911       6  202917  202914
       7  202923  202920       6  202926  202920       6  202926  202923       7
  202932  202929       6  202935  202929       6  202935  202932       7  202941
  202938       6  202944  202938       6  202944  202941       7  202950  202947
       6  202953  202947       6  202953  202950       7  202959  202956       6
  202962  202956       6  202962  202959       7  202968  202965       6  202971
  202965       6  202971  202968       7  202977  202974       6  202980  202974
       6  202980  202977       7  202986  202983       6  202989  202983       6
  202989  202986       7  202995  202992       6  202998  202992       6  202998
  202995       7  203004  203001       6  203007  203001       6  203007  203004
       7  203013  203010       6  203016  203010       6  203016  203013       7
  203022  203019       6  203025  203019       6  203025  203022       7  203031
  203028       6  203034  203028       6  203034  203031       7  203040  203037
       6  203043  203037       6  203043  203040       7  203049  203046       6
  203052  203046       6  203052  203049       7  203058  203055       6  203061
  203055       6  203061  203058       7  203067  203064       6  203070  203064
       6  203070  203067       7  203076  203073       6  203079  203073       6
  203079  203076       7  203085  203082       6  203088  203082       6  203088
  203085       7  203094  203091       6  203097  203091       6  203097  203094
       7  203103  203100       6  203106  203100       6  203106  203103       7
  203112  203109       6  203115  203109       6  203115  203112       7  203121
  203118       6  203124  203118       6  203124  203121       7  203130  203127
       6  203133  203127       6  203133  203130       7  203139  203136       6
  203142  203136       6  203142  203139       7  203148  203145       6  203151
  203145       6  203151  203148       7  203157  203154       6  203160  203154
       6  203160  203157       7  203166  203163       6  203169  203163       6
  203169  203166       7  203175  203172       6  203178  203172       6  203178
  203175       7  203184  203181       6  203187  203181       6  203187  203184
       7  203193  203190       6  203196  203190       6  203196  203193       7
  203202  203199       6  203205  203199       6  203205  203202       7  203211
  203208       6  203214  203208       6  203214  203211       7  203220  203217
       6  203223  203217       6  203223  203220       7  203229  203226       6
  203232  203226       6  203232  203229       7  203238  203235       6  203241
  203235       6  203241  203238       7  203247  203244       6  203250  203244
       6  203250  203247       7  203256  203253       6  203259  203253       6
  203259  203256       7  203265  203262       6  203268  203262       6  203268
  203265       7  203274  203271       6  203277  203271       6  203277  203274
       7  203283  203280       6  203286  203280       6  203286  203283       7
  203292  203289       6  203295  203289       6  203295  203292       7  203301
  203298       6  203304  203298       6  203304  203301       7  203310  203307
       6  203313  203307       6  203313  203310       7  203319  203316       6
  203322  203316       6  203322  203319       7  203328  203325       6  203331
  203325       6  203331  203328       7  203337  203334       6  203340  203334
       6  203340  203337       7  203346  203343       6  203349  203343       6
  203349  203346       7  203355  203352       6  203358  203352       6  203358
  203355       7  203364  203361       6  203367  203361       6  203367  203364
       7  203373  203370       6  203376  203370       6  203376  203373       7
  203382  203379       6  203385  203379       6  203385  203382       7  203391
  203388       6  203394  203388       6  203394  203391       7  203400  203397
       6  203403  203397       6  203403  203400       7  203409  203406       6
  203412  203406       6  203412  203409       7  203418  203415       6  203421
  203415       6  203421  203418       7  203427  203424       6  203430  203424
       6  203430  203427       7  203436  203433       6  203439  203433       6
  203439  203436       7  203445  203442       6  203448  203442       6  203448
  203445       7  203454  203451       6  203457  203451       6  203457  203454
       7  203463  203460       6  203466  203460       6  203466  203463       7
  203472  203469       6  203475  203469       6  203475  203472       7  203481
  203478       6  203484  203478       6  203484  203481       7  203490  203487
       6  203493  203487       6  203493  203490       7  203499  203496       6
  203502  203496       6  203502  203499       7  203508  203505       6  203511
  203505       6  203511  203508       7  203517  203514       6  203520  203514
       6  203520  203517       7  203526  203523       6  203529  203523       6
  203529  203526       7  203535  203532       6  203538  203532       6  203538
  203535       7  203544  203541       6  203547  203541       6  203547  203544
       7  203553  203550       6  203556  203550       6  203556  203553       7
  203562  203559       6  203565  203559       6  203565  203562       7  203571
  203568       6  203574  203568       6  203574  203571       7  203580  203577
       6  203583  203577       6  203583  203580       7  203589  203586       6
  203592  203586       6  203592  203589       7  203598  203595       6  203601
  203595       6  203601  203598       7  203607  203604       6  203610  203604
       6  203610  203607       7  203616  203613       6  203619  203613       6
  203619  203616       7  203625  203622       6  203628  203622       6  203628
  203625       7  203634  203631       6  203637  203631       6  203637  203634
       7  203643  203640       6  203646  203640       6  203646  203643       7
  203652  203649       6  203655  203649       6  203655  203652       7  203661
  203658       6  203664  203658       6  203664  203661       7  203670  203667
       6  203673  203667       6  203673  203670       7  203679  203676       6
  203682  203676       6  203682  203679       7  203688  203685       6  203691
  203685       6  203691  203688       7  203697  203694       6  203700  203694
       6  203700  203697       7  203706  203703       6  203709  203703       6
  203709  203706       7  203715  203712       6  203718  203712       6  203718
  203715       7  203724  203721       6  203727  203721       6  203727  203724
       7  203733  203730       6  203736  203730       6  203736  203733       7
  203742  203739       6  203745  203739       6  203745  203742       7  203751
  203748       6  203754  203748       6  203754  203751       7  203760  203757
       6  203763  203757       6  203763  203760       7  203769  203766       6
  203772  203766       6  203772  203769       7  203778  203775       6  203781
  203775       6  203781  203778       7  203787  203784       6  203790  203784
       6  203790  203787       7  203796  203793       6  203799  203793       6
  203799  203796       7  203805  203802       6  203808  203802       6  203808
  203805       7  203814  203811       6  203817  203811       6  203817  203814
       7  203823  203820       6  203826  203820       6  203826  203823       7
  203832  203829       6  203835  203829       6  203835  203832       7  203841
  203838       6  203844  203838       6  203844  203841       7  203850  203847
       6  203853  203847       6  203853  203850       7  203859  203856       6
  203862  203856       6  203862  203859       7  203868  203865       6  203871
  203865       6  203871  203868       7  203877  203874       6  203880  203874
       6  203880  203877       7  203886  203883       6  203889  203883       6
  203889  203886       7  203895  203892       6  203898  203892       6  203898
  203895       7  203904  203901       6  203907  203901       6  203907  203904
       7  203913  203910       6  203916  203910       6  203916  203913       7
  203922  203919       6  203925  203919       6  203925  203922       7  203931
  203928       6  203934  203928       6  203934  203931       7  203940  203937
       6  203943  203937       6  203943  203940       7  203949  203946       6
  203952  203946       6  203952  203949       7  203958  203955       6  203961
  203955       6  203961  203958       7  203967  203964       6  203970  203964
       6  203970  203967       7  203976  203973       6  203979  203973       6
  203979  203976       7  203985  203982       6  203988  203982       6  203988
  203985       7  203994  203991       6  203997  203991       6  203997  203994
       7  204003  204000       6  204006  204000       6  204006  204003       7
  204012  204009       6  204015  204009       6  204015  204012       7  204021
  204018       6  204024  204018       6  204024  204021       7  204030  204027
       6  204033  204027       6  204033  204030       7  204039  204036       6
  204042  204036       6  204042  204039       7  204048  204045       6  204051
  204045       6  204051  204048       7  204057  204054       6  204060  204054
       6  204060  204057       7  204066  204063       6  204069  204063       6
  204069  204066       7  204075  204072       6  204078  204072       6  204078
  204075       7  204084  204081       6  204087  204081       6  204087  204084
       7  204093  204090       6  204096  204090       6  204096  204093       7
  204102  204099       6  204105  204099       6  204105  204102       7  204111
  204108       6  204114  204108       6  204114  204111       7  204120  204117
       6  204123  204117       6  204123  204120       7  204129  204126       6
  204132  204126       6  204132  204129       7  204138  204135       6  204141
  204135       6  204141  204138       7  204147  204144       6  204150  204144
       6  204150  204147       7  204156  204153       6  204159  204153       6
  204159  204156       7  204165  204162       6  204168  204162       6  204168
  204165       7  204174  204171       6  204177  204171       6  204177  204174
       7  204183  204180       6  204186  204180       6  204186  204183       7
  204192  204189       6  204195  204189       6  204195  204192       7  204201
  204198       6  204204  204198       6  204204  204201       7  204210  204207
       6  204213  204207       6  204213  204210       7  204219  204216       6
  204222  204216       6  204222  204219       7  204228  204225       6  204231
  204225       6  204231  204228       7  204237  204234       6  204240  204234
       6  204240  204237       7  204246  204243       6  204249  204243       6
  204249  204246       7  204255  204252       6  204258  204252       6  204258
  204255       7  204264  204261       6  204267  204261       6  204267  204264
       7  204273  204270       6  204276  204270       6  204276  204273       7
  204282  204279       6  204285  204279       6  204285  204282       7  204291
  204288       6  204294  204288       6  204294  204291       7  204300  204297
       6  204303  204297       6  204303  204300       7  204309  204306       6
  204312  204306       6  204312  204309       7  204318  204315       6  204321
  204315       6  204321  204318       7  204327  204324       6  204330  204324
       6  204330  204327       7  204336  204333       6  204339  204333       6
  204339  204336       7  204345  204342       6  204348  204342       6  204348
  204345       7  204354  204351       6  204357  204351       6  204357  204354
       7  204363  204360       6  204366  204360       6  204366  204363       7
  204372  204369       6  204375  204369       6  204375  204372       7  204381
  204378       6  204384  204378       6  204384  204381       7  204390  204387
       6  204393  204387       6  204393  204390       7  204399  204396       6
  204402  204396       6  204402  204399       7  204408  204405       6  204411
  204405       6  204411  204408       7  204417  204414       6  204420  204414
       6  204420  204417       7  204426  204423       6  204429  204423       6
  204429  204426       7  204435  204432       6  204438  204432       6  204438
  204435       7  204444  204441       6  204447  204441       6  204447  204444
       7  204453  204450       6  204456  204450       6  204456  204453       7
  204462  204459       6  204465  204459       6  204465  204462       7  204471
  204468       6  204474  204468       6  204474  204471       7  204480  204477
       6  204483  204477       6  204483  204480       7  204489  204486       6
  204492  204486       6  204492  204489       7  204498  204495       6  204501
  204495       6  204501  204498       7  204507  204504       6  204510  204504
       6  204510  204507       7  204516  204513       6  204519  204513       6
  204519  204516       7  204525  204522       6  204528  204522       6  204528
  204525       7  204534  204531       6  204537  204531       6  204537  204534
       7  204543  204540       6  204546  204540       6  204546  204543       7
  204552  204549       6  204555  204549       6  204555  204552       7  204561
  204558       6  204564  204558       6  204564  204561       7  204570  204567
       6  204573  204567       6  204573  204570       7  204579  204576       6
  204582  204576       6  204582  204579       7  204588  204585       6  204591
  204585       6  204591  204588       7  204597  204594       6  204600  204594
       6  204600  204597       7  204606  204603       6  204609  204603       6
  204609  204606       7  204615  204612       6  204618  204612       6  204618
  204615       7  204624  204621       6  204627  204621       6  204627  204624
       7  204633  204630       6  204636  204630       6  204636  204633       7
  204642  204639       6  204645  204639       6  204645  204642       7  204651
  204648       6  204654  204648       6  204654  204651       7  204660  204657
       6  204663  204657       6  204663  204660       7  204669  204666       6
  204672  204666       6  204672  204669       7  204678  204675       6  204681
  204675       6  204681  204678       7  204687  204684       6  204690  204684
       6  204690  204687       7  204696  204693       6  204699  204693       6
  204699  204696       7  204705  204702       6  204708  204702       6  204708
  204705       7  204714  204711       6  204717  204711       6  204717  204714
       7  204723  204720       6  204726  204720       6  204726  204723       7
  204732  204729       6  204735  204729       6  204735  204732       7  204741
  204738       6  204744  204738       6  204744  204741       7  204750  204747
       6  204753  204747       6  204753  204750       7  204759  204756       6
  204762  204756       6  204762  204759       7  204768  204765       6  204771
  204765       6  204771  204768       7  204777  204774       6  204780  204774
       6  204780  204777       7  204786  204783       6  204789  204783       6
  204789  204786       7  204795  204792       6  204798  204792       6  204798
  204795       7  204804  204801       6  204807  204801       6  204807  204804
       7  204813  204810       6  204816  204810       6  204816  204813       7
  204822  204819       6  204825  204819       6  204825  204822       7  204831
  204828       6  204834  204828       6  204834  204831       7  204840  204837
       6  204843  204837       6  204843  204840       7  204849  204846       6
  204852  204846       6  204852  204849       7  204858  204855       6  204861
  204855       6  204861  204858       7  204867  204864       6  204870  204864
       6  204870  204867       7  204876  204873       6  204879  204873       6
  204879  204876       7  204885  204882       6  204888  204882       6  204888
  204885       7  204894  204891       6  204897  204891       6  204897  204894
       7  204903  204900       6  204906  204900       6  204906  204903       7
  204912  204909       6  204915  204909       6  204915  204912       7  204921
  204918       6  204924  204918       6  204924  204921       7  204930  204927
       6  204933  204927       6  204933  204930       7  204939  204936       6
  204942  204936       6  204942  204939       7  204948  204945       6  204951
  204945       6  204951  204948       7  204957  204954       6  204960  204954
       6  204960  204957       7  204966  204963       6  204969  204963       6
  204969  204966       7  204975  204972       6  204978  204972       6  204978
  204975       7  204984  204981       6  204987  204981       6  204987  204984
       7  204993  204990       6  204996  204990       6  204996  204993       7
  205002  204999       6  205005  204999       6  205005  205002       7  205011
  205008       6  205014  205008       6  205014  205011       7  205020  205017
       6  205023  205017       6  205023  205020       7  205029  205026       6
  205032  205026       6  205032  205029       7  205038  205035       6  205041
  205035       6  205041  205038       7  205047  205044       6  205050  205044
       6  205050  205047       7  205056  205053       6  205059  205053       6
  205059  205056       7  205065  205062       6  205068  205062       6  205068
  205065       7  205074  205071       6  205077  205071       6  205077  205074
       7  205083  205080       6  205086  205080       6  205086  205083       7
  205092  205089       6  205095  205089       6  205095  205092       7  205101
  205098       6  205104  205098       6  205104  205101       7  205110  205107
       6  205113  205107       6  205113  205110       7  205119  205116       6
  205122  205116       6  205122  205119       7  205128  205125       6  205131
  205125       6  205131  205128       7  205137  205134       6  205140  205134
       6  205140  205137       7  205146  205143       6  205149  205143       6
  205149  205146       7  205155  205152       6  205158  205152       6  205158
  205155       7  205164  205161       6  205167  205161       6  205167  205164
       7  205173  205170       6  205176  205170       6  205176  205173       7
  205182  205179       6  205185  205179       6  205185  205182       7  205191
  205188       6  205194  205188       6  205194  205191       7  205200  205197
       6  205203  205197       6  205203  205200       7  205209  205206       6
  205212  205206       6  205212  205209       7  205218  205215       6  205221
  205215       6  205221  205218       7  205227  205224       6  205230  205224
       6  205230  205227       7  205236  205233       6  205239  205233       6
  205239  205236       7  205245  205242       6  205248  205242       6  205248
  205245       7  205254  205251       6  205257  205251       6  205257  205254
       7  205263  205260       6  205266  205260       6  205266  205263       7
  205272  205269       6  205275  205269       6  205275  205272       7  205281
  205278       6  205284  205278       6  205284  205281       7  205290  205287
       6  205293  205287       6  205293  205290       7  205299  205296       6
  205302  205296       6  205302  205299       7  205308  205305       6  205311
  205305       6  205311  205308       7  205317  205314       6  205320  205314
       6  205320  205317       7  205326  205323       6  205329  205323       6
  205329  205326       7  205335  205332       6  205338  205332       6  205338
  205335       7  205344  205341       6  205347  205341       6  205347  205344
       7  205353  205350       6  205356  205350       6  205356  205353       7
  205362  205359       6  205365  205359       6  205365  205362       7  205371
  205368       6  205374  205368       6  205374  205371       7  205380  205377
       6  205383  205377       6  205383  205380       7  205389  205386       6
  205392  205386       6  205392  205389       7  205398  205395       6  205401
  205395       6  205401  205398       7  205407  205404       6  205410  205404
       6  205410  205407       7  205416  205413       6  205419  205413       6
  205419  205416       7  205425  205422       6  205428  205422       6  205428
  205425       7  205434  205431       6  205437  205431       6  205437  205434
       7  205443  205440       6  205446  205440       6  205446  205443       7
  205452  205449       6  205455  205449       6  205455  205452       7  205461
  205458       6  205464  205458       6  205464  205461       7  205470  205467
       6  205473  205467       6  205473  205470       7  205479  205476       6
  205482  205476       6  205482  205479       7  205488  205485       6  205491
  205485       6  205491  205488       7  205497  205494       6  205500  205494
       6  205500  205497       7  205506  205503       6  205509  205503       6
  205509  205506       7  205515  205512       6  205518  205512       6  205518
  205515       7  205524  205521       6  205527  205521       6  205527  205524
       7  205533  205530       6  205536  205530       6  205536  205533       7
  205542  205539       6  205545  205539       6  205545  205542       7  205551
  205548       6  205554  205548       6  205554  205551       7  205560  205557
       6  205563  205557       6  205563  205560       7  205569  205566       6
  205572  205566       6  205572  205569       7  205578  205575       6  205581
  205575       6  205581  205578       7  205587  205584       6  205590  205584
       6  205590  205587       7  205596  205593       6  205599  205593       6
  205599  205596       7  205605  205602       6  205608  205602       6  205608
  205605       7  205614  205611       6  205617  205611       6  205617  205614
       7  205623  205620       6  205626  205620       6  205626  205623       7
  205632  205629       6  205635  205629       6  205635  205632       7  205641
  205638       6  205644  205638       6  205644  205641       7  205650  205647
       6  205653  205647       6  205653  205650       7  205659  205656       6
  205662  205656       6  205662  205659       7  205668  205665       6  205671
  205665       6  205671  205668       7  205677  205674       6  205680  205674
       6  205680  205677       7  205686  205683       6  205689  205683       6
  205689  205686       7  205695  205692       6  205698  205692       6  205698
  205695       7  205704  205701       6  205707  205701       6  205707  205704
       7  205713  205710       6  205716  205710       6  205716  205713       7
  205722  205719       6  205725  205719       6  205725  205722       7  205731
  205728       6  205734  205728       6  205734  205731       7  205740  205737
       6  205743  205737       6  205743  205740       7  205749  205746       6
  205752  205746       6  205752  205749       7  205758  205755       6  205761
  205755       6  205761  205758       7  205767  205764       6  205770  205764
       6  205770  205767       7  205776  205773       6  205779  205773       6
  205779  205776       7  205785  205782       6  205788  205782       6  205788
  205785       7  205794  205791       6  205797  205791       6  205797  205794
       7  205803  205800       6  205806  205800       6  205806  205803       7
  205812  205809       6  205815  205809       6  205815  205812       7  205821
  205818       6  205824  205818       6  205824  205821       7  205830  205827
       6  205833  205827       6  205833  205830       7  205839  205836       6
  205842  205836       6  205842  205839       7  205848  205845       6  205851
  205845       6  205851  205848       7  205857  205854       6  205860  205854
       6  205860  205857       7  205866  205863       6  205869  205863       6
  205869  205866       7  205875  205872       6  205878  205872       6  205878
  205875       7  205884  205881       6  205887  205881       6  205887  205884
       7  205893  205890       6  205896  205890       6  205896  205893       7
  205902  205899       6  205905  205899       6  205905  205902       7  205911
  205908       6  205914  205908       6  205914  205911       7  205920  205917
       6  205923  205917       6  205923  205920       7  205929  205926       6
  205932  205926       6  205932  205929       7  205938  205935       6  205941
  205935       6  205941  205938       7  205947  205944       6  205950  205944
       6  205950  205947       7  205956  205953       6  205959  205953       6
  205959  205956       7  205965  205962       6  205968  205962       6  205968
  205965       7  205974  205971       6  205977  205971       6  205977  205974
       7  205983  205980       6  205986  205980       6  205986  205983       7
  205992  205989       6  205995  205989       6  205995  205992       7  206001
  205998       6  206004  205998       6  206004  206001       7  206010  206007
       6  206013  206007       6  206013  206010       7  206019  206016       6
  206022  206016       6  206022  206019       7  206028  206025       6  206031
  206025       6  206031  206028       7  206037  206034       6  206040  206034
       6  206040  206037       7  206046  206043       6  206049  206043       6
  206049  206046       7  206055  206052       6  206058  206052       6  206058
  206055       7  206064  206061       6  206067  206061       6  206067  206064
       7  206073  206070       6  206076  206070       6  206076  206073       7
  206082  206079       6  206085  206079       6  206085  206082       7  206091
  206088       6  206094  206088       6  206094  206091       7  206100  206097
       6  206103  206097       6  206103  206100       7  206109  206106       6
  206112  206106       6  206112  206109       7  206118  206115       6  206121
  206115       6  206121  206118       7  206127  206124       6  206130  206124
       6  206130  206127       7  206136  206133       6  206139  206133       6
  206139  206136       7  206145  206142       6  206148  206142       6  206148
  206145       7  206154  206151       6  206157  206151       6  206157  206154
       7  206163  206160       6  206166  206160       6  206166  206163       7
  206172  206169       6  206175  206169       6  206175  206172       7  206181
  206178       6  206184  206178       6  206184  206181       7  206190  206187
       6  206193  206187       6  206193  206190       7  206199  206196       6
  206202  206196       6  206202  206199       7  206208  206205       6  206211
  206205       6  206211  206208       7  206217  206214       6  206220  206214
       6  206220  206217       7  206226  206223       6  206229  206223       6
  206229  206226       7  206235  206232       6  206238  206232       6  206238
  206235       7  206244  206241       6  206247  206241       6  206247  206244
       7  206253  206250       6  206256  206250       6  206256  206253       7
  206262  206259       6  206265  206259       6  206265  206262       7  206271
  206268       6  206274  206268       6  206274  206271       7  206280  206277
       6  206283  206277       6  206283  206280       7  206289  206286       6
  206292  206286       6  206292  206289       7  206298  206295       6  206301
  206295       6  206301  206298       7  206307  206304       6  206310  206304
       6  206310  206307       7  206316  206313       6  206319  206313       6
  206319  206316       7  206325  206322       6  206328  206322       6  206328
  206325       7  206334  206331       6  206337  206331       6  206337  206334
       7  206343  206340       6  206346  206340       6  206346  206343       7
  206352  206349       6  206355  206349       6  206355  206352       7  206361
  206358       6  206364  206358       6  206364  206361       7  206370  206367
       6  206373  206367       6  206373  206370       7  206379  206376       6
  206382  206376       6  206382  206379       7  206388  206385       6  206391
  206385       6  206391  206388       7  206397  206394       6  206400  206394
       6  206400  206397       7  206406  206403       6  206409  206403       6
  206409  206406       7  206415  206412       6  206418  206412       6  206418
  206415       7  206424  206421       6  206427  206421       6  206427  206424
       7  206433  206430       6  206436  206430       6  206436  206433       7
  206442  206439       6  206445  206439       6  206445  206442       7  206451
  206448       6  206454  206448       6  206454  206451       7  206460  206457
       6  206463  206457       6  206463  206460       7  206469  206466       6
  206472  206466       6  206472  206469       7  206478  206475       6  206481
  206475       6  206481  206478       7  206487  206484       6  206490  206484
       6  206490  206487       7  206496  206493       6  206499  206493       6
  206499  206496       7  206505  206502       6  206508  206502       6  206508
  206505       7  206514  206511       6  206517  206511       6  206517  206514
       7  206523  206520       6  206526  206520       6  206526  206523       7
  206532  206529       6  206535  206529       6  206535  206532       7  206541
  206538       6  206544  206538       6  206544  206541       7  206550  206547
       6  206553  206547       6  206553  206550       7  206559  206556       6
  206562  206556       6  206562  206559       7  206568  206565       6  206571
  206565       6  206571  206568       7  206577  206574       6  206580  206574
       6  206580  206577       7  206586  206583       6  206589  206583       6
  206589  206586       7  206595  206592       6  206598  206592       6  206598
  206595       7  206604  206601       6  206607  206601       6  206607  206604
       7  206613  206610       6  206616  206610       6  206616  206613       7
  206622  206619       6  206625  206619       6  206625  206622       7  206631
  206628       6  206634  206628       6  206634  206631       7  206640  206637
       6  206643  206637       6  206643  206640       7  206649  206646       6
  206652  206646       6  206652  206649       7  206658  206655       6  206661
  206655       6  206661  206658       7  206667  206664       6  206670  206664
       6  206670  206667       7  206676  206673       6  206679  206673       6
  206679  206676       7  206685  206682       6  206688  206682       6  206688
  206685       7  206694  206691       6  206697  206691       6  206697  206694
       7  206703  206700       6  206706  206700       6  206706  206703       7
  206712  206709       6  206715  206709       6  206715  206712       7  206721
  206718       6  206724  206718       6  206724  206721       7  206730  206727
       6  206733  206727       6  206733  206730       7  206739  206736       6
  206742  206736       6  206742  206739       7  206748  206745       6  206751
  206745       6  206751  206748       7  206757  206754       6  206760  206754
       6  206760  206757       7  206766  206763       6  206769  206763       6
  206769  206766       7  206775  206772       6  206778  206772       6  206778
  206775       7  206784  206781       6  206787  206781       6  206787  206784
       7  206793  206790       6  206796  206790       6  206796  206793       7
  206802  206799       6  206805  206799       6  206805  206802       7  206811
  206808       6  206814  206808       6  206814  206811       7  206820  206817
       6  206823  206817       6  206823  206820       7  206829  206826       6
  206832  206826       6  206832  206829       7  206838  206835       6  206841
  206835       6  206841  206838       7  206847  206844       6  206850  206844
       6  206850  206847       7  206856  206853       6  206859  206853       6
  206859  206856       7  206865  206862       6  206868  206862       6  206868
  206865       7  206874  206871       6  206877  206871       6  206877  206874
       7  206883  206880       6  206886  206880       6  206886  206883       7
  206892  206889       6  206895  206889       6  206895  206892       7  206901
  206898       6  206904  206898       6  206904  206901       7  206910  206907
       6  206913  206907       6  206913  206910       7  206919  206916       6
  206922  206916       6  206922  206919       7  206928  206925       6  206931
  206925       6  206931  206928       7  206937  206934       6  206940  206934
       6  206940  206937       7  206946  206943       6  206949  206943       6
  206949  206946       7  206955  206952       6  206958  206952       6  206958
  206955       7  206964  206961       6  206967  206961       6  206967  206964
       7  206973  206970       6  206976  206970       6  206976  206973       7
  206982  206979       6  206985  206979       6  206985  206982       7  206991
  206988       6  206994  206988       6  206994  206991       7  207000  206997
       6  207003  206997       6  207003  207000       7  207009  207006       6
  207012  207006       6  207012  207009       7  207018  207015       6  207021
  207015       6  207021  207018       7  207027  207024       6  207030  207024
       6  207030  207027       7  207036  207033       6  207039  207033       6
  207039  207036       7  207045  207042       6  207048  207042       6  207048
  207045       7  207054  207051       6  207057  207051       6  207057  207054
       7  207063  207060       6  207066  207060       6  207066  207063       7
  207072  207069       6  207075  207069       6  207075  207072       7  207081
  207078       6  207084  207078       6  207084  207081       7  207090  207087
       6  207093  207087       6  207093  207090       7  207099  207096       6
  207102  207096       6  207102  207099       7  207108  207105       6  207111
  207105       6  207111  207108       7  207117  207114       6  207120  207114
       6  207120  207117       7  207126  207123       6  207129  207123       6
  207129  207126       7  207135  207132       6  207138  207132       6  207138
  207135       7  207144  207141       6  207147  207141       6  207147  207144
       7  207153  207150       6  207156  207150       6  207156  207153       7
  207162  207159       6  207165  207159       6  207165  207162       7  207171
  207168       6  207174  207168       6  207174  207171       7  207180  207177
       6  207183  207177       6  207183  207180       7  207189  207186       6
  207192  207186       6  207192  207189       7  207198  207195       6  207201
  207195       6  207201  207198       7  207207  207204       6  207210  207204
       6  207210  207207       7  207216  207213       6  207219  207213       6
  207219  207216       7  207225  207222       6  207228  207222       6  207228
  207225       7  207234  207231       6  207237  207231       6  207237  207234
       7  207243  207240       6  207246  207240       6  207246  207243       7
  207252  207249       6  207255  207249       6  207255  207252       7  207261
  207258       6  207264  207258       6  207264  207261       7  207270  207267
       6  207273  207267       6  207273  207270       7  207279  207276       6
  207282  207276       6  207282  207279       7  207288  207285       6  207291
  207285       6  207291  207288       7  207297  207294       6  207300  207294
       6  207300  207297       7  207306  207303       6  207309  207303       6
  207309  207306       7  207315  207312       6  207318  207312       6  207318
  207315       7  207324  207321       6  207327  207321       6  207327  207324
       7  207333  207330       6  207336  207330       6  207336  207333       7
  207342  207339       6  207345  207339       6  207345  207342       7  207351
  207348       6  207354  207348       6  207354  207351       7  207360  207357
       6  207363  207357       6  207363  207360       7  207369  207366       6
  207372  207366       6  207372  207369       7  207378  207375       6  207381
  207375       6  207381  207378       7  207387  207384       6  207390  207384
       6  207390  207387       7  207396  207393       6  207399  207393       6
  207399  207396       7  207405  207402       6  207408  207402       6  207408
  207405       7  207414  207411       6  207417  207411       6  207417  207414
       7  207423  207420       6  207426  207420       6  207426  207423       7
  207432  207429       6  207435  207429       6  207435  207432       7  207441
  207438       6  207444  207438       6  207444  207441       7  207450  207447
       6  207453  207447       6  207453  207450       7  207459  207456       6
  207462  207456       6  207462  207459       7  207468  207465       6  207471
  207465       6  207471  207468       7  207477  207474       6  207480  207474
       6  207480  207477       7  207486  207483       6  207489  207483       6
  207489  207486       7  207495  207492       6  207498  207492       6  207498
  207495       7  207504  207501       6  207507  207501       6  207507  207504
       7  207513  207510       6  207516  207510       6  207516  207513       7
  207522  207519       6  207525  207519       6  207525  207522       7  207531
  207528       6  207534  207528       6  207534  207531       7  207540  207537
       6  207543  207537       6  207543  207540       7  207549  207546       6
  207552  207546       6  207552  207549       7  207558  207555       6  207561
  207555       6  207561  207558       7  207567  207564       6  207570  207564
       6  207570  207567       7  207576  207573       6  207579  207573       6
  207579  207576       7  207585  207582       6  207588  207582       6  207588
  207585       7  207594  207591       6  207597  207591       6  207597  207594
       7  207603  207600       6  207606  207600       6  207606  207603       7
  207612  207609       6  207615  207609       6  207615  207612       7  207621
  207618       6  207624  207618       6  207624  207621       7  207630  207627
       6  207633  207627       6  207633  207630       7  207639  207636       6
  207642  207636       6  207642  207639       7  207648  207645       6  207651
  207645       6  207651  207648       7  207657  207654       6  207660  207654
       6  207660  207657       7  207666  207663       6  207669  207663       6
  207669  207666       7  207675  207672       6  207678  207672       6  207678
  207675       7  207684  207681       6  207687  207681       6  207687  207684
       7  207693  207690       6  207696  207690       6  207696  207693       7
  207702  207699       6  207705  207699       6  207705  207702       7  207711
  207708       6  207714  207708       6  207714  207711       7  207720  207717
       6  207723  207717       6  207723  207720       7  207729  207726       6
  207732  207726       6  207732  207729       7  207738  207735       6  207741
  207735       6  207741  207738       7  207747  207744       6  207750  207744
       6  207750  207747       7  207756  207753       6  207759  207753       6
  207759  207756       7  207765  207762       6  207768  207762       6  207768
  207765       7  207774  207771       6  207777  207771       6  207777  207774
       7  207783  207780       6  207786  207780       6  207786  207783       7
  207792  207789       6  207795  207789       6  207795  207792       7  207801
  207798       6  207804  207798       6  207804  207801       7  207810  207807
       6  207813  207807       6  207813  207810       7  207819  207816       6
  207822  207816       6  207822  207819       7  207828  207825       6  207831
  207825       6  207831  207828       7  207837  207834       6  207840  207834
       6  207840  207837       7  207846  207843       6  207849  207843       6
  207849  207846       7  207855  207852       6  207858  207852       6  207858
  207855       7  207864  207861       6  207867  207861       6  207867  207864
       7  207873  207870       6  207876  207870       6  207876  207873       7
  207882  207879       6  207885  207879       6  207885  207882       7  207891
  207888       6  207894  207888       6  207894  207891       7  207900  207897
       6  207903  207897       6  207903  207900       7  207909  207906       6
  207912  207906       6  207912  207909       7  207918  207915       6  207921
  207915       6  207921  207918       7  207927  207924       6  207930  207924
       6  207930  207927       7  207936  207933       6  207939  207933       6
  207939  207936       7  207945  207942       6  207948  207942       6  207948
  207945       7  207954  207951       6  207957  207951       6  207957  207954
       7  207963  207960       6  207966  207960       6  207966  207963       7
  207972  207969       6  207975  207969       6  207975  207972       7  207981
  207978       6  207984  207978       6  207984  207981       7  207990  207987
       6  207993  207987       6  207993  207990       7  207999  207996       6
  208002  207996       6  208002  207999       7  208008  208005       6  208011
  208005       6  208011  208008       7  208017  208014       6  208020  208014
       6  208020  208017       7  208026  208023       6  208029  208023       6
  208029  208026       7  208035  208032       6  208038  208032       6  208038
  208035       7  208044  208041       6  208047  208041       6  208047  208044
       7  208053  208050       6  208056  208050       6  208056  208053       7
  208062  208059       6  208065  208059       6  208065  208062       7  208071
  208068       6  208074  208068       6  208074  208071       7  208080  208077
       6  208083  208077       6  208083  208080       7  208089  208086       6
  208092  208086       6  208092  208089       7  208098  208095       6  208101
  208095       6  208101  208098       7  208107  208104       6  208110  208104
       6  208110  208107       7  208116  208113       6  208119  208113       6
  208119  208116       7  208125  208122       6  208128  208122       6  208128
  208125       7  208134  208131       6  208137  208131       6  208137  208134
       7  208143  208140       6  208146  208140       6  208146  208143       7
  208152  208149       6  208155  208149       6  208155  208152       7  208161
  208158       6  208164  208158       6  208164  208161       7  208170  208167
       6  208173  208167       6  208173  208170       7  208179  208176       6
  208182  208176       6  208182  208179       7  208188  208185       6  208191
  208185       6  208191  208188       7  208197  208194       6  208200  208194
       6  208200  208197       7  208206  208203       6  208209  208203       6
  208209  208206       7  208215  208212       6  208218  208212       6  208218
  208215       7  208224  208221       6  208227  208221       6  208227  208224
       7  208233  208230       6  208236  208230       6  208236  208233       7
  208242  208239       6  208245  208239       6  208245  208242       7  208251
  208248       6  208254  208248       6  208254  208251       7  208260  208257
       6  208263  208257       6  208263  208260       7  208269  208266       6
  208272  208266       6  208272  208269       7  208278  208275       6  208281
  208275       6  208281  208278       7  208287  208284       6  208290  208284
       6  208290  208287       7  208296  208293       6  208299  208293       6
  208299  208296       7  208305  208302       6  208308  208302       6  208308
  208305       7  208314  208311       6  208317  208311       6  208317  208314
       7  208323  208320       6  208326  208320       6  208326  208323       7
  208332  208329       6  208335  208329       6  208335  208332       7  208341
  208338       6  208344  208338       6  208344  208341       7  208350  208347
       6  208353  208347       6  208353  208350       7  208359  208356       6
  208362  208356       6  208362  208359       7  208368  208365       6  208371
  208365       6  208371  208368       7  208377  208374       6  208380  208374
       6  208380  208377       7  208386  208383       6  208389  208383       6
  208389  208386       7  208395  208392       6  208398  208392       6  208398
  208395       7  208404  208401       6  208407  208401       6  208407  208404
       7  208413  208410       6  208416  208410       6  208416  208413       7
  208422  208419       6  208425  208419       6  208425  208422       7  208431
  208428       6  208434  208428       6  208434  208431       7  208440  208437
       6  208443  208437       6  208443  208440       7  208449  208446       6
  208452  208446       6  208452  208449       7  208458  208455       6  208461
  208455       6  208461  208458       7  208467  208464       6  208470  208464
       6  208470  208467       7  208476  208473       6  208479  208473       6
  208479  208476       7  208485  208482       6  208488  208482       6  208488
  208485       7  208494  208491       6  208497  208491       6  208497  208494
       7  208503  208500       6  208506  208500       6  208506  208503       7
  208512  208509       6  208515  208509       6  208515  208512       7  208521
  208518       6  208524  208518       6  208524  208521       7  208530  208527
       6  208533  208527       6  208533  208530       7  208539  208536       6
  208542  208536       6  208542  208539       7  208548  208545       6  208551
  208545       6  208551  208548       7  208557  208554       6  208560  208554
       6  208560  208557       7  208566  208563       6  208569  208563       6
  208569  208566       7  208575  208572       6  208578  208572       6  208578
  208575       7  208584  208581       6  208587  208581       6  208587  208584
       7  208593  208590       6  208596  208590       6  208596  208593       7
  208602  208599       6  208605  208599       6  208605  208602       7  208611
  208608       6  208614  208608       6  208614  208611       7  208620  208617
       6  208623  208617       6  208623  208620       7  208629  208626       6
  208632  208626       6  208632  208629       7  208638  208635       6  208641
  208635       6  208641  208638       7  208647  208644       6  208650  208644
       6  208650  208647       7  208656  208653       6  208659  208653       6
  208659  208656       7  208665  208662       6  208668  208662       6  208668
  208665       7  208674  208671       6  208677  208671       6  208677  208674
       7  208683  208680       6  208686  208680       6  208686  208683       7
  208692  208689       6  208695  208689       6  208695  208692       7  208701
  208698       6  208704  208698       6  208704  208701       7  208710  208707
       6  208713  208707       6  208713  208710       7  208719  208716       6
  208722  208716       6  208722  208719       7  208728  208725       6  208731
  208725       6  208731  208728       7  208737  208734       6  208740  208734
       6  208740  208737       7  208746  208743       6  208749  208743       6
  208749  208746       7  208755  208752       6  208758  208752       6  208758
  208755       7  208764  208761       6  208767  208761       6  208767  208764
       7  208773  208770       6  208776  208770       6  208776  208773       7
  208782  208779       6  208785  208779       6  208785  208782       7  208791
  208788       6  208794  208788       6  208794  208791       7  208800  208797
       6  208803  208797       6  208803  208800       7  208809  208806       6
  208812  208806       6  208812  208809       7  208818  208815       6  208821
  208815       6  208821  208818       7  208827  208824       6  208830  208824
       6  208830  208827       7  208836  208833       6  208839  208833       6
  208839  208836       7  208845  208842       6  208848  208842       6  208848
  208845       7  208854  208851       6  208857  208851       6  208857  208854
       7  208863  208860       6  208866  208860       6  208866  208863       7
  208872  208869       6  208875  208869       6  208875  208872       7  208881
  208878       6  208884  208878       6  208884  208881       7  208890  208887
       6  208893  208887       6  208893  208890       7  208899  208896       6
  208902  208896       6  208902  208899       7  208908  208905       6  208911
  208905       6  208911  208908       7  208917  208914       6  208920  208914
       6  208920  208917       7  208926  208923       6  208929  208923       6
  208929  208926       7  208935  208932       6  208938  208932       6  208938
  208935       7  208944  208941       6  208947  208941       6  208947  208944
       7  208953  208950       6  208956  208950       6  208956  208953       7
  208962  208959       6  208965  208959       6  208965  208962       7  208971
  208968       6  208974  208968       6  208974  208971       7  208980  208977
       6  208983  208977       6  208983  208980       7  208989  208986       6
  208992  208986       6  208992  208989       7  208998  208995       6  209001
  208995       6  209001  208998       7  209007  209004       6  209010  209004
       6  209010  209007       7  209016  209013       6  209019  209013       6
  209019  209016       7  209025  209022       6  209028  209022       6  209028
  209025       7  209034  209031       6  209037  209031       6  209037  209034
       7  209043  209040       6  209046  209040       6  209046  209043       7
  209052  209049       6  209055  209049       6  209055  209052       7  209061
  209058       6  209064  209058       6  209064  209061       7  209070  209067
       6  209073  209067       6  209073  209070       7  209079  209076       6
  209082  209076       6  209082  209079       7  209088  209085       6  209091
  209085       6  209091  209088       7  209097  209094       6  209100  209094
       6  209100  209097       7  209106  209103       6  209109  209103       6
  209109  209106       7  209115  209112       6  209118  209112       6  209118
  209115       7  209124  209121       6  209127  209121       6  209127  209124
       7  209133  209130       6  209136  209130       6  209136  209133       7
  209142  209139       6  209145  209139       6  209145  209142       7  209151
  209148       6  209154  209148       6  209154  209151       7  209160  209157
       6  209163  209157       6  209163  209160       7  209169  209166       6
  209172  209166       6  209172  209169       7  209178  209175       6  209181
  209175       6  209181  209178       7  209187  209184       6  209190  209184
       6  209190  209187       7  209196  209193       6  209199  209193       6
  209199  209196       7  209205  209202       6  209208  209202       6  209208
  209205       7  209214  209211       6  209217  209211       6  209217  209214
       7  209223  209220       6  209226  209220       6  209226  209223       7
  209232  209229       6  209235  209229       6  209235  209232       7  209241
  209238       6  209244  209238       6  209244  209241       7  209250  209247
       6  209253  209247       6  209253  209250       7  209259  209256       6
  209262  209256       6  209262  209259       7  209268  209265       6  209271
  209265       6  209271  209268       7  209277  209274       6  209280  209274
       6  209280  209277       7  209286  209283       6  209289  209283       6
  209289  209286       7  209295  209292       6  209298  209292       6  209298
  209295       7  209304  209301       6  209307  209301       6  209307  209304
       7  209313  209310       6  209316  209310       6  209316  209313       7
  209322  209319       6  209325  209319       6  209325  209322       7  209331
  209328       6  209334  209328       6  209334  209331       7  209340  209337
       6  209343  209337       6  209343  209340       7  209349  209346       6
  209352  209346       6  209352  209349       7  209358  209355       6  209361
  209355       6  209361  209358       7  209367  209364       6  209370  209364
       6  209370  209367       7  209376  209373       6  209379  209373       6
  209379  209376       7  209385  209382       6  209388  209382       6  209388
  209385       7  209394  209391       6  209397  209391       6  209397  209394
       7  209403  209400       6  209406  209400       6  209406  209403       7
  209412  209409       6  209415  209409       6  209415  209412       7  209421
  209418       6  209424  209418       6  209424  209421       7  209430  209427
       6  209433  209427       6  209433  209430       7  209439  209436       6
  209442  209436       6  209442  209439       7  209448  209445       6  209451
  209445       6  209451  209448       7  209457  209454       6  209460  209454
       6  209460  209457       7  209466  209463       6  209469  209463       6
  209469  209466       7  209475  209472       6  209478  209472       6  209478
  209475       7  209484  209481       6  209487  209481       6  209487  209484
       7  209493  209490       6  209496  209490       6  209496  209493       7
  209502  209499       6  209505  209499       6  209505  209502       7  209511
  209508       6  209514  209508       6  209514  209511       7  209520  209517
       6  209523  209517       6  209523  209520       7  209529  209526       6
  209532  209526       6  209532  209529       7  209538  209535       6  209541
  209535       6  209541  209538       7  209547  209544       6  209550  209544
       6  209550  209547       7  209556  209553       6  209559  209553       6
  209559  209556       7  209565  209562       6  209568  209562       6  209568
  209565       7  209574  209571       6  209577  209571       6  209577  209574
       7  209583  209580       6  209586  209580       6  209586  209583       7
  209592  209589       6  209595  209589       6  209595  209592       7  209601
  209598       6  209604  209598       6  209604  209601       7  209610  209607
       6  209613  209607       6  209613  209610       7  209619  209616       6
  209622  209616       6  209622  209619       7  209628  209625       6  209631
  209625       6  209631  209628       7  209637  209634       6  209640  209634
       6  209640  209637       7  209646  209643       6  209649  209643       6
  209649  209646       7  209655  209652       6  209658  209652       6  209658
  209655       7  209664  209661       6  209667  209661       6  209667  209664
       7  209673  209670       6  209676  209670       6  209676  209673       7
  209682  209679       6  209685  209679       6  209685  209682       7  209691
  209688       6  209694  209688       6  209694  209691       7  209700  209697
       6  209703  209697       6  209703  209700       7  209709  209706       6
  209712  209706       6  209712  209709       7  209718  209715       6  209721
  209715       6  209721  209718       7  209727  209724       6  209730  209724
       6  209730  209727       7  209736  209733       6  209739  209733       6
  209739  209736       7  209745  209742       6  209748  209742       6  209748
  209745       7  209754  209751       6  209757  209751       6  209757  209754
       7  209763  209760       6  209766  209760       6  209766  209763       7
  209772  209769       6  209775  209769       6  209775  209772       7  209781
  209778       6  209784  209778       6  209784  209781       7  209790  209787
       6  209793  209787       6  209793  209790       7  209799  209796       6
  209802  209796       6  209802  209799       7  209808  209805       6  209811
  209805       6  209811  209808       7  209817  209814       6  209820  209814
       6  209820  209817       7  209826  209823       6  209829  209823       6
  209829  209826       7  209835  209832       6  209838  209832       6  209838
  209835       7  209844  209841       6  209847  209841       6  209847  209844
       7  209853  209850       6  209856  209850       6  209856  209853       7
  209862  209859       6  209865  209859       6  209865  209862       7  209871
  209868       6  209874  209868       6  209874  209871       7  209880  209877
       6  209883  209877       6  209883  209880       7  209889  209886       6
  209892  209886       6  209892  209889       7  209898  209895       6  209901
  209895       6  209901  209898       7  209907  209904       6  209910  209904
       6  209910  209907       7  209916  209913       6  209919  209913       6
  209919  209916       7  209925  209922       6  209928  209922       6  209928
  209925       7  209934  209931       6  209937  209931       6  209937  209934
       7  209943  209940       6  209946  209940       6  209946  209943       7
  209952  209949       6  209955  209949       6  209955  209952       7  209961
  209958       6  209964  209958       6  209964  209961       7  209970  209967
       6  209973  209967       6  209973  209970       7  209979  209976       6
  209982  209976       6  209982  209979       7  209988  209985       6  209991
  209985       6  209991  209988       7  209997  209994       6  210000  209994
       6  210000  209997       7  210006  210003       6  210009  210003       6
  210009  210006       7  210015  210012       6  210018  210012       6  210018
  210015       7  210024  210021       6  210027  210021       6  210027  210024
       7  210033  210030       6  210036  210030       6  210036  210033       7
  210042  210039       6  210045  210039       6  210045  210042       7  210051
  210048       6  210054  210048       6  210054  210051       7  210060  210057
       6  210063  210057       6  210063  210060       7  210069  210066       6
  210072  210066       6  210072  210069       7  210078  210075       6  210081
  210075       6  210081  210078       7  210087  210084       6  210090  210084
       6  210090  210087       7  210096  210093       6  210099  210093       6
  210099  210096       7  210105  210102       6  210108  210102       6  210108
  210105       7  210114  210111       6  210117  210111       6  210117  210114
       7  210123  210120       6  210126  210120       6  210126  210123       7
  210132  210129       6  210135  210129       6  210135  210132       7  210141
  210138       6  210144  210138       6  210144  210141       7  210150  210147
       6  210153  210147       6  210153  210150       7  210159  210156       6
  210162  210156       6  210162  210159       7  210168  210165       6  210171
  210165       6  210171  210168       7  210177  210174       6  210180  210174
       6  210180  210177       7  210186  210183       6  210189  210183       6
  210189  210186       7  210195  210192       6  210198  210192       6  210198
  210195       7  210204  210201       6  210207  210201       6  210207  210204
       7  210213  210210       6  210216  210210       6  210216  210213       7
  210222  210219       6  210225  210219       6  210225  210222       7  210231
  210228       6  210234  210228       6  210234  210231       7  210240  210237
       6  210243  210237       6  210243  210240       7  210249  210246       6
  210252  210246       6  210252  210249       7  210258  210255       6  210261
  210255       6  210261  210258       7  210267  210264       6  210270  210264
       6  210270  210267       7  210276  210273       6  210279  210273       6
  210279  210276       7  210285  210282       6  210288  210282       6  210288
  210285       7  210294  210291       6  210297  210291       6  210297  210294
       7  210303  210300       6  210306  210300       6  210306  210303       7
  210312  210309       6  210315  210309       6  210315  210312       7  210321
  210318       6  210324  210318       6  210324  210321       7  210330  210327
       6  210333  210327       6  210333  210330       7  210339  210336       6
  210342  210336       6  210342  210339       7  210348  210345       6  210351
  210345       6  210351  210348       7  210357  210354       6  210360  210354
       6  210360  210357       7  210366  210363       6  210369  210363       6
  210369  210366       7  210375  210372       6  210378  210372       6  210378
  210375       7  210384  210381       6  210387  210381       6  210387  210384
       7  210393  210390       6  210396  210390       6  210396  210393       7
  210402  210399       6  210405  210399       6  210405  210402       7  210411
  210408       6  210414  210408       6  210414  210411       7  210420  210417
       6  210423  210417       6  210423  210420       7  210429  210426       6
  210432  210426       6  210432  210429       7  210438  210435       6  210441
  210435       6  210441  210438       7  210447  210444       6  210450  210444
       6  210450  210447       7  210456  210453       6  210459  210453       6
  210459  210456       7  210465  210462       6  210468  210462       6  210468
  210465       7  210474  210471       6  210477  210471       6  210477  210474
       7  210483  210480       6  210486  210480       6  210486  210483       7
  210492  210489       6  210495  210489       6  210495  210492       7  210501
  210498       6  210504  210498       6  210504  210501       7  210510  210507
       6  210513  210507       6  210513  210510       7  210519  210516       6
  210522  210516       6  210522  210519       7  210528  210525       6  210531
  210525       6  210531  210528       7  210537  210534       6  210540  210534
       6  210540  210537       7  210546  210543       6  210549  210543       6
  210549  210546       7  210555  210552       6  210558  210552       6  210558
  210555       7  210564  210561       6  210567  210561       6  210567  210564
       7  210573  210570       6  210576  210570       6  210576  210573       7
  210582  210579       6  210585  210579       6  210585  210582       7  210591
  210588       6  210594  210588       6  210594  210591       7  210600  210597
       6  210603  210597       6  210603  210600       7  210609  210606       6
  210612  210606       6  210612  210609       7  210618  210615       6  210621
  210615       6  210621  210618       7  210627  210624       6  210630  210624
       6  210630  210627       7  210636  210633       6  210639  210633       6
  210639  210636       7  210645  210642       6  210648  210642       6  210648
  210645       7  210654  210651       6  210657  210651       6  210657  210654
       7  210663  210660       6  210666  210660       6  210666  210663       7
  210672  210669       6  210675  210669       6  210675  210672       7  210681
  210678       6  210684  210678       6  210684  210681       7  210690  210687
       6  210693  210687       6  210693  210690       7  210699  210696       6
  210702  210696       6  210702  210699       7  210708  210705       6  210711
  210705       6  210711  210708       7  210717  210714       6  210720  210714
       6  210720  210717       7  210726  210723       6  210729  210723       6
  210729  210726       7  210735  210732       6  210738  210732       6  210738
  210735       7  210744  210741       6  210747  210741       6  210747  210744
       7  210753  210750       6  210756  210750       6  210756  210753       7
  210762  210759       6  210765  210759       6  210765  210762       7  210771
  210768       6  210774  210768       6  210774  210771       7  210780  210777
       6  210783  210777       6  210783  210780       7  210789  210786       6
  210792  210786       6  210792  210789       7  210798  210795       6  210801
  210795       6  210801  210798       7  210807  210804       6  210810  210804
       6  210810  210807       7  210816  210813       6  210819  210813       6
  210819  210816       7  210825  210822       6  210828  210822       6  210828
  210825       7  210834  210831       6  210837  210831       6  210837  210834
       7  210843  210840       6  210846  210840       6  210846  210843       7
  210852  210849       6  210855  210849       6  210855  210852       7  210861
  210858       6  210864  210858       6  210864  210861       7  210870  210867
       6  210873  210867       6  210873  210870       7  210879  210876       6
  210882  210876       6  210882  210879       7  210888  210885       6  210891
  210885       6  210891  210888       7  210897  210894       6  210900  210894
       6  210900  210897       7  210906  210903       6  210909  210903       6
  210909  210906       7  210915  210912       6  210918  210912       6  210918
  210915       7  210924  210921       6  210927  210921       6  210927  210924
       7  210933  210930       6  210936  210930       6  210936  210933       7
  210942  210939       6  210945  210939       6  210945  210942       7  210951
  210948       6  210954  210948       6  210954  210951       7  210960  210957
       6  210963  210957       6  210963  210960       7  210969  210966       6
  210972  210966       6  210972  210969       7  210978  210975       6  210981
  210975       6  210981  210978       7  210987  210984       6  210990  210984
       6  210990  210987       7  210996  210993       6  210999  210993       6
  210999  210996       7  211005  211002       6  211008  211002       6  211008
  211005       7  211014  211011       6  211017  211011       6  211017  211014
       7  211023  211020       6  211026  211020       6  211026  211023       7
  211032  211029       6  211035  211029       6  211035  211032       7  211041
  211038       6  211044  211038       6  211044  211041       7  211050  211047
       6  211053  211047       6  211053  211050       7  211059  211056       6
  211062  211056       6  211062  211059       7  211068  211065       6  211071
  211065       6  211071  211068       7  211077  211074       6  211080  211074
       6  211080  211077       7  211086  211083       6  211089  211083       6
  211089  211086       7  211095  211092       6  211098  211092       6  211098
  211095       7  211104  211101       6  211107  211101       6  211107  211104
       7  211113  211110       6  211116  211110       6  211116  211113       7
  211122  211119       6  211125  211119       6  211125  211122       7  211131
  211128       6  211134  211128       6  211134  211131       7  211140  211137
       6  211143  211137       6  211143  211140       7  211149  211146       6
  211152  211146       6  211152  211149       7  211158  211155       6  211161
  211155       6  211161  211158       7  211167  211164       6  211170  211164
       6  211170  211167       7  211176  211173       6  211179  211173       6
  211179  211176       7  211185  211182       6  211188  211182       6  211188
  211185       7  211194  211191       6  211197  211191       6  211197  211194
       7  211203  211200       6  211206  211200       6  211206  211203       7
  211212  211209       6  211215  211209       6  211215  211212       7  211221
  211218       6  211224  211218       6  211224  211221       7  211230  211227
       6  211233  211227       6  211233  211230       7  211239  211236       6
  211242  211236       6  211242  211239       7  211248  211245       6  211251
  211245       6  211251  211248       7  211257  211254       6  211260  211254
       6  211260  211257       7  211266  211263       6  211269  211263       6
  211269  211266       7  211275  211272       6  211278  211272       6  211278
  211275       7  211284  211281       6  211287  211281       6  211287  211284
       7  211293  211290       6  211296  211290       6  211296  211293       7
  211302  211299       6  211305  211299       6  211305  211302       7  211311
  211308       6  211314  211308       6  211314  211311       7  211320  211317
       6  211323  211317       6  211323  211320       7  211329  211326       6
  211332  211326       6  211332  211329       7  211338  211335       6  211341
  211335       6  211341  211338       7  211347  211344       6  211350  211344
       6  211350  211347       7  211356  211353       6  211359  211353       6
  211359  211356       7  211365  211362       6  211368  211362       6  211368
  211365       7  211374  211371       6  211377  211371       6  211377  211374
       7  211383  211380       6  211386  211380       6  211386  211383       7
  211392  211389       6  211395  211389       6  211395  211392       7  211401
  211398       6  211404  211398       6  211404  211401       7  211410  211407
       6  211413  211407       6  211413  211410       7  211419  211416       6
  211422  211416       6  211422  211419       7  211428  211425       6  211431
  211425       6  211431  211428       7  211437  211434       6  211440  211434
       6  211440  211437       7  211446  211443       6  211449  211443       6
  211449  211446       7  211455  211452       6  211458  211452       6  211458
  211455       7  211464  211461       6  211467  211461       6  211467  211464
       7  211473  211470       6  211476  211470       6  211476  211473       7
  211482  211479       6  211485  211479       6  211485  211482       7  211491
  211488       6  211494  211488       6  211494  211491       7  211500  211497
       6  211503  211497       6  211503  211500       7  211509  211506       6
  211512  211506       6  211512  211509       7  211518  211515       6  211521
  211515       6  211521  211518       7  211527  211524       6  211530  211524
       6  211530  211527       7  211536  211533       6  211539  211533       6
  211539  211536       7  211545  211542       6  211548  211542       6  211548
  211545       7  211554  211551       6  211557  211551       6  211557  211554
       7  211563  211560       6  211566  211560       6  211566  211563       7
  211572  211569       6  211575  211569       6  211575  211572       7  211581
  211578       6  211584  211578       6  211584  211581       7  211590  211587
       6  211593  211587       6  211593  211590       7  211599  211596       6
  211602  211596       6  211602  211599       7  211608  211605       6  211611
  211605       6  211611  211608       7  211617  211614       6  211620  211614
       6  211620  211617       7  211626  211623       6  211629  211623       6
  211629  211626       7  211635  211632       6  211638  211632       6  211638
  211635       7  211644  211641       6  211647  211641       6  211647  211644
       7  211653  211650       6  211656  211650       6  211656  211653       7
  211662  211659       6  211665  211659       6  211665  211662       7  211671
  211668       6  211674  211668       6  211674  211671       7  211680  211677
       6  211683  211677       6  211683  211680       7  211689  211686       6
  211692  211686       6  211692  211689       7  211698  211695       6  211701
  211695       6  211701  211698       7  211707  211704       6  211710  211704
       6  211710  211707       7  211716  211713       6  211719  211713       6
  211719  211716       7  211725  211722       6  211728  211722       6  211728
  211725       7  211734  211731       6  211737  211731       6  211737  211734
       7  211743  211740       6  211746  211740       6  211746  211743       7
  211752  211749       6  211755  211749       6  211755  211752       7  211761
  211758       6  211764  211758       6  211764  211761       7  211770  211767
       6  211773  211767       6  211773  211770       7  211779  211776       6
  211782  211776       6  211782  211779       7  211788  211785       6  211791
  211785       6  211791  211788       7  211797  211794       6  211800  211794
       6  211800  211797       7  211806  211803       6  211809  211803       6
  211809  211806       7  211815  211812       6  211818  211812       6  211818
  211815       7  211824  211821       6  211827  211821       6  211827  211824
       7  211833  211830       6  211836  211830       6  211836  211833       7
  211842  211839       6  211845  211839       6  211845  211842       7  211851
  211848       6  211854  211848       6  211854  211851       7  211860  211857
       6  211863  211857       6  211863  211860       7  211869  211866       6
  211872  211866       6  211872  211869       7  211878  211875       6  211881
  211875       6  211881  211878       7  211887  211884       6  211890  211884
       6  211890  211887       7  211896  211893       6  211899  211893       6
  211899  211896       7  211905  211902       6  211908  211902       6  211908
  211905       7  211914  211911       6  211917  211911       6  211917  211914
       7  211923  211920       6  211926  211920       6  211926  211923       7
  211932  211929       6  211935  211929       6  211935  211932       7  211941
  211938       6  211944  211938       6  211944  211941       7  211950  211947
       6  211953  211947       6  211953  211950       7  211959  211956       6
  211962  211956       6  211962  211959       7  211968  211965       6  211971
  211965       6  211971  211968       7  211977  211974       6  211980  211974
       6  211980  211977       7  211986  211983       6  211989  211983       6
  211989  211986       7  211995  211992       6  211998  211992       6  211998
  211995       7  212004  212001       6  212007  212001       6  212007  212004
       7  212013  212010       6  212016  212010       6  212016  212013       7
  212022  212019       6  212025  212019       6  212025  212022       7  212031
  212028       6  212034  212028       6  212034  212031       7  212040  212037
       6  212043  212037       6  212043  212040       7  212049  212046       6
  212052  212046       6  212052  212049       7  212058  212055       6  212061
  212055       6  212061  212058       7  212067  212064       6  212070  212064
       6  212070  212067       7  212076  212073       6  212079  212073       6
  212079  212076       7  212085  212082       6  212088  212082       6  212088
  212085       7  212094  212091       6  212097  212091       6  212097  212094
       7  212103  212100       6  212106  212100       6  212106  212103       7
  212112  212109       6  212115  212109       6  212115  212112       7  212121
  212118       6  212124  212118       6  212124  212121       7  212130  212127
       6  212133  212127       6  212133  212130       7  212139  212136       6
  212142  212136       6  212142  212139       7  212148  212145       6  212151
  212145       6  212151  212148       7  212157  212154       6  212160  212154
       6  212160  212157       7  212166  212163       6  212169  212163       6
  212169  212166       7  212175  212172       6  212178  212172       6  212178
  212175       7  212184  212181       6  212187  212181       6  212187  212184
       7  212193  212190       6  212196  212190       6  212196  212193       7
  212202  212199       6  212205  212199       6  212205  212202       7  212211
  212208       6  212214  212208       6  212214  212211       7  212220  212217
       6  212223  212217       6  212223  212220       7  212229  212226       6
  212232  212226       6  212232  212229       7  212238  212235       6  212241
  212235       6  212241  212238       7  212247  212244       6  212250  212244
       6  212250  212247       7  212256  212253       6  212259  212253       6
  212259  212256       7  212265  212262       6  212268  212262       6  212268
  212265       7  212274  212271       6  212277  212271       6  212277  212274
       7  212283  212280       6  212286  212280       6  212286  212283       7
  212292  212289       6  212295  212289       6  212295  212292       7  212301
  212298       6  212304  212298       6  212304  212301       7  212310  212307
       6  212313  212307       6  212313  212310       7  212319  212316       6
  212322  212316       6  212322  212319       7  212328  212325       6  212331
  212325       6  212331  212328       7  212337  212334       6  212340  212334
       6  212340  212337       7  212346  212343       6  212349  212343       6
  212349  212346       7  212355  212352       6  212358  212352       6  212358
  212355       7  212364  212361       6  212367  212361       6  212367  212364
       7  212373  212370       6  212376  212370       6  212376  212373       7
  212382  212379       6  212385  212379       6  212385  212382       7  212391
  212388       6  212394  212388       6  212394  212391       7  212400  212397
       6  212403  212397       6  212403  212400       7  212409  212406       6
  212412  212406       6  212412  212409       7  212418  212415       6  212421
  212415       6  212421  212418       7  212427  212424       6  212430  212424
       6  212430  212427       7  212436  212433       6  212439  212433       6
  212439  212436       7  212445  212442       6  212448  212442       6  212448
  212445       7  212454  212451       6  212457  212451       6  212457  212454
       7  212463  212460       6  212466  212460       6  212466  212463       7
  212472  212469       6  212475  212469       6  212475  212472       7  212481
  212478       6  212484  212478       6  212484  212481       7  212490  212487
       6  212493  212487       6  212493  212490       7  212499  212496       6
  212502  212496       6  212502  212499       7  212508  212505       6  212511
  212505       6  212511  212508       7  212517  212514       6  212520  212514
       6  212520  212517       7  212526  212523       6  212529  212523       6
  212529  212526       7  212535  212532       6  212538  212532       6  212538
  212535       7  212544  212541       6  212547  212541       6  212547  212544
       7  212553  212550       6  212556  212550       6  212556  212553       7
  212562  212559       6  212565  212559       6  212565  212562       7  212571
  212568       6  212574  212568       6  212574  212571       7  212580  212577
       6  212583  212577       6  212583  212580       7  212589  212586       6
  212592  212586       6  212592  212589       7  212598  212595       6  212601
  212595       6  212601  212598       7  212607  212604       6  212610  212604
       6  212610  212607       7  212616  212613       6  212619  212613       6
  212619  212616       7  212625  212622       6  212628  212622       6  212628
  212625       7  212634  212631       6  212637  212631       6  212637  212634
       7  212643  212640       6  212646  212640       6  212646  212643       7
  212652  212649       6  212655  212649       6  212655  212652       7  212661
  212658       6  212664  212658       6  212664  212661       7  212670  212667
       6  212673  212667       6  212673  212670       7  212679  212676       6
  212682  212676       6  212682  212679       7  212688  212685       6  212691
  212685       6  212691  212688       7  212697  212694       6  212700  212694
       6  212700  212697       7  212706  212703       6  212709  212703       6
  212709  212706       7  212715  212712       6  212718  212712       6  212718
  212715       7  212724  212721       6  212727  212721       6  212727  212724
       7  212733  212730       6  212736  212730       6  212736  212733       7
  212742  212739       6  212745  212739       6  212745  212742       7  212751
  212748       6  212754  212748       6  212754  212751       7  212760  212757
       6  212763  212757       6  212763  212760       7  212769  212766       6
  212772  212766       6  212772  212769       7  212778  212775       6  212781
  212775       6  212781  212778       7  212787  212784       6  212790  212784
       6  212790  212787       7  212796  212793       6  212799  212793       6
  212799  212796       7  212805  212802       6  212808  212802       6  212808
  212805       7  212814  212811       6  212817  212811       6  212817  212814
       7  212823  212820       6  212826  212820       6  212826  212823       7
  212832  212829       6  212835  212829       6  212835  212832       7  212841
  212838       6  212844  212838       6  212844  212841       7  212850  212847
       6  212853  212847       6  212853  212850       7  212859  212856       6
  212862  212856       6  212862  212859       7  212868  212865       6  212871
  212865       6  212871  212868       7  212877  212874       6  212880  212874
       6  212880  212877       7  212886  212883       6  212889  212883       6
  212889  212886       7  212895  212892       6  212898  212892       6  212898
  212895       7  212904  212901       6  212907  212901       6  212907  212904
       7  212913  212910       6  212916  212910       6  212916  212913       7
  212922  212919       6  212925  212919       6  212925  212922       7  212931
  212928       6  212934  212928       6  212934  212931       7  212940  212937
       6  212943  212937       6  212943  212940       7  212949  212946       6
  212952  212946       6  212952  212949       7  212958  212955       6  212961
  212955       6  212961  212958       7  212967  212964       6  212970  212964
       6  212970  212967       7  212976  212973       6  212979  212973       6
  212979  212976       7  212985  212982       6  212988  212982       6  212988
  212985       7  212994  212991       6  212997  212991       6  212997  212994
       7  213003  213000       6  213006  213000       6  213006  213003       7
  213012  213009       6  213015  213009       6  213015  213012       7  213021
  213018       6  213024  213018       6  213024  213021       7  213030  213027
       6  213033  213027       6  213033  213030       7  213039  213036       6
  213042  213036       6  213042  213039       7  213048  213045       6  213051
  213045       6  213051  213048       7  213057  213054       6  213060  213054
       6  213060  213057       7  213066  213063       6  213069  213063       6
  213069  213066       7  213075  213072       6  213078  213072       6  213078
  213075       7  213084  213081       6  213087  213081       6  213087  213084
       7  213093  213090       6  213096  213090       6  213096  213093       7
  213102  213099       6  213105  213099       6  213105  213102       7  213111
  213108       6  213114  213108       6  213114  213111       7  213120  213117
       6  213123  213117       6  213123  213120       7  213129  213126       6
  213132  213126       6  213132  213129       7  213138  213135       6  213141
  213135       6  213141  213138       7  213147  213144       6  213150  213144
       6  213150  213147       7  213156  213153       6  213159  213153       6
  213159  213156       7  213165  213162       6  213168  213162       6  213168
  213165       7  213174  213171       6  213177  213171       6  213177  213174
       7  213183  213180       6  213186  213180       6  213186  213183       7
  213192  213189       6  213195  213189       6  213195  213192       7  213201
  213198       6  213204  213198       6  213204  213201       7  213210  213207
       6  213213  213207       6  213213  213210       7  213219  213216       6
  213222  213216       6  213222  213219       7  213228  213225       6  213231
  213225       6  213231  213228       7  213237  213234       6  213240  213234
       6  213240  213237       7  213246  213243       6  213249  213243       6
  213249  213246       7  213255  213252       6  213258  213252       6  213258
  213255       7  213264  213261       6  213267  213261       6  213267  213264
       7  213273  213270       6  213276  213270       6  213276  213273       7
  213282  213279       6  213285  213279       6  213285  213282       7  213291
  213288       6  213294  213288       6  213294  213291       7  213300  213297
       6  213303  213297       6  213303  213300       7  213309  213306       6
  213312  213306       6  213312  213309       7  213318  213315       6  213321
  213315       6  213321  213318       7  213327  213324       6  213330  213324
       6  213330  213327       7  213336  213333       6  213339  213333       6
  213339  213336       7  213345  213342       6  213348  213342       6  213348
  213345       7  213354  213351       6  213357  213351       6  213357  213354
       7  213363  213360       6  213366  213360       6  213366  213363       7
  213372  213369       6  213375  213369       6  213375  213372       7  213381
  213378       6  213384  213378       6  213384  213381       7  213390  213387
       6  213393  213387       6  213393  213390       7  213399  213396       6
  213402  213396       6  213402  213399       7  213408  213405       6  213411
  213405       6  213411  213408       7  213417  213414       6  213420  213414
       6  213420  213417       7  213426  213423       6  213429  213423       6
  213429  213426       7  213435  213432       6  213438  213432       6  213438
  213435       7  213444  213441       6  213447  213441       6  213447  213444
       7  213453  213450       6  213456  213450       6  213456  213453       7
  213462  213459       6  213465  213459       6  213465  213462       7  213471
  213468       6  213474  213468       6  213474  213471       7  213480  213477
       6  213483  213477       6  213483  213480       7  213489  213486       6
  213492  213486       6  213492  213489       7  213498  213495       6  213501
  213495       6  213501  213498       7  213507  213504       6  213510  213504
       6  213510  213507       7  213516  213513       6  213519  213513       6
  213519  213516       7  213525  213522       6  213528  213522       6  213528
  213525       7  213534  213531       6  213537  213531       6  213537  213534
       7  213543  213540       6  213546  213540       6  213546  213543       7
  213552  213549       6  213555  213549       6  213555  213552       7  213561
  213558       6  213564  213558       6  213564  213561       7  213570  213567
       6  213573  213567       6  213573  213570       7  213579  213576       6
  213582  213576       6  213582  213579       7  213588  213585       6  213591
  213585       6  213591  213588       7  213597  213594       6  213600  213594
       6  213600  213597       7  213606  213603       6  213609  213603       6
  213609  213606       7  213615  213612       6  213618  213612       6  213618
  213615       7  213624  213621       6  213627  213621       6  213627  213624
       7  213633  213630       6  213636  213630       6  213636  213633       7
  213642  213639       6  213645  213639       6  213645  213642       7  213651
  213648       6  213654  213648       6  213654  213651       7  213660  213657
       6  213663  213657       6  213663  213660       7  213669  213666       6
  213672  213666       6  213672  213669       7  213678  213675       6  213681
  213675       6  213681  213678       7  213687  213684       6  213690  213684
       6  213690  213687       7  213696  213693       6  213699  213693       6
  213699  213696       7  213705  213702       6  213708  213702       6  213708
  213705       7  213714  213711       6  213717  213711       6  213717  213714
       7  213723  213720       6  213726  213720       6  213726  213723       7
  213732  213729       6  213735  213729       6  213735  213732       7  213741
  213738       6  213744  213738       6  213744  213741       7  213750  213747
       6  213753  213747       6  213753  213750       7  213759  213756       6
  213762  213756       6  213762  213759       7  213768  213765       6  213771
  213765       6  213771  213768       7  213777  213774       6  213780  213774
       6  213780  213777       7  213786  213783       6  213789  213783       6
  213789  213786       7  213795  213792       6  213798  213792       6  213798
  213795       7  213804  213801       6  213807  213801       6  213807  213804
       7  213813  213810       6  213816  213810       6  213816  213813       7
  213822  213819       6  213825  213819       6  213825  213822       7  213831
  213828       6  213834  213828       6  213834  213831       7  213840  213837
       6  213843  213837       6  213843  213840       7  213849  213846       6
  213852  213846       6  213852  213849       7  213858  213855       6  213861
  213855       6  213861  213858       7  213867  213864       6  213870  213864
       6  213870  213867       7  213876  213873       6  213879  213873       6
  213879  213876       7  213885  213882       6  213888  213882       6  213888
  213885       7  213894  213891       6  213897  213891       6  213897  213894
       7  213903  213900       6  213906  213900       6  213906  213903       7
  213912  213909       6  213915  213909       6  213915  213912       7  213921
  213918       6  213924  213918       6  213924  213921       7  213930  213927
       6  213933  213927       6  213933  213930       7  213939  213936       6
  213942  213936       6  213942  213939       7  213948  213945       6  213951
  213945       6  213951  213948       7  213957  213954       6  213960  213954
       6  213960  213957       7  213966  213963       6  213969  213963       6
  213969  213966       7  213975  213972       6  213978  213972       6  213978
  213975       7  213984  213981       6  213987  213981       6  213987  213984
       7  213993  213990       6  213996  213990       6  213996  213993       7
  214002  213999       6  214005  213999       6  214005  214002       7  214011
  214008       6  214014  214008       6  214014  214011       7  214020  214017
       6  214023  214017       6  214023  214020       7  214029  214026       6
  214032  214026       6  214032  214029       7  214038  214035       6  214041
  214035       6  214041  214038       7  214047  214044       6  214050  214044
       6  214050  214047       7  214056  214053       6  214059  214053       6
  214059  214056       7  214065  214062       6  214068  214062       6  214068
  214065       7  214074  214071       6  214077  214071       6  214077  214074
       7  214083  214080       6  214086  214080       6  214086  214083       7
  214092  214089       6  214095  214089       6  214095  214092       7  214101
  214098       6  214104  214098       6  214104  214101       7  214110  214107
       6  214113  214107       6  214113  214110       7  214119  214116       6
  214122  214116       6  214122  214119       7  214128  214125       6  214131
  214125       6  214131  214128       7  214137  214134       6  214140  214134
       6  214140  214137       7  214146  214143       6  214149  214143       6
  214149  214146       7  214155  214152       6  214158  214152       6  214158
  214155       7  214164  214161       6  214167  214161       6  214167  214164
       7  214173  214170       6  214176  214170       6  214176  214173       7
  214182  214179       6  214185  214179       6  214185  214182       7  214191
  214188       6  214194  214188       6  214194  214191       7  214200  214197
       6  214203  214197       6  214203  214200       7  214209  214206       6
  214212  214206       6  214212  214209       7  214218  214215       6  214221
  214215       6  214221  214218       7  214227  214224       6  214230  214224
       6  214230  214227       7  214236  214233       6  214239  214233       6
  214239  214236       7  214245  214242       6  214248  214242       6  214248
  214245       7  214254  214251       6  214257  214251       6  214257  214254
       7  214263  214260       6  214266  214260       6  214266  214263       7
  214272  214269       6  214275  214269       6  214275  214272       7  214281
  214278       6  214284  214278       6  214284  214281       7  214290  214287
       6  214293  214287       6  214293  214290       7  214299  214296       6
  214302  214296       6  214302  214299       7  214308  214305       6  214311
  214305       6  214311  214308       7  214317  214314       6  214320  214314
       6  214320  214317       7  214326  214323       6  214329  214323       6
  214329  214326       7  214335  214332       6  214338  214332       6  214338
  214335       7  214344  214341       6  214347  214341       6  214347  214344
       7  214353  214350       6  214356  214350       6  214356  214353       7
  214362  214359       6  214365  214359       6  214365  214362       7  214371
  214368       6  214374  214368       6  214374  214371       7  214380  214377
       6  214383  214377       6  214383  214380       7  214389  214386       6
  214392  214386       6  214392  214389       7  214398  214395       6  214401
  214395       6  214401  214398       7  214407  214404       6  214410  214404
       6  214410  214407       7  214416  214413       6  214419  214413       6
  214419  214416       7  214425  214422       6  214428  214422       6  214428
  214425       7  214434  214431       6  214437  214431       6  214437  214434
       7  214443  214440       6  214446  214440       6  214446  214443       7
  214452  214449       6  214455  214449       6  214455  214452       7  214461
  214458       6  214464  214458       6  214464  214461       7  214470  214467
       6  214473  214467       6  214473  214470       7  214479  214476       6
  214482  214476       6  214482  214479       7  214488  214485       6  214491
  214485       6  214491  214488       7  214497  214494       6  214500  214494
       6  214500  214497       7  214506  214503       6  214509  214503       6
  214509  214506       7  214515  214512       6  214518  214512       6  214518
  214515       7  214524  214521       6  214527  214521       6  214527  214524
       7  214533  214530       6  214536  214530       6  214536  214533       7
  214542  214539       6  214545  214539       6  214545  214542       7  214551
  214548       6  214554  214548       6  214554  214551       7  214560  214557
       6  214563  214557       6  214563  214560       7  214569  214566       6
  214572  214566       6  214572  214569       7  214578  214575       6  214581
  214575       6  214581  214578       7  214587  214584       6  214590  214584
       6  214590  214587       7  214596  214593       6  214599  214593       6
  214599  214596       7  214605  214602       6  214608  214602       6  214608
  214605       7  214614  214611       6  214617  214611       6  214617  214614
       7  214623  214620       6  214626  214620       6  214626  214623       7
  214632  214629       6  214635  214629       6  214635  214632       7  214641
  214638       6  214644  214638       6  214644  214641       7  214650  214647
       6  214653  214647       6  214653  214650       7  214659  214656       6
  214662  214656       6  214662  214659       7  214668  214665       6  214671
  214665       6  214671  214668       7  214677  214674       6  214680  214674
       6  214680  214677       7  214686  214683       6  214689  214683       6
  214689  214686       7  214695  214692       6  214698  214692       6  214698
  214695       7  214704  214701       6  214707  214701       6  214707  214704
       7  214713  214710       6  214716  214710       6  214716  214713       7
  214722  214719       6  214725  214719       6  214725  214722       7  214731
  214728       6  214734  214728       6  214734  214731       7  214740  214737
       6  214743  214737       6  214743  214740       7  214749  214746       6
  214752  214746       6  214752  214749       7  214758  214755       6  214761
  214755       6  214761  214758       7  214767  214764       6  214770  214764
       6  214770  214767       7  214776  214773       6  214779  214773       6
  214779  214776       7  214785  214782       6  214788  214782       6  214788
  214785       7  214794  214791       6  214797  214791       6  214797  214794
       7  214803  214800       6  214806  214800       6  214806  214803       7
  214812  214809       6  214815  214809       6  214815  214812       7  214821
  214818       6  214824  214818       6  214824  214821       7  214830  214827
       6  214833  214827       6  214833  214830       7  214839  214836       6
  214842  214836       6  214842  214839       7  214848  214845       6  214851
  214845       6  214851  214848       7  214857  214854       6  214860  214854
       6  214860  214857       7  214866  214863       6  214869  214863       6
  214869  214866       7  214875  214872       6  214878  214872       6  214878
  214875       7  214884  214881       6  214887  214881       6  214887  214884
       7  214893  214890       6  214896  214890       6  214896  214893       7
  214902  214899       6  214905  214899       6  214905  214902       7  214911
  214908       6  214914  214908       6  214914  214911       7  214920  214917
       6  214923  214917       6  214923  214920       7  214929  214926       6
  214932  214926       6  214932  214929       7  214938  214935       6  214941
  214935       6  214941  214938       7  214947  214944       6  214950  214944
       6  214950  214947       7  214956  214953       6  214959  214953       6
  214959  214956       7  214965  214962       6  214968  214962       6  214968
  214965       7  214974  214971       6  214977  214971       6  214977  214974
       7  214983  214980       6  214986  214980       6  214986  214983       7
  214992  214989       6  214995  214989       6  214995  214992       7  215001
  214998       6  215004  214998       6  215004  215001       7  215010  215007
       6  215013  215007       6  215013  215010       7  215019  215016       6
  215022  215016       6  215022  215019       7  215028  215025       6  215031
  215025       6  215031  215028       7  215037  215034       6  215040  215034
       6  215040  215037       7  215046  215043       6  215049  215043       6
  215049  215046       7  215055  215052       6  215058  215052       6  215058
  215055       7  215064  215061       6  215067  215061       6  215067  215064
       7  215073  215070       6  215076  215070       6  215076  215073       7
  215082  215079       6  215085  215079       6  215085  215082       7  215091
  215088       6  215094  215088       6  215094  215091       7  215100  215097
       6  215103  215097       6  215103  215100       7  215109  215106       6
  215112  215106       6  215112  215109       7  215118  215115       6  215121
  215115       6  215121  215118       7  215127  215124       6  215130  215124
       6  215130  215127       7  215136  215133       6  215139  215133       6
  215139  215136       7  215145  215142       6  215148  215142       6  215148
  215145       7  215154  215151       6  215157  215151       6  215157  215154
       7  215163  215160       6  215166  215160       6  215166  215163       7
  215172  215169       6  215175  215169       6  215175  215172       7  215181
  215178       6  215184  215178       6  215184  215181       7  215190  215187
       6  215193  215187       6  215193  215190       7  215199  215196       6
  215202  215196       6  215202  215199       7  215208  215205       6  215211
  215205       6  215211  215208       7  215217  215214       6  215220  215214
       6  215220  215217       7  215226  215223       6  215229  215223       6
  215229  215226       7  215235  215232       6  215238  215232       6  215238
  215235       7  215244  215241       6  215247  215241       6  215247  215244
       7  215253  215250       6  215256  215250       6  215256  215253       7
  215262  215259       6  215265  215259       6  215265  215262       7  215271
  215268       6  215274  215268       6  215274  215271       7  215280  215277
       6  215283  215277       6  215283  215280       7  215289  215286       6
  215292  215286       6  215292  215289       7  215298  215295       6  215301
  215295       6  215301  215298       7  215307  215304       6  215310  215304
       6  215310  215307       7  215316  215313       6  215319  215313       6
  215319  215316       7  215325  215322       6  215328  215322       6  215328
  215325       7  215334  215331       6  215337  215331       6  215337  215334
       7  215343  215340       6  215346  215340       6  215346  215343       7
  215352  215349       6  215355  215349       6  215355  215352       7  215361
  215358       6  215364  215358       6  215364  215361       7  215370  215367
       6  215373  215367       6  215373  215370       7  215379  215376       6
  215382  215376       6  215382  215379       7  215388  215385       6  215391
  215385       6  215391  215388       7  215397  215394       6  215400  215394
       6  215400  215397       7  215406  215403       6  215409  215403       6
  215409  215406       7  215415  215412       6  215418  215412       6  215418
  215415       7  215424  215421       6  215427  215421       6  215427  215424
       7  215433  215430       6  215436  215430       6  215436  215433       7
  215442  215439       6  215445  215439       6  215445  215442       7  215451
  215448       6  215454  215448       6  215454  215451       7  215460  215457
       6  215463  215457       6  215463  215460       7  215469  215466       6
  215472  215466       6  215472  215469       7  215478  215475       6  215481
  215475       6  215481  215478       7  215487  215484       6  215490  215484
       6  215490  215487       7  215496  215493       6  215499  215493       6
  215499  215496       7  215505  215502       6  215508  215502       6  215508
  215505       7  215514  215511       6  215517  215511       6  215517  215514
       7  215523  215520       6  215526  215520       6  215526  215523       7
  215532  215529       6  215535  215529       6  215535  215532       7  215541
  215538       6  215544  215538       6  215544  215541       7  215550  215547
       6  215553  215547       6  215553  215550       7  215559  215556       6
  215562  215556       6  215562  215559       7  215568  215565       6  215571
  215565       6  215571  215568       7  215577  215574       6  215580  215574
       6  215580  215577       7  215586  215583       6  215589  215583       6
  215589  215586       7  215595  215592       6  215598  215592       6  215598
  215595       7  215604  215601       6  215607  215601       6  215607  215604
       7  215613  215610       6  215616  215610       6  215616  215613       7
  215622  215619       6  215625  215619       6  215625  215622       7  215631
  215628       6  215634  215628       6  215634  215631       7  215640  215637
       6  215643  215637       6  215643  215640       7  215649  215646       6
  215652  215646       6  215652  215649       7  215658  215655       6  215661
  215655       6  215661  215658       7  215667  215664       6  215670  215664
       6  215670  215667       7  215676  215673       6  215679  215673       6
  215679  215676       7  215685  215682       6  215688  215682       6  215688
  215685       7  215694  215691       6  215697  215691       6  215697  215694
       7  215703  215700       6  215706  215700       6  215706  215703       7
  215712  215709       6  215715  215709       6  215715  215712       7  215721
  215718       6  215724  215718       6  215724  215721       7  215730  215727
       6  215733  215727       6  215733  215730       7  215739  215736       6
  215742  215736       6  215742  215739       7  215748  215745       6  215751
  215745       6  215751  215748       7  215757  215754       6  215760  215754
       6  215760  215757       7  215766  215763       6  215769  215763       6
  215769  215766       7  215775  215772       6  215778  215772       6  215778
  215775       7  215784  215781       6  215787  215781       6  215787  215784
       7  215793  215790       6  215796  215790       6  215796  215793       7
  215802  215799       6  215805  215799       6  215805  215802       7  215811
  215808       6  215814  215808       6  215814  215811       7  215820  215817
       6  215823  215817       6  215823  215820       7  215829  215826       6
  215832  215826       6  215832  215829       7  215838  215835       6  215841
  215835       6  215841  215838       7  215847  215844       6  215850  215844
       6  215850  215847       7  215856  215853       6  215859  215853       6
  215859  215856       7  215865  215862       6  215868  215862       6  215868
  215865       7  215874  215871       6  215877  215871       6  215877  215874
       7  215883  215880       6  215886  215880       6  215886  215883       7
  215892  215889       6  215895  215889       6  215895  215892       7  215901
  215898       6  215904  215898       6  215904  215901       7  215910  215907
       6  215913  215907       6  215913  215910       7  215919  215916       6
  215922  215916       6  215922  215919       7  215928  215925       6  215931
  215925       6  215931  215928       7  215937  215934       6  215940  215934
       6  215940  215937       7  215946  215943       6  215949  215943       6
  215949  215946       7  215955  215952       6  215958  215952       6  215958
  215955       7  215964  215961       6  215967  215961       6  215967  215964
       7  215973  215970       6  215976  215970       6  215976  215973       7
  215982  215979       6  215985  215979       6  215985  215982       7  215991
  215988       6  215994  215988       6  215994  215991       7  216000  215997
       6  216003  215997       6  216003  216000       7  216009  216006       6
  216012  216006       6  216012  216009       7  216018  216015       6  216021
  216015       6  216021  216018       7  216027  216024       6  216030  216024
       6  216030  216027       7  216036  216033       6  216039  216033       6
  216039  216036       7  216045  216042       6  216048  216042       6  216048
  216045       7  216054  216051       6  216057  216051       6  216057  216054
       7  216063  216060       6  216066  216060       6  216066  216063       7
  216072  216069       6  216075  216069       6  216075  216072       7  216081
  216078       6  216084  216078       6  216084  216081       7  216090  216087
       6  216093  216087       6  216093  216090       7  216099  216096       6
  216102  216096       6  216102  216099       7  216108  216105       6  216111
  216105       6  216111  216108       7  216117  216114       6  216120  216114
       6  216120  216117       7  216126  216123       6  216129  216123       6
  216129  216126       7  216135  216132       6  216138  216132       6  216138
  216135       7  216144  216141       6  216147  216141       6  216147  216144
       7  216153  216150       6  216156  216150       6  216156  216153       7
  216162  216159       6  216165  216159       6  216165  216162       7  216171
  216168       6  216174  216168       6  216174  216171       7  216180  216177
       6  216183  216177       6  216183  216180       7  216189  216186       6
  216192  216186       6  216192  216189       7  216198  216195       6  216201
  216195       6  216201  216198       7  216207  216204       6  216210  216204
       6  216210  216207       7  216216  216213       6  216219  216213       6
  216219  216216       7  216225  216222       6  216228  216222       6  216228
  216225       7  216234  216231       6  216237  216231       6  216237  216234
       7  216243  216240       6  216246  216240       6  216246  216243       7
  216252  216249       6  216255  216249       6  216255  216252       7  216261
  216258       6  216264  216258       6  216264  216261       7  216270  216267
       6  216273  216267       6  216273  216270       7  216279  216276       6
  216282  216276       6  216282  216279       7  216288  216285       6  216291
  216285       6  216291  216288       7  216297  216294       6  216300  216294
       6  216300  216297       7  216306  216303       6  216309  216303       6
  216309  216306       7  216315  216312       6  216318  216312       6  216318
  216315       7  216324  216321       6  216327  216321       6  216327  216324
       7  216333  216330       6  216336  216330       6  216336  216333       7
  216342  216339       6  216345  216339       6  216345  216342       7  216351
  216348       6  216354  216348       6  216354  216351       7  216360  216357
       6  216363  216357       6  216363  216360       7  216369  216366       6
  216372  216366       6  216372  216369       7  216378  216375       6  216381
  216375       6  216381  216378       7  216387  216384       6  216390  216384
       6  216390  216387       7  216396  216393       6  216399  216393       6
  216399  216396       7  216405  216402       6  216408  216402       6  216408
  216405       7  216414  216411       6  216417  216411       6  216417  216414
       7  216423  216420       6  216426  216420       6  216426  216423       7
  216432  216429       6  216435  216429       6  216435  216432       7  216441
  216438       6  216444  216438       6  216444  216441       7  216450  216447
       6  216453  216447       6  216453  216450       7  216459  216456       6
  216462  216456       6  216462  216459       7  216468  216465       6  216471
  216465       6  216471  216468       7  216477  216474       6  216480  216474
       6  216480  216477       7  216486  216483       6  216489  216483       6
  216489  216486       7  216495  216492       6  216498  216492       6  216498
  216495       7  216504  216501       6  216507  216501       6  216507  216504
       7  216513  216510       6  216516  216510       6  216516  216513       7
  216522  216519       6  216525  216519       6  216525  216522       7  216531
  216528       6  216534  216528       6  216534  216531       7  216540  216537
       6  216543  216537       6  216543  216540       7  216549  216546       6
  216552  216546       6  216552  216549       7  216558  216555       6  216561
  216555       6  216561  216558       7  216567  216564       6  216570  216564
       6  216570  216567       7  216576  216573       6  216579  216573       6
  216579  216576       7  216585  216582       6  216588  216582       6  216588
  216585       7  216594  216591       6  216597  216591       6  216597  216594
       7  216603  216600       6  216606  216600       6  216606  216603       7
  216612  216609       6  216615  216609       6  216615  216612       7  216621
  216618       6  216624  216618       6  216624  216621       7  216630  216627
       6  216633  216627       6  216633  216630       7  216639  216636       6
  216642  216636       6  216642  216639       7  216648  216645       6  216651
  216645       6  216651  216648       7  216657  216654       6  216660  216654
       6  216660  216657       7  216666  216663       6  216669  216663       6
  216669  216666       7  216675  216672       6  216678  216672       6  216678
  216675       7  216684  216681       6  216687  216681       6  216687  216684
       7  216693  216690       6  216696  216690       6  216696  216693       7
  216702  216699       6  216705  216699       6  216705  216702       7  216711
  216708       6  216714  216708       6  216714  216711       7  216720  216717
       6  216723  216717       6  216723  216720       7  216729  216726       6
  216732  216726       6  216732  216729       7  216738  216735       6  216741
  216735       6  216741  216738       7  216747  216744       6  216750  216744
       6  216750  216747       7  216756  216753       6  216759  216753       6
  216759  216756       7  216765  216762       6  216768  216762       6  216768
  216765       7  216774  216771       6  216777  216771       6  216777  216774
       7  216783  216780       6  216786  216780       6  216786  216783       7
  216792  216789       6  216795  216789       6  216795  216792       7  216801
  216798       6  216804  216798       6  216804  216801       7  216810  216807
       6  216813  216807       6  216813  216810       7  216819  216816       6
  216822  216816       6  216822  216819       7  216828  216825       6  216831
  216825       6  216831  216828       7  216837  216834       6  216840  216834
       6  216840  216837       7  216846  216843       6  216849  216843       6
  216849  216846       7  216855  216852       6  216858  216852       6  216858
  216855       7  216864  216861       6  216867  216861       6  216867  216864
       7  216873  216870       6  216876  216870       6  216876  216873       7
  216882  216879       6  216885  216879       6  216885  216882       7  216891
  216888       6  216894  216888       6  216894  216891       7  216900  216897
       6  216903  216897       6  216903  216900       7  216909  216906       6
  216912  216906       6  216912  216909       7  216918  216915       6  216921
  216915       6  216921  216918       7  216927  216924       6  216930  216924
       6  216930  216927       7  216936  216933       6  216939  216933       6
  216939  216936       7  216945  216942       6  216948  216942       6  216948
  216945       7  216954  216951       6  216957  216951       6  216957  216954
       7  216963  216960       6  216966  216960       6  216966  216963       7
  216972  216969       6  216975  216969       6  216975  216972       7  216981
  216978       6  216984  216978       6  216984  216981       7  216990  216987
       6  216993  216987       6  216993  216990       7  216999  216996       6
  217002  216996       6  217002  216999       7  217008  217005       6  217011
  217005       6  217011  217008       7  217017  217014       6  217020  217014
       6  217020  217017       7  217026  217023       6  217029  217023       6
  217029  217026       7  217035  217032       6  217038  217032       6  217038
  217035       7  217044  217041       6  217047  217041       6  217047  217044
       7  217053  217050       6  217056  217050       6  217056  217053       7
  217062  217059       6  217065  217059       6  217065  217062       7  217071
  217068       6  217074  217068       6  217074  217071       7  217080  217077
       6  217083  217077       6  217083  217080       7  217089  217086       6
  217092  217086       6  217092  217089       7  217098  217095       6  217101
  217095       6  217101  217098       7  217107  217104       6  217110  217104
       6  217110  217107       7  217116  217113       6  217119  217113       6
  217119  217116       7  217125  217122       6  217128  217122       6  217128
  217125       7  217134  217131       6  217137  217131       6  217137  217134
       7  217143  217140       6  217146  217140       6  217146  217143       7
  217152  217149       6  217155  217149       6  217155  217152       7  217161
  217158       6  217164  217158       6  217164  217161       7  217170  217167
       6  217173  217167       6  217173  217170       7  217179  217176       6
  217182  217176       6  217182  217179       7  217188  217185       6  217191
  217185       6  217191  217188       7  217197  217194       6  217200  217194
       6  217200  217197       7  217206  217203       6  217209  217203       6
  217209  217206       7  217215  217212       6  217218  217212       6  217218
  217215       7  217224  217221       6  217227  217221       6  217227  217224
       7  217233  217230       6  217236  217230       6  217236  217233       7
  217242  217239       6  217245  217239       6  217245  217242       7  217251
  217248       6  217254  217248       6  217254  217251       7  217260  217257
       6  217263  217257       6  217263  217260       7  217269  217266       6
  217272  217266       6  217272  217269       7  217278  217275       6  217281
  217275       6  217281  217278       7  217287  217284       6  217290  217284
       6  217290  217287       7  217296  217293       6  217299  217293       6
  217299  217296       7  217305  217302       6  217308  217302       6  217308
  217305       7  217314  217311       6  217317  217311       6  217317  217314
       7  217323  217320       6  217326  217320       6  217326  217323       7
  217332  217329       6  217335  217329       6  217335  217332       7  217341
  217338       6  217344  217338       6  217344  217341       7  217350  217347
       6  217353  217347       6  217353  217350       7  217359  217356       6
  217362  217356       6  217362  217359       7  217368  217365       6  217371
  217365       6  217371  217368       7  217377  217374       6  217380  217374
       6  217380  217377       7  217386  217383       6  217389  217383       6
  217389  217386       7  217395  217392       6  217398  217392       6  217398
  217395       7  217404  217401       6  217407  217401       6  217407  217404
       7  217413  217410       6  217416  217410       6  217416  217413       7
  217422  217419       6  217425  217419       6  217425  217422       7  217431
  217428       6  217434  217428       6  217434  217431       7  217440  217437
       6  217443  217437       6  217443  217440       7  217449  217446       6
  217452  217446       6  217452  217449       7  217458  217455       6  217461
  217455       6  217461  217458       7  217467  217464       6  217470  217464
       6  217470  217467       7  217476  217473       6  217479  217473       6
  217479  217476       7  217485  217482       6  217488  217482       6  217488
  217485       7  217494  217491       6  217497  217491       6  217497  217494
       7  217503  217500       6  217506  217500       6  217506  217503       7
  217512  217509       6  217515  217509       6  217515  217512       7  217521
  217518       6  217524  217518       6  217524  217521       7  217530  217527
       6  217533  217527       6  217533  217530       7  217539  217536       6
  217542  217536       6  217542  217539       7  217548  217545       6  217551
  217545       6  217551  217548       7  217557  217554       6  217560  217554
       6  217560  217557       7  217566  217563       6  217569  217563       6
  217569  217566       7  217575  217572       6  217578  217572       6  217578
  217575       7  217584  217581       6  217587  217581       6  217587  217584
       7  217593  217590       6  217596  217590       6  217596  217593       7
  217602  217599       6  217605  217599       6  217605  217602       7  217611
  217608       6  217614  217608       6  217614  217611       7  217620  217617
       6  217623  217617       6  217623  217620       7  217629  217626       6
  217632  217626       6  217632  217629       7  217638  217635       6  217641
  217635       6  217641  217638       7  217647  217644       6  217650  217644
       6  217650  217647       7  217656  217653       6  217659  217653       6
  217659  217656       7  217665  217662       6  217668  217662       6  217668
  217665       7  217674  217671       6  217677  217671       6  217677  217674
       7  217683  217680       6  217686  217680       6  217686  217683       7
  217692  217689       6  217695  217689       6  217695  217692       7  217701
  217698       6  217704  217698       6  217704  217701       7  217710  217707
       6  217713  217707       6  217713  217710       7  217719  217716       6
  217722  217716       6  217722  217719       7  217728  217725       6  217731
  217725       6  217731  217728       7  217737  217734       6  217740  217734
       6  217740  217737       7  217746  217743       6  217749  217743       6
  217749  217746       7  217755  217752       6  217758  217752       6  217758
  217755       7  217764  217761       6  217767  217761       6  217767  217764
       7  217773  217770       6  217776  217770       6  217776  217773       7
  217782  217779       6  217785  217779       6  217785  217782       7  217791
  217788       6  217794  217788       6  217794  217791       7  217800  217797
       6  217803  217797       6  217803  217800       7  217809  217806       6
  217812  217806       6  217812  217809       7  217818  217815       6  217821
  217815       6  217821  217818       7  217827  217824       6  217830  217824
       6  217830  217827       7  217836  217833       6  217839  217833       6
  217839  217836       7  217845  217842       6  217848  217842       6  217848
  217845       7  217854  217851       6  217857  217851       6  217857  217854
       7  217863  217860       6  217866  217860       6  217866  217863       7
  217872  217869       6  217875  217869       6  217875  217872       7  217881
  217878       6  217884  217878       6  217884  217881       7  217890  217887
       6  217893  217887       6  217893  217890       7  217899  217896       6
  217902  217896       6  217902  217899       7  217908  217905       6  217911
  217905       6  217911  217908       7  217917  217914       6  217920  217914
       6  217920  217917       7  217926  217923       6  217929  217923       6
  217929  217926       7  217935  217932       6  217938  217932       6  217938
  217935       7  217944  217941       6  217947  217941       6  217947  217944
       7  217953  217950       6  217956  217950       6  217956  217953       7
  217962  217959       6  217965  217959       6  217965  217962       7  217971
  217968       6  217974  217968       6  217974  217971       7  217980  217977
       6  217983  217977       6  217983  217980       7  217989  217986       6
  217992  217986       6  217992  217989       7  217998  217995       6  218001
  217995       6  218001  217998       7  218007  218004       6  218010  218004
       6  218010  218007       7  218016  218013       6  218019  218013       6
  218019  218016       7  218025  218022       6  218028  218022       6  218028
  218025       7  218034  218031       6  218037  218031       6  218037  218034
       7  218043  218040       6  218046  218040       6  218046  218043       7
  218052  218049       6  218055  218049       6  218055  218052       7  218061
  218058       6  218064  218058       6  218064  218061       7  218070  218067
       6  218073  218067       6  218073  218070       7  218079  218076       6
  218082  218076       6  218082  218079       7  218088  218085       6  218091
  218085       6  218091  218088       7  218097  218094       6  218100  218094
       6  218100  218097       7  218106  218103       6  218109  218103       6
  218109  218106       7  218115  218112       6  218118  218112       6  218118
  218115       7  218124  218121       6  218127  218121       6  218127  218124
       7  218133  218130       6  218136  218130       6  218136  218133       7
  218142  218139       6  218145  218139       6  218145  218142       7  218151
  218148       6  218154  218148       6  218154  218151       7  218160  218157
       6  218163  218157       6  218163  218160       7  218169  218166       6
  218172  218166       6  218172  218169       7  218178  218175       6  218181
  218175       6  218181  218178       7  218187  218184       6  218190  218184
       6  218190  218187       7  218196  218193       6  218199  218193       6
  218199  218196       7  218205  218202       6  218208  218202       6  218208
  218205       7  218214  218211       6  218217  218211       6  218217  218214
       7  218223  218220       6  218226  218220       6  218226  218223       7
  218232  218229       6  218235  218229       6  218235  218232       7  218241
  218238       6  218244  218238       6  218244  218241       7  218250  218247
       6  218253  218247       6  218253  218250       7  218259  218256       6
  218262  218256       6  218262  218259       7  218268  218265       6  218271
  218265       6  218271  218268       7  218277  218274       6  218280  218274
       6  218280  218277       7  218286  218283       6  218289  218283       6
  218289  218286       7  218295  218292       6  218298  218292       6  218298
  218295       7  218304  218301       6  218307  218301       6  218307  218304
       7  218313  218310       6  218316  218310       6  218316  218313       7
  218322  218319       6  218325  218319       6  218325  218322       7  218331
  218328       6  218334  218328       6  218334  218331       7  218340  218337
       6  218343  218337       6  218343  218340       7  218349  218346       6
  218352  218346       6  218352  218349       7  218358  218355       6  218361
  218355       6  218361  218358       7  218367  218364       6  218370  218364
       6  218370  218367       7  218376  218373       6  218379  218373       6
  218379  218376       7  218385  218382       6  218388  218382       6  218388
  218385       7  218394  218391       6  218397  218391       6  218397  218394
       7  218403  218400       6  218406  218400       6  218406  218403       7
  218412  218409       6  218415  218409       6  218415  218412       7  218421
  218418       6  218424  218418       6  218424  218421       7  218430  218427
       6  218433  218427       6  218433  218430       7  218439  218436       6
  218442  218436       6  218442  218439       7  218448  218445       6  218451
  218445       6  218451  218448       7  218457  218454       6  218460  218454
       6  218460  218457       7  218466  218463       6  218469  218463       6
  218469  218466       7  218475  218472       6  218478  218472       6  218478
  218475       7  218484  218481       6  218487  218481       6  218487  218484
       7  218493  218490       6  218496  218490       6  218496  218493       7
  218502  218499       6  218505  218499       6  218505  218502       7  218511
  218508       6  218514  218508       6  218514  218511       7  218520  218517
       6  218523  218517       6  218523  218520       7  218529  218526       6
  218532  218526       6  218532  218529       7  218538  218535       6  218541
  218535       6  218541  218538       7  218547  218544       6  218550  218544
       6  218550  218547       7  218556  218553       6  218559  218553       6
  218559  218556       7  218565  218562       6  218568  218562       6  218568
  218565       7  218574  218571       6  218577  218571       6  218577  218574
       7  218583  218580       6  218586  218580       6  218586  218583       7
  218592  218589       6  218595  218589       6  218595  218592       7  218601
  218598       6  218604  218598       6  218604  218601       7  218610  218607
       6  218613  218607       6  218613  218610       7  218619  218616       6
  218622  218616       6  218622  218619       7  218628  218625       6  218631
  218625       6  218631  218628       7  218637  218634       6  218640  218634
       6  218640  218637       7  218646  218643       6  218649  218643       6
  218649  218646       7  218655  218652       6  218658  218652       6  218658
  218655       7  218664  218661       6  218667  218661       6  218667  218664
       7  218673  218670       6  218676  218670       6  218676  218673       7
  218682  218679       6  218685  218679       6  218685  218682       7  218691
  218688       6  218694  218688       6  218694  218691       7  218700  218697
       6  218703  218697       6  218703  218700       7  218709  218706       6
  218712  218706       6  218712  218709       7  218718  218715       6  218721
  218715       6  218721  218718       7  218727  218724       6  218730  218724
       6  218730  218727       7  218736  218733       6  218739  218733       6
  218739  218736       7  218745  218742       6  218748  218742       6  218748
  218745       7  218754  218751       6  218757  218751       6  218757  218754
       7  218763  218760       6  218766  218760       6  218766  218763       7
  218772  218769       6  218775  218769       6  218775  218772       7  218781
  218778       6  218784  218778       6  218784  218781       7  218790  218787
       6  218793  218787       6  218793  218790       7  218799  218796       6
  218802  218796       6  218802  218799       7  218808  218805       6  218811
  218805       6  218811  218808       7  218817  218814       6  218820  218814
       6  218820  218817       7  218826  218823       6  218829  218823       6
  218829  218826       7  218835  218832       6  218838  218832       6  218838
  218835       7  218844  218841       6  218847  218841       6  218847  218844
       7  218853  218850       6  218856  218850       6  218856  218853       7
  218862  218859       6  218865  218859       6  218865  218862       7  218871
  218868       6  218874  218868       6  218874  218871       7  218880  218877
       6  218883  218877       6  218883  218880       7  218889  218886       6
  218892  218886       6  218892  218889       7  218898  218895       6  218901
  218895       6  218901  218898       7  218907  218904       6  218910  218904
       6  218910  218907       7  218916  218913       6  218919  218913       6
  218919  218916       7  218925  218922       6  218928  218922       6  218928
  218925       7  218934  218931       6  218937  218931       6  218937  218934
       7  218943  218940       6  218946  218940       6  218946  218943       7
  218952  218949       6  218955  218949       6  218955  218952       7  218961
  218958       6  218964  218958       6  218964  218961       7  218970  218967
       6  218973  218967       6  218973  218970       7  218979  218976       6
  218982  218976       6  218982  218979       7  218988  218985       6  218991
  218985       6  218991  218988       7  218997  218994       6  219000  218994
       6  219000  218997       7  219006  219003       6  219009  219003       6
  219009  219006       7  219015  219012       6  219018  219012       6  219018
  219015       7  219024  219021       6  219027  219021       6  219027  219024
       7  219033  219030       6  219036  219030       6  219036  219033       7
  219042  219039       6  219045  219039       6  219045  219042       7  219051
  219048       6  219054  219048       6  219054  219051       7  219060  219057
       6  219063  219057       6  219063  219060       7  219069  219066       6
  219072  219066       6  219072  219069       7  219078  219075       6  219081
  219075       6  219081  219078       7  219087  219084       6  219090  219084
       6  219090  219087       7  219096  219093       6  219099  219093       6
  219099  219096       7  219105  219102       6  219108  219102       6  219108
  219105       7  219114  219111       6  219117  219111       6  219117  219114
       7  219123  219120       6  219126  219120       6  219126  219123       7
  219132  219129       6  219135  219129       6  219135  219132       7  219141
  219138       6  219144  219138       6  219144  219141       7  219150  219147
       6  219153  219147       6  219153  219150       7  219159  219156       6
  219162  219156       6  219162  219159       7  219168  219165       6  219171
  219165       6  219171  219168       7  219177  219174       6  219180  219174
       6  219180  219177       7  219186  219183       6  219189  219183       6
  219189  219186       7  219195  219192       6  219198  219192       6  219198
  219195       7  219204  219201       6  219207  219201       6  219207  219204
       7  219213  219210       6  219216  219210       6  219216  219213       7
  219222  219219       6  219225  219219       6  219225  219222       7  219231
  219228       6  219234  219228       6  219234  219231       7  219240  219237
       6  219243  219237       6  219243  219240       7  219249  219246       6
  219252  219246       6  219252  219249       7  219258  219255       6  219261
  219255       6  219261  219258       7  219267  219264       6  219270  219264
       6  219270  219267       7  219276  219273       6  219279  219273       6
  219279  219276       7  219285  219282       6  219288  219282       6  219288
  219285       7  219294  219291       6  219297  219291       6  219297  219294
       7  219303  219300       6  219306  219300       6  219306  219303       7
  219312  219309       6  219315  219309       6  219315  219312       7  219321
  219318       6  219324  219318       6  219324  219321       7  219330  219327
       6  219333  219327       6  219333  219330       7  219339  219336       6
  219342  219336       6  219342  219339       7  219348  219345       6  219351
  219345       6  219351  219348       7  219357  219354       6  219360  219354
       6  219360  219357       7  219366  219363       6  219369  219363       6
  219369  219366       7  219375  219372       6  219378  219372       6  219378
  219375       7  219384  219381       6  219387  219381       6  219387  219384
       7  219393  219390       6  219396  219390       6  219396  219393       7
  219402  219399       6  219405  219399       6  219405  219402       7  219411
  219408       6  219414  219408       6  219414  219411       7  219420  219417
       6  219423  219417       6  219423  219420       7  219429  219426       6
  219432  219426       6  219432  219429       7  219438  219435       6  219441
  219435       6  219441  219438       7  219447  219444       6  219450  219444
       6  219450  219447       7  219456  219453       6  219459  219453       6
  219459  219456       7  219465  219462       6  219468  219462       6  219468
  219465       7  219474  219471       6  219477  219471       6  219477  219474
       7  219483  219480       6  219486  219480       6  219486  219483       7
  219492  219489       6  219495  219489       6  219495  219492       7  219501
  219498       6  219504  219498       6  219504  219501       7  219510  219507
       6  219513  219507       6  219513  219510       7  219519  219516       6
  219522  219516       6  219522  219519       7  219528  219525       6  219531
  219525       6  219531  219528       7  219537  219534       6  219540  219534
       6  219540  219537       7  219546  219543       6  219549  219543       6
  219549  219546       7  219555  219552       6  219558  219552       6  219558
  219555       7  219564  219561       6  219567  219561       6  219567  219564
       7  219573  219570       6  219576  219570       6  219576  219573       7
  219582  219579       6  219585  219579       6  219585  219582       7  219591
  219588       6  219594  219588       6  219594  219591       7  219600  219597
       6  219603  219597       6  219603  219600       7  219609  219606       6
  219612  219606       6  219612  219609       7  219618  219615       6  219621
  219615       6  219621  219618       7  219627  219624       6  219630  219624
       6  219630  219627       7  219636  219633       6  219639  219633       6
  219639  219636       7  219645  219642       6  219648  219642       6  219648
  219645       7  219654  219651       6  219657  219651       6  219657  219654
       7  219663  219660       6  219666  219660       6  219666  219663       7
  219672  219669       6  219675  219669       6  219675  219672       7  219681
  219678       6  219684  219678       6  219684  219681       7  219690  219687
       6  219693  219687       6  219693  219690       7  219699  219696       6
  219702  219696       6  219702  219699       7  219708  219705       6  219711
  219705       6  219711  219708       7  219717  219714       6  219720  219714
       6  219720  219717       7  219726  219723       6  219729  219723       6
  219729  219726       7  219735  219732       6  219738  219732       6  219738
  219735       7  219744  219741       6  219747  219741       6  219747  219744
       7  219753  219750       6  219756  219750       6  219756  219753       7
  219762  219759       6  219765  219759       6  219765  219762       7  219771
  219768       6  219774  219768       6  219774  219771       7  219780  219777
       6  219783  219777       6  219783  219780       7  219789  219786       6
  219792  219786       6  219792  219789       7  219798  219795       6  219801
  219795       6  219801  219798       7  219807  219804       6  219810  219804
       6  219810  219807       7  219816  219813       6  219819  219813       6
  219819  219816       7  219825  219822       6  219828  219822       6  219828
  219825       7  219834  219831       6  219837  219831       6  219837  219834
       7  219843  219840       6  219846  219840       6  219846  219843       7
  219852  219849       6  219855  219849       6  219855  219852       7  219861
  219858       6  219864  219858       6  219864  219861       7  219870  219867
       6  219873  219867       6  219873  219870       7  219879  219876       6
  219882  219876       6  219882  219879       7  219888  219885       6  219891
  219885       6  219891  219888       7  219897  219894       6  219900  219894
       6  219900  219897       7  219906  219903       6  219909  219903       6
  219909  219906       7  219915  219912       6  219918  219912       6  219918
  219915       7  219924  219921       6  219927  219921       6  219927  219924
       7  219933  219930       6  219936  219930       6  219936  219933       7
  219942  219939       6  219945  219939       6  219945  219942       7  219951
  219948       6  219954  219948       6  219954  219951       7  219960  219957
       6  219963  219957       6  219963  219960       7  219969  219966       6
  219972  219966       6  219972  219969       7  219978  219975       6  219981
  219975       6  219981  219978       7  219987  219984       6  219990  219984
       6  219990  219987       7  219996  219993       6  219999  219993       6
  219999  219996       7  220005  220002       6  220008  220002       6  220008
  220005       7  220014  220011       6  220017  220011       6  220017  220014
       7  220023  220020       6  220026  220020       6  220026  220023       7
  220032  220029       6  220035  220029       6  220035  220032       7  220041
  220038       6  220044  220038       6  220044  220041       7  220050  220047
       6  220053  220047       6  220053  220050       7  220059  220056       6
  220062  220056       6  220062  220059       7  220068  220065       6  220071
  220065       6  220071  220068       7  220077  220074       6  220080  220074
       6  220080  220077       7  220086  220083       6  220089  220083       6
  220089  220086       7  220095  220092       6  220098  220092       6  220098
  220095       7  220104  220101       6  220107  220101       6  220107  220104
       7  220113  220110       6  220116  220110       6  220116  220113       7
  220122  220119       6  220125  220119       6  220125  220122       7  220131
  220128       6  220134  220128       6  220134  220131       7  220140  220137
       6  220143  220137       6  220143  220140       7  220149  220146       6
  220152  220146       6  220152  220149       7  220158  220155       6  220161
  220155       6  220161  220158       7  220167  220164       6  220170  220164
       6  220170  220167       7  220176  220173       6  220179  220173       6
  220179  220176       7  220185  220182       6  220188  220182       6  220188
  220185       7  220194  220191       6  220197  220191       6  220197  220194
       7  220203  220200       6  220206  220200       6  220206  220203       7
  220212  220209       6  220215  220209       6  220215  220212       7  220221
  220218       6  220224  220218       6  220224  220221       7  220230  220227
       6  220233  220227       6  220233  220230       7  220239  220236       6
  220242  220236       6  220242  220239       7  220248  220245       6  220251
  220245       6  220251  220248       7  220257  220254       6  220260  220254
       6  220260  220257       7  220266  220263       6  220269  220263       6
  220269  220266       7  220275  220272       6  220278  220272       6  220278
  220275       7  220284  220281       6  220287  220281       6  220287  220284
       7  220293  220290       6  220296  220290       6  220296  220293       7
  220302  220299       6  220305  220299       6  220305  220302       7  220311
  220308       6  220314  220308       6  220314  220311       7  220320  220317
       6  220323  220317       6  220323  220320       7  220329  220326       6
  220332  220326       6  220332  220329       7  220338  220335       6  220341
  220335       6  220341  220338       7  220347  220344       6  220350  220344
       6  220350  220347       7  220356  220353       6  220359  220353       6
  220359  220356       7  220365  220362       6  220368  220362       6  220368
  220365       7  220374  220371       6  220377  220371       6  220377  220374
       7  220383  220380       6  220386  220380       6  220386  220383       7
  220392  220389       6  220395  220389       6  220395  220392       7  220401
  220398       6  220404  220398       6  220404  220401       7  220410  220407
       6  220413  220407       6  220413  220410       7  220419  220416       6
  220422  220416       6  220422  220419       7  220428  220425       6  220431
  220425       6  220431  220428       7  220437  220434       6  220440  220434
       6  220440  220437       7  220446  220443       6  220449  220443       6
  220449  220446       7  220455  220452       6  220458  220452       6  220458
  220455       7  220464  220461       6  220467  220461       6  220467  220464
       7  220473  220470       6  220476  220470       6  220476  220473       7
  220482  220479       6  220485  220479       6  220485  220482       7  220491
  220488       6  220494  220488       6  220494  220491       7  220500  220497
       6  220503  220497       6  220503  220500       7  220509  220506       6
  220512  220506       6  220512  220509       7  220518  220515       6  220521
  220515       6  220521  220518       7  220527  220524       6  220530  220524
       6  220530  220527       7  220536  220533       6  220539  220533       6
  220539  220536       7  220545  220542       6  220548  220542       6  220548
  220545       7  220554  220551       6  220557  220551       6  220557  220554
       7  220563  220560       6  220566  220560       6  220566  220563       7
  220572  220569       6  220575  220569       6  220575  220572       7  220581
  220578       6  220584  220578       6  220584  220581       7  220590  220587
       6  220593  220587       6  220593  220590       7  220599  220596       6
  220602  220596       6  220602  220599       7  220608  220605       6  220611
  220605       6  220611  220608       7  220617  220614       6  220620  220614
       6  220620  220617       7  220626  220623       6  220629  220623       6
  220629  220626       7  220635  220632       6  220638  220632       6  220638
  220635       7  220644  220641       6  220647  220641       6  220647  220644
       7  220653  220650       6  220656  220650       6  220656  220653       7
  220662  220659       6  220665  220659       6  220665  220662       7  220671
  220668       6  220674  220668       6  220674  220671       7  220680  220677
       6  220683  220677       6  220683  220680       7  220689  220686       6
  220692  220686       6  220692  220689       7  220698  220695       6  220701
  220695       6  220701  220698       7  220707  220704       6  220710  220704
       6  220710  220707       7  220716  220713       6  220719  220713       6
  220719  220716       7  220725  220722       6  220728  220722       6  220728
  220725       7  220734  220731       6  220737  220731       6  220737  220734
       7  220743  220740       6  220746  220740       6  220746  220743       7
  220752  220749       6  220755  220749       6  220755  220752       7  220761
  220758       6  220764  220758       6  220764  220761       7  220770  220767
       6  220773  220767       6  220773  220770       7  220779  220776       6
  220782  220776       6  220782  220779       7  220788  220785       6  220791
  220785       6  220791  220788       7  220797  220794       6  220800  220794
       6  220800  220797       7  220806  220803       6  220809  220803       6
  220809  220806       7  220815  220812       6  220818  220812       6  220818
  220815       7  220824  220821       6  220827  220821       6  220827  220824
       7  220833  220830       6  220836  220830       6  220836  220833       7
  220842  220839       6  220845  220839       6  220845  220842       7  220851
  220848       6  220854  220848       6  220854  220851       7  220860  220857
       6  220863  220857       6  220863  220860       7  220869  220866       6
  220872  220866       6  220872  220869       7  220878  220875       6  220881
  220875       6  220881  220878       7  220887  220884       6  220890  220884
       6  220890  220887       7  220896  220893       6  220899  220893       6
  220899  220896       7  220905  220902       6  220908  220902       6  220908
  220905       7  220914  220911       6  220917  220911       6  220917  220914
       7  220923  220920       6  220926  220920       6  220926  220923       7
  220932  220929       6  220935  220929       6  220935  220932       7  220941
  220938       6  220944  220938       6  220944  220941       7  220950  220947
       6  220953  220947       6  220953  220950       7  220959  220956       6
  220962  220956       6  220962  220959       7  220968  220965       6  220971
  220965       6  220971  220968       7  220977  220974       6  220980  220974
       6  220980  220977       7  220986  220983       6  220989  220983       6
  220989  220986       7  220995  220992       6  220998  220992       6  220998
  220995       7  221004  221001       6  221007  221001       6  221007  221004
       7  221013  221010       6  221016  221010       6  221016  221013       7
  221022  221019       6  221025  221019       6  221025  221022       7  221031
  221028       6  221034  221028       6  221034  221031       7  221040  221037
       6  221043  221037       6  221043  221040       7  221049  221046       6
  221052  221046       6  221052  221049       7  221058  221055       6  221061
  221055       6  221061  221058       7  221067  221064       6  221070  221064
       6  221070  221067       7  221076  221073       6  221079  221073       6
  221079  221076       7  221085  221082       6  221088  221082       6  221088
  221085       7  221094  221091       6  221097  221091       6  221097  221094
       7  221103  221100       6  221106  221100       6  221106  221103       7
  221112  221109       6  221115  221109       6  221115  221112       7  221121
  221118       6  221124  221118       6  221124  221121       7  221130  221127
       6  221133  221127       6  221133  221130       7  221139  221136       6
  221142  221136       6  221142  221139       7  221148  221145       6  221151
  221145       6  221151  221148       7  221157  221154       6  221160  221154
       6  221160  221157       7  221166  221163       6  221169  221163       6
  221169  221166       7  221175  221172       6  221178  221172       6  221178
  221175       7  221184  221181       6  221187  221181       6  221187  221184
       7  221193  221190       6  221196  221190       6  221196  221193       7
  221202  221199       6  221205  221199       6  221205  221202       7  221211
  221208       6  221214  221208       6  221214  221211       7  221220  221217
       6  221223  221217       6  221223  221220       7  221229  221226       6
  221232  221226       6  221232  221229       7  221238  221235       6  221241
  221235       6  221241  221238       7  221247  221244       6  221250  221244
       6  221250  221247       7  221256  221253       6  221259  221253       6
  221259  221256       7  221265  221262       6  221268  221262       6  221268
  221265       7  221274  221271       6  221277  221271       6  221277  221274
       7  221283  221280       6  221286  221280       6  221286  221283       7
  221292  221289       6  221295  221289       6  221295  221292       7  221301
  221298       6  221304  221298       6  221304  221301       7  221310  221307
       6  221313  221307       6  221313  221310       7  221319  221316       6
  221322  221316       6  221322  221319       7  221328  221325       6  221331
  221325       6  221331  221328       7  221337  221334       6  221340  221334
       6  221340  221337       7  221346  221343       6  221349  221343       6
  221349  221346       7  221355  221352       6  221358  221352       6  221358
  221355       7  221364  221361       6  221367  221361       6  221367  221364
       7  221373  221370       6  221376  221370       6  221376  221373       7
  221382  221379       6  221385  221379       6  221385  221382       7  221391
  221388       6  221394  221388       6  221394  221391       7  221400  221397
       6  221403  221397       6  221403  221400       7  221409  221406       6
  221412  221406       6  221412  221409       7  221418  221415       6  221421
  221415       6  221421  221418       7  221427  221424       6  221430  221424
       6  221430  221427       7  221436  221433       6  221439  221433       6
  221439  221436       7  221445  221442       6  221448  221442       6  221448
  221445       7  221454  221451       6  221457  221451       6  221457  221454
       7  221463  221460       6  221466  221460       6  221466  221463       7
  221472  221469       6  221475  221469       6  221475  221472       7  221481
  221478       6  221484  221478       6  221484  221481       7  221490  221487
       6  221493  221487       6  221493  221490       7  221499  221496       6
  221502  221496       6  221502  221499       7  221508  221505       6  221511
  221505       6  221511  221508       7  221517  221514       6  221520  221514
       6  221520  221517       7  221526  221523       6  221529  221523       6
  221529  221526       7  221535  221532       6  221538  221532       6  221538
  221535       7  221544  221541       6  221547  221541       6  221547  221544
       7  221553  221550       6  221556  221550       6  221556  221553       7
  221562  221559       6  221565  221559       6  221565  221562       7  221571
  221568       6  221574  221568       6  221574  221571       7  221580  221577
       6  221583  221577       6  221583  221580       7  221589  221586       6
  221592  221586       6  221592  221589       7  221598  221595       6  221601
  221595       6  221601  221598       7  221607  221604       6  221610  221604
       6  221610  221607       7  221616  221613       6  221619  221613       6
  221619  221616       7  221625  221622       6  221628  221622       6  221628
  221625       7  221634  221631       6  221637  221631       6  221637  221634
       7  221643  221640       6  221646  221640       6  221646  221643       7
  221652  221649       6  221655  221649       6  221655  221652       7  221661
  221658       6  221664  221658       6  221664  221661       7  221670  221667
       6  221673  221667       6  221673  221670       7  221679  221676       6
  221682  221676       6  221682  221679       7  221688  221685       6  221691
  221685       6  221691  221688       7  221697  221694       6  221700  221694
       6  221700  221697       7  221706  221703       6  221709  221703       6
  221709  221706       7  221715  221712       6  221718  221712       6  221718
  221715       7  221724  221721       6  221727  221721       6  221727  221724
       7  221733  221730       6  221736  221730       6  221736  221733       7
  221742  221739       6  221745  221739       6  221745  221742       7  221751
  221748       6  221754  221748       6  221754  221751       7  221760  221757
       6  221763  221757       6  221763  221760       7  221769  221766       6
  221772  221766       6  221772  221769       7  221778  221775       6  221781
  221775       6  221781  221778       7  221787  221784       6  221790  221784
       6  221790  221787       7  221796  221793       6  221799  221793       6
  221799  221796       7  221805  221802       6  221808  221802       6  221808
  221805       7  221814  221811       6  221817  221811       6  221817  221814
       7  221823  221820       6  221826  221820       6  221826  221823       7
  221832  221829       6  221835  221829       6  221835  221832       7  221841
  221838       6  221844  221838       6  221844  221841       7  221850  221847
       6  221853  221847       6  221853  221850       7  221859  221856       6
  221862  221856       6  221862  221859       7  221868  221865       6  221871
  221865       6  221871  221868       7  221877  221874       6  221880  221874
       6  221880  221877       7  221886  221883       6  221889  221883       6
  221889  221886       7  221895  221892       6  221898  221892       6  221898
  221895       7  221904  221901       6  221907  221901       6  221907  221904
       7  221913  221910       6  221916  221910       6  221916  221913       7
  221922  221919       6  221925  221919       6  221925  221922       7  221931
  221928       6  221934  221928       6  221934  221931       7  221940  221937
       6  221943  221937       6  221943  221940       7  221949  221946       6
  221952  221946       6  221952  221949       7  221958  221955       6  221961
  221955       6  221961  221958       7  221967  221964       6  221970  221964
       6  221970  221967       7  221976  221973       6  221979  221973       6
  221979  221976       7  221985  221982       6  221988  221982       6  221988
  221985       7  221994  221991       6  221997  221991       6  221997  221994
       7  222003  222000       6  222006  222000       6  222006  222003       7
  222012  222009       6  222015  222009       6  222015  222012       7  222021
  222018       6  222024  222018       6  222024  222021       7  222030  222027
       6  222033  222027       6  222033  222030       7  222039  222036       6
  222042  222036       6  222042  222039       7  222048  222045       6  222051
  222045       6  222051  222048       7  222057  222054       6  222060  222054
       6  222060  222057       7  222066  222063       6  222069  222063       6
  222069  222066       7  222075  222072       6  222078  222072       6  222078
  222075       7  222084  222081       6  222087  222081       6  222087  222084
       7  222093  222090       6  222096  222090       6  222096  222093       7
  222102  222099       6  222105  222099       6  222105  222102       7  222111
  222108       6  222114  222108       6  222114  222111       7  222120  222117
       6  222123  222117       6  222123  222120       7  222129  222126       6
  222132  222126       6  222132  222129       7  222138  222135       6  222141
  222135       6  222141  222138       7  222147  222144       6  222150  222144
       6  222150  222147       7  222156  222153       6  222159  222153       6
  222159  222156       7  222165  222162       6  222168  222162       6  222168
  222165       7  222174  222171       6  222177  222171       6  222177  222174
       7  222183  222180       6  222186  222180       6  222186  222183       7
  222192  222189       6  222195  222189       6  222195  222192       7  222201
  222198       6  222204  222198       6  222204  222201       7  222210  222207
       6  222213  222207       6  222213  222210       7  222219  222216       6
  222222  222216       6  222222  222219       7  222228  222225       6  222231
  222225       6  222231  222228       7  222237  222234       6  222240  222234
       6  222240  222237       7  222246  222243       6  222249  222243       6
  222249  222246       7  222255  222252       6  222258  222252       6  222258
  222255       7  222264  222261       6  222267  222261       6  222267  222264
       7  222273  222270       6  222276  222270       6  222276  222273       7
  222282  222279       6  222285  222279       6  222285  222282       7  222291
  222288       6  222294  222288       6  222294  222291       7  222300  222297
       6  222303  222297       6  222303  222300       7  222309  222306       6
  222312  222306       6  222312  222309       7  222318  222315       6  222321
  222315       6  222321  222318       7  222327  222324       6  222330  222324
       6  222330  222327       7  222336  222333       6  222339  222333       6
  222339  222336       7  222345  222342       6  222348  222342       6  222348
  222345       7  222354  222351       6  222357  222351       6  222357  222354
       7  222363  222360       6  222366  222360       6  222366  222363       7
  222372  222369       6  222375  222369       6  222375  222372       7  222381
  222378       6  222384  222378       6  222384  222381       7  222390  222387
       6  222393  222387       6  222393  222390       7  222399  222396       6
  222402  222396       6  222402  222399       7  222408  222405       6  222411
  222405       6  222411  222408       7  222417  222414       6  222420  222414
       6  222420  222417       7  222426  222423       6  222429  222423       6
  222429  222426       7  222435  222432       6  222438  222432       6  222438
  222435       7  222444  222441       6  222447  222441       6  222447  222444
       7  222453  222450       6  222456  222450       6  222456  222453       7
  222462  222459       6  222465  222459       6  222465  222462       7  222471
  222468       6  222474  222468       6  222474  222471       7  222480  222477
       6  222483  222477       6  222483  222480       7  222489  222486       6
  222492  222486       6  222492  222489       7  222498  222495       6  222501
  222495       6  222501  222498       7  222507  222504       6  222510  222504
       6  222510  222507       7  222516  222513       6  222519  222513       6
  222519  222516       7  222525  222522       6  222528  222522       6  222528
  222525       7  222534  222531       6  222537  222531       6  222537  222534
       7  222543  222540       6  222546  222540       6  222546  222543       7
  222552  222549       6  222555  222549       6  222555  222552       7  222561
  222558       6  222564  222558       6  222564  222561       7  222570  222567
       6  222573  222567       6  222573  222570       7  222579  222576       6
  222582  222576       6  222582  222579       7  222588  222585       6  222591
  222585       6  222591  222588       7  222597  222594       6  222600  222594
       6  222600  222597       7  222606  222603       6  222609  222603       6
  222609  222606       7  222615  222612       6  222618  222612       6  222618
  222615       7  222624  222621       6  222627  222621       6  222627  222624
       7  222633  222630       6  222636  222630       6  222636  222633       7
  222642  222639       6  222645  222639       6  222645  222642       7  222651
  222648       6  222654  222648       6  222654  222651       7  222660  222657
       6  222663  222657       6  222663  222660       7  222669  222666       6
  222672  222666       6  222672  222669       7  222678  222675       6  222681
  222675       6  222681  222678       7  222687  222684       6  222690  222684
       6  222690  222687       7  222696  222693       6  222699  222693       6
  222699  222696       7  222705  222702       6  222708  222702       6  222708
  222705       7  222714  222711       6  222717  222711       6  222717  222714
       7  222723  222720       6  222726  222720       6  222726  222723       7
  222732  222729       6  222735  222729       6  222735  222732       7  222741
  222738       6  222744  222738       6  222744  222741       7  222750  222747
       6  222753  222747       6  222753  222750       7  222759  222756       6
  222762  222756       6  222762  222759       7  222768  222765       6  222771
  222765       6  222771  222768       7  222777  222774       6  222780  222774
       6  222780  222777       7  222786  222783       6  222789  222783       6
  222789  222786       7  222795  222792       6  222798  222792       6  222798
  222795       7  222804  222801       6  222807  222801       6  222807  222804
       7  222813  222810       6  222816  222810       6  222816  222813       7
  222822  222819       6  222825  222819       6  222825  222822       7  222831
  222828       6  222834  222828       6  222834  222831       7  222840  222837
       6  222843  222837       6  222843  222840       7  222849  222846       6
  222852  222846       6  222852  222849       7  222858  222855       6  222861
  222855       6  222861  222858       7  222867  222864       6  222870  222864
       6  222870  222867       7  222876  222873       6  222879  222873       6
  222879  222876       7  222885  222882       6  222888  222882       6  222888
  222885       7  222894  222891       6  222897  222891       6  222897  222894
       7  222903  222900       6  222906  222900       6  222906  222903       7
  222912  222909       6  222915  222909       6  222915  222912       7  222921
  222918       6  222924  222918       6  222924  222921       7  222930  222927
       6  222933  222927       6  222933  222930       7  222939  222936       6
  222942  222936       6  222942  222939       7  222948  222945       6  222951
  222945       6  222951  222948       7  222957  222954       6  222960  222954
       6  222960  222957       7  222966  222963       6  222969  222963       6
  222969  222966       7  222975  222972       6  222978  222972       6  222978
  222975       7  222984  222981       6  222987  222981       6  222987  222984
       7  222993  222990       6  222996  222990       6  222996  222993       7
  223002  222999       6  223005  222999       6  223005  223002       7  223011
  223008       6  223014  223008       6  223014  223011       7  223020  223017
       6  223023  223017       6  223023  223020       7  223029  223026       6
  223032  223026       6  223032  223029       7  223038  223035       6  223041
  223035       6  223041  223038       7  223047  223044       6  223050  223044
       6  223050  223047       7  223056  223053       6  223059  223053       6
  223059  223056       7  223065  223062       6  223068  223062       6  223068
  223065       7  223074  223071       6  223077  223071       6  223077  223074
       7  223083  223080       6  223086  223080       6  223086  223083       7
  223092  223089       6  223095  223089       6  223095  223092       7  223101
  223098       6  223104  223098       6  223104  223101       7  223110  223107
       6  223113  223107       6  223113  223110       7  223119  223116       6
  223122  223116       6  223122  223119       7  223128  223125       6  223131
  223125       6  223131  223128       7  223137  223134       6  223140  223134
       6  223140  223137       7  223146  223143       6  223149  223143       6
  223149  223146       7  223155  223152       6  223158  223152       6  223158
  223155       7  223164  223161       6  223167  223161       6  223167  223164
       7  223173  223170       6  223176  223170       6  223176  223173       7
  223182  223179       6  223185  223179       6  223185  223182       7  223191
  223188       6  223194  223188       6  223194  223191       7  223200  223197
       6  223203  223197       6  223203  223200       7  223209  223206       6
  223212  223206       6  223212  223209       7  223218  223215       6  223221
  223215       6  223221  223218       7  223227  223224       6  223230  223224
       6  223230  223227       7  223236  223233       6  223239  223233       6
  223239  223236       7  223245  223242       6  223248  223242       6  223248
  223245       7  223254  223251       6  223257  223251       6  223257  223254
       7  223263  223260       6  223266  223260       6  223266  223263       7
  223272  223269       6  223275  223269       6  223275  223272       7  223281
  223278       6  223284  223278       6  223284  223281       7  223290  223287
       6  223293  223287       6  223293  223290       7  223299  223296       6
  223302  223296       6  223302  223299       7  223308  223305       6  223311
  223305       6  223311  223308       7  223317  223314       6  223320  223314
       6  223320  223317       7  223326  223323       6  223329  223323       6
  223329  223326       7  223335  223332       6  223338  223332       6  223338
  223335       7  223344  223341       6  223347  223341       6  223347  223344
       7  223353  223350       6  223356  223350       6  223356  223353       7
  223362  223359       6  223365  223359       6  223365  223362       7  223371
  223368       6  223374  223368       6  223374  223371       7  223380  223377
       6  223383  223377       6  223383  223380       7  223389  223386       6
  223392  223386       6  223392  223389       7  223398  223395       6  223401
  223395       6  223401  223398       7  223407  223404       6  223410  223404
       6  223410  223407       7  223416  223413       6  223419  223413       6
  223419  223416       7  223425  223422       6  223428  223422       6  223428
  223425       7  223434  223431       6  223437  223431       6  223437  223434
       7  223443  223440       6  223446  223440       6  223446  223443       7
  223452  223449       6  223455  223449       6  223455  223452       7  223461
  223458       6  223464  223458       6  223464  223461       7  223470  223467
       6  223473  223467       6  223473  223470       7  223479  223476       6
  223482  223476       6  223482  223479       7  223488  223485       6  223491
  223485       6  223491  223488       7  223497  223494       6  223500  223494
       6  223500  223497       7  223506  223503       6  223509  223503       6
  223509  223506       7  223515  223512       6  223518  223512       6  223518
  223515       7  223524  223521       6  223527  223521       6  223527  223524
       7  223533  223530       6  223536  223530       6  223536  223533       7
  223542  223539       6  223545  223539       6  223545  223542       7  223551
  223548       6  223554  223548       6  223554  223551       7  223560  223557
       6  223563  223557       6  223563  223560       7  223569  223566       6
  223572  223566       6  223572  223569       7  223578  223575       6  223581
  223575       6  223581  223578       7  223587  223584       6  223590  223584
       6  223590  223587       7  223596  223593       6  223599  223593       6
  223599  223596       7  223605  223602       6  223608  223602       6  223608
  223605       7  223614  223611       6  223617  223611       6  223617  223614
       7  223623  223620       6  223626  223620       6  223626  223623       7
  223632  223629       6  223635  223629       6  223635  223632       7  223641
  223638       6  223644  223638       6  223644  223641       7  223650  223647
       6  223653  223647       6  223653  223650       7  223659  223656       6
  223662  223656       6  223662  223659       7  223668  223665       6  223671
  223665       6  223671  223668       7  223677  223674       6  223680  223674
       6  223680  223677       7  223686  223683       6  223689  223683       6
  223689  223686       7  223695  223692       6  223698  223692       6  223698
  223695       7  223704  223701       6  223707  223701       6  223707  223704
       7  223713  223710       6  223716  223710       6  223716  223713       7
  223722  223719       6  223725  223719       6  223725  223722       7  223731
  223728       6  223734  223728       6  223734  223731       7  223740  223737
       6  223743  223737       6  223743  223740       7  223749  223746       6
  223752  223746       6  223752  223749       7  223758  223755       6  223761
  223755       6  223761  223758       7  223767  223764       6  223770  223764
       6  223770  223767       7  223776  223773       6  223779  223773       6
  223779  223776       7  223785  223782       6  223788  223782       6  223788
  223785       7  223794  223791       6  223797  223791       6  223797  223794
       7  223803  223800       6  223806  223800       6  223806  223803       7
  223812  223809       6  223815  223809       6  223815  223812       7  223821
  223818       6  223824  223818       6  223824  223821       7  223830  223827
       6  223833  223827       6  223833  223830       7  223839  223836       6
  223842  223836       6  223842  223839       7  223848  223845       6  223851
  223845       6  223851  223848       7  223857  223854       6  223860  223854
       6  223860  223857       7  223866  223863       6  223869  223863       6
  223869  223866       7  223875  223872       6  223878  223872       6  223878
  223875       7  223884  223881       6  223887  223881       6  223887  223884
       7  223893  223890       6  223896  223890       6  223896  223893       7
  223902  223899       6  223905  223899       6  223905  223902       7  223911
  223908       6  223914  223908       6  223914  223911       7  223920  223917
       6  223923  223917       6  223923  223920       7  223929  223926       6
  223932  223926       6  223932  223929       7  223938  223935       6  223941
  223935       6  223941  223938       7  223947  223944       6  223950  223944
       6  223950  223947       7  223956  223953       6  223959  223953       6
  223959  223956       7  223965  223962       6  223968  223962       6  223968
  223965       7  223974  223971       6  223977  223971       6  223977  223974
       7  223983  223980       6  223986  223980       6  223986  223983       7
  223992  223989       6  223995  223989       6  223995  223992       7  224001
  223998       6  224004  223998       6  224004  224001       7  224010  224007
       6  224013  224007       6  224013  224010       7  224019  224016       6
  224022  224016       6  224022  224019       7  224028  224025       6  224031
  224025       6  224031  224028       7  224037  224034       6  224040  224034
       6  224040  224037       7  224046  224043       6  224049  224043       6
  224049  224046       7  224055  224052       6  224058  224052       6  224058
  224055       7  224064  224061       6  224067  224061       6  224067  224064
       7  224073  224070       6  224076  224070       6  224076  224073       7
  224082  224079       6  224085  224079       6  224085  224082       7  224091
  224088       6  224094  224088       6  224094  224091       7  224100  224097
       6  224103  224097       6  224103  224100       7  224109  224106       6
  224112  224106       6  224112  224109       7  224118  224115       6  224121
  224115       6  224121  224118       7  224127  224124       6  224130  224124
       6  224130  224127       7  224136  224133       6  224139  224133       6
  224139  224136       7  224145  224142       6  224148  224142       6  224148
  224145       7  224154  224151       6  224157  224151       6  224157  224154
       7  224163  224160       6  224166  224160       6  224166  224163       7
  224172  224169       6  224175  224169       6  224175  224172       7  224181
  224178       6  224184  224178       6  224184  224181       7  224190  224187
       6  224193  224187       6  224193  224190       7  224199  224196       6
  224202  224196       6  224202  224199       7  224208  224205       6  224211
  224205       6  224211  224208       7  224217  224214       6  224220  224214
       6  224220  224217       7  224226  224223       6  224229  224223       6
  224229  224226       7  224235  224232       6  224238  224232       6  224238
  224235       7  224244  224241       6  224247  224241       6  224247  224244
       7  224253  224250       6  224256  224250       6  224256  224253       7
  224262  224259       6  224265  224259       6  224265  224262       7  224271
  224268       6  224274  224268       6  224274  224271       7  224280  224277
       6  224283  224277       6  224283  224280       7  224289  224286       6
  224292  224286       6  224292  224289       7  224298  224295       6  224301
  224295       6  224301  224298       7  224307  224304       6  224310  224304
       6  224310  224307       7  224316  224313       6  224319  224313       6
  224319  224316       7  224325  224322       6  224328  224322       6  224328
  224325       7  224334  224331       6  224337  224331       6  224337  224334
       7  224343  224340       6  224346  224340       6  224346  224343       7
  224352  224349       6  224355  224349       6  224355  224352       7  224361
  224358       6  224364  224358       6  224364  224361       7  224370  224367
       6  224373  224367       6  224373  224370       7  224379  224376       6
  224382  224376       6  224382  224379       7  224388  224385       6  224391
  224385       6  224391  224388       7  224397  224394       6  224400  224394
       6  224400  224397       7  224406  224403       6  224409  224403       6
  224409  224406       7  224415  224412       6  224418  224412       6  224418
  224415       7  224424  224421       6  224427  224421       6  224427  224424
       7  224433  224430       6  224436  224430       6  224436  224433       7
  224442  224439       6  224445  224439       6  224445  224442       7  224451
  224448       6  224454  224448       6  224454  224451       7  224460  224457
       6  224463  224457       6  224463  224460       7  224469  224466       6
  224472  224466       6  224472  224469       7  224478  224475       6  224481
  224475       6  224481  224478       7  224487  224484       6  224490  224484
       6  224490  224487       7  224496  224493       6  224499  224493       6
  224499  224496       7  224505  224502       6  224508  224502       6  224508
  224505       7  224514  224511       6  224517  224511       6  224517  224514
       7  224523  224520       6  224526  224520       6  224526  224523       7
  224532  224529       6  224535  224529       6  224535  224532       7  224541
  224538       6  224544  224538       6  224544  224541       7  224550  224547
       6  224553  224547       6  224553  224550       7  224559  224556       6
  224562  224556       6  224562  224559       7  224568  224565       6  224571
  224565       6  224571  224568       7  224577  224574       6  224580  224574
       6  224580  224577       7  224586  224583       6  224589  224583       6
  224589  224586       7  224595  224592       6  224598  224592       6  224598
  224595       7  224604  224601       6  224607  224601       6  224607  224604
       7  224613  224610       6  224616  224610       6  224616  224613       7
  224622  224619       6  224625  224619       6  224625  224622       7  224631
  224628       6  224634  224628       6  224634  224631       7  224640  224637
       6  224643  224637       6  224643  224640       7  224649  224646       6
  224652  224646       6  224652  224649       7  224658  224655       6  224661
  224655       6  224661  224658       7  224667  224664       6  224670  224664
       6  224670  224667       7  224676  224673       6  224679  224673       6
  224679  224676       7  224685  224682       6  224688  224682       6  224688
  224685       7  224694  224691       6  224697  224691       6  224697  224694
       7  224703  224700       6  224706  224700       6  224706  224703       7
  224712  224709       6  224715  224709       6  224715  224712       7  224721
  224718       6  224724  224718       6  224724  224721       7  224730  224727
       6  224733  224727       6  224733  224730       7  224739  224736       6
  224742  224736       6  224742  224739       7  224748  224745       6  224751
  224745       6  224751  224748       7  224757  224754       6  224760  224754
       6  224760  224757       7  224766  224763       6  224769  224763       6
  224769  224766       7  224775  224772       6  224778  224772       6  224778
  224775       7  224784  224781       6  224787  224781       6  224787  224784
       7  224793  224790       6  224796  224790       6  224796  224793       7
  224802  224799       6  224805  224799       6  224805  224802       7  224811
  224808       6  224814  224808       6  224814  224811       7  224820  224817
       6  224823  224817       6  224823  224820       7  224829  224826       6
  224832  224826       6  224832  224829       7  224838  224835       6  224841
  224835       6  224841  224838       7  224847  224844       6  224850  224844
       6  224850  224847       7  224856  224853       6  224859  224853       6
  224859  224856       7  224865  224862       6  224868  224862       6  224868
  224865       7  224874  224871       6  224877  224871       6  224877  224874
       7  224883  224880       6  224886  224880       6  224886  224883       7
  224892  224889       6  224895  224889       6  224895  224892       7  224901
  224898       6  224904  224898       6  224904  224901       7  224910  224907
       6  224913  224907       6  224913  224910       7  224919  224916       6
  224922  224916       6  224922  224919       7  224928  224925       6  224931
  224925       6  224931  224928       7  224937  224934       6  224940  224934
       6  224940  224937       7  224946  224943       6  224949  224943       6
  224949  224946       7  224955  224952       6  224958  224952       6  224958
  224955       7  224964  224961       6  224967  224961       6  224967  224964
       7  224973  224970       6  224976  224970       6  224976  224973       7
  224982  224979       6  224985  224979       6  224985  224982       7  224991
  224988       6  224994  224988       6  224994  224991       7  225000  224997
       6  225003  224997       6  225003  225000       7  225009  225006       6
  225012  225006       6  225012  225009       7  225018  225015       6  225021
  225015       6  225021  225018       7  225027  225024       6  225030  225024
       6  225030  225027       7  225036  225033       6  225039  225033       6
  225039  225036       7  225045  225042       6  225048  225042       6  225048
  225045       7  225054  225051       6  225057  225051       6  225057  225054
       7  225063  225060       6  225066  225060       6  225066  225063       7
  225072  225069       6  225075  225069       6  225075  225072       7  225081
  225078       6  225084  225078       6  225084  225081       7  225090  225087
       6  225093  225087       6  225093  225090       7  225099  225096       6
  225102  225096       6  225102  225099       7  225108  225105       6  225111
  225105       6  225111  225108       7  225117  225114       6  225120  225114
       6  225120  225117       7  225126  225123       6  225129  225123       6
  225129  225126       7  225135  225132       6  225138  225132       6  225138
  225135       7  225144  225141       6  225147  225141       6  225147  225144
       7  225153  225150       6  225156  225150       6  225156  225153       7
  225162  225159       6  225165  225159       6  225165  225162       7  225171
  225168       6  225174  225168       6  225174  225171       7  225180  225177
       6  225183  225177       6  225183  225180       7  225189  225186       6
  225192  225186       6  225192  225189       7  225198  225195       6  225201
  225195       6  225201  225198       7  225207  225204       6  225210  225204
       6  225210  225207       7  225216  225213       6  225219  225213       6
  225219  225216       7  225225  225222       6  225228  225222       6  225228
  225225       7  225234  225231       6  225237  225231       6  225237  225234
       7  225243  225240       6  225246  225240       6  225246  225243       7
  225252  225249       6  225255  225249       6  225255  225252       7  225261
  225258       6  225264  225258       6  225264  225261       7  225270  225267
       6  225273  225267       6  225273  225270       7  225279  225276       6
  225282  225276       6  225282  225279       7  225288  225285       6  225291
  225285       6  225291  225288       7  225297  225294       6  225300  225294
       6  225300  225297       7  225306  225303       6  225309  225303       6
  225309  225306       7  225315  225312       6  225318  225312       6  225318
  225315       7  225324  225321       6  225327  225321       6  225327  225324
       7  225333  225330       6  225336  225330       6  225336  225333       7
  225342  225339       6  225345  225339       6  225345  225342       7  225351
  225348       6  225354  225348       6  225354  225351       7  225360  225357
       6  225363  225357       6  225363  225360       7  225369  225366       6
  225372  225366       6  225372  225369       7  225378  225375       6  225381
  225375       6  225381  225378       7  225387  225384       6  225390  225384
       6  225390  225387       7  225396  225393       6  225399  225393       6
  225399  225396       7  225405  225402       6  225408  225402       6  225408
  225405       7  225414  225411       6  225417  225411       6  225417  225414
       7  225423  225420       6  225426  225420       6  225426  225423       7
  225432  225429       6  225435  225429       6  225435  225432       7  225441
  225438       6  225444  225438       6  225444  225441       7  225450  225447
       6  225453  225447       6  225453  225450       7  225459  225456       6
  225462  225456       6  225462  225459       7  225468  225465       6  225471
  225465       6  225471  225468       7  225477  225474       6  225480  225474
       6  225480  225477       7  225486  225483       6  225489  225483       6
  225489  225486       7  225495  225492       6  225498  225492       6  225498
  225495       7  225504  225501       6  225507  225501       6  225507  225504
       7  225513  225510       6  225516  225510       6  225516  225513       7
  225522  225519       6  225525  225519       6  225525  225522       7  225531
  225528       6  225534  225528       6  225534  225531       7  225540  225537
       6  225543  225537       6  225543  225540       7  225549  225546       6
  225552  225546       6  225552  225549       7  225558  225555       6  225561
  225555       6  225561  225558       7  225567  225564       6  225570  225564
       6  225570  225567       7  225576  225573       6  225579  225573       6
  225579  225576       7  225585  225582       6  225588  225582       6  225588
  225585       7  225594  225591       6  225597  225591       6  225597  225594
       7  225603  225600       6  225606  225600       6  225606  225603       7
  225612  225609       6  225615  225609       6  225615  225612       7  225621
  225618       6  225624  225618       6  225624  225621       7  225630  225627
       6  225633  225627       6  225633  225630       7  225639  225636       6
  225642  225636       6  225642  225639       7  225648  225645       6  225651
  225645       6  225651  225648       7  225657  225654       6  225660  225654
       6  225660  225657       7  225666  225663       6  225669  225663       6
  225669  225666       7  225675  225672       6  225678  225672       6  225678
  225675       7  225684  225681       6  225687  225681       6  225687  225684
       7  225693  225690       6  225696  225690       6  225696  225693       7
  225702  225699       6  225705  225699       6  225705  225702       7  225711
  225708       6  225714  225708       6  225714  225711       7  225720  225717
       6  225723  225717       6  225723  225720       7  225729  225726       6
  225732  225726       6  225732  225729       7  225738  225735       6  225741
  225735       6  225741  225738       7  225747  225744       6  225750  225744
       6  225750  225747       7  225756  225753       6  225759  225753       6
  225759  225756       7  225765  225762       6  225768  225762       6  225768
  225765       7  225774  225771       6  225777  225771       6  225777  225774
       7  225783  225780       6  225786  225780       6  225786  225783       7
  225792  225789       6  225795  225789       6  225795  225792       7  225801
  225798       6  225804  225798       6  225804  225801       7  225810  225807
       6  225813  225807       6  225813  225810       7  225819  225816       6
  225822  225816       6  225822  225819       7  225828  225825       6  225831
  225825       6  225831  225828       7  225837  225834       6  225840  225834
       6  225840  225837       7  225846  225843       6  225849  225843       6
  225849  225846       7  225855  225852       6  225858  225852       6  225858
  225855       7  225864  225861       6  225867  225861       6  225867  225864
       7  225873  225870       6  225876  225870       6  225876  225873       7
  225882  225879       6  225885  225879       6  225885  225882       7  225891
  225888       6  225894  225888       6  225894  225891       7  225900  225897
       6  225903  225897       6  225903  225900       7  225909  225906       6
  225912  225906       6  225912  225909       7  225918  225915       6  225921
  225915       6  225921  225918       7  225927  225924       6  225930  225924
       6  225930  225927       7  225936  225933       6  225939  225933       6
  225939  225936       7  225945  225942       6  225948  225942       6  225948
  225945       7  225954  225951       6  225957  225951       6  225957  225954
       7  225963  225960       6  225966  225960       6  225966  225963       7
  225972  225969       6  225975  225969       6  225975  225972       7  225981
  225978       6  225984  225978       6  225984  225981       7  225990  225987
       6  225993  225987       6  225993  225990       7  225999  225996       6
  226002  225996       6  226002  225999       7  226008  226005       6  226011
  226005       6  226011  226008       7  226017  226014       6  226020  226014
       6  226020  226017       7  226026  226023       6  226029  226023       6
  226029  226026       7  226035  226032       6  226038  226032       6  226038
  226035       7  226044  226041       6  226047  226041       6  226047  226044
       7  226053  226050       6  226056  226050       6  226056  226053       7
  226062  226059       6  226065  226059       6  226065  226062       7  226071
  226068       6  226074  226068       6  226074  226071       7  226080  226077
       6  226083  226077       6  226083  226080       7  226089  226086       6
  226092  226086       6  226092  226089       7  226098  226095       6  226101
  226095       6  226101  226098       7  226107  226104       6  226110  226104
       6  226110  226107       7  226116  226113       6  226119  226113       6
  226119  226116       7  226125  226122       6  226128  226122       6  226128
  226125       7  226134  226131       6  226137  226131       6  226137  226134
       7  226143  226140       6  226146  226140       6  226146  226143       7
  226152  226149       6  226155  226149       6  226155  226152       7  226161
  226158       6  226164  226158       6  226164  226161       7  226170  226167
       6  226173  226167       6  226173  226170       7  226179  226176       6
  226182  226176       6  226182  226179       7  226188  226185       6  226191
  226185       6  226191  226188       7  226197  226194       6  226200  226194
       6  226200  226197       7  226206  226203       6  226209  226203       6
  226209  226206       7  226215  226212       6  226218  226212       6  226218
  226215       7  226224  226221       6  226227  226221       6  226227  226224
       7  226233  226230       6  226236  226230       6  226236  226233       7
  226242  226239       6  226245  226239       6  226245  226242       7  226251
  226248       6  226254  226248       6  226254  226251       7  226260  226257
       6  226263  226257       6  226263  226260       7  226269  226266       6
  226272  226266       6  226272  226269       7  226278  226275       6  226281
  226275       6  226281  226278       7  226287  226284       6  226290  226284
       6  226290  226287       7  226296  226293       6  226299  226293       6
  226299  226296       7  226305  226302       6  226308  226302       6  226308
  226305       7  226314  226311       6  226317  226311       6  226317  226314
       7  226323  226320       6  226326  226320       6  226326  226323       7
  226332  226329       6  226335  226329       6  226335  226332       7  226341
  226338       6  226344  226338       6  226344  226341       7  226350  226347
       6  226353  226347       6  226353  226350       7  226359  226356       6
  226362  226356       6  226362  226359       7  226368  226365       6  226371
  226365       6  226371  226368       7  226377  226374       6  226380  226374
       6  226380  226377       7  226386  226383       6  226389  226383       6
  226389  226386       7  226395  226392       6  226398  226392       6  226398
  226395       7  226404  226401       6  226407  226401       6  226407  226404
       7  226413  226410       6  226416  226410       6  226416  226413       7
  226422  226419       6  226425  226419       6  226425  226422       7  226431
  226428       6  226434  226428       6  226434  226431       7  226440  226437
       6  226443  226437       6  226443  226440       7  226449  226446       6
  226452  226446       6  226452  226449       7  226458  226455       6  226461
  226455       6  226461  226458       7  226467  226464       6  226470  226464
       6  226470  226467       7  226476  226473       6  226479  226473       6
  226479  226476       7  226485  226482       6  226488  226482       6  226488
  226485       7  226494  226491       6  226497  226491       6  226497  226494
       7  226503  226500       6  226506  226500       6  226506  226503       7
  226512  226509       6  226515  226509       6  226515  226512       7  226521
  226518       6  226524  226518       6  226524  226521       7  226530  226527
       6  226533  226527       6  226533  226530       7  226539  226536       6
  226542  226536       6  226542  226539       7  226548  226545       6  226551
  226545       6  226551  226548       7  226557  226554       6  226560  226554
       6  226560  226557       7  226566  226563       6  226569  226563       6
  226569  226566       7  226575  226572       6  226578  226572       6  226578
  226575       7  226584  226581       6  226587  226581       6  226587  226584
       7  226593  226590       6  226596  226590       6  226596  226593       7
  226602  226599       6  226605  226599       6  226605  226602       7  226611
  226608       6  226614  226608       6  226614  226611       7  226620  226617
       6  226623  226617       6  226623  226620       7  226629  226626       6
  226632  226626       6  226632  226629       7  226638  226635       6  226641
  226635       6  226641  226638       7  226647  226644       6  226650  226644
       6  226650  226647       7  226656  226653       6  226659  226653       6
  226659  226656       7  226665  226662       6  226668  226662       6  226668
  226665       7  226674  226671       6  226677  226671       6  226677  226674
       7  226683  226680       6  226686  226680       6  226686  226683       7
  226692  226689       6  226695  226689       6  226695  226692       7  226701
  226698       6  226704  226698       6  226704  226701       7  226710  226707
       6  226713  226707       6  226713  226710       7  226719  226716       6
  226722  226716       6  226722  226719       7  226728  226725       6  226731
  226725       6  226731  226728       7  226737  226734       6  226740  226734
       6  226740  226737       7  226746  226743       6  226749  226743       6
  226749  226746       7  226755  226752       6  226758  226752       6  226758
  226755       7  226764  226761       6  226767  226761       6  226767  226764
       7  226773  226770       6  226776  226770       6  226776  226773       7
  226782  226779       6  226785  226779       6  226785  226782       7  226791
  226788       6  226794  226788       6  226794  226791       7  226800  226797
       6  226803  226797       6  226803  226800       7  226809  226806       6
  226812  226806       6  226812  226809       7  226818  226815       6  226821
  226815       6  226821  226818       7  226827  226824       6  226830  226824
       6  226830  226827       7  226836  226833       6  226839  226833       6
  226839  226836       7  226845  226842       6  226848  226842       6  226848
  226845       7  226854  226851       6  226857  226851       6  226857  226854
       7  226863  226860       6  226866  226860       6  226866  226863       7
  226872  226869       6  226875  226869       6  226875  226872       7  226881
  226878       6  226884  226878       6  226884  226881       7  226890  226887
       6  226893  226887       6  226893  226890       7  226899  226896       6
  226902  226896       6  226902  226899       7  226908  226905       6  226911
  226905       6  226911  226908       7  226917  226914       6  226920  226914
       6  226920  226917       7  226926  226923       6  226929  226923       6
  226929  226926       7  226935  226932       6  226938  226932       6  226938
  226935       7  226944  226941       6  226947  226941       6  226947  226944
       7  226953  226950       6  226956  226950       6  226956  226953       7
  226962  226959       6  226965  226959       6  226965  226962       7  226971
  226968       6  226974  226968       6  226974  226971       7  226980  226977
       6  226983  226977       6  226983  226980       7  226989  226986       6
  226992  226986       6  226992  226989       7  226998  226995       6  227001
  226995       6  227001  226998       7  227007  227004       6  227010  227004
       6  227010  227007       7  227016  227013       6  227019  227013       6
  227019  227016       7  227025  227022       6  227028  227022       6  227028
  227025       7  227034  227031       6  227037  227031       6  227037  227034
       7  227043  227040       6  227046  227040       6  227046  227043       7
  227052  227049       6  227055  227049       6  227055  227052       7  227061
  227058       6  227064  227058       6  227064  227061       7  227070  227067
       6  227073  227067       6  227073  227070       7  227079  227076       6
  227082  227076       6  227082  227079       7  227088  227085       6  227091
  227085       6  227091  227088       7  227097  227094       6  227100  227094
       6  227100  227097       7  227106  227103       6  227109  227103       6
  227109  227106       7  227115  227112       6  227118  227112       6  227118
  227115       7  227124  227121       6  227127  227121       6  227127  227124
       7  227133  227130       6  227136  227130       6  227136  227133       7
  227142  227139       6  227145  227139       6  227145  227142       7  227151
  227148       6  227154  227148       6  227154  227151       7  227160  227157
       6  227163  227157       6  227163  227160       7  227169  227166       6
  227172  227166       6  227172  227169       7  227178  227175       6  227181
  227175       6  227181  227178       7  227187  227184       6  227190  227184
       6  227190  227187       7  227196  227193       6  227199  227193       6
  227199  227196       7  227205  227202       6  227208  227202       6  227208
  227205       7  227214  227211       6  227217  227211       6  227217  227214
       7  227223  227220       6  227226  227220       6  227226  227223       7
  227232  227229       6  227235  227229       6  227235  227232       7  227241
  227238       6  227244  227238       6  227244  227241       7  227250  227247
       6  227253  227247       6  227253  227250       7  227259  227256       6
  227262  227256       6  227262  227259       7  227268  227265       6  227271
  227265       6  227271  227268       7  227277  227274       6  227280  227274
       6  227280  227277       7  227286  227283       6  227289  227283       6
  227289  227286       7  227295  227292       6  227298  227292       6  227298
  227295       7  227304  227301       6  227307  227301       6  227307  227304
       7  227313  227310       6  227316  227310       6  227316  227313       7
  227322  227319       6  227325  227319       6  227325  227322       7  227331
  227328       6  227334  227328       6  227334  227331       7  227340  227337
       6  227343  227337       6  227343  227340       7  227349  227346       6
  227352  227346       6  227352  227349       7  227358  227355       6  227361
  227355       6  227361  227358       7  227367  227364       6  227370  227364
       6  227370  227367       7  227376  227373       6  227379  227373       6
  227379  227376       7  227385  227382       6  227388  227382       6  227388
  227385       7  227394  227391       6  227397  227391       6  227397  227394
       7  227403  227400       6  227406  227400       6  227406  227403       7
  227412  227409       6  227415  227409       6  227415  227412       7  227421
  227418       6  227424  227418       6  227424  227421       7  227430  227427
       6  227433  227427       6  227433  227430       7  227439  227436       6
  227442  227436       6  227442  227439       7  227448  227445       6  227451
  227445       6  227451  227448       7  227457  227454       6  227460  227454
       6  227460  227457       7  227466  227463       6  227469  227463       6
  227469  227466       7  227475  227472       6  227478  227472       6  227478
  227475       7  227484  227481       6  227487  227481       6  227487  227484
       7  227493  227490       6  227496  227490       6  227496  227493       7
  227502  227499       6  227505  227499       6  227505  227502       7  227511
  227508       6  227514  227508       6  227514  227511       7  227520  227517
       6  227523  227517       6  227523  227520       7  227529  227526       6
  227532  227526       6  227532  227529       7  227538  227535       6  227541
  227535       6  227541  227538       7  227547  227544       6  227550  227544
       6  227550  227547       7  227556  227553       6  227559  227553       6
  227559  227556       7  227565  227562       6  227568  227562       6  227568
  227565       7  227574  227571       6  227577  227571       6  227577  227574
       7  227583  227580       6  227586  227580       6  227586  227583       7
  227592  227589       6  227595  227589       6  227595  227592       7  227601
  227598       6  227604  227598       6  227604  227601       7  227610  227607
       6  227613  227607       6  227613  227610       7  227619  227616       6
  227622  227616       6  227622  227619       7  227628  227625       6  227631
  227625       6  227631  227628       7  227637  227634       6  227640  227634
       6  227640  227637       7  227646  227643       6  227649  227643       6
  227649  227646       7  227655  227652       6  227658  227652       6  227658
  227655       7  227664  227661       6  227667  227661       6  227667  227664
       7  227673  227670       6  227676  227670       6  227676  227673       7
  227682  227679       6  227685  227679       6  227685  227682       7  227691
  227688       6  227694  227688       6  227694  227691       7  227700  227697
       6  227703  227697       6  227703  227700       7  227709  227706       6
  227712  227706       6  227712  227709       7  227718  227715       6  227721
  227715       6  227721  227718       7  227727  227724       6  227730  227724
       6  227730  227727       7  227736  227733       6  227739  227733       6
  227739  227736       7  227745  227742       6  227748  227742       6  227748
  227745       7  227754  227751       6  227757  227751       6  227757  227754
       7  227763  227760       6  227766  227760       6  227766  227763       7
  227772  227769       6  227775  227769       6  227775  227772       7  227781
  227778       6  227784  227778       6  227784  227781       7  227790  227787
       6  227793  227787       6  227793  227790       7  227799  227796       6
  227802  227796       6  227802  227799       7  227808  227805       6  227811
  227805       6  227811  227808       7  227817  227814       6  227820  227814
       6  227820  227817       7  227826  227823       6  227829  227823       6
  227829  227826       7  227835  227832       6  227838  227832       6  227838
  227835       7  227844  227841       6  227847  227841       6  227847  227844
       7  227853  227850       6  227856  227850       6  227856  227853       7
  227862  227859       6  227865  227859       6  227865  227862       7  227871
  227868       6  227874  227868       6  227874  227871       7  227880  227877
       6  227883  227877       6  227883  227880       7  227889  227886       6
  227892  227886       6  227892  227889       7  227898  227895       6  227901
  227895       6  227901  227898       7  227907  227904       6  227910  227904
       6  227910  227907       7  227916  227913       6  227919  227913       6
  227919  227916       7  227925  227922       6  227928  227922       6  227928
  227925       7  227934  227931       6  227937  227931       6  227937  227934
       7  227943  227940       6  227946  227940       6  227946  227943       7
  227952  227949       6  227955  227949       6  227955  227952       7  227961
  227958       6  227964  227958       6  227964  227961       7  227970  227967
       6  227973  227967       6  227973  227970       7  227979  227976       6
  227982  227976       6  227982  227979       7  227988  227985       6  227991
  227985       6  227991  227988       7  227997  227994       6  228000  227994
       6  228000  227997       7  228006  228003       6  228009  228003       6
  228009  228006       7  228015  228012       6  228018  228012       6  228018
  228015       7  228024  228021       6  228027  228021       6  228027  228024
       7  228033  228030       6  228036  228030       6  228036  228033       7
  228042  228039       6  228045  228039       6  228045  228042       7  228051
  228048       6  228054  228048       6  228054  228051       7  228060  228057
       6  228063  228057       6  228063  228060       7  228069  228066       6
  228072  228066       6  228072  228069       7  228078  228075       6  228081
  228075       6  228081  228078       7  228087  228084       6  228090  228084
       6  228090  228087       7  228096  228093       6  228099  228093       6
  228099  228096       7  228105  228102       6  228108  228102       6  228108
  228105       7  228114  228111       6  228117  228111       6  228117  228114
       7  228123  228120       6  228126  228120       6  228126  228123       7
  228132  228129       6  228135  228129       6  228135  228132       7  228141
  228138       6  228144  228138       6  228144  228141       7  228150  228147
       6  228153  228147       6  228153  228150       7  228159  228156       6
  228162  228156       6  228162  228159       7  228168  228165       6  228171
  228165       6  228171  228168       7  228177  228174       6  228180  228174
       6  228180  228177       7  228186  228183       6  228189  228183       6
  228189  228186       7  228195  228192       6  228198  228192       6  228198
  228195       7  228204  228201       6  228207  228201       6  228207  228204
       7  228213  228210       6  228216  228210       6  228216  228213       7
  228222  228219       6  228225  228219       6  228225  228222       7  228231
  228228       6  228234  228228       6  228234  228231       7  228240  228237
       6  228243  228237       6  228243  228240       7  228249  228246       6
  228252  228246       6  228252  228249       7  228258  228255       6  228261
  228255       6  228261  228258       7  228267  228264       6  228270  228264
       6  228270  228267       7  228276  228273       6  228279  228273       6
  228279  228276       7  228285  228282       6  228288  228282       6  228288
  228285       7  228294  228291       6  228297  228291       6  228297  228294
       7  228303  228300       6  228306  228300       6  228306  228303       7
  228312  228309       6  228315  228309       6  228315  228312       7  228321
  228318       6  228324  228318       6  228324  228321       7  228330  228327
       6  228333  228327       6  228333  228330       7  228339  228336       6
  228342  228336       6  228342  228339       7  228348  228345       6  228351
  228345       6  228351  228348       7  228357  228354       6  228360  228354
       6  228360  228357       7  228366  228363       6  228369  228363       6
  228369  228366       7  228375  228372       6  228378  228372       6  228378
  228375       7  228384  228381       6  228387  228381       6  228387  228384
       7  228393  228390       6  228396  228390       6  228396  228393       7
  228402  228399       6  228405  228399       6  228405  228402       7  228411
  228408       6  228414  228408       6  228414  228411       7  228420  228417
       6  228423  228417       6  228423  228420       7  228429  228426       6
  228432  228426       6  228432  228429       7  228438  228435       6  228441
  228435       6  228441  228438       7  228447  228444       6  228450  228444
       6  228450  228447       7  228456  228453       6  228459  228453       6
  228459  228456       7  228465  228462       6  228468  228462       6  228468
  228465       7  228474  228471       6  228477  228471       6  228477  228474
       7  228483  228480       6  228486  228480       6  228486  228483       7
  228492  228489       6  228495  228489       6  228495  228492       7  228501
  228498       6  228504  228498       6  228504  228501       7  228510  228507
       6  228513  228507       6  228513  228510       7  228519  228516       6
  228522  228516       6  228522  228519       7  228528  228525       6  228531
  228525       6  228531  228528       7  228537  228534       6  228540  228534
       6  228540  228537       7  228546  228543       6  228549  228543       6
  228549  228546       7  228555  228552       6  228558  228552       6  228558
  228555       7  228564  228561       6  228567  228561       6  228567  228564
       7  228573  228570       6  228576  228570       6  228576  228573       7
  228582  228579       6  228585  228579       6  228585  228582       7  228591
  228588       6  228594  228588       6  228594  228591       7  228600  228597
       6  228603  228597       6  228603  228600       7  228609  228606       6
  228612  228606       6  228612  228609       7  228618  228615       6  228621
  228615       6  228621  228618       7  228627  228624       6  228630  228624
       6  228630  228627       7  228636  228633       6  228639  228633       6
  228639  228636       7  228645  228642       6  228648  228642       6  228648
  228645       7  228654  228651       6  228657  228651       6  228657  228654
       7  228663  228660       6  228666  228660       6  228666  228663       7
  228672  228669       6  228675  228669       6  228675  228672       7  228681
  228678       6  228684  228678       6  228684  228681       7  228690  228687
       6  228693  228687       6  228693  228690       7  228699  228696       6
  228702  228696       6  228702  228699       7  228708  228705       6  228711
  228705       6  228711  228708       7  228717  228714       6  228720  228714
       6  228720  228717       7  228726  228723       6  228729  228723       6
  228729  228726       7  228735  228732       6  228738  228732       6  228738
  228735       7  228744  228741       6  228747  228741       6  228747  228744
       7  228753  228750       6  228756  228750       6  228756  228753       7
  228762  228759       6  228765  228759       6  228765  228762       7  228771
  228768       6  228774  228768       6  228774  228771       7  228780  228777
       6  228783  228777       6  228783  228780       7  228789  228786       6
  228792  228786       6  228792  228789       7  228798  228795       6  228801
  228795       6  228801  228798       7  228807  228804       6  228810  228804
       6  228810  228807       7  228816  228813       6  228819  228813       6
  228819  228816       7  228825  228822       6  228828  228822       6  228828
  228825       7  228834  228831       6  228837  228831       6  228837  228834
       7  228843  228840       6  228846  228840       6  228846  228843       7
  228852  228849       6  228855  228849       6  228855  228852       7  228861
  228858       6  228864  228858       6  228864  228861       7  228870  228867
       6  228873  228867       6  228873  228870       7  228879  228876       6
  228882  228876       6  228882  228879       7  228888  228885       6  228891
  228885       6  228891  228888       7  228897  228894       6  228900  228894
       6  228900  228897       7  228906  228903       6  228909  228903       6
  228909  228906       7  228915  228912       6  228918  228912       6  228918
  228915       7  228924  228921       6  228927  228921       6  228927  228924
       7  228933  228930       6  228936  228930       6  228936  228933       7
  228942  228939       6  228945  228939       6  228945  228942       7  228951
  228948       6  228954  228948       6  228954  228951       7  228960  228957
       6  228963  228957       6  228963  228960       7  228969  228966       6
  228972  228966       6  228972  228969       7  228978  228975       6  228981
  228975       6  228981  228978       7  228987  228984       6  228990  228984
       6  228990  228987       7  228996  228993       6  228999  228993       6
  228999  228996       7  229005  229002       6  229008  229002       6  229008
  229005       7  229014  229011       6  229017  229011       6  229017  229014
       7  229023  229020       6  229026  229020       6  229026  229023       7
  229032  229029       6  229035  229029       6  229035  229032       7  229041
  229038       6  229044  229038       6  229044  229041       7  229050  229047
       6  229053  229047       6  229053  229050       7  229059  229056       6
  229062  229056       6  229062  229059       7  229068  229065       6  229071
  229065       6  229071  229068       7  229077  229074       6  229080  229074
       6  229080  229077       7  229086  229083       6  229089  229083       6
  229089  229086       7  229095  229092       6  229098  229092       6  229098
  229095       7  229104  229101       6  229107  229101       6  229107  229104
       7  229113  229110       6  229116  229110       6  229116  229113       7
  229122  229119       6  229125  229119       6  229125  229122       7  229131
  229128       6  229134  229128       6  229134  229131       7  229140  229137
       6  229143  229137       6  229143  229140       7  229149  229146       6
  229152  229146       6  229152  229149       7  229158  229155       6  229161
  229155       6  229161  229158       7  229167  229164       6  229170  229164
       6  229170  229167       7  229176  229173       6  229179  229173       6
  229179  229176       7  229185  229182       6  229188  229182       6  229188
  229185       7  229194  229191       6  229197  229191       6  229197  229194
       7  229203  229200       6  229206  229200       6  229206  229203       7
  229212  229209       6  229215  229209       6  229215  229212       7  229221
  229218       6  229224  229218       6  229224  229221       7  229230  229227
       6  229233  229227       6  229233  229230       7  229239  229236       6
  229242  229236       6  229242  229239       7  229248  229245       6  229251
  229245       6  229251  229248       7  229257  229254       6  229260  229254
       6  229260  229257       7  229266  229263       6  229269  229263       6
  229269  229266       7  229275  229272       6  229278  229272       6  229278
  229275       7  229284  229281       6  229287  229281       6  229287  229284
       7  229293  229290       6  229296  229290       6  229296  229293       7
  229302  229299       6  229305  229299       6  229305  229302       7  229311
  229308       6  229314  229308       6  229314  229311       7  229320  229317
       6  229323  229317       6  229323  229320       7  229329  229326       6
  229332  229326       6  229332  229329       7  229338  229335       6  229341
  229335       6  229341  229338       7  229347  229344       6  229350  229344
       6  229350  229347       7  229356  229353       6  229359  229353       6
  229359  229356       7  229365  229362       6  229368  229362       6  229368
  229365       7  229374  229371       6  229377  229371       6  229377  229374
       7  229383  229380       6  229386  229380       6  229386  229383       7
  229392  229389       6  229395  229389       6  229395  229392       7  229401
  229398       6  229404  229398       6  229404  229401       7  229410  229407
       6  229413  229407       6  229413  229410       7  229419  229416       6
  229422  229416       6  229422  229419       7  229428  229425       6  229431
  229425       6  229431  229428       7  229437  229434       6  229440  229434
       6  229440  229437       7  229446  229443       6  229449  229443       6
  229449  229446       7  229455  229452       6  229458  229452       6  229458
  229455       7  229464  229461       6  229467  229461       6  229467  229464
       7  229473  229470       6  229476  229470       6  229476  229473       7
  229482  229479       6  229485  229479       6  229485  229482       7  229491
  229488       6  229494  229488       6  229494  229491       7  229500  229497
       6  229503  229497       6  229503  229500       7  229509  229506       6
  229512  229506       6  229512  229509       7  229518  229515       6  229521
  229515       6  229521  229518       7  229527  229524       6  229530  229524
       6  229530  229527       7  229536  229533       6  229539  229533       6
  229539  229536       7  229545  229542       6  229548  229542       6  229548
  229545       7  229554  229551       6  229557  229551       6  229557  229554
       7  229563  229560       6  229566  229560       6  229566  229563       7
  229572  229569       6  229575  229569       6  229575  229572       7  229581
  229578       6  229584  229578       6  229584  229581       7  229590  229587
       6  229593  229587       6  229593  229590       7  229599  229596       6
  229602  229596       6  229602  229599       7  229608  229605       6  229611
  229605       6  229611  229608       7  229617  229614       6  229620  229614
       6  229620  229617       7  229626  229623       6  229629  229623       6
  229629  229626       7  229635  229632       6  229638  229632       6  229638
  229635       7  229644  229641       6  229647  229641       6  229647  229644
       7  229653  229650       6  229656  229650       6  229656  229653       7
  229662  229659       6  229665  229659       6  229665  229662       7  229671
  229668       6  229674  229668       6  229674  229671       7  229680  229677
       6  229683  229677       6  229683  229680       7  229689  229686       6
  229692  229686       6  229692  229689       7  229698  229695       6  229701
  229695       6  229701  229698       7  229707  229704       6  229710  229704
       6  229710  229707       7  229716  229713       6  229719  229713       6
  229719  229716       7  229725  229722       6  229728  229722       6  229728
  229725       7  229734  229731       6  229737  229731       6  229737  229734
       7  229743  229740       6  229746  229740       6  229746  229743       7
  229752  229749       6  229755  229749       6  229755  229752       7  229761
  229758       6  229764  229758       6  229764  229761       7  229770  229767
       6  229773  229767       6  229773  229770       7  229779  229776       6
  229782  229776       6  229782  229779       7  229788  229785       6  229791
  229785       6  229791  229788       7  229797  229794       6  229800  229794
       6  229800  229797       7  229806  229803       6  229809  229803       6
  229809  229806       7  229815  229812       6  229818  229812       6  229818
  229815       7  229824  229821       6  229827  229821       6  229827  229824
       7  229833  229830       6  229836  229830       6  229836  229833       7
  229842  229839       6  229845  229839       6  229845  229842       7  229851
  229848       6  229854  229848       6  229854  229851       7  229860  229857
       6  229863  229857       6  229863  229860       7  229869  229866       6
  229872  229866       6  229872  229869       7  229878  229875       6  229881
  229875       6  229881  229878       7  229887  229884       6  229890  229884
       6  229890  229887       7  229896  229893       6  229899  229893       6
  229899  229896       7  229905  229902       6  229908  229902       6  229908
  229905       7  229914  229911       6  229917  229911       6  229917  229914
       7  229923  229920       6  229926  229920       6  229926  229923       7
  229932  229929       6  229935  229929       6  229935  229932       7  229941
  229938       6  229944  229938       6  229944  229941       7  229950  229947
       6  229953  229947       6  229953  229950       7  229959  229956       6
  229962  229956       6  229962  229959       7  229968  229965       6  229971
  229965       6  229971  229968       7  229977  229974       6  229980  229974
       6  229980  229977       7  229986  229983       6  229989  229983       6
  229989  229986       7
%FLAG BONDS_WITHOUT_HYDROGEN                                                    
%FORMAT(10I8)                                                                   
      57      60       1      51      54       1      45      48       1      42
      60       3      36      60       3      33      39       4      30      48
       3      24      48       3      21      27       5      21      33       5
      21      57       5      18      27       4      15      54       3      12
      18       5      12      51       5       9      12       5       6      54
       3       3       9       4       0       3       5       0      39       5
       0      45       5
%FLAG ANGLES_INC_HYDROGEN                                                       
%FORMAT(10I8)                                                                   
     111      27     114       1     105      18     108       1      99       9
     102       1      93       3      96       1      87      57      90       1
      81      51      84       1      75      45      78       1      69      39
      72       1      63      33      66       1      60      57      87       2
      60      57      90       2      54      51      81       2      54      51
      84       2      48      45      75       2      48      45      78       2
      39      33      63       5      39      33      66       5      33      39
      69       5      33      39      72       5      27      18     105       5
      27      18     108       5      21      27     111       7      21      27
     114       7      21      33      63       7      21      33      66       7
      21      57      87       7      21      57      90       7      18      27
     111       5      18      27     114       5      12       9      99       7
      12       9     102       7      12      18     105       7      12      18
     108       7      12      51      81       7      12      51      84       7
       9       3      93       5       9       3      96       5       3       9
      99       5       3       9     102       5       0       3      93       7
       0       3      96       7       0      39      69       7       0      39
      72       7       0      45      75       7       0      45      78       7
%FLAG ANGLES_WITHOUT_HYDROGEN                                                   
%FORMAT(10I8)                                                                   
      42      60      57       3      39       0      45       4      36      60
      42       6      36      60      57       3      33      21      57       4
      30      48      45       3      27      21      33       4      27      21
      57       4      24      48      30       6      24      48      45       3
      21      33      39       8      21      57      60       9      18      12
      51       4      18      27      21       8      15      54      51       3
      12      18      27       8      12      51      54       9       9      12
      18       4       9      12      51       4       6      54      15       6
       6      54      51       3       3       0      39       4       3       0
      45       4       3       9      12       8       0       3       9       8
       0      39      33       8       0      45      48       9
%FLAG DIHEDRALS_INC_HYDROGEN                                                    
%FORMAT(10I8)                                                                   
     108      18      27     111       1     108      18      27     114       1
     105      18      27     111       1     105      18      27     114       1
      96       3       9      99       1      96       3       9     102       1
      93       3       9      99       1      93       3       9     102       1
      66      33      39      69       1      66      33      39      72       1
      63      33      39      69       1      63      33      39      72       1
      57      21      27     111       2      57      21      27     114       2
      57      21      33      63       2      57      21      33      66       2
      51      12       9      99       2      51      12       9     102       2
      51      12      18     105       2      51      12      18     108       2
      45       0       3      93       2      45       0       3      96       2
      45       0      39      69       2      45       0      39      72       2
      42      60      57      87       3      42      60     -57      87       4
      42      60      57      90       3      42      60     -57      90       4
      39       0       3      93       2      39       0       3      96       2
      39       0      45      75       2      39       0      45      78       2
      36      60      57      87       3      36      60     -57      87       4
      36      60      57      90       3      36      60     -57      90       4
      33      21      27     111       2      33      21      27     114       2
      33      21      57      87       2      33      21      57      90       2
      30      48      45      75       3      30      48     -45      75       4
      30      48      45      78       3      30      48     -45      78       4
      27      21      33      63       2      27      21      33      66       2
      27      21      57      87       2      27      21      57      90       2
      24      48      45      75       3      24      48     -45      75       4
      24      48      45      78       3      24      48     -45      78       4
      21      27      18     105       1      21      27      18     108       1
      21      33      39      69       1      21      33      39      72       1
      18      12       9      99       2      18      12       9     102       2
      18      12      51      81       2      18      12      51      84       2
      15      54      51      81       3      15      54     -51      81       7
      15      54     -51      81       4      15      54      51      84       3
      15      54     -51      84       7      15      54     -51      84       4
      12       9       3      93       1      12       9       3      96       1
      12      18      27     111       1      12      18      27     114       1
       9      12      18     105       2       9      12      18     108       2
       9      12      51      81       2       9      12      51      84       2
       6      54      51      81       3       6      54     -51      81       7
       6      54     -51      81       4       6      54      51      84       3
       6      54     -51      84       7       6      54     -51      84       4
       3       0      39      69       2       3       0      39      72       2
       3       0      45      75       2       3       0      45      78       2
       0       3       9      99       1       0       3       9     102       1
       0      39      33      63       1       0      39      33      66       1
%FLAG DIHEDRALS_WITHOUT_HYDROGEN                                                
%FORMAT(10I8)                                                                   
      39       0      45      48       5      39      33      21      57       6
      33      21      57      60       5      45       0      39      33       6
      27      18      12      51       6      27      21      33      39       6
      27      21      57      60       5      21      57      60      36       7
      21      57      60      42       7      18      12      51      54       5
      18      27      21      33       6      18      27      21      57       6
      12      18      27      21       1      12      51      54      15       7
      39       0       3       9       6      45       0       3       9       6
       9      12      18      27       6       9      12      51      54       5
       6      54      51      12       7       3       0      39      33       6
       3       0      45      48       5       3       9      12      18       6
       3       9      12      51       6       0       3       9      12       1
       0      39      33      21       1       0      45      48      24       7
       0      45      48      30       7      57      36     -60     -42       8
      51       6     -54     -15       8      45      24     -48     -30       8
%FLAG EXCLUDED_ATOMS_LIST                                                       
%FORMAT(10I8)                                                                   
       2       4       5       8       9      11      12      14      16      17
      22      23      24      25      26      27      32      33      34      35
       4       5       7      12      14      16      17      18      24      25
      26      27      32      33      34      35       5       6      18      19
      28      29       5       7      10      14      16      18      19      28
      29      32      33      34      35      36      37       6       7       8
      10      18      19      28      29      32      33      34      35      36
      37      38      39      18      19      28      29       8      10      12
      18      19      20      28      29      34      35      36      37      38
      39      10      12      13      14      15      20      21      22      23
      24      25      30      31      36      37      38      39      11      16
      17      26      27      12      14      18      20      21      22      23
      30      31      36      37      38      39      16      17      26      27
      14      16      20      21      22      23      24      25      30      31
      38      39      15      20      21      30      31      16      17      20
      22      23      24      25      26      27      32      33      20      21
      30      31      17      24      25      26      27      32      33      26
      27      19      28      29      34      35      36      37      28      29
      21      22      23      30      31      38      39      30      31      23
      24      25      24      25      25       0      27       0      29       0
      31       0      33      34      35      34      35      35       0      37
      38      39      38      39      39       0       0       0      43      44
      44       0      46      47      47       0      49      50      50       0
      52      53      53       0      55      56      56       0      58      59
      59       0      61      62      62       0      64      65      65       0
      67      68      68       0      70      71      71       0      73      74
      74       0      76      77      77       0      79      80      80       0
      82      83      83       0      85      86      86       0      88      89
      89       0      91      92      92       0      94      95      95       0
      97      98      98       0     100     101     101       0     103     104
     104       0     106     107     107       0     109     110     110       0
     112     113     113       0     115     116     116       0     118     119
     119       0     121     122     122       0     124     125     125       0
     127     128     128       0     130     131     131       0     133     134
     134       0     136     137     137       0     139     140     140       0
     142     143     143       0     145     146     146       0     148     149
     149       0     151     152     152       0     154     155     155       0
     157     158     158       0     160     161     161       0     163     164
     164       0     166     167     167       0     169     170     170       0
     172     173     173       0     175     176     176       0     178     179
     179       0     181     182     182       0     184     185     185       0
     187     188     188       0     190     191     191       0     193     194
     194       0     196     197     197       0     199     200     200       0
     202     203     203       0     205     206     206       0     208     209
     209       0     211     212     212       0     214     215     215       0
     217     218     218       0     220     221     221       0     223     224
     224       0     226     227     227       0     229     230     230       0
     232     233     233       0     235     236     236       0     238     239
     239       0     241     242     242       0     244     245     245       0
     247     248     248       0     250     251     251       0     253     254
     254       0     256     257     257       0     259     260     260       0
     262     263     263       0     265     266     266       0     268     269
     269       0     271     272     272       0     274     275     275       0
     277     278     278       0     280     281     281       0     283     284
     284       0     286     287     287       0     289     290     290       0
     292     293     293       0     295     296     296       0     298     299
     299       0     301     302     302       0     304     305     305       0
     307     308     308       0     310     311     311       0     313     314
     314       0     316     317     317       0     319     320     320       0
     322     323     323       0     325     326     326       0     328     329
     329       0     331     332     332       0     334     335     335       0
     337     338     338       0     340     341     341       0     343     344
     344       0     346     347     347       0     349     350     350       0
     352     353     353       0     355     356     356       0     358     359
     359       0     361     362     362       0     364     365     365       0
     367     368     368       0     370     371     371       0     373     374
     374       0     376     377     377       0     379     380     380       0
     382     383     383       0     385     386     386       0     388     389
     389       0     391     392     392       0     394     395     395       0
     397     398     398       0     400     401     401       0     403     404
     404       0     406     407     407       0     409     410     410       0
     412     413     413       0     415     416     416       0     418     419
     419       0     421     422     422       0     424     425     425       0
     427     428     428       0     430     431     431       0     433     434
     434       0     436     437     437       0     439     440     440       0
     442     443     443       0     445     446     446       0     448     449
     449       0     451     452     452       0     454     455     455       0
     457     458     458       0     460     461     461       0     463     464
     464       0     466     467     467       0     469     470     470       0
     472     473     473       0     475     476     476       0     478     479
     479       0     481     482     482       0     484     485     485       0
     487     488     488       0     490     491     491       0     493     494
     494       0     496     497     497       0     499     500     500       0
     502     503     503       0     505     506     506       0     508     509
     509       0     511     512     512       0     514     515     515       0
     517     518     518       0     520     521     521       0     523     524
     524       0     526     527     527       0     529     530     530       0
     532     533     533       0     535     536     536       0     538     539
     539       0     541     542     542       0     544     545     545       0
     547     548     548       0     550     551     551       0     553     554
     554       0     556     557     557       0     559     560     560       0
     562     563     563       0     565     566     566       0     568     569
     569       0     571     572     572       0     574     575     575       0
     577     578     578       0     580     581     581       0     583     584
     584       0     586     587     587       0     589     590     590       0
     592     593     593       0     595     596     596       0     598     599
     599       0     601     602     602       0     604     605     605       0
     607     608     608       0     610     611     611       0     613     614
     614       0     616     617     617       0     619     620     620       0
     622     623     623       0     625     626     626       0     628     629
     629       0     631     632     632       0     634     635     635       0
     637     638     638       0     640     641     641       0     643     644
     644       0     646     647     647       0     649     650     650       0
     652     653     653       0     655     656     656       0     658     659
     659       0     661     662     662       0     664     665     665       0
     667     668     668       0     670     671     671       0     673     674
     674       0     676     677     677       0     679     680     680       0
     682     683     683       0     685     686     686       0     688     689
     689       0     691     692     692       0     694     695     695       0
     697     698     698       0     700     701     701       0     703     704
     704       0     706     707     707       0     709     710     710       0
     712     713     713       0     715     716     716       0     718     719
     719       0     721     722     722       0     724     725     725       0
     727     728     728       0     730     731     731       0     733     734
     734       0     736     737     737       0     739     740     740       0
     742     743     743       0     745     746     746       0     748     749
     749       0     751     752     752       0     754     755     755       0
     757     758     758       0     760     761     761       0     763     764
     764       0     766     767     767       0     769     770     770       0
     772     773     773       0     775     776     776       0     778     779
     779       0     781     782     782       0     784     785     785       0
     787     788     788       0     790     791     791       0     793     794
     794       0     796     797     797       0     799     800     800       0
     802     803     803       0     805     806     806       0     808     809
     809       0     811     812     812       0     814     815     815       0
     817     818     818       0     820     821     821       0     823     824
     824       0     826     827     827       0     829     830     830       0
     832     833     833       0     835     836     836       0     838     839
     839       0     841     842     842       0     844     845     845       0
     847     848     848       0     850     851     851       0     853     854
     854       0     856     857     857       0     859     860     860       0
     862     863     863       0     865     866     866       0     868     869
     869       0     871     872     872       0     874     875     875       0
     877     878     878       0     880     881     881       0     883     884
     884       0     886     887     887       0     889     890     890       0
     892     893     893       0     895     896     896       0     898     899
     899       0     901     902     902       0     904     905     905       0
     907     908     908       0     910     911     911       0     913     914
     914       0     916     917     917       0     919     920     920       0
     922     923     923       0     925     926     926       0     928     929
     929       0     931     932     932       0     934     935     935       0
     937     938     938       0     940     941     941       0     943     944
     944       0     946     947     947       0     949     950     950       0
     952     953     953       0     955     956     956       0     958     959
     959       0     961     962     962       0     964     965     965       0
     967     968     968       0     970     971     971       0     973     974
     974       0     976     977     977       0     979     980     980       0
     982     983     983       0     985     986     986       0     988     989
     989       0     991     992     992       0     994     995     995       0
     997     998     998       0    1000    1001    1001       0    1003    1004
    1004       0    1006    1007    1007       0    1009    1010    1010       0
    1012    1013    1013       0    1015    1016    1016       0    1018    1019
    1019       0    1021    1022    1022       0    1024    1025    1025       0
    1027    1028    1028       0    1030    1031    1031       0    1033    1034
    1034       0    1036    1037    1037       0    1039    1040    1040       0
    1042    1043    1043       0    1045    1046    1046       0    1048    1049
    1049       0    1051    1052    1052       0    1054    1055    1055       0
    1057    1058    1058       0    1060    1061    1061       0    1063    1064
    1064       0    1066    1067    1067       0    1069    1070    1070       0
    1072    1073    1073       0    1075    1076    1076       0    1078    1079
    1079       0    1081    1082    1082       0    1084    1085    1085       0
    1087    1088    1088       0    1090    1091    1091       0    1093    1094
    1094       0    1096    1097    1097       0    1099    1100    1100       0
    1102    1103    1103       0    1105    1106    1106       0    1108    1109
    1109       0    1111    1112    1112       0    1114    1115    1115       0
    1117    1118    1118       0    1120    1121    1121       0    1123    1124
    1124       0    1126    1127    1127       0    1129    1130    1130       0
    1132    1133    1133       0    1135    1136    1136       0    1138    1139
    1139       0    1141    1142    1142       0    1144    1145    1145       0
    1147    1148    1148       0    1150    1151    1151       0    1153    1154
    1154       0    1156    1157    1157       0    1159    1160    1160       0
    1162    1163    1163       0    1165    1166    1166       0    1168    1169
    1169       0    1171    1172    1172       0    1174    1175    1175       0
    1177    1178    1178       0    1180    1181    1181       0    1183    1184
    1184       0    1186    1187    1187       0    1189    1190    1190       0
    1192    1193    1193       0    1195    1196    1196       0    1198    1199
    1199       0    1201    1202    1202       0    1204    1205    1205       0
    1207    1208    1208       0    1210    1211    1211       0    1213    1214
    1214       0    1216    1217    1217       0    1219    1220    1220       0
    1222    1223    1223       0    1225    1226    1226       0    1228    1229
    1229       0    1231    1232    1232       0    1234    1235    1235       0
    1237    1238    1238       0    1240    1241    1241       0    1243    1244
    1244       0    1246    1247    1247       0    1249    1250    1250       0
    1252    1253    1253       0    1255    1256    1256       0    1258    1259
    1259       0    1261    1262    1262       0    1264    1265    1265       0
    1267    1268    1268       0    1270    1271    1271       0    1273    1274
    1274       0    1276    1277    1277       0    1279    1280    1280       0
    1282    1283    1283       0    1285    1286    1286       0    1288    1289
    1289       0    1291    1292    1292       0    1294    1295    1295       0
    1297    1298    1298       0    1300    1301    1301       0    1303    1304
    1304       0    1306    1307    1307       0    1309    1310    1310       0
    1312    1313    1313       0    1315    1316    1316       0    1318    1319
    1319       0    1321    1322    1322       0    1324    1325    1325       0
    1327    1328    1328       0    1330    1331    1331       0    1333    1334
    1334       0    1336    1337    1337       0    1339    1340    1340       0
    1342    1343    1343       0    1345    1346    1346       0    1348    1349
    1349       0    1351    1352    1352       0    1354    1355    1355       0
    1357    1358    1358       0    1360    1361    1361       0    1363    1364
    1364       0    1366    1367    1367       0    1369    1370    1370       0
    1372    1373    1373       0    1375    1376    1376       0    1378    1379
    1379       0    1381    1382    1382       0    1384    1385    1385       0
    1387    1388    1388       0    1390    1391    1391       0    1393    1394
    1394       0    1396    1397    1397       0    1399    1400    1400       0
    1402    1403    1403       0    1405    1406    1406       0    1408    1409
    1409       0    1411    1412    1412       0    1414    1415    1415       0
    1417    1418    1418       0    1420    1421    1421       0    1423    1424
    1424       0    1426    1427    1427       0    1429    1430    1430       0
    1432    1433    1433       0    1435    1436    1436       0    1438    1439
    1439       0    1441    1442    1442       0    1444    1445    1445       0
    1447    1448    1448       0    1450    1451    1451       0    1453    1454
    1454       0    1456    1457    1457       0    1459    1460    1460       0
    1462    1463    1463       0    1465    1466    1466       0    1468    1469
    1469       0    1471    1472    1472       0    1474    1475    1475       0
    1477    1478    1478       0    1480    1481    1481       0    1483    1484
    1484       0    1486    1487    1487       0    1489    1490    1490       0
    1492    1493    1493       0    1495    1496    1496       0    1498    1499
    1499       0    1501    1502    1502       0    1504    1505    1505       0
    1507    1508    1508       0    1510    1511    1511       0    1513    1514
    1514       0    1516    1517    1517       0    1519    1520    1520       0
    1522    1523    1523       0    1525    1526    1526       0    1528    1529
    1529       0    1531    1532    1532       0    1534    1535    1535       0
    1537    1538    1538       0    1540    1541    1541       0    1543    1544
    1544       0    1546    1547    1547       0    1549    1550    1550       0
    1552    1553    1553       0    1555    1556    1556       0    1558    1559
    1559       0    1561    1562    1562       0    1564    1565    1565       0
    1567    1568    1568       0    1570    1571    1571       0    1573    1574
    1574       0    1576    1577    1577       0    1579    1580    1580       0
    1582    1583    1583       0    1585    1586    1586       0    1588    1589
    1589       0    1591    1592    1592       0    1594    1595    1595       0
    1597    1598    1598       0    1600    1601    1601       0    1603    1604
    1604       0    1606    1607    1607       0    1609    1610    1610       0
    1612    1613    1613       0    1615    1616    1616       0    1618    1619
    1619       0    1621    1622    1622       0    1624    1625    1625       0
    1627    1628    1628       0    1630    1631    1631       0    1633    1634
    1634       0    1636    1637    1637       0    1639    1640    1640       0
    1642    1643    1643       0    1645    1646    1646       0    1648    1649
    1649       0    1651    1652    1652       0    1654    1655    1655       0
    1657    1658    1658       0    1660    1661    1661       0    1663    1664
    1664       0    1666    1667    1667       0    1669    1670    1670       0
    1672    1673    1673       0    1675    1676    1676       0    1678    1679
    1679       0    1681    1682    1682       0    1684    1685    1685       0
    1687    1688    1688       0    1690    1691    1691       0    1693    1694
    1694       0    1696    1697    1697       0    1699    1700    1700       0
    1702    1703    1703       0    1705    1706    1706       0    1708    1709
    1709       0    1711    1712    1712       0    1714    1715    1715       0
    1717    1718    1718       0    1720    1721    1721       0    1723    1724
    1724       0    1726    1727    1727       0    1729    1730    1730       0
    1732    1733    1733       0    1735    1736    1736       0    1738    1739
    1739       0    1741    1742    1742       0    1744    1745    1745       0
    1747    1748    1748       0    1750    1751    1751       0    1753    1754
    1754       0    1756    1757    1757       0    1759    1760    1760       0
    1762    1763    1763       0    1765    1766    1766       0    1768    1769
    1769       0    1771    1772    1772       0    1774    1775    1775       0
    1777    1778    1778       0    1780    1781    1781       0    1783    1784
    1784       0    1786    1787    1787       0    1789    1790    1790       0
    1792    1793    1793       0    1795    1796    1796       0    1798    1799
    1799       0    1801    1802    1802       0    1804    1805    1805       0
    1807    1808    1808       0    1810    1811    1811       0    1813    1814
    1814       0    1816    1817    1817       0    1819    1820    1820       0
    1822    1823    1823       0    1825    1826    1826       0    1828    1829
    1829       0    1831    1832    1832       0    1834    1835    1835       0
    1837    1838    1838       0    1840    1841    1841       0    1843    1844
    1844       0    1846    1847    1847       0    1849    1850    1850       0
    1852    1853    1853       0    1855    1856    1856       0    1858    1859
    1859       0    1861    1862    1862       0    1864    1865    1865       0
    1867    1868    1868       0    1870    1871    1871       0    1873    1874
    1874       0    1876    1877    1877       0    1879    1880    1880       0
    1882    1883    1883       0    1885    1886    1886       0    1888    1889
    1889       0    1891    1892    1892       0    1894    1895    1895       0
    1897    1898    1898       0    1900    1901    1901       0    1903    1904
    1904       0    1906    1907    1907       0    1909    1910    1910       0
    1912    1913    1913       0    1915    1916    1916       0    1918    1919
    1919       0    1921    1922    1922       0    1924    1925    1925       0
    1927    1928    1928       0    1930    1931    1931       0    1933    1934
    1934       0    1936    1937    1937       0    1939    1940    1940       0
    1942    1943    1943       0    1945    1946    1946       0    1948    1949
    1949       0    1951    1952    1952       0    1954    1955    1955       0
    1957    1958    1958       0    1960    1961    1961       0    1963    1964
    1964       0    1966    1967    1967       0    1969    1970    1970       0
    1972    1973    1973       0    1975    1976    1976       0    1978    1979
    1979       0    1981    1982    1982       0    1984    1985    1985       0
    1987    1988    1988       0    1990    1991    1991       0    1993    1994
    1994       0    1996    1997    1997       0    1999    2000    2000       0
    2002    2003    2003       0    2005    2006    2006       0    2008    2009
    2009       0    2011    2012    2012       0    2014    2015    2015       0
    2017    2018    2018       0    2020    2021    2021       0    2023    2024
    2024       0    2026    2027    2027       0    2029    2030    2030       0
    2032    2033    2033       0    2035    2036    2036       0    2038    2039
    2039       0    2041    2042    2042       0    2044    2045    2045       0
    2047    2048    2048       0    2050    2051    2051       0    2053    2054
    2054       0    2056    2057    2057       0    2059    2060    2060       0
    2062    2063    2063       0    2065    2066    2066       0    2068    2069
    2069       0    2071    2072    2072       0    2074    2075    2075       0
    2077    2078    2078       0    2080    2081    2081       0    2083    2084
    2084       0    2086    2087    2087       0    2089    2090    2090       0
    2092    2093    2093       0    2095    2096    2096       0    2098    2099
    2099       0    2101    2102    2102       0    2104    2105    2105       0
    2107    2108    2108       0    2110    2111    2111       0    2113    2114
    2114       0    2116    2117    2117       0    2119    2120    2120       0
    2122    2123    2123       0    2125    2126    2126       0    2128    2129
    2129       0    2131    2132    2132       0    2134    2135    2135       0
    2137    2138    2138       0    2140    2141    2141       0    2143    2144
    2144       0    2146    2147    2147       0    2149    2150    2150       0
    2152    2153    2153       0    2155    2156    2156       0    2158    2159
    2159       0    2161    2162    2162       0    2164    2165    2165       0
    2167    2168    2168       0    2170    2171    2171       0    2173    2174
    2174       0    2176    2177    2177       0    2179    2180    2180       0
    2182    2183    2183       0    2185    2186    2186       0    2188    2189
    2189       0    2191    2192    2192       0    2194    2195    2195       0
    2197    2198    2198       0    2200    2201    2201       0    2203    2204
    2204       0    2206    2207    2207       0    2209    2210    2210       0
    2212    2213    2213       0    2215    2216    2216       0    2218    2219
    2219       0    2221    2222    2222       0    2224    2225    2225       0
    2227    2228    2228       0    2230    2231    2231       0    2233    2234
    2234       0    2236    2237    2237       0    2239    2240    2240       0
    2242    2243    2243       0    2245    2246    2246       0    2248    2249
    2249       0    2251    2252    2252       0    2254    2255    2255       0
    2257    2258    2258       0    2260    2261    2261       0    2263    2264
    2264       0    2266    2267    2267       0    2269    2270    2270       0
    2272    2273    2273       0    2275    2276    2276       0    2278    2279
    2279       0    2281    2282    2282       0    2284    2285    2285       0
    2287    2288    2288       0    2290    2291    2291       0    2293    2294
    2294       0    2296    2297    2297       0    2299    2300    2300       0
    2302    2303    2303       0    2305    2306    2306       0    2308    2309
    2309       0    2311    2312    2312       0    2314    2315    2315       0
    2317    2318    2318       0    2320    2321    2321       0    2323    2324
    2324       0    2326    2327    2327       0    2329    2330    2330       0
    2332    2333    2333       0    2335    2336    2336       0    2338    2339
    2339       0    2341    2342    2342       0    2344    2345    2345       0
    2347    2348    2348       0    2350    2351    2351       0    2353    2354
    2354       0    2356    2357    2357       0    2359    2360    2360       0
    2362    2363    2363       0    2365    2366    2366       0    2368    2369
    2369       0    2371    2372    2372       0    2374    2375    2375       0
    2377    2378    2378       0    2380    2381    2381       0    2383    2384
    2384       0    2386    2387    2387       0    2389    2390    2390       0
    2392    2393    2393       0    2395    2396    2396       0    2398    2399
    2399       0    2401    2402    2402       0    2404    2405    2405       0
    2407    2408    2408       0    2410    2411    2411       0    2413    2414
    2414       0    2416    2417    2417       0    2419    2420    2420       0
    2422    2423    2423       0    2425    2426    2426       0    2428    2429
    2429       0    2431    2432    2432       0    2434    2435    2435       0
    2437    2438    2438       0    2440    2441    2441       0    2443    2444
    2444       0    2446    2447    2447       0    2449    2450    2450       0
    2452    2453    2453       0    2455    2456    2456       0    2458    2459
    2459       0    2461    2462    2462       0    2464    2465    2465       0
    2467    2468    2468       0    2470    2471    2471       0    2473    2474
    2474       0    2476    2477    2477       0    2479    2480    2480       0
    2482    2483    2483       0    2485    2486    2486       0    2488    2489
    2489       0    2491    2492    2492       0    2494    2495    2495       0
    2497    2498    2498       0    2500    2501    2501       0    2503    2504
    2504       0    2506    2507    2507       0    2509    2510    2510       0
    2512    2513    2513       0    2515    2516    2516       0    2518    2519
    2519       0    2521    2522    2522       0    2524    2525    2525       0
    2527    2528    2528       0    2530    2531    2531       0    2533    2534
    2534       0    2536    2537    2537       0    2539    2540    2540       0
    2542    2543    2543       0    2545    2546    2546       0    2548    2549
    2549       0    2551    2552    2552       0    2554    2555    2555       0
    2557    2558    2558       0    2560    2561    2561       0    2563    2564
    2564       0    2566    2567    2567       0    2569    2570    2570       0
    2572    2573    2573       0    2575    2576    2576       0    2578    2579
    2579       0    2581    2582    2582       0    2584    2585    2585       0
    2587    2588    2588       0    2590    2591    2591       0    2593    2594
    2594       0    2596    2597    2597       0    2599    2600    2600       0
    2602    2603    2603       0    2605    2606    2606       0    2608    2609
    2609       0    2611    2612    2612       0    2614    2615    2615       0
    2617    2618    2618       0    2620    2621    2621       0    2623    2624
    2624       0    2626    2627    2627       0    2629    2630    2630       0
    2632    2633    2633       0    2635    2636    2636       0    2638    2639
    2639       0    2641    2642    2642       0    2644    2645    2645       0
    2647    2648    2648       0    2650    2651    2651       0    2653    2654
    2654       0    2656    2657    2657       0    2659    2660    2660       0
    2662    2663    2663       0    2665    2666    2666       0    2668    2669
    2669       0    2671    2672    2672       0    2674    2675    2675       0
    2677    2678    2678       0    2680    2681    2681       0    2683    2684
    2684       0    2686    2687    2687       0    2689    2690    2690       0
    2692    2693    2693       0    2695    2696    2696       0    2698    2699
    2699       0    2701    2702    2702       0    2704    2705    2705       0
    2707    2708    2708       0    2710    2711    2711       0    2713    2714
    2714       0    2716    2717    2717       0    2719    2720    2720       0
    2722    2723    2723       0    2725    2726    2726       0    2728    2729
    2729       0    2731    2732    2732       0    2734    2735    2735       0
    2737    2738    2738       0    2740    2741    2741       0    2743    2744
    2744       0    2746    2747    2747       0    2749    2750    2750       0
    2752    2753    2753       0    2755    2756    2756       0    2758    2759
    2759       0    2761    2762    2762       0    2764    2765    2765       0
    2767    2768    2768       0    2770    2771    2771       0    2773    2774
    2774       0    2776    2777    2777       0    2779    2780    2780       0
    2782    2783    2783       0    2785    2786    2786       0    2788    2789
    2789       0    2791    2792    2792       0    2794    2795    2795       0
    2797    2798    2798       0    2800    2801    2801       0    2803    2804
    2804       0    2806    2807    2807       0    2809    2810    2810       0
    2812    2813    2813       0    2815    2816    2816       0    2818    2819
    2819       0    2821    2822    2822       0    2824    2825    2825       0
    2827    2828    2828       0    2830    2831    2831       0    2833    2834
    2834       0    2836    2837    2837       0    2839    2840    2840       0
    2842    2843    2843       0    2845    2846    2846       0    2848    2849
    2849       0    2851    2852    2852       0    2854    2855    2855       0
    2857    2858    2858       0    2860    2861    2861       0    2863    2864
    2864       0    2866    2867    2867       0    2869    2870    2870       0
    2872    2873    2873       0    2875    2876    2876       0    2878    2879
    2879       0    2881    2882    2882       0    2884    2885    2885       0
    2887    2888    2888       0    2890    2891    2891       0    2893    2894
    2894       0    2896    2897    2897       0    2899    2900    2900       0
    2902    2903    2903       0    2905    2906    2906       0    2908    2909
    2909       0    2911    2912    2912       0    2914    2915    2915       0
    2917    2918    2918       0    2920    2921    2921       0    2923    2924
    2924       0    2926    2927    2927       0    2929    2930    2930       0
    2932    2933    2933       0    2935    2936    2936       0    2938    2939
    2939       0    2941    2942    2942       0    2944    2945    2945       0
    2947    2948    2948       0    2950    2951    2951       0    2953    2954
    2954       0    2956    2957    2957       0    2959    2960    2960       0
    2962    2963    2963       0    2965    2966    2966       0    2968    2969
    2969       0    2971    2972    2972       0    2974    2975    2975       0
    2977    2978    2978       0    2980    2981    2981       0    2983    2984
    2984       0    2986    2987    2987       0    2989    2990    2990       0
    2992    2993    2993       0    2995    2996    2996       0    2998    2999
    2999       0    3001    3002    3002       0    3004    3005    3005       0
    3007    3008    3008       0    3010    3011    3011       0    3013    3014
    3014       0    3016    3017    3017       0    3019    3020    3020       0
    3022    3023    3023       0    3025    3026    3026       0    3028    3029
    3029       0    3031    3032    3032       0    3034    3035    3035       0
    3037    3038    3038       0    3040    3041    3041       0    3043    3044
    3044       0    3046    3047    3047       0    3049    3050    3050       0
    3052    3053    3053       0    3055    3056    3056       0    3058    3059
    3059       0    3061    3062    3062       0    3064    3065    3065       0
    3067    3068    3068       0    3070    3071    3071       0    3073    3074
    3074       0    3076    3077    3077       0    3079    3080    3080       0
    3082    3083    3083       0    3085    3086    3086       0    3088    3089
    3089       0    3091    3092    3092       0    3094    3095    3095       0
    3097    3098    3098       0    3100    3101    3101       0    3103    3104
    3104       0    3106    3107    3107       0    3109    3110    3110       0
    3112    3113    3113       0    3115    3116    3116       0    3118    3119
    3119       0    3121    3122    3122       0    3124    3125    3125       0
    3127    3128    3128       0    3130    3131    3131       0    3133    3134
    3134       0    3136    3137    3137       0    3139    3140    3140       0
    3142    3143    3143       0    3145    3146    3146       0    3148    3149
    3149       0    3151    3152    3152       0    3154    3155    3155       0
    3157    3158    3158       0    3160    3161    3161       0    3163    3164
    3164       0    3166    3167    3167       0    3169    3170    3170       0
    3172    3173    3173       0    3175    3176    3176       0    3178    3179
    3179       0    3181    3182    3182       0    3184    3185    3185       0
    3187    3188    3188       0    3190    3191    3191       0    3193    3194
    3194       0    3196    3197    3197       0    3199    3200    3200       0
    3202    3203    3203       0    3205    3206    3206       0    3208    3209
    3209       0    3211    3212    3212       0    3214    3215    3215       0
    3217    3218    3218       0    3220    3221    3221       0    3223    3224
    3224       0    3226    3227    3227       0    3229    3230    3230       0
    3232    3233    3233       0    3235    3236    3236       0    3238    3239
    3239       0    3241    3242    3242       0    3244    3245    3245       0
    3247    3248    3248       0    3250    3251    3251       0    3253    3254
    3254       0    3256    3257    3257       0    3259    3260    3260       0
    3262    3263    3263       0    3265    3266    3266       0    3268    3269
    3269       0    3271    3272    3272       0    3274    3275    3275       0
    3277    3278    3278       0    3280    3281    3281       0    3283    3284
    3284       0    3286    3287    3287       0    3289    3290    3290       0
    3292    3293    3293       0    3295    3296    3296       0    3298    3299
    3299       0    3301    3302    3302       0    3304    3305    3305       0
    3307    3308    3308       0    3310    3311    3311       0    3313    3314
    3314       0    3316    3317    3317       0    3319    3320    3320       0
    3322    3323    3323       0    3325    3326    3326       0    3328    3329
    3329       0    3331    3332    3332       0    3334    3335    3335       0
    3337    3338    3338       0    3340    3341    3341       0    3343    3344
    3344       0    3346    3347    3347       0    3349    3350    3350       0
    3352    3353    3353       0    3355    3356    3356       0    3358    3359
    3359       0    3361    3362    3362       0    3364    3365    3365       0
    3367    3368    3368       0    3370    3371    3371       0    3373    3374
    3374       0    3376    3377    3377       0    3379    3380    3380       0
    3382    3383    3383       0    3385    3386    3386       0    3388    3389
    3389       0    3391    3392    3392       0    3394    3395    3395       0
    3397    3398    3398       0    3400    3401    3401       0    3403    3404
    3404       0    3406    3407    3407       0    3409    3410    3410       0
    3412    3413    3413       0    3415    3416    3416       0    3418    3419
    3419       0    3421    3422    3422       0    3424    3425    3425       0
    3427    3428    3428       0    3430    3431    3431       0    3433    3434
    3434       0    3436    3437    3437       0    3439    3440    3440       0
    3442    3443    3443       0    3445    3446    3446       0    3448    3449
    3449       0    3451    3452    3452       0    3454    3455    3455       0
    3457    3458    3458       0    3460    3461    3461       0    3463    3464
    3464       0    3466    3467    3467       0    3469    3470    3470       0
    3472    3473    3473       0    3475    3476    3476       0    3478    3479
    3479       0    3481    3482    3482       0    3484    3485    3485       0
    3487    3488    3488       0    3490    3491    3491       0    3493    3494
    3494       0    3496    3497    3497       0    3499    3500    3500       0
    3502    3503    3503       0    3505    3506    3506       0    3508    3509
    3509       0    3511    3512    3512       0    3514    3515    3515       0
    3517    3518    3518       0    3520    3521    3521       0    3523    3524
    3524       0    3526    3527    3527       0    3529    3530    3530       0
    3532    3533    3533       0    3535    3536    3536       0    3538    3539
    3539       0    3541    3542    3542       0    3544    3545    3545       0
    3547    3548    3548       0    3550    3551    3551       0    3553    3554
    3554       0    3556    3557    3557       0    3559    3560    3560       0
    3562    3563    3563       0    3565    3566    3566       0    3568    3569
    3569       0    3571    3572    3572       0    3574    3575    3575       0
    3577    3578    3578       0    3580    3581    3581       0    3583    3584
    3584       0    3586    3587    3587       0    3589    3590    3590       0
    3592    3593    3593       0    3595    3596    3596       0    3598    3599
    3599       0    3601    3602    3602       0    3604    3605    3605       0
    3607    3608    3608       0    3610    3611    3611       0    3613    3614
    3614       0    3616    3617    3617       0    3619    3620    3620       0
    3622    3623    3623       0    3625    3626    3626       0    3628    3629
    3629       0    3631    3632    3632       0    3634    3635    3635       0
    3637    3638    3638       0    3640    3641    3641       0    3643    3644
    3644       0    3646    3647    3647       0    3649    3650    3650       0
    3652    3653    3653       0    3655    3656    3656       0    3658    3659
    3659       0    3661    3662    3662       0    3664    3665    3665       0
    3667    3668    3668       0    3670    3671    3671       0    3673    3674
    3674       0    3676    3677    3677       0    3679    3680    3680       0
    3682    3683    3683       0    3685    3686    3686       0    3688    3689
    3689       0    3691    3692    3692       0    3694    3695    3695       0
    3697    3698    3698       0    3700    3701    3701       0    3703    3704
    3704       0    3706    3707    3707       0    3709    3710    3710       0
    3712    3713    3713       0    3715    3716    3716       0    3718    3719
    3719       0    3721    3722    3722       0    3724    3725    3725       0
    3727    3728    3728       0    3730    3731    3731       0    3733    3734
    3734       0    3736    3737    3737       0    3739    3740    3740       0
    3742    3743    3743       0    3745    3746    3746       0    3748    3749
    3749       0    3751    3752    3752       0    3754    3755    3755       0
    3757    3758    3758       0    3760    3761    3761       0    3763    3764
    3764       0    3766    3767    3767       0    3769    3770    3770       0
    3772    3773    3773       0    3775    3776    3776       0    3778    3779
    3779       0    3781    3782    3782       0    3784    3785    3785       0
    3787    3788    3788       0    3790    3791    3791       0    3793    3794
    3794       0    3796    3797    3797       0    3799    3800    3800       0
    3802    3803    3803       0    3805    3806    3806       0    3808    3809
    3809       0    3811    3812    3812       0    3814    3815    3815       0
    3817    3818    3818       0    3820    3821    3821       0    3823    3824
    3824       0    3826    3827    3827       0    3829    3830    3830       0
    3832    3833    3833       0    3835    3836    3836       0    3838    3839
    3839       0    3841    3842    3842       0    3844    3845    3845       0
    3847    3848    3848       0    3850    3851    3851       0    3853    3854
    3854       0    3856    3857    3857       0    3859    3860    3860       0
    3862    3863    3863       0    3865    3866    3866       0    3868    3869
    3869       0    3871    3872    3872       0    3874    3875    3875       0
    3877    3878    3878       0    3880    3881    3881       0    3883    3884
    3884       0    3886    3887    3887       0    3889    3890    3890       0
    3892    3893    3893       0    3895    3896    3896       0    3898    3899
    3899       0    3901    3902    3902       0    3904    3905    3905       0
    3907    3908    3908       0    3910    3911    3911       0    3913    3914
    3914       0    3916    3917    3917       0    3919    3920    3920       0
    3922    3923    3923       0    3925    3926    3926       0    3928    3929
    3929       0    3931    3932    3932       0    3934    3935    3935       0
    3937    3938    3938       0    3940    3941    3941       0    3943    3944
    3944       0    3946    3947    3947       0    3949    3950    3950       0
    3952    3953    3953       0    3955    3956    3956       0    3958    3959
    3959       0    3961    3962    3962       0    3964    3965    3965       0
    3967    3968    3968       0    3970    3971    3971       0    3973    3974
    3974       0    3976    3977    3977       0    3979    3980    3980       0
    3982    3983    3983       0    3985    3986    3986       0    3988    3989
    3989       0    3991    3992    3992       0    3994    3995    3995       0
    3997    3998    3998       0    4000    4001    4001       0    4003    4004
    4004       0    4006    4007    4007       0    4009    4010    4010       0
    4012    4013    4013       0    4015    4016    4016       0    4018    4019
    4019       0    4021    4022    4022       0    4024    4025    4025       0
    4027    4028    4028       0    4030    4031    4031       0    4033    4034
    4034       0    4036    4037    4037       0    4039    4040    4040       0
    4042    4043    4043       0    4045    4046    4046       0    4048    4049
    4049       0    4051    4052    4052       0    4054    4055    4055       0
    4057    4058    4058       0    4060    4061    4061       0    4063    4064
    4064       0    4066    4067    4067       0    4069    4070    4070       0
    4072    4073    4073       0    4075    4076    4076       0    4078    4079
    4079       0    4081    4082    4082       0    4084    4085    4085       0
    4087    4088    4088       0    4090    4091    4091       0    4093    4094
    4094       0    4096    4097    4097       0    4099    4100    4100       0
    4102    4103    4103       0    4105    4106    4106       0    4108    4109
    4109       0    4111    4112    4112       0    4114    4115    4115       0
    4117    4118    4118       0    4120    4121    4121       0    4123    4124
    4124       0    4126    4127    4127       0    4129    4130    4130       0
    4132    4133    4133       0    4135    4136    4136       0    4138    4139
    4139       0    4141    4142    4142       0    4144    4145    4145       0
    4147    4148    4148       0    4150    4151    4151       0    4153    4154
    4154       0    4156    4157    4157       0    4159    4160    4160       0
    4162    4163    4163       0    4165    4166    4166       0    4168    4169
    4169       0    4171    4172    4172       0    4174    4175    4175       0
    4177    4178    4178       0    4180    4181    4181       0    4183    4184
    4184       0    4186    4187    4187       0    4189    4190    4190       0
    4192    4193    4193       0    4195    4196    4196       0    4198    4199
    4199       0    4201    4202    4202       0    4204    4205    4205       0
    4207    4208    4208       0    4210    4211    4211       0    4213    4214
    4214       0    4216    4217    4217       0    4219    4220    4220       0
    4222    4223    4223       0    4225    4226    4226       0    4228    4229
    4229       0    4231    4232    4232       0    4234    4235    4235       0
    4237    4238    4238       0    4240    4241    4241       0    4243    4244
    4244       0    4246    4247    4247       0    4249    4250    4250       0
    4252    4253    4253       0    4255    4256    4256       0    4258    4259
    4259       0    4261    4262    4262       0    4264    4265    4265       0
    4267    4268    4268       0    4270    4271    4271       0    4273    4274
    4274       0    4276    4277    4277       0    4279    4280    4280       0
    4282    4283    4283       0    4285    4286    4286       0    4288    4289
    4289       0    4291    4292    4292       0    4294    4295    4295       0
    4297    4298    4298       0    4300    4301    4301       0    4303    4304
    4304       0    4306    4307    4307       0    4309    4310    4310       0
    4312    4313    4313       0    4315    4316    4316       0    4318    4319
    4319       0    4321    4322    4322       0    4324    4325    4325       0
    4327    4328    4328       0    4330    4331    4331       0    4333    4334
    4334       0    4336    4337    4337       0    4339    4340    4340       0
    4342    4343    4343       0    4345    4346    4346       0    4348    4349
    4349       0    4351    4352    4352       0    4354    4355    4355       0
    4357    4358    4358       0    4360    4361    4361       0    4363    4364
    4364       0    4366    4367    4367       0    4369    4370    4370       0
    4372    4373    4373       0    4375    4376    4376       0    4378    4379
    4379       0    4381    4382    4382       0    4384    4385    4385       0
    4387    4388    4388       0    4390    4391    4391       0    4393    4394
    4394       0    4396    4397    4397       0    4399    4400    4400       0
    4402    4403    4403       0    4405    4406    4406       0    4408    4409
    4409       0    4411    4412    4412       0    4414    4415    4415       0
    4417    4418    4418       0    4420    4421    4421       0    4423    4424
    4424       0    4426    4427    4427       0    4429    4430    4430       0
    4432    4433    4433       0    4435    4436    4436       0    4438    4439
    4439       0    4441    4442    4442       0    4444    4445    4445       0
    4447    4448    4448       0    4450    4451    4451       0    4453    4454
    4454       0    4456    4457    4457       0    4459    4460    4460       0
    4462    4463    4463       0    4465    4466    4466       0    4468    4469
    4469       0    4471    4472    4472       0    4474    4475    4475       0
    4477    4478    4478       0    4480    4481    4481       0    4483    4484
    4484       0    4486    4487    4487       0    4489    4490    4490       0
    4492    4493    4493       0    4495    4496    4496       0    4498    4499
    4499       0    4501    4502    4502       0    4504    4505    4505       0
    4507    4508    4508       0    4510    4511    4511       0    4513    4514
    4514       0    4516    4517    4517       0    4519    4520    4520       0
    4522    4523    4523       0    4525    4526    4526       0    4528    4529
    4529       0    4531    4532    4532       0    4534    4535    4535       0
    4537    4538    4538       0    4540    4541    4541       0    4543    4544
    4544       0    4546    4547    4547       0    4549    4550    4550       0
    4552    4553    4553       0    4555    4556    4556       0    4558    4559
    4559       0    4561    4562    4562       0    4564    4565    4565       0
    4567    4568    4568       0    4570    4571    4571       0    4573    4574
    4574       0    4576    4577    4577       0    4579    4580    4580       0
    4582    4583    4583       0    4585    4586    4586       0    4588    4589
    4589       0    4591    4592    4592       0    4594    4595    4595       0
    4597    4598    4598       0    4600    4601    4601       0    4603    4604
    4604       0    4606    4607    4607       0    4609    4610    4610       0
    4612    4613    4613       0    4615    4616    4616       0    4618    4619
    4619       0    4621    4622    4622       0    4624    4625    4625       0
    4627    4628    4628       0    4630    4631    4631       0    4633    4634
    4634       0    4636    4637    4637       0    4639    4640    4640       0
    4642    4643    4643       0    4645    4646    4646       0    4648    4649
    4649       0    4651    4652    4652       0    4654    4655    4655       0
    4657    4658    4658       0    4660    4661    4661       0    4663    4664
    4664       0    4666    4667    4667       0    4669    4670    4670       0
    4672    4673    4673       0    4675    4676    4676       0    4678    4679
    4679       0    4681    4682    4682       0    4684    4685    4685       0
    4687    4688    4688       0    4690    4691    4691       0    4693    4694
    4694       0    4696    4697    4697       0    4699    4700    4700       0
    4702    4703    4703       0    4705    4706    4706       0    4708    4709
    4709       0    4711    4712    4712       0    4714    4715    4715       0
    4717    4718    4718       0    4720    4721    4721       0    4723    4724
    4724       0    4726    4727    4727       0    4729    4730    4730       0
    4732    4733    4733       0    4735    4736    4736       0    4738    4739
    4739       0    4741    4742    4742       0    4744    4745    4745       0
    4747    4748    4748       0    4750    4751    4751       0    4753    4754
    4754       0    4756    4757    4757       0    4759    4760    4760       0
    4762    4763    4763       0    4765    4766    4766       0    4768    4769
    4769       0    4771    4772    4772       0    4774    4775    4775       0
    4777    4778    4778       0    4780    4781    4781       0    4783    4784
    4784       0    4786    4787    4787       0    4789    4790    4790       0
    4792    4793    4793       0    4795    4796    4796       0    4798    4799
    4799       0    4801    4802    4802       0    4804    4805    4805       0
    4807    4808    4808       0    4810    4811    4811       0    4813    4814
    4814       0    4816    4817    4817       0    4819    4820    4820       0
    4822    4823    4823       0    4825    4826    4826       0    4828    4829
    4829       0    4831    4832    4832       0    4834    4835    4835       0
    4837    4838    4838       0    4840    4841    4841       0    4843    4844
    4844       0    4846    4847    4847       0    4849    4850    4850       0
    4852    4853    4853       0    4855    4856    4856       0    4858    4859
    4859       0    4861    4862    4862       0    4864    4865    4865       0
    4867    4868    4868       0    4870    4871    4871       0    4873    4874
    4874       0    4876    4877    4877       0    4879    4880    4880       0
    4882    4883    4883       0    4885    4886    4886       0    4888    4889
    4889       0    4891    4892    4892       0    4894    4895    4895       0
    4897    4898    4898       0    4900    4901    4901       0    4903    4904
    4904       0    4906    4907    4907       0    4909    4910    4910       0
    4912    4913    4913       0    4915    4916    4916       0    4918    4919
    4919       0    4921    4922    4922       0    4924    4925    4925       0
    4927    4928    4928       0    4930    4931    4931       0    4933    4934
    4934       0    4936    4937    4937       0    4939    4940    4940       0
    4942    4943    4943       0    4945    4946    4946       0    4948    4949
    4949       0    4951    4952    4952       0    4954    4955    4955       0
    4957    4958    4958       0    4960    4961    4961       0    4963    4964
    4964       0    4966    4967    4967       0    4969    4970    4970       0
    4972    4973    4973       0    4975    4976    4976       0    4978    4979
    4979       0    4981    4982    4982       0    4984    4985    4985       0
    4987    4988    4988       0    4990    4991    4991       0    4993    4994
    4994       0    4996    4997    4997       0    4999    5000    5000       0
    5002    5003    5003       0    5005    5006    5006       0    5008    5009
    5009       0    5011    5012    5012       0    5014    5015    5015       0
    5017    5018    5018       0    5020    5021    5021       0    5023    5024
    5024       0    5026    5027    5027       0    5029    5030    5030       0
    5032    5033    5033       0    5035    5036    5036       0    5038    5039
    5039       0    5041    5042    5042       0    5044    5045    5045       0
    5047    5048    5048       0    5050    5051    5051       0    5053    5054
    5054       0    5056    5057    5057       0    5059    5060    5060       0
    5062    5063    5063       0    5065    5066    5066       0    5068    5069
    5069       0    5071    5072    5072       0    5074    5075    5075       0
    5077    5078    5078       0    5080    5081    5081       0    5083    5084
    5084       0    5086    5087    5087       0    5089    5090    5090       0
    5092    5093    5093       0    5095    5096    5096       0    5098    5099
    5099       0    5101    5102    5102       0    5104    5105    5105       0
    5107    5108    5108       0    5110    5111    5111       0    5113    5114
    5114       0    5116    5117    5117       0    5119    5120    5120       0
    5122    5123    5123       0    5125    5126    5126       0    5128    5129
    5129       0    5131    5132    5132       0    5134    5135    5135       0
    5137    5138    5138       0    5140    5141    5141       0    5143    5144
    5144       0    5146    5147    5147       0    5149    5150    5150       0
    5152    5153    5153       0    5155    5156    5156       0    5158    5159
    5159       0    5161    5162    5162       0    5164    5165    5165       0
    5167    5168    5168       0    5170    5171    5171       0    5173    5174
    5174       0    5176    5177    5177       0    5179    5180    5180       0
    5182    5183    5183       0    5185    5186    5186       0    5188    5189
    5189       0    5191    5192    5192       0    5194    5195    5195       0
    5197    5198    5198       0    5200    5201    5201       0    5203    5204
    5204       0    5206    5207    5207       0    5209    5210    5210       0
    5212    5213    5213       0    5215    5216    5216       0    5218    5219
    5219       0    5221    5222    5222       0    5224    5225    5225       0
    5227    5228    5228       0    5230    5231    5231       0    5233    5234
    5234       0    5236    5237    5237       0    5239    5240    5240       0
    5242    5243    5243       0    5245    5246    5246       0    5248    5249
    5249       0    5251    5252    5252       0    5254    5255    5255       0
    5257    5258    5258       0    5260    5261    5261       0    5263    5264
    5264       0    5266    5267    5267       0    5269    5270    5270       0
    5272    5273    5273       0    5275    5276    5276       0    5278    5279
    5279       0    5281    5282    5282       0    5284    5285    5285       0
    5287    5288    5288       0    5290    5291    5291       0    5293    5294
    5294       0    5296    5297    5297       0    5299    5300    5300       0
    5302    5303    5303       0    5305    5306    5306       0    5308    5309
    5309       0    5311    5312    5312       0    5314    5315    5315       0
    5317    5318    5318       0    5320    5321    5321       0    5323    5324
    5324       0    5326    5327    5327       0    5329    5330    5330       0
    5332    5333    5333       0    5335    5336    5336       0    5338    5339
    5339       0    5341    5342    5342       0    5344    5345    5345       0
    5347    5348    5348       0    5350    5351    5351       0    5353    5354
    5354       0    5356    5357    5357       0    5359    5360    5360       0
    5362    5363    5363       0    5365    5366    5366       0    5368    5369
    5369       0    5371    5372    5372       0    5374    5375    5375       0
    5377    5378    5378       0    5380    5381    5381       0    5383    5384
    5384       0    5386    5387    5387       0    5389    5390    5390       0
    5392    5393    5393       0    5395    5396    5396       0    5398    5399
    5399       0    5401    5402    5402       0    5404    5405    5405       0
    5407    5408    5408       0    5410    5411    5411       0    5413    5414
    5414       0    5416    5417    5417       0    5419    5420    5420       0
    5422    5423    5423       0    5425    5426    5426       0    5428    5429
    5429       0    5431    5432    5432       0    5434    5435    5435       0
    5437    5438    5438       0    5440    5441    5441       0    5443    5444
    5444       0    5446    5447    5447       0    5449    5450    5450       0
    5452    5453    5453       0    5455    5456    5456       0    5458    5459
    5459       0    5461    5462    5462       0    5464    5465    5465       0
    5467    5468    5468       0    5470    5471    5471       0    5473    5474
    5474       0    5476    5477    5477       0    5479    5480    5480       0
    5482    5483    5483       0    5485    5486    5486       0    5488    5489
    5489       0    5491    5492    5492       0    5494    5495    5495       0
    5497    5498    5498       0    5500    5501    5501       0    5503    5504
    5504       0    5506    5507    5507       0    5509    5510    5510       0
    5512    5513    5513       0    5515    5516    5516       0    5518    5519
    5519       0    5521    5522    5522       0    5524    5525    5525       0
    5527    5528    5528       0    5530    5531    5531       0    5533    5534
    5534       0    5536    5537    5537       0    5539    5540    5540       0
    5542    5543    5543       0    5545    5546    5546       0    5548    5549
    5549       0    5551    5552    5552       0    5554    5555    5555       0
    5557    5558    5558       0    5560    5561    5561       0    5563    5564
    5564       0    5566    5567    5567       0    5569    5570    5570       0
    5572    5573    5573       0    5575    5576    5576       0    5578    5579
    5579       0    5581    5582    5582       0    5584    5585    5585       0
    5587    5588    5588       0    5590    5591    5591       0    5593    5594
    5594       0    5596    5597    5597       0    5599    5600    5600       0
    5602    5603    5603       0    5605    5606    5606       0    5608    5609
    5609       0    5611    5612    5612       0    5614    5615    5615       0
    5617    5618    5618       0    5620    5621    5621       0    5623    5624
    5624       0    5626    5627    5627       0    5629    5630    5630       0
    5632    5633    5633       0    5635    5636    5636       0    5638    5639
    5639       0    5641    5642    5642       0    5644    5645    5645       0
    5647    5648    5648       0    5650    5651    5651       0    5653    5654
    5654       0    5656    5657    5657       0    5659    5660    5660       0
    5662    5663    5663       0    5665    5666    5666       0    5668    5669
    5669       0    5671    5672    5672       0    5674    5675    5675       0
    5677    5678    5678       0    5680    5681    5681       0    5683    5684
    5684       0    5686    5687    5687       0    5689    5690    5690       0
    5692    5693    5693       0    5695    5696    5696       0    5698    5699
    5699       0    5701    5702    5702       0    5704    5705    5705       0
    5707    5708    5708       0    5710    5711    5711       0    5713    5714
    5714       0    5716    5717    5717       0    5719    5720    5720       0
    5722    5723    5723       0    5725    5726    5726       0    5728    5729
    5729       0    5731    5732    5732       0    5734    5735    5735       0
    5737    5738    5738       0    5740    5741    5741       0    5743    5744
    5744       0    5746    5747    5747       0    5749    5750    5750       0
    5752    5753    5753       0    5755    5756    5756       0    5758    5759
    5759       0    5761    5762    5762       0    5764    5765    5765       0
    5767    5768    5768       0    5770    5771    5771       0    5773    5774
    5774       0    5776    5777    5777       0    5779    5780    5780       0
    5782    5783    5783       0    5785    5786    5786       0    5788    5789
    5789       0    5791    5792    5792       0    5794    5795    5795       0
    5797    5798    5798       0    5800    5801    5801       0    5803    5804
    5804       0    5806    5807    5807       0    5809    5810    5810       0
    5812    5813    5813       0    5815    5816    5816       0    5818    5819
    5819       0    5821    5822    5822       0    5824    5825    5825       0
    5827    5828    5828       0    5830    5831    5831       0    5833    5834
    5834       0    5836    5837    5837       0    5839    5840    5840       0
    5842    5843    5843       0    5845    5846    5846       0    5848    5849
    5849       0    5851    5852    5852       0    5854    5855    5855       0
    5857    5858    5858       0    5860    5861    5861       0    5863    5864
    5864       0    5866    5867    5867       0    5869    5870    5870       0
    5872    5873    5873       0    5875    5876    5876       0    5878    5879
    5879       0    5881    5882    5882       0    5884    5885    5885       0
    5887    5888    5888       0    5890    5891    5891       0    5893    5894
    5894       0    5896    5897    5897       0    5899    5900    5900       0
    5902    5903    5903       0    5905    5906    5906       0    5908    5909
    5909       0    5911    5912    5912       0    5914    5915    5915       0
    5917    5918    5918       0    5920    5921    5921       0    5923    5924
    5924       0    5926    5927    5927       0    5929    5930    5930       0
    5932    5933    5933       0    5935    5936    5936       0    5938    5939
    5939       0    5941    5942    5942       0    5944    5945    5945       0
    5947    5948    5948       0    5950    5951    5951       0    5953    5954
    5954       0    5956    5957    5957       0    5959    5960    5960       0
    5962    5963    5963       0    5965    5966    5966       0    5968    5969
    5969       0    5971    5972    5972       0    5974    5975    5975       0
    5977    5978    5978       0    5980    5981    5981       0    5983    5984
    5984       0    5986    5987    5987       0    5989    5990    5990       0
    5992    5993    5993       0    5995    5996    5996       0    5998    5999
    5999       0    6001    6002    6002       0    6004    6005    6005       0
    6007    6008    6008       0    6010    6011    6011       0    6013    6014
    6014       0    6016    6017    6017       0    6019    6020    6020       0
    6022    6023    6023       0    6025    6026    6026       0    6028    6029
    6029       0    6031    6032    6032       0    6034    6035    6035       0
    6037    6038    6038       0    6040    6041    6041       0    6043    6044
    6044       0    6046    6047    6047       0    6049    6050    6050       0
    6052    6053    6053       0    6055    6056    6056       0    6058    6059
    6059       0    6061    6062    6062       0    6064    6065    6065       0
    6067    6068    6068       0    6070    6071    6071       0    6073    6074
    6074       0    6076    6077    6077       0    6079    6080    6080       0
    6082    6083    6083       0    6085    6086    6086       0    6088    6089
    6089       0    6091    6092    6092       0    6094    6095    6095       0
    6097    6098    6098       0    6100    6101    6101       0    6103    6104
    6104       0    6106    6107    6107       0    6109    6110    6110       0
    6112    6113    6113       0    6115    6116    6116       0    6118    6119
    6119       0    6121    6122    6122       0    6124    6125    6125       0
    6127    6128    6128       0    6130    6131    6131       0    6133    6134
    6134       0    6136    6137    6137       0    6139    6140    6140       0
    6142    6143    6143       0    6145    6146    6146       0    6148    6149
    6149       0    6151    6152    6152       0    6154    6155    6155       0
    6157    6158    6158       0    6160    6161    6161       0    6163    6164
    6164       0    6166    6167    6167       0    6169    6170    6170       0
    6172    6173    6173       0    6175    6176    6176       0    6178    6179
    6179       0    6181    6182    6182       0    6184    6185    6185       0
    6187    6188    6188       0    6190    6191    6191       0    6193    6194
    6194       0    6196    6197    6197       0    6199    6200    6200       0
    6202    6203    6203       0    6205    6206    6206       0    6208    6209
    6209       0    6211    6212    6212       0    6214    6215    6215       0
    6217    6218    6218       0    6220    6221    6221       0    6223    6224
    6224       0    6226    6227    6227       0    6229    6230    6230       0
    6232    6233    6233       0    6235    6236    6236       0    6238    6239
    6239       0    6241    6242    6242       0    6244    6245    6245       0
    6247    6248    6248       0    6250    6251    6251       0    6253    6254
    6254       0    6256    6257    6257       0    6259    6260    6260       0
    6262    6263    6263       0    6265    6266    6266       0    6268    6269
    6269       0    6271    6272    6272       0    6274    6275    6275       0
    6277    6278    6278       0    6280    6281    6281       0    6283    6284
    6284       0    6286    6287    6287       0    6289    6290    6290       0
    6292    6293    6293       0    6295    6296    6296       0    6298    6299
    6299       0    6301    6302    6302       0    6304    6305    6305       0
    6307    6308    6308       0    6310    6311    6311       0    6313    6314
    6314       0    6316    6317    6317       0    6319    6320    6320       0
    6322    6323    6323       0    6325    6326    6326       0    6328    6329
    6329       0    6331    6332    6332       0    6334    6335    6335       0
    6337    6338    6338       0    6340    6341    6341       0    6343    6344
    6344       0    6346    6347    6347       0    6349    6350    6350       0
    6352    6353    6353       0    6355    6356    6356       0    6358    6359
    6359       0    6361    6362    6362       0    6364    6365    6365       0
    6367    6368    6368       0    6370    6371    6371       0    6373    6374
    6374       0    6376    6377    6377       0    6379    6380    6380       0
    6382    6383    6383       0    6385    6386    6386       0    6388    6389
    6389       0    6391    6392    6392       0    6394    6395    6395       0
    6397    6398    6398       0    6400    6401    6401       0    6403    6404
    6404       0    6406    6407    6407       0    6409    6410    6410       0
    6412    6413    6413       0    6415    6416    6416       0    6418    6419
    6419       0    6421    6422    6422       0    6424    6425    6425       0
    6427    6428    6428       0    6430    6431    6431       0    6433    6434
    6434       0    6436    6437    6437       0    6439    6440    6440       0
    6442    6443    6443       0    6445    6446    6446       0    6448    6449
    6449       0    6451    6452    6452       0    6454    6455    6455       0
    6457    6458    6458       0    6460    6461    6461       0    6463    6464
    6464       0    6466    6467    6467       0    6469    6470    6470       0
    6472    6473    6473       0    6475    6476    6476       0    6478    6479
    6479       0    6481    6482    6482       0    6484    6485    6485       0
    6487    6488    6488       0    6490    6491    6491       0    6493    6494
    6494       0    6496    6497    6497       0    6499    6500    6500       0
    6502    6503    6503       0    6505    6506    6506       0    6508    6509
    6509       0    6511    6512    6512       0    6514    6515    6515       0
    6517    6518    6518       0    6520    6521    6521       0    6523    6524
    6524       0    6526    6527    6527       0    6529    6530    6530       0
    6532    6533    6533       0    6535    6536    6536       0    6538    6539
    6539       0    6541    6542    6542       0    6544    6545    6545       0
    6547    6548    6548       0    6550    6551    6551       0    6553    6554
    6554       0    6556    6557    6557       0    6559    6560    6560       0
    6562    6563    6563       0    6565    6566    6566       0    6568    6569
    6569       0    6571    6572    6572       0    6574    6575    6575       0
    6577    6578    6578       0    6580    6581    6581       0    6583    6584
    6584       0    6586    6587    6587       0    6589    6590    6590       0
    6592    6593    6593       0    6595    6596    6596       0    6598    6599
    6599       0    6601    6602    6602       0    6604    6605    6605       0
    6607    6608    6608       0    6610    6611    6611       0    6613    6614
    6614       0    6616    6617    6617       0    6619    6620    6620       0
    6622    6623    6623       0    6625    6626    6626       0    6628    6629
    6629       0    6631    6632    6632       0    6634    6635    6635       0
    6637    6638    6638       0    6640    6641    6641       0    6643    6644
    6644       0    6646    6647    6647       0    6649    6650    6650       0
    6652    6653    6653       0    6655    6656    6656       0    6658    6659
    6659       0    6661    6662    6662       0    6664    6665    6665       0
    6667    6668    6668       0    6670    6671    6671       0    6673    6674
    6674       0    6676    6677    6677       0    6679    6680    6680       0
    6682    6683    6683       0    6685    6686    6686       0    6688    6689
    6689       0    6691    6692    6692       0    6694    6695    6695       0
    6697    6698    6698       0    6700    6701    6701       0    6703    6704
    6704       0    6706    6707    6707       0    6709    6710    6710       0
    6712    6713    6713       0    6715    6716    6716       0    6718    6719
    6719       0    6721    6722    6722       0    6724    6725    6725       0
    6727    6728    6728       0    6730    6731    6731       0    6733    6734
    6734       0    6736    6737    6737       0    6739    6740    6740       0
    6742    6743    6743       0    6745    6746    6746       0    6748    6749
    6749       0    6751    6752    6752       0    6754    6755    6755       0
    6757    6758    6758       0    6760    6761    6761       0    6763    6764
    6764       0    6766    6767    6767       0    6769    6770    6770       0
    6772    6773    6773       0    6775    6776    6776       0    6778    6779
    6779       0    6781    6782    6782       0    6784    6785    6785       0
    6787    6788    6788       0    6790    6791    6791       0    6793    6794
    6794       0    6796    6797    6797       0    6799    6800    6800       0
    6802    6803    6803       0    6805    6806    6806       0    6808    6809
    6809       0    6811    6812    6812       0    6814    6815    6815       0
    6817    6818    6818       0    6820    6821    6821       0    6823    6824
    6824       0    6826    6827    6827       0    6829    6830    6830       0
    6832    6833    6833       0    6835    6836    6836       0    6838    6839
    6839       0    6841    6842    6842       0    6844    6845    6845       0
    6847    6848    6848       0    6850    6851    6851       0    6853    6854
    6854       0    6856    6857    6857       0    6859    6860    6860       0
    6862    6863    6863       0    6865    6866    6866       0    6868    6869
    6869       0    6871    6872    6872       0    6874    6875    6875       0
    6877    6878    6878       0    6880    6881    6881       0    6883    6884
    6884       0    6886    6887    6887       0    6889    6890    6890       0
    6892    6893    6893       0    6895    6896    6896       0    6898    6899
    6899       0    6901    6902    6902       0    6904    6905    6905       0
    6907    6908    6908       0    6910    6911    6911       0    6913    6914
    6914       0    6916    6917    6917       0    6919    6920    6920       0
    6922    6923    6923       0    6925    6926    6926       0    6928    6929
    6929       0    6931    6932    6932       0    6934    6935    6935       0
    6937    6938    6938       0    6940    6941    6941       0    6943    6944
    6944       0    6946    6947    6947       0    6949    6950    6950       0
    6952    6953    6953       0    6955    6956    6956       0    6958    6959
    6959       0    6961    6962    6962       0    6964    6965    6965       0
    6967    6968    6968       0    6970    6971    6971       0    6973    6974
    6974       0    6976    6977    6977       0    6979    6980    6980       0
    6982    6983    6983       0    6985    6986    6986       0    6988    6989
    6989       0    6991    6992    6992       0    6994    6995    6995       0
    6997    6998    6998       0    7000    7001    7001       0    7003    7004
    7004       0    7006    7007    7007       0    7009    7010    7010       0
    7012    7013    7013       0    7015    7016    7016       0    7018    7019
    7019       0    7021    7022    7022       0    7024    7025    7025       0
    7027    7028    7028       0    7030    7031    7031       0    7033    7034
    7034       0    7036    7037    7037       0    7039    7040    7040       0
    7042    7043    7043       0    7045    7046    7046       0    7048    7049
    7049       0    7051    7052    7052       0    7054    7055    7055       0
    7057    7058    7058       0    7060    7061    7061       0    7063    7064
    7064       0    7066    7067    7067       0    7069    7070    7070       0
    7072    7073    7073       0    7075    7076    7076       0    7078    7079
    7079       0    7081    7082    7082       0    7084    7085    7085       0
    7087    7088    7088       0    7090    7091    7091       0    7093    7094
    7094       0    7096    7097    7097       0    7099    7100    7100       0
    7102    7103    7103       0    7105    7106    7106       0    7108    7109
    7109       0    7111    7112    7112       0    7114    7115    7115       0
    7117    7118    7118       0    7120    7121    7121       0    7123    7124
    7124       0    7126    7127    7127       0    7129    7130    7130       0
    7132    7133    7133       0    7135    7136    7136       0    7138    7139
    7139       0    7141    7142    7142       0    7144    7145    7145       0
    7147    7148    7148       0    7150    7151    7151       0    7153    7154
    7154       0    7156    7157    7157       0    7159    7160    7160       0
    7162    7163    7163       0    7165    7166    7166       0    7168    7169
    7169       0    7171    7172    7172       0    7174    7175    7175       0
    7177    7178    7178       0    7180    7181    7181       0    7183    7184
    7184       0    7186    7187    7187       0    7189    7190    7190       0
    7192    7193    7193       0    7195    7196    7196       0    7198    7199
    7199       0    7201    7202    7202       0    7204    7205    7205       0
    7207    7208    7208       0    7210    7211    7211       0    7213    7214
    7214       0    7216    7217    7217       0    7219    7220    7220       0
    7222    7223    7223       0    7225    7226    7226       0    7228    7229
    7229       0    7231    7232    7232       0    7234    7235    7235       0
    7237    7238    7238       0    7240    7241    7241       0    7243    7244
    7244       0    7246    7247    7247       0    7249    7250    7250       0
    7252    7253    7253       0    7255    7256    7256       0    7258    7259
    7259       0    7261    7262    7262       0    7264    7265    7265       0
    7267    7268    7268       0    7270    7271    7271       0    7273    7274
    7274       0    7276    7277    7277       0    7279    7280    7280       0
    7282    7283    7283       0    7285    7286    7286       0    7288    7289
    7289       0    7291    7292    7292       0    7294    7295    7295       0
    7297    7298    7298       0    7300    7301    7301       0    7303    7304
    7304       0    7306    7307    7307       0    7309    7310    7310       0
    7312    7313    7313       0    7315    7316    7316       0    7318    7319
    7319       0    7321    7322    7322       0    7324    7325    7325       0
    7327    7328    7328       0    7330    7331    7331       0    7333    7334
    7334       0    7336    7337    7337       0    7339    7340    7340       0
    7342    7343    7343       0    7345    7346    7346       0    7348    7349
    7349       0    7351    7352    7352       0    7354    7355    7355       0
    7357    7358    7358       0    7360    7361    7361       0    7363    7364
    7364       0    7366    7367    7367       0    7369    7370    7370       0
    7372    7373    7373       0    7375    7376    7376       0    7378    7379
    7379       0    7381    7382    7382       0    7384    7385    7385       0
    7387    7388    7388       0    7390    7391    7391       0    7393    7394
    7394       0    7396    7397    7397       0    7399    7400    7400       0
    7402    7403    7403       0    7405    7406    7406       0    7408    7409
    7409       0    7411    7412    7412       0    7414    7415    7415       0
    7417    7418    7418       0    7420    7421    7421       0    7423    7424
    7424       0    7426    7427    7427       0    7429    7430    7430       0
    7432    7433    7433       0    7435    7436    7436       0    7438    7439
    7439       0    7441    7442    7442       0    7444    7445    7445       0
    7447    7448    7448       0    7450    7451    7451       0    7453    7454
    7454       0    7456    7457    7457       0    7459    7460    7460       0
    7462    7463    7463       0    7465    7466    7466       0    7468    7469
    7469       0    7471    7472    7472       0    7474    7475    7475       0
    7477    7478    7478       0    7480    7481    7481       0    7483    7484
    7484       0    7486    7487    7487       0    7489    7490    7490       0
    7492    7493    7493       0    7495    7496    7496       0    7498    7499
    7499       0    7501    7502    7502       0    7504    7505    7505       0
    7507    7508    7508       0    7510    7511    7511       0    7513    7514
    7514       0    7516    7517    7517       0    7519    7520    7520       0
    7522    7523    7523       0    7525    7526    7526       0    7528    7529
    7529       0    7531    7532    7532       0    7534    7535    7535       0
    7537    7538    7538       0    7540    7541    7541       0    7543    7544
    7544       0    7546    7547    7547       0    7549    7550    7550       0
    7552    7553    7553       0    7555    7556    7556       0    7558    7559
    7559       0    7561    7562    7562       0    7564    7565    7565       0
    7567    7568    7568       0    7570    7571    7571       0    7573    7574
    7574       0    7576    7577    7577       0    7579    7580    7580       0
    7582    7583    7583       0    7585    7586    7586       0    7588    7589
    7589       0    7591    7592    7592       0    7594    7595    7595       0
    7597    7598    7598       0    7600    7601    7601       0    7603    7604
    7604       0    7606    7607    7607       0    7609    7610    7610       0
    7612    7613    7613       0    7615    7616    7616       0    7618    7619
    7619       0    7621    7622    7622       0    7624    7625    7625       0
    7627    7628    7628       0    7630    7631    7631       0    7633    7634
    7634       0    7636    7637    7637       0    7639    7640    7640       0
    7642    7643    7643       0    7645    7646    7646       0    7648    7649
    7649       0    7651    7652    7652       0    7654    7655    7655       0
    7657    7658    7658       0    7660    7661    7661       0    7663    7664
    7664       0    7666    7667    7667       0    7669    7670    7670       0
    7672    7673    7673       0    7675    7676    7676       0    7678    7679
    7679       0    7681    7682    7682       0    7684    7685    7685       0
    7687    7688    7688       0    7690    7691    7691       0    7693    7694
    7694       0    7696    7697    7697       0    7699    7700    7700       0
    7702    7703    7703       0    7705    7706    7706       0    7708    7709
    7709       0    7711    7712    7712       0    7714    7715    7715       0
    7717    7718    7718       0    7720    7721    7721       0    7723    7724
    7724       0    7726    7727    7727       0    7729    7730    7730       0
    7732    7733    7733       0    7735    7736    7736       0    7738    7739
    7739       0    7741    7742    7742       0    7744    7745    7745       0
    7747    7748    7748       0    7750    7751    7751       0    7753    7754
    7754       0    7756    7757    7757       0    7759    7760    7760       0
    7762    7763    7763       0    7765    7766    7766       0    7768    7769
    7769       0    7771    7772    7772       0    7774    7775    7775       0
    7777    7778    7778       0    7780    7781    7781       0    7783    7784
    7784       0    7786    7787    7787       0    7789    7790    7790       0
    7792    7793    7793       0    7795    7796    7796       0    7798    7799
    7799       0    7801    7802    7802       0    7804    7805    7805       0
    7807    7808    7808       0    7810    7811    7811       0    7813    7814
    7814       0    7816    7817    7817       0    7819    7820    7820       0
    7822    7823    7823       0    7825    7826    7826       0    7828    7829
    7829       0    7831    7832    7832       0    7834    7835    7835       0
    7837    7838    7838       0    7840    7841    7841       0    7843    7844
    7844       0    7846    7847    7847       0    7849    7850    7850       0
    7852    7853    7853       0    7855    7856    7856       0    7858    7859
    7859       0    7861    7862    7862       0    7864    7865    7865       0
    7867    7868    7868       0    7870    7871    7871       0    7873    7874
    7874       0    7876    7877    7877       0    7879    7880    7880       0
    7882    7883    7883       0    7885    7886    7886       0    7888    7889
    7889       0    7891    7892    7892       0    7894    7895    7895       0
    7897    7898    7898       0    7900    7901    7901       0    7903    7904
    7904       0    7906    7907    7907       0    7909    7910    7910       0
    7912    7913    7913       0    7915    7916    7916       0    7918    7919
    7919       0    7921    7922    7922       0    7924    7925    7925       0
    7927    7928    7928       0    7930    7931    7931       0    7933    7934
    7934       0    7936    7937    7937       0    7939    7940    7940       0
    7942    7943    7943       0    7945    7946    7946       0    7948    7949
    7949       0    7951    7952    7952       0    7954    7955    7955       0
    7957    7958    7958       0    7960    7961    7961       0    7963    7964
    7964       0    7966    7967    7967       0    7969    7970    7970       0
    7972    7973    7973       0    7975    7976    7976       0    7978    7979
    7979       0    7981    7982    7982       0    7984    7985    7985       0
    7987    7988    7988       0    7990    7991    7991       0    7993    7994
    7994       0    7996    7997    7997       0    7999    8000    8000       0
    8002    8003    8003       0    8005    8006    8006       0    8008    8009
    8009       0    8011    8012    8012       0    8014    8015    8015       0
    8017    8018    8018       0    8020    8021    8021       0    8023    8024
    8024       0    8026    8027    8027       0    8029    8030    8030       0
    8032    8033    8033       0    8035    8036    8036       0    8038    8039
    8039       0    8041    8042    8042       0    8044    8045    8045       0
    8047    8048    8048       0    8050    8051    8051       0    8053    8054
    8054       0    8056    8057    8057       0    8059    8060    8060       0
    8062    8063    8063       0    8065    8066    8066       0    8068    8069
    8069       0    8071    8072    8072       0    8074    8075    8075       0
    8077    8078    8078       0    8080    8081    8081       0    8083    8084
    8084       0    8086    8087    8087       0    8089    8090    8090       0
    8092    8093    8093       0    8095    8096    8096       0    8098    8099
    8099       0    8101    8102    8102       0    8104    8105    8105       0
    8107    8108    8108       0    8110    8111    8111       0    8113    8114
    8114       0    8116    8117    8117       0    8119    8120    8120       0
    8122    8123    8123       0    8125    8126    8126       0    8128    8129
    8129       0    8131    8132    8132       0    8134    8135    8135       0
    8137    8138    8138       0    8140    8141    8141       0    8143    8144
    8144       0    8146    8147    8147       0    8149    8150    8150       0
    8152    8153    8153       0    8155    8156    8156       0    8158    8159
    8159       0    8161    8162    8162       0    8164    8165    8165       0
    8167    8168    8168       0    8170    8171    8171       0    8173    8174
    8174       0    8176    8177    8177       0    8179    8180    8180       0
    8182    8183    8183       0    8185    8186    8186       0    8188    8189
    8189       0    8191    8192    8192       0    8194    8195    8195       0
    8197    8198    8198       0    8200    8201    8201       0    8203    8204
    8204       0    8206    8207    8207       0    8209    8210    8210       0
    8212    8213    8213       0    8215    8216    8216       0    8218    8219
    8219       0    8221    8222    8222       0    8224    8225    8225       0
    8227    8228    8228       0    8230    8231    8231       0    8233    8234
    8234       0    8236    8237    8237       0    8239    8240    8240       0
    8242    8243    8243       0    8245    8246    8246       0    8248    8249
    8249       0    8251    8252    8252       0    8254    8255    8255       0
    8257    8258    8258       0    8260    8261    8261       0    8263    8264
    8264       0    8266    8267    8267       0    8269    8270    8270       0
    8272    8273    8273       0    8275    8276    8276       0    8278    8279
    8279       0    8281    8282    8282       0    8284    8285    8285       0
    8287    8288    8288       0    8290    8291    8291       0    8293    8294
    8294       0    8296    8297    8297       0    8299    8300    8300       0
    8302    8303    8303       0    8305    8306    8306       0    8308    8309
    8309       0    8311    8312    8312       0    8314    8315    8315       0
    8317    8318    8318       0    8320    8321    8321       0    8323    8324
    8324       0    8326    8327    8327       0    8329    8330    8330       0
    8332    8333    8333       0    8335    8336    8336       0    8338    8339
    8339       0    8341    8342    8342       0    8344    8345    8345       0
    8347    8348    8348       0    8350    8351    8351       0    8353    8354
    8354       0    8356    8357    8357       0    8359    8360    8360       0
    8362    8363    8363       0    8365    8366    8366       0    8368    8369
    8369       0    8371    8372    8372       0    8374    8375    8375       0
    8377    8378    8378       0    8380    8381    8381       0    8383    8384
    8384       0    8386    8387    8387       0    8389    8390    8390       0
    8392    8393    8393       0    8395    8396    8396       0    8398    8399
    8399       0    8401    8402    8402       0    8404    8405    8405       0
    8407    8408    8408       0    8410    8411    8411       0    8413    8414
    8414       0    8416    8417    8417       0    8419    8420    8420       0
    8422    8423    8423       0    8425    8426    8426       0    8428    8429
    8429       0    8431    8432    8432       0    8434    8435    8435       0
    8437    8438    8438       0    8440    8441    8441       0    8443    8444
    8444       0    8446    8447    8447       0    8449    8450    8450       0
    8452    8453    8453       0    8455    8456    8456       0    8458    8459
    8459       0    8461    8462    8462       0    8464    8465    8465       0
    8467    8468    8468       0    8470    8471    8471       0    8473    8474
    8474       0    8476    8477    8477       0    8479    8480    8480       0
    8482    8483    8483       0    8485    8486    8486       0    8488    8489
    8489       0    8491    8492    8492       0    8494    8495    8495       0
    8497    8498    8498       0    8500    8501    8501       0    8503    8504
    8504       0    8506    8507    8507       0    8509    8510    8510       0
    8512    8513    8513       0    8515    8516    8516       0    8518    8519
    8519       0    8521    8522    8522       0    8524    8525    8525       0
    8527    8528    8528       0    8530    8531    8531       0    8533    8534
    8534       0    8536    8537    8537       0    8539    8540    8540       0
    8542    8543    8543       0    8545    8546    8546       0    8548    8549
    8549       0    8551    8552    8552       0    8554    8555    8555       0
    8557    8558    8558       0    8560    8561    8561       0    8563    8564
    8564       0    8566    8567    8567       0    8569    8570    8570       0
    8572    8573    8573       0    8575    8576    8576       0    8578    8579
    8579       0    8581    8582    8582       0    8584    8585    8585       0
    8587    8588    8588       0    8590    8591    8591       0    8593    8594
    8594       0    8596    8597    8597       0    8599    8600    8600       0
    8602    8603    8603       0    8605    8606    8606       0    8608    8609
    8609       0    8611    8612    8612       0    8614    8615    8615       0
    8617    8618    8618       0    8620    8621    8621       0    8623    8624
    8624       0    8626    8627    8627       0    8629    8630    8630       0
    8632    8633    8633       0    8635    8636    8636       0    8638    8639
    8639       0    8641    8642    8642       0    8644    8645    8645       0
    8647    8648    8648       0    8650    8651    8651       0    8653    8654
    8654       0    8656    8657    8657       0    8659    8660    8660       0
    8662    8663    8663       0    8665    8666    8666       0    8668    8669
    8669       0    8671    8672    8672       0    8674    8675    8675       0
    8677    8678    8678       0    8680    8681    8681       0    8683    8684
    8684       0    8686    8687    8687       0    8689    8690    8690       0
    8692    8693    8693       0    8695    8696    8696       0    8698    8699
    8699       0    8701    8702    8702       0    8704    8705    8705       0
    8707    8708    8708       0    8710    8711    8711       0    8713    8714
    8714       0    8716    8717    8717       0    8719    8720    8720       0
    8722    8723    8723       0    8725    8726    8726       0    8728    8729
    8729       0    8731    8732    8732       0    8734    8735    8735       0
    8737    8738    8738       0    8740    8741    8741       0    8743    8744
    8744       0    8746    8747    8747       0    8749    8750    8750       0
    8752    8753    8753       0    8755    8756    8756       0    8758    8759
    8759       0    8761    8762    8762       0    8764    8765    8765       0
    8767    8768    8768       0    8770    8771    8771       0    8773    8774
    8774       0    8776    8777    8777       0    8779    8780    8780       0
    8782    8783    8783       0    8785    8786    8786       0    8788    8789
    8789       0    8791    8792    8792       0    8794    8795    8795       0
    8797    8798    8798       0    8800    8801    8801       0    8803    8804
    8804       0    8806    8807    8807       0    8809    8810    8810       0
    8812    8813    8813       0    8815    8816    8816       0    8818    8819
    8819       0    8821    8822    8822       0    8824    8825    8825       0
    8827    8828    8828       0    8830    8831    8831       0    8833    8834
    8834       0    8836    8837    8837       0    8839    8840    8840       0
    8842    8843    8843       0    8845    8846    8846       0    8848    8849
    8849       0    8851    8852    8852       0    8854    8855    8855       0
    8857    8858    8858       0    8860    8861    8861       0    8863    8864
    8864       0    8866    8867    8867       0    8869    8870    8870       0
    8872    8873    8873       0    8875    8876    8876       0    8878    8879
    8879       0    8881    8882    8882       0    8884    8885    8885       0
    8887    8888    8888       0    8890    8891    8891       0    8893    8894
    8894       0    8896    8897    8897       0    8899    8900    8900       0
    8902    8903    8903       0    8905    8906    8906       0    8908    8909
    8909       0    8911    8912    8912       0    8914    8915    8915       0
    8917    8918    8918       0    8920    8921    8921       0    8923    8924
    8924       0    8926    8927    8927       0    8929    8930    8930       0
    8932    8933    8933       0    8935    8936    8936       0    8938    8939
    8939       0    8941    8942    8942       0    8944    8945    8945       0
    8947    8948    8948       0    8950    8951    8951       0    8953    8954
    8954       0    8956    8957    8957       0    8959    8960    8960       0
    8962    8963    8963       0    8965    8966    8966       0    8968    8969
    8969       0    8971    8972    8972       0    8974    8975    8975       0
    8977    8978    8978       0    8980    8981    8981       0    8983    8984
    8984       0    8986    8987    8987       0    8989    8990    8990       0
    8992    8993    8993       0    8995    8996    8996       0    8998    8999
    8999       0    9001    9002    9002       0    9004    9005    9005       0
    9007    9008    9008       0    9010    9011    9011       0    9013    9014
    9014       0    9016    9017    9017       0    9019    9020    9020       0
    9022    9023    9023       0    9025    9026    9026       0    9028    9029
    9029       0    9031    9032    9032       0    9034    9035    9035       0
    9037    9038    9038       0    9040    9041    9041       0    9043    9044
    9044       0    9046    9047    9047       0    9049    9050    9050       0
    9052    9053    9053       0    9055    9056    9056       0    9058    9059
    9059       0    9061    9062    9062       0    9064    9065    9065       0
    9067    9068    9068       0    9070    9071    9071       0    9073    9074
    9074       0    9076    9077    9077       0    9079    9080    9080       0
    9082    9083    9083       0    9085    9086    9086       0    9088    9089
    9089       0    9091    9092    9092       0    9094    9095    9095       0
    9097    9098    9098       0    9100    9101    9101       0    9103    9104
    9104       0    9106    9107    9107       0    9109    9110    9110       0
    9112    9113    9113       0    9115    9116    9116       0    9118    9119
    9119       0    9121    9122    9122       0    9124    9125    9125       0
    9127    9128    9128       0    9130    9131    9131       0    9133    9134
    9134       0    9136    9137    9137       0    9139    9140    9140       0
    9142    9143    9143       0    9145    9146    9146       0    9148    9149
    9149       0    9151    9152    9152       0    9154    9155    9155       0
    9157    9158    9158       0    9160    9161    9161       0    9163    9164
    9164       0    9166    9167    9167       0    9169    9170    9170       0
    9172    9173    9173       0    9175    9176    9176       0    9178    9179
    9179       0    9181    9182    9182       0    9184    9185    9185       0
    9187    9188    9188       0    9190    9191    9191       0    9193    9194
    9194       0    9196    9197    9197       0    9199    9200    9200       0
    9202    9203    9203       0    9205    9206    9206       0    9208    9209
    9209       0    9211    9212    9212       0    9214    9215    9215       0
    9217    9218    9218       0    9220    9221    9221       0    9223    9224
    9224       0    9226    9227    9227       0    9229    9230    9230       0
    9232    9233    9233       0    9235    9236    9236       0    9238    9239
    9239       0    9241    9242    9242       0    9244    9245    9245       0
    9247    9248    9248       0    9250    9251    9251       0    9253    9254
    9254       0    9256    9257    9257       0    9259    9260    9260       0
    9262    9263    9263       0    9265    9266    9266       0    9268    9269
    9269       0    9271    9272    9272       0    9274    9275    9275       0
    9277    9278    9278       0    9280    9281    9281       0    9283    9284
    9284       0    9286    9287    9287       0    9289    9290    9290       0
    9292    9293    9293       0    9295    9296    9296       0    9298    9299
    9299       0    9301    9302    9302       0    9304    9305    9305       0
    9307    9308    9308       0    9310    9311    9311       0    9313    9314
    9314       0    9316    9317    9317       0    9319    9320    9320       0
    9322    9323    9323       0    9325    9326    9326       0    9328    9329
    9329       0    9331    9332    9332       0    9334    9335    9335       0
    9337    9338    9338       0    9340    9341    9341       0    9343    9344
    9344       0    9346    9347    9347       0    9349    9350    9350       0
    9352    9353    9353       0    9355    9356    9356       0    9358    9359
    9359       0    9361    9362    9362       0    9364    9365    9365       0
    9367    9368    9368       0    9370    9371    9371       0    9373    9374
    9374       0    9376    9377    9377       0    9379    9380    9380       0
    9382    9383    9383       0    9385    9386    9386       0    9388    9389
    9389       0    9391    9392    9392       0    9394    9395    9395       0
    9397    9398    9398       0    9400    9401    9401       0    9403    9404
    9404       0    9406    9407    9407       0    9409    9410    9410       0
    9412    9413    9413       0    9415    9416    9416       0    9418    9419
    9419       0    9421    9422    9422       0    9424    9425    9425       0
    9427    9428    9428       0    9430    9431    9431       0    9433    9434
    9434       0    9436    9437    9437       0    9439    9440    9440       0
    9442    9443    9443       0    9445    9446    9446       0    9448    9449
    9449       0    9451    9452    9452       0    9454    9455    9455       0
    9457    9458    9458       0    9460    9461    9461       0    9463    9464
    9464       0    9466    9467    9467       0    9469    9470    9470       0
    9472    9473    9473       0    9475    9476    9476       0    9478    9479
    9479       0    9481    9482    9482       0    9484    9485    9485       0
    9487    9488    9488       0    9490    9491    9491       0    9493    9494
    9494       0    9496    9497    9497       0    9499    9500    9500       0
    9502    9503    9503       0    9505    9506    9506       0    9508    9509
    9509       0    9511    9512    9512       0    9514    9515    9515       0
    9517    9518    9518       0    9520    9521    9521       0    9523    9524
    9524       0    9526    9527    9527       0    9529    9530    9530       0
    9532    9533    9533       0    9535    9536    9536       0    9538    9539
    9539       0    9541    9542    9542       0    9544    9545    9545       0
    9547    9548    9548       0    9550    9551    9551       0    9553    9554
    9554       0    9556    9557    9557       0    9559    9560    9560       0
    9562    9563    9563       0    9565    9566    9566       0    9568    9569
    9569       0    9571    9572    9572       0    9574    9575    9575       0
    9577    9578    9578       0    9580    9581    9581       0    9583    9584
    9584       0    9586    9587    9587       0    9589    9590    9590       0
    9592    9593    9593       0    9595    9596    9596       0    9598    9599
    9599       0    9601    9602    9602       0    9604    9605    9605       0
    9607    9608    9608       0    9610    9611    9611       0    9613    9614
    9614       0    9616    9617    9617       0    9619    9620    9620       0
    9622    9623    9623       0    9625    9626    9626       0    9628    9629
    9629       0    9631    9632    9632       0    9634    9635    9635       0
    9637    9638    9638       0    9640    9641    9641       0    9643    9644
    9644       0    9646    9647    9647       0    9649    9650    9650       0
    9652    9653    9653       0    9655    9656    9656       0    9658    9659
    9659       0    9661    9662    9662       0    9664    9665    9665       0
    9667    9668    9668       0    9670    9671    9671       0    9673    9674
    9674       0    9676    9677    9677       0    9679    9680    9680       0
    9682    9683    9683       0    9685    9686    9686       0    9688    9689
    9689       0    9691    9692    9692       0    9694    9695    9695       0
    9697    9698    9698       0    9700    9701    9701       0    9703    9704
    9704       0    9706    9707    9707       0    9709    9710    9710       0
    9712    9713    9713       0    9715    9716    9716       0    9718    9719
    9719       0    9721    9722    9722       0    9724    9725    9725       0
    9727    9728    9728       0    9730    9731    9731       0    9733    9734
    9734       0    9736    9737    9737       0    9739    9740    9740       0
    9742    9743    9743       0    9745    9746    9746       0    9748    9749
    9749       0    9751    9752    9752       0    9754    9755    9755       0
    9757    9758    9758       0    9760    9761    9761       0    9763    9764
    9764       0    9766    9767    9767       0    9769    9770    9770       0
    9772    9773    9773       0    9775    9776    9776       0    9778    9779
    9779       0    9781    9782    9782       0    9784    9785    9785       0
    9787    9788    9788       0    9790    9791    9791       0    9793    9794
    9794       0    9796    9797    9797       0    9799    9800    9800       0
    9802    9803    9803       0    9805    9806    9806       0    9808    9809
    9809       0    9811    9812    9812       0    9814    9815    9815       0
    9817    9818    9818       0    9820    9821    9821       0    9823    9824
    9824       0    9826    9827    9827       0    9829    9830    9830       0
    9832    9833    9833       0    9835    9836    9836       0    9838    9839
    9839       0    9841    9842    9842       0    9844    9845    9845       0
    9847    9848    9848       0    9850    9851    9851       0    9853    9854
    9854       0    9856    9857    9857       0    9859    9860    9860       0
    9862    9863    9863       0    9865    9866    9866       0    9868    9869
    9869       0    9871    9872    9872       0    9874    9875    9875       0
    9877    9878    9878       0    9880    9881    9881       0    9883    9884
    9884       0    9886    9887    9887       0    9889    9890    9890       0
    9892    9893    9893       0    9895    9896    9896       0    9898    9899
    9899       0    9901    9902    9902       0    9904    9905    9905       0
    9907    9908    9908       0    9910    9911    9911       0    9913    9914
    9914       0    9916    9917    9917       0    9919    9920    9920       0
    9922    9923    9923       0    9925    9926    9926       0    9928    9929
    9929       0    9931    9932    9932       0    9934    9935    9935       0
    9937    9938    9938       0    9940    9941    9941       0    9943    9944
    9944       0    9946    9947    9947       0    9949    9950    9950       0
    9952    9953    9953       0    9955    9956    9956       0    9958    9959
    9959       0    9961    9962    9962       0    9964    9965    9965       0
    9967    9968    9968       0    9970    9971    9971       0    9973    9974
    9974       0    9976    9977    9977       0    9979    9980    9980       0
    9982    9983    9983       0    9985    9986    9986       0    9988    9989
    9989       0    9991    9992    9992       0    9994    9995    9995       0
    9997    9998    9998       0   10000   10001   10001       0   10003   10004
   10004       0   10006   10007   10007       0   10009   10010   10010       0
   10012   10013   10013       0   10015   10016   10016       0   10018   10019
   10019       0   10021   10022   10022       0   10024   10025   10025       0
   10027   10028   10028       0   10030   10031   10031       0   10033   10034
   10034       0   10036   10037   10037       0   10039   10040   10040       0
   10042   10043   10043       0   10045   10046   10046       0   10048   10049
   10049       0   10051   10052   10052       0   10054   10055   10055       0
   10057   10058   10058       0   10060   10061   10061       0   10063   10064
   10064       0   10066   10067   10067       0   10069   10070   10070       0
   10072   10073   10073       0   10075   10076   10076       0   10078   10079
   10079       0   10081   10082   10082       0   10084   10085   10085       0
   10087   10088   10088       0   10090   10091   10091       0   10093   10094
   10094       0   10096   10097   10097       0   10099   10100   10100       0
   10102   10103   10103       0   10105   10106   10106       0   10108   10109
   10109       0   10111   10112   10112       0   10114   10115   10115       0
   10117   10118   10118       0   10120   10121   10121       0   10123   10124
   10124       0   10126   10127   10127       0   10129   10130   10130       0
   10132   10133   10133       0   10135   10136   10136       0   10138   10139
   10139       0   10141   10142   10142       0   10144   10145   10145       0
   10147   10148   10148       0   10150   10151   10151       0   10153   10154
   10154       0   10156   10157   10157       0   10159   10160   10160       0
   10162   10163   10163       0   10165   10166   10166       0   10168   10169
   10169       0   10171   10172   10172       0   10174   10175   10175       0
   10177   10178   10178       0   10180   10181   10181       0   10183   10184
   10184       0   10186   10187   10187       0   10189   10190   10190       0
   10192   10193   10193       0   10195   10196   10196       0   10198   10199
   10199       0   10201   10202   10202       0   10204   10205   10205       0
   10207   10208   10208       0   10210   10211   10211       0   10213   10214
   10214       0   10216   10217   10217       0   10219   10220   10220       0
   10222   10223   10223       0   10225   10226   10226       0   10228   10229
   10229       0   10231   10232   10232       0   10234   10235   10235       0
   10237   10238   10238       0   10240   10241   10241       0   10243   10244
   10244       0   10246   10247   10247       0   10249   10250   10250       0
   10252   10253   10253       0   10255   10256   10256       0   10258   10259
   10259       0   10261   10262   10262       0   10264   10265   10265       0
   10267   10268   10268       0   10270   10271   10271       0   10273   10274
   10274       0   10276   10277   10277       0   10279   10280   10280       0
   10282   10283   10283       0   10285   10286   10286       0   10288   10289
   10289       0   10291   10292   10292       0   10294   10295   10295       0
   10297   10298   10298       0   10300   10301   10301       0   10303   10304
   10304       0   10306   10307   10307       0   10309   10310   10310       0
   10312   10313   10313       0   10315   10316   10316       0   10318   10319
   10319       0   10321   10322   10322       0   10324   10325   10325       0
   10327   10328   10328       0   10330   10331   10331       0   10333   10334
   10334       0   10336   10337   10337       0   10339   10340   10340       0
   10342   10343   10343       0   10345   10346   10346       0   10348   10349
   10349       0   10351   10352   10352       0   10354   10355   10355       0
   10357   10358   10358       0   10360   10361   10361       0   10363   10364
   10364       0   10366   10367   10367       0   10369   10370   10370       0
   10372   10373   10373       0   10375   10376   10376       0   10378   10379
   10379       0   10381   10382   10382       0   10384   10385   10385       0
   10387   10388   10388       0   10390   10391   10391       0   10393   10394
   10394       0   10396   10397   10397       0   10399   10400   10400       0
   10402   10403   10403       0   10405   10406   10406       0   10408   10409
   10409       0   10411   10412   10412       0   10414   10415   10415       0
   10417   10418   10418       0   10420   10421   10421       0   10423   10424
   10424       0   10426   10427   10427       0   10429   10430   10430       0
   10432   10433   10433       0   10435   10436   10436       0   10438   10439
   10439       0   10441   10442   10442       0   10444   10445   10445       0
   10447   10448   10448       0   10450   10451   10451       0   10453   10454
   10454       0   10456   10457   10457       0   10459   10460   10460       0
   10462   10463   10463       0   10465   10466   10466       0   10468   10469
   10469       0   10471   10472   10472       0   10474   10475   10475       0
   10477   10478   10478       0   10480   10481   10481       0   10483   10484
   10484       0   10486   10487   10487       0   10489   10490   10490       0
   10492   10493   10493       0   10495   10496   10496       0   10498   10499
   10499       0   10501   10502   10502       0   10504   10505   10505       0
   10507   10508   10508       0   10510   10511   10511       0   10513   10514
   10514       0   10516   10517   10517       0   10519   10520   10520       0
   10522   10523   10523       0   10525   10526   10526       0   10528   10529
   10529       0   10531   10532   10532       0   10534   10535   10535       0
   10537   10538   10538       0   10540   10541   10541       0   10543   10544
   10544       0   10546   10547   10547       0   10549   10550   10550       0
   10552   10553   10553       0   10555   10556   10556       0   10558   10559
   10559       0   10561   10562   10562       0   10564   10565   10565       0
   10567   10568   10568       0   10570   10571   10571       0   10573   10574
   10574       0   10576   10577   10577       0   10579   10580   10580       0
   10582   10583   10583       0   10585   10586   10586       0   10588   10589
   10589       0   10591   10592   10592       0   10594   10595   10595       0
   10597   10598   10598       0   10600   10601   10601       0   10603   10604
   10604       0   10606   10607   10607       0   10609   10610   10610       0
   10612   10613   10613       0   10615   10616   10616       0   10618   10619
   10619       0   10621   10622   10622       0   10624   10625   10625       0
   10627   10628   10628       0   10630   10631   10631       0   10633   10634
   10634       0   10636   10637   10637       0   10639   10640   10640       0
   10642   10643   10643       0   10645   10646   10646       0   10648   10649
   10649       0   10651   10652   10652       0   10654   10655   10655       0
   10657   10658   10658       0   10660   10661   10661       0   10663   10664
   10664       0   10666   10667   10667       0   10669   10670   10670       0
   10672   10673   10673       0   10675   10676   10676       0   10678   10679
   10679       0   10681   10682   10682       0   10684   10685   10685       0
   10687   10688   10688       0   10690   10691   10691       0   10693   10694
   10694       0   10696   10697   10697       0   10699   10700   10700       0
   10702   10703   10703       0   10705   10706   10706       0   10708   10709
   10709       0   10711   10712   10712       0   10714   10715   10715       0
   10717   10718   10718       0   10720   10721   10721       0   10723   10724
   10724       0   10726   10727   10727       0   10729   10730   10730       0
   10732   10733   10733       0   10735   10736   10736       0   10738   10739
   10739       0   10741   10742   10742       0   10744   10745   10745       0
   10747   10748   10748       0   10750   10751   10751       0   10753   10754
   10754       0   10756   10757   10757       0   10759   10760   10760       0
   10762   10763   10763       0   10765   10766   10766       0   10768   10769
   10769       0   10771   10772   10772       0   10774   10775   10775       0
   10777   10778   10778       0   10780   10781   10781       0   10783   10784
   10784       0   10786   10787   10787       0   10789   10790   10790       0
   10792   10793   10793       0   10795   10796   10796       0   10798   10799
   10799       0   10801   10802   10802       0   10804   10805   10805       0
   10807   10808   10808       0   10810   10811   10811       0   10813   10814
   10814       0   10816   10817   10817       0   10819   10820   10820       0
   10822   10823   10823       0   10825   10826   10826       0   10828   10829
   10829       0   10831   10832   10832       0   10834   10835   10835       0
   10837   10838   10838       0   10840   10841   10841       0   10843   10844
   10844       0   10846   10847   10847       0   10849   10850   10850       0
   10852   10853   10853       0   10855   10856   10856       0   10858   10859
   10859       0   10861   10862   10862       0   10864   10865   10865       0
   10867   10868   10868       0   10870   10871   10871       0   10873   10874
   10874       0   10876   10877   10877       0   10879   10880   10880       0
   10882   10883   10883       0   10885   10886   10886       0   10888   10889
   10889       0   10891   10892   10892       0   10894   10895   10895       0
   10897   10898   10898       0   10900   10901   10901       0   10903   10904
   10904       0   10906   10907   10907       0   10909   10910   10910       0
   10912   10913   10913       0   10915   10916   10916       0   10918   10919
   10919       0   10921   10922   10922       0   10924   10925   10925       0
   10927   10928   10928       0   10930   10931   10931       0   10933   10934
   10934       0   10936   10937   10937       0   10939   10940   10940       0
   10942   10943   10943       0   10945   10946   10946       0   10948   10949
   10949       0   10951   10952   10952       0   10954   10955   10955       0
   10957   10958   10958       0   10960   10961   10961       0   10963   10964
   10964       0   10966   10967   10967       0   10969   10970   10970       0
   10972   10973   10973       0   10975   10976   10976       0   10978   10979
   10979       0   10981   10982   10982       0   10984   10985   10985       0
   10987   10988   10988       0   10990   10991   10991       0   10993   10994
   10994       0   10996   10997   10997       0   10999   11000   11000       0
   11002   11003   11003       0   11005   11006   11006       0   11008   11009
   11009       0   11011   11012   11012       0   11014   11015   11015       0
   11017   11018   11018       0   11020   11021   11021       0   11023   11024
   11024       0   11026   11027   11027       0   11029   11030   11030       0
   11032   11033   11033       0   11035   11036   11036       0   11038   11039
   11039       0   11041   11042   11042       0   11044   11045   11045       0
   11047   11048   11048       0   11050   11051   11051       0   11053   11054
   11054       0   11056   11057   11057       0   11059   11060   11060       0
   11062   11063   11063       0   11065   11066   11066       0   11068   11069
   11069       0   11071   11072   11072       0   11074   11075   11075       0
   11077   11078   11078       0   11080   11081   11081       0   11083   11084
   11084       0   11086   11087   11087       0   11089   11090   11090       0
   11092   11093   11093       0   11095   11096   11096       0   11098   11099
   11099       0   11101   11102   11102       0   11104   11105   11105       0
   11107   11108   11108       0   11110   11111   11111       0   11113   11114
   11114       0   11116   11117   11117       0   11119   11120   11120       0
   11122   11123   11123       0   11125   11126   11126       0   11128   11129
   11129       0   11131   11132   11132       0   11134   11135   11135       0
   11137   11138   11138       0   11140   11141   11141       0   11143   11144
   11144       0   11146   11147   11147       0   11149   11150   11150       0
   11152   11153   11153       0   11155   11156   11156       0   11158   11159
   11159       0   11161   11162   11162       0   11164   11165   11165       0
   11167   11168   11168       0   11170   11171   11171       0   11173   11174
   11174       0   11176   11177   11177       0   11179   11180   11180       0
   11182   11183   11183       0   11185   11186   11186       0   11188   11189
   11189       0   11191   11192   11192       0   11194   11195   11195       0
   11197   11198   11198       0   11200   11201   11201       0   11203   11204
   11204       0   11206   11207   11207       0   11209   11210   11210       0
   11212   11213   11213       0   11215   11216   11216       0   11218   11219
   11219       0   11221   11222   11222       0   11224   11225   11225       0
   11227   11228   11228       0   11230   11231   11231       0   11233   11234
   11234       0   11236   11237   11237       0   11239   11240   11240       0
   11242   11243   11243       0   11245   11246   11246       0   11248   11249
   11249       0   11251   11252   11252       0   11254   11255   11255       0
   11257   11258   11258       0   11260   11261   11261       0   11263   11264
   11264       0   11266   11267   11267       0   11269   11270   11270       0
   11272   11273   11273       0   11275   11276   11276       0   11278   11279
   11279       0   11281   11282   11282       0   11284   11285   11285       0
   11287   11288   11288       0   11290   11291   11291       0   11293   11294
   11294       0   11296   11297   11297       0   11299   11300   11300       0
   11302   11303   11303       0   11305   11306   11306       0   11308   11309
   11309       0   11311   11312   11312       0   11314   11315   11315       0
   11317   11318   11318       0   11320   11321   11321       0   11323   11324
   11324       0   11326   11327   11327       0   11329   11330   11330       0
   11332   11333   11333       0   11335   11336   11336       0   11338   11339
   11339       0   11341   11342   11342       0   11344   11345   11345       0
   11347   11348   11348       0   11350   11351   11351       0   11353   11354
   11354       0   11356   11357   11357       0   11359   11360   11360       0
   11362   11363   11363       0   11365   11366   11366       0   11368   11369
   11369       0   11371   11372   11372       0   11374   11375   11375       0
   11377   11378   11378       0   11380   11381   11381       0   11383   11384
   11384       0   11386   11387   11387       0   11389   11390   11390       0
   11392   11393   11393       0   11395   11396   11396       0   11398   11399
   11399       0   11401   11402   11402       0   11404   11405   11405       0
   11407   11408   11408       0   11410   11411   11411       0   11413   11414
   11414       0   11416   11417   11417       0   11419   11420   11420       0
   11422   11423   11423       0   11425   11426   11426       0   11428   11429
   11429       0   11431   11432   11432       0   11434   11435   11435       0
   11437   11438   11438       0   11440   11441   11441       0   11443   11444
   11444       0   11446   11447   11447       0   11449   11450   11450       0
   11452   11453   11453       0   11455   11456   11456       0   11458   11459
   11459       0   11461   11462   11462       0   11464   11465   11465       0
   11467   11468   11468       0   11470   11471   11471       0   11473   11474
   11474       0   11476   11477   11477       0   11479   11480   11480       0
   11482   11483   11483       0   11485   11486   11486       0   11488   11489
   11489       0   11491   11492   11492       0   11494   11495   11495       0
   11497   11498   11498       0   11500   11501   11501       0   11503   11504
   11504       0   11506   11507   11507       0   11509   11510   11510       0
   11512   11513   11513       0   11515   11516   11516       0   11518   11519
   11519       0   11521   11522   11522       0   11524   11525   11525       0
   11527   11528   11528       0   11530   11531   11531       0   11533   11534
   11534       0   11536   11537   11537       0   11539   11540   11540       0
   11542   11543   11543       0   11545   11546   11546       0   11548   11549
   11549       0   11551   11552   11552       0   11554   11555   11555       0
   11557   11558   11558       0   11560   11561   11561       0   11563   11564
   11564       0   11566   11567   11567       0   11569   11570   11570       0
   11572   11573   11573       0   11575   11576   11576       0   11578   11579
   11579       0   11581   11582   11582       0   11584   11585   11585       0
   11587   11588   11588       0   11590   11591   11591       0   11593   11594
   11594       0   11596   11597   11597       0   11599   11600   11600       0
   11602   11603   11603       0   11605   11606   11606       0   11608   11609
   11609       0   11611   11612   11612       0   11614   11615   11615       0
   11617   11618   11618       0   11620   11621   11621       0   11623   11624
   11624       0   11626   11627   11627       0   11629   11630   11630       0
   11632   11633   11633       0   11635   11636   11636       0   11638   11639
   11639       0   11641   11642   11642       0   11644   11645   11645       0
   11647   11648   11648       0   11650   11651   11651       0   11653   11654
   11654       0   11656   11657   11657       0   11659   11660   11660       0
   11662   11663   11663       0   11665   11666   11666       0   11668   11669
   11669       0   11671   11672   11672       0   11674   11675   11675       0
   11677   11678   11678       0   11680   11681   11681       0   11683   11684
   11684       0   11686   11687   11687       0   11689   11690   11690       0
   11692   11693   11693       0   11695   11696   11696       0   11698   11699
   11699       0   11701   11702   11702       0   11704   11705   11705       0
   11707   11708   11708       0   11710   11711   11711       0   11713   11714
   11714       0   11716   11717   11717       0   11719   11720   11720       0
   11722   11723   11723       0   11725   11726   11726       0   11728   11729
   11729       0   11731   11732   11732       0   11734   11735   11735       0
   11737   11738   11738       0   11740   11741   11741       0   11743   11744
   11744       0   11746   11747   11747       0   11749   11750   11750       0
   11752   11753   11753       0   11755   11756   11756       0   11758   11759
   11759       0   11761   11762   11762       0   11764   11765   11765       0
   11767   11768   11768       0   11770   11771   11771       0   11773   11774
   11774       0   11776   11777   11777       0   11779   11780   11780       0
   11782   11783   11783       0   11785   11786   11786       0   11788   11789
   11789       0   11791   11792   11792       0   11794   11795   11795       0
   11797   11798   11798       0   11800   11801   11801       0   11803   11804
   11804       0   11806   11807   11807       0   11809   11810   11810       0
   11812   11813   11813       0   11815   11816   11816       0   11818   11819
   11819       0   11821   11822   11822       0   11824   11825   11825       0
   11827   11828   11828       0   11830   11831   11831       0   11833   11834
   11834       0   11836   11837   11837       0   11839   11840   11840       0
   11842   11843   11843       0   11845   11846   11846       0   11848   11849
   11849       0   11851   11852   11852       0   11854   11855   11855       0
   11857   11858   11858       0   11860   11861   11861       0   11863   11864
   11864       0   11866   11867   11867       0   11869   11870   11870       0
   11872   11873   11873       0   11875   11876   11876       0   11878   11879
   11879       0   11881   11882   11882       0   11884   11885   11885       0
   11887   11888   11888       0   11890   11891   11891       0   11893   11894
   11894       0   11896   11897   11897       0   11899   11900   11900       0
   11902   11903   11903       0   11905   11906   11906       0   11908   11909
   11909       0   11911   11912   11912       0   11914   11915   11915       0
   11917   11918   11918       0   11920   11921   11921       0   11923   11924
   11924       0   11926   11927   11927       0   11929   11930   11930       0
   11932   11933   11933       0   11935   11936   11936       0   11938   11939
   11939       0   11941   11942   11942       0   11944   11945   11945       0
   11947   11948   11948       0   11950   11951   11951       0   11953   11954
   11954       0   11956   11957   11957       0   11959   11960   11960       0
   11962   11963   11963       0   11965   11966   11966       0   11968   11969
   11969       0   11971   11972   11972       0   11974   11975   11975       0
   11977   11978   11978       0   11980   11981   11981       0   11983   11984
   11984       0   11986   11987   11987       0   11989   11990   11990       0
   11992   11993   11993       0   11995   11996   11996       0   11998   11999
   11999       0   12001   12002   12002       0   12004   12005   12005       0
   12007   12008   12008       0   12010   12011   12011       0   12013   12014
   12014       0   12016   12017   12017       0   12019   12020   12020       0
   12022   12023   12023       0   12025   12026   12026       0   12028   12029
   12029       0   12031   12032   12032       0   12034   12035   12035       0
   12037   12038   12038       0   12040   12041   12041       0   12043   12044
   12044       0   12046   12047   12047       0   12049   12050   12050       0
   12052   12053   12053       0   12055   12056   12056       0   12058   12059
   12059       0   12061   12062   12062       0   12064   12065   12065       0
   12067   12068   12068       0   12070   12071   12071       0   12073   12074
   12074       0   12076   12077   12077       0   12079   12080   12080       0
   12082   12083   12083       0   12085   12086   12086       0   12088   12089
   12089       0   12091   12092   12092       0   12094   12095   12095       0
   12097   12098   12098       0   12100   12101   12101       0   12103   12104
   12104       0   12106   12107   12107       0   12109   12110   12110       0
   12112   12113   12113       0   12115   12116   12116       0   12118   12119
   12119       0   12121   12122   12122       0   12124   12125   12125       0
   12127   12128   12128       0   12130   12131   12131       0   12133   12134
   12134       0   12136   12137   12137       0   12139   12140   12140       0
   12142   12143   12143       0   12145   12146   12146       0   12148   12149
   12149       0   12151   12152   12152       0   12154   12155   12155       0
   12157   12158   12158       0   12160   12161   12161       0   12163   12164
   12164       0   12166   12167   12167       0   12169   12170   12170       0
   12172   12173   12173       0   12175   12176   12176       0   12178   12179
   12179       0   12181   12182   12182       0   12184   12185   12185       0
   12187   12188   12188       0   12190   12191   12191       0   12193   12194
   12194       0   12196   12197   12197       0   12199   12200   12200       0
   12202   12203   12203       0   12205   12206   12206       0   12208   12209
   12209       0   12211   12212   12212       0   12214   12215   12215       0
   12217   12218   12218       0   12220   12221   12221       0   12223   12224
   12224       0   12226   12227   12227       0   12229   12230   12230       0
   12232   12233   12233       0   12235   12236   12236       0   12238   12239
   12239       0   12241   12242   12242       0   12244   12245   12245       0
   12247   12248   12248       0   12250   12251   12251       0   12253   12254
   12254       0   12256   12257   12257       0   12259   12260   12260       0
   12262   12263   12263       0   12265   12266   12266       0   12268   12269
   12269       0   12271   12272   12272       0   12274   12275   12275       0
   12277   12278   12278       0   12280   12281   12281       0   12283   12284
   12284       0   12286   12287   12287       0   12289   12290   12290       0
   12292   12293   12293       0   12295   12296   12296       0   12298   12299
   12299       0   12301   12302   12302       0   12304   12305   12305       0
   12307   12308   12308       0   12310   12311   12311       0   12313   12314
   12314       0   12316   12317   12317       0   12319   12320   12320       0
   12322   12323   12323       0   12325   12326   12326       0   12328   12329
   12329       0   12331   12332   12332       0   12334   12335   12335       0
   12337   12338   12338       0   12340   12341   12341       0   12343   12344
   12344       0   12346   12347   12347       0   12349   12350   12350       0
   12352   12353   12353       0   12355   12356   12356       0   12358   12359
   12359       0   12361   12362   12362       0   12364   12365   12365       0
   12367   12368   12368       0   12370   12371   12371       0   12373   12374
   12374       0   12376   12377   12377       0   12379   12380   12380       0
   12382   12383   12383       0   12385   12386   12386       0   12388   12389
   12389       0   12391   12392   12392       0   12394   12395   12395       0
   12397   12398   12398       0   12400   12401   12401       0   12403   12404
   12404       0   12406   12407   12407       0   12409   12410   12410       0
   12412   12413   12413       0   12415   12416   12416       0   12418   12419
   12419       0   12421   12422   12422       0   12424   12425   12425       0
   12427   12428   12428       0   12430   12431   12431       0   12433   12434
   12434       0   12436   12437   12437       0   12439   12440   12440       0
   12442   12443   12443       0   12445   12446   12446       0   12448   12449
   12449       0   12451   12452   12452       0   12454   12455   12455       0
   12457   12458   12458       0   12460   12461   12461       0   12463   12464
   12464       0   12466   12467   12467       0   12469   12470   12470       0
   12472   12473   12473       0   12475   12476   12476       0   12478   12479
   12479       0   12481   12482   12482       0   12484   12485   12485       0
   12487   12488   12488       0   12490   12491   12491       0   12493   12494
   12494       0   12496   12497   12497       0   12499   12500   12500       0
   12502   12503   12503       0   12505   12506   12506       0   12508   12509
   12509       0   12511   12512   12512       0   12514   12515   12515       0
   12517   12518   12518       0   12520   12521   12521       0   12523   12524
   12524       0   12526   12527   12527       0   12529   12530   12530       0
   12532   12533   12533       0   12535   12536   12536       0   12538   12539
   12539       0   12541   12542   12542       0   12544   12545   12545       0
   12547   12548   12548       0   12550   12551   12551       0   12553   12554
   12554       0   12556   12557   12557       0   12559   12560   12560       0
   12562   12563   12563       0   12565   12566   12566       0   12568   12569
   12569       0   12571   12572   12572       0   12574   12575   12575       0
   12577   12578   12578       0   12580   12581   12581       0   12583   12584
   12584       0   12586   12587   12587       0   12589   12590   12590       0
   12592   12593   12593       0   12595   12596   12596       0   12598   12599
   12599       0   12601   12602   12602       0   12604   12605   12605       0
   12607   12608   12608       0   12610   12611   12611       0   12613   12614
   12614       0   12616   12617   12617       0   12619   12620   12620       0
   12622   12623   12623       0   12625   12626   12626       0   12628   12629
   12629       0   12631   12632   12632       0   12634   12635   12635       0
   12637   12638   12638       0   12640   12641   12641       0   12643   12644
   12644       0   12646   12647   12647       0   12649   12650   12650       0
   12652   12653   12653       0   12655   12656   12656       0   12658   12659
   12659       0   12661   12662   12662       0   12664   12665   12665       0
   12667   12668   12668       0   12670   12671   12671       0   12673   12674
   12674       0   12676   12677   12677       0   12679   12680   12680       0
   12682   12683   12683       0   12685   12686   12686       0   12688   12689
   12689       0   12691   12692   12692       0   12694   12695   12695       0
   12697   12698   12698       0   12700   12701   12701       0   12703   12704
   12704       0   12706   12707   12707       0   12709   12710   12710       0
   12712   12713   12713       0   12715   12716   12716       0   12718   12719
   12719       0   12721   12722   12722       0   12724   12725   12725       0
   12727   12728   12728       0   12730   12731   12731       0   12733   12734
   12734       0   12736   12737   12737       0   12739   12740   12740       0
   12742   12743   12743       0   12745   12746   12746       0   12748   12749
   12749       0   12751   12752   12752       0   12754   12755   12755       0
   12757   12758   12758       0   12760   12761   12761       0   12763   12764
   12764       0   12766   12767   12767       0   12769   12770   12770       0
   12772   12773   12773       0   12775   12776   12776       0   12778   12779
   12779       0   12781   12782   12782       0   12784   12785   12785       0
   12787   12788   12788       0   12790   12791   12791       0   12793   12794
   12794       0   12796   12797   12797       0   12799   12800   12800       0
   12802   12803   12803       0   12805   12806   12806       0   12808   12809
   12809       0   12811   12812   12812       0   12814   12815   12815       0
   12817   12818   12818       0   12820   12821   12821       0   12823   12824
   12824       0   12826   12827   12827       0   12829   12830   12830       0
   12832   12833   12833       0   12835   12836   12836       0   12838   12839
   12839       0   12841   12842   12842       0   12844   12845   12845       0
   12847   12848   12848       0   12850   12851   12851       0   12853   12854
   12854       0   12856   12857   12857       0   12859   12860   12860       0
   12862   12863   12863       0   12865   12866   12866       0   12868   12869
   12869       0   12871   12872   12872       0   12874   12875   12875       0
   12877   12878   12878       0   12880   12881   12881       0   12883   12884
   12884       0   12886   12887   12887       0   12889   12890   12890       0
   12892   12893   12893       0   12895   12896   12896       0   12898   12899
   12899       0   12901   12902   12902       0   12904   12905   12905       0
   12907   12908   12908       0   12910   12911   12911       0   12913   12914
   12914       0   12916   12917   12917       0   12919   12920   12920       0
   12922   12923   12923       0   12925   12926   12926       0   12928   12929
   12929       0   12931   12932   12932       0   12934   12935   12935       0
   12937   12938   12938       0   12940   12941   12941       0   12943   12944
   12944       0   12946   12947   12947       0   12949   12950   12950       0
   12952   12953   12953       0   12955   12956   12956       0   12958   12959
   12959       0   12961   12962   12962       0   12964   12965   12965       0
   12967   12968   12968       0   12970   12971   12971       0   12973   12974
   12974       0   12976   12977   12977       0   12979   12980   12980       0
   12982   12983   12983       0   12985   12986   12986       0   12988   12989
   12989       0   12991   12992   12992       0   12994   12995   12995       0
   12997   12998   12998       0   13000   13001   13001       0   13003   13004
   13004       0   13006   13007   13007       0   13009   13010   13010       0
   13012   13013   13013       0   13015   13016   13016       0   13018   13019
   13019       0   13021   13022   13022       0   13024   13025   13025       0
   13027   13028   13028       0   13030   13031   13031       0   13033   13034
   13034       0   13036   13037   13037       0   13039   13040   13040       0
   13042   13043   13043       0   13045   13046   13046       0   13048   13049
   13049       0   13051   13052   13052       0   13054   13055   13055       0
   13057   13058   13058       0   13060   13061   13061       0   13063   13064
   13064       0   13066   13067   13067       0   13069   13070   13070       0
   13072   13073   13073       0   13075   13076   13076       0   13078   13079
   13079       0   13081   13082   13082       0   13084   13085   13085       0
   13087   13088   13088       0   13090   13091   13091       0   13093   13094
   13094       0   13096   13097   13097       0   13099   13100   13100       0
   13102   13103   13103       0   13105   13106   13106       0   13108   13109
   13109       0   13111   13112   13112       0   13114   13115   13115       0
   13117   13118   13118       0   13120   13121   13121       0   13123   13124
   13124       0   13126   13127   13127       0   13129   13130   13130       0
   13132   13133   13133       0   13135   13136   13136       0   13138   13139
   13139       0   13141   13142   13142       0   13144   13145   13145       0
   13147   13148   13148       0   13150   13151   13151       0   13153   13154
   13154       0   13156   13157   13157       0   13159   13160   13160       0
   13162   13163   13163       0   13165   13166   13166       0   13168   13169
   13169       0   13171   13172   13172       0   13174   13175   13175       0
   13177   13178   13178       0   13180   13181   13181       0   13183   13184
   13184       0   13186   13187   13187       0   13189   13190   13190       0
   13192   13193   13193       0   13195   13196   13196       0   13198   13199
   13199       0   13201   13202   13202       0   13204   13205   13205       0
   13207   13208   13208       0   13210   13211   13211       0   13213   13214
   13214       0   13216   13217   13217       0   13219   13220   13220       0
   13222   13223   13223       0   13225   13226   13226       0   13228   13229
   13229       0   13231   13232   13232       0   13234   13235   13235       0
   13237   13238   13238       0   13240   13241   13241       0   13243   13244
   13244       0   13246   13247   13247       0   13249   13250   13250       0
   13252   13253   13253       0   13255   13256   13256       0   13258   13259
   13259       0   13261   13262   13262       0   13264   13265   13265       0
   13267   13268   13268       0   13270   13271   13271       0   13273   13274
   13274       0   13276   13277   13277       0   13279   13280   13280       0
   13282   13283   13283       0   13285   13286   13286       0   13288   13289
   13289       0   13291   13292   13292       0   13294   13295   13295       0
   13297   13298   13298       0   13300   13301   13301       0   13303   13304
   13304       0   13306   13307   13307       0   13309   13310   13310       0
   13312   13313   13313       0   13315   13316   13316       0   13318   13319
   13319       0   13321   13322   13322       0   13324   13325   13325       0
   13327   13328   13328       0   13330   13331   13331       0   13333   13334
   13334       0   13336   13337   13337       0   13339   13340   13340       0
   13342   13343   13343       0   13345   13346   13346       0   13348   13349
   13349       0   13351   13352   13352       0   13354   13355   13355       0
   13357   13358   13358       0   13360   13361   13361       0   13363   13364
   13364       0   13366   13367   13367       0   13369   13370   13370       0
   13372   13373   13373       0   13375   13376   13376       0   13378   13379
   13379       0   13381   13382   13382       0   13384   13385   13385       0
   13387   13388   13388       0   13390   13391   13391       0   13393   13394
   13394       0   13396   13397   13397       0   13399   13400   13400       0
   13402   13403   13403       0   13405   13406   13406       0   13408   13409
   13409       0   13411   13412   13412       0   13414   13415   13415       0
   13417   13418   13418       0   13420   13421   13421       0   13423   13424
   13424       0   13426   13427   13427       0   13429   13430   13430       0
   13432   13433   13433       0   13435   13436   13436       0   13438   13439
   13439       0   13441   13442   13442       0   13444   13445   13445       0
   13447   13448   13448       0   13450   13451   13451       0   13453   13454
   13454       0   13456   13457   13457       0   13459   13460   13460       0
   13462   13463   13463       0   13465   13466   13466       0   13468   13469
   13469       0   13471   13472   13472       0   13474   13475   13475       0
   13477   13478   13478       0   13480   13481   13481       0   13483   13484
   13484       0   13486   13487   13487       0   13489   13490   13490       0
   13492   13493   13493       0   13495   13496   13496       0   13498   13499
   13499       0   13501   13502   13502       0   13504   13505   13505       0
   13507   13508   13508       0   13510   13511   13511       0   13513   13514
   13514       0   13516   13517   13517       0   13519   13520   13520       0
   13522   13523   13523       0   13525   13526   13526       0   13528   13529
   13529       0   13531   13532   13532       0   13534   13535   13535       0
   13537   13538   13538       0   13540   13541   13541       0   13543   13544
   13544       0   13546   13547   13547       0   13549   13550   13550       0
   13552   13553   13553       0   13555   13556   13556       0   13558   13559
   13559       0   13561   13562   13562       0   13564   13565   13565       0
   13567   13568   13568       0   13570   13571   13571       0   13573   13574
   13574       0   13576   13577   13577       0   13579   13580   13580       0
   13582   13583   13583       0   13585   13586   13586       0   13588   13589
   13589       0   13591   13592   13592       0   13594   13595   13595       0
   13597   13598   13598       0   13600   13601   13601       0   13603   13604
   13604       0   13606   13607   13607       0   13609   13610   13610       0
   13612   13613   13613       0   13615   13616   13616       0   13618   13619
   13619       0   13621   13622   13622       0   13624   13625   13625       0
   13627   13628   13628       0   13630   13631   13631       0   13633   13634
   13634       0   13636   13637   13637       0   13639   13640   13640       0
   13642   13643   13643       0   13645   13646   13646       0   13648   13649
   13649       0   13651   13652   13652       0   13654   13655   13655       0
   13657   13658   13658       0   13660   13661   13661       0   13663   13664
   13664       0   13666   13667   13667       0   13669   13670   13670       0
   13672   13673   13673       0   13675   13676   13676       0   13678   13679
   13679       0   13681   13682   13682       0   13684   13685   13685       0
   13687   13688   13688       0   13690   13691   13691       0   13693   13694
   13694       0   13696   13697   13697       0   13699   13700   13700       0
   13702   13703   13703       0   13705   13706   13706       0   13708   13709
   13709       0   13711   13712   13712       0   13714   13715   13715       0
   13717   13718   13718       0   13720   13721   13721       0   13723   13724
   13724       0   13726   13727   13727       0   13729   13730   13730       0
   13732   13733   13733       0   13735   13736   13736       0   13738   13739
   13739       0   13741   13742   13742       0   13744   13745   13745       0
   13747   13748   13748       0   13750   13751   13751       0   13753   13754
   13754       0   13756   13757   13757       0   13759   13760   13760       0
   13762   13763   13763       0   13765   13766   13766       0   13768   13769
   13769       0   13771   13772   13772       0   13774   13775   13775       0
   13777   13778   13778       0   13780   13781   13781       0   13783   13784
   13784       0   13786   13787   13787       0   13789   13790   13790       0
   13792   13793   13793       0   13795   13796   13796       0   13798   13799
   13799       0   13801   13802   13802       0   13804   13805   13805       0
   13807   13808   13808       0   13810   13811   13811       0   13813   13814
   13814       0   13816   13817   13817       0   13819   13820   13820       0
   13822   13823   13823       0   13825   13826   13826       0   13828   13829
   13829       0   13831   13832   13832       0   13834   13835   13835       0
   13837   13838   13838       0   13840   13841   13841       0   13843   13844
   13844       0   13846   13847   13847       0   13849   13850   13850       0
   13852   13853   13853       0   13855   13856   13856       0   13858   13859
   13859       0   13861   13862   13862       0   13864   13865   13865       0
   13867   13868   13868       0   13870   13871   13871       0   13873   13874
   13874       0   13876   13877   13877       0   13879   13880   13880       0
   13882   13883   13883       0   13885   13886   13886       0   13888   13889
   13889       0   13891   13892   13892       0   13894   13895   13895       0
   13897   13898   13898       0   13900   13901   13901       0   13903   13904
   13904       0   13906   13907   13907       0   13909   13910   13910       0
   13912   13913   13913       0   13915   13916   13916       0   13918   13919
   13919       0   13921   13922   13922       0   13924   13925   13925       0
   13927   13928   13928       0   13930   13931   13931       0   13933   13934
   13934       0   13936   13937   13937       0   13939   13940   13940       0
   13942   13943   13943       0   13945   13946   13946       0   13948   13949
   13949       0   13951   13952   13952       0   13954   13955   13955       0
   13957   13958   13958       0   13960   13961   13961       0   13963   13964
   13964       0   13966   13967   13967       0   13969   13970   13970       0
   13972   13973   13973       0   13975   13976   13976       0   13978   13979
   13979       0   13981   13982   13982       0   13984   13985   13985       0
   13987   13988   13988       0   13990   13991   13991       0   13993   13994
   13994       0   13996   13997   13997       0   13999   14000   14000       0
   14002   14003   14003       0   14005   14006   14006       0   14008   14009
   14009       0   14011   14012   14012       0   14014   14015   14015       0
   14017   14018   14018       0   14020   14021   14021       0   14023   14024
   14024       0   14026   14027   14027       0   14029   14030   14030       0
   14032   14033   14033       0   14035   14036   14036       0   14038   14039
   14039       0   14041   14042   14042       0   14044   14045   14045       0
   14047   14048   14048       0   14050   14051   14051       0   14053   14054
   14054       0   14056   14057   14057       0   14059   14060   14060       0
   14062   14063   14063       0   14065   14066   14066       0   14068   14069
   14069       0   14071   14072   14072       0   14074   14075   14075       0
   14077   14078   14078       0   14080   14081   14081       0   14083   14084
   14084       0   14086   14087   14087       0   14089   14090   14090       0
   14092   14093   14093       0   14095   14096   14096       0   14098   14099
   14099       0   14101   14102   14102       0   14104   14105   14105       0
   14107   14108   14108       0   14110   14111   14111       0   14113   14114
   14114       0   14116   14117   14117       0   14119   14120   14120       0
   14122   14123   14123       0   14125   14126   14126       0   14128   14129
   14129       0   14131   14132   14132       0   14134   14135   14135       0
   14137   14138   14138       0   14140   14141   14141       0   14143   14144
   14144       0   14146   14147   14147       0   14149   14150   14150       0
   14152   14153   14153       0   14155   14156   14156       0   14158   14159
   14159       0   14161   14162   14162       0   14164   14165   14165       0
   14167   14168   14168       0   14170   14171   14171       0   14173   14174
   14174       0   14176   14177   14177       0   14179   14180   14180       0
   14182   14183   14183       0   14185   14186   14186       0   14188   14189
   14189       0   14191   14192   14192       0   14194   14195   14195       0
   14197   14198   14198       0   14200   14201   14201       0   14203   14204
   14204       0   14206   14207   14207       0   14209   14210   14210       0
   14212   14213   14213       0   14215   14216   14216       0   14218   14219
   14219       0   14221   14222   14222       0   14224   14225   14225       0
   14227   14228   14228       0   14230   14231   14231       0   14233   14234
   14234       0   14236   14237   14237       0   14239   14240   14240       0
   14242   14243   14243       0   14245   14246   14246       0   14248   14249
   14249       0   14251   14252   14252       0   14254   14255   14255       0
   14257   14258   14258       0   14260   14261   14261       0   14263   14264
   14264       0   14266   14267   14267       0   14269   14270   14270       0
   14272   14273   14273       0   14275   14276   14276       0   14278   14279
   14279       0   14281   14282   14282       0   14284   14285   14285       0
   14287   14288   14288       0   14290   14291   14291       0   14293   14294
   14294       0   14296   14297   14297       0   14299   14300   14300       0
   14302   14303   14303       0   14305   14306   14306       0   14308   14309
   14309       0   14311   14312   14312       0   14314   14315   14315       0
   14317   14318   14318       0   14320   14321   14321       0   14323   14324
   14324       0   14326   14327   14327       0   14329   14330   14330       0
   14332   14333   14333       0   14335   14336   14336       0   14338   14339
   14339       0   14341   14342   14342       0   14344   14345   14345       0
   14347   14348   14348       0   14350   14351   14351       0   14353   14354
   14354       0   14356   14357   14357       0   14359   14360   14360       0
   14362   14363   14363       0   14365   14366   14366       0   14368   14369
   14369       0   14371   14372   14372       0   14374   14375   14375       0
   14377   14378   14378       0   14380   14381   14381       0   14383   14384
   14384       0   14386   14387   14387       0   14389   14390   14390       0
   14392   14393   14393       0   14395   14396   14396       0   14398   14399
   14399       0   14401   14402   14402       0   14404   14405   14405       0
   14407   14408   14408       0   14410   14411   14411       0   14413   14414
   14414       0   14416   14417   14417       0   14419   14420   14420       0
   14422   14423   14423       0   14425   14426   14426       0   14428   14429
   14429       0   14431   14432   14432       0   14434   14435   14435       0
   14437   14438   14438       0   14440   14441   14441       0   14443   14444
   14444       0   14446   14447   14447       0   14449   14450   14450       0
   14452   14453   14453       0   14455   14456   14456       0   14458   14459
   14459       0   14461   14462   14462       0   14464   14465   14465       0
   14467   14468   14468       0   14470   14471   14471       0   14473   14474
   14474       0   14476   14477   14477       0   14479   14480   14480       0
   14482   14483   14483       0   14485   14486   14486       0   14488   14489
   14489       0   14491   14492   14492       0   14494   14495   14495       0
   14497   14498   14498       0   14500   14501   14501       0   14503   14504
   14504       0   14506   14507   14507       0   14509   14510   14510       0
   14512   14513   14513       0   14515   14516   14516       0   14518   14519
   14519       0   14521   14522   14522       0   14524   14525   14525       0
   14527   14528   14528       0   14530   14531   14531       0   14533   14534
   14534       0   14536   14537   14537       0   14539   14540   14540       0
   14542   14543   14543       0   14545   14546   14546       0   14548   14549
   14549       0   14551   14552   14552       0   14554   14555   14555       0
   14557   14558   14558       0   14560   14561   14561       0   14563   14564
   14564       0   14566   14567   14567       0   14569   14570   14570       0
   14572   14573   14573       0   14575   14576   14576       0   14578   14579
   14579       0   14581   14582   14582       0   14584   14585   14585       0
   14587   14588   14588       0   14590   14591   14591       0   14593   14594
   14594       0   14596   14597   14597       0   14599   14600   14600       0
   14602   14603   14603       0   14605   14606   14606       0   14608   14609
   14609       0   14611   14612   14612       0   14614   14615   14615       0
   14617   14618   14618       0   14620   14621   14621       0   14623   14624
   14624       0   14626   14627   14627       0   14629   14630   14630       0
   14632   14633   14633       0   14635   14636   14636       0   14638   14639
   14639       0   14641   14642   14642       0   14644   14645   14645       0
   14647   14648   14648       0   14650   14651   14651       0   14653   14654
   14654       0   14656   14657   14657       0   14659   14660   14660       0
   14662   14663   14663       0   14665   14666   14666       0   14668   14669
   14669       0   14671   14672   14672       0   14674   14675   14675       0
   14677   14678   14678       0   14680   14681   14681       0   14683   14684
   14684       0   14686   14687   14687       0   14689   14690   14690       0
   14692   14693   14693       0   14695   14696   14696       0   14698   14699
   14699       0   14701   14702   14702       0   14704   14705   14705       0
   14707   14708   14708       0   14710   14711   14711       0   14713   14714
   14714       0   14716   14717   14717       0   14719   14720   14720       0
   14722   14723   14723       0   14725   14726   14726       0   14728   14729
   14729       0   14731   14732   14732       0   14734   14735   14735       0
   14737   14738   14738       0   14740   14741   14741       0   14743   14744
   14744       0   14746   14747   14747       0   14749   14750   14750       0
   14752   14753   14753       0   14755   14756   14756       0   14758   14759
   14759       0   14761   14762   14762       0   14764   14765   14765       0
   14767   14768   14768       0   14770   14771   14771       0   14773   14774
   14774       0   14776   14777   14777       0   14779   14780   14780       0
   14782   14783   14783       0   14785   14786   14786       0   14788   14789
   14789       0   14791   14792   14792       0   14794   14795   14795       0
   14797   14798   14798       0   14800   14801   14801       0   14803   14804
   14804       0   14806   14807   14807       0   14809   14810   14810       0
   14812   14813   14813       0   14815   14816   14816       0   14818   14819
   14819       0   14821   14822   14822       0   14824   14825   14825       0
   14827   14828   14828       0   14830   14831   14831       0   14833   14834
   14834       0   14836   14837   14837       0   14839   14840   14840       0
   14842   14843   14843       0   14845   14846   14846       0   14848   14849
   14849       0   14851   14852   14852       0   14854   14855   14855       0
   14857   14858   14858       0   14860   14861   14861       0   14863   14864
   14864       0   14866   14867   14867       0   14869   14870   14870       0
   14872   14873   14873       0   14875   14876   14876       0   14878   14879
   14879       0   14881   14882   14882       0   14884   14885   14885       0
   14887   14888   14888       0   14890   14891   14891       0   14893   14894
   14894       0   14896   14897   14897       0   14899   14900   14900       0
   14902   14903   14903       0   14905   14906   14906       0   14908   14909
   14909       0   14911   14912   14912       0   14914   14915   14915       0
   14917   14918   14918       0   14920   14921   14921       0   14923   14924
   14924       0   14926   14927   14927       0   14929   14930   14930       0
   14932   14933   14933       0   14935   14936   14936       0   14938   14939
   14939       0   14941   14942   14942       0   14944   14945   14945       0
   14947   14948   14948       0   14950   14951   14951       0   14953   14954
   14954       0   14956   14957   14957       0   14959   14960   14960       0
   14962   14963   14963       0   14965   14966   14966       0   14968   14969
   14969       0   14971   14972   14972       0   14974   14975   14975       0
   14977   14978   14978       0   14980   14981   14981       0   14983   14984
   14984       0   14986   14987   14987       0   14989   14990   14990       0
   14992   14993   14993       0   14995   14996   14996       0   14998   14999
   14999       0   15001   15002   15002       0   15004   15005   15005       0
   15007   15008   15008       0   15010   15011   15011       0   15013   15014
   15014       0   15016   15017   15017       0   15019   15020   15020       0
   15022   15023   15023       0   15025   15026   15026       0   15028   15029
   15029       0   15031   15032   15032       0   15034   15035   15035       0
   15037   15038   15038       0   15040   15041   15041       0   15043   15044
   15044       0   15046   15047   15047       0   15049   15050   15050       0
   15052   15053   15053       0   15055   15056   15056       0   15058   15059
   15059       0   15061   15062   15062       0   15064   15065   15065       0
   15067   15068   15068       0   15070   15071   15071       0   15073   15074
   15074       0   15076   15077   15077       0   15079   15080   15080       0
   15082   15083   15083       0   15085   15086   15086       0   15088   15089
   15089       0   15091   15092   15092       0   15094   15095   15095       0
   15097   15098   15098       0   15100   15101   15101       0   15103   15104
   15104       0   15106   15107   15107       0   15109   15110   15110       0
   15112   15113   15113       0   15115   15116   15116       0   15118   15119
   15119       0   15121   15122   15122       0   15124   15125   15125       0
   15127   15128   15128       0   15130   15131   15131       0   15133   15134
   15134       0   15136   15137   15137       0   15139   15140   15140       0
   15142   15143   15143       0   15145   15146   15146       0   15148   15149
   15149       0   15151   15152   15152       0   15154   15155   15155       0
   15157   15158   15158       0   15160   15161   15161       0   15163   15164
   15164       0   15166   15167   15167       0   15169   15170   15170       0
   15172   15173   15173       0   15175   15176   15176       0   15178   15179
   15179       0   15181   15182   15182       0   15184   15185   15185       0
   15187   15188   15188       0   15190   15191   15191       0   15193   15194
   15194       0   15196   15197   15197       0   15199   15200   15200       0
   15202   15203   15203       0   15205   15206   15206       0   15208   15209
   15209       0   15211   15212   15212       0   15214   15215   15215       0
   15217   15218   15218       0   15220   15221   15221       0   15223   15224
   15224       0   15226   15227   15227       0   15229   15230   15230       0
   15232   15233   15233       0   15235   15236   15236       0   15238   15239
   15239       0   15241   15242   15242       0   15244   15245   15245       0
   15247   15248   15248       0   15250   15251   15251       0   15253   15254
   15254       0   15256   15257   15257       0   15259   15260   15260       0
   15262   15263   15263       0   15265   15266   15266       0   15268   15269
   15269       0   15271   15272   15272       0   15274   15275   15275       0
   15277   15278   15278       0   15280   15281   15281       0   15283   15284
   15284       0   15286   15287   15287       0   15289   15290   15290       0
   15292   15293   15293       0   15295   15296   15296       0   15298   15299
   15299       0   15301   15302   15302       0   15304   15305   15305       0
   15307   15308   15308       0   15310   15311   15311       0   15313   15314
   15314       0   15316   15317   15317       0   15319   15320   15320       0
   15322   15323   15323       0   15325   15326   15326       0   15328   15329
   15329       0   15331   15332   15332       0   15334   15335   15335       0
   15337   15338   15338       0   15340   15341   15341       0   15343   15344
   15344       0   15346   15347   15347       0   15349   15350   15350       0
   15352   15353   15353       0   15355   15356   15356       0   15358   15359
   15359       0   15361   15362   15362       0   15364   15365   15365       0
   15367   15368   15368       0   15370   15371   15371       0   15373   15374
   15374       0   15376   15377   15377       0   15379   15380   15380       0
   15382   15383   15383       0   15385   15386   15386       0   15388   15389
   15389       0   15391   15392   15392       0   15394   15395   15395       0
   15397   15398   15398       0   15400   15401   15401       0   15403   15404
   15404       0   15406   15407   15407       0   15409   15410   15410       0
   15412   15413   15413       0   15415   15416   15416       0   15418   15419
   15419       0   15421   15422   15422       0   15424   15425   15425       0
   15427   15428   15428       0   15430   15431   15431       0   15433   15434
   15434       0   15436   15437   15437       0   15439   15440   15440       0
   15442   15443   15443       0   15445   15446   15446       0   15448   15449
   15449       0   15451   15452   15452       0   15454   15455   15455       0
   15457   15458   15458       0   15460   15461   15461       0   15463   15464
   15464       0   15466   15467   15467       0   15469   15470   15470       0
   15472   15473   15473       0   15475   15476   15476       0   15478   15479
   15479       0   15481   15482   15482       0   15484   15485   15485       0
   15487   15488   15488       0   15490   15491   15491       0   15493   15494
   15494       0   15496   15497   15497       0   15499   15500   15500       0
   15502   15503   15503       0   15505   15506   15506       0   15508   15509
   15509       0   15511   15512   15512       0   15514   15515   15515       0
   15517   15518   15518       0   15520   15521   15521       0   15523   15524
   15524       0   15526   15527   15527       0   15529   15530   15530       0
   15532   15533   15533       0   15535   15536   15536       0   15538   15539
   15539       0   15541   15542   15542       0   15544   15545   15545       0
   15547   15548   15548       0   15550   15551   15551       0   15553   15554
   15554       0   15556   15557   15557       0   15559   15560   15560       0
   15562   15563   15563       0   15565   15566   15566       0   15568   15569
   15569       0   15571   15572   15572       0   15574   15575   15575       0
   15577   15578   15578       0   15580   15581   15581       0   15583   15584
   15584       0   15586   15587   15587       0   15589   15590   15590       0
   15592   15593   15593       0   15595   15596   15596       0   15598   15599
   15599       0   15601   15602   15602       0   15604   15605   15605       0
   15607   15608   15608       0   15610   15611   15611       0   15613   15614
   15614       0   15616   15617   15617       0   15619   15620   15620       0
   15622   15623   15623       0   15625   15626   15626       0   15628   15629
   15629       0   15631   15632   15632       0   15634   15635   15635       0
   15637   15638   15638       0   15640   15641   15641       0   15643   15644
   15644       0   15646   15647   15647       0   15649   15650   15650       0
   15652   15653   15653       0   15655   15656   15656       0   15658   15659
   15659       0   15661   15662   15662       0   15664   15665   15665       0
   15667   15668   15668       0   15670   15671   15671       0   15673   15674
   15674       0   15676   15677   15677       0   15679   15680   15680       0
   15682   15683   15683       0   15685   15686   15686       0   15688   15689
   15689       0   15691   15692   15692       0   15694   15695   15695       0
   15697   15698   15698       0   15700   15701   15701       0   15703   15704
   15704       0   15706   15707   15707       0   15709   15710   15710       0
   15712   15713   15713       0   15715   15716   15716       0   15718   15719
   15719       0   15721   15722   15722       0   15724   15725   15725       0
   15727   15728   15728       0   15730   15731   15731       0   15733   15734
   15734       0   15736   15737   15737       0   15739   15740   15740       0
   15742   15743   15743       0   15745   15746   15746       0   15748   15749
   15749       0   15751   15752   15752       0   15754   15755   15755       0
   15757   15758   15758       0   15760   15761   15761       0   15763   15764
   15764       0   15766   15767   15767       0   15769   15770   15770       0
   15772   15773   15773       0   15775   15776   15776       0   15778   15779
   15779       0   15781   15782   15782       0   15784   15785   15785       0
   15787   15788   15788       0   15790   15791   15791       0   15793   15794
   15794       0   15796   15797   15797       0   15799   15800   15800       0
   15802   15803   15803       0   15805   15806   15806       0   15808   15809
   15809       0   15811   15812   15812       0   15814   15815   15815       0
   15817   15818   15818       0   15820   15821   15821       0   15823   15824
   15824       0   15826   15827   15827       0   15829   15830   15830       0
   15832   15833   15833       0   15835   15836   15836       0   15838   15839
   15839       0   15841   15842   15842       0   15844   15845   15845       0
   15847   15848   15848       0   15850   15851   15851       0   15853   15854
   15854       0   15856   15857   15857       0   15859   15860   15860       0
   15862   15863   15863       0   15865   15866   15866       0   15868   15869
   15869       0   15871   15872   15872       0   15874   15875   15875       0
   15877   15878   15878       0   15880   15881   15881       0   15883   15884
   15884       0   15886   15887   15887       0   15889   15890   15890       0
   15892   15893   15893       0   15895   15896   15896       0   15898   15899
   15899       0   15901   15902   15902       0   15904   15905   15905       0
   15907   15908   15908       0   15910   15911   15911       0   15913   15914
   15914       0   15916   15917   15917       0   15919   15920   15920       0
   15922   15923   15923       0   15925   15926   15926       0   15928   15929
   15929       0   15931   15932   15932       0   15934   15935   15935       0
   15937   15938   15938       0   15940   15941   15941       0   15943   15944
   15944       0   15946   15947   15947       0   15949   15950   15950       0
   15952   15953   15953       0   15955   15956   15956       0   15958   15959
   15959       0   15961   15962   15962       0   15964   15965   15965       0
   15967   15968   15968       0   15970   15971   15971       0   15973   15974
   15974       0   15976   15977   15977       0   15979   15980   15980       0
   15982   15983   15983       0   15985   15986   15986       0   15988   15989
   15989       0   15991   15992   15992       0   15994   15995   15995       0
   15997   15998   15998       0   16000   16001   16001       0   16003   16004
   16004       0   16006   16007   16007       0   16009   16010   16010       0
   16012   16013   16013       0   16015   16016   16016       0   16018   16019
   16019       0   16021   16022   16022       0   16024   16025   16025       0
   16027   16028   16028       0   16030   16031   16031       0   16033   16034
   16034       0   16036   16037   16037       0   16039   16040   16040       0
   16042   16043   16043       0   16045   16046   16046       0   16048   16049
   16049       0   16051   16052   16052       0   16054   16055   16055       0
   16057   16058   16058       0   16060   16061   16061       0   16063   16064
   16064       0   16066   16067   16067       0   16069   16070   16070       0
   16072   16073   16073       0   16075   16076   16076       0   16078   16079
   16079       0   16081   16082   16082       0   16084   16085   16085       0
   16087   16088   16088       0   16090   16091   16091       0   16093   16094
   16094       0   16096   16097   16097       0   16099   16100   16100       0
   16102   16103   16103       0   16105   16106   16106       0   16108   16109
   16109       0   16111   16112   16112       0   16114   16115   16115       0
   16117   16118   16118       0   16120   16121   16121       0   16123   16124
   16124       0   16126   16127   16127       0   16129   16130   16130       0
   16132   16133   16133       0   16135   16136   16136       0   16138   16139
   16139       0   16141   16142   16142       0   16144   16145   16145       0
   16147   16148   16148       0   16150   16151   16151       0   16153   16154
   16154       0   16156   16157   16157       0   16159   16160   16160       0
   16162   16163   16163       0   16165   16166   16166       0   16168   16169
   16169       0   16171   16172   16172       0   16174   16175   16175       0
   16177   16178   16178       0   16180   16181   16181       0   16183   16184
   16184       0   16186   16187   16187       0   16189   16190   16190       0
   16192   16193   16193       0   16195   16196   16196       0   16198   16199
   16199       0   16201   16202   16202       0   16204   16205   16205       0
   16207   16208   16208       0   16210   16211   16211       0   16213   16214
   16214       0   16216   16217   16217       0   16219   16220   16220       0
   16222   16223   16223       0   16225   16226   16226       0   16228   16229
   16229       0   16231   16232   16232       0   16234   16235   16235       0
   16237   16238   16238       0   16240   16241   16241       0   16243   16244
   16244       0   16246   16247   16247       0   16249   16250   16250       0
   16252   16253   16253       0   16255   16256   16256       0   16258   16259
   16259       0   16261   16262   16262       0   16264   16265   16265       0
   16267   16268   16268       0   16270   16271   16271       0   16273   16274
   16274       0   16276   16277   16277       0   16279   16280   16280       0
   16282   16283   16283       0   16285   16286   16286       0   16288   16289
   16289       0   16291   16292   16292       0   16294   16295   16295       0
   16297   16298   16298       0   16300   16301   16301       0   16303   16304
   16304       0   16306   16307   16307       0   16309   16310   16310       0
   16312   16313   16313       0   16315   16316   16316       0   16318   16319
   16319       0   16321   16322   16322       0   16324   16325   16325       0
   16327   16328   16328       0   16330   16331   16331       0   16333   16334
   16334       0   16336   16337   16337       0   16339   16340   16340       0
   16342   16343   16343       0   16345   16346   16346       0   16348   16349
   16349       0   16351   16352   16352       0   16354   16355   16355       0
   16357   16358   16358       0   16360   16361   16361       0   16363   16364
   16364       0   16366   16367   16367       0   16369   16370   16370       0
   16372   16373   16373       0   16375   16376   16376       0   16378   16379
   16379       0   16381   16382   16382       0   16384   16385   16385       0
   16387   16388   16388       0   16390   16391   16391       0   16393   16394
   16394       0   16396   16397   16397       0   16399   16400   16400       0
   16402   16403   16403       0   16405   16406   16406       0   16408   16409
   16409       0   16411   16412   16412       0   16414   16415   16415       0
   16417   16418   16418       0   16420   16421   16421       0   16423   16424
   16424       0   16426   16427   16427       0   16429   16430   16430       0
   16432   16433   16433       0   16435   16436   16436       0   16438   16439
   16439       0   16441   16442   16442       0   16444   16445   16445       0
   16447   16448   16448       0   16450   16451   16451       0   16453   16454
   16454       0   16456   16457   16457       0   16459   16460   16460       0
   16462   16463   16463       0   16465   16466   16466       0   16468   16469
   16469       0   16471   16472   16472       0   16474   16475   16475       0
   16477   16478   16478       0   16480   16481   16481       0   16483   16484
   16484       0   16486   16487   16487       0   16489   16490   16490       0
   16492   16493   16493       0   16495   16496   16496       0   16498   16499
   16499       0   16501   16502   16502       0   16504   16505   16505       0
   16507   16508   16508       0   16510   16511   16511       0   16513   16514
   16514       0   16516   16517   16517       0   16519   16520   16520       0
   16522   16523   16523       0   16525   16526   16526       0   16528   16529
   16529       0   16531   16532   16532       0   16534   16535   16535       0
   16537   16538   16538       0   16540   16541   16541       0   16543   16544
   16544       0   16546   16547   16547       0   16549   16550   16550       0
   16552   16553   16553       0   16555   16556   16556       0   16558   16559
   16559       0   16561   16562   16562       0   16564   16565   16565       0
   16567   16568   16568       0   16570   16571   16571       0   16573   16574
   16574       0   16576   16577   16577       0   16579   16580   16580       0
   16582   16583   16583       0   16585   16586   16586       0   16588   16589
   16589       0   16591   16592   16592       0   16594   16595   16595       0
   16597   16598   16598       0   16600   16601   16601       0   16603   16604
   16604       0   16606   16607   16607       0   16609   16610   16610       0
   16612   16613   16613       0   16615   16616   16616       0   16618   16619
   16619       0   16621   16622   16622       0   16624   16625   16625       0
   16627   16628   16628       0   16630   16631   16631       0   16633   16634
   16634       0   16636   16637   16637       0   16639   16640   16640       0
   16642   16643   16643       0   16645   16646   16646       0   16648   16649
   16649       0   16651   16652   16652       0   16654   16655   16655       0
   16657   16658   16658       0   16660   16661   16661       0   16663   16664
   16664       0   16666   16667   16667       0   16669   16670   16670       0
   16672   16673   16673       0   16675   16676   16676       0   16678   16679
   16679       0   16681   16682   16682       0   16684   16685   16685       0
   16687   16688   16688       0   16690   16691   16691       0   16693   16694
   16694       0   16696   16697   16697       0   16699   16700   16700       0
   16702   16703   16703       0   16705   16706   16706       0   16708   16709
   16709       0   16711   16712   16712       0   16714   16715   16715       0
   16717   16718   16718       0   16720   16721   16721       0   16723   16724
   16724       0   16726   16727   16727       0   16729   16730   16730       0
   16732   16733   16733       0   16735   16736   16736       0   16738   16739
   16739       0   16741   16742   16742       0   16744   16745   16745       0
   16747   16748   16748       0   16750   16751   16751       0   16753   16754
   16754       0   16756   16757   16757       0   16759   16760   16760       0
   16762   16763   16763       0   16765   16766   16766       0   16768   16769
   16769       0   16771   16772   16772       0   16774   16775   16775       0
   16777   16778   16778       0   16780   16781   16781       0   16783   16784
   16784       0   16786   16787   16787       0   16789   16790   16790       0
   16792   16793   16793       0   16795   16796   16796       0   16798   16799
   16799       0   16801   16802   16802       0   16804   16805   16805       0
   16807   16808   16808       0   16810   16811   16811       0   16813   16814
   16814       0   16816   16817   16817       0   16819   16820   16820       0
   16822   16823   16823       0   16825   16826   16826       0   16828   16829
   16829       0   16831   16832   16832       0   16834   16835   16835       0
   16837   16838   16838       0   16840   16841   16841       0   16843   16844
   16844       0   16846   16847   16847       0   16849   16850   16850       0
   16852   16853   16853       0   16855   16856   16856       0   16858   16859
   16859       0   16861   16862   16862       0   16864   16865   16865       0
   16867   16868   16868       0   16870   16871   16871       0   16873   16874
   16874       0   16876   16877   16877       0   16879   16880   16880       0
   16882   16883   16883       0   16885   16886   16886       0   16888   16889
   16889       0   16891   16892   16892       0   16894   16895   16895       0
   16897   16898   16898       0   16900   16901   16901       0   16903   16904
   16904       0   16906   16907   16907       0   16909   16910   16910       0
   16912   16913   16913       0   16915   16916   16916       0   16918   16919
   16919       0   16921   16922   16922       0   16924   16925   16925       0
   16927   16928   16928       0   16930   16931   16931       0   16933   16934
   16934       0   16936   16937   16937       0   16939   16940   16940       0
   16942   16943   16943       0   16945   16946   16946       0   16948   16949
   16949       0   16951   16952   16952       0   16954   16955   16955       0
   16957   16958   16958       0   16960   16961   16961       0   16963   16964
   16964       0   16966   16967   16967       0   16969   16970   16970       0
   16972   16973   16973       0   16975   16976   16976       0   16978   16979
   16979       0   16981   16982   16982       0   16984   16985   16985       0
   16987   16988   16988       0   16990   16991   16991       0   16993   16994
   16994       0   16996   16997   16997       0   16999   17000   17000       0
   17002   17003   17003       0   17005   17006   17006       0   17008   17009
   17009       0   17011   17012   17012       0   17014   17015   17015       0
   17017   17018   17018       0   17020   17021   17021       0   17023   17024
   17024       0   17026   17027   17027       0   17029   17030   17030       0
   17032   17033   17033       0   17035   17036   17036       0   17038   17039
   17039       0   17041   17042   17042       0   17044   17045   17045       0
   17047   17048   17048       0   17050   17051   17051       0   17053   17054
   17054       0   17056   17057   17057       0   17059   17060   17060       0
   17062   17063   17063       0   17065   17066   17066       0   17068   17069
   17069       0   17071   17072   17072       0   17074   17075   17075       0
   17077   17078   17078       0   17080   17081   17081       0   17083   17084
   17084       0   17086   17087   17087       0   17089   17090   17090       0
   17092   17093   17093       0   17095   17096   17096       0   17098   17099
   17099       0   17101   17102   17102       0   17104   17105   17105       0
   17107   17108   17108       0   17110   17111   17111       0   17113   17114
   17114       0   17116   17117   17117       0   17119   17120   17120       0
   17122   17123   17123       0   17125   17126   17126       0   17128   17129
   17129       0   17131   17132   17132       0   17134   17135   17135       0
   17137   17138   17138       0   17140   17141   17141       0   17143   17144
   17144       0   17146   17147   17147       0   17149   17150   17150       0
   17152   17153   17153       0   17155   17156   17156       0   17158   17159
   17159       0   17161   17162   17162       0   17164   17165   17165       0
   17167   17168   17168       0   17170   17171   17171       0   17173   17174
   17174       0   17176   17177   17177       0   17179   17180   17180       0
   17182   17183   17183       0   17185   17186   17186       0   17188   17189
   17189       0   17191   17192   17192       0   17194   17195   17195       0
   17197   17198   17198       0   17200   17201   17201       0   17203   17204
   17204       0   17206   17207   17207       0   17209   17210   17210       0
   17212   17213   17213       0   17215   17216   17216       0   17218   17219
   17219       0   17221   17222   17222       0   17224   17225   17225       0
   17227   17228   17228       0   17230   17231   17231       0   17233   17234
   17234       0   17236   17237   17237       0   17239   17240   17240       0
   17242   17243   17243       0   17245   17246   17246       0   17248   17249
   17249       0   17251   17252   17252       0   17254   17255   17255       0
   17257   17258   17258       0   17260   17261   17261       0   17263   17264
   17264       0   17266   17267   17267       0   17269   17270   17270       0
   17272   17273   17273       0   17275   17276   17276       0   17278   17279
   17279       0   17281   17282   17282       0   17284   17285   17285       0
   17287   17288   17288       0   17290   17291   17291       0   17293   17294
   17294       0   17296   17297   17297       0   17299   17300   17300       0
   17302   17303   17303       0   17305   17306   17306       0   17308   17309
   17309       0   17311   17312   17312       0   17314   17315   17315       0
   17317   17318   17318       0   17320   17321   17321       0   17323   17324
   17324       0   17326   17327   17327       0   17329   17330   17330       0
   17332   17333   17333       0   17335   17336   17336       0   17338   17339
   17339       0   17341   17342   17342       0   17344   17345   17345       0
   17347   17348   17348       0   17350   17351   17351       0   17353   17354
   17354       0   17356   17357   17357       0   17359   17360   17360       0
   17362   17363   17363       0   17365   17366   17366       0   17368   17369
   17369       0   17371   17372   17372       0   17374   17375   17375       0
   17377   17378   17378       0   17380   17381   17381       0   17383   17384
   17384       0   17386   17387   17387       0   17389   17390   17390       0
   17392   17393   17393       0   17395   17396   17396       0   17398   17399
   17399       0   17401   17402   17402       0   17404   17405   17405       0
   17407   17408   17408       0   17410   17411   17411       0   17413   17414
   17414       0   17416   17417   17417       0   17419   17420   17420       0
   17422   17423   17423       0   17425   17426   17426       0   17428   17429
   17429       0   17431   17432   17432       0   17434   17435   17435       0
   17437   17438   17438       0   17440   17441   17441       0   17443   17444
   17444       0   17446   17447   17447       0   17449   17450   17450       0
   17452   17453   17453       0   17455   17456   17456       0   17458   17459
   17459       0   17461   17462   17462       0   17464   17465   17465       0
   17467   17468   17468       0   17470   17471   17471       0   17473   17474
   17474       0   17476   17477   17477       0   17479   17480   17480       0
   17482   17483   17483       0   17485   17486   17486       0   17488   17489
   17489       0   17491   17492   17492       0   17494   17495   17495       0
   17497   17498   17498       0   17500   17501   17501       0   17503   17504
   17504       0   17506   17507   17507       0   17509   17510   17510       0
   17512   17513   17513       0   17515   17516   17516       0   17518   17519
   17519       0   17521   17522   17522       0   17524   17525   17525       0
   17527   17528   17528       0   17530   17531   17531       0   17533   17534
   17534       0   17536   17537   17537       0   17539   17540   17540       0
   17542   17543   17543       0   17545   17546   17546       0   17548   17549
   17549       0   17551   17552   17552       0   17554   17555   17555       0
   17557   17558   17558       0   17560   17561   17561       0   17563   17564
   17564       0   17566   17567   17567       0   17569   17570   17570       0
   17572   17573   17573       0   17575   17576   17576       0   17578   17579
   17579       0   17581   17582   17582       0   17584   17585   17585       0
   17587   17588   17588       0   17590   17591   17591       0   17593   17594
   17594       0   17596   17597   17597       0   17599   17600   17600       0
   17602   17603   17603       0   17605   17606   17606       0   17608   17609
   17609       0   17611   17612   17612       0   17614   17615   17615       0
   17617   17618   17618       0   17620   17621   17621       0   17623   17624
   17624       0   17626   17627   17627       0   17629   17630   17630       0
   17632   17633   17633       0   17635   17636   17636       0   17638   17639
   17639       0   17641   17642   17642       0   17644   17645   17645       0
   17647   17648   17648       0   17650   17651   17651       0   17653   17654
   17654       0   17656   17657   17657       0   17659   17660   17660       0
   17662   17663   17663       0   17665   17666   17666       0   17668   17669
   17669       0   17671   17672   17672       0   17674   17675   17675       0
   17677   17678   17678       0   17680   17681   17681       0   17683   17684
   17684       0   17686   17687   17687       0   17689   17690   17690       0
   17692   17693   17693       0   17695   17696   17696       0   17698   17699
   17699       0   17701   17702   17702       0   17704   17705   17705       0
   17707   17708   17708       0   17710   17711   17711       0   17713   17714
   17714       0   17716   17717   17717       0   17719   17720   17720       0
   17722   17723   17723       0   17725   17726   17726       0   17728   17729
   17729       0   17731   17732   17732       0   17734   17735   17735       0
   17737   17738   17738       0   17740   17741   17741       0   17743   17744
   17744       0   17746   17747   17747       0   17749   17750   17750       0
   17752   17753   17753       0   17755   17756   17756       0   17758   17759
   17759       0   17761   17762   17762       0   17764   17765   17765       0
   17767   17768   17768       0   17770   17771   17771       0   17773   17774
   17774       0   17776   17777   17777       0   17779   17780   17780       0
   17782   17783   17783       0   17785   17786   17786       0   17788   17789
   17789       0   17791   17792   17792       0   17794   17795   17795       0
   17797   17798   17798       0   17800   17801   17801       0   17803   17804
   17804       0   17806   17807   17807       0   17809   17810   17810       0
   17812   17813   17813       0   17815   17816   17816       0   17818   17819
   17819       0   17821   17822   17822       0   17824   17825   17825       0
   17827   17828   17828       0   17830   17831   17831       0   17833   17834
   17834       0   17836   17837   17837       0   17839   17840   17840       0
   17842   17843   17843       0   17845   17846   17846       0   17848   17849
   17849       0   17851   17852   17852       0   17854   17855   17855       0
   17857   17858   17858       0   17860   17861   17861       0   17863   17864
   17864       0   17866   17867   17867       0   17869   17870   17870       0
   17872   17873   17873       0   17875   17876   17876       0   17878   17879
   17879       0   17881   17882   17882       0   17884   17885   17885       0
   17887   17888   17888       0   17890   17891   17891       0   17893   17894
   17894       0   17896   17897   17897       0   17899   17900   17900       0
   17902   17903   17903       0   17905   17906   17906       0   17908   17909
   17909       0   17911   17912   17912       0   17914   17915   17915       0
   17917   17918   17918       0   17920   17921   17921       0   17923   17924
   17924       0   17926   17927   17927       0   17929   17930   17930       0
   17932   17933   17933       0   17935   17936   17936       0   17938   17939
   17939       0   17941   17942   17942       0   17944   17945   17945       0
   17947   17948   17948       0   17950   17951   17951       0   17953   17954
   17954       0   17956   17957   17957       0   17959   17960   17960       0
   17962   17963   17963       0   17965   17966   17966       0   17968   17969
   17969       0   17971   17972   17972       0   17974   17975   17975       0
   17977   17978   17978       0   17980   17981   17981       0   17983   17984
   17984       0   17986   17987   17987       0   17989   17990   17990       0
   17992   17993   17993       0   17995   17996   17996       0   17998   17999
   17999       0   18001   18002   18002       0   18004   18005   18005       0
   18007   18008   18008       0   18010   18011   18011       0   18013   18014
   18014       0   18016   18017   18017       0   18019   18020   18020       0
   18022   18023   18023       0   18025   18026   18026       0   18028   18029
   18029       0   18031   18032   18032       0   18034   18035   18035       0
   18037   18038   18038       0   18040   18041   18041       0   18043   18044
   18044       0   18046   18047   18047       0   18049   18050   18050       0
   18052   18053   18053       0   18055   18056   18056       0   18058   18059
   18059       0   18061   18062   18062       0   18064   18065   18065       0
   18067   18068   18068       0   18070   18071   18071       0   18073   18074
   18074       0   18076   18077   18077       0   18079   18080   18080       0
   18082   18083   18083       0   18085   18086   18086       0   18088   18089
   18089       0   18091   18092   18092       0   18094   18095   18095       0
   18097   18098   18098       0   18100   18101   18101       0   18103   18104
   18104       0   18106   18107   18107       0   18109   18110   18110       0
   18112   18113   18113       0   18115   18116   18116       0   18118   18119
   18119       0   18121   18122   18122       0   18124   18125   18125       0
   18127   18128   18128       0   18130   18131   18131       0   18133   18134
   18134       0   18136   18137   18137       0   18139   18140   18140       0
   18142   18143   18143       0   18145   18146   18146       0   18148   18149
   18149       0   18151   18152   18152       0   18154   18155   18155       0
   18157   18158   18158       0   18160   18161   18161       0   18163   18164
   18164       0   18166   18167   18167       0   18169   18170   18170       0
   18172   18173   18173       0   18175   18176   18176       0   18178   18179
   18179       0   18181   18182   18182       0   18184   18185   18185       0
   18187   18188   18188       0   18190   18191   18191       0   18193   18194
   18194       0   18196   18197   18197       0   18199   18200   18200       0
   18202   18203   18203       0   18205   18206   18206       0   18208   18209
   18209       0   18211   18212   18212       0   18214   18215   18215       0
   18217   18218   18218       0   18220   18221   18221       0   18223   18224
   18224       0   18226   18227   18227       0   18229   18230   18230       0
   18232   18233   18233       0   18235   18236   18236       0   18238   18239
   18239       0   18241   18242   18242       0   18244   18245   18245       0
   18247   18248   18248       0   18250   18251   18251       0   18253   18254
   18254       0   18256   18257   18257       0   18259   18260   18260       0
   18262   18263   18263       0   18265   18266   18266       0   18268   18269
   18269       0   18271   18272   18272       0   18274   18275   18275       0
   18277   18278   18278       0   18280   18281   18281       0   18283   18284
   18284       0   18286   18287   18287       0   18289   18290   18290       0
   18292   18293   18293       0   18295   18296   18296       0   18298   18299
   18299       0   18301   18302   18302       0   18304   18305   18305       0
   18307   18308   18308       0   18310   18311   18311       0   18313   18314
   18314       0   18316   18317   18317       0   18319   18320   18320       0
   18322   18323   18323       0   18325   18326   18326       0   18328   18329
   18329       0   18331   18332   18332       0   18334   18335   18335       0
   18337   18338   18338       0   18340   18341   18341       0   18343   18344
   18344       0   18346   18347   18347       0   18349   18350   18350       0
   18352   18353   18353       0   18355   18356   18356       0   18358   18359
   18359       0   18361   18362   18362       0   18364   18365   18365       0
   18367   18368   18368       0   18370   18371   18371       0   18373   18374
   18374       0   18376   18377   18377       0   18379   18380   18380       0
   18382   18383   18383       0   18385   18386   18386       0   18388   18389
   18389       0   18391   18392   18392       0   18394   18395   18395       0
   18397   18398   18398       0   18400   18401   18401       0   18403   18404
   18404       0   18406   18407   18407       0   18409   18410   18410       0
   18412   18413   18413       0   18415   18416   18416       0   18418   18419
   18419       0   18421   18422   18422       0   18424   18425   18425       0
   18427   18428   18428       0   18430   18431   18431       0   18433   18434
   18434       0   18436   18437   18437       0   18439   18440   18440       0
   18442   18443   18443       0   18445   18446   18446       0   18448   18449
   18449       0   18451   18452   18452       0   18454   18455   18455       0
   18457   18458   18458       0   18460   18461   18461       0   18463   18464
   18464       0   18466   18467   18467       0   18469   18470   18470       0
   18472   18473   18473       0   18475   18476   18476       0   18478   18479
   18479       0   18481   18482   18482       0   18484   18485   18485       0
   18487   18488   18488       0   18490   18491   18491       0   18493   18494
   18494       0   18496   18497   18497       0   18499   18500   18500       0
   18502   18503   18503       0   18505   18506   18506       0   18508   18509
   18509       0   18511   18512   18512       0   18514   18515   18515       0
   18517   18518   18518       0   18520   18521   18521       0   18523   18524
   18524       0   18526   18527   18527       0   18529   18530   18530       0
   18532   18533   18533       0   18535   18536   18536       0   18538   18539
   18539       0   18541   18542   18542       0   18544   18545   18545       0
   18547   18548   18548       0   18550   18551   18551       0   18553   18554
   18554       0   18556   18557   18557       0   18559   18560   18560       0
   18562   18563   18563       0   18565   18566   18566       0   18568   18569
   18569       0   18571   18572   18572       0   18574   18575   18575       0
   18577   18578   18578       0   18580   18581   18581       0   18583   18584
   18584       0   18586   18587   18587       0   18589   18590   18590       0
   18592   18593   18593       0   18595   18596   18596       0   18598   18599
   18599       0   18601   18602   18602       0   18604   18605   18605       0
   18607   18608   18608       0   18610   18611   18611       0   18613   18614
   18614       0   18616   18617   18617       0   18619   18620   18620       0
   18622   18623   18623       0   18625   18626   18626       0   18628   18629
   18629       0   18631   18632   18632       0   18634   18635   18635       0
   18637   18638   18638       0   18640   18641   18641       0   18643   18644
   18644       0   18646   18647   18647       0   18649   18650   18650       0
   18652   18653   18653       0   18655   18656   18656       0   18658   18659
   18659       0   18661   18662   18662       0   18664   18665   18665       0
   18667   18668   18668       0   18670   18671   18671       0   18673   18674
   18674       0   18676   18677   18677       0   18679   18680   18680       0
   18682   18683   18683       0   18685   18686   18686       0   18688   18689
   18689       0   18691   18692   18692       0   18694   18695   18695       0
   18697   18698   18698       0   18700   18701   18701       0   18703   18704
   18704       0   18706   18707   18707       0   18709   18710   18710       0
   18712   18713   18713       0   18715   18716   18716       0   18718   18719
   18719       0   18721   18722   18722       0   18724   18725   18725       0
   18727   18728   18728       0   18730   18731   18731       0   18733   18734
   18734       0   18736   18737   18737       0   18739   18740   18740       0
   18742   18743   18743       0   18745   18746   18746       0   18748   18749
   18749       0   18751   18752   18752       0   18754   18755   18755       0
   18757   18758   18758       0   18760   18761   18761       0   18763   18764
   18764       0   18766   18767   18767       0   18769   18770   18770       0
   18772   18773   18773       0   18775   18776   18776       0   18778   18779
   18779       0   18781   18782   18782       0   18784   18785   18785       0
   18787   18788   18788       0   18790   18791   18791       0   18793   18794
   18794       0   18796   18797   18797       0   18799   18800   18800       0
   18802   18803   18803       0   18805   18806   18806       0   18808   18809
   18809       0   18811   18812   18812       0   18814   18815   18815       0
   18817   18818   18818       0   18820   18821   18821       0   18823   18824
   18824       0   18826   18827   18827       0   18829   18830   18830       0
   18832   18833   18833       0   18835   18836   18836       0   18838   18839
   18839       0   18841   18842   18842       0   18844   18845   18845       0
   18847   18848   18848       0   18850   18851   18851       0   18853   18854
   18854       0   18856   18857   18857       0   18859   18860   18860       0
   18862   18863   18863       0   18865   18866   18866       0   18868   18869
   18869       0   18871   18872   18872       0   18874   18875   18875       0
   18877   18878   18878       0   18880   18881   18881       0   18883   18884
   18884       0   18886   18887   18887       0   18889   18890   18890       0
   18892   18893   18893       0   18895   18896   18896       0   18898   18899
   18899       0   18901   18902   18902       0   18904   18905   18905       0
   18907   18908   18908       0   18910   18911   18911       0   18913   18914
   18914       0   18916   18917   18917       0   18919   18920   18920       0
   18922   18923   18923       0   18925   18926   18926       0   18928   18929
   18929       0   18931   18932   18932       0   18934   18935   18935       0
   18937   18938   18938       0   18940   18941   18941       0   18943   18944
   18944       0   18946   18947   18947       0   18949   18950   18950       0
   18952   18953   18953       0   18955   18956   18956       0   18958   18959
   18959       0   18961   18962   18962       0   18964   18965   18965       0
   18967   18968   18968       0   18970   18971   18971       0   18973   18974
   18974       0   18976   18977   18977       0   18979   18980   18980       0
   18982   18983   18983       0   18985   18986   18986       0   18988   18989
   18989       0   18991   18992   18992       0   18994   18995   18995       0
   18997   18998   18998       0   19000   19001   19001       0   19003   19004
   19004       0   19006   19007   19007       0   19009   19010   19010       0
   19012   19013   19013       0   19015   19016   19016       0   19018   19019
   19019       0   19021   19022   19022       0   19024   19025   19025       0
   19027   19028   19028       0   19030   19031   19031       0   19033   19034
   19034       0   19036   19037   19037       0   19039   19040   19040       0
   19042   19043   19043       0   19045   19046   19046       0   19048   19049
   19049       0   19051   19052   19052       0   19054   19055   19055       0
   19057   19058   19058       0   19060   19061   19061       0   19063   19064
   19064       0   19066   19067   19067       0   19069   19070   19070       0
   19072   19073   19073       0   19075   19076   19076       0   19078   19079
   19079       0   19081   19082   19082       0   19084   19085   19085       0
   19087   19088   19088       0   19090   19091   19091       0   19093   19094
   19094       0   19096   19097   19097       0   19099   19100   19100       0
   19102   19103   19103       0   19105   19106   19106       0   19108   19109
   19109       0   19111   19112   19112       0   19114   19115   19115       0
   19117   19118   19118       0   19120   19121   19121       0   19123   19124
   19124       0   19126   19127   19127       0   19129   19130   19130       0
   19132   19133   19133       0   19135   19136   19136       0   19138   19139
   19139       0   19141   19142   19142       0   19144   19145   19145       0
   19147   19148   19148       0   19150   19151   19151       0   19153   19154
   19154       0   19156   19157   19157       0   19159   19160   19160       0
   19162   19163   19163       0   19165   19166   19166       0   19168   19169
   19169       0   19171   19172   19172       0   19174   19175   19175       0
   19177   19178   19178       0   19180   19181   19181       0   19183   19184
   19184       0   19186   19187   19187       0   19189   19190   19190       0
   19192   19193   19193       0   19195   19196   19196       0   19198   19199
   19199       0   19201   19202   19202       0   19204   19205   19205       0
   19207   19208   19208       0   19210   19211   19211       0   19213   19214
   19214       0   19216   19217   19217       0   19219   19220   19220       0
   19222   19223   19223       0   19225   19226   19226       0   19228   19229
   19229       0   19231   19232   19232       0   19234   19235   19235       0
   19237   19238   19238       0   19240   19241   19241       0   19243   19244
   19244       0   19246   19247   19247       0   19249   19250   19250       0
   19252   19253   19253       0   19255   19256   19256       0   19258   19259
   19259       0   19261   19262   19262       0   19264   19265   19265       0
   19267   19268   19268       0   19270   19271   19271       0   19273   19274
   19274       0   19276   19277   19277       0   19279   19280   19280       0
   19282   19283   19283       0   19285   19286   19286       0   19288   19289
   19289       0   19291   19292   19292       0   19294   19295   19295       0
   19297   19298   19298       0   19300   19301   19301       0   19303   19304
   19304       0   19306   19307   19307       0   19309   19310   19310       0
   19312   19313   19313       0   19315   19316   19316       0   19318   19319
   19319       0   19321   19322   19322       0   19324   19325   19325       0
   19327   19328   19328       0   19330   19331   19331       0   19333   19334
   19334       0   19336   19337   19337       0   19339   19340   19340       0
   19342   19343   19343       0   19345   19346   19346       0   19348   19349
   19349       0   19351   19352   19352       0   19354   19355   19355       0
   19357   19358   19358       0   19360   19361   19361       0   19363   19364
   19364       0   19366   19367   19367       0   19369   19370   19370       0
   19372   19373   19373       0   19375   19376   19376       0   19378   19379
   19379       0   19381   19382   19382       0   19384   19385   19385       0
   19387   19388   19388       0   19390   19391   19391       0   19393   19394
   19394       0   19396   19397   19397       0   19399   19400   19400       0
   19402   19403   19403       0   19405   19406   19406       0   19408   19409
   19409       0   19411   19412   19412       0   19414   19415   19415       0
   19417   19418   19418       0   19420   19421   19421       0   19423   19424
   19424       0   19426   19427   19427       0   19429   19430   19430       0
   19432   19433   19433       0   19435   19436   19436       0   19438   19439
   19439       0   19441   19442   19442       0   19444   19445   19445       0
   19447   19448   19448       0   19450   19451   19451       0   19453   19454
   19454       0   19456   19457   19457       0   19459   19460   19460       0
   19462   19463   19463       0   19465   19466   19466       0   19468   19469
   19469       0   19471   19472   19472       0   19474   19475   19475       0
   19477   19478   19478       0   19480   19481   19481       0   19483   19484
   19484       0   19486   19487   19487       0   19489   19490   19490       0
   19492   19493   19493       0   19495   19496   19496       0   19498   19499
   19499       0   19501   19502   19502       0   19504   19505   19505       0
   19507   19508   19508       0   19510   19511   19511       0   19513   19514
   19514       0   19516   19517   19517       0   19519   19520   19520       0
   19522   19523   19523       0   19525   19526   19526       0   19528   19529
   19529       0   19531   19532   19532       0   19534   19535   19535       0
   19537   19538   19538       0   19540   19541   19541       0   19543   19544
   19544       0   19546   19547   19547       0   19549   19550   19550       0
   19552   19553   19553       0   19555   19556   19556       0   19558   19559
   19559       0   19561   19562   19562       0   19564   19565   19565       0
   19567   19568   19568       0   19570   19571   19571       0   19573   19574
   19574       0   19576   19577   19577       0   19579   19580   19580       0
   19582   19583   19583       0   19585   19586   19586       0   19588   19589
   19589       0   19591   19592   19592       0   19594   19595   19595       0
   19597   19598   19598       0   19600   19601   19601       0   19603   19604
   19604       0   19606   19607   19607       0   19609   19610   19610       0
   19612   19613   19613       0   19615   19616   19616       0   19618   19619
   19619       0   19621   19622   19622       0   19624   19625   19625       0
   19627   19628   19628       0   19630   19631   19631       0   19633   19634
   19634       0   19636   19637   19637       0   19639   19640   19640       0
   19642   19643   19643       0   19645   19646   19646       0   19648   19649
   19649       0   19651   19652   19652       0   19654   19655   19655       0
   19657   19658   19658       0   19660   19661   19661       0   19663   19664
   19664       0   19666   19667   19667       0   19669   19670   19670       0
   19672   19673   19673       0   19675   19676   19676       0   19678   19679
   19679       0   19681   19682   19682       0   19684   19685   19685       0
   19687   19688   19688       0   19690   19691   19691       0   19693   19694
   19694       0   19696   19697   19697       0   19699   19700   19700       0
   19702   19703   19703       0   19705   19706   19706       0   19708   19709
   19709       0   19711   19712   19712       0   19714   19715   19715       0
   19717   19718   19718       0   19720   19721   19721       0   19723   19724
   19724       0   19726   19727   19727       0   19729   19730   19730       0
   19732   19733   19733       0   19735   19736   19736       0   19738   19739
   19739       0   19741   19742   19742       0   19744   19745   19745       0
   19747   19748   19748       0   19750   19751   19751       0   19753   19754
   19754       0   19756   19757   19757       0   19759   19760   19760       0
   19762   19763   19763       0   19765   19766   19766       0   19768   19769
   19769       0   19771   19772   19772       0   19774   19775   19775       0
   19777   19778   19778       0   19780   19781   19781       0   19783   19784
   19784       0   19786   19787   19787       0   19789   19790   19790       0
   19792   19793   19793       0   19795   19796   19796       0   19798   19799
   19799       0   19801   19802   19802       0   19804   19805   19805       0
   19807   19808   19808       0   19810   19811   19811       0   19813   19814
   19814       0   19816   19817   19817       0   19819   19820   19820       0
   19822   19823   19823       0   19825   19826   19826       0   19828   19829
   19829       0   19831   19832   19832       0   19834   19835   19835       0
   19837   19838   19838       0   19840   19841   19841       0   19843   19844
   19844       0   19846   19847   19847       0   19849   19850   19850       0
   19852   19853   19853       0   19855   19856   19856       0   19858   19859
   19859       0   19861   19862   19862       0   19864   19865   19865       0
   19867   19868   19868       0   19870   19871   19871       0   19873   19874
   19874       0   19876   19877   19877       0   19879   19880   19880       0
   19882   19883   19883       0   19885   19886   19886       0   19888   19889
   19889       0   19891   19892   19892       0   19894   19895   19895       0
   19897   19898   19898       0   19900   19901   19901       0   19903   19904
   19904       0   19906   19907   19907       0   19909   19910   19910       0
   19912   19913   19913       0   19915   19916   19916       0   19918   19919
   19919       0   19921   19922   19922       0   19924   19925   19925       0
   19927   19928   19928       0   19930   19931   19931       0   19933   19934
   19934       0   19936   19937   19937       0   19939   19940   19940       0
   19942   19943   19943       0   19945   19946   19946       0   19948   19949
   19949       0   19951   19952   19952       0   19954   19955   19955       0
   19957   19958   19958       0   19960   19961   19961       0   19963   19964
   19964       0   19966   19967   19967       0   19969   19970   19970       0
   19972   19973   19973       0   19975   19976   19976       0   19978   19979
   19979       0   19981   19982   19982       0   19984   19985   19985       0
   19987   19988   19988       0   19990   19991   19991       0   19993   19994
   19994       0   19996   19997   19997       0   19999   20000   20000       0
   20002   20003   20003       0   20005   20006   20006       0   20008   20009
   20009       0   20011   20012   20012       0   20014   20015   20015       0
   20017   20018   20018       0   20020   20021   20021       0   20023   20024
   20024       0   20026   20027   20027       0   20029   20030   20030       0
   20032   20033   20033       0   20035   20036   20036       0   20038   20039
   20039       0   20041   20042   20042       0   20044   20045   20045       0
   20047   20048   20048       0   20050   20051   20051       0   20053   20054
   20054       0   20056   20057   20057       0   20059   20060   20060       0
   20062   20063   20063       0   20065   20066   20066       0   20068   20069
   20069       0   20071   20072   20072       0   20074   20075   20075       0
   20077   20078   20078       0   20080   20081   20081       0   20083   20084
   20084       0   20086   20087   20087       0   20089   20090   20090       0
   20092   20093   20093       0   20095   20096   20096       0   20098   20099
   20099       0   20101   20102   20102       0   20104   20105   20105       0
   20107   20108   20108       0   20110   20111   20111       0   20113   20114
   20114       0   20116   20117   20117       0   20119   20120   20120       0
   20122   20123   20123       0   20125   20126   20126       0   20128   20129
   20129       0   20131   20132   20132       0   20134   20135   20135       0
   20137   20138   20138       0   20140   20141   20141       0   20143   20144
   20144       0   20146   20147   20147       0   20149   20150   20150       0
   20152   20153   20153       0   20155   20156   20156       0   20158   20159
   20159       0   20161   20162   20162       0   20164   20165   20165       0
   20167   20168   20168       0   20170   20171   20171       0   20173   20174
   20174       0   20176   20177   20177       0   20179   20180   20180       0
   20182   20183   20183       0   20185   20186   20186       0   20188   20189
   20189       0   20191   20192   20192       0   20194   20195   20195       0
   20197   20198   20198       0   20200   20201   20201       0   20203   20204
   20204       0   20206   20207   20207       0   20209   20210   20210       0
   20212   20213   20213       0   20215   20216   20216       0   20218   20219
   20219       0   20221   20222   20222       0   20224   20225   20225       0
   20227   20228   20228       0   20230   20231   20231       0   20233   20234
   20234       0   20236   20237   20237       0   20239   20240   20240       0
   20242   20243   20243       0   20245   20246   20246       0   20248   20249
   20249       0   20251   20252   20252       0   20254   20255   20255       0
   20257   20258   20258       0   20260   20261   20261       0   20263   20264
   20264       0   20266   20267   20267       0   20269   20270   20270       0
   20272   20273   20273       0   20275   20276   20276       0   20278   20279
   20279       0   20281   20282   20282       0   20284   20285   20285       0
   20287   20288   20288       0   20290   20291   20291       0   20293   20294
   20294       0   20296   20297   20297       0   20299   20300   20300       0
   20302   20303   20303       0   20305   20306   20306       0   20308   20309
   20309       0   20311   20312   20312       0   20314   20315   20315       0
   20317   20318   20318       0   20320   20321   20321       0   20323   20324
   20324       0   20326   20327   20327       0   20329   20330   20330       0
   20332   20333   20333       0   20335   20336   20336       0   20338   20339
   20339       0   20341   20342   20342       0   20344   20345   20345       0
   20347   20348   20348       0   20350   20351   20351       0   20353   20354
   20354       0   20356   20357   20357       0   20359   20360   20360       0
   20362   20363   20363       0   20365   20366   20366       0   20368   20369
   20369       0   20371   20372   20372       0   20374   20375   20375       0
   20377   20378   20378       0   20380   20381   20381       0   20383   20384
   20384       0   20386   20387   20387       0   20389   20390   20390       0
   20392   20393   20393       0   20395   20396   20396       0   20398   20399
   20399       0   20401   20402   20402       0   20404   20405   20405       0
   20407   20408   20408       0   20410   20411   20411       0   20413   20414
   20414       0   20416   20417   20417       0   20419   20420   20420       0
   20422   20423   20423       0   20425   20426   20426       0   20428   20429
   20429       0   20431   20432   20432       0   20434   20435   20435       0
   20437   20438   20438       0   20440   20441   20441       0   20443   20444
   20444       0   20446   20447   20447       0   20449   20450   20450       0
   20452   20453   20453       0   20455   20456   20456       0   20458   20459
   20459       0   20461   20462   20462       0   20464   20465   20465       0
   20467   20468   20468       0   20470   20471   20471       0   20473   20474
   20474       0   20476   20477   20477       0   20479   20480   20480       0
   20482   20483   20483       0   20485   20486   20486       0   20488   20489
   20489       0   20491   20492   20492       0   20494   20495   20495       0
   20497   20498   20498       0   20500   20501   20501       0   20503   20504
   20504       0   20506   20507   20507       0   20509   20510   20510       0
   20512   20513   20513       0   20515   20516   20516       0   20518   20519
   20519       0   20521   20522   20522       0   20524   20525   20525       0
   20527   20528   20528       0   20530   20531   20531       0   20533   20534
   20534       0   20536   20537   20537       0   20539   20540   20540       0
   20542   20543   20543       0   20545   20546   20546       0   20548   20549
   20549       0   20551   20552   20552       0   20554   20555   20555       0
   20557   20558   20558       0   20560   20561   20561       0   20563   20564
   20564       0   20566   20567   20567       0   20569   20570   20570       0
   20572   20573   20573       0   20575   20576   20576       0   20578   20579
   20579       0   20581   20582   20582       0   20584   20585   20585       0
   20587   20588   20588       0   20590   20591   20591       0   20593   20594
   20594       0   20596   20597   20597       0   20599   20600   20600       0
   20602   20603   20603       0   20605   20606   20606       0   20608   20609
   20609       0   20611   20612   20612       0   20614   20615   20615       0
   20617   20618   20618       0   20620   20621   20621       0   20623   20624
   20624       0   20626   20627   20627       0   20629   20630   20630       0
   20632   20633   20633       0   20635   20636   20636       0   20638   20639
   20639       0   20641   20642   20642       0   20644   20645   20645       0
   20647   20648   20648       0   20650   20651   20651       0   20653   20654
   20654       0   20656   20657   20657       0   20659   20660   20660       0
   20662   20663   20663       0   20665   20666   20666       0   20668   20669
   20669       0   20671   20672   20672       0   20674   20675   20675       0
   20677   20678   20678       0   20680   20681   20681       0   20683   20684
   20684       0   20686   20687   20687       0   20689   20690   20690       0
   20692   20693   20693       0   20695   20696   20696       0   20698   20699
   20699       0   20701   20702   20702       0   20704   20705   20705       0
   20707   20708   20708       0   20710   20711   20711       0   20713   20714
   20714       0   20716   20717   20717       0   20719   20720   20720       0
   20722   20723   20723       0   20725   20726   20726       0   20728   20729
   20729       0   20731   20732   20732       0   20734   20735   20735       0
   20737   20738   20738       0   20740   20741   20741       0   20743   20744
   20744       0   20746   20747   20747       0   20749   20750   20750       0
   20752   20753   20753       0   20755   20756   20756       0   20758   20759
   20759       0   20761   20762   20762       0   20764   20765   20765       0
   20767   20768   20768       0   20770   20771   20771       0   20773   20774
   20774       0   20776   20777   20777       0   20779   20780   20780       0
   20782   20783   20783       0   20785   20786   20786       0   20788   20789
   20789       0   20791   20792   20792       0   20794   20795   20795       0
   20797   20798   20798       0   20800   20801   20801       0   20803   20804
   20804       0   20806   20807   20807       0   20809   20810   20810       0
   20812   20813   20813       0   20815   20816   20816       0   20818   20819
   20819       0   20821   20822   20822       0   20824   20825   20825       0
   20827   20828   20828       0   20830   20831   20831       0   20833   20834
   20834       0   20836   20837   20837       0   20839   20840   20840       0
   20842   20843   20843       0   20845   20846   20846       0   20848   20849
   20849       0   20851   20852   20852       0   20854   20855   20855       0
   20857   20858   20858       0   20860   20861   20861       0   20863   20864
   20864       0   20866   20867   20867       0   20869   20870   20870       0
   20872   20873   20873       0   20875   20876   20876       0   20878   20879
   20879       0   20881   20882   20882       0   20884   20885   20885       0
   20887   20888   20888       0   20890   20891   20891       0   20893   20894
   20894       0   20896   20897   20897       0   20899   20900   20900       0
   20902   20903   20903       0   20905   20906   20906       0   20908   20909
   20909       0   20911   20912   20912       0   20914   20915   20915       0
   20917   20918   20918       0   20920   20921   20921       0   20923   20924
   20924       0   20926   20927   20927       0   20929   20930   20930       0
   20932   20933   20933       0   20935   20936   20936       0   20938   20939
   20939       0   20941   20942   20942       0   20944   20945   20945       0
   20947   20948   20948       0   20950   20951   20951       0   20953   20954
   20954       0   20956   20957   20957       0   20959   20960   20960       0
   20962   20963   20963       0   20965   20966   20966       0   20968   20969
   20969       0   20971   20972   20972       0   20974   20975   20975       0
   20977   20978   20978       0   20980   20981   20981       0   20983   20984
   20984       0   20986   20987   20987       0   20989   20990   20990       0
   20992   20993   20993       0   20995   20996   20996       0   20998   20999
   20999       0   21001   21002   21002       0   21004   21005   21005       0
   21007   21008   21008       0   21010   21011   21011       0   21013   21014
   21014       0   21016   21017   21017       0   21019   21020   21020       0
   21022   21023   21023       0   21025   21026   21026       0   21028   21029
   21029       0   21031   21032   21032       0   21034   21035   21035       0
   21037   21038   21038       0   21040   21041   21041       0   21043   21044
   21044       0   21046   21047   21047       0   21049   21050   21050       0
   21052   21053   21053       0   21055   21056   21056       0   21058   21059
   21059       0   21061   21062   21062       0   21064   21065   21065       0
   21067   21068   21068       0   21070   21071   21071       0   21073   21074
   21074       0   21076   21077   21077       0   21079   21080   21080       0
   21082   21083   21083       0   21085   21086   21086       0   21088   21089
   21089       0   21091   21092   21092       0   21094   21095   21095       0
   21097   21098   21098       0   21100   21101   21101       0   21103   21104
   21104       0   21106   21107   21107       0   21109   21110   21110       0
   21112   21113   21113       0   21115   21116   21116       0   21118   21119
   21119       0   21121   21122   21122       0   21124   21125   21125       0
   21127   21128   21128       0   21130   21131   21131       0   21133   21134
   21134       0   21136   21137   21137       0   21139   21140   21140       0
   21142   21143   21143       0   21145   21146   21146       0   21148   21149
   21149       0   21151   21152   21152       0   21154   21155   21155       0
   21157   21158   21158       0   21160   21161   21161       0   21163   21164
   21164       0   21166   21167   21167       0   21169   21170   21170       0
   21172   21173   21173       0   21175   21176   21176       0   21178   21179
   21179       0   21181   21182   21182       0   21184   21185   21185       0
   21187   21188   21188       0   21190   21191   21191       0   21193   21194
   21194       0   21196   21197   21197       0   21199   21200   21200       0
   21202   21203   21203       0   21205   21206   21206       0   21208   21209
   21209       0   21211   21212   21212       0   21214   21215   21215       0
   21217   21218   21218       0   21220   21221   21221       0   21223   21224
   21224       0   21226   21227   21227       0   21229   21230   21230       0
   21232   21233   21233       0   21235   21236   21236       0   21238   21239
   21239       0   21241   21242   21242       0   21244   21245   21245       0
   21247   21248   21248       0   21250   21251   21251       0   21253   21254
   21254       0   21256   21257   21257       0   21259   21260   21260       0
   21262   21263   21263       0   21265   21266   21266       0   21268   21269
   21269       0   21271   21272   21272       0   21274   21275   21275       0
   21277   21278   21278       0   21280   21281   21281       0   21283   21284
   21284       0   21286   21287   21287       0   21289   21290   21290       0
   21292   21293   21293       0   21295   21296   21296       0   21298   21299
   21299       0   21301   21302   21302       0   21304   21305   21305       0
   21307   21308   21308       0   21310   21311   21311       0   21313   21314
   21314       0   21316   21317   21317       0   21319   21320   21320       0
   21322   21323   21323       0   21325   21326   21326       0   21328   21329
   21329       0   21331   21332   21332       0   21334   21335   21335       0
   21337   21338   21338       0   21340   21341   21341       0   21343   21344
   21344       0   21346   21347   21347       0   21349   21350   21350       0
   21352   21353   21353       0   21355   21356   21356       0   21358   21359
   21359       0   21361   21362   21362       0   21364   21365   21365       0
   21367   21368   21368       0   21370   21371   21371       0   21373   21374
   21374       0   21376   21377   21377       0   21379   21380   21380       0
   21382   21383   21383       0   21385   21386   21386       0   21388   21389
   21389       0   21391   21392   21392       0   21394   21395   21395       0
   21397   21398   21398       0   21400   21401   21401       0   21403   21404
   21404       0   21406   21407   21407       0   21409   21410   21410       0
   21412   21413   21413       0   21415   21416   21416       0   21418   21419
   21419       0   21421   21422   21422       0   21424   21425   21425       0
   21427   21428   21428       0   21430   21431   21431       0   21433   21434
   21434       0   21436   21437   21437       0   21439   21440   21440       0
   21442   21443   21443       0   21445   21446   21446       0   21448   21449
   21449       0   21451   21452   21452       0   21454   21455   21455       0
   21457   21458   21458       0   21460   21461   21461       0   21463   21464
   21464       0   21466   21467   21467       0   21469   21470   21470       0
   21472   21473   21473       0   21475   21476   21476       0   21478   21479
   21479       0   21481   21482   21482       0   21484   21485   21485       0
   21487   21488   21488       0   21490   21491   21491       0   21493   21494
   21494       0   21496   21497   21497       0   21499   21500   21500       0
   21502   21503   21503       0   21505   21506   21506       0   21508   21509
   21509       0   21511   21512   21512       0   21514   21515   21515       0
   21517   21518   21518       0   21520   21521   21521       0   21523   21524
   21524       0   21526   21527   21527       0   21529   21530   21530       0
   21532   21533   21533       0   21535   21536   21536       0   21538   21539
   21539       0   21541   21542   21542       0   21544   21545   21545       0
   21547   21548   21548       0   21550   21551   21551       0   21553   21554
   21554       0   21556   21557   21557       0   21559   21560   21560       0
   21562   21563   21563       0   21565   21566   21566       0   21568   21569
   21569       0   21571   21572   21572       0   21574   21575   21575       0
   21577   21578   21578       0   21580   21581   21581       0   21583   21584
   21584       0   21586   21587   21587       0   21589   21590   21590       0
   21592   21593   21593       0   21595   21596   21596       0   21598   21599
   21599       0   21601   21602   21602       0   21604   21605   21605       0
   21607   21608   21608       0   21610   21611   21611       0   21613   21614
   21614       0   21616   21617   21617       0   21619   21620   21620       0
   21622   21623   21623       0   21625   21626   21626       0   21628   21629
   21629       0   21631   21632   21632       0   21634   21635   21635       0
   21637   21638   21638       0   21640   21641   21641       0   21643   21644
   21644       0   21646   21647   21647       0   21649   21650   21650       0
   21652   21653   21653       0   21655   21656   21656       0   21658   21659
   21659       0   21661   21662   21662       0   21664   21665   21665       0
   21667   21668   21668       0   21670   21671   21671       0   21673   21674
   21674       0   21676   21677   21677       0   21679   21680   21680       0
   21682   21683   21683       0   21685   21686   21686       0   21688   21689
   21689       0   21691   21692   21692       0   21694   21695   21695       0
   21697   21698   21698       0   21700   21701   21701       0   21703   21704
   21704       0   21706   21707   21707       0   21709   21710   21710       0
   21712   21713   21713       0   21715   21716   21716       0   21718   21719
   21719       0   21721   21722   21722       0   21724   21725   21725       0
   21727   21728   21728       0   21730   21731   21731       0   21733   21734
   21734       0   21736   21737   21737       0   21739   21740   21740       0
   21742   21743   21743       0   21745   21746   21746       0   21748   21749
   21749       0   21751   21752   21752       0   21754   21755   21755       0
   21757   21758   21758       0   21760   21761   21761       0   21763   21764
   21764       0   21766   21767   21767       0   21769   21770   21770       0
   21772   21773   21773       0   21775   21776   21776       0   21778   21779
   21779       0   21781   21782   21782       0   21784   21785   21785       0
   21787   21788   21788       0   21790   21791   21791       0   21793   21794
   21794       0   21796   21797   21797       0   21799   21800   21800       0
   21802   21803   21803       0   21805   21806   21806       0   21808   21809
   21809       0   21811   21812   21812       0   21814   21815   21815       0
   21817   21818   21818       0   21820   21821   21821       0   21823   21824
   21824       0   21826   21827   21827       0   21829   21830   21830       0
   21832   21833   21833       0   21835   21836   21836       0   21838   21839
   21839       0   21841   21842   21842       0   21844   21845   21845       0
   21847   21848   21848       0   21850   21851   21851       0   21853   21854
   21854       0   21856   21857   21857       0   21859   21860   21860       0
   21862   21863   21863       0   21865   21866   21866       0   21868   21869
   21869       0   21871   21872   21872       0   21874   21875   21875       0
   21877   21878   21878       0   21880   21881   21881       0   21883   21884
   21884       0   21886   21887   21887       0   21889   21890   21890       0
   21892   21893   21893       0   21895   21896   21896       0   21898   21899
   21899       0   21901   21902   21902       0   21904   21905   21905       0
   21907   21908   21908       0   21910   21911   21911       0   21913   21914
   21914       0   21916   21917   21917       0   21919   21920   21920       0
   21922   21923   21923       0   21925   21926   21926       0   21928   21929
   21929       0   21931   21932   21932       0   21934   21935   21935       0
   21937   21938   21938       0   21940   21941   21941       0   21943   21944
   21944       0   21946   21947   21947       0   21949   21950   21950       0
   21952   21953   21953       0   21955   21956   21956       0   21958   21959
   21959       0   21961   21962   21962       0   21964   21965   21965       0
   21967   21968   21968       0   21970   21971   21971       0   21973   21974
   21974       0   21976   21977   21977       0   21979   21980   21980       0
   21982   21983   21983       0   21985   21986   21986       0   21988   21989
   21989       0   21991   21992   21992       0   21994   21995   21995       0
   21997   21998   21998       0   22000   22001   22001       0   22003   22004
   22004       0   22006   22007   22007       0   22009   22010   22010       0
   22012   22013   22013       0   22015   22016   22016       0   22018   22019
   22019       0   22021   22022   22022       0   22024   22025   22025       0
   22027   22028   22028       0   22030   22031   22031       0   22033   22034
   22034       0   22036   22037   22037       0   22039   22040   22040       0
   22042   22043   22043       0   22045   22046   22046       0   22048   22049
   22049       0   22051   22052   22052       0   22054   22055   22055       0
   22057   22058   22058       0   22060   22061   22061       0   22063   22064
   22064       0   22066   22067   22067       0   22069   22070   22070       0
   22072   22073   22073       0   22075   22076   22076       0   22078   22079
   22079       0   22081   22082   22082       0   22084   22085   22085       0
   22087   22088   22088       0   22090   22091   22091       0   22093   22094
   22094       0   22096   22097   22097       0   22099   22100   22100       0
   22102   22103   22103       0   22105   22106   22106       0   22108   22109
   22109       0   22111   22112   22112       0   22114   22115   22115       0
   22117   22118   22118       0   22120   22121   22121       0   22123   22124
   22124       0   22126   22127   22127       0   22129   22130   22130       0
   22132   22133   22133       0   22135   22136   22136       0   22138   22139
   22139       0   22141   22142   22142       0   22144   22145   22145       0
   22147   22148   22148       0   22150   22151   22151       0   22153   22154
   22154       0   22156   22157   22157       0   22159   22160   22160       0
   22162   22163   22163       0   22165   22166   22166       0   22168   22169
   22169       0   22171   22172   22172       0   22174   22175   22175       0
   22177   22178   22178       0   22180   22181   22181       0   22183   22184
   22184       0   22186   22187   22187       0   22189   22190   22190       0
   22192   22193   22193       0   22195   22196   22196       0   22198   22199
   22199       0   22201   22202   22202       0   22204   22205   22205       0
   22207   22208   22208       0   22210   22211   22211       0   22213   22214
   22214       0   22216   22217   22217       0   22219   22220   22220       0
   22222   22223   22223       0   22225   22226   22226       0   22228   22229
   22229       0   22231   22232   22232       0   22234   22235   22235       0
   22237   22238   22238       0   22240   22241   22241       0   22243   22244
   22244       0   22246   22247   22247       0   22249   22250   22250       0
   22252   22253   22253       0   22255   22256   22256       0   22258   22259
   22259       0   22261   22262   22262       0   22264   22265   22265       0
   22267   22268   22268       0   22270   22271   22271       0   22273   22274
   22274       0   22276   22277   22277       0   22279   22280   22280       0
   22282   22283   22283       0   22285   22286   22286       0   22288   22289
   22289       0   22291   22292   22292       0   22294   22295   22295       0
   22297   22298   22298       0   22300   22301   22301       0   22303   22304
   22304       0   22306   22307   22307       0   22309   22310   22310       0
   22312   22313   22313       0   22315   22316   22316       0   22318   22319
   22319       0   22321   22322   22322       0   22324   22325   22325       0
   22327   22328   22328       0   22330   22331   22331       0   22333   22334
   22334       0   22336   22337   22337       0   22339   22340   22340       0
   22342   22343   22343       0   22345   22346   22346       0   22348   22349
   22349       0   22351   22352   22352       0   22354   22355   22355       0
   22357   22358   22358       0   22360   22361   22361       0   22363   22364
   22364       0   22366   22367   22367       0   22369   22370   22370       0
   22372   22373   22373       0   22375   22376   22376       0   22378   22379
   22379       0   22381   22382   22382       0   22384   22385   22385       0
   22387   22388   22388       0   22390   22391   22391       0   22393   22394
   22394       0   22396   22397   22397       0   22399   22400   22400       0
   22402   22403   22403       0   22405   22406   22406       0   22408   22409
   22409       0   22411   22412   22412       0   22414   22415   22415       0
   22417   22418   22418       0   22420   22421   22421       0   22423   22424
   22424       0   22426   22427   22427       0   22429   22430   22430       0
   22432   22433   22433       0   22435   22436   22436       0   22438   22439
   22439       0   22441   22442   22442       0   22444   22445   22445       0
   22447   22448   22448       0   22450   22451   22451       0   22453   22454
   22454       0   22456   22457   22457       0   22459   22460   22460       0
   22462   22463   22463       0   22465   22466   22466       0   22468   22469
   22469       0   22471   22472   22472       0   22474   22475   22475       0
   22477   22478   22478       0   22480   22481   22481       0   22483   22484
   22484       0   22486   22487   22487       0   22489   22490   22490       0
   22492   22493   22493       0   22495   22496   22496       0   22498   22499
   22499       0   22501   22502   22502       0   22504   22505   22505       0
   22507   22508   22508       0   22510   22511   22511       0   22513   22514
   22514       0   22516   22517   22517       0   22519   22520   22520       0
   22522   22523   22523       0   22525   22526   22526       0   22528   22529
   22529       0   22531   22532   22532       0   22534   22535   22535       0
   22537   22538   22538       0   22540   22541   22541       0   22543   22544
   22544       0   22546   22547   22547       0   22549   22550   22550       0
   22552   22553   22553       0   22555   22556   22556       0   22558   22559
   22559       0   22561   22562   22562       0   22564   22565   22565       0
   22567   22568   22568       0   22570   22571   22571       0   22573   22574
   22574       0   22576   22577   22577       0   22579   22580   22580       0
   22582   22583   22583       0   22585   22586   22586       0   22588   22589
   22589       0   22591   22592   22592       0   22594   22595   22595       0
   22597   22598   22598       0   22600   22601   22601       0   22603   22604
   22604       0   22606   22607   22607       0   22609   22610   22610       0
   22612   22613   22613       0   22615   22616   22616       0   22618   22619
   22619       0   22621   22622   22622       0   22624   22625   22625       0
   22627   22628   22628       0   22630   22631   22631       0   22633   22634
   22634       0   22636   22637   22637       0   22639   22640   22640       0
   22642   22643   22643       0   22645   22646   22646       0   22648   22649
   22649       0   22651   22652   22652       0   22654   22655   22655       0
   22657   22658   22658       0   22660   22661   22661       0   22663   22664
   22664       0   22666   22667   22667       0   22669   22670   22670       0
   22672   22673   22673       0   22675   22676   22676       0   22678   22679
   22679       0   22681   22682   22682       0   22684   22685   22685       0
   22687   22688   22688       0   22690   22691   22691       0   22693   22694
   22694       0   22696   22697   22697       0   22699   22700   22700       0
   22702   22703   22703       0   22705   22706   22706       0   22708   22709
   22709       0   22711   22712   22712       0   22714   22715   22715       0
   22717   22718   22718       0   22720   22721   22721       0   22723   22724
   22724       0   22726   22727   22727       0   22729   22730   22730       0
   22732   22733   22733       0   22735   22736   22736       0   22738   22739
   22739       0   22741   22742   22742       0   22744   22745   22745       0
   22747   22748   22748       0   22750   22751   22751       0   22753   22754
   22754       0   22756   22757   22757       0   22759   22760   22760       0
   22762   22763   22763       0   22765   22766   22766       0   22768   22769
   22769       0   22771   22772   22772       0   22774   22775   22775       0
   22777   22778   22778       0   22780   22781   22781       0   22783   22784
   22784       0   22786   22787   22787       0   22789   22790   22790       0
   22792   22793   22793       0   22795   22796   22796       0   22798   22799
   22799       0   22801   22802   22802       0   22804   22805   22805       0
   22807   22808   22808       0   22810   22811   22811       0   22813   22814
   22814       0   22816   22817   22817       0   22819   22820   22820       0
   22822   22823   22823       0   22825   22826   22826       0   22828   22829
   22829       0   22831   22832   22832       0   22834   22835   22835       0
   22837   22838   22838       0   22840   22841   22841       0   22843   22844
   22844       0   22846   22847   22847       0   22849   22850   22850       0
   22852   22853   22853       0   22855   22856   22856       0   22858   22859
   22859       0   22861   22862   22862       0   22864   22865   22865       0
   22867   22868   22868       0   22870   22871   22871       0   22873   22874
   22874       0   22876   22877   22877       0   22879   22880   22880       0
   22882   22883   22883       0   22885   22886   22886       0   22888   22889
   22889       0   22891   22892   22892       0   22894   22895   22895       0
   22897   22898   22898       0   22900   22901   22901       0   22903   22904
   22904       0   22906   22907   22907       0   22909   22910   22910       0
   22912   22913   22913       0   22915   22916   22916       0   22918   22919
   22919       0   22921   22922   22922       0   22924   22925   22925       0
   22927   22928   22928       0   22930   22931   22931       0   22933   22934
   22934       0   22936   22937   22937       0   22939   22940   22940       0
   22942   22943   22943       0   22945   22946   22946       0   22948   22949
   22949       0   22951   22952   22952       0   22954   22955   22955       0
   22957   22958   22958       0   22960   22961   22961       0   22963   22964
   22964       0   22966   22967   22967       0   22969   22970   22970       0
   22972   22973   22973       0   22975   22976   22976       0   22978   22979
   22979       0   22981   22982   22982       0   22984   22985   22985       0
   22987   22988   22988       0   22990   22991   22991       0   22993   22994
   22994       0   22996   22997   22997       0   22999   23000   23000       0
   23002   23003   23003       0   23005   23006   23006       0   23008   23009
   23009       0   23011   23012   23012       0   23014   23015   23015       0
   23017   23018   23018       0   23020   23021   23021       0   23023   23024
   23024       0   23026   23027   23027       0   23029   23030   23030       0
   23032   23033   23033       0   23035   23036   23036       0   23038   23039
   23039       0   23041   23042   23042       0   23044   23045   23045       0
   23047   23048   23048       0   23050   23051   23051       0   23053   23054
   23054       0   23056   23057   23057       0   23059   23060   23060       0
   23062   23063   23063       0   23065   23066   23066       0   23068   23069
   23069       0   23071   23072   23072       0   23074   23075   23075       0
   23077   23078   23078       0   23080   23081   23081       0   23083   23084
   23084       0   23086   23087   23087       0   23089   23090   23090       0
   23092   23093   23093       0   23095   23096   23096       0   23098   23099
   23099       0   23101   23102   23102       0   23104   23105   23105       0
   23107   23108   23108       0   23110   23111   23111       0   23113   23114
   23114       0   23116   23117   23117       0   23119   23120   23120       0
   23122   23123   23123       0   23125   23126   23126       0   23128   23129
   23129       0   23131   23132   23132       0   23134   23135   23135       0
   23137   23138   23138       0   23140   23141   23141       0   23143   23144
   23144       0   23146   23147   23147       0   23149   23150   23150       0
   23152   23153   23153       0   23155   23156   23156       0   23158   23159
   23159       0   23161   23162   23162       0   23164   23165   23165       0
   23167   23168   23168       0   23170   23171   23171       0   23173   23174
   23174       0   23176   23177   23177       0   23179   23180   23180       0
   23182   23183   23183       0   23185   23186   23186       0   23188   23189
   23189       0   23191   23192   23192       0   23194   23195   23195       0
   23197   23198   23198       0   23200   23201   23201       0   23203   23204
   23204       0   23206   23207   23207       0   23209   23210   23210       0
   23212   23213   23213       0   23215   23216   23216       0   23218   23219
   23219       0   23221   23222   23222       0   23224   23225   23225       0
   23227   23228   23228       0   23230   23231   23231       0   23233   23234
   23234       0   23236   23237   23237       0   23239   23240   23240       0
   23242   23243   23243       0   23245   23246   23246       0   23248   23249
   23249       0   23251   23252   23252       0   23254   23255   23255       0
   23257   23258   23258       0   23260   23261   23261       0   23263   23264
   23264       0   23266   23267   23267       0   23269   23270   23270       0
   23272   23273   23273       0   23275   23276   23276       0   23278   23279
   23279       0   23281   23282   23282       0   23284   23285   23285       0
   23287   23288   23288       0   23290   23291   23291       0   23293   23294
   23294       0   23296   23297   23297       0   23299   23300   23300       0
   23302   23303   23303       0   23305   23306   23306       0   23308   23309
   23309       0   23311   23312   23312       0   23314   23315   23315       0
   23317   23318   23318       0   23320   23321   23321       0   23323   23324
   23324       0   23326   23327   23327       0   23329   23330   23330       0
   23332   23333   23333       0   23335   23336   23336       0   23338   23339
   23339       0   23341   23342   23342       0   23344   23345   23345       0
   23347   23348   23348       0   23350   23351   23351       0   23353   23354
   23354       0   23356   23357   23357       0   23359   23360   23360       0
   23362   23363   23363       0   23365   23366   23366       0   23368   23369
   23369       0   23371   23372   23372       0   23374   23375   23375       0
   23377   23378   23378       0   23380   23381   23381       0   23383   23384
   23384       0   23386   23387   23387       0   23389   23390   23390       0
   23392   23393   23393       0   23395   23396   23396       0   23398   23399
   23399       0   23401   23402   23402       0   23404   23405   23405       0
   23407   23408   23408       0   23410   23411   23411       0   23413   23414
   23414       0   23416   23417   23417       0   23419   23420   23420       0
   23422   23423   23423       0   23425   23426   23426       0   23428   23429
   23429       0   23431   23432   23432       0   23434   23435   23435       0
   23437   23438   23438       0   23440   23441   23441       0   23443   23444
   23444       0   23446   23447   23447       0   23449   23450   23450       0
   23452   23453   23453       0   23455   23456   23456       0   23458   23459
   23459       0   23461   23462   23462       0   23464   23465   23465       0
   23467   23468   23468       0   23470   23471   23471       0   23473   23474
   23474       0   23476   23477   23477       0   23479   23480   23480       0
   23482   23483   23483       0   23485   23486   23486       0   23488   23489
   23489       0   23491   23492   23492       0   23494   23495   23495       0
   23497   23498   23498       0   23500   23501   23501       0   23503   23504
   23504       0   23506   23507   23507       0   23509   23510   23510       0
   23512   23513   23513       0   23515   23516   23516       0   23518   23519
   23519       0   23521   23522   23522       0   23524   23525   23525       0
   23527   23528   23528       0   23530   23531   23531       0   23533   23534
   23534       0   23536   23537   23537       0   23539   23540   23540       0
   23542   23543   23543       0   23545   23546   23546       0   23548   23549
   23549       0   23551   23552   23552       0   23554   23555   23555       0
   23557   23558   23558       0   23560   23561   23561       0   23563   23564
   23564       0   23566   23567   23567       0   23569   23570   23570       0
   23572   23573   23573       0   23575   23576   23576       0   23578   23579
   23579       0   23581   23582   23582       0   23584   23585   23585       0
   23587   23588   23588       0   23590   23591   23591       0   23593   23594
   23594       0   23596   23597   23597       0   23599   23600   23600       0
   23602   23603   23603       0   23605   23606   23606       0   23608   23609
   23609       0   23611   23612   23612       0   23614   23615   23615       0
   23617   23618   23618       0   23620   23621   23621       0   23623   23624
   23624       0   23626   23627   23627       0   23629   23630   23630       0
   23632   23633   23633       0   23635   23636   23636       0   23638   23639
   23639       0   23641   23642   23642       0   23644   23645   23645       0
   23647   23648   23648       0   23650   23651   23651       0   23653   23654
   23654       0   23656   23657   23657       0   23659   23660   23660       0
   23662   23663   23663       0   23665   23666   23666       0   23668   23669
   23669       0   23671   23672   23672       0   23674   23675   23675       0
   23677   23678   23678       0   23680   23681   23681       0   23683   23684
   23684       0   23686   23687   23687       0   23689   23690   23690       0
   23692   23693   23693       0   23695   23696   23696       0   23698   23699
   23699       0   23701   23702   23702       0   23704   23705   23705       0
   23707   23708   23708       0   23710   23711   23711       0   23713   23714
   23714       0   23716   23717   23717       0   23719   23720   23720       0
   23722   23723   23723       0   23725   23726   23726       0   23728   23729
   23729       0   23731   23732   23732       0   23734   23735   23735       0
   23737   23738   23738       0   23740   23741   23741       0   23743   23744
   23744       0   23746   23747   23747       0   23749   23750   23750       0
   23752   23753   23753       0   23755   23756   23756       0   23758   23759
   23759       0   23761   23762   23762       0   23764   23765   23765       0
   23767   23768   23768       0   23770   23771   23771       0   23773   23774
   23774       0   23776   23777   23777       0   23779   23780   23780       0
   23782   23783   23783       0   23785   23786   23786       0   23788   23789
   23789       0   23791   23792   23792       0   23794   23795   23795       0
   23797   23798   23798       0   23800   23801   23801       0   23803   23804
   23804       0   23806   23807   23807       0   23809   23810   23810       0
   23812   23813   23813       0   23815   23816   23816       0   23818   23819
   23819       0   23821   23822   23822       0   23824   23825   23825       0
   23827   23828   23828       0   23830   23831   23831       0   23833   23834
   23834       0   23836   23837   23837       0   23839   23840   23840       0
   23842   23843   23843       0   23845   23846   23846       0   23848   23849
   23849       0   23851   23852   23852       0   23854   23855   23855       0
   23857   23858   23858       0   23860   23861   23861       0   23863   23864
   23864       0   23866   23867   23867       0   23869   23870   23870       0
   23872   23873   23873       0   23875   23876   23876       0   23878   23879
   23879       0   23881   23882   23882       0   23884   23885   23885       0
   23887   23888   23888       0   23890   23891   23891       0   23893   23894
   23894       0   23896   23897   23897       0   23899   23900   23900       0
   23902   23903   23903       0   23905   23906   23906       0   23908   23909
   23909       0   23911   23912   23912       0   23914   23915   23915       0
   23917   23918   23918       0   23920   23921   23921       0   23923   23924
   23924       0   23926   23927   23927       0   23929   23930   23930       0
   23932   23933   23933       0   23935   23936   23936       0   23938   23939
   23939       0   23941   23942   23942       0   23944   23945   23945       0
   23947   23948   23948       0   23950   23951   23951       0   23953   23954
   23954       0   23956   23957   23957       0   23959   23960   23960       0
   23962   23963   23963       0   23965   23966   23966       0   23968   23969
   23969       0   23971   23972   23972       0   23974   23975   23975       0
   23977   23978   23978       0   23980   23981   23981       0   23983   23984
   23984       0   23986   23987   23987       0   23989   23990   23990       0
   23992   23993   23993       0   23995   23996   23996       0   23998   23999
   23999       0   24001   24002   24002       0   24004   24005   24005       0
   24007   24008   24008       0   24010   24011   24011       0   24013   24014
   24014       0   24016   24017   24017       0   24019   24020   24020       0
   24022   24023   24023       0   24025   24026   24026       0   24028   24029
   24029       0   24031   24032   24032       0   24034   24035   24035       0
   24037   24038   24038       0   24040   24041   24041       0   24043   24044
   24044       0   24046   24047   24047       0   24049   24050   24050       0
   24052   24053   24053       0   24055   24056   24056       0   24058   24059
   24059       0   24061   24062   24062       0   24064   24065   24065       0
   24067   24068   24068       0   24070   24071   24071       0   24073   24074
   24074       0   24076   24077   24077       0   24079   24080   24080       0
   24082   24083   24083       0   24085   24086   24086       0   24088   24089
   24089       0   24091   24092   24092       0   24094   24095   24095       0
   24097   24098   24098       0   24100   24101   24101       0   24103   24104
   24104       0   24106   24107   24107       0   24109   24110   24110       0
   24112   24113   24113       0   24115   24116   24116       0   24118   24119
   24119       0   24121   24122   24122       0   24124   24125   24125       0
   24127   24128   24128       0   24130   24131   24131       0   24133   24134
   24134       0   24136   24137   24137       0   24139   24140   24140       0
   24142   24143   24143       0   24145   24146   24146       0   24148   24149
   24149       0   24151   24152   24152       0   24154   24155   24155       0
   24157   24158   24158       0   24160   24161   24161       0   24163   24164
   24164       0   24166   24167   24167       0   24169   24170   24170       0
   24172   24173   24173       0   24175   24176   24176       0   24178   24179
   24179       0   24181   24182   24182       0   24184   24185   24185       0
   24187   24188   24188       0   24190   24191   24191       0   24193   24194
   24194       0   24196   24197   24197       0   24199   24200   24200       0
   24202   24203   24203       0   24205   24206   24206       0   24208   24209
   24209       0   24211   24212   24212       0   24214   24215   24215       0
   24217   24218   24218       0   24220   24221   24221       0   24223   24224
   24224       0   24226   24227   24227       0   24229   24230   24230       0
   24232   24233   24233       0   24235   24236   24236       0   24238   24239
   24239       0   24241   24242   24242       0   24244   24245   24245       0
   24247   24248   24248       0   24250   24251   24251       0   24253   24254
   24254       0   24256   24257   24257       0   24259   24260   24260       0
   24262   24263   24263       0   24265   24266   24266       0   24268   24269
   24269       0   24271   24272   24272       0   24274   24275   24275       0
   24277   24278   24278       0   24280   24281   24281       0   24283   24284
   24284       0   24286   24287   24287       0   24289   24290   24290       0
   24292   24293   24293       0   24295   24296   24296       0   24298   24299
   24299       0   24301   24302   24302       0   24304   24305   24305       0
   24307   24308   24308       0   24310   24311   24311       0   24313   24314
   24314       0   24316   24317   24317       0   24319   24320   24320       0
   24322   24323   24323       0   24325   24326   24326       0   24328   24329
   24329       0   24331   24332   24332       0   24334   24335   24335       0
   24337   24338   24338       0   24340   24341   24341       0   24343   24344
   24344       0   24346   24347   24347       0   24349   24350   24350       0
   24352   24353   24353       0   24355   24356   24356       0   24358   24359
   24359       0   24361   24362   24362       0   24364   24365   24365       0
   24367   24368   24368       0   24370   24371   24371       0   24373   24374
   24374       0   24376   24377   24377       0   24379   24380   24380       0
   24382   24383   24383       0   24385   24386   24386       0   24388   24389
   24389       0   24391   24392   24392       0   24394   24395   24395       0
   24397   24398   24398       0   24400   24401   24401       0   24403   24404
   24404       0   24406   24407   24407       0   24409   24410   24410       0
   24412   24413   24413       0   24415   24416   24416       0   24418   24419
   24419       0   24421   24422   24422       0   24424   24425   24425       0
   24427   24428   24428       0   24430   24431   24431       0   24433   24434
   24434       0   24436   24437   24437       0   24439   24440   24440       0
   24442   24443   24443       0   24445   24446   24446       0   24448   24449
   24449       0   24451   24452   24452       0   24454   24455   24455       0
   24457   24458   24458       0   24460   24461   24461       0   24463   24464
   24464       0   24466   24467   24467       0   24469   24470   24470       0
   24472   24473   24473       0   24475   24476   24476       0   24478   24479
   24479       0   24481   24482   24482       0   24484   24485   24485       0
   24487   24488   24488       0   24490   24491   24491       0   24493   24494
   24494       0   24496   24497   24497       0   24499   24500   24500       0
   24502   24503   24503       0   24505   24506   24506       0   24508   24509
   24509       0   24511   24512   24512       0   24514   24515   24515       0
   24517   24518   24518       0   24520   24521   24521       0   24523   24524
   24524       0   24526   24527   24527       0   24529   24530   24530       0
   24532   24533   24533       0   24535   24536   24536       0   24538   24539
   24539       0   24541   24542   24542       0   24544   24545   24545       0
   24547   24548   24548       0   24550   24551   24551       0   24553   24554
   24554       0   24556   24557   24557       0   24559   24560   24560       0
   24562   24563   24563       0   24565   24566   24566       0   24568   24569
   24569       0   24571   24572   24572       0   24574   24575   24575       0
   24577   24578   24578       0   24580   24581   24581       0   24583   24584
   24584       0   24586   24587   24587       0   24589   24590   24590       0
   24592   24593   24593       0   24595   24596   24596       0   24598   24599
   24599       0   24601   24602   24602       0   24604   24605   24605       0
   24607   24608   24608       0   24610   24611   24611       0   24613   24614
   24614       0   24616   24617   24617       0   24619   24620   24620       0
   24622   24623   24623       0   24625   24626   24626       0   24628   24629
   24629       0   24631   24632   24632       0   24634   24635   24635       0
   24637   24638   24638       0   24640   24641   24641       0   24643   24644
   24644       0   24646   24647   24647       0   24649   24650   24650       0
   24652   24653   24653       0   24655   24656   24656       0   24658   24659
   24659       0   24661   24662   24662       0   24664   24665   24665       0
   24667   24668   24668       0   24670   24671   24671       0   24673   24674
   24674       0   24676   24677   24677       0   24679   24680   24680       0
   24682   24683   24683       0   24685   24686   24686       0   24688   24689
   24689       0   24691   24692   24692       0   24694   24695   24695       0
   24697   24698   24698       0   24700   24701   24701       0   24703   24704
   24704       0   24706   24707   24707       0   24709   24710   24710       0
   24712   24713   24713       0   24715   24716   24716       0   24718   24719
   24719       0   24721   24722   24722       0   24724   24725   24725       0
   24727   24728   24728       0   24730   24731   24731       0   24733   24734
   24734       0   24736   24737   24737       0   24739   24740   24740       0
   24742   24743   24743       0   24745   24746   24746       0   24748   24749
   24749       0   24751   24752   24752       0   24754   24755   24755       0
   24757   24758   24758       0   24760   24761   24761       0   24763   24764
   24764       0   24766   24767   24767       0   24769   24770   24770       0
   24772   24773   24773       0   24775   24776   24776       0   24778   24779
   24779       0   24781   24782   24782       0   24784   24785   24785       0
   24787   24788   24788       0   24790   24791   24791       0   24793   24794
   24794       0   24796   24797   24797       0   24799   24800   24800       0
   24802   24803   24803       0   24805   24806   24806       0   24808   24809
   24809       0   24811   24812   24812       0   24814   24815   24815       0
   24817   24818   24818       0   24820   24821   24821       0   24823   24824
   24824       0   24826   24827   24827       0   24829   24830   24830       0
   24832   24833   24833       0   24835   24836   24836       0   24838   24839
   24839       0   24841   24842   24842       0   24844   24845   24845       0
   24847   24848   24848       0   24850   24851   24851       0   24853   24854
   24854       0   24856   24857   24857       0   24859   24860   24860       0
   24862   24863   24863       0   24865   24866   24866       0   24868   24869
   24869       0   24871   24872   24872       0   24874   24875   24875       0
   24877   24878   24878       0   24880   24881   24881       0   24883   24884
   24884       0   24886   24887   24887       0   24889   24890   24890       0
   24892   24893   24893       0   24895   24896   24896       0   24898   24899
   24899       0   24901   24902   24902       0   24904   24905   24905       0
   24907   24908   24908       0   24910   24911   24911       0   24913   24914
   24914       0   24916   24917   24917       0   24919   24920   24920       0
   24922   24923   24923       0   24925   24926   24926       0   24928   24929
   24929       0   24931   24932   24932       0   24934   24935   24935       0
   24937   24938   24938       0   24940   24941   24941       0   24943   24944
   24944       0   24946   24947   24947       0   24949   24950   24950       0
   24952   24953   24953       0   24955   24956   24956       0   24958   24959
   24959       0   24961   24962   24962       0   24964   24965   24965       0
   24967   24968   24968       0   24970   24971   24971       0   24973   24974
   24974       0   24976   24977   24977       0   24979   24980   24980       0
   24982   24983   24983       0   24985   24986   24986       0   24988   24989
   24989       0   24991   24992   24992       0   24994   24995   24995       0
   24997   24998   24998       0   25000   25001   25001       0   25003   25004
   25004       0   25006   25007   25007       0   25009   25010   25010       0
   25012   25013   25013       0   25015   25016   25016       0   25018   25019
   25019       0   25021   25022   25022       0   25024   25025   25025       0
   25027   25028   25028       0   25030   25031   25031       0   25033   25034
   25034       0   25036   25037   25037       0   25039   25040   25040       0
   25042   25043   25043       0   25045   25046   25046       0   25048   25049
   25049       0   25051   25052   25052       0   25054   25055   25055       0
   25057   25058   25058       0   25060   25061   25061       0   25063   25064
   25064       0   25066   25067   25067       0   25069   25070   25070       0
   25072   25073   25073       0   25075   25076   25076       0   25078   25079
   25079       0   25081   25082   25082       0   25084   25085   25085       0
   25087   25088   25088       0   25090   25091   25091       0   25093   25094
   25094       0   25096   25097   25097       0   25099   25100   25100       0
   25102   25103   25103       0   25105   25106   25106       0   25108   25109
   25109       0   25111   25112   25112       0   25114   25115   25115       0
   25117   25118   25118       0   25120   25121   25121       0   25123   25124
   25124       0   25126   25127   25127       0   25129   25130   25130       0
   25132   25133   25133       0   25135   25136   25136       0   25138   25139
   25139       0   25141   25142   25142       0   25144   25145   25145       0
   25147   25148   25148       0   25150   25151   25151       0   25153   25154
   25154       0   25156   25157   25157       0   25159   25160   25160       0
   25162   25163   25163       0   25165   25166   25166       0   25168   25169
   25169       0   25171   25172   25172       0   25174   25175   25175       0
   25177   25178   25178       0   25180   25181   25181       0   25183   25184
   25184       0   25186   25187   25187       0   25189   25190   25190       0
   25192   25193   25193       0   25195   25196   25196       0   25198   25199
   25199       0   25201   25202   25202       0   25204   25205   25205       0
   25207   25208   25208       0   25210   25211   25211       0   25213   25214
   25214       0   25216   25217   25217       0   25219   25220   25220       0
   25222   25223   25223       0   25225   25226   25226       0   25228   25229
   25229       0   25231   25232   25232       0   25234   25235   25235       0
   25237   25238   25238       0   25240   25241   25241       0   25243   25244
   25244       0   25246   25247   25247       0   25249   25250   25250       0
   25252   25253   25253       0   25255   25256   25256       0   25258   25259
   25259       0   25261   25262   25262       0   25264   25265   25265       0
   25267   25268   25268       0   25270   25271   25271       0   25273   25274
   25274       0   25276   25277   25277       0   25279   25280   25280       0
   25282   25283   25283       0   25285   25286   25286       0   25288   25289
   25289       0   25291   25292   25292       0   25294   25295   25295       0
   25297   25298   25298       0   25300   25301   25301       0   25303   25304
   25304       0   25306   25307   25307       0   25309   25310   25310       0
   25312   25313   25313       0   25315   25316   25316       0   25318   25319
   25319       0   25321   25322   25322       0   25324   25325   25325       0
   25327   25328   25328       0   25330   25331   25331       0   25333   25334
   25334       0   25336   25337   25337       0   25339   25340   25340       0
   25342   25343   25343       0   25345   25346   25346       0   25348   25349
   25349       0   25351   25352   25352       0   25354   25355   25355       0
   25357   25358   25358       0   25360   25361   25361       0   25363   25364
   25364       0   25366   25367   25367       0   25369   25370   25370       0
   25372   25373   25373       0   25375   25376   25376       0   25378   25379
   25379       0   25381   25382   25382       0   25384   25385   25385       0
   25387   25388   25388       0   25390   25391   25391       0   25393   25394
   25394       0   25396   25397   25397       0   25399   25400   25400       0
   25402   25403   25403       0   25405   25406   25406       0   25408   25409
   25409       0   25411   25412   25412       0   25414   25415   25415       0
   25417   25418   25418       0   25420   25421   25421       0   25423   25424
   25424       0   25426   25427   25427       0   25429   25430   25430       0
   25432   25433   25433       0   25435   25436   25436       0   25438   25439
   25439       0   25441   25442   25442       0   25444   25445   25445       0
   25447   25448   25448       0   25450   25451   25451       0   25453   25454
   25454       0   25456   25457   25457       0   25459   25460   25460       0
   25462   25463   25463       0   25465   25466   25466       0   25468   25469
   25469       0   25471   25472   25472       0   25474   25475   25475       0
   25477   25478   25478       0   25480   25481   25481       0   25483   25484
   25484       0   25486   25487   25487       0   25489   25490   25490       0
   25492   25493   25493       0   25495   25496   25496       0   25498   25499
   25499       0   25501   25502   25502       0   25504   25505   25505       0
   25507   25508   25508       0   25510   25511   25511       0   25513   25514
   25514       0   25516   25517   25517       0   25519   25520   25520       0
   25522   25523   25523       0   25525   25526   25526       0   25528   25529
   25529       0   25531   25532   25532       0   25534   25535   25535       0
   25537   25538   25538       0   25540   25541   25541       0   25543   25544
   25544       0   25546   25547   25547       0   25549   25550   25550       0
   25552   25553   25553       0   25555   25556   25556       0   25558   25559
   25559       0   25561   25562   25562       0   25564   25565   25565       0
   25567   25568   25568       0   25570   25571   25571       0   25573   25574
   25574       0   25576   25577   25577       0   25579   25580   25580       0
   25582   25583   25583       0   25585   25586   25586       0   25588   25589
   25589       0   25591   25592   25592       0   25594   25595   25595       0
   25597   25598   25598       0   25600   25601   25601       0   25603   25604
   25604       0   25606   25607   25607       0   25609   25610   25610       0
   25612   25613   25613       0   25615   25616   25616       0   25618   25619
   25619       0   25621   25622   25622       0   25624   25625   25625       0
   25627   25628   25628       0   25630   25631   25631       0   25633   25634
   25634       0   25636   25637   25637       0   25639   25640   25640       0
   25642   25643   25643       0   25645   25646   25646       0   25648   25649
   25649       0   25651   25652   25652       0   25654   25655   25655       0
   25657   25658   25658       0   25660   25661   25661       0   25663   25664
   25664       0   25666   25667   25667       0   25669   25670   25670       0
   25672   25673   25673       0   25675   25676   25676       0   25678   25679
   25679       0   25681   25682   25682       0   25684   25685   25685       0
   25687   25688   25688       0   25690   25691   25691       0   25693   25694
   25694       0   25696   25697   25697       0   25699   25700   25700       0
   25702   25703   25703       0   25705   25706   25706       0   25708   25709
   25709       0   25711   25712   25712       0   25714   25715   25715       0
   25717   25718   25718       0   25720   25721   25721       0   25723   25724
   25724       0   25726   25727   25727       0   25729   25730   25730       0
   25732   25733   25733       0   25735   25736   25736       0   25738   25739
   25739       0   25741   25742   25742       0   25744   25745   25745       0
   25747   25748   25748       0   25750   25751   25751       0   25753   25754
   25754       0   25756   25757   25757       0   25759   25760   25760       0
   25762   25763   25763       0   25765   25766   25766       0   25768   25769
   25769       0   25771   25772   25772       0   25774   25775   25775       0
   25777   25778   25778       0   25780   25781   25781       0   25783   25784
   25784       0   25786   25787   25787       0   25789   25790   25790       0
   25792   25793   25793       0   25795   25796   25796       0   25798   25799
   25799       0   25801   25802   25802       0   25804   25805   25805       0
   25807   25808   25808       0   25810   25811   25811       0   25813   25814
   25814       0   25816   25817   25817       0   25819   25820   25820       0
   25822   25823   25823       0   25825   25826   25826       0   25828   25829
   25829       0   25831   25832   25832       0   25834   25835   25835       0
   25837   25838   25838       0   25840   25841   25841       0   25843   25844
   25844       0   25846   25847   25847       0   25849   25850   25850       0
   25852   25853   25853       0   25855   25856   25856       0   25858   25859
   25859       0   25861   25862   25862       0   25864   25865   25865       0
   25867   25868   25868       0   25870   25871   25871       0   25873   25874
   25874       0   25876   25877   25877       0   25879   25880   25880       0
   25882   25883   25883       0   25885   25886   25886       0   25888   25889
   25889       0   25891   25892   25892       0   25894   25895   25895       0
   25897   25898   25898       0   25900   25901   25901       0   25903   25904
   25904       0   25906   25907   25907       0   25909   25910   25910       0
   25912   25913   25913       0   25915   25916   25916       0   25918   25919
   25919       0   25921   25922   25922       0   25924   25925   25925       0
   25927   25928   25928       0   25930   25931   25931       0   25933   25934
   25934       0   25936   25937   25937       0   25939   25940   25940       0
   25942   25943   25943       0   25945   25946   25946       0   25948   25949
   25949       0   25951   25952   25952       0   25954   25955   25955       0
   25957   25958   25958       0   25960   25961   25961       0   25963   25964
   25964       0   25966   25967   25967       0   25969   25970   25970       0
   25972   25973   25973       0   25975   25976   25976       0   25978   25979
   25979       0   25981   25982   25982       0   25984   25985   25985       0
   25987   25988   25988       0   25990   25991   25991       0   25993   25994
   25994       0   25996   25997   25997       0   25999   26000   26000       0
   26002   26003   26003       0   26005   26006   26006       0   26008   26009
   26009       0   26011   26012   26012       0   26014   26015   26015       0
   26017   26018   26018       0   26020   26021   26021       0   26023   26024
   26024       0   26026   26027   26027       0   26029   26030   26030       0
   26032   26033   26033       0   26035   26036   26036       0   26038   26039
   26039       0   26041   26042   26042       0   26044   26045   26045       0
   26047   26048   26048       0   26050   26051   26051       0   26053   26054
   26054       0   26056   26057   26057       0   26059   26060   26060       0
   26062   26063   26063       0   26065   26066   26066       0   26068   26069
   26069       0   26071   26072   26072       0   26074   26075   26075       0
   26077   26078   26078       0   26080   26081   26081       0   26083   26084
   26084       0   26086   26087   26087       0   26089   26090   26090       0
   26092   26093   26093       0   26095   26096   26096       0   26098   26099
   26099       0   26101   26102   26102       0   26104   26105   26105       0
   26107   26108   26108       0   26110   26111   26111       0   26113   26114
   26114       0   26116   26117   26117       0   26119   26120   26120       0
   26122   26123   26123       0   26125   26126   26126       0   26128   26129
   26129       0   26131   26132   26132       0   26134   26135   26135       0
   26137   26138   26138       0   26140   26141   26141       0   26143   26144
   26144       0   26146   26147   26147       0   26149   26150   26150       0
   26152   26153   26153       0   26155   26156   26156       0   26158   26159
   26159       0   26161   26162   26162       0   26164   26165   26165       0
   26167   26168   26168       0   26170   26171   26171       0   26173   26174
   26174       0   26176   26177   26177       0   26179   26180   26180       0
   26182   26183   26183       0   26185   26186   26186       0   26188   26189
   26189       0   26191   26192   26192       0   26194   26195   26195       0
   26197   26198   26198       0   26200   26201   26201       0   26203   26204
   26204       0   26206   26207   26207       0   26209   26210   26210       0
   26212   26213   26213       0   26215   26216   26216       0   26218   26219
   26219       0   26221   26222   26222       0   26224   26225   26225       0
   26227   26228   26228       0   26230   26231   26231       0   26233   26234
   26234       0   26236   26237   26237       0   26239   26240   26240       0
   26242   26243   26243       0   26245   26246   26246       0   26248   26249
   26249       0   26251   26252   26252       0   26254   26255   26255       0
   26257   26258   26258       0   26260   26261   26261       0   26263   26264
   26264       0   26266   26267   26267       0   26269   26270   26270       0
   26272   26273   26273       0   26275   26276   26276       0   26278   26279
   26279       0   26281   26282   26282       0   26284   26285   26285       0
   26287   26288   26288       0   26290   26291   26291       0   26293   26294
   26294       0   26296   26297   26297       0   26299   26300   26300       0
   26302   26303   26303       0   26305   26306   26306       0   26308   26309
   26309       0   26311   26312   26312       0   26314   26315   26315       0
   26317   26318   26318       0   26320   26321   26321       0   26323   26324
   26324       0   26326   26327   26327       0   26329   26330   26330       0
   26332   26333   26333       0   26335   26336   26336       0   26338   26339
   26339       0   26341   26342   26342       0   26344   26345   26345       0
   26347   26348   26348       0   26350   26351   26351       0   26353   26354
   26354       0   26356   26357   26357       0   26359   26360   26360       0
   26362   26363   26363       0   26365   26366   26366       0   26368   26369
   26369       0   26371   26372   26372       0   26374   26375   26375       0
   26377   26378   26378       0   26380   26381   26381       0   26383   26384
   26384       0   26386   26387   26387       0   26389   26390   26390       0
   26392   26393   26393       0   26395   26396   26396       0   26398   26399
   26399       0   26401   26402   26402       0   26404   26405   26405       0
   26407   26408   26408       0   26410   26411   26411       0   26413   26414
   26414       0   26416   26417   26417       0   26419   26420   26420       0
   26422   26423   26423       0   26425   26426   26426       0   26428   26429
   26429       0   26431   26432   26432       0   26434   26435   26435       0
   26437   26438   26438       0   26440   26441   26441       0   26443   26444
   26444       0   26446   26447   26447       0   26449   26450   26450       0
   26452   26453   26453       0   26455   26456   26456       0   26458   26459
   26459       0   26461   26462   26462       0   26464   26465   26465       0
   26467   26468   26468       0   26470   26471   26471       0   26473   26474
   26474       0   26476   26477   26477       0   26479   26480   26480       0
   26482   26483   26483       0   26485   26486   26486       0   26488   26489
   26489       0   26491   26492   26492       0   26494   26495   26495       0
   26497   26498   26498       0   26500   26501   26501       0   26503   26504
   26504       0   26506   26507   26507       0   26509   26510   26510       0
   26512   26513   26513       0   26515   26516   26516       0   26518   26519
   26519       0   26521   26522   26522       0   26524   26525   26525       0
   26527   26528   26528       0   26530   26531   26531       0   26533   26534
   26534       0   26536   26537   26537       0   26539   26540   26540       0
   26542   26543   26543       0   26545   26546   26546       0   26548   26549
   26549       0   26551   26552   26552       0   26554   26555   26555       0
   26557   26558   26558       0   26560   26561   26561       0   26563   26564
   26564       0   26566   26567   26567       0   26569   26570   26570       0
   26572   26573   26573       0   26575   26576   26576       0   26578   26579
   26579       0   26581   26582   26582       0   26584   26585   26585       0
   26587   26588   26588       0   26590   26591   26591       0   26593   26594
   26594       0   26596   26597   26597       0   26599   26600   26600       0
   26602   26603   26603       0   26605   26606   26606       0   26608   26609
   26609       0   26611   26612   26612       0   26614   26615   26615       0
   26617   26618   26618       0   26620   26621   26621       0   26623   26624
   26624       0   26626   26627   26627       0   26629   26630   26630       0
   26632   26633   26633       0   26635   26636   26636       0   26638   26639
   26639       0   26641   26642   26642       0   26644   26645   26645       0
   26647   26648   26648       0   26650   26651   26651       0   26653   26654
   26654       0   26656   26657   26657       0   26659   26660   26660       0
   26662   26663   26663       0   26665   26666   26666       0   26668   26669
   26669       0   26671   26672   26672       0   26674   26675   26675       0
   26677   26678   26678       0   26680   26681   26681       0   26683   26684
   26684       0   26686   26687   26687       0   26689   26690   26690       0
   26692   26693   26693       0   26695   26696   26696       0   26698   26699
   26699       0   26701   26702   26702       0   26704   26705   26705       0
   26707   26708   26708       0   26710   26711   26711       0   26713   26714
   26714       0   26716   26717   26717       0   26719   26720   26720       0
   26722   26723   26723       0   26725   26726   26726       0   26728   26729
   26729       0   26731   26732   26732       0   26734   26735   26735       0
   26737   26738   26738       0   26740   26741   26741       0   26743   26744
   26744       0   26746   26747   26747       0   26749   26750   26750       0
   26752   26753   26753       0   26755   26756   26756       0   26758   26759
   26759       0   26761   26762   26762       0   26764   26765   26765       0
   26767   26768   26768       0   26770   26771   26771       0   26773   26774
   26774       0   26776   26777   26777       0   26779   26780   26780       0
   26782   26783   26783       0   26785   26786   26786       0   26788   26789
   26789       0   26791   26792   26792       0   26794   26795   26795       0
   26797   26798   26798       0   26800   26801   26801       0   26803   26804
   26804       0   26806   26807   26807       0   26809   26810   26810       0
   26812   26813   26813       0   26815   26816   26816       0   26818   26819
   26819       0   26821   26822   26822       0   26824   26825   26825       0
   26827   26828   26828       0   26830   26831   26831       0   26833   26834
   26834       0   26836   26837   26837       0   26839   26840   26840       0
   26842   26843   26843       0   26845   26846   26846       0   26848   26849
   26849       0   26851   26852   26852       0   26854   26855   26855       0
   26857   26858   26858       0   26860   26861   26861       0   26863   26864
   26864       0   26866   26867   26867       0   26869   26870   26870       0
   26872   26873   26873       0   26875   26876   26876       0   26878   26879
   26879       0   26881   26882   26882       0   26884   26885   26885       0
   26887   26888   26888       0   26890   26891   26891       0   26893   26894
   26894       0   26896   26897   26897       0   26899   26900   26900       0
   26902   26903   26903       0   26905   26906   26906       0   26908   26909
   26909       0   26911   26912   26912       0   26914   26915   26915       0
   26917   26918   26918       0   26920   26921   26921       0   26923   26924
   26924       0   26926   26927   26927       0   26929   26930   26930       0
   26932   26933   26933       0   26935   26936   26936       0   26938   26939
   26939       0   26941   26942   26942       0   26944   26945   26945       0
   26947   26948   26948       0   26950   26951   26951       0   26953   26954
   26954       0   26956   26957   26957       0   26959   26960   26960       0
   26962   26963   26963       0   26965   26966   26966       0   26968   26969
   26969       0   26971   26972   26972       0   26974   26975   26975       0
   26977   26978   26978       0   26980   26981   26981       0   26983   26984
   26984       0   26986   26987   26987       0   26989   26990   26990       0
   26992   26993   26993       0   26995   26996   26996       0   26998   26999
   26999       0   27001   27002   27002       0   27004   27005   27005       0
   27007   27008   27008       0   27010   27011   27011       0   27013   27014
   27014       0   27016   27017   27017       0   27019   27020   27020       0
   27022   27023   27023       0   27025   27026   27026       0   27028   27029
   27029       0   27031   27032   27032       0   27034   27035   27035       0
   27037   27038   27038       0   27040   27041   27041       0   27043   27044
   27044       0   27046   27047   27047       0   27049   27050   27050       0
   27052   27053   27053       0   27055   27056   27056       0   27058   27059
   27059       0   27061   27062   27062       0   27064   27065   27065       0
   27067   27068   27068       0   27070   27071   27071       0   27073   27074
   27074       0   27076   27077   27077       0   27079   27080   27080       0
   27082   27083   27083       0   27085   27086   27086       0   27088   27089
   27089       0   27091   27092   27092       0   27094   27095   27095       0
   27097   27098   27098       0   27100   27101   27101       0   27103   27104
   27104       0   27106   27107   27107       0   27109   27110   27110       0
   27112   27113   27113       0   27115   27116   27116       0   27118   27119
   27119       0   27121   27122   27122       0   27124   27125   27125       0
   27127   27128   27128       0   27130   27131   27131       0   27133   27134
   27134       0   27136   27137   27137       0   27139   27140   27140       0
   27142   27143   27143       0   27145   27146   27146       0   27148   27149
   27149       0   27151   27152   27152       0   27154   27155   27155       0
   27157   27158   27158       0   27160   27161   27161       0   27163   27164
   27164       0   27166   27167   27167       0   27169   27170   27170       0
   27172   27173   27173       0   27175   27176   27176       0   27178   27179
   27179       0   27181   27182   27182       0   27184   27185   27185       0
   27187   27188   27188       0   27190   27191   27191       0   27193   27194
   27194       0   27196   27197   27197       0   27199   27200   27200       0
   27202   27203   27203       0   27205   27206   27206       0   27208   27209
   27209       0   27211   27212   27212       0   27214   27215   27215       0
   27217   27218   27218       0   27220   27221   27221       0   27223   27224
   27224       0   27226   27227   27227       0   27229   27230   27230       0
   27232   27233   27233       0   27235   27236   27236       0   27238   27239
   27239       0   27241   27242   27242       0   27244   27245   27245       0
   27247   27248   27248       0   27250   27251   27251       0   27253   27254
   27254       0   27256   27257   27257       0   27259   27260   27260       0
   27262   27263   27263       0   27265   27266   27266       0   27268   27269
   27269       0   27271   27272   27272       0   27274   27275   27275       0
   27277   27278   27278       0   27280   27281   27281       0   27283   27284
   27284       0   27286   27287   27287       0   27289   27290   27290       0
   27292   27293   27293       0   27295   27296   27296       0   27298   27299
   27299       0   27301   27302   27302       0   27304   27305   27305       0
   27307   27308   27308       0   27310   27311   27311       0   27313   27314
   27314       0   27316   27317   27317       0   27319   27320   27320       0
   27322   27323   27323       0   27325   27326   27326       0   27328   27329
   27329       0   27331   27332   27332       0   27334   27335   27335       0
   27337   27338   27338       0   27340   27341   27341       0   27343   27344
   27344       0   27346   27347   27347       0   27349   27350   27350       0
   27352   27353   27353       0   27355   27356   27356       0   27358   27359
   27359       0   27361   27362   27362       0   27364   27365   27365       0
   27367   27368   27368       0   27370   27371   27371       0   27373   27374
   27374       0   27376   27377   27377       0   27379   27380   27380       0
   27382   27383   27383       0   27385   27386   27386       0   27388   27389
   27389       0   27391   27392   27392       0   27394   27395   27395       0
   27397   27398   27398       0   27400   27401   27401       0   27403   27404
   27404       0   27406   27407   27407       0   27409   27410   27410       0
   27412   27413   27413       0   27415   27416   27416       0   27418   27419
   27419       0   27421   27422   27422       0   27424   27425   27425       0
   27427   27428   27428       0   27430   27431   27431       0   27433   27434
   27434       0   27436   27437   27437       0   27439   27440   27440       0
   27442   27443   27443       0   27445   27446   27446       0   27448   27449
   27449       0   27451   27452   27452       0   27454   27455   27455       0
   27457   27458   27458       0   27460   27461   27461       0   27463   27464
   27464       0   27466   27467   27467       0   27469   27470   27470       0
   27472   27473   27473       0   27475   27476   27476       0   27478   27479
   27479       0   27481   27482   27482       0   27484   27485   27485       0
   27487   27488   27488       0   27490   27491   27491       0   27493   27494
   27494       0   27496   27497   27497       0   27499   27500   27500       0
   27502   27503   27503       0   27505   27506   27506       0   27508   27509
   27509       0   27511   27512   27512       0   27514   27515   27515       0
   27517   27518   27518       0   27520   27521   27521       0   27523   27524
   27524       0   27526   27527   27527       0   27529   27530   27530       0
   27532   27533   27533       0   27535   27536   27536       0   27538   27539
   27539       0   27541   27542   27542       0   27544   27545   27545       0
   27547   27548   27548       0   27550   27551   27551       0   27553   27554
   27554       0   27556   27557   27557       0   27559   27560   27560       0
   27562   27563   27563       0   27565   27566   27566       0   27568   27569
   27569       0   27571   27572   27572       0   27574   27575   27575       0
   27577   27578   27578       0   27580   27581   27581       0   27583   27584
   27584       0   27586   27587   27587       0   27589   27590   27590       0
   27592   27593   27593       0   27595   27596   27596       0   27598   27599
   27599       0   27601   27602   27602       0   27604   27605   27605       0
   27607   27608   27608       0   27610   27611   27611       0   27613   27614
   27614       0   27616   27617   27617       0   27619   27620   27620       0
   27622   27623   27623       0   27625   27626   27626       0   27628   27629
   27629       0   27631   27632   27632       0   27634   27635   27635       0
   27637   27638   27638       0   27640   27641   27641       0   27643   27644
   27644       0   27646   27647   27647       0   27649   27650   27650       0
   27652   27653   27653       0   27655   27656   27656       0   27658   27659
   27659       0   27661   27662   27662       0   27664   27665   27665       0
   27667   27668   27668       0   27670   27671   27671       0   27673   27674
   27674       0   27676   27677   27677       0   27679   27680   27680       0
   27682   27683   27683       0   27685   27686   27686       0   27688   27689
   27689       0   27691   27692   27692       0   27694   27695   27695       0
   27697   27698   27698       0   27700   27701   27701       0   27703   27704
   27704       0   27706   27707   27707       0   27709   27710   27710       0
   27712   27713   27713       0   27715   27716   27716       0   27718   27719
   27719       0   27721   27722   27722       0   27724   27725   27725       0
   27727   27728   27728       0   27730   27731   27731       0   27733   27734
   27734       0   27736   27737   27737       0   27739   27740   27740       0
   27742   27743   27743       0   27745   27746   27746       0   27748   27749
   27749       0   27751   27752   27752       0   27754   27755   27755       0
   27757   27758   27758       0   27760   27761   27761       0   27763   27764
   27764       0   27766   27767   27767       0   27769   27770   27770       0
   27772   27773   27773       0   27775   27776   27776       0   27778   27779
   27779       0   27781   27782   27782       0   27784   27785   27785       0
   27787   27788   27788       0   27790   27791   27791       0   27793   27794
   27794       0   27796   27797   27797       0   27799   27800   27800       0
   27802   27803   27803       0   27805   27806   27806       0   27808   27809
   27809       0   27811   27812   27812       0   27814   27815   27815       0
   27817   27818   27818       0   27820   27821   27821       0   27823   27824
   27824       0   27826   27827   27827       0   27829   27830   27830       0
   27832   27833   27833       0   27835   27836   27836       0   27838   27839
   27839       0   27841   27842   27842       0   27844   27845   27845       0
   27847   27848   27848       0   27850   27851   27851       0   27853   27854
   27854       0   27856   27857   27857       0   27859   27860   27860       0
   27862   27863   27863       0   27865   27866   27866       0   27868   27869
   27869       0   27871   27872   27872       0   27874   27875   27875       0
   27877   27878   27878       0   27880   27881   27881       0   27883   27884
   27884       0   27886   27887   27887       0   27889   27890   27890       0
   27892   27893   27893       0   27895   27896   27896       0   27898   27899
   27899       0   27901   27902   27902       0   27904   27905   27905       0
   27907   27908   27908       0   27910   27911   27911       0   27913   27914
   27914       0   27916   27917   27917       0   27919   27920   27920       0
   27922   27923   27923       0   27925   27926   27926       0   27928   27929
   27929       0   27931   27932   27932       0   27934   27935   27935       0
   27937   27938   27938       0   27940   27941   27941       0   27943   27944
   27944       0   27946   27947   27947       0   27949   27950   27950       0
   27952   27953   27953       0   27955   27956   27956       0   27958   27959
   27959       0   27961   27962   27962       0   27964   27965   27965       0
   27967   27968   27968       0   27970   27971   27971       0   27973   27974
   27974       0   27976   27977   27977       0   27979   27980   27980       0
   27982   27983   27983       0   27985   27986   27986       0   27988   27989
   27989       0   27991   27992   27992       0   27994   27995   27995       0
   27997   27998   27998       0   28000   28001   28001       0   28003   28004
   28004       0   28006   28007   28007       0   28009   28010   28010       0
   28012   28013   28013       0   28015   28016   28016       0   28018   28019
   28019       0   28021   28022   28022       0   28024   28025   28025       0
   28027   28028   28028       0   28030   28031   28031       0   28033   28034
   28034       0   28036   28037   28037       0   28039   28040   28040       0
   28042   28043   28043       0   28045   28046   28046       0   28048   28049
   28049       0   28051   28052   28052       0   28054   28055   28055       0
   28057   28058   28058       0   28060   28061   28061       0   28063   28064
   28064       0   28066   28067   28067       0   28069   28070   28070       0
   28072   28073   28073       0   28075   28076   28076       0   28078   28079
   28079       0   28081   28082   28082       0   28084   28085   28085       0
   28087   28088   28088       0   28090   28091   28091       0   28093   28094
   28094       0   28096   28097   28097       0   28099   28100   28100       0
   28102   28103   28103       0   28105   28106   28106       0   28108   28109
   28109       0   28111   28112   28112       0   28114   28115   28115       0
   28117   28118   28118       0   28120   28121   28121       0   28123   28124
   28124       0   28126   28127   28127       0   28129   28130   28130       0
   28132   28133   28133       0   28135   28136   28136       0   28138   28139
   28139       0   28141   28142   28142       0   28144   28145   28145       0
   28147   28148   28148       0   28150   28151   28151       0   28153   28154
   28154       0   28156   28157   28157       0   28159   28160   28160       0
   28162   28163   28163       0   28165   28166   28166       0   28168   28169
   28169       0   28171   28172   28172       0   28174   28175   28175       0
   28177   28178   28178       0   28180   28181   28181       0   28183   28184
   28184       0   28186   28187   28187       0   28189   28190   28190       0
   28192   28193   28193       0   28195   28196   28196       0   28198   28199
   28199       0   28201   28202   28202       0   28204   28205   28205       0
   28207   28208   28208       0   28210   28211   28211       0   28213   28214
   28214       0   28216   28217   28217       0   28219   28220   28220       0
   28222   28223   28223       0   28225   28226   28226       0   28228   28229
   28229       0   28231   28232   28232       0   28234   28235   28235       0
   28237   28238   28238       0   28240   28241   28241       0   28243   28244
   28244       0   28246   28247   28247       0   28249   28250   28250       0
   28252   28253   28253       0   28255   28256   28256       0   28258   28259
   28259       0   28261   28262   28262       0   28264   28265   28265       0
   28267   28268   28268       0   28270   28271   28271       0   28273   28274
   28274       0   28276   28277   28277       0   28279   28280   28280       0
   28282   28283   28283       0   28285   28286   28286       0   28288   28289
   28289       0   28291   28292   28292       0   28294   28295   28295       0
   28297   28298   28298       0   28300   28301   28301       0   28303   28304
   28304       0   28306   28307   28307       0   28309   28310   28310       0
   28312   28313   28313       0   28315   28316   28316       0   28318   28319
   28319       0   28321   28322   28322       0   28324   28325   28325       0
   28327   28328   28328       0   28330   28331   28331       0   28333   28334
   28334       0   28336   28337   28337       0   28339   28340   28340       0
   28342   28343   28343       0   28345   28346   28346       0   28348   28349
   28349       0   28351   28352   28352       0   28354   28355   28355       0
   28357   28358   28358       0   28360   28361   28361       0   28363   28364
   28364       0   28366   28367   28367       0   28369   28370   28370       0
   28372   28373   28373       0   28375   28376   28376       0   28378   28379
   28379       0   28381   28382   28382       0   28384   28385   28385       0
   28387   28388   28388       0   28390   28391   28391       0   28393   28394
   28394       0   28396   28397   28397       0   28399   28400   28400       0
   28402   28403   28403       0   28405   28406   28406       0   28408   28409
   28409       0   28411   28412   28412       0   28414   28415   28415       0
   28417   28418   28418       0   28420   28421   28421       0   28423   28424
   28424       0   28426   28427   28427       0   28429   28430   28430       0
   28432   28433   28433       0   28435   28436   28436       0   28438   28439
   28439       0   28441   28442   28442       0   28444   28445   28445       0
   28447   28448   28448       0   28450   28451   28451       0   28453   28454
   28454       0   28456   28457   28457       0   28459   28460   28460       0
   28462   28463   28463       0   28465   28466   28466       0   28468   28469
   28469       0   28471   28472   28472       0   28474   28475   28475       0
   28477   28478   28478       0   28480   28481   28481       0   28483   28484
   28484       0   28486   28487   28487       0   28489   28490   28490       0
   28492   28493   28493       0   28495   28496   28496       0   28498   28499
   28499       0   28501   28502   28502       0   28504   28505   28505       0
   28507   28508   28508       0   28510   28511   28511       0   28513   28514
   28514       0   28516   28517   28517       0   28519   28520   28520       0
   28522   28523   28523       0   28525   28526   28526       0   28528   28529
   28529       0   28531   28532   28532       0   28534   28535   28535       0
   28537   28538   28538       0   28540   28541   28541       0   28543   28544
   28544       0   28546   28547   28547       0   28549   28550   28550       0
   28552   28553   28553       0   28555   28556   28556       0   28558   28559
   28559       0   28561   28562   28562       0   28564   28565   28565       0
   28567   28568   28568       0   28570   28571   28571       0   28573   28574
   28574       0   28576   28577   28577       0   28579   28580   28580       0
   28582   28583   28583       0   28585   28586   28586       0   28588   28589
   28589       0   28591   28592   28592       0   28594   28595   28595       0
   28597   28598   28598       0   28600   28601   28601       0   28603   28604
   28604       0   28606   28607   28607       0   28609   28610   28610       0
   28612   28613   28613       0   28615   28616   28616       0   28618   28619
   28619       0   28621   28622   28622       0   28624   28625   28625       0
   28627   28628   28628       0   28630   28631   28631       0   28633   28634
   28634       0   28636   28637   28637       0   28639   28640   28640       0
   28642   28643   28643       0   28645   28646   28646       0   28648   28649
   28649       0   28651   28652   28652       0   28654   28655   28655       0
   28657   28658   28658       0   28660   28661   28661       0   28663   28664
   28664       0   28666   28667   28667       0   28669   28670   28670       0
   28672   28673   28673       0   28675   28676   28676       0   28678   28679
   28679       0   28681   28682   28682       0   28684   28685   28685       0
   28687   28688   28688       0   28690   28691   28691       0   28693   28694
   28694       0   28696   28697   28697       0   28699   28700   28700       0
   28702   28703   28703       0   28705   28706   28706       0   28708   28709
   28709       0   28711   28712   28712       0   28714   28715   28715       0
   28717   28718   28718       0   28720   28721   28721       0   28723   28724
   28724       0   28726   28727   28727       0   28729   28730   28730       0
   28732   28733   28733       0   28735   28736   28736       0   28738   28739
   28739       0   28741   28742   28742       0   28744   28745   28745       0
   28747   28748   28748       0   28750   28751   28751       0   28753   28754
   28754       0   28756   28757   28757       0   28759   28760   28760       0
   28762   28763   28763       0   28765   28766   28766       0   28768   28769
   28769       0   28771   28772   28772       0   28774   28775   28775       0
   28777   28778   28778       0   28780   28781   28781       0   28783   28784
   28784       0   28786   28787   28787       0   28789   28790   28790       0
   28792   28793   28793       0   28795   28796   28796       0   28798   28799
   28799       0   28801   28802   28802       0   28804   28805   28805       0
   28807   28808   28808       0   28810   28811   28811       0   28813   28814
   28814       0   28816   28817   28817       0   28819   28820   28820       0
   28822   28823   28823       0   28825   28826   28826       0   28828   28829
   28829       0   28831   28832   28832       0   28834   28835   28835       0
   28837   28838   28838       0   28840   28841   28841       0   28843   28844
   28844       0   28846   28847   28847       0   28849   28850   28850       0
   28852   28853   28853       0   28855   28856   28856       0   28858   28859
   28859       0   28861   28862   28862       0   28864   28865   28865       0
   28867   28868   28868       0   28870   28871   28871       0   28873   28874
   28874       0   28876   28877   28877       0   28879   28880   28880       0
   28882   28883   28883       0   28885   28886   28886       0   28888   28889
   28889       0   28891   28892   28892       0   28894   28895   28895       0
   28897   28898   28898       0   28900   28901   28901       0   28903   28904
   28904       0   28906   28907   28907       0   28909   28910   28910       0
   28912   28913   28913       0   28915   28916   28916       0   28918   28919
   28919       0   28921   28922   28922       0   28924   28925   28925       0
   28927   28928   28928       0   28930   28931   28931       0   28933   28934
   28934       0   28936   28937   28937       0   28939   28940   28940       0
   28942   28943   28943       0   28945   28946   28946       0   28948   28949
   28949       0   28951   28952   28952       0   28954   28955   28955       0
   28957   28958   28958       0   28960   28961   28961       0   28963   28964
   28964       0   28966   28967   28967       0   28969   28970   28970       0
   28972   28973   28973       0   28975   28976   28976       0   28978   28979
   28979       0   28981   28982   28982       0   28984   28985   28985       0
   28987   28988   28988       0   28990   28991   28991       0   28993   28994
   28994       0   28996   28997   28997       0   28999   29000   29000       0
   29002   29003   29003       0   29005   29006   29006       0   29008   29009
   29009       0   29011   29012   29012       0   29014   29015   29015       0
   29017   29018   29018       0   29020   29021   29021       0   29023   29024
   29024       0   29026   29027   29027       0   29029   29030   29030       0
   29032   29033   29033       0   29035   29036   29036       0   29038   29039
   29039       0   29041   29042   29042       0   29044   29045   29045       0
   29047   29048   29048       0   29050   29051   29051       0   29053   29054
   29054       0   29056   29057   29057       0   29059   29060   29060       0
   29062   29063   29063       0   29065   29066   29066       0   29068   29069
   29069       0   29071   29072   29072       0   29074   29075   29075       0
   29077   29078   29078       0   29080   29081   29081       0   29083   29084
   29084       0   29086   29087   29087       0   29089   29090   29090       0
   29092   29093   29093       0   29095   29096   29096       0   29098   29099
   29099       0   29101   29102   29102       0   29104   29105   29105       0
   29107   29108   29108       0   29110   29111   29111       0   29113   29114
   29114       0   29116   29117   29117       0   29119   29120   29120       0
   29122   29123   29123       0   29125   29126   29126       0   29128   29129
   29129       0   29131   29132   29132       0   29134   29135   29135       0
   29137   29138   29138       0   29140   29141   29141       0   29143   29144
   29144       0   29146   29147   29147       0   29149   29150   29150       0
   29152   29153   29153       0   29155   29156   29156       0   29158   29159
   29159       0   29161   29162   29162       0   29164   29165   29165       0
   29167   29168   29168       0   29170   29171   29171       0   29173   29174
   29174       0   29176   29177   29177       0   29179   29180   29180       0
   29182   29183   29183       0   29185   29186   29186       0   29188   29189
   29189       0   29191   29192   29192       0   29194   29195   29195       0
   29197   29198   29198       0   29200   29201   29201       0   29203   29204
   29204       0   29206   29207   29207       0   29209   29210   29210       0
   29212   29213   29213       0   29215   29216   29216       0   29218   29219
   29219       0   29221   29222   29222       0   29224   29225   29225       0
   29227   29228   29228       0   29230   29231   29231       0   29233   29234
   29234       0   29236   29237   29237       0   29239   29240   29240       0
   29242   29243   29243       0   29245   29246   29246       0   29248   29249
   29249       0   29251   29252   29252       0   29254   29255   29255       0
   29257   29258   29258       0   29260   29261   29261       0   29263   29264
   29264       0   29266   29267   29267       0   29269   29270   29270       0
   29272   29273   29273       0   29275   29276   29276       0   29278   29279
   29279       0   29281   29282   29282       0   29284   29285   29285       0
   29287   29288   29288       0   29290   29291   29291       0   29293   29294
   29294       0   29296   29297   29297       0   29299   29300   29300       0
   29302   29303   29303       0   29305   29306   29306       0   29308   29309
   29309       0   29311   29312   29312       0   29314   29315   29315       0
   29317   29318   29318       0   29320   29321   29321       0   29323   29324
   29324       0   29326   29327   29327       0   29329   29330   29330       0
   29332   29333   29333       0   29335   29336   29336       0   29338   29339
   29339       0   29341   29342   29342       0   29344   29345   29345       0
   29347   29348   29348       0   29350   29351   29351       0   29353   29354
   29354       0   29356   29357   29357       0   29359   29360   29360       0
   29362   29363   29363       0   29365   29366   29366       0   29368   29369
   29369       0   29371   29372   29372       0   29374   29375   29375       0
   29377   29378   29378       0   29380   29381   29381       0   29383   29384
   29384       0   29386   29387   29387       0   29389   29390   29390       0
   29392   29393   29393       0   29395   29396   29396       0   29398   29399
   29399       0   29401   29402   29402       0   29404   29405   29405       0
   29407   29408   29408       0   29410   29411   29411       0   29413   29414
   29414       0   29416   29417   29417       0   29419   29420   29420       0
   29422   29423   29423       0   29425   29426   29426       0   29428   29429
   29429       0   29431   29432   29432       0   29434   29435   29435       0
   29437   29438   29438       0   29440   29441   29441       0   29443   29444
   29444       0   29446   29447   29447       0   29449   29450   29450       0
   29452   29453   29453       0   29455   29456   29456       0   29458   29459
   29459       0   29461   29462   29462       0   29464   29465   29465       0
   29467   29468   29468       0   29470   29471   29471       0   29473   29474
   29474       0   29476   29477   29477       0   29479   29480   29480       0
   29482   29483   29483       0   29485   29486   29486       0   29488   29489
   29489       0   29491   29492   29492       0   29494   29495   29495       0
   29497   29498   29498       0   29500   29501   29501       0   29503   29504
   29504       0   29506   29507   29507       0   29509   29510   29510       0
   29512   29513   29513       0   29515   29516   29516       0   29518   29519
   29519       0   29521   29522   29522       0   29524   29525   29525       0
   29527   29528   29528       0   29530   29531   29531       0   29533   29534
   29534       0   29536   29537   29537       0   29539   29540   29540       0
   29542   29543   29543       0   29545   29546   29546       0   29548   29549
   29549       0   29551   29552   29552       0   29554   29555   29555       0
   29557   29558   29558       0   29560   29561   29561       0   29563   29564
   29564       0   29566   29567   29567       0   29569   29570   29570       0
   29572   29573   29573       0   29575   29576   29576       0   29578   29579
   29579       0   29581   29582   29582       0   29584   29585   29585       0
   29587   29588   29588       0   29590   29591   29591       0   29593   29594
   29594       0   29596   29597   29597       0   29599   29600   29600       0
   29602   29603   29603       0   29605   29606   29606       0   29608   29609
   29609       0   29611   29612   29612       0   29614   29615   29615       0
   29617   29618   29618       0   29620   29621   29621       0   29623   29624
   29624       0   29626   29627   29627       0   29629   29630   29630       0
   29632   29633   29633       0   29635   29636   29636       0   29638   29639
   29639       0   29641   29642   29642       0   29644   29645   29645       0
   29647   29648   29648       0   29650   29651   29651       0   29653   29654
   29654       0   29656   29657   29657       0   29659   29660   29660       0
   29662   29663   29663       0   29665   29666   29666       0   29668   29669
   29669       0   29671   29672   29672       0   29674   29675   29675       0
   29677   29678   29678       0   29680   29681   29681       0   29683   29684
   29684       0   29686   29687   29687       0   29689   29690   29690       0
   29692   29693   29693       0   29695   29696   29696       0   29698   29699
   29699       0   29701   29702   29702       0   29704   29705   29705       0
   29707   29708   29708       0   29710   29711   29711       0   29713   29714
   29714       0   29716   29717   29717       0   29719   29720   29720       0
   29722   29723   29723       0   29725   29726   29726       0   29728   29729
   29729       0   29731   29732   29732       0   29734   29735   29735       0
   29737   29738   29738       0   29740   29741   29741       0   29743   29744
   29744       0   29746   29747   29747       0   29749   29750   29750       0
   29752   29753   29753       0   29755   29756   29756       0   29758   29759
   29759       0   29761   29762   29762       0   29764   29765   29765       0
   29767   29768   29768       0   29770   29771   29771       0   29773   29774
   29774       0   29776   29777   29777       0   29779   29780   29780       0
   29782   29783   29783       0   29785   29786   29786       0   29788   29789
   29789       0   29791   29792   29792       0   29794   29795   29795       0
   29797   29798   29798       0   29800   29801   29801       0   29803   29804
   29804       0   29806   29807   29807       0   29809   29810   29810       0
   29812   29813   29813       0   29815   29816   29816       0   29818   29819
   29819       0   29821   29822   29822       0   29824   29825   29825       0
   29827   29828   29828       0   29830   29831   29831       0   29833   29834
   29834       0   29836   29837   29837       0   29839   29840   29840       0
   29842   29843   29843       0   29845   29846   29846       0   29848   29849
   29849       0   29851   29852   29852       0   29854   29855   29855       0
   29857   29858   29858       0   29860   29861   29861       0   29863   29864
   29864       0   29866   29867   29867       0   29869   29870   29870       0
   29872   29873   29873       0   29875   29876   29876       0   29878   29879
   29879       0   29881   29882   29882       0   29884   29885   29885       0
   29887   29888   29888       0   29890   29891   29891       0   29893   29894
   29894       0   29896   29897   29897       0   29899   29900   29900       0
   29902   29903   29903       0   29905   29906   29906       0   29908   29909
   29909       0   29911   29912   29912       0   29914   29915   29915       0
   29917   29918   29918       0   29920   29921   29921       0   29923   29924
   29924       0   29926   29927   29927       0   29929   29930   29930       0
   29932   29933   29933       0   29935   29936   29936       0   29938   29939
   29939       0   29941   29942   29942       0   29944   29945   29945       0
   29947   29948   29948       0   29950   29951   29951       0   29953   29954
   29954       0   29956   29957   29957       0   29959   29960   29960       0
   29962   29963   29963       0   29965   29966   29966       0   29968   29969
   29969       0   29971   29972   29972       0   29974   29975   29975       0
   29977   29978   29978       0   29980   29981   29981       0   29983   29984
   29984       0   29986   29987   29987       0   29989   29990   29990       0
   29992   29993   29993       0   29995   29996   29996       0   29998   29999
   29999       0   30001   30002   30002       0   30004   30005   30005       0
   30007   30008   30008       0   30010   30011   30011       0   30013   30014
   30014       0   30016   30017   30017       0   30019   30020   30020       0
   30022   30023   30023       0   30025   30026   30026       0   30028   30029
   30029       0   30031   30032   30032       0   30034   30035   30035       0
   30037   30038   30038       0   30040   30041   30041       0   30043   30044
   30044       0   30046   30047   30047       0   30049   30050   30050       0
   30052   30053   30053       0   30055   30056   30056       0   30058   30059
   30059       0   30061   30062   30062       0   30064   30065   30065       0
   30067   30068   30068       0   30070   30071   30071       0   30073   30074
   30074       0   30076   30077   30077       0   30079   30080   30080       0
   30082   30083   30083       0   30085   30086   30086       0   30088   30089
   30089       0   30091   30092   30092       0   30094   30095   30095       0
   30097   30098   30098       0   30100   30101   30101       0   30103   30104
   30104       0   30106   30107   30107       0   30109   30110   30110       0
   30112   30113   30113       0   30115   30116   30116       0   30118   30119
   30119       0   30121   30122   30122       0   30124   30125   30125       0
   30127   30128   30128       0   30130   30131   30131       0   30133   30134
   30134       0   30136   30137   30137       0   30139   30140   30140       0
   30142   30143   30143       0   30145   30146   30146       0   30148   30149
   30149       0   30151   30152   30152       0   30154   30155   30155       0
   30157   30158   30158       0   30160   30161   30161       0   30163   30164
   30164       0   30166   30167   30167       0   30169   30170   30170       0
   30172   30173   30173       0   30175   30176   30176       0   30178   30179
   30179       0   30181   30182   30182       0   30184   30185   30185       0
   30187   30188   30188       0   30190   30191   30191       0   30193   30194
   30194       0   30196   30197   30197       0   30199   30200   30200       0
   30202   30203   30203       0   30205   30206   30206       0   30208   30209
   30209       0   30211   30212   30212       0   30214   30215   30215       0
   30217   30218   30218       0   30220   30221   30221       0   30223   30224
   30224       0   30226   30227   30227       0   30229   30230   30230       0
   30232   30233   30233       0   30235   30236   30236       0   30238   30239
   30239       0   30241   30242   30242       0   30244   30245   30245       0
   30247   30248   30248       0   30250   30251   30251       0   30253   30254
   30254       0   30256   30257   30257       0   30259   30260   30260       0
   30262   30263   30263       0   30265   30266   30266       0   30268   30269
   30269       0   30271   30272   30272       0   30274   30275   30275       0
   30277   30278   30278       0   30280   30281   30281       0   30283   30284
   30284       0   30286   30287   30287       0   30289   30290   30290       0
   30292   30293   30293       0   30295   30296   30296       0   30298   30299
   30299       0   30301   30302   30302       0   30304   30305   30305       0
   30307   30308   30308       0   30310   30311   30311       0   30313   30314
   30314       0   30316   30317   30317       0   30319   30320   30320       0
   30322   30323   30323       0   30325   30326   30326       0   30328   30329
   30329       0   30331   30332   30332       0   30334   30335   30335       0
   30337   30338   30338       0   30340   30341   30341       0   30343   30344
   30344       0   30346   30347   30347       0   30349   30350   30350       0
   30352   30353   30353       0   30355   30356   30356       0   30358   30359
   30359       0   30361   30362   30362       0   30364   30365   30365       0
   30367   30368   30368       0   30370   30371   30371       0   30373   30374
   30374       0   30376   30377   30377       0   30379   30380   30380       0
   30382   30383   30383       0   30385   30386   30386       0   30388   30389
   30389       0   30391   30392   30392       0   30394   30395   30395       0
   30397   30398   30398       0   30400   30401   30401       0   30403   30404
   30404       0   30406   30407   30407       0   30409   30410   30410       0
   30412   30413   30413       0   30415   30416   30416       0   30418   30419
   30419       0   30421   30422   30422       0   30424   30425   30425       0
   30427   30428   30428       0   30430   30431   30431       0   30433   30434
   30434       0   30436   30437   30437       0   30439   30440   30440       0
   30442   30443   30443       0   30445   30446   30446       0   30448   30449
   30449       0   30451   30452   30452       0   30454   30455   30455       0
   30457   30458   30458       0   30460   30461   30461       0   30463   30464
   30464       0   30466   30467   30467       0   30469   30470   30470       0
   30472   30473   30473       0   30475   30476   30476       0   30478   30479
   30479       0   30481   30482   30482       0   30484   30485   30485       0
   30487   30488   30488       0   30490   30491   30491       0   30493   30494
   30494       0   30496   30497   30497       0   30499   30500   30500       0
   30502   30503   30503       0   30505   30506   30506       0   30508   30509
   30509       0   30511   30512   30512       0   30514   30515   30515       0
   30517   30518   30518       0   30520   30521   30521       0   30523   30524
   30524       0   30526   30527   30527       0   30529   30530   30530       0
   30532   30533   30533       0   30535   30536   30536       0   30538   30539
   30539       0   30541   30542   30542       0   30544   30545   30545       0
   30547   30548   30548       0   30550   30551   30551       0   30553   30554
   30554       0   30556   30557   30557       0   30559   30560   30560       0
   30562   30563   30563       0   30565   30566   30566       0   30568   30569
   30569       0   30571   30572   30572       0   30574   30575   30575       0
   30577   30578   30578       0   30580   30581   30581       0   30583   30584
   30584       0   30586   30587   30587       0   30589   30590   30590       0
   30592   30593   30593       0   30595   30596   30596       0   30598   30599
   30599       0   30601   30602   30602       0   30604   30605   30605       0
   30607   30608   30608       0   30610   30611   30611       0   30613   30614
   30614       0   30616   30617   30617       0   30619   30620   30620       0
   30622   30623   30623       0   30625   30626   30626       0   30628   30629
   30629       0   30631   30632   30632       0   30634   30635   30635       0
   30637   30638   30638       0   30640   30641   30641       0   30643   30644
   30644       0   30646   30647   30647       0   30649   30650   30650       0
   30652   30653   30653       0   30655   30656   30656       0   30658   30659
   30659       0   30661   30662   30662       0   30664   30665   30665       0
   30667   30668   30668       0   30670   30671   30671       0   30673   30674
   30674       0   30676   30677   30677       0   30679   30680   30680       0
   30682   30683   30683       0   30685   30686   30686       0   30688   30689
   30689       0   30691   30692   30692       0   30694   30695   30695       0
   30697   30698   30698       0   30700   30701   30701       0   30703   30704
   30704       0   30706   30707   30707       0   30709   30710   30710       0
   30712   30713   30713       0   30715   30716   30716       0   30718   30719
   30719       0   30721   30722   30722       0   30724   30725   30725       0
   30727   30728   30728       0   30730   30731   30731       0   30733   30734
   30734       0   30736   30737   30737       0   30739   30740   30740       0
   30742   30743   30743       0   30745   30746   30746       0   30748   30749
   30749       0   30751   30752   30752       0   30754   30755   30755       0
   30757   30758   30758       0   30760   30761   30761       0   30763   30764
   30764       0   30766   30767   30767       0   30769   30770   30770       0
   30772   30773   30773       0   30775   30776   30776       0   30778   30779
   30779       0   30781   30782   30782       0   30784   30785   30785       0
   30787   30788   30788       0   30790   30791   30791       0   30793   30794
   30794       0   30796   30797   30797       0   30799   30800   30800       0
   30802   30803   30803       0   30805   30806   30806       0   30808   30809
   30809       0   30811   30812   30812       0   30814   30815   30815       0
   30817   30818   30818       0   30820   30821   30821       0   30823   30824
   30824       0   30826   30827   30827       0   30829   30830   30830       0
   30832   30833   30833       0   30835   30836   30836       0   30838   30839
   30839       0   30841   30842   30842       0   30844   30845   30845       0
   30847   30848   30848       0   30850   30851   30851       0   30853   30854
   30854       0   30856   30857   30857       0   30859   30860   30860       0
   30862   30863   30863       0   30865   30866   30866       0   30868   30869
   30869       0   30871   30872   30872       0   30874   30875   30875       0
   30877   30878   30878       0   30880   30881   30881       0   30883   30884
   30884       0   30886   30887   30887       0   30889   30890   30890       0
   30892   30893   30893       0   30895   30896   30896       0   30898   30899
   30899       0   30901   30902   30902       0   30904   30905   30905       0
   30907   30908   30908       0   30910   30911   30911       0   30913   30914
   30914       0   30916   30917   30917       0   30919   30920   30920       0
   30922   30923   30923       0   30925   30926   30926       0   30928   30929
   30929       0   30931   30932   30932       0   30934   30935   30935       0
   30937   30938   30938       0   30940   30941   30941       0   30943   30944
   30944       0   30946   30947   30947       0   30949   30950   30950       0
   30952   30953   30953       0   30955   30956   30956       0   30958   30959
   30959       0   30961   30962   30962       0   30964   30965   30965       0
   30967   30968   30968       0   30970   30971   30971       0   30973   30974
   30974       0   30976   30977   30977       0   30979   30980   30980       0
   30982   30983   30983       0   30985   30986   30986       0   30988   30989
   30989       0   30991   30992   30992       0   30994   30995   30995       0
   30997   30998   30998       0   31000   31001   31001       0   31003   31004
   31004       0   31006   31007   31007       0   31009   31010   31010       0
   31012   31013   31013       0   31015   31016   31016       0   31018   31019
   31019       0   31021   31022   31022       0   31024   31025   31025       0
   31027   31028   31028       0   31030   31031   31031       0   31033   31034
   31034       0   31036   31037   31037       0   31039   31040   31040       0
   31042   31043   31043       0   31045   31046   31046       0   31048   31049
   31049       0   31051   31052   31052       0   31054   31055   31055       0
   31057   31058   31058       0   31060   31061   31061       0   31063   31064
   31064       0   31066   31067   31067       0   31069   31070   31070       0
   31072   31073   31073       0   31075   31076   31076       0   31078   31079
   31079       0   31081   31082   31082       0   31084   31085   31085       0
   31087   31088   31088       0   31090   31091   31091       0   31093   31094
   31094       0   31096   31097   31097       0   31099   31100   31100       0
   31102   31103   31103       0   31105   31106   31106       0   31108   31109
   31109       0   31111   31112   31112       0   31114   31115   31115       0
   31117   31118   31118       0   31120   31121   31121       0   31123   31124
   31124       0   31126   31127   31127       0   31129   31130   31130       0
   31132   31133   31133       0   31135   31136   31136       0   31138   31139
   31139       0   31141   31142   31142       0   31144   31145   31145       0
   31147   31148   31148       0   31150   31151   31151       0   31153   31154
   31154       0   31156   31157   31157       0   31159   31160   31160       0
   31162   31163   31163       0   31165   31166   31166       0   31168   31169
   31169       0   31171   31172   31172       0   31174   31175   31175       0
   31177   31178   31178       0   31180   31181   31181       0   31183   31184
   31184       0   31186   31187   31187       0   31189   31190   31190       0
   31192   31193   31193       0   31195   31196   31196       0   31198   31199
   31199       0   31201   31202   31202       0   31204   31205   31205       0
   31207   31208   31208       0   31210   31211   31211       0   31213   31214
   31214       0   31216   31217   31217       0   31219   31220   31220       0
   31222   31223   31223       0   31225   31226   31226       0   31228   31229
   31229       0   31231   31232   31232       0   31234   31235   31235       0
   31237   31238   31238       0   31240   31241   31241       0   31243   31244
   31244       0   31246   31247   31247       0   31249   31250   31250       0
   31252   31253   31253       0   31255   31256   31256       0   31258   31259
   31259       0   31261   31262   31262       0   31264   31265   31265       0
   31267   31268   31268       0   31270   31271   31271       0   31273   31274
   31274       0   31276   31277   31277       0   31279   31280   31280       0
   31282   31283   31283       0   31285   31286   31286       0   31288   31289
   31289       0   31291   31292   31292       0   31294   31295   31295       0
   31297   31298   31298       0   31300   31301   31301       0   31303   31304
   31304       0   31306   31307   31307       0   31309   31310   31310       0
   31312   31313   31313       0   31315   31316   31316       0   31318   31319
   31319       0   31321   31322   31322       0   31324   31325   31325       0
   31327   31328   31328       0   31330   31331   31331       0   31333   31334
   31334       0   31336   31337   31337       0   31339   31340   31340       0
   31342   31343   31343       0   31345   31346   31346       0   31348   31349
   31349       0   31351   31352   31352       0   31354   31355   31355       0
   31357   31358   31358       0   31360   31361   31361       0   31363   31364
   31364       0   31366   31367   31367       0   31369   31370   31370       0
   31372   31373   31373       0   31375   31376   31376       0   31378   31379
   31379       0   31381   31382   31382       0   31384   31385   31385       0
   31387   31388   31388       0   31390   31391   31391       0   31393   31394
   31394       0   31396   31397   31397       0   31399   31400   31400       0
   31402   31403   31403       0   31405   31406   31406       0   31408   31409
   31409       0   31411   31412   31412       0   31414   31415   31415       0
   31417   31418   31418       0   31420   31421   31421       0   31423   31424
   31424       0   31426   31427   31427       0   31429   31430   31430       0
   31432   31433   31433       0   31435   31436   31436       0   31438   31439
   31439       0   31441   31442   31442       0   31444   31445   31445       0
   31447   31448   31448       0   31450   31451   31451       0   31453   31454
   31454       0   31456   31457   31457       0   31459   31460   31460       0
   31462   31463   31463       0   31465   31466   31466       0   31468   31469
   31469       0   31471   31472   31472       0   31474   31475   31475       0
   31477   31478   31478       0   31480   31481   31481       0   31483   31484
   31484       0   31486   31487   31487       0   31489   31490   31490       0
   31492   31493   31493       0   31495   31496   31496       0   31498   31499
   31499       0   31501   31502   31502       0   31504   31505   31505       0
   31507   31508   31508       0   31510   31511   31511       0   31513   31514
   31514       0   31516   31517   31517       0   31519   31520   31520       0
   31522   31523   31523       0   31525   31526   31526       0   31528   31529
   31529       0   31531   31532   31532       0   31534   31535   31535       0
   31537   31538   31538       0   31540   31541   31541       0   31543   31544
   31544       0   31546   31547   31547       0   31549   31550   31550       0
   31552   31553   31553       0   31555   31556   31556       0   31558   31559
   31559       0   31561   31562   31562       0   31564   31565   31565       0
   31567   31568   31568       0   31570   31571   31571       0   31573   31574
   31574       0   31576   31577   31577       0   31579   31580   31580       0
   31582   31583   31583       0   31585   31586   31586       0   31588   31589
   31589       0   31591   31592   31592       0   31594   31595   31595       0
   31597   31598   31598       0   31600   31601   31601       0   31603   31604
   31604       0   31606   31607   31607       0   31609   31610   31610       0
   31612   31613   31613       0   31615   31616   31616       0   31618   31619
   31619       0   31621   31622   31622       0   31624   31625   31625       0
   31627   31628   31628       0   31630   31631   31631       0   31633   31634
   31634       0   31636   31637   31637       0   31639   31640   31640       0
   31642   31643   31643       0   31645   31646   31646       0   31648   31649
   31649       0   31651   31652   31652       0   31654   31655   31655       0
   31657   31658   31658       0   31660   31661   31661       0   31663   31664
   31664       0   31666   31667   31667       0   31669   31670   31670       0
   31672   31673   31673       0   31675   31676   31676       0   31678   31679
   31679       0   31681   31682   31682       0   31684   31685   31685       0
   31687   31688   31688       0   31690   31691   31691       0   31693   31694
   31694       0   31696   31697   31697       0   31699   31700   31700       0
   31702   31703   31703       0   31705   31706   31706       0   31708   31709
   31709       0   31711   31712   31712       0   31714   31715   31715       0
   31717   31718   31718       0   31720   31721   31721       0   31723   31724
   31724       0   31726   31727   31727       0   31729   31730   31730       0
   31732   31733   31733       0   31735   31736   31736       0   31738   31739
   31739       0   31741   31742   31742       0   31744   31745   31745       0
   31747   31748   31748       0   31750   31751   31751       0   31753   31754
   31754       0   31756   31757   31757       0   31759   31760   31760       0
   31762   31763   31763       0   31765   31766   31766       0   31768   31769
   31769       0   31771   31772   31772       0   31774   31775   31775       0
   31777   31778   31778       0   31780   31781   31781       0   31783   31784
   31784       0   31786   31787   31787       0   31789   31790   31790       0
   31792   31793   31793       0   31795   31796   31796       0   31798   31799
   31799       0   31801   31802   31802       0   31804   31805   31805       0
   31807   31808   31808       0   31810   31811   31811       0   31813   31814
   31814       0   31816   31817   31817       0   31819   31820   31820       0
   31822   31823   31823       0   31825   31826   31826       0   31828   31829
   31829       0   31831   31832   31832       0   31834   31835   31835       0
   31837   31838   31838       0   31840   31841   31841       0   31843   31844
   31844       0   31846   31847   31847       0   31849   31850   31850       0
   31852   31853   31853       0   31855   31856   31856       0   31858   31859
   31859       0   31861   31862   31862       0   31864   31865   31865       0
   31867   31868   31868       0   31870   31871   31871       0   31873   31874
   31874       0   31876   31877   31877       0   31879   31880   31880       0
   31882   31883   31883       0   31885   31886   31886       0   31888   31889
   31889       0   31891   31892   31892       0   31894   31895   31895       0
   31897   31898   31898       0   31900   31901   31901       0   31903   31904
   31904       0   31906   31907   31907       0   31909   31910   31910       0
   31912   31913   31913       0   31915   31916   31916       0   31918   31919
   31919       0   31921   31922   31922       0   31924   31925   31925       0
   31927   31928   31928       0   31930   31931   31931       0   31933   31934
   31934       0   31936   31937   31937       0   31939   31940   31940       0
   31942   31943   31943       0   31945   31946   31946       0   31948   31949
   31949       0   31951   31952   31952       0   31954   31955   31955       0
   31957   31958   31958       0   31960   31961   31961       0   31963   31964
   31964       0   31966   31967   31967       0   31969   31970   31970       0
   31972   31973   31973       0   31975   31976   31976       0   31978   31979
   31979       0   31981   31982   31982       0   31984   31985   31985       0
   31987   31988   31988       0   31990   31991   31991       0   31993   31994
   31994       0   31996   31997   31997       0   31999   32000   32000       0
   32002   32003   32003       0   32005   32006   32006       0   32008   32009
   32009       0   32011   32012   32012       0   32014   32015   32015       0
   32017   32018   32018       0   32020   32021   32021       0   32023   32024
   32024       0   32026   32027   32027       0   32029   32030   32030       0
   32032   32033   32033       0   32035   32036   32036       0   32038   32039
   32039       0   32041   32042   32042       0   32044   32045   32045       0
   32047   32048   32048       0   32050   32051   32051       0   32053   32054
   32054       0   32056   32057   32057       0   32059   32060   32060       0
   32062   32063   32063       0   32065   32066   32066       0   32068   32069
   32069       0   32071   32072   32072       0   32074   32075   32075       0
   32077   32078   32078       0   32080   32081   32081       0   32083   32084
   32084       0   32086   32087   32087       0   32089   32090   32090       0
   32092   32093   32093       0   32095   32096   32096       0   32098   32099
   32099       0   32101   32102   32102       0   32104   32105   32105       0
   32107   32108   32108       0   32110   32111   32111       0   32113   32114
   32114       0   32116   32117   32117       0   32119   32120   32120       0
   32122   32123   32123       0   32125   32126   32126       0   32128   32129
   32129       0   32131   32132   32132       0   32134   32135   32135       0
   32137   32138   32138       0   32140   32141   32141       0   32143   32144
   32144       0   32146   32147   32147       0   32149   32150   32150       0
   32152   32153   32153       0   32155   32156   32156       0   32158   32159
   32159       0   32161   32162   32162       0   32164   32165   32165       0
   32167   32168   32168       0   32170   32171   32171       0   32173   32174
   32174       0   32176   32177   32177       0   32179   32180   32180       0
   32182   32183   32183       0   32185   32186   32186       0   32188   32189
   32189       0   32191   32192   32192       0   32194   32195   32195       0
   32197   32198   32198       0   32200   32201   32201       0   32203   32204
   32204       0   32206   32207   32207       0   32209   32210   32210       0
   32212   32213   32213       0   32215   32216   32216       0   32218   32219
   32219       0   32221   32222   32222       0   32224   32225   32225       0
   32227   32228   32228       0   32230   32231   32231       0   32233   32234
   32234       0   32236   32237   32237       0   32239   32240   32240       0
   32242   32243   32243       0   32245   32246   32246       0   32248   32249
   32249       0   32251   32252   32252       0   32254   32255   32255       0
   32257   32258   32258       0   32260   32261   32261       0   32263   32264
   32264       0   32266   32267   32267       0   32269   32270   32270       0
   32272   32273   32273       0   32275   32276   32276       0   32278   32279
   32279       0   32281   32282   32282       0   32284   32285   32285       0
   32287   32288   32288       0   32290   32291   32291       0   32293   32294
   32294       0   32296   32297   32297       0   32299   32300   32300       0
   32302   32303   32303       0   32305   32306   32306       0   32308   32309
   32309       0   32311   32312   32312       0   32314   32315   32315       0
   32317   32318   32318       0   32320   32321   32321       0   32323   32324
   32324       0   32326   32327   32327       0   32329   32330   32330       0
   32332   32333   32333       0   32335   32336   32336       0   32338   32339
   32339       0   32341   32342   32342       0   32344   32345   32345       0
   32347   32348   32348       0   32350   32351   32351       0   32353   32354
   32354       0   32356   32357   32357       0   32359   32360   32360       0
   32362   32363   32363       0   32365   32366   32366       0   32368   32369
   32369       0   32371   32372   32372       0   32374   32375   32375       0
   32377   32378   32378       0   32380   32381   32381       0   32383   32384
   32384       0   32386   32387   32387       0   32389   32390   32390       0
   32392   32393   32393       0   32395   32396   32396       0   32398   32399
   32399       0   32401   32402   32402       0   32404   32405   32405       0
   32407   32408   32408       0   32410   32411   32411       0   32413   32414
   32414       0   32416   32417   32417       0   32419   32420   32420       0
   32422   32423   32423       0   32425   32426   32426       0   32428   32429
   32429       0   32431   32432   32432       0   32434   32435   32435       0
   32437   32438   32438       0   32440   32441   32441       0   32443   32444
   32444       0   32446   32447   32447       0   32449   32450   32450       0
   32452   32453   32453       0   32455   32456   32456       0   32458   32459
   32459       0   32461   32462   32462       0   32464   32465   32465       0
   32467   32468   32468       0   32470   32471   32471       0   32473   32474
   32474       0   32476   32477   32477       0   32479   32480   32480       0
   32482   32483   32483       0   32485   32486   32486       0   32488   32489
   32489       0   32491   32492   32492       0   32494   32495   32495       0
   32497   32498   32498       0   32500   32501   32501       0   32503   32504
   32504       0   32506   32507   32507       0   32509   32510   32510       0
   32512   32513   32513       0   32515   32516   32516       0   32518   32519
   32519       0   32521   32522   32522       0   32524   32525   32525       0
   32527   32528   32528       0   32530   32531   32531       0   32533   32534
   32534       0   32536   32537   32537       0   32539   32540   32540       0
   32542   32543   32543       0   32545   32546   32546       0   32548   32549
   32549       0   32551   32552   32552       0   32554   32555   32555       0
   32557   32558   32558       0   32560   32561   32561       0   32563   32564
   32564       0   32566   32567   32567       0   32569   32570   32570       0
   32572   32573   32573       0   32575   32576   32576       0   32578   32579
   32579       0   32581   32582   32582       0   32584   32585   32585       0
   32587   32588   32588       0   32590   32591   32591       0   32593   32594
   32594       0   32596   32597   32597       0   32599   32600   32600       0
   32602   32603   32603       0   32605   32606   32606       0   32608   32609
   32609       0   32611   32612   32612       0   32614   32615   32615       0
   32617   32618   32618       0   32620   32621   32621       0   32623   32624
   32624       0   32626   32627   32627       0   32629   32630   32630       0
   32632   32633   32633       0   32635   32636   32636       0   32638   32639
   32639       0   32641   32642   32642       0   32644   32645   32645       0
   32647   32648   32648       0   32650   32651   32651       0   32653   32654
   32654       0   32656   32657   32657       0   32659   32660   32660       0
   32662   32663   32663       0   32665   32666   32666       0   32668   32669
   32669       0   32671   32672   32672       0   32674   32675   32675       0
   32677   32678   32678       0   32680   32681   32681       0   32683   32684
   32684       0   32686   32687   32687       0   32689   32690   32690       0
   32692   32693   32693       0   32695   32696   32696       0   32698   32699
   32699       0   32701   32702   32702       0   32704   32705   32705       0
   32707   32708   32708       0   32710   32711   32711       0   32713   32714
   32714       0   32716   32717   32717       0   32719   32720   32720       0
   32722   32723   32723       0   32725   32726   32726       0   32728   32729
   32729       0   32731   32732   32732       0   32734   32735   32735       0
   32737   32738   32738       0   32740   32741   32741       0   32743   32744
   32744       0   32746   32747   32747       0   32749   32750   32750       0
   32752   32753   32753       0   32755   32756   32756       0   32758   32759
   32759       0   32761   32762   32762       0   32764   32765   32765       0
   32767   32768   32768       0   32770   32771   32771       0   32773   32774
   32774       0   32776   32777   32777       0   32779   32780   32780       0
   32782   32783   32783       0   32785   32786   32786       0   32788   32789
   32789       0   32791   32792   32792       0   32794   32795   32795       0
   32797   32798   32798       0   32800   32801   32801       0   32803   32804
   32804       0   32806   32807   32807       0   32809   32810   32810       0
   32812   32813   32813       0   32815   32816   32816       0   32818   32819
   32819       0   32821   32822   32822       0   32824   32825   32825       0
   32827   32828   32828       0   32830   32831   32831       0   32833   32834
   32834       0   32836   32837   32837       0   32839   32840   32840       0
   32842   32843   32843       0   32845   32846   32846       0   32848   32849
   32849       0   32851   32852   32852       0   32854   32855   32855       0
   32857   32858   32858       0   32860   32861   32861       0   32863   32864
   32864       0   32866   32867   32867       0   32869   32870   32870       0
   32872   32873   32873       0   32875   32876   32876       0   32878   32879
   32879       0   32881   32882   32882       0   32884   32885   32885       0
   32887   32888   32888       0   32890   32891   32891       0   32893   32894
   32894       0   32896   32897   32897       0   32899   32900   32900       0
   32902   32903   32903       0   32905   32906   32906       0   32908   32909
   32909       0   32911   32912   32912       0   32914   32915   32915       0
   32917   32918   32918       0   32920   32921   32921       0   32923   32924
   32924       0   32926   32927   32927       0   32929   32930   32930       0
   32932   32933   32933       0   32935   32936   32936       0   32938   32939
   32939       0   32941   32942   32942       0   32944   32945   32945       0
   32947   32948   32948       0   32950   32951   32951       0   32953   32954
   32954       0   32956   32957   32957       0   32959   32960   32960       0
   32962   32963   32963       0   32965   32966   32966       0   32968   32969
   32969       0   32971   32972   32972       0   32974   32975   32975       0
   32977   32978   32978       0   32980   32981   32981       0   32983   32984
   32984       0   32986   32987   32987       0   32989   32990   32990       0
   32992   32993   32993       0   32995   32996   32996       0   32998   32999
   32999       0   33001   33002   33002       0   33004   33005   33005       0
   33007   33008   33008       0   33010   33011   33011       0   33013   33014
   33014       0   33016   33017   33017       0   33019   33020   33020       0
   33022   33023   33023       0   33025   33026   33026       0   33028   33029
   33029       0   33031   33032   33032       0   33034   33035   33035       0
   33037   33038   33038       0   33040   33041   33041       0   33043   33044
   33044       0   33046   33047   33047       0   33049   33050   33050       0
   33052   33053   33053       0   33055   33056   33056       0   33058   33059
   33059       0   33061   33062   33062       0   33064   33065   33065       0
   33067   33068   33068       0   33070   33071   33071       0   33073   33074
   33074       0   33076   33077   33077       0   33079   33080   33080       0
   33082   33083   33083       0   33085   33086   33086       0   33088   33089
   33089       0   33091   33092   33092       0   33094   33095   33095       0
   33097   33098   33098       0   33100   33101   33101       0   33103   33104
   33104       0   33106   33107   33107       0   33109   33110   33110       0
   33112   33113   33113       0   33115   33116   33116       0   33118   33119
   33119       0   33121   33122   33122       0   33124   33125   33125       0
   33127   33128   33128       0   33130   33131   33131       0   33133   33134
   33134       0   33136   33137   33137       0   33139   33140   33140       0
   33142   33143   33143       0   33145   33146   33146       0   33148   33149
   33149       0   33151   33152   33152       0   33154   33155   33155       0
   33157   33158   33158       0   33160   33161   33161       0   33163   33164
   33164       0   33166   33167   33167       0   33169   33170   33170       0
   33172   33173   33173       0   33175   33176   33176       0   33178   33179
   33179       0   33181   33182   33182       0   33184   33185   33185       0
   33187   33188   33188       0   33190   33191   33191       0   33193   33194
   33194       0   33196   33197   33197       0   33199   33200   33200       0
   33202   33203   33203       0   33205   33206   33206       0   33208   33209
   33209       0   33211   33212   33212       0   33214   33215   33215       0
   33217   33218   33218       0   33220   33221   33221       0   33223   33224
   33224       0   33226   33227   33227       0   33229   33230   33230       0
   33232   33233   33233       0   33235   33236   33236       0   33238   33239
   33239       0   33241   33242   33242       0   33244   33245   33245       0
   33247   33248   33248       0   33250   33251   33251       0   33253   33254
   33254       0   33256   33257   33257       0   33259   33260   33260       0
   33262   33263   33263       0   33265   33266   33266       0   33268   33269
   33269       0   33271   33272   33272       0   33274   33275   33275       0
   33277   33278   33278       0   33280   33281   33281       0   33283   33284
   33284       0   33286   33287   33287       0   33289   33290   33290       0
   33292   33293   33293       0   33295   33296   33296       0   33298   33299
   33299       0   33301   33302   33302       0   33304   33305   33305       0
   33307   33308   33308       0   33310   33311   33311       0   33313   33314
   33314       0   33316   33317   33317       0   33319   33320   33320       0
   33322   33323   33323       0   33325   33326   33326       0   33328   33329
   33329       0   33331   33332   33332       0   33334   33335   33335       0
   33337   33338   33338       0   33340   33341   33341       0   33343   33344
   33344       0   33346   33347   33347       0   33349   33350   33350       0
   33352   33353   33353       0   33355   33356   33356       0   33358   33359
   33359       0   33361   33362   33362       0   33364   33365   33365       0
   33367   33368   33368       0   33370   33371   33371       0   33373   33374
   33374       0   33376   33377   33377       0   33379   33380   33380       0
   33382   33383   33383       0   33385   33386   33386       0   33388   33389
   33389       0   33391   33392   33392       0   33394   33395   33395       0
   33397   33398   33398       0   33400   33401   33401       0   33403   33404
   33404       0   33406   33407   33407       0   33409   33410   33410       0
   33412   33413   33413       0   33415   33416   33416       0   33418   33419
   33419       0   33421   33422   33422       0   33424   33425   33425       0
   33427   33428   33428       0   33430   33431   33431       0   33433   33434
   33434       0   33436   33437   33437       0   33439   33440   33440       0
   33442   33443   33443       0   33445   33446   33446       0   33448   33449
   33449       0   33451   33452   33452       0   33454   33455   33455       0
   33457   33458   33458       0   33460   33461   33461       0   33463   33464
   33464       0   33466   33467   33467       0   33469   33470   33470       0
   33472   33473   33473       0   33475   33476   33476       0   33478   33479
   33479       0   33481   33482   33482       0   33484   33485   33485       0
   33487   33488   33488       0   33490   33491   33491       0   33493   33494
   33494       0   33496   33497   33497       0   33499   33500   33500       0
   33502   33503   33503       0   33505   33506   33506       0   33508   33509
   33509       0   33511   33512   33512       0   33514   33515   33515       0
   33517   33518   33518       0   33520   33521   33521       0   33523   33524
   33524       0   33526   33527   33527       0   33529   33530   33530       0
   33532   33533   33533       0   33535   33536   33536       0   33538   33539
   33539       0   33541   33542   33542       0   33544   33545   33545       0
   33547   33548   33548       0   33550   33551   33551       0   33553   33554
   33554       0   33556   33557   33557       0   33559   33560   33560       0
   33562   33563   33563       0   33565   33566   33566       0   33568   33569
   33569       0   33571   33572   33572       0   33574   33575   33575       0
   33577   33578   33578       0   33580   33581   33581       0   33583   33584
   33584       0   33586   33587   33587       0   33589   33590   33590       0
   33592   33593   33593       0   33595   33596   33596       0   33598   33599
   33599       0   33601   33602   33602       0   33604   33605   33605       0
   33607   33608   33608       0   33610   33611   33611       0   33613   33614
   33614       0   33616   33617   33617       0   33619   33620   33620       0
   33622   33623   33623       0   33625   33626   33626       0   33628   33629
   33629       0   33631   33632   33632       0   33634   33635   33635       0
   33637   33638   33638       0   33640   33641   33641       0   33643   33644
   33644       0   33646   33647   33647       0   33649   33650   33650       0
   33652   33653   33653       0   33655   33656   33656       0   33658   33659
   33659       0   33661   33662   33662       0   33664   33665   33665       0
   33667   33668   33668       0   33670   33671   33671       0   33673   33674
   33674       0   33676   33677   33677       0   33679   33680   33680       0
   33682   33683   33683       0   33685   33686   33686       0   33688   33689
   33689       0   33691   33692   33692       0   33694   33695   33695       0
   33697   33698   33698       0   33700   33701   33701       0   33703   33704
   33704       0   33706   33707   33707       0   33709   33710   33710       0
   33712   33713   33713       0   33715   33716   33716       0   33718   33719
   33719       0   33721   33722   33722       0   33724   33725   33725       0
   33727   33728   33728       0   33730   33731   33731       0   33733   33734
   33734       0   33736   33737   33737       0   33739   33740   33740       0
   33742   33743   33743       0   33745   33746   33746       0   33748   33749
   33749       0   33751   33752   33752       0   33754   33755   33755       0
   33757   33758   33758       0   33760   33761   33761       0   33763   33764
   33764       0   33766   33767   33767       0   33769   33770   33770       0
   33772   33773   33773       0   33775   33776   33776       0   33778   33779
   33779       0   33781   33782   33782       0   33784   33785   33785       0
   33787   33788   33788       0   33790   33791   33791       0   33793   33794
   33794       0   33796   33797   33797       0   33799   33800   33800       0
   33802   33803   33803       0   33805   33806   33806       0   33808   33809
   33809       0   33811   33812   33812       0   33814   33815   33815       0
   33817   33818   33818       0   33820   33821   33821       0   33823   33824
   33824       0   33826   33827   33827       0   33829   33830   33830       0
   33832   33833   33833       0   33835   33836   33836       0   33838   33839
   33839       0   33841   33842   33842       0   33844   33845   33845       0
   33847   33848   33848       0   33850   33851   33851       0   33853   33854
   33854       0   33856   33857   33857       0   33859   33860   33860       0
   33862   33863   33863       0   33865   33866   33866       0   33868   33869
   33869       0   33871   33872   33872       0   33874   33875   33875       0
   33877   33878   33878       0   33880   33881   33881       0   33883   33884
   33884       0   33886   33887   33887       0   33889   33890   33890       0
   33892   33893   33893       0   33895   33896   33896       0   33898   33899
   33899       0   33901   33902   33902       0   33904   33905   33905       0
   33907   33908   33908       0   33910   33911   33911       0   33913   33914
   33914       0   33916   33917   33917       0   33919   33920   33920       0
   33922   33923   33923       0   33925   33926   33926       0   33928   33929
   33929       0   33931   33932   33932       0   33934   33935   33935       0
   33937   33938   33938       0   33940   33941   33941       0   33943   33944
   33944       0   33946   33947   33947       0   33949   33950   33950       0
   33952   33953   33953       0   33955   33956   33956       0   33958   33959
   33959       0   33961   33962   33962       0   33964   33965   33965       0
   33967   33968   33968       0   33970   33971   33971       0   33973   33974
   33974       0   33976   33977   33977       0   33979   33980   33980       0
   33982   33983   33983       0   33985   33986   33986       0   33988   33989
   33989       0   33991   33992   33992       0   33994   33995   33995       0
   33997   33998   33998       0   34000   34001   34001       0   34003   34004
   34004       0   34006   34007   34007       0   34009   34010   34010       0
   34012   34013   34013       0   34015   34016   34016       0   34018   34019
   34019       0   34021   34022   34022       0   34024   34025   34025       0
   34027   34028   34028       0   34030   34031   34031       0   34033   34034
   34034       0   34036   34037   34037       0   34039   34040   34040       0
   34042   34043   34043       0   34045   34046   34046       0   34048   34049
   34049       0   34051   34052   34052       0   34054   34055   34055       0
   34057   34058   34058       0   34060   34061   34061       0   34063   34064
   34064       0   34066   34067   34067       0   34069   34070   34070       0
   34072   34073   34073       0   34075   34076   34076       0   34078   34079
   34079       0   34081   34082   34082       0   34084   34085   34085       0
   34087   34088   34088       0   34090   34091   34091       0   34093   34094
   34094       0   34096   34097   34097       0   34099   34100   34100       0
   34102   34103   34103       0   34105   34106   34106       0   34108   34109
   34109       0   34111   34112   34112       0   34114   34115   34115       0
   34117   34118   34118       0   34120   34121   34121       0   34123   34124
   34124       0   34126   34127   34127       0   34129   34130   34130       0
   34132   34133   34133       0   34135   34136   34136       0   34138   34139
   34139       0   34141   34142   34142       0   34144   34145   34145       0
   34147   34148   34148       0   34150   34151   34151       0   34153   34154
   34154       0   34156   34157   34157       0   34159   34160   34160       0
   34162   34163   34163       0   34165   34166   34166       0   34168   34169
   34169       0   34171   34172   34172       0   34174   34175   34175       0
   34177   34178   34178       0   34180   34181   34181       0   34183   34184
   34184       0   34186   34187   34187       0   34189   34190   34190       0
   34192   34193   34193       0   34195   34196   34196       0   34198   34199
   34199       0   34201   34202   34202       0   34204   34205   34205       0
   34207   34208   34208       0   34210   34211   34211       0   34213   34214
   34214       0   34216   34217   34217       0   34219   34220   34220       0
   34222   34223   34223       0   34225   34226   34226       0   34228   34229
   34229       0   34231   34232   34232       0   34234   34235   34235       0
   34237   34238   34238       0   34240   34241   34241       0   34243   34244
   34244       0   34246   34247   34247       0   34249   34250   34250       0
   34252   34253   34253       0   34255   34256   34256       0   34258   34259
   34259       0   34261   34262   34262       0   34264   34265   34265       0
   34267   34268   34268       0   34270   34271   34271       0   34273   34274
   34274       0   34276   34277   34277       0   34279   34280   34280       0
   34282   34283   34283       0   34285   34286   34286       0   34288   34289
   34289       0   34291   34292   34292       0   34294   34295   34295       0
   34297   34298   34298       0   34300   34301   34301       0   34303   34304
   34304       0   34306   34307   34307       0   34309   34310   34310       0
   34312   34313   34313       0   34315   34316   34316       0   34318   34319
   34319       0   34321   34322   34322       0   34324   34325   34325       0
   34327   34328   34328       0   34330   34331   34331       0   34333   34334
   34334       0   34336   34337   34337       0   34339   34340   34340       0
   34342   34343   34343       0   34345   34346   34346       0   34348   34349
   34349       0   34351   34352   34352       0   34354   34355   34355       0
   34357   34358   34358       0   34360   34361   34361       0   34363   34364
   34364       0   34366   34367   34367       0   34369   34370   34370       0
   34372   34373   34373       0   34375   34376   34376       0   34378   34379
   34379       0   34381   34382   34382       0   34384   34385   34385       0
   34387   34388   34388       0   34390   34391   34391       0   34393   34394
   34394       0   34396   34397   34397       0   34399   34400   34400       0
   34402   34403   34403       0   34405   34406   34406       0   34408   34409
   34409       0   34411   34412   34412       0   34414   34415   34415       0
   34417   34418   34418       0   34420   34421   34421       0   34423   34424
   34424       0   34426   34427   34427       0   34429   34430   34430       0
   34432   34433   34433       0   34435   34436   34436       0   34438   34439
   34439       0   34441   34442   34442       0   34444   34445   34445       0
   34447   34448   34448       0   34450   34451   34451       0   34453   34454
   34454       0   34456   34457   34457       0   34459   34460   34460       0
   34462   34463   34463       0   34465   34466   34466       0   34468   34469
   34469       0   34471   34472   34472       0   34474   34475   34475       0
   34477   34478   34478       0   34480   34481   34481       0   34483   34484
   34484       0   34486   34487   34487       0   34489   34490   34490       0
   34492   34493   34493       0   34495   34496   34496       0   34498   34499
   34499       0   34501   34502   34502       0   34504   34505   34505       0
   34507   34508   34508       0   34510   34511   34511       0   34513   34514
   34514       0   34516   34517   34517       0   34519   34520   34520       0
   34522   34523   34523       0   34525   34526   34526       0   34528   34529
   34529       0   34531   34532   34532       0   34534   34535   34535       0
   34537   34538   34538       0   34540   34541   34541       0   34543   34544
   34544       0   34546   34547   34547       0   34549   34550   34550       0
   34552   34553   34553       0   34555   34556   34556       0   34558   34559
   34559       0   34561   34562   34562       0   34564   34565   34565       0
   34567   34568   34568       0   34570   34571   34571       0   34573   34574
   34574       0   34576   34577   34577       0   34579   34580   34580       0
   34582   34583   34583       0   34585   34586   34586       0   34588   34589
   34589       0   34591   34592   34592       0   34594   34595   34595       0
   34597   34598   34598       0   34600   34601   34601       0   34603   34604
   34604       0   34606   34607   34607       0   34609   34610   34610       0
   34612   34613   34613       0   34615   34616   34616       0   34618   34619
   34619       0   34621   34622   34622       0   34624   34625   34625       0
   34627   34628   34628       0   34630   34631   34631       0   34633   34634
   34634       0   34636   34637   34637       0   34639   34640   34640       0
   34642   34643   34643       0   34645   34646   34646       0   34648   34649
   34649       0   34651   34652   34652       0   34654   34655   34655       0
   34657   34658   34658       0   34660   34661   34661       0   34663   34664
   34664       0   34666   34667   34667       0   34669   34670   34670       0
   34672   34673   34673       0   34675   34676   34676       0   34678   34679
   34679       0   34681   34682   34682       0   34684   34685   34685       0
   34687   34688   34688       0   34690   34691   34691       0   34693   34694
   34694       0   34696   34697   34697       0   34699   34700   34700       0
   34702   34703   34703       0   34705   34706   34706       0   34708   34709
   34709       0   34711   34712   34712       0   34714   34715   34715       0
   34717   34718   34718       0   34720   34721   34721       0   34723   34724
   34724       0   34726   34727   34727       0   34729   34730   34730       0
   34732   34733   34733       0   34735   34736   34736       0   34738   34739
   34739       0   34741   34742   34742       0   34744   34745   34745       0
   34747   34748   34748       0   34750   34751   34751       0   34753   34754
   34754       0   34756   34757   34757       0   34759   34760   34760       0
   34762   34763   34763       0   34765   34766   34766       0   34768   34769
   34769       0   34771   34772   34772       0   34774   34775   34775       0
   34777   34778   34778       0   34780   34781   34781       0   34783   34784
   34784       0   34786   34787   34787       0   34789   34790   34790       0
   34792   34793   34793       0   34795   34796   34796       0   34798   34799
   34799       0   34801   34802   34802       0   34804   34805   34805       0
   34807   34808   34808       0   34810   34811   34811       0   34813   34814
   34814       0   34816   34817   34817       0   34819   34820   34820       0
   34822   34823   34823       0   34825   34826   34826       0   34828   34829
   34829       0   34831   34832   34832       0   34834   34835   34835       0
   34837   34838   34838       0   34840   34841   34841       0   34843   34844
   34844       0   34846   34847   34847       0   34849   34850   34850       0
   34852   34853   34853       0   34855   34856   34856       0   34858   34859
   34859       0   34861   34862   34862       0   34864   34865   34865       0
   34867   34868   34868       0   34870   34871   34871       0   34873   34874
   34874       0   34876   34877   34877       0   34879   34880   34880       0
   34882   34883   34883       0   34885   34886   34886       0   34888   34889
   34889       0   34891   34892   34892       0   34894   34895   34895       0
   34897   34898   34898       0   34900   34901   34901       0   34903   34904
   34904       0   34906   34907   34907       0   34909   34910   34910       0
   34912   34913   34913       0   34915   34916   34916       0   34918   34919
   34919       0   34921   34922   34922       0   34924   34925   34925       0
   34927   34928   34928       0   34930   34931   34931       0   34933   34934
   34934       0   34936   34937   34937       0   34939   34940   34940       0
   34942   34943   34943       0   34945   34946   34946       0   34948   34949
   34949       0   34951   34952   34952       0   34954   34955   34955       0
   34957   34958   34958       0   34960   34961   34961       0   34963   34964
   34964       0   34966   34967   34967       0   34969   34970   34970       0
   34972   34973   34973       0   34975   34976   34976       0   34978   34979
   34979       0   34981   34982   34982       0   34984   34985   34985       0
   34987   34988   34988       0   34990   34991   34991       0   34993   34994
   34994       0   34996   34997   34997       0   34999   35000   35000       0
   35002   35003   35003       0   35005   35006   35006       0   35008   35009
   35009       0   35011   35012   35012       0   35014   35015   35015       0
   35017   35018   35018       0   35020   35021   35021       0   35023   35024
   35024       0   35026   35027   35027       0   35029   35030   35030       0
   35032   35033   35033       0   35035   35036   35036       0   35038   35039
   35039       0   35041   35042   35042       0   35044   35045   35045       0
   35047   35048   35048       0   35050   35051   35051       0   35053   35054
   35054       0   35056   35057   35057       0   35059   35060   35060       0
   35062   35063   35063       0   35065   35066   35066       0   35068   35069
   35069       0   35071   35072   35072       0   35074   35075   35075       0
   35077   35078   35078       0   35080   35081   35081       0   35083   35084
   35084       0   35086   35087   35087       0   35089   35090   35090       0
   35092   35093   35093       0   35095   35096   35096       0   35098   35099
   35099       0   35101   35102   35102       0   35104   35105   35105       0
   35107   35108   35108       0   35110   35111   35111       0   35113   35114
   35114       0   35116   35117   35117       0   35119   35120   35120       0
   35122   35123   35123       0   35125   35126   35126       0   35128   35129
   35129       0   35131   35132   35132       0   35134   35135   35135       0
   35137   35138   35138       0   35140   35141   35141       0   35143   35144
   35144       0   35146   35147   35147       0   35149   35150   35150       0
   35152   35153   35153       0   35155   35156   35156       0   35158   35159
   35159       0   35161   35162   35162       0   35164   35165   35165       0
   35167   35168   35168       0   35170   35171   35171       0   35173   35174
   35174       0   35176   35177   35177       0   35179   35180   35180       0
   35182   35183   35183       0   35185   35186   35186       0   35188   35189
   35189       0   35191   35192   35192       0   35194   35195   35195       0
   35197   35198   35198       0   35200   35201   35201       0   35203   35204
   35204       0   35206   35207   35207       0   35209   35210   35210       0
   35212   35213   35213       0   35215   35216   35216       0   35218   35219
   35219       0   35221   35222   35222       0   35224   35225   35225       0
   35227   35228   35228       0   35230   35231   35231       0   35233   35234
   35234       0   35236   35237   35237       0   35239   35240   35240       0
   35242   35243   35243       0   35245   35246   35246       0   35248   35249
   35249       0   35251   35252   35252       0   35254   35255   35255       0
   35257   35258   35258       0   35260   35261   35261       0   35263   35264
   35264       0   35266   35267   35267       0   35269   35270   35270       0
   35272   35273   35273       0   35275   35276   35276       0   35278   35279
   35279       0   35281   35282   35282       0   35284   35285   35285       0
   35287   35288   35288       0   35290   35291   35291       0   35293   35294
   35294       0   35296   35297   35297       0   35299   35300   35300       0
   35302   35303   35303       0   35305   35306   35306       0   35308   35309
   35309       0   35311   35312   35312       0   35314   35315   35315       0
   35317   35318   35318       0   35320   35321   35321       0   35323   35324
   35324       0   35326   35327   35327       0   35329   35330   35330       0
   35332   35333   35333       0   35335   35336   35336       0   35338   35339
   35339       0   35341   35342   35342       0   35344   35345   35345       0
   35347   35348   35348       0   35350   35351   35351       0   35353   35354
   35354       0   35356   35357   35357       0   35359   35360   35360       0
   35362   35363   35363       0   35365   35366   35366       0   35368   35369
   35369       0   35371   35372   35372       0   35374   35375   35375       0
   35377   35378   35378       0   35380   35381   35381       0   35383   35384
   35384       0   35386   35387   35387       0   35389   35390   35390       0
   35392   35393   35393       0   35395   35396   35396       0   35398   35399
   35399       0   35401   35402   35402       0   35404   35405   35405       0
   35407   35408   35408       0   35410   35411   35411       0   35413   35414
   35414       0   35416   35417   35417       0   35419   35420   35420       0
   35422   35423   35423       0   35425   35426   35426       0   35428   35429
   35429       0   35431   35432   35432       0   35434   35435   35435       0
   35437   35438   35438       0   35440   35441   35441       0   35443   35444
   35444       0   35446   35447   35447       0   35449   35450   35450       0
   35452   35453   35453       0   35455   35456   35456       0   35458   35459
   35459       0   35461   35462   35462       0   35464   35465   35465       0
   35467   35468   35468       0   35470   35471   35471       0   35473   35474
   35474       0   35476   35477   35477       0   35479   35480   35480       0
   35482   35483   35483       0   35485   35486   35486       0   35488   35489
   35489       0   35491   35492   35492       0   35494   35495   35495       0
   35497   35498   35498       0   35500   35501   35501       0   35503   35504
   35504       0   35506   35507   35507       0   35509   35510   35510       0
   35512   35513   35513       0   35515   35516   35516       0   35518   35519
   35519       0   35521   35522   35522       0   35524   35525   35525       0
   35527   35528   35528       0   35530   35531   35531       0   35533   35534
   35534       0   35536   35537   35537       0   35539   35540   35540       0
   35542   35543   35543       0   35545   35546   35546       0   35548   35549
   35549       0   35551   35552   35552       0   35554   35555   35555       0
   35557   35558   35558       0   35560   35561   35561       0   35563   35564
   35564       0   35566   35567   35567       0   35569   35570   35570       0
   35572   35573   35573       0   35575   35576   35576       0   35578   35579
   35579       0   35581   35582   35582       0   35584   35585   35585       0
   35587   35588   35588       0   35590   35591   35591       0   35593   35594
   35594       0   35596   35597   35597       0   35599   35600   35600       0
   35602   35603   35603       0   35605   35606   35606       0   35608   35609
   35609       0   35611   35612   35612       0   35614   35615   35615       0
   35617   35618   35618       0   35620   35621   35621       0   35623   35624
   35624       0   35626   35627   35627       0   35629   35630   35630       0
   35632   35633   35633       0   35635   35636   35636       0   35638   35639
   35639       0   35641   35642   35642       0   35644   35645   35645       0
   35647   35648   35648       0   35650   35651   35651       0   35653   35654
   35654       0   35656   35657   35657       0   35659   35660   35660       0
   35662   35663   35663       0   35665   35666   35666       0   35668   35669
   35669       0   35671   35672   35672       0   35674   35675   35675       0
   35677   35678   35678       0   35680   35681   35681       0   35683   35684
   35684       0   35686   35687   35687       0   35689   35690   35690       0
   35692   35693   35693       0   35695   35696   35696       0   35698   35699
   35699       0   35701   35702   35702       0   35704   35705   35705       0
   35707   35708   35708       0   35710   35711   35711       0   35713   35714
   35714       0   35716   35717   35717       0   35719   35720   35720       0
   35722   35723   35723       0   35725   35726   35726       0   35728   35729
   35729       0   35731   35732   35732       0   35734   35735   35735       0
   35737   35738   35738       0   35740   35741   35741       0   35743   35744
   35744       0   35746   35747   35747       0   35749   35750   35750       0
   35752   35753   35753       0   35755   35756   35756       0   35758   35759
   35759       0   35761   35762   35762       0   35764   35765   35765       0
   35767   35768   35768       0   35770   35771   35771       0   35773   35774
   35774       0   35776   35777   35777       0   35779   35780   35780       0
   35782   35783   35783       0   35785   35786   35786       0   35788   35789
   35789       0   35791   35792   35792       0   35794   35795   35795       0
   35797   35798   35798       0   35800   35801   35801       0   35803   35804
   35804       0   35806   35807   35807       0   35809   35810   35810       0
   35812   35813   35813       0   35815   35816   35816       0   35818   35819
   35819       0   35821   35822   35822       0   35824   35825   35825       0
   35827   35828   35828       0   35830   35831   35831       0   35833   35834
   35834       0   35836   35837   35837       0   35839   35840   35840       0
   35842   35843   35843       0   35845   35846   35846       0   35848   35849
   35849       0   35851   35852   35852       0   35854   35855   35855       0
   35857   35858   35858       0   35860   35861   35861       0   35863   35864
   35864       0   35866   35867   35867       0   35869   35870   35870       0
   35872   35873   35873       0   35875   35876   35876       0   35878   35879
   35879       0   35881   35882   35882       0   35884   35885   35885       0
   35887   35888   35888       0   35890   35891   35891       0   35893   35894
   35894       0   35896   35897   35897       0   35899   35900   35900       0
   35902   35903   35903       0   35905   35906   35906       0   35908   35909
   35909       0   35911   35912   35912       0   35914   35915   35915       0
   35917   35918   35918       0   35920   35921   35921       0   35923   35924
   35924       0   35926   35927   35927       0   35929   35930   35930       0
   35932   35933   35933       0   35935   35936   35936       0   35938   35939
   35939       0   35941   35942   35942       0   35944   35945   35945       0
   35947   35948   35948       0   35950   35951   35951       0   35953   35954
   35954       0   35956   35957   35957       0   35959   35960   35960       0
   35962   35963   35963       0   35965   35966   35966       0   35968   35969
   35969       0   35971   35972   35972       0   35974   35975   35975       0
   35977   35978   35978       0   35980   35981   35981       0   35983   35984
   35984       0   35986   35987   35987       0   35989   35990   35990       0
   35992   35993   35993       0   35995   35996   35996       0   35998   35999
   35999       0   36001   36002   36002       0   36004   36005   36005       0
   36007   36008   36008       0   36010   36011   36011       0   36013   36014
   36014       0   36016   36017   36017       0   36019   36020   36020       0
   36022   36023   36023       0   36025   36026   36026       0   36028   36029
   36029       0   36031   36032   36032       0   36034   36035   36035       0
   36037   36038   36038       0   36040   36041   36041       0   36043   36044
   36044       0   36046   36047   36047       0   36049   36050   36050       0
   36052   36053   36053       0   36055   36056   36056       0   36058   36059
   36059       0   36061   36062   36062       0   36064   36065   36065       0
   36067   36068   36068       0   36070   36071   36071       0   36073   36074
   36074       0   36076   36077   36077       0   36079   36080   36080       0
   36082   36083   36083       0   36085   36086   36086       0   36088   36089
   36089       0   36091   36092   36092       0   36094   36095   36095       0
   36097   36098   36098       0   36100   36101   36101       0   36103   36104
   36104       0   36106   36107   36107       0   36109   36110   36110       0
   36112   36113   36113       0   36115   36116   36116       0   36118   36119
   36119       0   36121   36122   36122       0   36124   36125   36125       0
   36127   36128   36128       0   36130   36131   36131       0   36133   36134
   36134       0   36136   36137   36137       0   36139   36140   36140       0
   36142   36143   36143       0   36145   36146   36146       0   36148   36149
   36149       0   36151   36152   36152       0   36154   36155   36155       0
   36157   36158   36158       0   36160   36161   36161       0   36163   36164
   36164       0   36166   36167   36167       0   36169   36170   36170       0
   36172   36173   36173       0   36175   36176   36176       0   36178   36179
   36179       0   36181   36182   36182       0   36184   36185   36185       0
   36187   36188   36188       0   36190   36191   36191       0   36193   36194
   36194       0   36196   36197   36197       0   36199   36200   36200       0
   36202   36203   36203       0   36205   36206   36206       0   36208   36209
   36209       0   36211   36212   36212       0   36214   36215   36215       0
   36217   36218   36218       0   36220   36221   36221       0   36223   36224
   36224       0   36226   36227   36227       0   36229   36230   36230       0
   36232   36233   36233       0   36235   36236   36236       0   36238   36239
   36239       0   36241   36242   36242       0   36244   36245   36245       0
   36247   36248   36248       0   36250   36251   36251       0   36253   36254
   36254       0   36256   36257   36257       0   36259   36260   36260       0
   36262   36263   36263       0   36265   36266   36266       0   36268   36269
   36269       0   36271   36272   36272       0   36274   36275   36275       0
   36277   36278   36278       0   36280   36281   36281       0   36283   36284
   36284       0   36286   36287   36287       0   36289   36290   36290       0
   36292   36293   36293       0   36295   36296   36296       0   36298   36299
   36299       0   36301   36302   36302       0   36304   36305   36305       0
   36307   36308   36308       0   36310   36311   36311       0   36313   36314
   36314       0   36316   36317   36317       0   36319   36320   36320       0
   36322   36323   36323       0   36325   36326   36326       0   36328   36329
   36329       0   36331   36332   36332       0   36334   36335   36335       0
   36337   36338   36338       0   36340   36341   36341       0   36343   36344
   36344       0   36346   36347   36347       0   36349   36350   36350       0
   36352   36353   36353       0   36355   36356   36356       0   36358   36359
   36359       0   36361   36362   36362       0   36364   36365   36365       0
   36367   36368   36368       0   36370   36371   36371       0   36373   36374
   36374       0   36376   36377   36377       0   36379   36380   36380       0
   36382   36383   36383       0   36385   36386   36386       0   36388   36389
   36389       0   36391   36392   36392       0   36394   36395   36395       0
   36397   36398   36398       0   36400   36401   36401       0   36403   36404
   36404       0   36406   36407   36407       0   36409   36410   36410       0
   36412   36413   36413       0   36415   36416   36416       0   36418   36419
   36419       0   36421   36422   36422       0   36424   36425   36425       0
   36427   36428   36428       0   36430   36431   36431       0   36433   36434
   36434       0   36436   36437   36437       0   36439   36440   36440       0
   36442   36443   36443       0   36445   36446   36446       0   36448   36449
   36449       0   36451   36452   36452       0   36454   36455   36455       0
   36457   36458   36458       0   36460   36461   36461       0   36463   36464
   36464       0   36466   36467   36467       0   36469   36470   36470       0
   36472   36473   36473       0   36475   36476   36476       0   36478   36479
   36479       0   36481   36482   36482       0   36484   36485   36485       0
   36487   36488   36488       0   36490   36491   36491       0   36493   36494
   36494       0   36496   36497   36497       0   36499   36500   36500       0
   36502   36503   36503       0   36505   36506   36506       0   36508   36509
   36509       0   36511   36512   36512       0   36514   36515   36515       0
   36517   36518   36518       0   36520   36521   36521       0   36523   36524
   36524       0   36526   36527   36527       0   36529   36530   36530       0
   36532   36533   36533       0   36535   36536   36536       0   36538   36539
   36539       0   36541   36542   36542       0   36544   36545   36545       0
   36547   36548   36548       0   36550   36551   36551       0   36553   36554
   36554       0   36556   36557   36557       0   36559   36560   36560       0
   36562   36563   36563       0   36565   36566   36566       0   36568   36569
   36569       0   36571   36572   36572       0   36574   36575   36575       0
   36577   36578   36578       0   36580   36581   36581       0   36583   36584
   36584       0   36586   36587   36587       0   36589   36590   36590       0
   36592   36593   36593       0   36595   36596   36596       0   36598   36599
   36599       0   36601   36602   36602       0   36604   36605   36605       0
   36607   36608   36608       0   36610   36611   36611       0   36613   36614
   36614       0   36616   36617   36617       0   36619   36620   36620       0
   36622   36623   36623       0   36625   36626   36626       0   36628   36629
   36629       0   36631   36632   36632       0   36634   36635   36635       0
   36637   36638   36638       0   36640   36641   36641       0   36643   36644
   36644       0   36646   36647   36647       0   36649   36650   36650       0
   36652   36653   36653       0   36655   36656   36656       0   36658   36659
   36659       0   36661   36662   36662       0   36664   36665   36665       0
   36667   36668   36668       0   36670   36671   36671       0   36673   36674
   36674       0   36676   36677   36677       0   36679   36680   36680       0
   36682   36683   36683       0   36685   36686   36686       0   36688   36689
   36689       0   36691   36692   36692       0   36694   36695   36695       0
   36697   36698   36698       0   36700   36701   36701       0   36703   36704
   36704       0   36706   36707   36707       0   36709   36710   36710       0
   36712   36713   36713       0   36715   36716   36716       0   36718   36719
   36719       0   36721   36722   36722       0   36724   36725   36725       0
   36727   36728   36728       0   36730   36731   36731       0   36733   36734
   36734       0   36736   36737   36737       0   36739   36740   36740       0
   36742   36743   36743       0   36745   36746   36746       0   36748   36749
   36749       0   36751   36752   36752       0   36754   36755   36755       0
   36757   36758   36758       0   36760   36761   36761       0   36763   36764
   36764       0   36766   36767   36767       0   36769   36770   36770       0
   36772   36773   36773       0   36775   36776   36776       0   36778   36779
   36779       0   36781   36782   36782       0   36784   36785   36785       0
   36787   36788   36788       0   36790   36791   36791       0   36793   36794
   36794       0   36796   36797   36797       0   36799   36800   36800       0
   36802   36803   36803       0   36805   36806   36806       0   36808   36809
   36809       0   36811   36812   36812       0   36814   36815   36815       0
   36817   36818   36818       0   36820   36821   36821       0   36823   36824
   36824       0   36826   36827   36827       0   36829   36830   36830       0
   36832   36833   36833       0   36835   36836   36836       0   36838   36839
   36839       0   36841   36842   36842       0   36844   36845   36845       0
   36847   36848   36848       0   36850   36851   36851       0   36853   36854
   36854       0   36856   36857   36857       0   36859   36860   36860       0
   36862   36863   36863       0   36865   36866   36866       0   36868   36869
   36869       0   36871   36872   36872       0   36874   36875   36875       0
   36877   36878   36878       0   36880   36881   36881       0   36883   36884
   36884       0   36886   36887   36887       0   36889   36890   36890       0
   36892   36893   36893       0   36895   36896   36896       0   36898   36899
   36899       0   36901   36902   36902       0   36904   36905   36905       0
   36907   36908   36908       0   36910   36911   36911       0   36913   36914
   36914       0   36916   36917   36917       0   36919   36920   36920       0
   36922   36923   36923       0   36925   36926   36926       0   36928   36929
   36929       0   36931   36932   36932       0   36934   36935   36935       0
   36937   36938   36938       0   36940   36941   36941       0   36943   36944
   36944       0   36946   36947   36947       0   36949   36950   36950       0
   36952   36953   36953       0   36955   36956   36956       0   36958   36959
   36959       0   36961   36962   36962       0   36964   36965   36965       0
   36967   36968   36968       0   36970   36971   36971       0   36973   36974
   36974       0   36976   36977   36977       0   36979   36980   36980       0
   36982   36983   36983       0   36985   36986   36986       0   36988   36989
   36989       0   36991   36992   36992       0   36994   36995   36995       0
   36997   36998   36998       0   37000   37001   37001       0   37003   37004
   37004       0   37006   37007   37007       0   37009   37010   37010       0
   37012   37013   37013       0   37015   37016   37016       0   37018   37019
   37019       0   37021   37022   37022       0   37024   37025   37025       0
   37027   37028   37028       0   37030   37031   37031       0   37033   37034
   37034       0   37036   37037   37037       0   37039   37040   37040       0
   37042   37043   37043       0   37045   37046   37046       0   37048   37049
   37049       0   37051   37052   37052       0   37054   37055   37055       0
   37057   37058   37058       0   37060   37061   37061       0   37063   37064
   37064       0   37066   37067   37067       0   37069   37070   37070       0
   37072   37073   37073       0   37075   37076   37076       0   37078   37079
   37079       0   37081   37082   37082       0   37084   37085   37085       0
   37087   37088   37088       0   37090   37091   37091       0   37093   37094
   37094       0   37096   37097   37097       0   37099   37100   37100       0
   37102   37103   37103       0   37105   37106   37106       0   37108   37109
   37109       0   37111   37112   37112       0   37114   37115   37115       0
   37117   37118   37118       0   37120   37121   37121       0   37123   37124
   37124       0   37126   37127   37127       0   37129   37130   37130       0
   37132   37133   37133       0   37135   37136   37136       0   37138   37139
   37139       0   37141   37142   37142       0   37144   37145   37145       0
   37147   37148   37148       0   37150   37151   37151       0   37153   37154
   37154       0   37156   37157   37157       0   37159   37160   37160       0
   37162   37163   37163       0   37165   37166   37166       0   37168   37169
   37169       0   37171   37172   37172       0   37174   37175   37175       0
   37177   37178   37178       0   37180   37181   37181       0   37183   37184
   37184       0   37186   37187   37187       0   37189   37190   37190       0
   37192   37193   37193       0   37195   37196   37196       0   37198   37199
   37199       0   37201   37202   37202       0   37204   37205   37205       0
   37207   37208   37208       0   37210   37211   37211       0   37213   37214
   37214       0   37216   37217   37217       0   37219   37220   37220       0
   37222   37223   37223       0   37225   37226   37226       0   37228   37229
   37229       0   37231   37232   37232       0   37234   37235   37235       0
   37237   37238   37238       0   37240   37241   37241       0   37243   37244
   37244       0   37246   37247   37247       0   37249   37250   37250       0
   37252   37253   37253       0   37255   37256   37256       0   37258   37259
   37259       0   37261   37262   37262       0   37264   37265   37265       0
   37267   37268   37268       0   37270   37271   37271       0   37273   37274
   37274       0   37276   37277   37277       0   37279   37280   37280       0
   37282   37283   37283       0   37285   37286   37286       0   37288   37289
   37289       0   37291   37292   37292       0   37294   37295   37295       0
   37297   37298   37298       0   37300   37301   37301       0   37303   37304
   37304       0   37306   37307   37307       0   37309   37310   37310       0
   37312   37313   37313       0   37315   37316   37316       0   37318   37319
   37319       0   37321   37322   37322       0   37324   37325   37325       0
   37327   37328   37328       0   37330   37331   37331       0   37333   37334
   37334       0   37336   37337   37337       0   37339   37340   37340       0
   37342   37343   37343       0   37345   37346   37346       0   37348   37349
   37349       0   37351   37352   37352       0   37354   37355   37355       0
   37357   37358   37358       0   37360   37361   37361       0   37363   37364
   37364       0   37366   37367   37367       0   37369   37370   37370       0
   37372   37373   37373       0   37375   37376   37376       0   37378   37379
   37379       0   37381   37382   37382       0   37384   37385   37385       0
   37387   37388   37388       0   37390   37391   37391       0   37393   37394
   37394       0   37396   37397   37397       0   37399   37400   37400       0
   37402   37403   37403       0   37405   37406   37406       0   37408   37409
   37409       0   37411   37412   37412       0   37414   37415   37415       0
   37417   37418   37418       0   37420   37421   37421       0   37423   37424
   37424       0   37426   37427   37427       0   37429   37430   37430       0
   37432   37433   37433       0   37435   37436   37436       0   37438   37439
   37439       0   37441   37442   37442       0   37444   37445   37445       0
   37447   37448   37448       0   37450   37451   37451       0   37453   37454
   37454       0   37456   37457   37457       0   37459   37460   37460       0
   37462   37463   37463       0   37465   37466   37466       0   37468   37469
   37469       0   37471   37472   37472       0   37474   37475   37475       0
   37477   37478   37478       0   37480   37481   37481       0   37483   37484
   37484       0   37486   37487   37487       0   37489   37490   37490       0
   37492   37493   37493       0   37495   37496   37496       0   37498   37499
   37499       0   37501   37502   37502       0   37504   37505   37505       0
   37507   37508   37508       0   37510   37511   37511       0   37513   37514
   37514       0   37516   37517   37517       0   37519   37520   37520       0
   37522   37523   37523       0   37525   37526   37526       0   37528   37529
   37529       0   37531   37532   37532       0   37534   37535   37535       0
   37537   37538   37538       0   37540   37541   37541       0   37543   37544
   37544       0   37546   37547   37547       0   37549   37550   37550       0
   37552   37553   37553       0   37555   37556   37556       0   37558   37559
   37559       0   37561   37562   37562       0   37564   37565   37565       0
   37567   37568   37568       0   37570   37571   37571       0   37573   37574
   37574       0   37576   37577   37577       0   37579   37580   37580       0
   37582   37583   37583       0   37585   37586   37586       0   37588   37589
   37589       0   37591   37592   37592       0   37594   37595   37595       0
   37597   37598   37598       0   37600   37601   37601       0   37603   37604
   37604       0   37606   37607   37607       0   37609   37610   37610       0
   37612   37613   37613       0   37615   37616   37616       0   37618   37619
   37619       0   37621   37622   37622       0   37624   37625   37625       0
   37627   37628   37628       0   37630   37631   37631       0   37633   37634
   37634       0   37636   37637   37637       0   37639   37640   37640       0
   37642   37643   37643       0   37645   37646   37646       0   37648   37649
   37649       0   37651   37652   37652       0   37654   37655   37655       0
   37657   37658   37658       0   37660   37661   37661       0   37663   37664
   37664       0   37666   37667   37667       0   37669   37670   37670       0
   37672   37673   37673       0   37675   37676   37676       0   37678   37679
   37679       0   37681   37682   37682       0   37684   37685   37685       0
   37687   37688   37688       0   37690   37691   37691       0   37693   37694
   37694       0   37696   37697   37697       0   37699   37700   37700       0
   37702   37703   37703       0   37705   37706   37706       0   37708   37709
   37709       0   37711   37712   37712       0   37714   37715   37715       0
   37717   37718   37718       0   37720   37721   37721       0   37723   37724
   37724       0   37726   37727   37727       0   37729   37730   37730       0
   37732   37733   37733       0   37735   37736   37736       0   37738   37739
   37739       0   37741   37742   37742       0   37744   37745   37745       0
   37747   37748   37748       0   37750   37751   37751       0   37753   37754
   37754       0   37756   37757   37757       0   37759   37760   37760       0
   37762   37763   37763       0   37765   37766   37766       0   37768   37769
   37769       0   37771   37772   37772       0   37774   37775   37775       0
   37777   37778   37778       0   37780   37781   37781       0   37783   37784
   37784       0   37786   37787   37787       0   37789   37790   37790       0
   37792   37793   37793       0   37795   37796   37796       0   37798   37799
   37799       0   37801   37802   37802       0   37804   37805   37805       0
   37807   37808   37808       0   37810   37811   37811       0   37813   37814
   37814       0   37816   37817   37817       0   37819   37820   37820       0
   37822   37823   37823       0   37825   37826   37826       0   37828   37829
   37829       0   37831   37832   37832       0   37834   37835   37835       0
   37837   37838   37838       0   37840   37841   37841       0   37843   37844
   37844       0   37846   37847   37847       0   37849   37850   37850       0
   37852   37853   37853       0   37855   37856   37856       0   37858   37859
   37859       0   37861   37862   37862       0   37864   37865   37865       0
   37867   37868   37868       0   37870   37871   37871       0   37873   37874
   37874       0   37876   37877   37877       0   37879   37880   37880       0
   37882   37883   37883       0   37885   37886   37886       0   37888   37889
   37889       0   37891   37892   37892       0   37894   37895   37895       0
   37897   37898   37898       0   37900   37901   37901       0   37903   37904
   37904       0   37906   37907   37907       0   37909   37910   37910       0
   37912   37913   37913       0   37915   37916   37916       0   37918   37919
   37919       0   37921   37922   37922       0   37924   37925   37925       0
   37927   37928   37928       0   37930   37931   37931       0   37933   37934
   37934       0   37936   37937   37937       0   37939   37940   37940       0
   37942   37943   37943       0   37945   37946   37946       0   37948   37949
   37949       0   37951   37952   37952       0   37954   37955   37955       0
   37957   37958   37958       0   37960   37961   37961       0   37963   37964
   37964       0   37966   37967   37967       0   37969   37970   37970       0
   37972   37973   37973       0   37975   37976   37976       0   37978   37979
   37979       0   37981   37982   37982       0   37984   37985   37985       0
   37987   37988   37988       0   37990   37991   37991       0   37993   37994
   37994       0   37996   37997   37997       0   37999   38000   38000       0
   38002   38003   38003       0   38005   38006   38006       0   38008   38009
   38009       0   38011   38012   38012       0   38014   38015   38015       0
   38017   38018   38018       0   38020   38021   38021       0   38023   38024
   38024       0   38026   38027   38027       0   38029   38030   38030       0
   38032   38033   38033       0   38035   38036   38036       0   38038   38039
   38039       0   38041   38042   38042       0   38044   38045   38045       0
   38047   38048   38048       0   38050   38051   38051       0   38053   38054
   38054       0   38056   38057   38057       0   38059   38060   38060       0
   38062   38063   38063       0   38065   38066   38066       0   38068   38069
   38069       0   38071   38072   38072       0   38074   38075   38075       0
   38077   38078   38078       0   38080   38081   38081       0   38083   38084
   38084       0   38086   38087   38087       0   38089   38090   38090       0
   38092   38093   38093       0   38095   38096   38096       0   38098   38099
   38099       0   38101   38102   38102       0   38104   38105   38105       0
   38107   38108   38108       0   38110   38111   38111       0   38113   38114
   38114       0   38116   38117   38117       0   38119   38120   38120       0
   38122   38123   38123       0   38125   38126   38126       0   38128   38129
   38129       0   38131   38132   38132       0   38134   38135   38135       0
   38137   38138   38138       0   38140   38141   38141       0   38143   38144
   38144       0   38146   38147   38147       0   38149   38150   38150       0
   38152   38153   38153       0   38155   38156   38156       0   38158   38159
   38159       0   38161   38162   38162       0   38164   38165   38165       0
   38167   38168   38168       0   38170   38171   38171       0   38173   38174
   38174       0   38176   38177   38177       0   38179   38180   38180       0
   38182   38183   38183       0   38185   38186   38186       0   38188   38189
   38189       0   38191   38192   38192       0   38194   38195   38195       0
   38197   38198   38198       0   38200   38201   38201       0   38203   38204
   38204       0   38206   38207   38207       0   38209   38210   38210       0
   38212   38213   38213       0   38215   38216   38216       0   38218   38219
   38219       0   38221   38222   38222       0   38224   38225   38225       0
   38227   38228   38228       0   38230   38231   38231       0   38233   38234
   38234       0   38236   38237   38237       0   38239   38240   38240       0
   38242   38243   38243       0   38245   38246   38246       0   38248   38249
   38249       0   38251   38252   38252       0   38254   38255   38255       0
   38257   38258   38258       0   38260   38261   38261       0   38263   38264
   38264       0   38266   38267   38267       0   38269   38270   38270       0
   38272   38273   38273       0   38275   38276   38276       0   38278   38279
   38279       0   38281   38282   38282       0   38284   38285   38285       0
   38287   38288   38288       0   38290   38291   38291       0   38293   38294
   38294       0   38296   38297   38297       0   38299   38300   38300       0
   38302   38303   38303       0   38305   38306   38306       0   38308   38309
   38309       0   38311   38312   38312       0   38314   38315   38315       0
   38317   38318   38318       0   38320   38321   38321       0   38323   38324
   38324       0   38326   38327   38327       0   38329   38330   38330       0
   38332   38333   38333       0   38335   38336   38336       0   38338   38339
   38339       0   38341   38342   38342       0   38344   38345   38345       0
   38347   38348   38348       0   38350   38351   38351       0   38353   38354
   38354       0   38356   38357   38357       0   38359   38360   38360       0
   38362   38363   38363       0   38365   38366   38366       0   38368   38369
   38369       0   38371   38372   38372       0   38374   38375   38375       0
   38377   38378   38378       0   38380   38381   38381       0   38383   38384
   38384       0   38386   38387   38387       0   38389   38390   38390       0
   38392   38393   38393       0   38395   38396   38396       0   38398   38399
   38399       0   38401   38402   38402       0   38404   38405   38405       0
   38407   38408   38408       0   38410   38411   38411       0   38413   38414
   38414       0   38416   38417   38417       0   38419   38420   38420       0
   38422   38423   38423       0   38425   38426   38426       0   38428   38429
   38429       0   38431   38432   38432       0   38434   38435   38435       0
   38437   38438   38438       0   38440   38441   38441       0   38443   38444
   38444       0   38446   38447   38447       0   38449   38450   38450       0
   38452   38453   38453       0   38455   38456   38456       0   38458   38459
   38459       0   38461   38462   38462       0   38464   38465   38465       0
   38467   38468   38468       0   38470   38471   38471       0   38473   38474
   38474       0   38476   38477   38477       0   38479   38480   38480       0
   38482   38483   38483       0   38485   38486   38486       0   38488   38489
   38489       0   38491   38492   38492       0   38494   38495   38495       0
   38497   38498   38498       0   38500   38501   38501       0   38503   38504
   38504       0   38506   38507   38507       0   38509   38510   38510       0
   38512   38513   38513       0   38515   38516   38516       0   38518   38519
   38519       0   38521   38522   38522       0   38524   38525   38525       0
   38527   38528   38528       0   38530   38531   38531       0   38533   38534
   38534       0   38536   38537   38537       0   38539   38540   38540       0
   38542   38543   38543       0   38545   38546   38546       0   38548   38549
   38549       0   38551   38552   38552       0   38554   38555   38555       0
   38557   38558   38558       0   38560   38561   38561       0   38563   38564
   38564       0   38566   38567   38567       0   38569   38570   38570       0
   38572   38573   38573       0   38575   38576   38576       0   38578   38579
   38579       0   38581   38582   38582       0   38584   38585   38585       0
   38587   38588   38588       0   38590   38591   38591       0   38593   38594
   38594       0   38596   38597   38597       0   38599   38600   38600       0
   38602   38603   38603       0   38605   38606   38606       0   38608   38609
   38609       0   38611   38612   38612       0   38614   38615   38615       0
   38617   38618   38618       0   38620   38621   38621       0   38623   38624
   38624       0   38626   38627   38627       0   38629   38630   38630       0
   38632   38633   38633       0   38635   38636   38636       0   38638   38639
   38639       0   38641   38642   38642       0   38644   38645   38645       0
   38647   38648   38648       0   38650   38651   38651       0   38653   38654
   38654       0   38656   38657   38657       0   38659   38660   38660       0
   38662   38663   38663       0   38665   38666   38666       0   38668   38669
   38669       0   38671   38672   38672       0   38674   38675   38675       0
   38677   38678   38678       0   38680   38681   38681       0   38683   38684
   38684       0   38686   38687   38687       0   38689   38690   38690       0
   38692   38693   38693       0   38695   38696   38696       0   38698   38699
   38699       0   38701   38702   38702       0   38704   38705   38705       0
   38707   38708   38708       0   38710   38711   38711       0   38713   38714
   38714       0   38716   38717   38717       0   38719   38720   38720       0
   38722   38723   38723       0   38725   38726   38726       0   38728   38729
   38729       0   38731   38732   38732       0   38734   38735   38735       0
   38737   38738   38738       0   38740   38741   38741       0   38743   38744
   38744       0   38746   38747   38747       0   38749   38750   38750       0
   38752   38753   38753       0   38755   38756   38756       0   38758   38759
   38759       0   38761   38762   38762       0   38764   38765   38765       0
   38767   38768   38768       0   38770   38771   38771       0   38773   38774
   38774       0   38776   38777   38777       0   38779   38780   38780       0
   38782   38783   38783       0   38785   38786   38786       0   38788   38789
   38789       0   38791   38792   38792       0   38794   38795   38795       0
   38797   38798   38798       0   38800   38801   38801       0   38803   38804
   38804       0   38806   38807   38807       0   38809   38810   38810       0
   38812   38813   38813       0   38815   38816   38816       0   38818   38819
   38819       0   38821   38822   38822       0   38824   38825   38825       0
   38827   38828   38828       0   38830   38831   38831       0   38833   38834
   38834       0   38836   38837   38837       0   38839   38840   38840       0
   38842   38843   38843       0   38845   38846   38846       0   38848   38849
   38849       0   38851   38852   38852       0   38854   38855   38855       0
   38857   38858   38858       0   38860   38861   38861       0   38863   38864
   38864       0   38866   38867   38867       0   38869   38870   38870       0
   38872   38873   38873       0   38875   38876   38876       0   38878   38879
   38879       0   38881   38882   38882       0   38884   38885   38885       0
   38887   38888   38888       0   38890   38891   38891       0   38893   38894
   38894       0   38896   38897   38897       0   38899   38900   38900       0
   38902   38903   38903       0   38905   38906   38906       0   38908   38909
   38909       0   38911   38912   38912       0   38914   38915   38915       0
   38917   38918   38918       0   38920   38921   38921       0   38923   38924
   38924       0   38926   38927   38927       0   38929   38930   38930       0
   38932   38933   38933       0   38935   38936   38936       0   38938   38939
   38939       0   38941   38942   38942       0   38944   38945   38945       0
   38947   38948   38948       0   38950   38951   38951       0   38953   38954
   38954       0   38956   38957   38957       0   38959   38960   38960       0
   38962   38963   38963       0   38965   38966   38966       0   38968   38969
   38969       0   38971   38972   38972       0   38974   38975   38975       0
   38977   38978   38978       0   38980   38981   38981       0   38983   38984
   38984       0   38986   38987   38987       0   38989   38990   38990       0
   38992   38993   38993       0   38995   38996   38996       0   38998   38999
   38999       0   39001   39002   39002       0   39004   39005   39005       0
   39007   39008   39008       0   39010   39011   39011       0   39013   39014
   39014       0   39016   39017   39017       0   39019   39020   39020       0
   39022   39023   39023       0   39025   39026   39026       0   39028   39029
   39029       0   39031   39032   39032       0   39034   39035   39035       0
   39037   39038   39038       0   39040   39041   39041       0   39043   39044
   39044       0   39046   39047   39047       0   39049   39050   39050       0
   39052   39053   39053       0   39055   39056   39056       0   39058   39059
   39059       0   39061   39062   39062       0   39064   39065   39065       0
   39067   39068   39068       0   39070   39071   39071       0   39073   39074
   39074       0   39076   39077   39077       0   39079   39080   39080       0
   39082   39083   39083       0   39085   39086   39086       0   39088   39089
   39089       0   39091   39092   39092       0   39094   39095   39095       0
   39097   39098   39098       0   39100   39101   39101       0   39103   39104
   39104       0   39106   39107   39107       0   39109   39110   39110       0
   39112   39113   39113       0   39115   39116   39116       0   39118   39119
   39119       0   39121   39122   39122       0   39124   39125   39125       0
   39127   39128   39128       0   39130   39131   39131       0   39133   39134
   39134       0   39136   39137   39137       0   39139   39140   39140       0
   39142   39143   39143       0   39145   39146   39146       0   39148   39149
   39149       0   39151   39152   39152       0   39154   39155   39155       0
   39157   39158   39158       0   39160   39161   39161       0   39163   39164
   39164       0   39166   39167   39167       0   39169   39170   39170       0
   39172   39173   39173       0   39175   39176   39176       0   39178   39179
   39179       0   39181   39182   39182       0   39184   39185   39185       0
   39187   39188   39188       0   39190   39191   39191       0   39193   39194
   39194       0   39196   39197   39197       0   39199   39200   39200       0
   39202   39203   39203       0   39205   39206   39206       0   39208   39209
   39209       0   39211   39212   39212       0   39214   39215   39215       0
   39217   39218   39218       0   39220   39221   39221       0   39223   39224
   39224       0   39226   39227   39227       0   39229   39230   39230       0
   39232   39233   39233       0   39235   39236   39236       0   39238   39239
   39239       0   39241   39242   39242       0   39244   39245   39245       0
   39247   39248   39248       0   39250   39251   39251       0   39253   39254
   39254       0   39256   39257   39257       0   39259   39260   39260       0
   39262   39263   39263       0   39265   39266   39266       0   39268   39269
   39269       0   39271   39272   39272       0   39274   39275   39275       0
   39277   39278   39278       0   39280   39281   39281       0   39283   39284
   39284       0   39286   39287   39287       0   39289   39290   39290       0
   39292   39293   39293       0   39295   39296   39296       0   39298   39299
   39299       0   39301   39302   39302       0   39304   39305   39305       0
   39307   39308   39308       0   39310   39311   39311       0   39313   39314
   39314       0   39316   39317   39317       0   39319   39320   39320       0
   39322   39323   39323       0   39325   39326   39326       0   39328   39329
   39329       0   39331   39332   39332       0   39334   39335   39335       0
   39337   39338   39338       0   39340   39341   39341       0   39343   39344
   39344       0   39346   39347   39347       0   39349   39350   39350       0
   39352   39353   39353       0   39355   39356   39356       0   39358   39359
   39359       0   39361   39362   39362       0   39364   39365   39365       0
   39367   39368   39368       0   39370   39371   39371       0   39373   39374
   39374       0   39376   39377   39377       0   39379   39380   39380       0
   39382   39383   39383       0   39385   39386   39386       0   39388   39389
   39389       0   39391   39392   39392       0   39394   39395   39395       0
   39397   39398   39398       0   39400   39401   39401       0   39403   39404
   39404       0   39406   39407   39407       0   39409   39410   39410       0
   39412   39413   39413       0   39415   39416   39416       0   39418   39419
   39419       0   39421   39422   39422       0   39424   39425   39425       0
   39427   39428   39428       0   39430   39431   39431       0   39433   39434
   39434       0   39436   39437   39437       0   39439   39440   39440       0
   39442   39443   39443       0   39445   39446   39446       0   39448   39449
   39449       0   39451   39452   39452       0   39454   39455   39455       0
   39457   39458   39458       0   39460   39461   39461       0   39463   39464
   39464       0   39466   39467   39467       0   39469   39470   39470       0
   39472   39473   39473       0   39475   39476   39476       0   39478   39479
   39479       0   39481   39482   39482       0   39484   39485   39485       0
   39487   39488   39488       0   39490   39491   39491       0   39493   39494
   39494       0   39496   39497   39497       0   39499   39500   39500       0
   39502   39503   39503       0   39505   39506   39506       0   39508   39509
   39509       0   39511   39512   39512       0   39514   39515   39515       0
   39517   39518   39518       0   39520   39521   39521       0   39523   39524
   39524       0   39526   39527   39527       0   39529   39530   39530       0
   39532   39533   39533       0   39535   39536   39536       0   39538   39539
   39539       0   39541   39542   39542       0   39544   39545   39545       0
   39547   39548   39548       0   39550   39551   39551       0   39553   39554
   39554       0   39556   39557   39557       0   39559   39560   39560       0
   39562   39563   39563       0   39565   39566   39566       0   39568   39569
   39569       0   39571   39572   39572       0   39574   39575   39575       0
   39577   39578   39578       0   39580   39581   39581       0   39583   39584
   39584       0   39586   39587   39587       0   39589   39590   39590       0
   39592   39593   39593       0   39595   39596   39596       0   39598   39599
   39599       0   39601   39602   39602       0   39604   39605   39605       0
   39607   39608   39608       0   39610   39611   39611       0   39613   39614
   39614       0   39616   39617   39617       0   39619   39620   39620       0
   39622   39623   39623       0   39625   39626   39626       0   39628   39629
   39629       0   39631   39632   39632       0   39634   39635   39635       0
   39637   39638   39638       0   39640   39641   39641       0   39643   39644
   39644       0   39646   39647   39647       0   39649   39650   39650       0
   39652   39653   39653       0   39655   39656   39656       0   39658   39659
   39659       0   39661   39662   39662       0   39664   39665   39665       0
   39667   39668   39668       0   39670   39671   39671       0   39673   39674
   39674       0   39676   39677   39677       0   39679   39680   39680       0
   39682   39683   39683       0   39685   39686   39686       0   39688   39689
   39689       0   39691   39692   39692       0   39694   39695   39695       0
   39697   39698   39698       0   39700   39701   39701       0   39703   39704
   39704       0   39706   39707   39707       0   39709   39710   39710       0
   39712   39713   39713       0   39715   39716   39716       0   39718   39719
   39719       0   39721   39722   39722       0   39724   39725   39725       0
   39727   39728   39728       0   39730   39731   39731       0   39733   39734
   39734       0   39736   39737   39737       0   39739   39740   39740       0
   39742   39743   39743       0   39745   39746   39746       0   39748   39749
   39749       0   39751   39752   39752       0   39754   39755   39755       0
   39757   39758   39758       0   39760   39761   39761       0   39763   39764
   39764       0   39766   39767   39767       0   39769   39770   39770       0
   39772   39773   39773       0   39775   39776   39776       0   39778   39779
   39779       0   39781   39782   39782       0   39784   39785   39785       0
   39787   39788   39788       0   39790   39791   39791       0   39793   39794
   39794       0   39796   39797   39797       0   39799   39800   39800       0
   39802   39803   39803       0   39805   39806   39806       0   39808   39809
   39809       0   39811   39812   39812       0   39814   39815   39815       0
   39817   39818   39818       0   39820   39821   39821       0   39823   39824
   39824       0   39826   39827   39827       0   39829   39830   39830       0
   39832   39833   39833       0   39835   39836   39836       0   39838   39839
   39839       0   39841   39842   39842       0   39844   39845   39845       0
   39847   39848   39848       0   39850   39851   39851       0   39853   39854
   39854       0   39856   39857   39857       0   39859   39860   39860       0
   39862   39863   39863       0   39865   39866   39866       0   39868   39869
   39869       0   39871   39872   39872       0   39874   39875   39875       0
   39877   39878   39878       0   39880   39881   39881       0   39883   39884
   39884       0   39886   39887   39887       0   39889   39890   39890       0
   39892   39893   39893       0   39895   39896   39896       0   39898   39899
   39899       0   39901   39902   39902       0   39904   39905   39905       0
   39907   39908   39908       0   39910   39911   39911       0   39913   39914
   39914       0   39916   39917   39917       0   39919   39920   39920       0
   39922   39923   39923       0   39925   39926   39926       0   39928   39929
   39929       0   39931   39932   39932       0   39934   39935   39935       0
   39937   39938   39938       0   39940   39941   39941       0   39943   39944
   39944       0   39946   39947   39947       0   39949   39950   39950       0
   39952   39953   39953       0   39955   39956   39956       0   39958   39959
   39959       0   39961   39962   39962       0   39964   39965   39965       0
   39967   39968   39968       0   39970   39971   39971       0   39973   39974
   39974       0   39976   39977   39977       0   39979   39980   39980       0
   39982   39983   39983       0   39985   39986   39986       0   39988   39989
   39989       0   39991   39992   39992       0   39994   39995   39995       0
   39997   39998   39998       0   40000   40001   40001       0   40003   40004
   40004       0   40006   40007   40007       0   40009   40010   40010       0
   40012   40013   40013       0   40015   40016   40016       0   40018   40019
   40019       0   40021   40022   40022       0   40024   40025   40025       0
   40027   40028   40028       0   40030   40031   40031       0   40033   40034
   40034       0   40036   40037   40037       0   40039   40040   40040       0
   40042   40043   40043       0   40045   40046   40046       0   40048   40049
   40049       0   40051   40052   40052       0   40054   40055   40055       0
   40057   40058   40058       0   40060   40061   40061       0   40063   40064
   40064       0   40066   40067   40067       0   40069   40070   40070       0
   40072   40073   40073       0   40075   40076   40076       0   40078   40079
   40079       0   40081   40082   40082       0   40084   40085   40085       0
   40087   40088   40088       0   40090   40091   40091       0   40093   40094
   40094       0   40096   40097   40097       0   40099   40100   40100       0
   40102   40103   40103       0   40105   40106   40106       0   40108   40109
   40109       0   40111   40112   40112       0   40114   40115   40115       0
   40117   40118   40118       0   40120   40121   40121       0   40123   40124
   40124       0   40126   40127   40127       0   40129   40130   40130       0
   40132   40133   40133       0   40135   40136   40136       0   40138   40139
   40139       0   40141   40142   40142       0   40144   40145   40145       0
   40147   40148   40148       0   40150   40151   40151       0   40153   40154
   40154       0   40156   40157   40157       0   40159   40160   40160       0
   40162   40163   40163       0   40165   40166   40166       0   40168   40169
   40169       0   40171   40172   40172       0   40174   40175   40175       0
   40177   40178   40178       0   40180   40181   40181       0   40183   40184
   40184       0   40186   40187   40187       0   40189   40190   40190       0
   40192   40193   40193       0   40195   40196   40196       0   40198   40199
   40199       0   40201   40202   40202       0   40204   40205   40205       0
   40207   40208   40208       0   40210   40211   40211       0   40213   40214
   40214       0   40216   40217   40217       0   40219   40220   40220       0
   40222   40223   40223       0   40225   40226   40226       0   40228   40229
   40229       0   40231   40232   40232       0   40234   40235   40235       0
   40237   40238   40238       0   40240   40241   40241       0   40243   40244
   40244       0   40246   40247   40247       0   40249   40250   40250       0
   40252   40253   40253       0   40255   40256   40256       0   40258   40259
   40259       0   40261   40262   40262       0   40264   40265   40265       0
   40267   40268   40268       0   40270   40271   40271       0   40273   40274
   40274       0   40276   40277   40277       0   40279   40280   40280       0
   40282   40283   40283       0   40285   40286   40286       0   40288   40289
   40289       0   40291   40292   40292       0   40294   40295   40295       0
   40297   40298   40298       0   40300   40301   40301       0   40303   40304
   40304       0   40306   40307   40307       0   40309   40310   40310       0
   40312   40313   40313       0   40315   40316   40316       0   40318   40319
   40319       0   40321   40322   40322       0   40324   40325   40325       0
   40327   40328   40328       0   40330   40331   40331       0   40333   40334
   40334       0   40336   40337   40337       0   40339   40340   40340       0
   40342   40343   40343       0   40345   40346   40346       0   40348   40349
   40349       0   40351   40352   40352       0   40354   40355   40355       0
   40357   40358   40358       0   40360   40361   40361       0   40363   40364
   40364       0   40366   40367   40367       0   40369   40370   40370       0
   40372   40373   40373       0   40375   40376   40376       0   40378   40379
   40379       0   40381   40382   40382       0   40384   40385   40385       0
   40387   40388   40388       0   40390   40391   40391       0   40393   40394
   40394       0   40396   40397   40397       0   40399   40400   40400       0
   40402   40403   40403       0   40405   40406   40406       0   40408   40409
   40409       0   40411   40412   40412       0   40414   40415   40415       0
   40417   40418   40418       0   40420   40421   40421       0   40423   40424
   40424       0   40426   40427   40427       0   40429   40430   40430       0
   40432   40433   40433       0   40435   40436   40436       0   40438   40439
   40439       0   40441   40442   40442       0   40444   40445   40445       0
   40447   40448   40448       0   40450   40451   40451       0   40453   40454
   40454       0   40456   40457   40457       0   40459   40460   40460       0
   40462   40463   40463       0   40465   40466   40466       0   40468   40469
   40469       0   40471   40472   40472       0   40474   40475   40475       0
   40477   40478   40478       0   40480   40481   40481       0   40483   40484
   40484       0   40486   40487   40487       0   40489   40490   40490       0
   40492   40493   40493       0   40495   40496   40496       0   40498   40499
   40499       0   40501   40502   40502       0   40504   40505   40505       0
   40507   40508   40508       0   40510   40511   40511       0   40513   40514
   40514       0   40516   40517   40517       0   40519   40520   40520       0
   40522   40523   40523       0   40525   40526   40526       0   40528   40529
   40529       0   40531   40532   40532       0   40534   40535   40535       0
   40537   40538   40538       0   40540   40541   40541       0   40543   40544
   40544       0   40546   40547   40547       0   40549   40550   40550       0
   40552   40553   40553       0   40555   40556   40556       0   40558   40559
   40559       0   40561   40562   40562       0   40564   40565   40565       0
   40567   40568   40568       0   40570   40571   40571       0   40573   40574
   40574       0   40576   40577   40577       0   40579   40580   40580       0
   40582   40583   40583       0   40585   40586   40586       0   40588   40589
   40589       0   40591   40592   40592       0   40594   40595   40595       0
   40597   40598   40598       0   40600   40601   40601       0   40603   40604
   40604       0   40606   40607   40607       0   40609   40610   40610       0
   40612   40613   40613       0   40615   40616   40616       0   40618   40619
   40619       0   40621   40622   40622       0   40624   40625   40625       0
   40627   40628   40628       0   40630   40631   40631       0   40633   40634
   40634       0   40636   40637   40637       0   40639   40640   40640       0
   40642   40643   40643       0   40645   40646   40646       0   40648   40649
   40649       0   40651   40652   40652       0   40654   40655   40655       0
   40657   40658   40658       0   40660   40661   40661       0   40663   40664
   40664       0   40666   40667   40667       0   40669   40670   40670       0
   40672   40673   40673       0   40675   40676   40676       0   40678   40679
   40679       0   40681   40682   40682       0   40684   40685   40685       0
   40687   40688   40688       0   40690   40691   40691       0   40693   40694
   40694       0   40696   40697   40697       0   40699   40700   40700       0
   40702   40703   40703       0   40705   40706   40706       0   40708   40709
   40709       0   40711   40712   40712       0   40714   40715   40715       0
   40717   40718   40718       0   40720   40721   40721       0   40723   40724
   40724       0   40726   40727   40727       0   40729   40730   40730       0
   40732   40733   40733       0   40735   40736   40736       0   40738   40739
   40739       0   40741   40742   40742       0   40744   40745   40745       0
   40747   40748   40748       0   40750   40751   40751       0   40753   40754
   40754       0   40756   40757   40757       0   40759   40760   40760       0
   40762   40763   40763       0   40765   40766   40766       0   40768   40769
   40769       0   40771   40772   40772       0   40774   40775   40775       0
   40777   40778   40778       0   40780   40781   40781       0   40783   40784
   40784       0   40786   40787   40787       0   40789   40790   40790       0
   40792   40793   40793       0   40795   40796   40796       0   40798   40799
   40799       0   40801   40802   40802       0   40804   40805   40805       0
   40807   40808   40808       0   40810   40811   40811       0   40813   40814
   40814       0   40816   40817   40817       0   40819   40820   40820       0
   40822   40823   40823       0   40825   40826   40826       0   40828   40829
   40829       0   40831   40832   40832       0   40834   40835   40835       0
   40837   40838   40838       0   40840   40841   40841       0   40843   40844
   40844       0   40846   40847   40847       0   40849   40850   40850       0
   40852   40853   40853       0   40855   40856   40856       0   40858   40859
   40859       0   40861   40862   40862       0   40864   40865   40865       0
   40867   40868   40868       0   40870   40871   40871       0   40873   40874
   40874       0   40876   40877   40877       0   40879   40880   40880       0
   40882   40883   40883       0   40885   40886   40886       0   40888   40889
   40889       0   40891   40892   40892       0   40894   40895   40895       0
   40897   40898   40898       0   40900   40901   40901       0   40903   40904
   40904       0   40906   40907   40907       0   40909   40910   40910       0
   40912   40913   40913       0   40915   40916   40916       0   40918   40919
   40919       0   40921   40922   40922       0   40924   40925   40925       0
   40927   40928   40928       0   40930   40931   40931       0   40933   40934
   40934       0   40936   40937   40937       0   40939   40940   40940       0
   40942   40943   40943       0   40945   40946   40946       0   40948   40949
   40949       0   40951   40952   40952       0   40954   40955   40955       0
   40957   40958   40958       0   40960   40961   40961       0   40963   40964
   40964       0   40966   40967   40967       0   40969   40970   40970       0
   40972   40973   40973       0   40975   40976   40976       0   40978   40979
   40979       0   40981   40982   40982       0   40984   40985   40985       0
   40987   40988   40988       0   40990   40991   40991       0   40993   40994
   40994       0   40996   40997   40997       0   40999   41000   41000       0
   41002   41003   41003       0   41005   41006   41006       0   41008   41009
   41009       0   41011   41012   41012       0   41014   41015   41015       0
   41017   41018   41018       0   41020   41021   41021       0   41023   41024
   41024       0   41026   41027   41027       0   41029   41030   41030       0
   41032   41033   41033       0   41035   41036   41036       0   41038   41039
   41039       0   41041   41042   41042       0   41044   41045   41045       0
   41047   41048   41048       0   41050   41051   41051       0   41053   41054
   41054       0   41056   41057   41057       0   41059   41060   41060       0
   41062   41063   41063       0   41065   41066   41066       0   41068   41069
   41069       0   41071   41072   41072       0   41074   41075   41075       0
   41077   41078   41078       0   41080   41081   41081       0   41083   41084
   41084       0   41086   41087   41087       0   41089   41090   41090       0
   41092   41093   41093       0   41095   41096   41096       0   41098   41099
   41099       0   41101   41102   41102       0   41104   41105   41105       0
   41107   41108   41108       0   41110   41111   41111       0   41113   41114
   41114       0   41116   41117   41117       0   41119   41120   41120       0
   41122   41123   41123       0   41125   41126   41126       0   41128   41129
   41129       0   41131   41132   41132       0   41134   41135   41135       0
   41137   41138   41138       0   41140   41141   41141       0   41143   41144
   41144       0   41146   41147   41147       0   41149   41150   41150       0
   41152   41153   41153       0   41155   41156   41156       0   41158   41159
   41159       0   41161   41162   41162       0   41164   41165   41165       0
   41167   41168   41168       0   41170   41171   41171       0   41173   41174
   41174       0   41176   41177   41177       0   41179   41180   41180       0
   41182   41183   41183       0   41185   41186   41186       0   41188   41189
   41189       0   41191   41192   41192       0   41194   41195   41195       0
   41197   41198   41198       0   41200   41201   41201       0   41203   41204
   41204       0   41206   41207   41207       0   41209   41210   41210       0
   41212   41213   41213       0   41215   41216   41216       0   41218   41219
   41219       0   41221   41222   41222       0   41224   41225   41225       0
   41227   41228   41228       0   41230   41231   41231       0   41233   41234
   41234       0   41236   41237   41237       0   41239   41240   41240       0
   41242   41243   41243       0   41245   41246   41246       0   41248   41249
   41249       0   41251   41252   41252       0   41254   41255   41255       0
   41257   41258   41258       0   41260   41261   41261       0   41263   41264
   41264       0   41266   41267   41267       0   41269   41270   41270       0
   41272   41273   41273       0   41275   41276   41276       0   41278   41279
   41279       0   41281   41282   41282       0   41284   41285   41285       0
   41287   41288   41288       0   41290   41291   41291       0   41293   41294
   41294       0   41296   41297   41297       0   41299   41300   41300       0
   41302   41303   41303       0   41305   41306   41306       0   41308   41309
   41309       0   41311   41312   41312       0   41314   41315   41315       0
   41317   41318   41318       0   41320   41321   41321       0   41323   41324
   41324       0   41326   41327   41327       0   41329   41330   41330       0
   41332   41333   41333       0   41335   41336   41336       0   41338   41339
   41339       0   41341   41342   41342       0   41344   41345   41345       0
   41347   41348   41348       0   41350   41351   41351       0   41353   41354
   41354       0   41356   41357   41357       0   41359   41360   41360       0
   41362   41363   41363       0   41365   41366   41366       0   41368   41369
   41369       0   41371   41372   41372       0   41374   41375   41375       0
   41377   41378   41378       0   41380   41381   41381       0   41383   41384
   41384       0   41386   41387   41387       0   41389   41390   41390       0
   41392   41393   41393       0   41395   41396   41396       0   41398   41399
   41399       0   41401   41402   41402       0   41404   41405   41405       0
   41407   41408   41408       0   41410   41411   41411       0   41413   41414
   41414       0   41416   41417   41417       0   41419   41420   41420       0
   41422   41423   41423       0   41425   41426   41426       0   41428   41429
   41429       0   41431   41432   41432       0   41434   41435   41435       0
   41437   41438   41438       0   41440   41441   41441       0   41443   41444
   41444       0   41446   41447   41447       0   41449   41450   41450       0
   41452   41453   41453       0   41455   41456   41456       0   41458   41459
   41459       0   41461   41462   41462       0   41464   41465   41465       0
   41467   41468   41468       0   41470   41471   41471       0   41473   41474
   41474       0   41476   41477   41477       0   41479   41480   41480       0
   41482   41483   41483       0   41485   41486   41486       0   41488   41489
   41489       0   41491   41492   41492       0   41494   41495   41495       0
   41497   41498   41498       0   41500   41501   41501       0   41503   41504
   41504       0   41506   41507   41507       0   41509   41510   41510       0
   41512   41513   41513       0   41515   41516   41516       0   41518   41519
   41519       0   41521   41522   41522       0   41524   41525   41525       0
   41527   41528   41528       0   41530   41531   41531       0   41533   41534
   41534       0   41536   41537   41537       0   41539   41540   41540       0
   41542   41543   41543       0   41545   41546   41546       0   41548   41549
   41549       0   41551   41552   41552       0   41554   41555   41555       0
   41557   41558   41558       0   41560   41561   41561       0   41563   41564
   41564       0   41566   41567   41567       0   41569   41570   41570       0
   41572   41573   41573       0   41575   41576   41576       0   41578   41579
   41579       0   41581   41582   41582       0   41584   41585   41585       0
   41587   41588   41588       0   41590   41591   41591       0   41593   41594
   41594       0   41596   41597   41597       0   41599   41600   41600       0
   41602   41603   41603       0   41605   41606   41606       0   41608   41609
   41609       0   41611   41612   41612       0   41614   41615   41615       0
   41617   41618   41618       0   41620   41621   41621       0   41623   41624
   41624       0   41626   41627   41627       0   41629   41630   41630       0
   41632   41633   41633       0   41635   41636   41636       0   41638   41639
   41639       0   41641   41642   41642       0   41644   41645   41645       0
   41647   41648   41648       0   41650   41651   41651       0   41653   41654
   41654       0   41656   41657   41657       0   41659   41660   41660       0
   41662   41663   41663       0   41665   41666   41666       0   41668   41669
   41669       0   41671   41672   41672       0   41674   41675   41675       0
   41677   41678   41678       0   41680   41681   41681       0   41683   41684
   41684       0   41686   41687   41687       0   41689   41690   41690       0
   41692   41693   41693       0   41695   41696   41696       0   41698   41699
   41699       0   41701   41702   41702       0   41704   41705   41705       0
   41707   41708   41708       0   41710   41711   41711       0   41713   41714
   41714       0   41716   41717   41717       0   41719   41720   41720       0
   41722   41723   41723       0   41725   41726   41726       0   41728   41729
   41729       0   41731   41732   41732       0   41734   41735   41735       0
   41737   41738   41738       0   41740   41741   41741       0   41743   41744
   41744       0   41746   41747   41747       0   41749   41750   41750       0
   41752   41753   41753       0   41755   41756   41756       0   41758   41759
   41759       0   41761   41762   41762       0   41764   41765   41765       0
   41767   41768   41768       0   41770   41771   41771       0   41773   41774
   41774       0   41776   41777   41777       0   41779   41780   41780       0
   41782   41783   41783       0   41785   41786   41786       0   41788   41789
   41789       0   41791   41792   41792       0   41794   41795   41795       0
   41797   41798   41798       0   41800   41801   41801       0   41803   41804
   41804       0   41806   41807   41807       0   41809   41810   41810       0
   41812   41813   41813       0   41815   41816   41816       0   41818   41819
   41819       0   41821   41822   41822       0   41824   41825   41825       0
   41827   41828   41828       0   41830   41831   41831       0   41833   41834
   41834       0   41836   41837   41837       0   41839   41840   41840       0
   41842   41843   41843       0   41845   41846   41846       0   41848   41849
   41849       0   41851   41852   41852       0   41854   41855   41855       0
   41857   41858   41858       0   41860   41861   41861       0   41863   41864
   41864       0   41866   41867   41867       0   41869   41870   41870       0
   41872   41873   41873       0   41875   41876   41876       0   41878   41879
   41879       0   41881   41882   41882       0   41884   41885   41885       0
   41887   41888   41888       0   41890   41891   41891       0   41893   41894
   41894       0   41896   41897   41897       0   41899   41900   41900       0
   41902   41903   41903       0   41905   41906   41906       0   41908   41909
   41909       0   41911   41912   41912       0   41914   41915   41915       0
   41917   41918   41918       0   41920   41921   41921       0   41923   41924
   41924       0   41926   41927   41927       0   41929   41930   41930       0
   41932   41933   41933       0   41935   41936   41936       0   41938   41939
   41939       0   41941   41942   41942       0   41944   41945   41945       0
   41947   41948   41948       0   41950   41951   41951       0   41953   41954
   41954       0   41956   41957   41957       0   41959   41960   41960       0
   41962   41963   41963       0   41965   41966   41966       0   41968   41969
   41969       0   41971   41972   41972       0   41974   41975   41975       0
   41977   41978   41978       0   41980   41981   41981       0   41983   41984
   41984       0   41986   41987   41987       0   41989   41990   41990       0
   41992   41993   41993       0   41995   41996   41996       0   41998   41999
   41999       0   42001   42002   42002       0   42004   42005   42005       0
   42007   42008   42008       0   42010   42011   42011       0   42013   42014
   42014       0   42016   42017   42017       0   42019   42020   42020       0
   42022   42023   42023       0   42025   42026   42026       0   42028   42029
   42029       0   42031   42032   42032       0   42034   42035   42035       0
   42037   42038   42038       0   42040   42041   42041       0   42043   42044
   42044       0   42046   42047   42047       0   42049   42050   42050       0
   42052   42053   42053       0   42055   42056   42056       0   42058   42059
   42059       0   42061   42062   42062       0   42064   42065   42065       0
   42067   42068   42068       0   42070   42071   42071       0   42073   42074
   42074       0   42076   42077   42077       0   42079   42080   42080       0
   42082   42083   42083       0   42085   42086   42086       0   42088   42089
   42089       0   42091   42092   42092       0   42094   42095   42095       0
   42097   42098   42098       0   42100   42101   42101       0   42103   42104
   42104       0   42106   42107   42107       0   42109   42110   42110       0
   42112   42113   42113       0   42115   42116   42116       0   42118   42119
   42119       0   42121   42122   42122       0   42124   42125   42125       0
   42127   42128   42128       0   42130   42131   42131       0   42133   42134
   42134       0   42136   42137   42137       0   42139   42140   42140       0
   42142   42143   42143       0   42145   42146   42146       0   42148   42149
   42149       0   42151   42152   42152       0   42154   42155   42155       0
   42157   42158   42158       0   42160   42161   42161       0   42163   42164
   42164       0   42166   42167   42167       0   42169   42170   42170       0
   42172   42173   42173       0   42175   42176   42176       0   42178   42179
   42179       0   42181   42182   42182       0   42184   42185   42185       0
   42187   42188   42188       0   42190   42191   42191       0   42193   42194
   42194       0   42196   42197   42197       0   42199   42200   42200       0
   42202   42203   42203       0   42205   42206   42206       0   42208   42209
   42209       0   42211   42212   42212       0   42214   42215   42215       0
   42217   42218   42218       0   42220   42221   42221       0   42223   42224
   42224       0   42226   42227   42227       0   42229   42230   42230       0
   42232   42233   42233       0   42235   42236   42236       0   42238   42239
   42239       0   42241   42242   42242       0   42244   42245   42245       0
   42247   42248   42248       0   42250   42251   42251       0   42253   42254
   42254       0   42256   42257   42257       0   42259   42260   42260       0
   42262   42263   42263       0   42265   42266   42266       0   42268   42269
   42269       0   42271   42272   42272       0   42274   42275   42275       0
   42277   42278   42278       0   42280   42281   42281       0   42283   42284
   42284       0   42286   42287   42287       0   42289   42290   42290       0
   42292   42293   42293       0   42295   42296   42296       0   42298   42299
   42299       0   42301   42302   42302       0   42304   42305   42305       0
   42307   42308   42308       0   42310   42311   42311       0   42313   42314
   42314       0   42316   42317   42317       0   42319   42320   42320       0
   42322   42323   42323       0   42325   42326   42326       0   42328   42329
   42329       0   42331   42332   42332       0   42334   42335   42335       0
   42337   42338   42338       0   42340   42341   42341       0   42343   42344
   42344       0   42346   42347   42347       0   42349   42350   42350       0
   42352   42353   42353       0   42355   42356   42356       0   42358   42359
   42359       0   42361   42362   42362       0   42364   42365   42365       0
   42367   42368   42368       0   42370   42371   42371       0   42373   42374
   42374       0   42376   42377   42377       0   42379   42380   42380       0
   42382   42383   42383       0   42385   42386   42386       0   42388   42389
   42389       0   42391   42392   42392       0   42394   42395   42395       0
   42397   42398   42398       0   42400   42401   42401       0   42403   42404
   42404       0   42406   42407   42407       0   42409   42410   42410       0
   42412   42413   42413       0   42415   42416   42416       0   42418   42419
   42419       0   42421   42422   42422       0   42424   42425   42425       0
   42427   42428   42428       0   42430   42431   42431       0   42433   42434
   42434       0   42436   42437   42437       0   42439   42440   42440       0
   42442   42443   42443       0   42445   42446   42446       0   42448   42449
   42449       0   42451   42452   42452       0   42454   42455   42455       0
   42457   42458   42458       0   42460   42461   42461       0   42463   42464
   42464       0   42466   42467   42467       0   42469   42470   42470       0
   42472   42473   42473       0   42475   42476   42476       0   42478   42479
   42479       0   42481   42482   42482       0   42484   42485   42485       0
   42487   42488   42488       0   42490   42491   42491       0   42493   42494
   42494       0   42496   42497   42497       0   42499   42500   42500       0
   42502   42503   42503       0   42505   42506   42506       0   42508   42509
   42509       0   42511   42512   42512       0   42514   42515   42515       0
   42517   42518   42518       0   42520   42521   42521       0   42523   42524
   42524       0   42526   42527   42527       0   42529   42530   42530       0
   42532   42533   42533       0   42535   42536   42536       0   42538   42539
   42539       0   42541   42542   42542       0   42544   42545   42545       0
   42547   42548   42548       0   42550   42551   42551       0   42553   42554
   42554       0   42556   42557   42557       0   42559   42560   42560       0
   42562   42563   42563       0   42565   42566   42566       0   42568   42569
   42569       0   42571   42572   42572       0   42574   42575   42575       0
   42577   42578   42578       0   42580   42581   42581       0   42583   42584
   42584       0   42586   42587   42587       0   42589   42590   42590       0
   42592   42593   42593       0   42595   42596   42596       0   42598   42599
   42599       0   42601   42602   42602       0   42604   42605   42605       0
   42607   42608   42608       0   42610   42611   42611       0   42613   42614
   42614       0   42616   42617   42617       0   42619   42620   42620       0
   42622   42623   42623       0   42625   42626   42626       0   42628   42629
   42629       0   42631   42632   42632       0   42634   42635   42635       0
   42637   42638   42638       0   42640   42641   42641       0   42643   42644
   42644       0   42646   42647   42647       0   42649   42650   42650       0
   42652   42653   42653       0   42655   42656   42656       0   42658   42659
   42659       0   42661   42662   42662       0   42664   42665   42665       0
   42667   42668   42668       0   42670   42671   42671       0   42673   42674
   42674       0   42676   42677   42677       0   42679   42680   42680       0
   42682   42683   42683       0   42685   42686   42686       0   42688   42689
   42689       0   42691   42692   42692       0   42694   42695   42695       0
   42697   42698   42698       0   42700   42701   42701       0   42703   42704
   42704       0   42706   42707   42707       0   42709   42710   42710       0
   42712   42713   42713       0   42715   42716   42716       0   42718   42719
   42719       0   42721   42722   42722       0   42724   42725   42725       0
   42727   42728   42728       0   42730   42731   42731       0   42733   42734
   42734       0   42736   42737   42737       0   42739   42740   42740       0
   42742   42743   42743       0   42745   42746   42746       0   42748   42749
   42749       0   42751   42752   42752       0   42754   42755   42755       0
   42757   42758   42758       0   42760   42761   42761       0   42763   42764
   42764       0   42766   42767   42767       0   42769   42770   42770       0
   42772   42773   42773       0   42775   42776   42776       0   42778   42779
   42779       0   42781   42782   42782       0   42784   42785   42785       0
   42787   42788   42788       0   42790   42791   42791       0   42793   42794
   42794       0   42796   42797   42797       0   42799   42800   42800       0
   42802   42803   42803       0   42805   42806   42806       0   42808   42809
   42809       0   42811   42812   42812       0   42814   42815   42815       0
   42817   42818   42818       0   42820   42821   42821       0   42823   42824
   42824       0   42826   42827   42827       0   42829   42830   42830       0
   42832   42833   42833       0   42835   42836   42836       0   42838   42839
   42839       0   42841   42842   42842       0   42844   42845   42845       0
   42847   42848   42848       0   42850   42851   42851       0   42853   42854
   42854       0   42856   42857   42857       0   42859   42860   42860       0
   42862   42863   42863       0   42865   42866   42866       0   42868   42869
   42869       0   42871   42872   42872       0   42874   42875   42875       0
   42877   42878   42878       0   42880   42881   42881       0   42883   42884
   42884       0   42886   42887   42887       0   42889   42890   42890       0
   42892   42893   42893       0   42895   42896   42896       0   42898   42899
   42899       0   42901   42902   42902       0   42904   42905   42905       0
   42907   42908   42908       0   42910   42911   42911       0   42913   42914
   42914       0   42916   42917   42917       0   42919   42920   42920       0
   42922   42923   42923       0   42925   42926   42926       0   42928   42929
   42929       0   42931   42932   42932       0   42934   42935   42935       0
   42937   42938   42938       0   42940   42941   42941       0   42943   42944
   42944       0   42946   42947   42947       0   42949   42950   42950       0
   42952   42953   42953       0   42955   42956   42956       0   42958   42959
   42959       0   42961   42962   42962       0   42964   42965   42965       0
   42967   42968   42968       0   42970   42971   42971       0   42973   42974
   42974       0   42976   42977   42977       0   42979   42980   42980       0
   42982   42983   42983       0   42985   42986   42986       0   42988   42989
   42989       0   42991   42992   42992       0   42994   42995   42995       0
   42997   42998   42998       0   43000   43001   43001       0   43003   43004
   43004       0   43006   43007   43007       0   43009   43010   43010       0
   43012   43013   43013       0   43015   43016   43016       0   43018   43019
   43019       0   43021   43022   43022       0   43024   43025   43025       0
   43027   43028   43028       0   43030   43031   43031       0   43033   43034
   43034       0   43036   43037   43037       0   43039   43040   43040       0
   43042   43043   43043       0   43045   43046   43046       0   43048   43049
   43049       0   43051   43052   43052       0   43054   43055   43055       0
   43057   43058   43058       0   43060   43061   43061       0   43063   43064
   43064       0   43066   43067   43067       0   43069   43070   43070       0
   43072   43073   43073       0   43075   43076   43076       0   43078   43079
   43079       0   43081   43082   43082       0   43084   43085   43085       0
   43087   43088   43088       0   43090   43091   43091       0   43093   43094
   43094       0   43096   43097   43097       0   43099   43100   43100       0
   43102   43103   43103       0   43105   43106   43106       0   43108   43109
   43109       0   43111   43112   43112       0   43114   43115   43115       0
   43117   43118   43118       0   43120   43121   43121       0   43123   43124
   43124       0   43126   43127   43127       0   43129   43130   43130       0
   43132   43133   43133       0   43135   43136   43136       0   43138   43139
   43139       0   43141   43142   43142       0   43144   43145   43145       0
   43147   43148   43148       0   43150   43151   43151       0   43153   43154
   43154       0   43156   43157   43157       0   43159   43160   43160       0
   43162   43163   43163       0   43165   43166   43166       0   43168   43169
   43169       0   43171   43172   43172       0   43174   43175   43175       0
   43177   43178   43178       0   43180   43181   43181       0   43183   43184
   43184       0   43186   43187   43187       0   43189   43190   43190       0
   43192   43193   43193       0   43195   43196   43196       0   43198   43199
   43199       0   43201   43202   43202       0   43204   43205   43205       0
   43207   43208   43208       0   43210   43211   43211       0   43213   43214
   43214       0   43216   43217   43217       0   43219   43220   43220       0
   43222   43223   43223       0   43225   43226   43226       0   43228   43229
   43229       0   43231   43232   43232       0   43234   43235   43235       0
   43237   43238   43238       0   43240   43241   43241       0   43243   43244
   43244       0   43246   43247   43247       0   43249   43250   43250       0
   43252   43253   43253       0   43255   43256   43256       0   43258   43259
   43259       0   43261   43262   43262       0   43264   43265   43265       0
   43267   43268   43268       0   43270   43271   43271       0   43273   43274
   43274       0   43276   43277   43277       0   43279   43280   43280       0
   43282   43283   43283       0   43285   43286   43286       0   43288   43289
   43289       0   43291   43292   43292       0   43294   43295   43295       0
   43297   43298   43298       0   43300   43301   43301       0   43303   43304
   43304       0   43306   43307   43307       0   43309   43310   43310       0
   43312   43313   43313       0   43315   43316   43316       0   43318   43319
   43319       0   43321   43322   43322       0   43324   43325   43325       0
   43327   43328   43328       0   43330   43331   43331       0   43333   43334
   43334       0   43336   43337   43337       0   43339   43340   43340       0
   43342   43343   43343       0   43345   43346   43346       0   43348   43349
   43349       0   43351   43352   43352       0   43354   43355   43355       0
   43357   43358   43358       0   43360   43361   43361       0   43363   43364
   43364       0   43366   43367   43367       0   43369   43370   43370       0
   43372   43373   43373       0   43375   43376   43376       0   43378   43379
   43379       0   43381   43382   43382       0   43384   43385   43385       0
   43387   43388   43388       0   43390   43391   43391       0   43393   43394
   43394       0   43396   43397   43397       0   43399   43400   43400       0
   43402   43403   43403       0   43405   43406   43406       0   43408   43409
   43409       0   43411   43412   43412       0   43414   43415   43415       0
   43417   43418   43418       0   43420   43421   43421       0   43423   43424
   43424       0   43426   43427   43427       0   43429   43430   43430       0
   43432   43433   43433       0   43435   43436   43436       0   43438   43439
   43439       0   43441   43442   43442       0   43444   43445   43445       0
   43447   43448   43448       0   43450   43451   43451       0   43453   43454
   43454       0   43456   43457   43457       0   43459   43460   43460       0
   43462   43463   43463       0   43465   43466   43466       0   43468   43469
   43469       0   43471   43472   43472       0   43474   43475   43475       0
   43477   43478   43478       0   43480   43481   43481       0   43483   43484
   43484       0   43486   43487   43487       0   43489   43490   43490       0
   43492   43493   43493       0   43495   43496   43496       0   43498   43499
   43499       0   43501   43502   43502       0   43504   43505   43505       0
   43507   43508   43508       0   43510   43511   43511       0   43513   43514
   43514       0   43516   43517   43517       0   43519   43520   43520       0
   43522   43523   43523       0   43525   43526   43526       0   43528   43529
   43529       0   43531   43532   43532       0   43534   43535   43535       0
   43537   43538   43538       0   43540   43541   43541       0   43543   43544
   43544       0   43546   43547   43547       0   43549   43550   43550       0
   43552   43553   43553       0   43555   43556   43556       0   43558   43559
   43559       0   43561   43562   43562       0   43564   43565   43565       0
   43567   43568   43568       0   43570   43571   43571       0   43573   43574
   43574       0   43576   43577   43577       0   43579   43580   43580       0
   43582   43583   43583       0   43585   43586   43586       0   43588   43589
   43589       0   43591   43592   43592       0   43594   43595   43595       0
   43597   43598   43598       0   43600   43601   43601       0   43603   43604
   43604       0   43606   43607   43607       0   43609   43610   43610       0
   43612   43613   43613       0   43615   43616   43616       0   43618   43619
   43619       0   43621   43622   43622       0   43624   43625   43625       0
   43627   43628   43628       0   43630   43631   43631       0   43633   43634
   43634       0   43636   43637   43637       0   43639   43640   43640       0
   43642   43643   43643       0   43645   43646   43646       0   43648   43649
   43649       0   43651   43652   43652       0   43654   43655   43655       0
   43657   43658   43658       0   43660   43661   43661       0   43663   43664
   43664       0   43666   43667   43667       0   43669   43670   43670       0
   43672   43673   43673       0   43675   43676   43676       0   43678   43679
   43679       0   43681   43682   43682       0   43684   43685   43685       0
   43687   43688   43688       0   43690   43691   43691       0   43693   43694
   43694       0   43696   43697   43697       0   43699   43700   43700       0
   43702   43703   43703       0   43705   43706   43706       0   43708   43709
   43709       0   43711   43712   43712       0   43714   43715   43715       0
   43717   43718   43718       0   43720   43721   43721       0   43723   43724
   43724       0   43726   43727   43727       0   43729   43730   43730       0
   43732   43733   43733       0   43735   43736   43736       0   43738   43739
   43739       0   43741   43742   43742       0   43744   43745   43745       0
   43747   43748   43748       0   43750   43751   43751       0   43753   43754
   43754       0   43756   43757   43757       0   43759   43760   43760       0
   43762   43763   43763       0   43765   43766   43766       0   43768   43769
   43769       0   43771   43772   43772       0   43774   43775   43775       0
   43777   43778   43778       0   43780   43781   43781       0   43783   43784
   43784       0   43786   43787   43787       0   43789   43790   43790       0
   43792   43793   43793       0   43795   43796   43796       0   43798   43799
   43799       0   43801   43802   43802       0   43804   43805   43805       0
   43807   43808   43808       0   43810   43811   43811       0   43813   43814
   43814       0   43816   43817   43817       0   43819   43820   43820       0
   43822   43823   43823       0   43825   43826   43826       0   43828   43829
   43829       0   43831   43832   43832       0   43834   43835   43835       0
   43837   43838   43838       0   43840   43841   43841       0   43843   43844
   43844       0   43846   43847   43847       0   43849   43850   43850       0
   43852   43853   43853       0   43855   43856   43856       0   43858   43859
   43859       0   43861   43862   43862       0   43864   43865   43865       0
   43867   43868   43868       0   43870   43871   43871       0   43873   43874
   43874       0   43876   43877   43877       0   43879   43880   43880       0
   43882   43883   43883       0   43885   43886   43886       0   43888   43889
   43889       0   43891   43892   43892       0   43894   43895   43895       0
   43897   43898   43898       0   43900   43901   43901       0   43903   43904
   43904       0   43906   43907   43907       0   43909   43910   43910       0
   43912   43913   43913       0   43915   43916   43916       0   43918   43919
   43919       0   43921   43922   43922       0   43924   43925   43925       0
   43927   43928   43928       0   43930   43931   43931       0   43933   43934
   43934       0   43936   43937   43937       0   43939   43940   43940       0
   43942   43943   43943       0   43945   43946   43946       0   43948   43949
   43949       0   43951   43952   43952       0   43954   43955   43955       0
   43957   43958   43958       0   43960   43961   43961       0   43963   43964
   43964       0   43966   43967   43967       0   43969   43970   43970       0
   43972   43973   43973       0   43975   43976   43976       0   43978   43979
   43979       0   43981   43982   43982       0   43984   43985   43985       0
   43987   43988   43988       0   43990   43991   43991       0   43993   43994
   43994       0   43996   43997   43997       0   43999   44000   44000       0
   44002   44003   44003       0   44005   44006   44006       0   44008   44009
   44009       0   44011   44012   44012       0   44014   44015   44015       0
   44017   44018   44018       0   44020   44021   44021       0   44023   44024
   44024       0   44026   44027   44027       0   44029   44030   44030       0
   44032   44033   44033       0   44035   44036   44036       0   44038   44039
   44039       0   44041   44042   44042       0   44044   44045   44045       0
   44047   44048   44048       0   44050   44051   44051       0   44053   44054
   44054       0   44056   44057   44057       0   44059   44060   44060       0
   44062   44063   44063       0   44065   44066   44066       0   44068   44069
   44069       0   44071   44072   44072       0   44074   44075   44075       0
   44077   44078   44078       0   44080   44081   44081       0   44083   44084
   44084       0   44086   44087   44087       0   44089   44090   44090       0
   44092   44093   44093       0   44095   44096   44096       0   44098   44099
   44099       0   44101   44102   44102       0   44104   44105   44105       0
   44107   44108   44108       0   44110   44111   44111       0   44113   44114
   44114       0   44116   44117   44117       0   44119   44120   44120       0
   44122   44123   44123       0   44125   44126   44126       0   44128   44129
   44129       0   44131   44132   44132       0   44134   44135   44135       0
   44137   44138   44138       0   44140   44141   44141       0   44143   44144
   44144       0   44146   44147   44147       0   44149   44150   44150       0
   44152   44153   44153       0   44155   44156   44156       0   44158   44159
   44159       0   44161   44162   44162       0   44164   44165   44165       0
   44167   44168   44168       0   44170   44171   44171       0   44173   44174
   44174       0   44176   44177   44177       0   44179   44180   44180       0
   44182   44183   44183       0   44185   44186   44186       0   44188   44189
   44189       0   44191   44192   44192       0   44194   44195   44195       0
   44197   44198   44198       0   44200   44201   44201       0   44203   44204
   44204       0   44206   44207   44207       0   44209   44210   44210       0
   44212   44213   44213       0   44215   44216   44216       0   44218   44219
   44219       0   44221   44222   44222       0   44224   44225   44225       0
   44227   44228   44228       0   44230   44231   44231       0   44233   44234
   44234       0   44236   44237   44237       0   44239   44240   44240       0
   44242   44243   44243       0   44245   44246   44246       0   44248   44249
   44249       0   44251   44252   44252       0   44254   44255   44255       0
   44257   44258   44258       0   44260   44261   44261       0   44263   44264
   44264       0   44266   44267   44267       0   44269   44270   44270       0
   44272   44273   44273       0   44275   44276   44276       0   44278   44279
   44279       0   44281   44282   44282       0   44284   44285   44285       0
   44287   44288   44288       0   44290   44291   44291       0   44293   44294
   44294       0   44296   44297   44297       0   44299   44300   44300       0
   44302   44303   44303       0   44305   44306   44306       0   44308   44309
   44309       0   44311   44312   44312       0   44314   44315   44315       0
   44317   44318   44318       0   44320   44321   44321       0   44323   44324
   44324       0   44326   44327   44327       0   44329   44330   44330       0
   44332   44333   44333       0   44335   44336   44336       0   44338   44339
   44339       0   44341   44342   44342       0   44344   44345   44345       0
   44347   44348   44348       0   44350   44351   44351       0   44353   44354
   44354       0   44356   44357   44357       0   44359   44360   44360       0
   44362   44363   44363       0   44365   44366   44366       0   44368   44369
   44369       0   44371   44372   44372       0   44374   44375   44375       0
   44377   44378   44378       0   44380   44381   44381       0   44383   44384
   44384       0   44386   44387   44387       0   44389   44390   44390       0
   44392   44393   44393       0   44395   44396   44396       0   44398   44399
   44399       0   44401   44402   44402       0   44404   44405   44405       0
   44407   44408   44408       0   44410   44411   44411       0   44413   44414
   44414       0   44416   44417   44417       0   44419   44420   44420       0
   44422   44423   44423       0   44425   44426   44426       0   44428   44429
   44429       0   44431   44432   44432       0   44434   44435   44435       0
   44437   44438   44438       0   44440   44441   44441       0   44443   44444
   44444       0   44446   44447   44447       0   44449   44450   44450       0
   44452   44453   44453       0   44455   44456   44456       0   44458   44459
   44459       0   44461   44462   44462       0   44464   44465   44465       0
   44467   44468   44468       0   44470   44471   44471       0   44473   44474
   44474       0   44476   44477   44477       0   44479   44480   44480       0
   44482   44483   44483       0   44485   44486   44486       0   44488   44489
   44489       0   44491   44492   44492       0   44494   44495   44495       0
   44497   44498   44498       0   44500   44501   44501       0   44503   44504
   44504       0   44506   44507   44507       0   44509   44510   44510       0
   44512   44513   44513       0   44515   44516   44516       0   44518   44519
   44519       0   44521   44522   44522       0   44524   44525   44525       0
   44527   44528   44528       0   44530   44531   44531       0   44533   44534
   44534       0   44536   44537   44537       0   44539   44540   44540       0
   44542   44543   44543       0   44545   44546   44546       0   44548   44549
   44549       0   44551   44552   44552       0   44554   44555   44555       0
   44557   44558   44558       0   44560   44561   44561       0   44563   44564
   44564       0   44566   44567   44567       0   44569   44570   44570       0
   44572   44573   44573       0   44575   44576   44576       0   44578   44579
   44579       0   44581   44582   44582       0   44584   44585   44585       0
   44587   44588   44588       0   44590   44591   44591       0   44593   44594
   44594       0   44596   44597   44597       0   44599   44600   44600       0
   44602   44603   44603       0   44605   44606   44606       0   44608   44609
   44609       0   44611   44612   44612       0   44614   44615   44615       0
   44617   44618   44618       0   44620   44621   44621       0   44623   44624
   44624       0   44626   44627   44627       0   44629   44630   44630       0
   44632   44633   44633       0   44635   44636   44636       0   44638   44639
   44639       0   44641   44642   44642       0   44644   44645   44645       0
   44647   44648   44648       0   44650   44651   44651       0   44653   44654
   44654       0   44656   44657   44657       0   44659   44660   44660       0
   44662   44663   44663       0   44665   44666   44666       0   44668   44669
   44669       0   44671   44672   44672       0   44674   44675   44675       0
   44677   44678   44678       0   44680   44681   44681       0   44683   44684
   44684       0   44686   44687   44687       0   44689   44690   44690       0
   44692   44693   44693       0   44695   44696   44696       0   44698   44699
   44699       0   44701   44702   44702       0   44704   44705   44705       0
   44707   44708   44708       0   44710   44711   44711       0   44713   44714
   44714       0   44716   44717   44717       0   44719   44720   44720       0
   44722   44723   44723       0   44725   44726   44726       0   44728   44729
   44729       0   44731   44732   44732       0   44734   44735   44735       0
   44737   44738   44738       0   44740   44741   44741       0   44743   44744
   44744       0   44746   44747   44747       0   44749   44750   44750       0
   44752   44753   44753       0   44755   44756   44756       0   44758   44759
   44759       0   44761   44762   44762       0   44764   44765   44765       0
   44767   44768   44768       0   44770   44771   44771       0   44773   44774
   44774       0   44776   44777   44777       0   44779   44780   44780       0
   44782   44783   44783       0   44785   44786   44786       0   44788   44789
   44789       0   44791   44792   44792       0   44794   44795   44795       0
   44797   44798   44798       0   44800   44801   44801       0   44803   44804
   44804       0   44806   44807   44807       0   44809   44810   44810       0
   44812   44813   44813       0   44815   44816   44816       0   44818   44819
   44819       0   44821   44822   44822       0   44824   44825   44825       0
   44827   44828   44828       0   44830   44831   44831       0   44833   44834
   44834       0   44836   44837   44837       0   44839   44840   44840       0
   44842   44843   44843       0   44845   44846   44846       0   44848   44849
   44849       0   44851   44852   44852       0   44854   44855   44855       0
   44857   44858   44858       0   44860   44861   44861       0   44863   44864
   44864       0   44866   44867   44867       0   44869   44870   44870       0
   44872   44873   44873       0   44875   44876   44876       0   44878   44879
   44879       0   44881   44882   44882       0   44884   44885   44885       0
   44887   44888   44888       0   44890   44891   44891       0   44893   44894
   44894       0   44896   44897   44897       0   44899   44900   44900       0
   44902   44903   44903       0   44905   44906   44906       0   44908   44909
   44909       0   44911   44912   44912       0   44914   44915   44915       0
   44917   44918   44918       0   44920   44921   44921       0   44923   44924
   44924       0   44926   44927   44927       0   44929   44930   44930       0
   44932   44933   44933       0   44935   44936   44936       0   44938   44939
   44939       0   44941   44942   44942       0   44944   44945   44945       0
   44947   44948   44948       0   44950   44951   44951       0   44953   44954
   44954       0   44956   44957   44957       0   44959   44960   44960       0
   44962   44963   44963       0   44965   44966   44966       0   44968   44969
   44969       0   44971   44972   44972       0   44974   44975   44975       0
   44977   44978   44978       0   44980   44981   44981       0   44983   44984
   44984       0   44986   44987   44987       0   44989   44990   44990       0
   44992   44993   44993       0   44995   44996   44996       0   44998   44999
   44999       0   45001   45002   45002       0   45004   45005   45005       0
   45007   45008   45008       0   45010   45011   45011       0   45013   45014
   45014       0   45016   45017   45017       0   45019   45020   45020       0
   45022   45023   45023       0   45025   45026   45026       0   45028   45029
   45029       0   45031   45032   45032       0   45034   45035   45035       0
   45037   45038   45038       0   45040   45041   45041       0   45043   45044
   45044       0   45046   45047   45047       0   45049   45050   45050       0
   45052   45053   45053       0   45055   45056   45056       0   45058   45059
   45059       0   45061   45062   45062       0   45064   45065   45065       0
   45067   45068   45068       0   45070   45071   45071       0   45073   45074
   45074       0   45076   45077   45077       0   45079   45080   45080       0
   45082   45083   45083       0   45085   45086   45086       0   45088   45089
   45089       0   45091   45092   45092       0   45094   45095   45095       0
   45097   45098   45098       0   45100   45101   45101       0   45103   45104
   45104       0   45106   45107   45107       0   45109   45110   45110       0
   45112   45113   45113       0   45115   45116   45116       0   45118   45119
   45119       0   45121   45122   45122       0   45124   45125   45125       0
   45127   45128   45128       0   45130   45131   45131       0   45133   45134
   45134       0   45136   45137   45137       0   45139   45140   45140       0
   45142   45143   45143       0   45145   45146   45146       0   45148   45149
   45149       0   45151   45152   45152       0   45154   45155   45155       0
   45157   45158   45158       0   45160   45161   45161       0   45163   45164
   45164       0   45166   45167   45167       0   45169   45170   45170       0
   45172   45173   45173       0   45175   45176   45176       0   45178   45179
   45179       0   45181   45182   45182       0   45184   45185   45185       0
   45187   45188   45188       0   45190   45191   45191       0   45193   45194
   45194       0   45196   45197   45197       0   45199   45200   45200       0
   45202   45203   45203       0   45205   45206   45206       0   45208   45209
   45209       0   45211   45212   45212       0   45214   45215   45215       0
   45217   45218   45218       0   45220   45221   45221       0   45223   45224
   45224       0   45226   45227   45227       0   45229   45230   45230       0
   45232   45233   45233       0   45235   45236   45236       0   45238   45239
   45239       0   45241   45242   45242       0   45244   45245   45245       0
   45247   45248   45248       0   45250   45251   45251       0   45253   45254
   45254       0   45256   45257   45257       0   45259   45260   45260       0
   45262   45263   45263       0   45265   45266   45266       0   45268   45269
   45269       0   45271   45272   45272       0   45274   45275   45275       0
   45277   45278   45278       0   45280   45281   45281       0   45283   45284
   45284       0   45286   45287   45287       0   45289   45290   45290       0
   45292   45293   45293       0   45295   45296   45296       0   45298   45299
   45299       0   45301   45302   45302       0   45304   45305   45305       0
   45307   45308   45308       0   45310   45311   45311       0   45313   45314
   45314       0   45316   45317   45317       0   45319   45320   45320       0
   45322   45323   45323       0   45325   45326   45326       0   45328   45329
   45329       0   45331   45332   45332       0   45334   45335   45335       0
   45337   45338   45338       0   45340   45341   45341       0   45343   45344
   45344       0   45346   45347   45347       0   45349   45350   45350       0
   45352   45353   45353       0   45355   45356   45356       0   45358   45359
   45359       0   45361   45362   45362       0   45364   45365   45365       0
   45367   45368   45368       0   45370   45371   45371       0   45373   45374
   45374       0   45376   45377   45377       0   45379   45380   45380       0
   45382   45383   45383       0   45385   45386   45386       0   45388   45389
   45389       0   45391   45392   45392       0   45394   45395   45395       0
   45397   45398   45398       0   45400   45401   45401       0   45403   45404
   45404       0   45406   45407   45407       0   45409   45410   45410       0
   45412   45413   45413       0   45415   45416   45416       0   45418   45419
   45419       0   45421   45422   45422       0   45424   45425   45425       0
   45427   45428   45428       0   45430   45431   45431       0   45433   45434
   45434       0   45436   45437   45437       0   45439   45440   45440       0
   45442   45443   45443       0   45445   45446   45446       0   45448   45449
   45449       0   45451   45452   45452       0   45454   45455   45455       0
   45457   45458   45458       0   45460   45461   45461       0   45463   45464
   45464       0   45466   45467   45467       0   45469   45470   45470       0
   45472   45473   45473       0   45475   45476   45476       0   45478   45479
   45479       0   45481   45482   45482       0   45484   45485   45485       0
   45487   45488   45488       0   45490   45491   45491       0   45493   45494
   45494       0   45496   45497   45497       0   45499   45500   45500       0
   45502   45503   45503       0   45505   45506   45506       0   45508   45509
   45509       0   45511   45512   45512       0   45514   45515   45515       0
   45517   45518   45518       0   45520   45521   45521       0   45523   45524
   45524       0   45526   45527   45527       0   45529   45530   45530       0
   45532   45533   45533       0   45535   45536   45536       0   45538   45539
   45539       0   45541   45542   45542       0   45544   45545   45545       0
   45547   45548   45548       0   45550   45551   45551       0   45553   45554
   45554       0   45556   45557   45557       0   45559   45560   45560       0
   45562   45563   45563       0   45565   45566   45566       0   45568   45569
   45569       0   45571   45572   45572       0   45574   45575   45575       0
   45577   45578   45578       0   45580   45581   45581       0   45583   45584
   45584       0   45586   45587   45587       0   45589   45590   45590       0
   45592   45593   45593       0   45595   45596   45596       0   45598   45599
   45599       0   45601   45602   45602       0   45604   45605   45605       0
   45607   45608   45608       0   45610   45611   45611       0   45613   45614
   45614       0   45616   45617   45617       0   45619   45620   45620       0
   45622   45623   45623       0   45625   45626   45626       0   45628   45629
   45629       0   45631   45632   45632       0   45634   45635   45635       0
   45637   45638   45638       0   45640   45641   45641       0   45643   45644
   45644       0   45646   45647   45647       0   45649   45650   45650       0
   45652   45653   45653       0   45655   45656   45656       0   45658   45659
   45659       0   45661   45662   45662       0   45664   45665   45665       0
   45667   45668   45668       0   45670   45671   45671       0   45673   45674
   45674       0   45676   45677   45677       0   45679   45680   45680       0
   45682   45683   45683       0   45685   45686   45686       0   45688   45689
   45689       0   45691   45692   45692       0   45694   45695   45695       0
   45697   45698   45698       0   45700   45701   45701       0   45703   45704
   45704       0   45706   45707   45707       0   45709   45710   45710       0
   45712   45713   45713       0   45715   45716   45716       0   45718   45719
   45719       0   45721   45722   45722       0   45724   45725   45725       0
   45727   45728   45728       0   45730   45731   45731       0   45733   45734
   45734       0   45736   45737   45737       0   45739   45740   45740       0
   45742   45743   45743       0   45745   45746   45746       0   45748   45749
   45749       0   45751   45752   45752       0   45754   45755   45755       0
   45757   45758   45758       0   45760   45761   45761       0   45763   45764
   45764       0   45766   45767   45767       0   45769   45770   45770       0
   45772   45773   45773       0   45775   45776   45776       0   45778   45779
   45779       0   45781   45782   45782       0   45784   45785   45785       0
   45787   45788   45788       0   45790   45791   45791       0   45793   45794
   45794       0   45796   45797   45797       0   45799   45800   45800       0
   45802   45803   45803       0   45805   45806   45806       0   45808   45809
   45809       0   45811   45812   45812       0   45814   45815   45815       0
   45817   45818   45818       0   45820   45821   45821       0   45823   45824
   45824       0   45826   45827   45827       0   45829   45830   45830       0
   45832   45833   45833       0   45835   45836   45836       0   45838   45839
   45839       0   45841   45842   45842       0   45844   45845   45845       0
   45847   45848   45848       0   45850   45851   45851       0   45853   45854
   45854       0   45856   45857   45857       0   45859   45860   45860       0
   45862   45863   45863       0   45865   45866   45866       0   45868   45869
   45869       0   45871   45872   45872       0   45874   45875   45875       0
   45877   45878   45878       0   45880   45881   45881       0   45883   45884
   45884       0   45886   45887   45887       0   45889   45890   45890       0
   45892   45893   45893       0   45895   45896   45896       0   45898   45899
   45899       0   45901   45902   45902       0   45904   45905   45905       0
   45907   45908   45908       0   45910   45911   45911       0   45913   45914
   45914       0   45916   45917   45917       0   45919   45920   45920       0
   45922   45923   45923       0   45925   45926   45926       0   45928   45929
   45929       0   45931   45932   45932       0   45934   45935   45935       0
   45937   45938   45938       0   45940   45941   45941       0   45943   45944
   45944       0   45946   45947   45947       0   45949   45950   45950       0
   45952   45953   45953       0   45955   45956   45956       0   45958   45959
   45959       0   45961   45962   45962       0   45964   45965   45965       0
   45967   45968   45968       0   45970   45971   45971       0   45973   45974
   45974       0   45976   45977   45977       0   45979   45980   45980       0
   45982   45983   45983       0   45985   45986   45986       0   45988   45989
   45989       0   45991   45992   45992       0   45994   45995   45995       0
   45997   45998   45998       0   46000   46001   46001       0   46003   46004
   46004       0   46006   46007   46007       0   46009   46010   46010       0
   46012   46013   46013       0   46015   46016   46016       0   46018   46019
   46019       0   46021   46022   46022       0   46024   46025   46025       0
   46027   46028   46028       0   46030   46031   46031       0   46033   46034
   46034       0   46036   46037   46037       0   46039   46040   46040       0
   46042   46043   46043       0   46045   46046   46046       0   46048   46049
   46049       0   46051   46052   46052       0   46054   46055   46055       0
   46057   46058   46058       0   46060   46061   46061       0   46063   46064
   46064       0   46066   46067   46067       0   46069   46070   46070       0
   46072   46073   46073       0   46075   46076   46076       0   46078   46079
   46079       0   46081   46082   46082       0   46084   46085   46085       0
   46087   46088   46088       0   46090   46091   46091       0   46093   46094
   46094       0   46096   46097   46097       0   46099   46100   46100       0
   46102   46103   46103       0   46105   46106   46106       0   46108   46109
   46109       0   46111   46112   46112       0   46114   46115   46115       0
   46117   46118   46118       0   46120   46121   46121       0   46123   46124
   46124       0   46126   46127   46127       0   46129   46130   46130       0
   46132   46133   46133       0   46135   46136   46136       0   46138   46139
   46139       0   46141   46142   46142       0   46144   46145   46145       0
   46147   46148   46148       0   46150   46151   46151       0   46153   46154
   46154       0   46156   46157   46157       0   46159   46160   46160       0
   46162   46163   46163       0   46165   46166   46166       0   46168   46169
   46169       0   46171   46172   46172       0   46174   46175   46175       0
   46177   46178   46178       0   46180   46181   46181       0   46183   46184
   46184       0   46186   46187   46187       0   46189   46190   46190       0
   46192   46193   46193       0   46195   46196   46196       0   46198   46199
   46199       0   46201   46202   46202       0   46204   46205   46205       0
   46207   46208   46208       0   46210   46211   46211       0   46213   46214
   46214       0   46216   46217   46217       0   46219   46220   46220       0
   46222   46223   46223       0   46225   46226   46226       0   46228   46229
   46229       0   46231   46232   46232       0   46234   46235   46235       0
   46237   46238   46238       0   46240   46241   46241       0   46243   46244
   46244       0   46246   46247   46247       0   46249   46250   46250       0
   46252   46253   46253       0   46255   46256   46256       0   46258   46259
   46259       0   46261   46262   46262       0   46264   46265   46265       0
   46267   46268   46268       0   46270   46271   46271       0   46273   46274
   46274       0   46276   46277   46277       0   46279   46280   46280       0
   46282   46283   46283       0   46285   46286   46286       0   46288   46289
   46289       0   46291   46292   46292       0   46294   46295   46295       0
   46297   46298   46298       0   46300   46301   46301       0   46303   46304
   46304       0   46306   46307   46307       0   46309   46310   46310       0
   46312   46313   46313       0   46315   46316   46316       0   46318   46319
   46319       0   46321   46322   46322       0   46324   46325   46325       0
   46327   46328   46328       0   46330   46331   46331       0   46333   46334
   46334       0   46336   46337   46337       0   46339   46340   46340       0
   46342   46343   46343       0   46345   46346   46346       0   46348   46349
   46349       0   46351   46352   46352       0   46354   46355   46355       0
   46357   46358   46358       0   46360   46361   46361       0   46363   46364
   46364       0   46366   46367   46367       0   46369   46370   46370       0
   46372   46373   46373       0   46375   46376   46376       0   46378   46379
   46379       0   46381   46382   46382       0   46384   46385   46385       0
   46387   46388   46388       0   46390   46391   46391       0   46393   46394
   46394       0   46396   46397   46397       0   46399   46400   46400       0
   46402   46403   46403       0   46405   46406   46406       0   46408   46409
   46409       0   46411   46412   46412       0   46414   46415   46415       0
   46417   46418   46418       0   46420   46421   46421       0   46423   46424
   46424       0   46426   46427   46427       0   46429   46430   46430       0
   46432   46433   46433       0   46435   46436   46436       0   46438   46439
   46439       0   46441   46442   46442       0   46444   46445   46445       0
   46447   46448   46448       0   46450   46451   46451       0   46453   46454
   46454       0   46456   46457   46457       0   46459   46460   46460       0
   46462   46463   46463       0   46465   46466   46466       0   46468   46469
   46469       0   46471   46472   46472       0   46474   46475   46475       0
   46477   46478   46478       0   46480   46481   46481       0   46483   46484
   46484       0   46486   46487   46487       0   46489   46490   46490       0
   46492   46493   46493       0   46495   46496   46496       0   46498   46499
   46499       0   46501   46502   46502       0   46504   46505   46505       0
   46507   46508   46508       0   46510   46511   46511       0   46513   46514
   46514       0   46516   46517   46517       0   46519   46520   46520       0
   46522   46523   46523       0   46525   46526   46526       0   46528   46529
   46529       0   46531   46532   46532       0   46534   46535   46535       0
   46537   46538   46538       0   46540   46541   46541       0   46543   46544
   46544       0   46546   46547   46547       0   46549   46550   46550       0
   46552   46553   46553       0   46555   46556   46556       0   46558   46559
   46559       0   46561   46562   46562       0   46564   46565   46565       0
   46567   46568   46568       0   46570   46571   46571       0   46573   46574
   46574       0   46576   46577   46577       0   46579   46580   46580       0
   46582   46583   46583       0   46585   46586   46586       0   46588   46589
   46589       0   46591   46592   46592       0   46594   46595   46595       0
   46597   46598   46598       0   46600   46601   46601       0   46603   46604
   46604       0   46606   46607   46607       0   46609   46610   46610       0
   46612   46613   46613       0   46615   46616   46616       0   46618   46619
   46619       0   46621   46622   46622       0   46624   46625   46625       0
   46627   46628   46628       0   46630   46631   46631       0   46633   46634
   46634       0   46636   46637   46637       0   46639   46640   46640       0
   46642   46643   46643       0   46645   46646   46646       0   46648   46649
   46649       0   46651   46652   46652       0   46654   46655   46655       0
   46657   46658   46658       0   46660   46661   46661       0   46663   46664
   46664       0   46666   46667   46667       0   46669   46670   46670       0
   46672   46673   46673       0   46675   46676   46676       0   46678   46679
   46679       0   46681   46682   46682       0   46684   46685   46685       0
   46687   46688   46688       0   46690   46691   46691       0   46693   46694
   46694       0   46696   46697   46697       0   46699   46700   46700       0
   46702   46703   46703       0   46705   46706   46706       0   46708   46709
   46709       0   46711   46712   46712       0   46714   46715   46715       0
   46717   46718   46718       0   46720   46721   46721       0   46723   46724
   46724       0   46726   46727   46727       0   46729   46730   46730       0
   46732   46733   46733       0   46735   46736   46736       0   46738   46739
   46739       0   46741   46742   46742       0   46744   46745   46745       0
   46747   46748   46748       0   46750   46751   46751       0   46753   46754
   46754       0   46756   46757   46757       0   46759   46760   46760       0
   46762   46763   46763       0   46765   46766   46766       0   46768   46769
   46769       0   46771   46772   46772       0   46774   46775   46775       0
   46777   46778   46778       0   46780   46781   46781       0   46783   46784
   46784       0   46786   46787   46787       0   46789   46790   46790       0
   46792   46793   46793       0   46795   46796   46796       0   46798   46799
   46799       0   46801   46802   46802       0   46804   46805   46805       0
   46807   46808   46808       0   46810   46811   46811       0   46813   46814
   46814       0   46816   46817   46817       0   46819   46820   46820       0
   46822   46823   46823       0   46825   46826   46826       0   46828   46829
   46829       0   46831   46832   46832       0   46834   46835   46835       0
   46837   46838   46838       0   46840   46841   46841       0   46843   46844
   46844       0   46846   46847   46847       0   46849   46850   46850       0
   46852   46853   46853       0   46855   46856   46856       0   46858   46859
   46859       0   46861   46862   46862       0   46864   46865   46865       0
   46867   46868   46868       0   46870   46871   46871       0   46873   46874
   46874       0   46876   46877   46877       0   46879   46880   46880       0
   46882   46883   46883       0   46885   46886   46886       0   46888   46889
   46889       0   46891   46892   46892       0   46894   46895   46895       0
   46897   46898   46898       0   46900   46901   46901       0   46903   46904
   46904       0   46906   46907   46907       0   46909   46910   46910       0
   46912   46913   46913       0   46915   46916   46916       0   46918   46919
   46919       0   46921   46922   46922       0   46924   46925   46925       0
   46927   46928   46928       0   46930   46931   46931       0   46933   46934
   46934       0   46936   46937   46937       0   46939   46940   46940       0
   46942   46943   46943       0   46945   46946   46946       0   46948   46949
   46949       0   46951   46952   46952       0   46954   46955   46955       0
   46957   46958   46958       0   46960   46961   46961       0   46963   46964
   46964       0   46966   46967   46967       0   46969   46970   46970       0
   46972   46973   46973       0   46975   46976   46976       0   46978   46979
   46979       0   46981   46982   46982       0   46984   46985   46985       0
   46987   46988   46988       0   46990   46991   46991       0   46993   46994
   46994       0   46996   46997   46997       0   46999   47000   47000       0
   47002   47003   47003       0   47005   47006   47006       0   47008   47009
   47009       0   47011   47012   47012       0   47014   47015   47015       0
   47017   47018   47018       0   47020   47021   47021       0   47023   47024
   47024       0   47026   47027   47027       0   47029   47030   47030       0
   47032   47033   47033       0   47035   47036   47036       0   47038   47039
   47039       0   47041   47042   47042       0   47044   47045   47045       0
   47047   47048   47048       0   47050   47051   47051       0   47053   47054
   47054       0   47056   47057   47057       0   47059   47060   47060       0
   47062   47063   47063       0   47065   47066   47066       0   47068   47069
   47069       0   47071   47072   47072       0   47074   47075   47075       0
   47077   47078   47078       0   47080   47081   47081       0   47083   47084
   47084       0   47086   47087   47087       0   47089   47090   47090       0
   47092   47093   47093       0   47095   47096   47096       0   47098   47099
   47099       0   47101   47102   47102       0   47104   47105   47105       0
   47107   47108   47108       0   47110   47111   47111       0   47113   47114
   47114       0   47116   47117   47117       0   47119   47120   47120       0
   47122   47123   47123       0   47125   47126   47126       0   47128   47129
   47129       0   47131   47132   47132       0   47134   47135   47135       0
   47137   47138   47138       0   47140   47141   47141       0   47143   47144
   47144       0   47146   47147   47147       0   47149   47150   47150       0
   47152   47153   47153       0   47155   47156   47156       0   47158   47159
   47159       0   47161   47162   47162       0   47164   47165   47165       0
   47167   47168   47168       0   47170   47171   47171       0   47173   47174
   47174       0   47176   47177   47177       0   47179   47180   47180       0
   47182   47183   47183       0   47185   47186   47186       0   47188   47189
   47189       0   47191   47192   47192       0   47194   47195   47195       0
   47197   47198   47198       0   47200   47201   47201       0   47203   47204
   47204       0   47206   47207   47207       0   47209   47210   47210       0
   47212   47213   47213       0   47215   47216   47216       0   47218   47219
   47219       0   47221   47222   47222       0   47224   47225   47225       0
   47227   47228   47228       0   47230   47231   47231       0   47233   47234
   47234       0   47236   47237   47237       0   47239   47240   47240       0
   47242   47243   47243       0   47245   47246   47246       0   47248   47249
   47249       0   47251   47252   47252       0   47254   47255   47255       0
   47257   47258   47258       0   47260   47261   47261       0   47263   47264
   47264       0   47266   47267   47267       0   47269   47270   47270       0
   47272   47273   47273       0   47275   47276   47276       0   47278   47279
   47279       0   47281   47282   47282       0   47284   47285   47285       0
   47287   47288   47288       0   47290   47291   47291       0   47293   47294
   47294       0   47296   47297   47297       0   47299   47300   47300       0
   47302   47303   47303       0   47305   47306   47306       0   47308   47309
   47309       0   47311   47312   47312       0   47314   47315   47315       0
   47317   47318   47318       0   47320   47321   47321       0   47323   47324
   47324       0   47326   47327   47327       0   47329   47330   47330       0
   47332   47333   47333       0   47335   47336   47336       0   47338   47339
   47339       0   47341   47342   47342       0   47344   47345   47345       0
   47347   47348   47348       0   47350   47351   47351       0   47353   47354
   47354       0   47356   47357   47357       0   47359   47360   47360       0
   47362   47363   47363       0   47365   47366   47366       0   47368   47369
   47369       0   47371   47372   47372       0   47374   47375   47375       0
   47377   47378   47378       0   47380   47381   47381       0   47383   47384
   47384       0   47386   47387   47387       0   47389   47390   47390       0
   47392   47393   47393       0   47395   47396   47396       0   47398   47399
   47399       0   47401   47402   47402       0   47404   47405   47405       0
   47407   47408   47408       0   47410   47411   47411       0   47413   47414
   47414       0   47416   47417   47417       0   47419   47420   47420       0
   47422   47423   47423       0   47425   47426   47426       0   47428   47429
   47429       0   47431   47432   47432       0   47434   47435   47435       0
   47437   47438   47438       0   47440   47441   47441       0   47443   47444
   47444       0   47446   47447   47447       0   47449   47450   47450       0
   47452   47453   47453       0   47455   47456   47456       0   47458   47459
   47459       0   47461   47462   47462       0   47464   47465   47465       0
   47467   47468   47468       0   47470   47471   47471       0   47473   47474
   47474       0   47476   47477   47477       0   47479   47480   47480       0
   47482   47483   47483       0   47485   47486   47486       0   47488   47489
   47489       0   47491   47492   47492       0   47494   47495   47495       0
   47497   47498   47498       0   47500   47501   47501       0   47503   47504
   47504       0   47506   47507   47507       0   47509   47510   47510       0
   47512   47513   47513       0   47515   47516   47516       0   47518   47519
   47519       0   47521   47522   47522       0   47524   47525   47525       0
   47527   47528   47528       0   47530   47531   47531       0   47533   47534
   47534       0   47536   47537   47537       0   47539   47540   47540       0
   47542   47543   47543       0   47545   47546   47546       0   47548   47549
   47549       0   47551   47552   47552       0   47554   47555   47555       0
   47557   47558   47558       0   47560   47561   47561       0   47563   47564
   47564       0   47566   47567   47567       0   47569   47570   47570       0
   47572   47573   47573       0   47575   47576   47576       0   47578   47579
   47579       0   47581   47582   47582       0   47584   47585   47585       0
   47587   47588   47588       0   47590   47591   47591       0   47593   47594
   47594       0   47596   47597   47597       0   47599   47600   47600       0
   47602   47603   47603       0   47605   47606   47606       0   47608   47609
   47609       0   47611   47612   47612       0   47614   47615   47615       0
   47617   47618   47618       0   47620   47621   47621       0   47623   47624
   47624       0   47626   47627   47627       0   47629   47630   47630       0
   47632   47633   47633       0   47635   47636   47636       0   47638   47639
   47639       0   47641   47642   47642       0   47644   47645   47645       0
   47647   47648   47648       0   47650   47651   47651       0   47653   47654
   47654       0   47656   47657   47657       0   47659   47660   47660       0
   47662   47663   47663       0   47665   47666   47666       0   47668   47669
   47669       0   47671   47672   47672       0   47674   47675   47675       0
   47677   47678   47678       0   47680   47681   47681       0   47683   47684
   47684       0   47686   47687   47687       0   47689   47690   47690       0
   47692   47693   47693       0   47695   47696   47696       0   47698   47699
   47699       0   47701   47702   47702       0   47704   47705   47705       0
   47707   47708   47708       0   47710   47711   47711       0   47713   47714
   47714       0   47716   47717   47717       0   47719   47720   47720       0
   47722   47723   47723       0   47725   47726   47726       0   47728   47729
   47729       0   47731   47732   47732       0   47734   47735   47735       0
   47737   47738   47738       0   47740   47741   47741       0   47743   47744
   47744       0   47746   47747   47747       0   47749   47750   47750       0
   47752   47753   47753       0   47755   47756   47756       0   47758   47759
   47759       0   47761   47762   47762       0   47764   47765   47765       0
   47767   47768   47768       0   47770   47771   47771       0   47773   47774
   47774       0   47776   47777   47777       0   47779   47780   47780       0
   47782   47783   47783       0   47785   47786   47786       0   47788   47789
   47789       0   47791   47792   47792       0   47794   47795   47795       0
   47797   47798   47798       0   47800   47801   47801       0   47803   47804
   47804       0   47806   47807   47807       0   47809   47810   47810       0
   47812   47813   47813       0   47815   47816   47816       0   47818   47819
   47819       0   47821   47822   47822       0   47824   47825   47825       0
   47827   47828   47828       0   47830   47831   47831       0   47833   47834
   47834       0   47836   47837   47837       0   47839   47840   47840       0
   47842   47843   47843       0   47845   47846   47846       0   47848   47849
   47849       0   47851   47852   47852       0   47854   47855   47855       0
   47857   47858   47858       0   47860   47861   47861       0   47863   47864
   47864       0   47866   47867   47867       0   47869   47870   47870       0
   47872   47873   47873       0   47875   47876   47876       0   47878   47879
   47879       0   47881   47882   47882       0   47884   47885   47885       0
   47887   47888   47888       0   47890   47891   47891       0   47893   47894
   47894       0   47896   47897   47897       0   47899   47900   47900       0
   47902   47903   47903       0   47905   47906   47906       0   47908   47909
   47909       0   47911   47912   47912       0   47914   47915   47915       0
   47917   47918   47918       0   47920   47921   47921       0   47923   47924
   47924       0   47926   47927   47927       0   47929   47930   47930       0
   47932   47933   47933       0   47935   47936   47936       0   47938   47939
   47939       0   47941   47942   47942       0   47944   47945   47945       0
   47947   47948   47948       0   47950   47951   47951       0   47953   47954
   47954       0   47956   47957   47957       0   47959   47960   47960       0
   47962   47963   47963       0   47965   47966   47966       0   47968   47969
   47969       0   47971   47972   47972       0   47974   47975   47975       0
   47977   47978   47978       0   47980   47981   47981       0   47983   47984
   47984       0   47986   47987   47987       0   47989   47990   47990       0
   47992   47993   47993       0   47995   47996   47996       0   47998   47999
   47999       0   48001   48002   48002       0   48004   48005   48005       0
   48007   48008   48008       0   48010   48011   48011       0   48013   48014
   48014       0   48016   48017   48017       0   48019   48020   48020       0
   48022   48023   48023       0   48025   48026   48026       0   48028   48029
   48029       0   48031   48032   48032       0   48034   48035   48035       0
   48037   48038   48038       0   48040   48041   48041       0   48043   48044
   48044       0   48046   48047   48047       0   48049   48050   48050       0
   48052   48053   48053       0   48055   48056   48056       0   48058   48059
   48059       0   48061   48062   48062       0   48064   48065   48065       0
   48067   48068   48068       0   48070   48071   48071       0   48073   48074
   48074       0   48076   48077   48077       0   48079   48080   48080       0
   48082   48083   48083       0   48085   48086   48086       0   48088   48089
   48089       0   48091   48092   48092       0   48094   48095   48095       0
   48097   48098   48098       0   48100   48101   48101       0   48103   48104
   48104       0   48106   48107   48107       0   48109   48110   48110       0
   48112   48113   48113       0   48115   48116   48116       0   48118   48119
   48119       0   48121   48122   48122       0   48124   48125   48125       0
   48127   48128   48128       0   48130   48131   48131       0   48133   48134
   48134       0   48136   48137   48137       0   48139   48140   48140       0
   48142   48143   48143       0   48145   48146   48146       0   48148   48149
   48149       0   48151   48152   48152       0   48154   48155   48155       0
   48157   48158   48158       0   48160   48161   48161       0   48163   48164
   48164       0   48166   48167   48167       0   48169   48170   48170       0
   48172   48173   48173       0   48175   48176   48176       0   48178   48179
   48179       0   48181   48182   48182       0   48184   48185   48185       0
   48187   48188   48188       0   48190   48191   48191       0   48193   48194
   48194       0   48196   48197   48197       0   48199   48200   48200       0
   48202   48203   48203       0   48205   48206   48206       0   48208   48209
   48209       0   48211   48212   48212       0   48214   48215   48215       0
   48217   48218   48218       0   48220   48221   48221       0   48223   48224
   48224       0   48226   48227   48227       0   48229   48230   48230       0
   48232   48233   48233       0   48235   48236   48236       0   48238   48239
   48239       0   48241   48242   48242       0   48244   48245   48245       0
   48247   48248   48248       0   48250   48251   48251       0   48253   48254
   48254       0   48256   48257   48257       0   48259   48260   48260       0
   48262   48263   48263       0   48265   48266   48266       0   48268   48269
   48269       0   48271   48272   48272       0   48274   48275   48275       0
   48277   48278   48278       0   48280   48281   48281       0   48283   48284
   48284       0   48286   48287   48287       0   48289   48290   48290       0
   48292   48293   48293       0   48295   48296   48296       0   48298   48299
   48299       0   48301   48302   48302       0   48304   48305   48305       0
   48307   48308   48308       0   48310   48311   48311       0   48313   48314
   48314       0   48316   48317   48317       0   48319   48320   48320       0
   48322   48323   48323       0   48325   48326   48326       0   48328   48329
   48329       0   48331   48332   48332       0   48334   48335   48335       0
   48337   48338   48338       0   48340   48341   48341       0   48343   48344
   48344       0   48346   48347   48347       0   48349   48350   48350       0
   48352   48353   48353       0   48355   48356   48356       0   48358   48359
   48359       0   48361   48362   48362       0   48364   48365   48365       0
   48367   48368   48368       0   48370   48371   48371       0   48373   48374
   48374       0   48376   48377   48377       0   48379   48380   48380       0
   48382   48383   48383       0   48385   48386   48386       0   48388   48389
   48389       0   48391   48392   48392       0   48394   48395   48395       0
   48397   48398   48398       0   48400   48401   48401       0   48403   48404
   48404       0   48406   48407   48407       0   48409   48410   48410       0
   48412   48413   48413       0   48415   48416   48416       0   48418   48419
   48419       0   48421   48422   48422       0   48424   48425   48425       0
   48427   48428   48428       0   48430   48431   48431       0   48433   48434
   48434       0   48436   48437   48437       0   48439   48440   48440       0
   48442   48443   48443       0   48445   48446   48446       0   48448   48449
   48449       0   48451   48452   48452       0   48454   48455   48455       0
   48457   48458   48458       0   48460   48461   48461       0   48463   48464
   48464       0   48466   48467   48467       0   48469   48470   48470       0
   48472   48473   48473       0   48475   48476   48476       0   48478   48479
   48479       0   48481   48482   48482       0   48484   48485   48485       0
   48487   48488   48488       0   48490   48491   48491       0   48493   48494
   48494       0   48496   48497   48497       0   48499   48500   48500       0
   48502   48503   48503       0   48505   48506   48506       0   48508   48509
   48509       0   48511   48512   48512       0   48514   48515   48515       0
   48517   48518   48518       0   48520   48521   48521       0   48523   48524
   48524       0   48526   48527   48527       0   48529   48530   48530       0
   48532   48533   48533       0   48535   48536   48536       0   48538   48539
   48539       0   48541   48542   48542       0   48544   48545   48545       0
   48547   48548   48548       0   48550   48551   48551       0   48553   48554
   48554       0   48556   48557   48557       0   48559   48560   48560       0
   48562   48563   48563       0   48565   48566   48566       0   48568   48569
   48569       0   48571   48572   48572       0   48574   48575   48575       0
   48577   48578   48578       0   48580   48581   48581       0   48583   48584
   48584       0   48586   48587   48587       0   48589   48590   48590       0
   48592   48593   48593       0   48595   48596   48596       0   48598   48599
   48599       0   48601   48602   48602       0   48604   48605   48605       0
   48607   48608   48608       0   48610   48611   48611       0   48613   48614
   48614       0   48616   48617   48617       0   48619   48620   48620       0
   48622   48623   48623       0   48625   48626   48626       0   48628   48629
   48629       0   48631   48632   48632       0   48634   48635   48635       0
   48637   48638   48638       0   48640   48641   48641       0   48643   48644
   48644       0   48646   48647   48647       0   48649   48650   48650       0
   48652   48653   48653       0   48655   48656   48656       0   48658   48659
   48659       0   48661   48662   48662       0   48664   48665   48665       0
   48667   48668   48668       0   48670   48671   48671       0   48673   48674
   48674       0   48676   48677   48677       0   48679   48680   48680       0
   48682   48683   48683       0   48685   48686   48686       0   48688   48689
   48689       0   48691   48692   48692       0   48694   48695   48695       0
   48697   48698   48698       0   48700   48701   48701       0   48703   48704
   48704       0   48706   48707   48707       0   48709   48710   48710       0
   48712   48713   48713       0   48715   48716   48716       0   48718   48719
   48719       0   48721   48722   48722       0   48724   48725   48725       0
   48727   48728   48728       0   48730   48731   48731       0   48733   48734
   48734       0   48736   48737   48737       0   48739   48740   48740       0
   48742   48743   48743       0   48745   48746   48746       0   48748   48749
   48749       0   48751   48752   48752       0   48754   48755   48755       0
   48757   48758   48758       0   48760   48761   48761       0   48763   48764
   48764       0   48766   48767   48767       0   48769   48770   48770       0
   48772   48773   48773       0   48775   48776   48776       0   48778   48779
   48779       0   48781   48782   48782       0   48784   48785   48785       0
   48787   48788   48788       0   48790   48791   48791       0   48793   48794
   48794       0   48796   48797   48797       0   48799   48800   48800       0
   48802   48803   48803       0   48805   48806   48806       0   48808   48809
   48809       0   48811   48812   48812       0   48814   48815   48815       0
   48817   48818   48818       0   48820   48821   48821       0   48823   48824
   48824       0   48826   48827   48827       0   48829   48830   48830       0
   48832   48833   48833       0   48835   48836   48836       0   48838   48839
   48839       0   48841   48842   48842       0   48844   48845   48845       0
   48847   48848   48848       0   48850   48851   48851       0   48853   48854
   48854       0   48856   48857   48857       0   48859   48860   48860       0
   48862   48863   48863       0   48865   48866   48866       0   48868   48869
   48869       0   48871   48872   48872       0   48874   48875   48875       0
   48877   48878   48878       0   48880   48881   48881       0   48883   48884
   48884       0   48886   48887   48887       0   48889   48890   48890       0
   48892   48893   48893       0   48895   48896   48896       0   48898   48899
   48899       0   48901   48902   48902       0   48904   48905   48905       0
   48907   48908   48908       0   48910   48911   48911       0   48913   48914
   48914       0   48916   48917   48917       0   48919   48920   48920       0
   48922   48923   48923       0   48925   48926   48926       0   48928   48929
   48929       0   48931   48932   48932       0   48934   48935   48935       0
   48937   48938   48938       0   48940   48941   48941       0   48943   48944
   48944       0   48946   48947   48947       0   48949   48950   48950       0
   48952   48953   48953       0   48955   48956   48956       0   48958   48959
   48959       0   48961   48962   48962       0   48964   48965   48965       0
   48967   48968   48968       0   48970   48971   48971       0   48973   48974
   48974       0   48976   48977   48977       0   48979   48980   48980       0
   48982   48983   48983       0   48985   48986   48986       0   48988   48989
   48989       0   48991   48992   48992       0   48994   48995   48995       0
   48997   48998   48998       0   49000   49001   49001       0   49003   49004
   49004       0   49006   49007   49007       0   49009   49010   49010       0
   49012   49013   49013       0   49015   49016   49016       0   49018   49019
   49019       0   49021   49022   49022       0   49024   49025   49025       0
   49027   49028   49028       0   49030   49031   49031       0   49033   49034
   49034       0   49036   49037   49037       0   49039   49040   49040       0
   49042   49043   49043       0   49045   49046   49046       0   49048   49049
   49049       0   49051   49052   49052       0   49054   49055   49055       0
   49057   49058   49058       0   49060   49061   49061       0   49063   49064
   49064       0   49066   49067   49067       0   49069   49070   49070       0
   49072   49073   49073       0   49075   49076   49076       0   49078   49079
   49079       0   49081   49082   49082       0   49084   49085   49085       0
   49087   49088   49088       0   49090   49091   49091       0   49093   49094
   49094       0   49096   49097   49097       0   49099   49100   49100       0
   49102   49103   49103       0   49105   49106   49106       0   49108   49109
   49109       0   49111   49112   49112       0   49114   49115   49115       0
   49117   49118   49118       0   49120   49121   49121       0   49123   49124
   49124       0   49126   49127   49127       0   49129   49130   49130       0
   49132   49133   49133       0   49135   49136   49136       0   49138   49139
   49139       0   49141   49142   49142       0   49144   49145   49145       0
   49147   49148   49148       0   49150   49151   49151       0   49153   49154
   49154       0   49156   49157   49157       0   49159   49160   49160       0
   49162   49163   49163       0   49165   49166   49166       0   49168   49169
   49169       0   49171   49172   49172       0   49174   49175   49175       0
   49177   49178   49178       0   49180   49181   49181       0   49183   49184
   49184       0   49186   49187   49187       0   49189   49190   49190       0
   49192   49193   49193       0   49195   49196   49196       0   49198   49199
   49199       0   49201   49202   49202       0   49204   49205   49205       0
   49207   49208   49208       0   49210   49211   49211       0   49213   49214
   49214       0   49216   49217   49217       0   49219   49220   49220       0
   49222   49223   49223       0   49225   49226   49226       0   49228   49229
   49229       0   49231   49232   49232       0   49234   49235   49235       0
   49237   49238   49238       0   49240   49241   49241       0   49243   49244
   49244       0   49246   49247   49247       0   49249   49250   49250       0
   49252   49253   49253       0   49255   49256   49256       0   49258   49259
   49259       0   49261   49262   49262       0   49264   49265   49265       0
   49267   49268   49268       0   49270   49271   49271       0   49273   49274
   49274       0   49276   49277   49277       0   49279   49280   49280       0
   49282   49283   49283       0   49285   49286   49286       0   49288   49289
   49289       0   49291   49292   49292       0   49294   49295   49295       0
   49297   49298   49298       0   49300   49301   49301       0   49303   49304
   49304       0   49306   49307   49307       0   49309   49310   49310       0
   49312   49313   49313       0   49315   49316   49316       0   49318   49319
   49319       0   49321   49322   49322       0   49324   49325   49325       0
   49327   49328   49328       0   49330   49331   49331       0   49333   49334
   49334       0   49336   49337   49337       0   49339   49340   49340       0
   49342   49343   49343       0   49345   49346   49346       0   49348   49349
   49349       0   49351   49352   49352       0   49354   49355   49355       0
   49357   49358   49358       0   49360   49361   49361       0   49363   49364
   49364       0   49366   49367   49367       0   49369   49370   49370       0
   49372   49373   49373       0   49375   49376   49376       0   49378   49379
   49379       0   49381   49382   49382       0   49384   49385   49385       0
   49387   49388   49388       0   49390   49391   49391       0   49393   49394
   49394       0   49396   49397   49397       0   49399   49400   49400       0
   49402   49403   49403       0   49405   49406   49406       0   49408   49409
   49409       0   49411   49412   49412       0   49414   49415   49415       0
   49417   49418   49418       0   49420   49421   49421       0   49423   49424
   49424       0   49426   49427   49427       0   49429   49430   49430       0
   49432   49433   49433       0   49435   49436   49436       0   49438   49439
   49439       0   49441   49442   49442       0   49444   49445   49445       0
   49447   49448   49448       0   49450   49451   49451       0   49453   49454
   49454       0   49456   49457   49457       0   49459   49460   49460       0
   49462   49463   49463       0   49465   49466   49466       0   49468   49469
   49469       0   49471   49472   49472       0   49474   49475   49475       0
   49477   49478   49478       0   49480   49481   49481       0   49483   49484
   49484       0   49486   49487   49487       0   49489   49490   49490       0
   49492   49493   49493       0   49495   49496   49496       0   49498   49499
   49499       0   49501   49502   49502       0   49504   49505   49505       0
   49507   49508   49508       0   49510   49511   49511       0   49513   49514
   49514       0   49516   49517   49517       0   49519   49520   49520       0
   49522   49523   49523       0   49525   49526   49526       0   49528   49529
   49529       0   49531   49532   49532       0   49534   49535   49535       0
   49537   49538   49538       0   49540   49541   49541       0   49543   49544
   49544       0   49546   49547   49547       0   49549   49550   49550       0
   49552   49553   49553       0   49555   49556   49556       0   49558   49559
   49559       0   49561   49562   49562       0   49564   49565   49565       0
   49567   49568   49568       0   49570   49571   49571       0   49573   49574
   49574       0   49576   49577   49577       0   49579   49580   49580       0
   49582   49583   49583       0   49585   49586   49586       0   49588   49589
   49589       0   49591   49592   49592       0   49594   49595   49595       0
   49597   49598   49598       0   49600   49601   49601       0   49603   49604
   49604       0   49606   49607   49607       0   49609   49610   49610       0
   49612   49613   49613       0   49615   49616   49616       0   49618   49619
   49619       0   49621   49622   49622       0   49624   49625   49625       0
   49627   49628   49628       0   49630   49631   49631       0   49633   49634
   49634       0   49636   49637   49637       0   49639   49640   49640       0
   49642   49643   49643       0   49645   49646   49646       0   49648   49649
   49649       0   49651   49652   49652       0   49654   49655   49655       0
   49657   49658   49658       0   49660   49661   49661       0   49663   49664
   49664       0   49666   49667   49667       0   49669   49670   49670       0
   49672   49673   49673       0   49675   49676   49676       0   49678   49679
   49679       0   49681   49682   49682       0   49684   49685   49685       0
   49687   49688   49688       0   49690   49691   49691       0   49693   49694
   49694       0   49696   49697   49697       0   49699   49700   49700       0
   49702   49703   49703       0   49705   49706   49706       0   49708   49709
   49709       0   49711   49712   49712       0   49714   49715   49715       0
   49717   49718   49718       0   49720   49721   49721       0   49723   49724
   49724       0   49726   49727   49727       0   49729   49730   49730       0
   49732   49733   49733       0   49735   49736   49736       0   49738   49739
   49739       0   49741   49742   49742       0   49744   49745   49745       0
   49747   49748   49748       0   49750   49751   49751       0   49753   49754
   49754       0   49756   49757   49757       0   49759   49760   49760       0
   49762   49763   49763       0   49765   49766   49766       0   49768   49769
   49769       0   49771   49772   49772       0   49774   49775   49775       0
   49777   49778   49778       0   49780   49781   49781       0   49783   49784
   49784       0   49786   49787   49787       0   49789   49790   49790       0
   49792   49793   49793       0   49795   49796   49796       0   49798   49799
   49799       0   49801   49802   49802       0   49804   49805   49805       0
   49807   49808   49808       0   49810   49811   49811       0   49813   49814
   49814       0   49816   49817   49817       0   49819   49820   49820       0
   49822   49823   49823       0   49825   49826   49826       0   49828   49829
   49829       0   49831   49832   49832       0   49834   49835   49835       0
   49837   49838   49838       0   49840   49841   49841       0   49843   49844
   49844       0   49846   49847   49847       0   49849   49850   49850       0
   49852   49853   49853       0   49855   49856   49856       0   49858   49859
   49859       0   49861   49862   49862       0   49864   49865   49865       0
   49867   49868   49868       0   49870   49871   49871       0   49873   49874
   49874       0   49876   49877   49877       0   49879   49880   49880       0
   49882   49883   49883       0   49885   49886   49886       0   49888   49889
   49889       0   49891   49892   49892       0   49894   49895   49895       0
   49897   49898   49898       0   49900   49901   49901       0   49903   49904
   49904       0   49906   49907   49907       0   49909   49910   49910       0
   49912   49913   49913       0   49915   49916   49916       0   49918   49919
   49919       0   49921   49922   49922       0   49924   49925   49925       0
   49927   49928   49928       0   49930   49931   49931       0   49933   49934
   49934       0   49936   49937   49937       0   49939   49940   49940       0
   49942   49943   49943       0   49945   49946   49946       0   49948   49949
   49949       0   49951   49952   49952       0   49954   49955   49955       0
   49957   49958   49958       0   49960   49961   49961       0   49963   49964
   49964       0   49966   49967   49967       0   49969   49970   49970       0
   49972   49973   49973       0   49975   49976   49976       0   49978   49979
   49979       0   49981   49982   49982       0   49984   49985   49985       0
   49987   49988   49988       0   49990   49991   49991       0   49993   49994
   49994       0   49996   49997   49997       0   49999   50000   50000       0
   50002   50003   50003       0   50005   50006   50006       0   50008   50009
   50009       0   50011   50012   50012       0   50014   50015   50015       0
   50017   50018   50018       0   50020   50021   50021       0   50023   50024
   50024       0   50026   50027   50027       0   50029   50030   50030       0
   50032   50033   50033       0   50035   50036   50036       0   50038   50039
   50039       0   50041   50042   50042       0   50044   50045   50045       0
   50047   50048   50048       0   50050   50051   50051       0   50053   50054
   50054       0   50056   50057   50057       0   50059   50060   50060       0
   50062   50063   50063       0   50065   50066   50066       0   50068   50069
   50069       0   50071   50072   50072       0   50074   50075   50075       0
   50077   50078   50078       0   50080   50081   50081       0   50083   50084
   50084       0   50086   50087   50087       0   50089   50090   50090       0
   50092   50093   50093       0   50095   50096   50096       0   50098   50099
   50099       0   50101   50102   50102       0   50104   50105   50105       0
   50107   50108   50108       0   50110   50111   50111       0   50113   50114
   50114       0   50116   50117   50117       0   50119   50120   50120       0
   50122   50123   50123       0   50125   50126   50126       0   50128   50129
   50129       0   50131   50132   50132       0   50134   50135   50135       0
   50137   50138   50138       0   50140   50141   50141       0   50143   50144
   50144       0   50146   50147   50147       0   50149   50150   50150       0
   50152   50153   50153       0   50155   50156   50156       0   50158   50159
   50159       0   50161   50162   50162       0   50164   50165   50165       0
   50167   50168   50168       0   50170   50171   50171       0   50173   50174
   50174       0   50176   50177   50177       0   50179   50180   50180       0
   50182   50183   50183       0   50185   50186   50186       0   50188   50189
   50189       0   50191   50192   50192       0   50194   50195   50195       0
   50197   50198   50198       0   50200   50201   50201       0   50203   50204
   50204       0   50206   50207   50207       0   50209   50210   50210       0
   50212   50213   50213       0   50215   50216   50216       0   50218   50219
   50219       0   50221   50222   50222       0   50224   50225   50225       0
   50227   50228   50228       0   50230   50231   50231       0   50233   50234
   50234       0   50236   50237   50237       0   50239   50240   50240       0
   50242   50243   50243       0   50245   50246   50246       0   50248   50249
   50249       0   50251   50252   50252       0   50254   50255   50255       0
   50257   50258   50258       0   50260   50261   50261       0   50263   50264
   50264       0   50266   50267   50267       0   50269   50270   50270       0
   50272   50273   50273       0   50275   50276   50276       0   50278   50279
   50279       0   50281   50282   50282       0   50284   50285   50285       0
   50287   50288   50288       0   50290   50291   50291       0   50293   50294
   50294       0   50296   50297   50297       0   50299   50300   50300       0
   50302   50303   50303       0   50305   50306   50306       0   50308   50309
   50309       0   50311   50312   50312       0   50314   50315   50315       0
   50317   50318   50318       0   50320   50321   50321       0   50323   50324
   50324       0   50326   50327   50327       0   50329   50330   50330       0
   50332   50333   50333       0   50335   50336   50336       0   50338   50339
   50339       0   50341   50342   50342       0   50344   50345   50345       0
   50347   50348   50348       0   50350   50351   50351       0   50353   50354
   50354       0   50356   50357   50357       0   50359   50360   50360       0
   50362   50363   50363       0   50365   50366   50366       0   50368   50369
   50369       0   50371   50372   50372       0   50374   50375   50375       0
   50377   50378   50378       0   50380   50381   50381       0   50383   50384
   50384       0   50386   50387   50387       0   50389   50390   50390       0
   50392   50393   50393       0   50395   50396   50396       0   50398   50399
   50399       0   50401   50402   50402       0   50404   50405   50405       0
   50407   50408   50408       0   50410   50411   50411       0   50413   50414
   50414       0   50416   50417   50417       0   50419   50420   50420       0
   50422   50423   50423       0   50425   50426   50426       0   50428   50429
   50429       0   50431   50432   50432       0   50434   50435   50435       0
   50437   50438   50438       0   50440   50441   50441       0   50443   50444
   50444       0   50446   50447   50447       0   50449   50450   50450       0
   50452   50453   50453       0   50455   50456   50456       0   50458   50459
   50459       0   50461   50462   50462       0   50464   50465   50465       0
   50467   50468   50468       0   50470   50471   50471       0   50473   50474
   50474       0   50476   50477   50477       0   50479   50480   50480       0
   50482   50483   50483       0   50485   50486   50486       0   50488   50489
   50489       0   50491   50492   50492       0   50494   50495   50495       0
   50497   50498   50498       0   50500   50501   50501       0   50503   50504
   50504       0   50506   50507   50507       0   50509   50510   50510       0
   50512   50513   50513       0   50515   50516   50516       0   50518   50519
   50519       0   50521   50522   50522       0   50524   50525   50525       0
   50527   50528   50528       0   50530   50531   50531       0   50533   50534
   50534       0   50536   50537   50537       0   50539   50540   50540       0
   50542   50543   50543       0   50545   50546   50546       0   50548   50549
   50549       0   50551   50552   50552       0   50554   50555   50555       0
   50557   50558   50558       0   50560   50561   50561       0   50563   50564
   50564       0   50566   50567   50567       0   50569   50570   50570       0
   50572   50573   50573       0   50575   50576   50576       0   50578   50579
   50579       0   50581   50582   50582       0   50584   50585   50585       0
   50587   50588   50588       0   50590   50591   50591       0   50593   50594
   50594       0   50596   50597   50597       0   50599   50600   50600       0
   50602   50603   50603       0   50605   50606   50606       0   50608   50609
   50609       0   50611   50612   50612       0   50614   50615   50615       0
   50617   50618   50618       0   50620   50621   50621       0   50623   50624
   50624       0   50626   50627   50627       0   50629   50630   50630       0
   50632   50633   50633       0   50635   50636   50636       0   50638   50639
   50639       0   50641   50642   50642       0   50644   50645   50645       0
   50647   50648   50648       0   50650   50651   50651       0   50653   50654
   50654       0   50656   50657   50657       0   50659   50660   50660       0
   50662   50663   50663       0   50665   50666   50666       0   50668   50669
   50669       0   50671   50672   50672       0   50674   50675   50675       0
   50677   50678   50678       0   50680   50681   50681       0   50683   50684
   50684       0   50686   50687   50687       0   50689   50690   50690       0
   50692   50693   50693       0   50695   50696   50696       0   50698   50699
   50699       0   50701   50702   50702       0   50704   50705   50705       0
   50707   50708   50708       0   50710   50711   50711       0   50713   50714
   50714       0   50716   50717   50717       0   50719   50720   50720       0
   50722   50723   50723       0   50725   50726   50726       0   50728   50729
   50729       0   50731   50732   50732       0   50734   50735   50735       0
   50737   50738   50738       0   50740   50741   50741       0   50743   50744
   50744       0   50746   50747   50747       0   50749   50750   50750       0
   50752   50753   50753       0   50755   50756   50756       0   50758   50759
   50759       0   50761   50762   50762       0   50764   50765   50765       0
   50767   50768   50768       0   50770   50771   50771       0   50773   50774
   50774       0   50776   50777   50777       0   50779   50780   50780       0
   50782   50783   50783       0   50785   50786   50786       0   50788   50789
   50789       0   50791   50792   50792       0   50794   50795   50795       0
   50797   50798   50798       0   50800   50801   50801       0   50803   50804
   50804       0   50806   50807   50807       0   50809   50810   50810       0
   50812   50813   50813       0   50815   50816   50816       0   50818   50819
   50819       0   50821   50822   50822       0   50824   50825   50825       0
   50827   50828   50828       0   50830   50831   50831       0   50833   50834
   50834       0   50836   50837   50837       0   50839   50840   50840       0
   50842   50843   50843       0   50845   50846   50846       0   50848   50849
   50849       0   50851   50852   50852       0   50854   50855   50855       0
   50857   50858   50858       0   50860   50861   50861       0   50863   50864
   50864       0   50866   50867   50867       0   50869   50870   50870       0
   50872   50873   50873       0   50875   50876   50876       0   50878   50879
   50879       0   50881   50882   50882       0   50884   50885   50885       0
   50887   50888   50888       0   50890   50891   50891       0   50893   50894
   50894       0   50896   50897   50897       0   50899   50900   50900       0
   50902   50903   50903       0   50905   50906   50906       0   50908   50909
   50909       0   50911   50912   50912       0   50914   50915   50915       0
   50917   50918   50918       0   50920   50921   50921       0   50923   50924
   50924       0   50926   50927   50927       0   50929   50930   50930       0
   50932   50933   50933       0   50935   50936   50936       0   50938   50939
   50939       0   50941   50942   50942       0   50944   50945   50945       0
   50947   50948   50948       0   50950   50951   50951       0   50953   50954
   50954       0   50956   50957   50957       0   50959   50960   50960       0
   50962   50963   50963       0   50965   50966   50966       0   50968   50969
   50969       0   50971   50972   50972       0   50974   50975   50975       0
   50977   50978   50978       0   50980   50981   50981       0   50983   50984
   50984       0   50986   50987   50987       0   50989   50990   50990       0
   50992   50993   50993       0   50995   50996   50996       0   50998   50999
   50999       0   51001   51002   51002       0   51004   51005   51005       0
   51007   51008   51008       0   51010   51011   51011       0   51013   51014
   51014       0   51016   51017   51017       0   51019   51020   51020       0
   51022   51023   51023       0   51025   51026   51026       0   51028   51029
   51029       0   51031   51032   51032       0   51034   51035   51035       0
   51037   51038   51038       0   51040   51041   51041       0   51043   51044
   51044       0   51046   51047   51047       0   51049   51050   51050       0
   51052   51053   51053       0   51055   51056   51056       0   51058   51059
   51059       0   51061   51062   51062       0   51064   51065   51065       0
   51067   51068   51068       0   51070   51071   51071       0   51073   51074
   51074       0   51076   51077   51077       0   51079   51080   51080       0
   51082   51083   51083       0   51085   51086   51086       0   51088   51089
   51089       0   51091   51092   51092       0   51094   51095   51095       0
   51097   51098   51098       0   51100   51101   51101       0   51103   51104
   51104       0   51106   51107   51107       0   51109   51110   51110       0
   51112   51113   51113       0   51115   51116   51116       0   51118   51119
   51119       0   51121   51122   51122       0   51124   51125   51125       0
   51127   51128   51128       0   51130   51131   51131       0   51133   51134
   51134       0   51136   51137   51137       0   51139   51140   51140       0
   51142   51143   51143       0   51145   51146   51146       0   51148   51149
   51149       0   51151   51152   51152       0   51154   51155   51155       0
   51157   51158   51158       0   51160   51161   51161       0   51163   51164
   51164       0   51166   51167   51167       0   51169   51170   51170       0
   51172   51173   51173       0   51175   51176   51176       0   51178   51179
   51179       0   51181   51182   51182       0   51184   51185   51185       0
   51187   51188   51188       0   51190   51191   51191       0   51193   51194
   51194       0   51196   51197   51197       0   51199   51200   51200       0
   51202   51203   51203       0   51205   51206   51206       0   51208   51209
   51209       0   51211   51212   51212       0   51214   51215   51215       0
   51217   51218   51218       0   51220   51221   51221       0   51223   51224
   51224       0   51226   51227   51227       0   51229   51230   51230       0
   51232   51233   51233       0   51235   51236   51236       0   51238   51239
   51239       0   51241   51242   51242       0   51244   51245   51245       0
   51247   51248   51248       0   51250   51251   51251       0   51253   51254
   51254       0   51256   51257   51257       0   51259   51260   51260       0
   51262   51263   51263       0   51265   51266   51266       0   51268   51269
   51269       0   51271   51272   51272       0   51274   51275   51275       0
   51277   51278   51278       0   51280   51281   51281       0   51283   51284
   51284       0   51286   51287   51287       0   51289   51290   51290       0
   51292   51293   51293       0   51295   51296   51296       0   51298   51299
   51299       0   51301   51302   51302       0   51304   51305   51305       0
   51307   51308   51308       0   51310   51311   51311       0   51313   51314
   51314       0   51316   51317   51317       0   51319   51320   51320       0
   51322   51323   51323       0   51325   51326   51326       0   51328   51329
   51329       0   51331   51332   51332       0   51334   51335   51335       0
   51337   51338   51338       0   51340   51341   51341       0   51343   51344
   51344       0   51346   51347   51347       0   51349   51350   51350       0
   51352   51353   51353       0   51355   51356   51356       0   51358   51359
   51359       0   51361   51362   51362       0   51364   51365   51365       0
   51367   51368   51368       0   51370   51371   51371       0   51373   51374
   51374       0   51376   51377   51377       0   51379   51380   51380       0
   51382   51383   51383       0   51385   51386   51386       0   51388   51389
   51389       0   51391   51392   51392       0   51394   51395   51395       0
   51397   51398   51398       0   51400   51401   51401       0   51403   51404
   51404       0   51406   51407   51407       0   51409   51410   51410       0
   51412   51413   51413       0   51415   51416   51416       0   51418   51419
   51419       0   51421   51422   51422       0   51424   51425   51425       0
   51427   51428   51428       0   51430   51431   51431       0   51433   51434
   51434       0   51436   51437   51437       0   51439   51440   51440       0
   51442   51443   51443       0   51445   51446   51446       0   51448   51449
   51449       0   51451   51452   51452       0   51454   51455   51455       0
   51457   51458   51458       0   51460   51461   51461       0   51463   51464
   51464       0   51466   51467   51467       0   51469   51470   51470       0
   51472   51473   51473       0   51475   51476   51476       0   51478   51479
   51479       0   51481   51482   51482       0   51484   51485   51485       0
   51487   51488   51488       0   51490   51491   51491       0   51493   51494
   51494       0   51496   51497   51497       0   51499   51500   51500       0
   51502   51503   51503       0   51505   51506   51506       0   51508   51509
   51509       0   51511   51512   51512       0   51514   51515   51515       0
   51517   51518   51518       0   51520   51521   51521       0   51523   51524
   51524       0   51526   51527   51527       0   51529   51530   51530       0
   51532   51533   51533       0   51535   51536   51536       0   51538   51539
   51539       0   51541   51542   51542       0   51544   51545   51545       0
   51547   51548   51548       0   51550   51551   51551       0   51553   51554
   51554       0   51556   51557   51557       0   51559   51560   51560       0
   51562   51563   51563       0   51565   51566   51566       0   51568   51569
   51569       0   51571   51572   51572       0   51574   51575   51575       0
   51577   51578   51578       0   51580   51581   51581       0   51583   51584
   51584       0   51586   51587   51587       0   51589   51590   51590       0
   51592   51593   51593       0   51595   51596   51596       0   51598   51599
   51599       0   51601   51602   51602       0   51604   51605   51605       0
   51607   51608   51608       0   51610   51611   51611       0   51613   51614
   51614       0   51616   51617   51617       0   51619   51620   51620       0
   51622   51623   51623       0   51625   51626   51626       0   51628   51629
   51629       0   51631   51632   51632       0   51634   51635   51635       0
   51637   51638   51638       0   51640   51641   51641       0   51643   51644
   51644       0   51646   51647   51647       0   51649   51650   51650       0
   51652   51653   51653       0   51655   51656   51656       0   51658   51659
   51659       0   51661   51662   51662       0   51664   51665   51665       0
   51667   51668   51668       0   51670   51671   51671       0   51673   51674
   51674       0   51676   51677   51677       0   51679   51680   51680       0
   51682   51683   51683       0   51685   51686   51686       0   51688   51689
   51689       0   51691   51692   51692       0   51694   51695   51695       0
   51697   51698   51698       0   51700   51701   51701       0   51703   51704
   51704       0   51706   51707   51707       0   51709   51710   51710       0
   51712   51713   51713       0   51715   51716   51716       0   51718   51719
   51719       0   51721   51722   51722       0   51724   51725   51725       0
   51727   51728   51728       0   51730   51731   51731       0   51733   51734
   51734       0   51736   51737   51737       0   51739   51740   51740       0
   51742   51743   51743       0   51745   51746   51746       0   51748   51749
   51749       0   51751   51752   51752       0   51754   51755   51755       0
   51757   51758   51758       0   51760   51761   51761       0   51763   51764
   51764       0   51766   51767   51767       0   51769   51770   51770       0
   51772   51773   51773       0   51775   51776   51776       0   51778   51779
   51779       0   51781   51782   51782       0   51784   51785   51785       0
   51787   51788   51788       0   51790   51791   51791       0   51793   51794
   51794       0   51796   51797   51797       0   51799   51800   51800       0
   51802   51803   51803       0   51805   51806   51806       0   51808   51809
   51809       0   51811   51812   51812       0   51814   51815   51815       0
   51817   51818   51818       0   51820   51821   51821       0   51823   51824
   51824       0   51826   51827   51827       0   51829   51830   51830       0
   51832   51833   51833       0   51835   51836   51836       0   51838   51839
   51839       0   51841   51842   51842       0   51844   51845   51845       0
   51847   51848   51848       0   51850   51851   51851       0   51853   51854
   51854       0   51856   51857   51857       0   51859   51860   51860       0
   51862   51863   51863       0   51865   51866   51866       0   51868   51869
   51869       0   51871   51872   51872       0   51874   51875   51875       0
   51877   51878   51878       0   51880   51881   51881       0   51883   51884
   51884       0   51886   51887   51887       0   51889   51890   51890       0
   51892   51893   51893       0   51895   51896   51896       0   51898   51899
   51899       0   51901   51902   51902       0   51904   51905   51905       0
   51907   51908   51908       0   51910   51911   51911       0   51913   51914
   51914       0   51916   51917   51917       0   51919   51920   51920       0
   51922   51923   51923       0   51925   51926   51926       0   51928   51929
   51929       0   51931   51932   51932       0   51934   51935   51935       0
   51937   51938   51938       0   51940   51941   51941       0   51943   51944
   51944       0   51946   51947   51947       0   51949   51950   51950       0
   51952   51953   51953       0   51955   51956   51956       0   51958   51959
   51959       0   51961   51962   51962       0   51964   51965   51965       0
   51967   51968   51968       0   51970   51971   51971       0   51973   51974
   51974       0   51976   51977   51977       0   51979   51980   51980       0
   51982   51983   51983       0   51985   51986   51986       0   51988   51989
   51989       0   51991   51992   51992       0   51994   51995   51995       0
   51997   51998   51998       0   52000   52001   52001       0   52003   52004
   52004       0   52006   52007   52007       0   52009   52010   52010       0
   52012   52013   52013       0   52015   52016   52016       0   52018   52019
   52019       0   52021   52022   52022       0   52024   52025   52025       0
   52027   52028   52028       0   52030   52031   52031       0   52033   52034
   52034       0   52036   52037   52037       0   52039   52040   52040       0
   52042   52043   52043       0   52045   52046   52046       0   52048   52049
   52049       0   52051   52052   52052       0   52054   52055   52055       0
   52057   52058   52058       0   52060   52061   52061       0   52063   52064
   52064       0   52066   52067   52067       0   52069   52070   52070       0
   52072   52073   52073       0   52075   52076   52076       0   52078   52079
   52079       0   52081   52082   52082       0   52084   52085   52085       0
   52087   52088   52088       0   52090   52091   52091       0   52093   52094
   52094       0   52096   52097   52097       0   52099   52100   52100       0
   52102   52103   52103       0   52105   52106   52106       0   52108   52109
   52109       0   52111   52112   52112       0   52114   52115   52115       0
   52117   52118   52118       0   52120   52121   52121       0   52123   52124
   52124       0   52126   52127   52127       0   52129   52130   52130       0
   52132   52133   52133       0   52135   52136   52136       0   52138   52139
   52139       0   52141   52142   52142       0   52144   52145   52145       0
   52147   52148   52148       0   52150   52151   52151       0   52153   52154
   52154       0   52156   52157   52157       0   52159   52160   52160       0
   52162   52163   52163       0   52165   52166   52166       0   52168   52169
   52169       0   52171   52172   52172       0   52174   52175   52175       0
   52177   52178   52178       0   52180   52181   52181       0   52183   52184
   52184       0   52186   52187   52187       0   52189   52190   52190       0
   52192   52193   52193       0   52195   52196   52196       0   52198   52199
   52199       0   52201   52202   52202       0   52204   52205   52205       0
   52207   52208   52208       0   52210   52211   52211       0   52213   52214
   52214       0   52216   52217   52217       0   52219   52220   52220       0
   52222   52223   52223       0   52225   52226   52226       0   52228   52229
   52229       0   52231   52232   52232       0   52234   52235   52235       0
   52237   52238   52238       0   52240   52241   52241       0   52243   52244
   52244       0   52246   52247   52247       0   52249   52250   52250       0
   52252   52253   52253       0   52255   52256   52256       0   52258   52259
   52259       0   52261   52262   52262       0   52264   52265   52265       0
   52267   52268   52268       0   52270   52271   52271       0   52273   52274
   52274       0   52276   52277   52277       0   52279   52280   52280       0
   52282   52283   52283       0   52285   52286   52286       0   52288   52289
   52289       0   52291   52292   52292       0   52294   52295   52295       0
   52297   52298   52298       0   52300   52301   52301       0   52303   52304
   52304       0   52306   52307   52307       0   52309   52310   52310       0
   52312   52313   52313       0   52315   52316   52316       0   52318   52319
   52319       0   52321   52322   52322       0   52324   52325   52325       0
   52327   52328   52328       0   52330   52331   52331       0   52333   52334
   52334       0   52336   52337   52337       0   52339   52340   52340       0
   52342   52343   52343       0   52345   52346   52346       0   52348   52349
   52349       0   52351   52352   52352       0   52354   52355   52355       0
   52357   52358   52358       0   52360   52361   52361       0   52363   52364
   52364       0   52366   52367   52367       0   52369   52370   52370       0
   52372   52373   52373       0   52375   52376   52376       0   52378   52379
   52379       0   52381   52382   52382       0   52384   52385   52385       0
   52387   52388   52388       0   52390   52391   52391       0   52393   52394
   52394       0   52396   52397   52397       0   52399   52400   52400       0
   52402   52403   52403       0   52405   52406   52406       0   52408   52409
   52409       0   52411   52412   52412       0   52414   52415   52415       0
   52417   52418   52418       0   52420   52421   52421       0   52423   52424
   52424       0   52426   52427   52427       0   52429   52430   52430       0
   52432   52433   52433       0   52435   52436   52436       0   52438   52439
   52439       0   52441   52442   52442       0   52444   52445   52445       0
   52447   52448   52448       0   52450   52451   52451       0   52453   52454
   52454       0   52456   52457   52457       0   52459   52460   52460       0
   52462   52463   52463       0   52465   52466   52466       0   52468   52469
   52469       0   52471   52472   52472       0   52474   52475   52475       0
   52477   52478   52478       0   52480   52481   52481       0   52483   52484
   52484       0   52486   52487   52487       0   52489   52490   52490       0
   52492   52493   52493       0   52495   52496   52496       0   52498   52499
   52499       0   52501   52502   52502       0   52504   52505   52505       0
   52507   52508   52508       0   52510   52511   52511       0   52513   52514
   52514       0   52516   52517   52517       0   52519   52520   52520       0
   52522   52523   52523       0   52525   52526   52526       0   52528   52529
   52529       0   52531   52532   52532       0   52534   52535   52535       0
   52537   52538   52538       0   52540   52541   52541       0   52543   52544
   52544       0   52546   52547   52547       0   52549   52550   52550       0
   52552   52553   52553       0   52555   52556   52556       0   52558   52559
   52559       0   52561   52562   52562       0   52564   52565   52565       0
   52567   52568   52568       0   52570   52571   52571       0   52573   52574
   52574       0   52576   52577   52577       0   52579   52580   52580       0
   52582   52583   52583       0   52585   52586   52586       0   52588   52589
   52589       0   52591   52592   52592       0   52594   52595   52595       0
   52597   52598   52598       0   52600   52601   52601       0   52603   52604
   52604       0   52606   52607   52607       0   52609   52610   52610       0
   52612   52613   52613       0   52615   52616   52616       0   52618   52619
   52619       0   52621   52622   52622       0   52624   52625   52625       0
   52627   52628   52628       0   52630   52631   52631       0   52633   52634
   52634       0   52636   52637   52637       0   52639   52640   52640       0
   52642   52643   52643       0   52645   52646   52646       0   52648   52649
   52649       0   52651   52652   52652       0   52654   52655   52655       0
   52657   52658   52658       0   52660   52661   52661       0   52663   52664
   52664       0   52666   52667   52667       0   52669   52670   52670       0
   52672   52673   52673       0   52675   52676   52676       0   52678   52679
   52679       0   52681   52682   52682       0   52684   52685   52685       0
   52687   52688   52688       0   52690   52691   52691       0   52693   52694
   52694       0   52696   52697   52697       0   52699   52700   52700       0
   52702   52703   52703       0   52705   52706   52706       0   52708   52709
   52709       0   52711   52712   52712       0   52714   52715   52715       0
   52717   52718   52718       0   52720   52721   52721       0   52723   52724
   52724       0   52726   52727   52727       0   52729   52730   52730       0
   52732   52733   52733       0   52735   52736   52736       0   52738   52739
   52739       0   52741   52742   52742       0   52744   52745   52745       0
   52747   52748   52748       0   52750   52751   52751       0   52753   52754
   52754       0   52756   52757   52757       0   52759   52760   52760       0
   52762   52763   52763       0   52765   52766   52766       0   52768   52769
   52769       0   52771   52772   52772       0   52774   52775   52775       0
   52777   52778   52778       0   52780   52781   52781       0   52783   52784
   52784       0   52786   52787   52787       0   52789   52790   52790       0
   52792   52793   52793       0   52795   52796   52796       0   52798   52799
   52799       0   52801   52802   52802       0   52804   52805   52805       0
   52807   52808   52808       0   52810   52811   52811       0   52813   52814
   52814       0   52816   52817   52817       0   52819   52820   52820       0
   52822   52823   52823       0   52825   52826   52826       0   52828   52829
   52829       0   52831   52832   52832       0   52834   52835   52835       0
   52837   52838   52838       0   52840   52841   52841       0   52843   52844
   52844       0   52846   52847   52847       0   52849   52850   52850       0
   52852   52853   52853       0   52855   52856   52856       0   52858   52859
   52859       0   52861   52862   52862       0   52864   52865   52865       0
   52867   52868   52868       0   52870   52871   52871       0   52873   52874
   52874       0   52876   52877   52877       0   52879   52880   52880       0
   52882   52883   52883       0   52885   52886   52886       0   52888   52889
   52889       0   52891   52892   52892       0   52894   52895   52895       0
   52897   52898   52898       0   52900   52901   52901       0   52903   52904
   52904       0   52906   52907   52907       0   52909   52910   52910       0
   52912   52913   52913       0   52915   52916   52916       0   52918   52919
   52919       0   52921   52922   52922       0   52924   52925   52925       0
   52927   52928   52928       0   52930   52931   52931       0   52933   52934
   52934       0   52936   52937   52937       0   52939   52940   52940       0
   52942   52943   52943       0   52945   52946   52946       0   52948   52949
   52949       0   52951   52952   52952       0   52954   52955   52955       0
   52957   52958   52958       0   52960   52961   52961       0   52963   52964
   52964       0   52966   52967   52967       0   52969   52970   52970       0
   52972   52973   52973       0   52975   52976   52976       0   52978   52979
   52979       0   52981   52982   52982       0   52984   52985   52985       0
   52987   52988   52988       0   52990   52991   52991       0   52993   52994
   52994       0   52996   52997   52997       0   52999   53000   53000       0
   53002   53003   53003       0   53005   53006   53006       0   53008   53009
   53009       0   53011   53012   53012       0   53014   53015   53015       0
   53017   53018   53018       0   53020   53021   53021       0   53023   53024
   53024       0   53026   53027   53027       0   53029   53030   53030       0
   53032   53033   53033       0   53035   53036   53036       0   53038   53039
   53039       0   53041   53042   53042       0   53044   53045   53045       0
   53047   53048   53048       0   53050   53051   53051       0   53053   53054
   53054       0   53056   53057   53057       0   53059   53060   53060       0
   53062   53063   53063       0   53065   53066   53066       0   53068   53069
   53069       0   53071   53072   53072       0   53074   53075   53075       0
   53077   53078   53078       0   53080   53081   53081       0   53083   53084
   53084       0   53086   53087   53087       0   53089   53090   53090       0
   53092   53093   53093       0   53095   53096   53096       0   53098   53099
   53099       0   53101   53102   53102       0   53104   53105   53105       0
   53107   53108   53108       0   53110   53111   53111       0   53113   53114
   53114       0   53116   53117   53117       0   53119   53120   53120       0
   53122   53123   53123       0   53125   53126   53126       0   53128   53129
   53129       0   53131   53132   53132       0   53134   53135   53135       0
   53137   53138   53138       0   53140   53141   53141       0   53143   53144
   53144       0   53146   53147   53147       0   53149   53150   53150       0
   53152   53153   53153       0   53155   53156   53156       0   53158   53159
   53159       0   53161   53162   53162       0   53164   53165   53165       0
   53167   53168   53168       0   53170   53171   53171       0   53173   53174
   53174       0   53176   53177   53177       0   53179   53180   53180       0
   53182   53183   53183       0   53185   53186   53186       0   53188   53189
   53189       0   53191   53192   53192       0   53194   53195   53195       0
   53197   53198   53198       0   53200   53201   53201       0   53203   53204
   53204       0   53206   53207   53207       0   53209   53210   53210       0
   53212   53213   53213       0   53215   53216   53216       0   53218   53219
   53219       0   53221   53222   53222       0   53224   53225   53225       0
   53227   53228   53228       0   53230   53231   53231       0   53233   53234
   53234       0   53236   53237   53237       0   53239   53240   53240       0
   53242   53243   53243       0   53245   53246   53246       0   53248   53249
   53249       0   53251   53252   53252       0   53254   53255   53255       0
   53257   53258   53258       0   53260   53261   53261       0   53263   53264
   53264       0   53266   53267   53267       0   53269   53270   53270       0
   53272   53273   53273       0   53275   53276   53276       0   53278   53279
   53279       0   53281   53282   53282       0   53284   53285   53285       0
   53287   53288   53288       0   53290   53291   53291       0   53293   53294
   53294       0   53296   53297   53297       0   53299   53300   53300       0
   53302   53303   53303       0   53305   53306   53306       0   53308   53309
   53309       0   53311   53312   53312       0   53314   53315   53315       0
   53317   53318   53318       0   53320   53321   53321       0   53323   53324
   53324       0   53326   53327   53327       0   53329   53330   53330       0
   53332   53333   53333       0   53335   53336   53336       0   53338   53339
   53339       0   53341   53342   53342       0   53344   53345   53345       0
   53347   53348   53348       0   53350   53351   53351       0   53353   53354
   53354       0   53356   53357   53357       0   53359   53360   53360       0
   53362   53363   53363       0   53365   53366   53366       0   53368   53369
   53369       0   53371   53372   53372       0   53374   53375   53375       0
   53377   53378   53378       0   53380   53381   53381       0   53383   53384
   53384       0   53386   53387   53387       0   53389   53390   53390       0
   53392   53393   53393       0   53395   53396   53396       0   53398   53399
   53399       0   53401   53402   53402       0   53404   53405   53405       0
   53407   53408   53408       0   53410   53411   53411       0   53413   53414
   53414       0   53416   53417   53417       0   53419   53420   53420       0
   53422   53423   53423       0   53425   53426   53426       0   53428   53429
   53429       0   53431   53432   53432       0   53434   53435   53435       0
   53437   53438   53438       0   53440   53441   53441       0   53443   53444
   53444       0   53446   53447   53447       0   53449   53450   53450       0
   53452   53453   53453       0   53455   53456   53456       0   53458   53459
   53459       0   53461   53462   53462       0   53464   53465   53465       0
   53467   53468   53468       0   53470   53471   53471       0   53473   53474
   53474       0   53476   53477   53477       0   53479   53480   53480       0
   53482   53483   53483       0   53485   53486   53486       0   53488   53489
   53489       0   53491   53492   53492       0   53494   53495   53495       0
   53497   53498   53498       0   53500   53501   53501       0   53503   53504
   53504       0   53506   53507   53507       0   53509   53510   53510       0
   53512   53513   53513       0   53515   53516   53516       0   53518   53519
   53519       0   53521   53522   53522       0   53524   53525   53525       0
   53527   53528   53528       0   53530   53531   53531       0   53533   53534
   53534       0   53536   53537   53537       0   53539   53540   53540       0
   53542   53543   53543       0   53545   53546   53546       0   53548   53549
   53549       0   53551   53552   53552       0   53554   53555   53555       0
   53557   53558   53558       0   53560   53561   53561       0   53563   53564
   53564       0   53566   53567   53567       0   53569   53570   53570       0
   53572   53573   53573       0   53575   53576   53576       0   53578   53579
   53579       0   53581   53582   53582       0   53584   53585   53585       0
   53587   53588   53588       0   53590   53591   53591       0   53593   53594
   53594       0   53596   53597   53597       0   53599   53600   53600       0
   53602   53603   53603       0   53605   53606   53606       0   53608   53609
   53609       0   53611   53612   53612       0   53614   53615   53615       0
   53617   53618   53618       0   53620   53621   53621       0   53623   53624
   53624       0   53626   53627   53627       0   53629   53630   53630       0
   53632   53633   53633       0   53635   53636   53636       0   53638   53639
   53639       0   53641   53642   53642       0   53644   53645   53645       0
   53647   53648   53648       0   53650   53651   53651       0   53653   53654
   53654       0   53656   53657   53657       0   53659   53660   53660       0
   53662   53663   53663       0   53665   53666   53666       0   53668   53669
   53669       0   53671   53672   53672       0   53674   53675   53675       0
   53677   53678   53678       0   53680   53681   53681       0   53683   53684
   53684       0   53686   53687   53687       0   53689   53690   53690       0
   53692   53693   53693       0   53695   53696   53696       0   53698   53699
   53699       0   53701   53702   53702       0   53704   53705   53705       0
   53707   53708   53708       0   53710   53711   53711       0   53713   53714
   53714       0   53716   53717   53717       0   53719   53720   53720       0
   53722   53723   53723       0   53725   53726   53726       0   53728   53729
   53729       0   53731   53732   53732       0   53734   53735   53735       0
   53737   53738   53738       0   53740   53741   53741       0   53743   53744
   53744       0   53746   53747   53747       0   53749   53750   53750       0
   53752   53753   53753       0   53755   53756   53756       0   53758   53759
   53759       0   53761   53762   53762       0   53764   53765   53765       0
   53767   53768   53768       0   53770   53771   53771       0   53773   53774
   53774       0   53776   53777   53777       0   53779   53780   53780       0
   53782   53783   53783       0   53785   53786   53786       0   53788   53789
   53789       0   53791   53792   53792       0   53794   53795   53795       0
   53797   53798   53798       0   53800   53801   53801       0   53803   53804
   53804       0   53806   53807   53807       0   53809   53810   53810       0
   53812   53813   53813       0   53815   53816   53816       0   53818   53819
   53819       0   53821   53822   53822       0   53824   53825   53825       0
   53827   53828   53828       0   53830   53831   53831       0   53833   53834
   53834       0   53836   53837   53837       0   53839   53840   53840       0
   53842   53843   53843       0   53845   53846   53846       0   53848   53849
   53849       0   53851   53852   53852       0   53854   53855   53855       0
   53857   53858   53858       0   53860   53861   53861       0   53863   53864
   53864       0   53866   53867   53867       0   53869   53870   53870       0
   53872   53873   53873       0   53875   53876   53876       0   53878   53879
   53879       0   53881   53882   53882       0   53884   53885   53885       0
   53887   53888   53888       0   53890   53891   53891       0   53893   53894
   53894       0   53896   53897   53897       0   53899   53900   53900       0
   53902   53903   53903       0   53905   53906   53906       0   53908   53909
   53909       0   53911   53912   53912       0   53914   53915   53915       0
   53917   53918   53918       0   53920   53921   53921       0   53923   53924
   53924       0   53926   53927   53927       0   53929   53930   53930       0
   53932   53933   53933       0   53935   53936   53936       0   53938   53939
   53939       0   53941   53942   53942       0   53944   53945   53945       0
   53947   53948   53948       0   53950   53951   53951       0   53953   53954
   53954       0   53956   53957   53957       0   53959   53960   53960       0
   53962   53963   53963       0   53965   53966   53966       0   53968   53969
   53969       0   53971   53972   53972       0   53974   53975   53975       0
   53977   53978   53978       0   53980   53981   53981       0   53983   53984
   53984       0   53986   53987   53987       0   53989   53990   53990       0
   53992   53993   53993       0   53995   53996   53996       0   53998   53999
   53999       0   54001   54002   54002       0   54004   54005   54005       0
   54007   54008   54008       0   54010   54011   54011       0   54013   54014
   54014       0   54016   54017   54017       0   54019   54020   54020       0
   54022   54023   54023       0   54025   54026   54026       0   54028   54029
   54029       0   54031   54032   54032       0   54034   54035   54035       0
   54037   54038   54038       0   54040   54041   54041       0   54043   54044
   54044       0   54046   54047   54047       0   54049   54050   54050       0
   54052   54053   54053       0   54055   54056   54056       0   54058   54059
   54059       0   54061   54062   54062       0   54064   54065   54065       0
   54067   54068   54068       0   54070   54071   54071       0   54073   54074
   54074       0   54076   54077   54077       0   54079   54080   54080       0
   54082   54083   54083       0   54085   54086   54086       0   54088   54089
   54089       0   54091   54092   54092       0   54094   54095   54095       0
   54097   54098   54098       0   54100   54101   54101       0   54103   54104
   54104       0   54106   54107   54107       0   54109   54110   54110       0
   54112   54113   54113       0   54115   54116   54116       0   54118   54119
   54119       0   54121   54122   54122       0   54124   54125   54125       0
   54127   54128   54128       0   54130   54131   54131       0   54133   54134
   54134       0   54136   54137   54137       0   54139   54140   54140       0
   54142   54143   54143       0   54145   54146   54146       0   54148   54149
   54149       0   54151   54152   54152       0   54154   54155   54155       0
   54157   54158   54158       0   54160   54161   54161       0   54163   54164
   54164       0   54166   54167   54167       0   54169   54170   54170       0
   54172   54173   54173       0   54175   54176   54176       0   54178   54179
   54179       0   54181   54182   54182       0   54184   54185   54185       0
   54187   54188   54188       0   54190   54191   54191       0   54193   54194
   54194       0   54196   54197   54197       0   54199   54200   54200       0
   54202   54203   54203       0   54205   54206   54206       0   54208   54209
   54209       0   54211   54212   54212       0   54214   54215   54215       0
   54217   54218   54218       0   54220   54221   54221       0   54223   54224
   54224       0   54226   54227   54227       0   54229   54230   54230       0
   54232   54233   54233       0   54235   54236   54236       0   54238   54239
   54239       0   54241   54242   54242       0   54244   54245   54245       0
   54247   54248   54248       0   54250   54251   54251       0   54253   54254
   54254       0   54256   54257   54257       0   54259   54260   54260       0
   54262   54263   54263       0   54265   54266   54266       0   54268   54269
   54269       0   54271   54272   54272       0   54274   54275   54275       0
   54277   54278   54278       0   54280   54281   54281       0   54283   54284
   54284       0   54286   54287   54287       0   54289   54290   54290       0
   54292   54293   54293       0   54295   54296   54296       0   54298   54299
   54299       0   54301   54302   54302       0   54304   54305   54305       0
   54307   54308   54308       0   54310   54311   54311       0   54313   54314
   54314       0   54316   54317   54317       0   54319   54320   54320       0
   54322   54323   54323       0   54325   54326   54326       0   54328   54329
   54329       0   54331   54332   54332       0   54334   54335   54335       0
   54337   54338   54338       0   54340   54341   54341       0   54343   54344
   54344       0   54346   54347   54347       0   54349   54350   54350       0
   54352   54353   54353       0   54355   54356   54356       0   54358   54359
   54359       0   54361   54362   54362       0   54364   54365   54365       0
   54367   54368   54368       0   54370   54371   54371       0   54373   54374
   54374       0   54376   54377   54377       0   54379   54380   54380       0
   54382   54383   54383       0   54385   54386   54386       0   54388   54389
   54389       0   54391   54392   54392       0   54394   54395   54395       0
   54397   54398   54398       0   54400   54401   54401       0   54403   54404
   54404       0   54406   54407   54407       0   54409   54410   54410       0
   54412   54413   54413       0   54415   54416   54416       0   54418   54419
   54419       0   54421   54422   54422       0   54424   54425   54425       0
   54427   54428   54428       0   54430   54431   54431       0   54433   54434
   54434       0   54436   54437   54437       0   54439   54440   54440       0
   54442   54443   54443       0   54445   54446   54446       0   54448   54449
   54449       0   54451   54452   54452       0   54454   54455   54455       0
   54457   54458   54458       0   54460   54461   54461       0   54463   54464
   54464       0   54466   54467   54467       0   54469   54470   54470       0
   54472   54473   54473       0   54475   54476   54476       0   54478   54479
   54479       0   54481   54482   54482       0   54484   54485   54485       0
   54487   54488   54488       0   54490   54491   54491       0   54493   54494
   54494       0   54496   54497   54497       0   54499   54500   54500       0
   54502   54503   54503       0   54505   54506   54506       0   54508   54509
   54509       0   54511   54512   54512       0   54514   54515   54515       0
   54517   54518   54518       0   54520   54521   54521       0   54523   54524
   54524       0   54526   54527   54527       0   54529   54530   54530       0
   54532   54533   54533       0   54535   54536   54536       0   54538   54539
   54539       0   54541   54542   54542       0   54544   54545   54545       0
   54547   54548   54548       0   54550   54551   54551       0   54553   54554
   54554       0   54556   54557   54557       0   54559   54560   54560       0
   54562   54563   54563       0   54565   54566   54566       0   54568   54569
   54569       0   54571   54572   54572       0   54574   54575   54575       0
   54577   54578   54578       0   54580   54581   54581       0   54583   54584
   54584       0   54586   54587   54587       0   54589   54590   54590       0
   54592   54593   54593       0   54595   54596   54596       0   54598   54599
   54599       0   54601   54602   54602       0   54604   54605   54605       0
   54607   54608   54608       0   54610   54611   54611       0   54613   54614
   54614       0   54616   54617   54617       0   54619   54620   54620       0
   54622   54623   54623       0   54625   54626   54626       0   54628   54629
   54629       0   54631   54632   54632       0   54634   54635   54635       0
   54637   54638   54638       0   54640   54641   54641       0   54643   54644
   54644       0   54646   54647   54647       0   54649   54650   54650       0
   54652   54653   54653       0   54655   54656   54656       0   54658   54659
   54659       0   54661   54662   54662       0   54664   54665   54665       0
   54667   54668   54668       0   54670   54671   54671       0   54673   54674
   54674       0   54676   54677   54677       0   54679   54680   54680       0
   54682   54683   54683       0   54685   54686   54686       0   54688   54689
   54689       0   54691   54692   54692       0   54694   54695   54695       0
   54697   54698   54698       0   54700   54701   54701       0   54703   54704
   54704       0   54706   54707   54707       0   54709   54710   54710       0
   54712   54713   54713       0   54715   54716   54716       0   54718   54719
   54719       0   54721   54722   54722       0   54724   54725   54725       0
   54727   54728   54728       0   54730   54731   54731       0   54733   54734
   54734       0   54736   54737   54737       0   54739   54740   54740       0
   54742   54743   54743       0   54745   54746   54746       0   54748   54749
   54749       0   54751   54752   54752       0   54754   54755   54755       0
   54757   54758   54758       0   54760   54761   54761       0   54763   54764
   54764       0   54766   54767   54767       0   54769   54770   54770       0
   54772   54773   54773       0   54775   54776   54776       0   54778   54779
   54779       0   54781   54782   54782       0   54784   54785   54785       0
   54787   54788   54788       0   54790   54791   54791       0   54793   54794
   54794       0   54796   54797   54797       0   54799   54800   54800       0
   54802   54803   54803       0   54805   54806   54806       0   54808   54809
   54809       0   54811   54812   54812       0   54814   54815   54815       0
   54817   54818   54818       0   54820   54821   54821       0   54823   54824
   54824       0   54826   54827   54827       0   54829   54830   54830       0
   54832   54833   54833       0   54835   54836   54836       0   54838   54839
   54839       0   54841   54842   54842       0   54844   54845   54845       0
   54847   54848   54848       0   54850   54851   54851       0   54853   54854
   54854       0   54856   54857   54857       0   54859   54860   54860       0
   54862   54863   54863       0   54865   54866   54866       0   54868   54869
   54869       0   54871   54872   54872       0   54874   54875   54875       0
   54877   54878   54878       0   54880   54881   54881       0   54883   54884
   54884       0   54886   54887   54887       0   54889   54890   54890       0
   54892   54893   54893       0   54895   54896   54896       0   54898   54899
   54899       0   54901   54902   54902       0   54904   54905   54905       0
   54907   54908   54908       0   54910   54911   54911       0   54913   54914
   54914       0   54916   54917   54917       0   54919   54920   54920       0
   54922   54923   54923       0   54925   54926   54926       0   54928   54929
   54929       0   54931   54932   54932       0   54934   54935   54935       0
   54937   54938   54938       0   54940   54941   54941       0   54943   54944
   54944       0   54946   54947   54947       0   54949   54950   54950       0
   54952   54953   54953       0   54955   54956   54956       0   54958   54959
   54959       0   54961   54962   54962       0   54964   54965   54965       0
   54967   54968   54968       0   54970   54971   54971       0   54973   54974
   54974       0   54976   54977   54977       0   54979   54980   54980       0
   54982   54983   54983       0   54985   54986   54986       0   54988   54989
   54989       0   54991   54992   54992       0   54994   54995   54995       0
   54997   54998   54998       0   55000   55001   55001       0   55003   55004
   55004       0   55006   55007   55007       0   55009   55010   55010       0
   55012   55013   55013       0   55015   55016   55016       0   55018   55019
   55019       0   55021   55022   55022       0   55024   55025   55025       0
   55027   55028   55028       0   55030   55031   55031       0   55033   55034
   55034       0   55036   55037   55037       0   55039   55040   55040       0
   55042   55043   55043       0   55045   55046   55046       0   55048   55049
   55049       0   55051   55052   55052       0   55054   55055   55055       0
   55057   55058   55058       0   55060   55061   55061       0   55063   55064
   55064       0   55066   55067   55067       0   55069   55070   55070       0
   55072   55073   55073       0   55075   55076   55076       0   55078   55079
   55079       0   55081   55082   55082       0   55084   55085   55085       0
   55087   55088   55088       0   55090   55091   55091       0   55093   55094
   55094       0   55096   55097   55097       0   55099   55100   55100       0
   55102   55103   55103       0   55105   55106   55106       0   55108   55109
   55109       0   55111   55112   55112       0   55114   55115   55115       0
   55117   55118   55118       0   55120   55121   55121       0   55123   55124
   55124       0   55126   55127   55127       0   55129   55130   55130       0
   55132   55133   55133       0   55135   55136   55136       0   55138   55139
   55139       0   55141   55142   55142       0   55144   55145   55145       0
   55147   55148   55148       0   55150   55151   55151       0   55153   55154
   55154       0   55156   55157   55157       0   55159   55160   55160       0
   55162   55163   55163       0   55165   55166   55166       0   55168   55169
   55169       0   55171   55172   55172       0   55174   55175   55175       0
   55177   55178   55178       0   55180   55181   55181       0   55183   55184
   55184       0   55186   55187   55187       0   55189   55190   55190       0
   55192   55193   55193       0   55195   55196   55196       0   55198   55199
   55199       0   55201   55202   55202       0   55204   55205   55205       0
   55207   55208   55208       0   55210   55211   55211       0   55213   55214
   55214       0   55216   55217   55217       0   55219   55220   55220       0
   55222   55223   55223       0   55225   55226   55226       0   55228   55229
   55229       0   55231   55232   55232       0   55234   55235   55235       0
   55237   55238   55238       0   55240   55241   55241       0   55243   55244
   55244       0   55246   55247   55247       0   55249   55250   55250       0
   55252   55253   55253       0   55255   55256   55256       0   55258   55259
   55259       0   55261   55262   55262       0   55264   55265   55265       0
   55267   55268   55268       0   55270   55271   55271       0   55273   55274
   55274       0   55276   55277   55277       0   55279   55280   55280       0
   55282   55283   55283       0   55285   55286   55286       0   55288   55289
   55289       0   55291   55292   55292       0   55294   55295   55295       0
   55297   55298   55298       0   55300   55301   55301       0   55303   55304
   55304       0   55306   55307   55307       0   55309   55310   55310       0
   55312   55313   55313       0   55315   55316   55316       0   55318   55319
   55319       0   55321   55322   55322       0   55324   55325   55325       0
   55327   55328   55328       0   55330   55331   55331       0   55333   55334
   55334       0   55336   55337   55337       0   55339   55340   55340       0
   55342   55343   55343       0   55345   55346   55346       0   55348   55349
   55349       0   55351   55352   55352       0   55354   55355   55355       0
   55357   55358   55358       0   55360   55361   55361       0   55363   55364
   55364       0   55366   55367   55367       0   55369   55370   55370       0
   55372   55373   55373       0   55375   55376   55376       0   55378   55379
   55379       0   55381   55382   55382       0   55384   55385   55385       0
   55387   55388   55388       0   55390   55391   55391       0   55393   55394
   55394       0   55396   55397   55397       0   55399   55400   55400       0
   55402   55403   55403       0   55405   55406   55406       0   55408   55409
   55409       0   55411   55412   55412       0   55414   55415   55415       0
   55417   55418   55418       0   55420   55421   55421       0   55423   55424
   55424       0   55426   55427   55427       0   55429   55430   55430       0
   55432   55433   55433       0   55435   55436   55436       0   55438   55439
   55439       0   55441   55442   55442       0   55444   55445   55445       0
   55447   55448   55448       0   55450   55451   55451       0   55453   55454
   55454       0   55456   55457   55457       0   55459   55460   55460       0
   55462   55463   55463       0   55465   55466   55466       0   55468   55469
   55469       0   55471   55472   55472       0   55474   55475   55475       0
   55477   55478   55478       0   55480   55481   55481       0   55483   55484
   55484       0   55486   55487   55487       0   55489   55490   55490       0
   55492   55493   55493       0   55495   55496   55496       0   55498   55499
   55499       0   55501   55502   55502       0   55504   55505   55505       0
   55507   55508   55508       0   55510   55511   55511       0   55513   55514
   55514       0   55516   55517   55517       0   55519   55520   55520       0
   55522   55523   55523       0   55525   55526   55526       0   55528   55529
   55529       0   55531   55532   55532       0   55534   55535   55535       0
   55537   55538   55538       0   55540   55541   55541       0   55543   55544
   55544       0   55546   55547   55547       0   55549   55550   55550       0
   55552   55553   55553       0   55555   55556   55556       0   55558   55559
   55559       0   55561   55562   55562       0   55564   55565   55565       0
   55567   55568   55568       0   55570   55571   55571       0   55573   55574
   55574       0   55576   55577   55577       0   55579   55580   55580       0
   55582   55583   55583       0   55585   55586   55586       0   55588   55589
   55589       0   55591   55592   55592       0   55594   55595   55595       0
   55597   55598   55598       0   55600   55601   55601       0   55603   55604
   55604       0   55606   55607   55607       0   55609   55610   55610       0
   55612   55613   55613       0   55615   55616   55616       0   55618   55619
   55619       0   55621   55622   55622       0   55624   55625   55625       0
   55627   55628   55628       0   55630   55631   55631       0   55633   55634
   55634       0   55636   55637   55637       0   55639   55640   55640       0
   55642   55643   55643       0   55645   55646   55646       0   55648   55649
   55649       0   55651   55652   55652       0   55654   55655   55655       0
   55657   55658   55658       0   55660   55661   55661       0   55663   55664
   55664       0   55666   55667   55667       0   55669   55670   55670       0
   55672   55673   55673       0   55675   55676   55676       0   55678   55679
   55679       0   55681   55682   55682       0   55684   55685   55685       0
   55687   55688   55688       0   55690   55691   55691       0   55693   55694
   55694       0   55696   55697   55697       0   55699   55700   55700       0
   55702   55703   55703       0   55705   55706   55706       0   55708   55709
   55709       0   55711   55712   55712       0   55714   55715   55715       0
   55717   55718   55718       0   55720   55721   55721       0   55723   55724
   55724       0   55726   55727   55727       0   55729   55730   55730       0
   55732   55733   55733       0   55735   55736   55736       0   55738   55739
   55739       0   55741   55742   55742       0   55744   55745   55745       0
   55747   55748   55748       0   55750   55751   55751       0   55753   55754
   55754       0   55756   55757   55757       0   55759   55760   55760       0
   55762   55763   55763       0   55765   55766   55766       0   55768   55769
   55769       0   55771   55772   55772       0   55774   55775   55775       0
   55777   55778   55778       0   55780   55781   55781       0   55783   55784
   55784       0   55786   55787   55787       0   55789   55790   55790       0
   55792   55793   55793       0   55795   55796   55796       0   55798   55799
   55799       0   55801   55802   55802       0   55804   55805   55805       0
   55807   55808   55808       0   55810   55811   55811       0   55813   55814
   55814       0   55816   55817   55817       0   55819   55820   55820       0
   55822   55823   55823       0   55825   55826   55826       0   55828   55829
   55829       0   55831   55832   55832       0   55834   55835   55835       0
   55837   55838   55838       0   55840   55841   55841       0   55843   55844
   55844       0   55846   55847   55847       0   55849   55850   55850       0
   55852   55853   55853       0   55855   55856   55856       0   55858   55859
   55859       0   55861   55862   55862       0   55864   55865   55865       0
   55867   55868   55868       0   55870   55871   55871       0   55873   55874
   55874       0   55876   55877   55877       0   55879   55880   55880       0
   55882   55883   55883       0   55885   55886   55886       0   55888   55889
   55889       0   55891   55892   55892       0   55894   55895   55895       0
   55897   55898   55898       0   55900   55901   55901       0   55903   55904
   55904       0   55906   55907   55907       0   55909   55910   55910       0
   55912   55913   55913       0   55915   55916   55916       0   55918   55919
   55919       0   55921   55922   55922       0   55924   55925   55925       0
   55927   55928   55928       0   55930   55931   55931       0   55933   55934
   55934       0   55936   55937   55937       0   55939   55940   55940       0
   55942   55943   55943       0   55945   55946   55946       0   55948   55949
   55949       0   55951   55952   55952       0   55954   55955   55955       0
   55957   55958   55958       0   55960   55961   55961       0   55963   55964
   55964       0   55966   55967   55967       0   55969   55970   55970       0
   55972   55973   55973       0   55975   55976   55976       0   55978   55979
   55979       0   55981   55982   55982       0   55984   55985   55985       0
   55987   55988   55988       0   55990   55991   55991       0   55993   55994
   55994       0   55996   55997   55997       0   55999   56000   56000       0
   56002   56003   56003       0   56005   56006   56006       0   56008   56009
   56009       0   56011   56012   56012       0   56014   56015   56015       0
   56017   56018   56018       0   56020   56021   56021       0   56023   56024
   56024       0   56026   56027   56027       0   56029   56030   56030       0
   56032   56033   56033       0   56035   56036   56036       0   56038   56039
   56039       0   56041   56042   56042       0   56044   56045   56045       0
   56047   56048   56048       0   56050   56051   56051       0   56053   56054
   56054       0   56056   56057   56057       0   56059   56060   56060       0
   56062   56063   56063       0   56065   56066   56066       0   56068   56069
   56069       0   56071   56072   56072       0   56074   56075   56075       0
   56077   56078   56078       0   56080   56081   56081       0   56083   56084
   56084       0   56086   56087   56087       0   56089   56090   56090       0
   56092   56093   56093       0   56095   56096   56096       0   56098   56099
   56099       0   56101   56102   56102       0   56104   56105   56105       0
   56107   56108   56108       0   56110   56111   56111       0   56113   56114
   56114       0   56116   56117   56117       0   56119   56120   56120       0
   56122   56123   56123       0   56125   56126   56126       0   56128   56129
   56129       0   56131   56132   56132       0   56134   56135   56135       0
   56137   56138   56138       0   56140   56141   56141       0   56143   56144
   56144       0   56146   56147   56147       0   56149   56150   56150       0
   56152   56153   56153       0   56155   56156   56156       0   56158   56159
   56159       0   56161   56162   56162       0   56164   56165   56165       0
   56167   56168   56168       0   56170   56171   56171       0   56173   56174
   56174       0   56176   56177   56177       0   56179   56180   56180       0
   56182   56183   56183       0   56185   56186   56186       0   56188   56189
   56189       0   56191   56192   56192       0   56194   56195   56195       0
   56197   56198   56198       0   56200   56201   56201       0   56203   56204
   56204       0   56206   56207   56207       0   56209   56210   56210       0
   56212   56213   56213       0   56215   56216   56216       0   56218   56219
   56219       0   56221   56222   56222       0   56224   56225   56225       0
   56227   56228   56228       0   56230   56231   56231       0   56233   56234
   56234       0   56236   56237   56237       0   56239   56240   56240       0
   56242   56243   56243       0   56245   56246   56246       0   56248   56249
   56249       0   56251   56252   56252       0   56254   56255   56255       0
   56257   56258   56258       0   56260   56261   56261       0   56263   56264
   56264       0   56266   56267   56267       0   56269   56270   56270       0
   56272   56273   56273       0   56275   56276   56276       0   56278   56279
   56279       0   56281   56282   56282       0   56284   56285   56285       0
   56287   56288   56288       0   56290   56291   56291       0   56293   56294
   56294       0   56296   56297   56297       0   56299   56300   56300       0
   56302   56303   56303       0   56305   56306   56306       0   56308   56309
   56309       0   56311   56312   56312       0   56314   56315   56315       0
   56317   56318   56318       0   56320   56321   56321       0   56323   56324
   56324       0   56326   56327   56327       0   56329   56330   56330       0
   56332   56333   56333       0   56335   56336   56336       0   56338   56339
   56339       0   56341   56342   56342       0   56344   56345   56345       0
   56347   56348   56348       0   56350   56351   56351       0   56353   56354
   56354       0   56356   56357   56357       0   56359   56360   56360       0
   56362   56363   56363       0   56365   56366   56366       0   56368   56369
   56369       0   56371   56372   56372       0   56374   56375   56375       0
   56377   56378   56378       0   56380   56381   56381       0   56383   56384
   56384       0   56386   56387   56387       0   56389   56390   56390       0
   56392   56393   56393       0   56395   56396   56396       0   56398   56399
   56399       0   56401   56402   56402       0   56404   56405   56405       0
   56407   56408   56408       0   56410   56411   56411       0   56413   56414
   56414       0   56416   56417   56417       0   56419   56420   56420       0
   56422   56423   56423       0   56425   56426   56426       0   56428   56429
   56429       0   56431   56432   56432       0   56434   56435   56435       0
   56437   56438   56438       0   56440   56441   56441       0   56443   56444
   56444       0   56446   56447   56447       0   56449   56450   56450       0
   56452   56453   56453       0   56455   56456   56456       0   56458   56459
   56459       0   56461   56462   56462       0   56464   56465   56465       0
   56467   56468   56468       0   56470   56471   56471       0   56473   56474
   56474       0   56476   56477   56477       0   56479   56480   56480       0
   56482   56483   56483       0   56485   56486   56486       0   56488   56489
   56489       0   56491   56492   56492       0   56494   56495   56495       0
   56497   56498   56498       0   56500   56501   56501       0   56503   56504
   56504       0   56506   56507   56507       0   56509   56510   56510       0
   56512   56513   56513       0   56515   56516   56516       0   56518   56519
   56519       0   56521   56522   56522       0   56524   56525   56525       0
   56527   56528   56528       0   56530   56531   56531       0   56533   56534
   56534       0   56536   56537   56537       0   56539   56540   56540       0
   56542   56543   56543       0   56545   56546   56546       0   56548   56549
   56549       0   56551   56552   56552       0   56554   56555   56555       0
   56557   56558   56558       0   56560   56561   56561       0   56563   56564
   56564       0   56566   56567   56567       0   56569   56570   56570       0
   56572   56573   56573       0   56575   56576   56576       0   56578   56579
   56579       0   56581   56582   56582       0   56584   56585   56585       0
   56587   56588   56588       0   56590   56591   56591       0   56593   56594
   56594       0   56596   56597   56597       0   56599   56600   56600       0
   56602   56603   56603       0   56605   56606   56606       0   56608   56609
   56609       0   56611   56612   56612       0   56614   56615   56615       0
   56617   56618   56618       0   56620   56621   56621       0   56623   56624
   56624       0   56626   56627   56627       0   56629   56630   56630       0
   56632   56633   56633       0   56635   56636   56636       0   56638   56639
   56639       0   56641   56642   56642       0   56644   56645   56645       0
   56647   56648   56648       0   56650   56651   56651       0   56653   56654
   56654       0   56656   56657   56657       0   56659   56660   56660       0
   56662   56663   56663       0   56665   56666   56666       0   56668   56669
   56669       0   56671   56672   56672       0   56674   56675   56675       0
   56677   56678   56678       0   56680   56681   56681       0   56683   56684
   56684       0   56686   56687   56687       0   56689   56690   56690       0
   56692   56693   56693       0   56695   56696   56696       0   56698   56699
   56699       0   56701   56702   56702       0   56704   56705   56705       0
   56707   56708   56708       0   56710   56711   56711       0   56713   56714
   56714       0   56716   56717   56717       0   56719   56720   56720       0
   56722   56723   56723       0   56725   56726   56726       0   56728   56729
   56729       0   56731   56732   56732       0   56734   56735   56735       0
   56737   56738   56738       0   56740   56741   56741       0   56743   56744
   56744       0   56746   56747   56747       0   56749   56750   56750       0
   56752   56753   56753       0   56755   56756   56756       0   56758   56759
   56759       0   56761   56762   56762       0   56764   56765   56765       0
   56767   56768   56768       0   56770   56771   56771       0   56773   56774
   56774       0   56776   56777   56777       0   56779   56780   56780       0
   56782   56783   56783       0   56785   56786   56786       0   56788   56789
   56789       0   56791   56792   56792       0   56794   56795   56795       0
   56797   56798   56798       0   56800   56801   56801       0   56803   56804
   56804       0   56806   56807   56807       0   56809   56810   56810       0
   56812   56813   56813       0   56815   56816   56816       0   56818   56819
   56819       0   56821   56822   56822       0   56824   56825   56825       0
   56827   56828   56828       0   56830   56831   56831       0   56833   56834
   56834       0   56836   56837   56837       0   56839   56840   56840       0
   56842   56843   56843       0   56845   56846   56846       0   56848   56849
   56849       0   56851   56852   56852       0   56854   56855   56855       0
   56857   56858   56858       0   56860   56861   56861       0   56863   56864
   56864       0   56866   56867   56867       0   56869   56870   56870       0
   56872   56873   56873       0   56875   56876   56876       0   56878   56879
   56879       0   56881   56882   56882       0   56884   56885   56885       0
   56887   56888   56888       0   56890   56891   56891       0   56893   56894
   56894       0   56896   56897   56897       0   56899   56900   56900       0
   56902   56903   56903       0   56905   56906   56906       0   56908   56909
   56909       0   56911   56912   56912       0   56914   56915   56915       0
   56917   56918   56918       0   56920   56921   56921       0   56923   56924
   56924       0   56926   56927   56927       0   56929   56930   56930       0
   56932   56933   56933       0   56935   56936   56936       0   56938   56939
   56939       0   56941   56942   56942       0   56944   56945   56945       0
   56947   56948   56948       0   56950   56951   56951       0   56953   56954
   56954       0   56956   56957   56957       0   56959   56960   56960       0
   56962   56963   56963       0   56965   56966   56966       0   56968   56969
   56969       0   56971   56972   56972       0   56974   56975   56975       0
   56977   56978   56978       0   56980   56981   56981       0   56983   56984
   56984       0   56986   56987   56987       0   56989   56990   56990       0
   56992   56993   56993       0   56995   56996   56996       0   56998   56999
   56999       0   57001   57002   57002       0   57004   57005   57005       0
   57007   57008   57008       0   57010   57011   57011       0   57013   57014
   57014       0   57016   57017   57017       0   57019   57020   57020       0
   57022   57023   57023       0   57025   57026   57026       0   57028   57029
   57029       0   57031   57032   57032       0   57034   57035   57035       0
   57037   57038   57038       0   57040   57041   57041       0   57043   57044
   57044       0   57046   57047   57047       0   57049   57050   57050       0
   57052   57053   57053       0   57055   57056   57056       0   57058   57059
   57059       0   57061   57062   57062       0   57064   57065   57065       0
   57067   57068   57068       0   57070   57071   57071       0   57073   57074
   57074       0   57076   57077   57077       0   57079   57080   57080       0
   57082   57083   57083       0   57085   57086   57086       0   57088   57089
   57089       0   57091   57092   57092       0   57094   57095   57095       0
   57097   57098   57098       0   57100   57101   57101       0   57103   57104
   57104       0   57106   57107   57107       0   57109   57110   57110       0
   57112   57113   57113       0   57115   57116   57116       0   57118   57119
   57119       0   57121   57122   57122       0   57124   57125   57125       0
   57127   57128   57128       0   57130   57131   57131       0   57133   57134
   57134       0   57136   57137   57137       0   57139   57140   57140       0
   57142   57143   57143       0   57145   57146   57146       0   57148   57149
   57149       0   57151   57152   57152       0   57154   57155   57155       0
   57157   57158   57158       0   57160   57161   57161       0   57163   57164
   57164       0   57166   57167   57167       0   57169   57170   57170       0
   57172   57173   57173       0   57175   57176   57176       0   57178   57179
   57179       0   57181   57182   57182       0   57184   57185   57185       0
   57187   57188   57188       0   57190   57191   57191       0   57193   57194
   57194       0   57196   57197   57197       0   57199   57200   57200       0
   57202   57203   57203       0   57205   57206   57206       0   57208   57209
   57209       0   57211   57212   57212       0   57214   57215   57215       0
   57217   57218   57218       0   57220   57221   57221       0   57223   57224
   57224       0   57226   57227   57227       0   57229   57230   57230       0
   57232   57233   57233       0   57235   57236   57236       0   57238   57239
   57239       0   57241   57242   57242       0   57244   57245   57245       0
   57247   57248   57248       0   57250   57251   57251       0   57253   57254
   57254       0   57256   57257   57257       0   57259   57260   57260       0
   57262   57263   57263       0   57265   57266   57266       0   57268   57269
   57269       0   57271   57272   57272       0   57274   57275   57275       0
   57277   57278   57278       0   57280   57281   57281       0   57283   57284
   57284       0   57286   57287   57287       0   57289   57290   57290       0
   57292   57293   57293       0   57295   57296   57296       0   57298   57299
   57299       0   57301   57302   57302       0   57304   57305   57305       0
   57307   57308   57308       0   57310   57311   57311       0   57313   57314
   57314       0   57316   57317   57317       0   57319   57320   57320       0
   57322   57323   57323       0   57325   57326   57326       0   57328   57329
   57329       0   57331   57332   57332       0   57334   57335   57335       0
   57337   57338   57338       0   57340   57341   57341       0   57343   57344
   57344       0   57346   57347   57347       0   57349   57350   57350       0
   57352   57353   57353       0   57355   57356   57356       0   57358   57359
   57359       0   57361   57362   57362       0   57364   57365   57365       0
   57367   57368   57368       0   57370   57371   57371       0   57373   57374
   57374       0   57376   57377   57377       0   57379   57380   57380       0
   57382   57383   57383       0   57385   57386   57386       0   57388   57389
   57389       0   57391   57392   57392       0   57394   57395   57395       0
   57397   57398   57398       0   57400   57401   57401       0   57403   57404
   57404       0   57406   57407   57407       0   57409   57410   57410       0
   57412   57413   57413       0   57415   57416   57416       0   57418   57419
   57419       0   57421   57422   57422       0   57424   57425   57425       0
   57427   57428   57428       0   57430   57431   57431       0   57433   57434
   57434       0   57436   57437   57437       0   57439   57440   57440       0
   57442   57443   57443       0   57445   57446   57446       0   57448   57449
   57449       0   57451   57452   57452       0   57454   57455   57455       0
   57457   57458   57458       0   57460   57461   57461       0   57463   57464
   57464       0   57466   57467   57467       0   57469   57470   57470       0
   57472   57473   57473       0   57475   57476   57476       0   57478   57479
   57479       0   57481   57482   57482       0   57484   57485   57485       0
   57487   57488   57488       0   57490   57491   57491       0   57493   57494
   57494       0   57496   57497   57497       0   57499   57500   57500       0
   57502   57503   57503       0   57505   57506   57506       0   57508   57509
   57509       0   57511   57512   57512       0   57514   57515   57515       0
   57517   57518   57518       0   57520   57521   57521       0   57523   57524
   57524       0   57526   57527   57527       0   57529   57530   57530       0
   57532   57533   57533       0   57535   57536   57536       0   57538   57539
   57539       0   57541   57542   57542       0   57544   57545   57545       0
   57547   57548   57548       0   57550   57551   57551       0   57553   57554
   57554       0   57556   57557   57557       0   57559   57560   57560       0
   57562   57563   57563       0   57565   57566   57566       0   57568   57569
   57569       0   57571   57572   57572       0   57574   57575   57575       0
   57577   57578   57578       0   57580   57581   57581       0   57583   57584
   57584       0   57586   57587   57587       0   57589   57590   57590       0
   57592   57593   57593       0   57595   57596   57596       0   57598   57599
   57599       0   57601   57602   57602       0   57604   57605   57605       0
   57607   57608   57608       0   57610   57611   57611       0   57613   57614
   57614       0   57616   57617   57617       0   57619   57620   57620       0
   57622   57623   57623       0   57625   57626   57626       0   57628   57629
   57629       0   57631   57632   57632       0   57634   57635   57635       0
   57637   57638   57638       0   57640   57641   57641       0   57643   57644
   57644       0   57646   57647   57647       0   57649   57650   57650       0
   57652   57653   57653       0   57655   57656   57656       0   57658   57659
   57659       0   57661   57662   57662       0   57664   57665   57665       0
   57667   57668   57668       0   57670   57671   57671       0   57673   57674
   57674       0   57676   57677   57677       0   57679   57680   57680       0
   57682   57683   57683       0   57685   57686   57686       0   57688   57689
   57689       0   57691   57692   57692       0   57694   57695   57695       0
   57697   57698   57698       0   57700   57701   57701       0   57703   57704
   57704       0   57706   57707   57707       0   57709   57710   57710       0
   57712   57713   57713       0   57715   57716   57716       0   57718   57719
   57719       0   57721   57722   57722       0   57724   57725   57725       0
   57727   57728   57728       0   57730   57731   57731       0   57733   57734
   57734       0   57736   57737   57737       0   57739   57740   57740       0
   57742   57743   57743       0   57745   57746   57746       0   57748   57749
   57749       0   57751   57752   57752       0   57754   57755   57755       0
   57757   57758   57758       0   57760   57761   57761       0   57763   57764
   57764       0   57766   57767   57767       0   57769   57770   57770       0
   57772   57773   57773       0   57775   57776   57776       0   57778   57779
   57779       0   57781   57782   57782       0   57784   57785   57785       0
   57787   57788   57788       0   57790   57791   57791       0   57793   57794
   57794       0   57796   57797   57797       0   57799   57800   57800       0
   57802   57803   57803       0   57805   57806   57806       0   57808   57809
   57809       0   57811   57812   57812       0   57814   57815   57815       0
   57817   57818   57818       0   57820   57821   57821       0   57823   57824
   57824       0   57826   57827   57827       0   57829   57830   57830       0
   57832   57833   57833       0   57835   57836   57836       0   57838   57839
   57839       0   57841   57842   57842       0   57844   57845   57845       0
   57847   57848   57848       0   57850   57851   57851       0   57853   57854
   57854       0   57856   57857   57857       0   57859   57860   57860       0
   57862   57863   57863       0   57865   57866   57866       0   57868   57869
   57869       0   57871   57872   57872       0   57874   57875   57875       0
   57877   57878   57878       0   57880   57881   57881       0   57883   57884
   57884       0   57886   57887   57887       0   57889   57890   57890       0
   57892   57893   57893       0   57895   57896   57896       0   57898   57899
   57899       0   57901   57902   57902       0   57904   57905   57905       0
   57907   57908   57908       0   57910   57911   57911       0   57913   57914
   57914       0   57916   57917   57917       0   57919   57920   57920       0
   57922   57923   57923       0   57925   57926   57926       0   57928   57929
   57929       0   57931   57932   57932       0   57934   57935   57935       0
   57937   57938   57938       0   57940   57941   57941       0   57943   57944
   57944       0   57946   57947   57947       0   57949   57950   57950       0
   57952   57953   57953       0   57955   57956   57956       0   57958   57959
   57959       0   57961   57962   57962       0   57964   57965   57965       0
   57967   57968   57968       0   57970   57971   57971       0   57973   57974
   57974       0   57976   57977   57977       0   57979   57980   57980       0
   57982   57983   57983       0   57985   57986   57986       0   57988   57989
   57989       0   57991   57992   57992       0   57994   57995   57995       0
   57997   57998   57998       0   58000   58001   58001       0   58003   58004
   58004       0   58006   58007   58007       0   58009   58010   58010       0
   58012   58013   58013       0   58015   58016   58016       0   58018   58019
   58019       0   58021   58022   58022       0   58024   58025   58025       0
   58027   58028   58028       0   58030   58031   58031       0   58033   58034
   58034       0   58036   58037   58037       0   58039   58040   58040       0
   58042   58043   58043       0   58045   58046   58046       0   58048   58049
   58049       0   58051   58052   58052       0   58054   58055   58055       0
   58057   58058   58058       0   58060   58061   58061       0   58063   58064
   58064       0   58066   58067   58067       0   58069   58070   58070       0
   58072   58073   58073       0   58075   58076   58076       0   58078   58079
   58079       0   58081   58082   58082       0   58084   58085   58085       0
   58087   58088   58088       0   58090   58091   58091       0   58093   58094
   58094       0   58096   58097   58097       0   58099   58100   58100       0
   58102   58103   58103       0   58105   58106   58106       0   58108   58109
   58109       0   58111   58112   58112       0   58114   58115   58115       0
   58117   58118   58118       0   58120   58121   58121       0   58123   58124
   58124       0   58126   58127   58127       0   58129   58130   58130       0
   58132   58133   58133       0   58135   58136   58136       0   58138   58139
   58139       0   58141   58142   58142       0   58144   58145   58145       0
   58147   58148   58148       0   58150   58151   58151       0   58153   58154
   58154       0   58156   58157   58157       0   58159   58160   58160       0
   58162   58163   58163       0   58165   58166   58166       0   58168   58169
   58169       0   58171   58172   58172       0   58174   58175   58175       0
   58177   58178   58178       0   58180   58181   58181       0   58183   58184
   58184       0   58186   58187   58187       0   58189   58190   58190       0
   58192   58193   58193       0   58195   58196   58196       0   58198   58199
   58199       0   58201   58202   58202       0   58204   58205   58205       0
   58207   58208   58208       0   58210   58211   58211       0   58213   58214
   58214       0   58216   58217   58217       0   58219   58220   58220       0
   58222   58223   58223       0   58225   58226   58226       0   58228   58229
   58229       0   58231   58232   58232       0   58234   58235   58235       0
   58237   58238   58238       0   58240   58241   58241       0   58243   58244
   58244       0   58246   58247   58247       0   58249   58250   58250       0
   58252   58253   58253       0   58255   58256   58256       0   58258   58259
   58259       0   58261   58262   58262       0   58264   58265   58265       0
   58267   58268   58268       0   58270   58271   58271       0   58273   58274
   58274       0   58276   58277   58277       0   58279   58280   58280       0
   58282   58283   58283       0   58285   58286   58286       0   58288   58289
   58289       0   58291   58292   58292       0   58294   58295   58295       0
   58297   58298   58298       0   58300   58301   58301       0   58303   58304
   58304       0   58306   58307   58307       0   58309   58310   58310       0
   58312   58313   58313       0   58315   58316   58316       0   58318   58319
   58319       0   58321   58322   58322       0   58324   58325   58325       0
   58327   58328   58328       0   58330   58331   58331       0   58333   58334
   58334       0   58336   58337   58337       0   58339   58340   58340       0
   58342   58343   58343       0   58345   58346   58346       0   58348   58349
   58349       0   58351   58352   58352       0   58354   58355   58355       0
   58357   58358   58358       0   58360   58361   58361       0   58363   58364
   58364       0   58366   58367   58367       0   58369   58370   58370       0
   58372   58373   58373       0   58375   58376   58376       0   58378   58379
   58379       0   58381   58382   58382       0   58384   58385   58385       0
   58387   58388   58388       0   58390   58391   58391       0   58393   58394
   58394       0   58396   58397   58397       0   58399   58400   58400       0
   58402   58403   58403       0   58405   58406   58406       0   58408   58409
   58409       0   58411   58412   58412       0   58414   58415   58415       0
   58417   58418   58418       0   58420   58421   58421       0   58423   58424
   58424       0   58426   58427   58427       0   58429   58430   58430       0
   58432   58433   58433       0   58435   58436   58436       0   58438   58439
   58439       0   58441   58442   58442       0   58444   58445   58445       0
   58447   58448   58448       0   58450   58451   58451       0   58453   58454
   58454       0   58456   58457   58457       0   58459   58460   58460       0
   58462   58463   58463       0   58465   58466   58466       0   58468   58469
   58469       0   58471   58472   58472       0   58474   58475   58475       0
   58477   58478   58478       0   58480   58481   58481       0   58483   58484
   58484       0   58486   58487   58487       0   58489   58490   58490       0
   58492   58493   58493       0   58495   58496   58496       0   58498   58499
   58499       0   58501   58502   58502       0   58504   58505   58505       0
   58507   58508   58508       0   58510   58511   58511       0   58513   58514
   58514       0   58516   58517   58517       0   58519   58520   58520       0
   58522   58523   58523       0   58525   58526   58526       0   58528   58529
   58529       0   58531   58532   58532       0   58534   58535   58535       0
   58537   58538   58538       0   58540   58541   58541       0   58543   58544
   58544       0   58546   58547   58547       0   58549   58550   58550       0
   58552   58553   58553       0   58555   58556   58556       0   58558   58559
   58559       0   58561   58562   58562       0   58564   58565   58565       0
   58567   58568   58568       0   58570   58571   58571       0   58573   58574
   58574       0   58576   58577   58577       0   58579   58580   58580       0
   58582   58583   58583       0   58585   58586   58586       0   58588   58589
   58589       0   58591   58592   58592       0   58594   58595   58595       0
   58597   58598   58598       0   58600   58601   58601       0   58603   58604
   58604       0   58606   58607   58607       0   58609   58610   58610       0
   58612   58613   58613       0   58615   58616   58616       0   58618   58619
   58619       0   58621   58622   58622       0   58624   58625   58625       0
   58627   58628   58628       0   58630   58631   58631       0   58633   58634
   58634       0   58636   58637   58637       0   58639   58640   58640       0
   58642   58643   58643       0   58645   58646   58646       0   58648   58649
   58649       0   58651   58652   58652       0   58654   58655   58655       0
   58657   58658   58658       0   58660   58661   58661       0   58663   58664
   58664       0   58666   58667   58667       0   58669   58670   58670       0
   58672   58673   58673       0   58675   58676   58676       0   58678   58679
   58679       0   58681   58682   58682       0   58684   58685   58685       0
   58687   58688   58688       0   58690   58691   58691       0   58693   58694
   58694       0   58696   58697   58697       0   58699   58700   58700       0
   58702   58703   58703       0   58705   58706   58706       0   58708   58709
   58709       0   58711   58712   58712       0   58714   58715   58715       0
   58717   58718   58718       0   58720   58721   58721       0   58723   58724
   58724       0   58726   58727   58727       0   58729   58730   58730       0
   58732   58733   58733       0   58735   58736   58736       0   58738   58739
   58739       0   58741   58742   58742       0   58744   58745   58745       0
   58747   58748   58748       0   58750   58751   58751       0   58753   58754
   58754       0   58756   58757   58757       0   58759   58760   58760       0
   58762   58763   58763       0   58765   58766   58766       0   58768   58769
   58769       0   58771   58772   58772       0   58774   58775   58775       0
   58777   58778   58778       0   58780   58781   58781       0   58783   58784
   58784       0   58786   58787   58787       0   58789   58790   58790       0
   58792   58793   58793       0   58795   58796   58796       0   58798   58799
   58799       0   58801   58802   58802       0   58804   58805   58805       0
   58807   58808   58808       0   58810   58811   58811       0   58813   58814
   58814       0   58816   58817   58817       0   58819   58820   58820       0
   58822   58823   58823       0   58825   58826   58826       0   58828   58829
   58829       0   58831   58832   58832       0   58834   58835   58835       0
   58837   58838   58838       0   58840   58841   58841       0   58843   58844
   58844       0   58846   58847   58847       0   58849   58850   58850       0
   58852   58853   58853       0   58855   58856   58856       0   58858   58859
   58859       0   58861   58862   58862       0   58864   58865   58865       0
   58867   58868   58868       0   58870   58871   58871       0   58873   58874
   58874       0   58876   58877   58877       0   58879   58880   58880       0
   58882   58883   58883       0   58885   58886   58886       0   58888   58889
   58889       0   58891   58892   58892       0   58894   58895   58895       0
   58897   58898   58898       0   58900   58901   58901       0   58903   58904
   58904       0   58906   58907   58907       0   58909   58910   58910       0
   58912   58913   58913       0   58915   58916   58916       0   58918   58919
   58919       0   58921   58922   58922       0   58924   58925   58925       0
   58927   58928   58928       0   58930   58931   58931       0   58933   58934
   58934       0   58936   58937   58937       0   58939   58940   58940       0
   58942   58943   58943       0   58945   58946   58946       0   58948   58949
   58949       0   58951   58952   58952       0   58954   58955   58955       0
   58957   58958   58958       0   58960   58961   58961       0   58963   58964
   58964       0   58966   58967   58967       0   58969   58970   58970       0
   58972   58973   58973       0   58975   58976   58976       0   58978   58979
   58979       0   58981   58982   58982       0   58984   58985   58985       0
   58987   58988   58988       0   58990   58991   58991       0   58993   58994
   58994       0   58996   58997   58997       0   58999   59000   59000       0
   59002   59003   59003       0   59005   59006   59006       0   59008   59009
   59009       0   59011   59012   59012       0   59014   59015   59015       0
   59017   59018   59018       0   59020   59021   59021       0   59023   59024
   59024       0   59026   59027   59027       0   59029   59030   59030       0
   59032   59033   59033       0   59035   59036   59036       0   59038   59039
   59039       0   59041   59042   59042       0   59044   59045   59045       0
   59047   59048   59048       0   59050   59051   59051       0   59053   59054
   59054       0   59056   59057   59057       0   59059   59060   59060       0
   59062   59063   59063       0   59065   59066   59066       0   59068   59069
   59069       0   59071   59072   59072       0   59074   59075   59075       0
   59077   59078   59078       0   59080   59081   59081       0   59083   59084
   59084       0   59086   59087   59087       0   59089   59090   59090       0
   59092   59093   59093       0   59095   59096   59096       0   59098   59099
   59099       0   59101   59102   59102       0   59104   59105   59105       0
   59107   59108   59108       0   59110   59111   59111       0   59113   59114
   59114       0   59116   59117   59117       0   59119   59120   59120       0
   59122   59123   59123       0   59125   59126   59126       0   59128   59129
   59129       0   59131   59132   59132       0   59134   59135   59135       0
   59137   59138   59138       0   59140   59141   59141       0   59143   59144
   59144       0   59146   59147   59147       0   59149   59150   59150       0
   59152   59153   59153       0   59155   59156   59156       0   59158   59159
   59159       0   59161   59162   59162       0   59164   59165   59165       0
   59167   59168   59168       0   59170   59171   59171       0   59173   59174
   59174       0   59176   59177   59177       0   59179   59180   59180       0
   59182   59183   59183       0   59185   59186   59186       0   59188   59189
   59189       0   59191   59192   59192       0   59194   59195   59195       0
   59197   59198   59198       0   59200   59201   59201       0   59203   59204
   59204       0   59206   59207   59207       0   59209   59210   59210       0
   59212   59213   59213       0   59215   59216   59216       0   59218   59219
   59219       0   59221   59222   59222       0   59224   59225   59225       0
   59227   59228   59228       0   59230   59231   59231       0   59233   59234
   59234       0   59236   59237   59237       0   59239   59240   59240       0
   59242   59243   59243       0   59245   59246   59246       0   59248   59249
   59249       0   59251   59252   59252       0   59254   59255   59255       0
   59257   59258   59258       0   59260   59261   59261       0   59263   59264
   59264       0   59266   59267   59267       0   59269   59270   59270       0
   59272   59273   59273       0   59275   59276   59276       0   59278   59279
   59279       0   59281   59282   59282       0   59284   59285   59285       0
   59287   59288   59288       0   59290   59291   59291       0   59293   59294
   59294       0   59296   59297   59297       0   59299   59300   59300       0
   59302   59303   59303       0   59305   59306   59306       0   59308   59309
   59309       0   59311   59312   59312       0   59314   59315   59315       0
   59317   59318   59318       0   59320   59321   59321       0   59323   59324
   59324       0   59326   59327   59327       0   59329   59330   59330       0
   59332   59333   59333       0   59335   59336   59336       0   59338   59339
   59339       0   59341   59342   59342       0   59344   59345   59345       0
   59347   59348   59348       0   59350   59351   59351       0   59353   59354
   59354       0   59356   59357   59357       0   59359   59360   59360       0
   59362   59363   59363       0   59365   59366   59366       0   59368   59369
   59369       0   59371   59372   59372       0   59374   59375   59375       0
   59377   59378   59378       0   59380   59381   59381       0   59383   59384
   59384       0   59386   59387   59387       0   59389   59390   59390       0
   59392   59393   59393       0   59395   59396   59396       0   59398   59399
   59399       0   59401   59402   59402       0   59404   59405   59405       0
   59407   59408   59408       0   59410   59411   59411       0   59413   59414
   59414       0   59416   59417   59417       0   59419   59420   59420       0
   59422   59423   59423       0   59425   59426   59426       0   59428   59429
   59429       0   59431   59432   59432       0   59434   59435   59435       0
   59437   59438   59438       0   59440   59441   59441       0   59443   59444
   59444       0   59446   59447   59447       0   59449   59450   59450       0
   59452   59453   59453       0   59455   59456   59456       0   59458   59459
   59459       0   59461   59462   59462       0   59464   59465   59465       0
   59467   59468   59468       0   59470   59471   59471       0   59473   59474
   59474       0   59476   59477   59477       0   59479   59480   59480       0
   59482   59483   59483       0   59485   59486   59486       0   59488   59489
   59489       0   59491   59492   59492       0   59494   59495   59495       0
   59497   59498   59498       0   59500   59501   59501       0   59503   59504
   59504       0   59506   59507   59507       0   59509   59510   59510       0
   59512   59513   59513       0   59515   59516   59516       0   59518   59519
   59519       0   59521   59522   59522       0   59524   59525   59525       0
   59527   59528   59528       0   59530   59531   59531       0   59533   59534
   59534       0   59536   59537   59537       0   59539   59540   59540       0
   59542   59543   59543       0   59545   59546   59546       0   59548   59549
   59549       0   59551   59552   59552       0   59554   59555   59555       0
   59557   59558   59558       0   59560   59561   59561       0   59563   59564
   59564       0   59566   59567   59567       0   59569   59570   59570       0
   59572   59573   59573       0   59575   59576   59576       0   59578   59579
   59579       0   59581   59582   59582       0   59584   59585   59585       0
   59587   59588   59588       0   59590   59591   59591       0   59593   59594
   59594       0   59596   59597   59597       0   59599   59600   59600       0
   59602   59603   59603       0   59605   59606   59606       0   59608   59609
   59609       0   59611   59612   59612       0   59614   59615   59615       0
   59617   59618   59618       0   59620   59621   59621       0   59623   59624
   59624       0   59626   59627   59627       0   59629   59630   59630       0
   59632   59633   59633       0   59635   59636   59636       0   59638   59639
   59639       0   59641   59642   59642       0   59644   59645   59645       0
   59647   59648   59648       0   59650   59651   59651       0   59653   59654
   59654       0   59656   59657   59657       0   59659   59660   59660       0
   59662   59663   59663       0   59665   59666   59666       0   59668   59669
   59669       0   59671   59672   59672       0   59674   59675   59675       0
   59677   59678   59678       0   59680   59681   59681       0   59683   59684
   59684       0   59686   59687   59687       0   59689   59690   59690       0
   59692   59693   59693       0   59695   59696   59696       0   59698   59699
   59699       0   59701   59702   59702       0   59704   59705   59705       0
   59707   59708   59708       0   59710   59711   59711       0   59713   59714
   59714       0   59716   59717   59717       0   59719   59720   59720       0
   59722   59723   59723       0   59725   59726   59726       0   59728   59729
   59729       0   59731   59732   59732       0   59734   59735   59735       0
   59737   59738   59738       0   59740   59741   59741       0   59743   59744
   59744       0   59746   59747   59747       0   59749   59750   59750       0
   59752   59753   59753       0   59755   59756   59756       0   59758   59759
   59759       0   59761   59762   59762       0   59764   59765   59765       0
   59767   59768   59768       0   59770   59771   59771       0   59773   59774
   59774       0   59776   59777   59777       0   59779   59780   59780       0
   59782   59783   59783       0   59785   59786   59786       0   59788   59789
   59789       0   59791   59792   59792       0   59794   59795   59795       0
   59797   59798   59798       0   59800   59801   59801       0   59803   59804
   59804       0   59806   59807   59807       0   59809   59810   59810       0
   59812   59813   59813       0   59815   59816   59816       0   59818   59819
   59819       0   59821   59822   59822       0   59824   59825   59825       0
   59827   59828   59828       0   59830   59831   59831       0   59833   59834
   59834       0   59836   59837   59837       0   59839   59840   59840       0
   59842   59843   59843       0   59845   59846   59846       0   59848   59849
   59849       0   59851   59852   59852       0   59854   59855   59855       0
   59857   59858   59858       0   59860   59861   59861       0   59863   59864
   59864       0   59866   59867   59867       0   59869   59870   59870       0
   59872   59873   59873       0   59875   59876   59876       0   59878   59879
   59879       0   59881   59882   59882       0   59884   59885   59885       0
   59887   59888   59888       0   59890   59891   59891       0   59893   59894
   59894       0   59896   59897   59897       0   59899   59900   59900       0
   59902   59903   59903       0   59905   59906   59906       0   59908   59909
   59909       0   59911   59912   59912       0   59914   59915   59915       0
   59917   59918   59918       0   59920   59921   59921       0   59923   59924
   59924       0   59926   59927   59927       0   59929   59930   59930       0
   59932   59933   59933       0   59935   59936   59936       0   59938   59939
   59939       0   59941   59942   59942       0   59944   59945   59945       0
   59947   59948   59948       0   59950   59951   59951       0   59953   59954
   59954       0   59956   59957   59957       0   59959   59960   59960       0
   59962   59963   59963       0   59965   59966   59966       0   59968   59969
   59969       0   59971   59972   59972       0   59974   59975   59975       0
   59977   59978   59978       0   59980   59981   59981       0   59983   59984
   59984       0   59986   59987   59987       0   59989   59990   59990       0
   59992   59993   59993       0   59995   59996   59996       0   59998   59999
   59999       0   60001   60002   60002       0   60004   60005   60005       0
   60007   60008   60008       0   60010   60011   60011       0   60013   60014
   60014       0   60016   60017   60017       0   60019   60020   60020       0
   60022   60023   60023       0   60025   60026   60026       0   60028   60029
   60029       0   60031   60032   60032       0   60034   60035   60035       0
   60037   60038   60038       0   60040   60041   60041       0   60043   60044
   60044       0   60046   60047   60047       0   60049   60050   60050       0
   60052   60053   60053       0   60055   60056   60056       0   60058   60059
   60059       0   60061   60062   60062       0   60064   60065   60065       0
   60067   60068   60068       0   60070   60071   60071       0   60073   60074
   60074       0   60076   60077   60077       0   60079   60080   60080       0
   60082   60083   60083       0   60085   60086   60086       0   60088   60089
   60089       0   60091   60092   60092       0   60094   60095   60095       0
   60097   60098   60098       0   60100   60101   60101       0   60103   60104
   60104       0   60106   60107   60107       0   60109   60110   60110       0
   60112   60113   60113       0   60115   60116   60116       0   60118   60119
   60119       0   60121   60122   60122       0   60124   60125   60125       0
   60127   60128   60128       0   60130   60131   60131       0   60133   60134
   60134       0   60136   60137   60137       0   60139   60140   60140       0
   60142   60143   60143       0   60145   60146   60146       0   60148   60149
   60149       0   60151   60152   60152       0   60154   60155   60155       0
   60157   60158   60158       0   60160   60161   60161       0   60163   60164
   60164       0   60166   60167   60167       0   60169   60170   60170       0
   60172   60173   60173       0   60175   60176   60176       0   60178   60179
   60179       0   60181   60182   60182       0   60184   60185   60185       0
   60187   60188   60188       0   60190   60191   60191       0   60193   60194
   60194       0   60196   60197   60197       0   60199   60200   60200       0
   60202   60203   60203       0   60205   60206   60206       0   60208   60209
   60209       0   60211   60212   60212       0   60214   60215   60215       0
   60217   60218   60218       0   60220   60221   60221       0   60223   60224
   60224       0   60226   60227   60227       0   60229   60230   60230       0
   60232   60233   60233       0   60235   60236   60236       0   60238   60239
   60239       0   60241   60242   60242       0   60244   60245   60245       0
   60247   60248   60248       0   60250   60251   60251       0   60253   60254
   60254       0   60256   60257   60257       0   60259   60260   60260       0
   60262   60263   60263       0   60265   60266   60266       0   60268   60269
   60269       0   60271   60272   60272       0   60274   60275   60275       0
   60277   60278   60278       0   60280   60281   60281       0   60283   60284
   60284       0   60286   60287   60287       0   60289   60290   60290       0
   60292   60293   60293       0   60295   60296   60296       0   60298   60299
   60299       0   60301   60302   60302       0   60304   60305   60305       0
   60307   60308   60308       0   60310   60311   60311       0   60313   60314
   60314       0   60316   60317   60317       0   60319   60320   60320       0
   60322   60323   60323       0   60325   60326   60326       0   60328   60329
   60329       0   60331   60332   60332       0   60334   60335   60335       0
   60337   60338   60338       0   60340   60341   60341       0   60343   60344
   60344       0   60346   60347   60347       0   60349   60350   60350       0
   60352   60353   60353       0   60355   60356   60356       0   60358   60359
   60359       0   60361   60362   60362       0   60364   60365   60365       0
   60367   60368   60368       0   60370   60371   60371       0   60373   60374
   60374       0   60376   60377   60377       0   60379   60380   60380       0
   60382   60383   60383       0   60385   60386   60386       0   60388   60389
   60389       0   60391   60392   60392       0   60394   60395   60395       0
   60397   60398   60398       0   60400   60401   60401       0   60403   60404
   60404       0   60406   60407   60407       0   60409   60410   60410       0
   60412   60413   60413       0   60415   60416   60416       0   60418   60419
   60419       0   60421   60422   60422       0   60424   60425   60425       0
   60427   60428   60428       0   60430   60431   60431       0   60433   60434
   60434       0   60436   60437   60437       0   60439   60440   60440       0
   60442   60443   60443       0   60445   60446   60446       0   60448   60449
   60449       0   60451   60452   60452       0   60454   60455   60455       0
   60457   60458   60458       0   60460   60461   60461       0   60463   60464
   60464       0   60466   60467   60467       0   60469   60470   60470       0
   60472   60473   60473       0   60475   60476   60476       0   60478   60479
   60479       0   60481   60482   60482       0   60484   60485   60485       0
   60487   60488   60488       0   60490   60491   60491       0   60493   60494
   60494       0   60496   60497   60497       0   60499   60500   60500       0
   60502   60503   60503       0   60505   60506   60506       0   60508   60509
   60509       0   60511   60512   60512       0   60514   60515   60515       0
   60517   60518   60518       0   60520   60521   60521       0   60523   60524
   60524       0   60526   60527   60527       0   60529   60530   60530       0
   60532   60533   60533       0   60535   60536   60536       0   60538   60539
   60539       0   60541   60542   60542       0   60544   60545   60545       0
   60547   60548   60548       0   60550   60551   60551       0   60553   60554
   60554       0   60556   60557   60557       0   60559   60560   60560       0
   60562   60563   60563       0   60565   60566   60566       0   60568   60569
   60569       0   60571   60572   60572       0   60574   60575   60575       0
   60577   60578   60578       0   60580   60581   60581       0   60583   60584
   60584       0   60586   60587   60587       0   60589   60590   60590       0
   60592   60593   60593       0   60595   60596   60596       0   60598   60599
   60599       0   60601   60602   60602       0   60604   60605   60605       0
   60607   60608   60608       0   60610   60611   60611       0   60613   60614
   60614       0   60616   60617   60617       0   60619   60620   60620       0
   60622   60623   60623       0   60625   60626   60626       0   60628   60629
   60629       0   60631   60632   60632       0   60634   60635   60635       0
   60637   60638   60638       0   60640   60641   60641       0   60643   60644
   60644       0   60646   60647   60647       0   60649   60650   60650       0
   60652   60653   60653       0   60655   60656   60656       0   60658   60659
   60659       0   60661   60662   60662       0   60664   60665   60665       0
   60667   60668   60668       0   60670   60671   60671       0   60673   60674
   60674       0   60676   60677   60677       0   60679   60680   60680       0
   60682   60683   60683       0   60685   60686   60686       0   60688   60689
   60689       0   60691   60692   60692       0   60694   60695   60695       0
   60697   60698   60698       0   60700   60701   60701       0   60703   60704
   60704       0   60706   60707   60707       0   60709   60710   60710       0
   60712   60713   60713       0   60715   60716   60716       0   60718   60719
   60719       0   60721   60722   60722       0   60724   60725   60725       0
   60727   60728   60728       0   60730   60731   60731       0   60733   60734
   60734       0   60736   60737   60737       0   60739   60740   60740       0
   60742   60743   60743       0   60745   60746   60746       0   60748   60749
   60749       0   60751   60752   60752       0   60754   60755   60755       0
   60757   60758   60758       0   60760   60761   60761       0   60763   60764
   60764       0   60766   60767   60767       0   60769   60770   60770       0
   60772   60773   60773       0   60775   60776   60776       0   60778   60779
   60779       0   60781   60782   60782       0   60784   60785   60785       0
   60787   60788   60788       0   60790   60791   60791       0   60793   60794
   60794       0   60796   60797   60797       0   60799   60800   60800       0
   60802   60803   60803       0   60805   60806   60806       0   60808   60809
   60809       0   60811   60812   60812       0   60814   60815   60815       0
   60817   60818   60818       0   60820   60821   60821       0   60823   60824
   60824       0   60826   60827   60827       0   60829   60830   60830       0
   60832   60833   60833       0   60835   60836   60836       0   60838   60839
   60839       0   60841   60842   60842       0   60844   60845   60845       0
   60847   60848   60848       0   60850   60851   60851       0   60853   60854
   60854       0   60856   60857   60857       0   60859   60860   60860       0
   60862   60863   60863       0   60865   60866   60866       0   60868   60869
   60869       0   60871   60872   60872       0   60874   60875   60875       0
   60877   60878   60878       0   60880   60881   60881       0   60883   60884
   60884       0   60886   60887   60887       0   60889   60890   60890       0
   60892   60893   60893       0   60895   60896   60896       0   60898   60899
   60899       0   60901   60902   60902       0   60904   60905   60905       0
   60907   60908   60908       0   60910   60911   60911       0   60913   60914
   60914       0   60916   60917   60917       0   60919   60920   60920       0
   60922   60923   60923       0   60925   60926   60926       0   60928   60929
   60929       0   60931   60932   60932       0   60934   60935   60935       0
   60937   60938   60938       0   60940   60941   60941       0   60943   60944
   60944       0   60946   60947   60947       0   60949   60950   60950       0
   60952   60953   60953       0   60955   60956   60956       0   60958   60959
   60959       0   60961   60962   60962       0   60964   60965   60965       0
   60967   60968   60968       0   60970   60971   60971       0   60973   60974
   60974       0   60976   60977   60977       0   60979   60980   60980       0
   60982   60983   60983       0   60985   60986   60986       0   60988   60989
   60989       0   60991   60992   60992       0   60994   60995   60995       0
   60997   60998   60998       0   61000   61001   61001       0   61003   61004
   61004       0   61006   61007   61007       0   61009   61010   61010       0
   61012   61013   61013       0   61015   61016   61016       0   61018   61019
   61019       0   61021   61022   61022       0   61024   61025   61025       0
   61027   61028   61028       0   61030   61031   61031       0   61033   61034
   61034       0   61036   61037   61037       0   61039   61040   61040       0
   61042   61043   61043       0   61045   61046   61046       0   61048   61049
   61049       0   61051   61052   61052       0   61054   61055   61055       0
   61057   61058   61058       0   61060   61061   61061       0   61063   61064
   61064       0   61066   61067   61067       0   61069   61070   61070       0
   61072   61073   61073       0   61075   61076   61076       0   61078   61079
   61079       0   61081   61082   61082       0   61084   61085   61085       0
   61087   61088   61088       0   61090   61091   61091       0   61093   61094
   61094       0   61096   61097   61097       0   61099   61100   61100       0
   61102   61103   61103       0   61105   61106   61106       0   61108   61109
   61109       0   61111   61112   61112       0   61114   61115   61115       0
   61117   61118   61118       0   61120   61121   61121       0   61123   61124
   61124       0   61126   61127   61127       0   61129   61130   61130       0
   61132   61133   61133       0   61135   61136   61136       0   61138   61139
   61139       0   61141   61142   61142       0   61144   61145   61145       0
   61147   61148   61148       0   61150   61151   61151       0   61153   61154
   61154       0   61156   61157   61157       0   61159   61160   61160       0
   61162   61163   61163       0   61165   61166   61166       0   61168   61169
   61169       0   61171   61172   61172       0   61174   61175   61175       0
   61177   61178   61178       0   61180   61181   61181       0   61183   61184
   61184       0   61186   61187   61187       0   61189   61190   61190       0
   61192   61193   61193       0   61195   61196   61196       0   61198   61199
   61199       0   61201   61202   61202       0   61204   61205   61205       0
   61207   61208   61208       0   61210   61211   61211       0   61213   61214
   61214       0   61216   61217   61217       0   61219   61220   61220       0
   61222   61223   61223       0   61225   61226   61226       0   61228   61229
   61229       0   61231   61232   61232       0   61234   61235   61235       0
   61237   61238   61238       0   61240   61241   61241       0   61243   61244
   61244       0   61246   61247   61247       0   61249   61250   61250       0
   61252   61253   61253       0   61255   61256   61256       0   61258   61259
   61259       0   61261   61262   61262       0   61264   61265   61265       0
   61267   61268   61268       0   61270   61271   61271       0   61273   61274
   61274       0   61276   61277   61277       0   61279   61280   61280       0
   61282   61283   61283       0   61285   61286   61286       0   61288   61289
   61289       0   61291   61292   61292       0   61294   61295   61295       0
   61297   61298   61298       0   61300   61301   61301       0   61303   61304
   61304       0   61306   61307   61307       0   61309   61310   61310       0
   61312   61313   61313       0   61315   61316   61316       0   61318   61319
   61319       0   61321   61322   61322       0   61324   61325   61325       0
   61327   61328   61328       0   61330   61331   61331       0   61333   61334
   61334       0   61336   61337   61337       0   61339   61340   61340       0
   61342   61343   61343       0   61345   61346   61346       0   61348   61349
   61349       0   61351   61352   61352       0   61354   61355   61355       0
   61357   61358   61358       0   61360   61361   61361       0   61363   61364
   61364       0   61366   61367   61367       0   61369   61370   61370       0
   61372   61373   61373       0   61375   61376   61376       0   61378   61379
   61379       0   61381   61382   61382       0   61384   61385   61385       0
   61387   61388   61388       0   61390   61391   61391       0   61393   61394
   61394       0   61396   61397   61397       0   61399   61400   61400       0
   61402   61403   61403       0   61405   61406   61406       0   61408   61409
   61409       0   61411   61412   61412       0   61414   61415   61415       0
   61417   61418   61418       0   61420   61421   61421       0   61423   61424
   61424       0   61426   61427   61427       0   61429   61430   61430       0
   61432   61433   61433       0   61435   61436   61436       0   61438   61439
   61439       0   61441   61442   61442       0   61444   61445   61445       0
   61447   61448   61448       0   61450   61451   61451       0   61453   61454
   61454       0   61456   61457   61457       0   61459   61460   61460       0
   61462   61463   61463       0   61465   61466   61466       0   61468   61469
   61469       0   61471   61472   61472       0   61474   61475   61475       0
   61477   61478   61478       0   61480   61481   61481       0   61483   61484
   61484       0   61486   61487   61487       0   61489   61490   61490       0
   61492   61493   61493       0   61495   61496   61496       0   61498   61499
   61499       0   61501   61502   61502       0   61504   61505   61505       0
   61507   61508   61508       0   61510   61511   61511       0   61513   61514
   61514       0   61516   61517   61517       0   61519   61520   61520       0
   61522   61523   61523       0   61525   61526   61526       0   61528   61529
   61529       0   61531   61532   61532       0   61534   61535   61535       0
   61537   61538   61538       0   61540   61541   61541       0   61543   61544
   61544       0   61546   61547   61547       0   61549   61550   61550       0
   61552   61553   61553       0   61555   61556   61556       0   61558   61559
   61559       0   61561   61562   61562       0   61564   61565   61565       0
   61567   61568   61568       0   61570   61571   61571       0   61573   61574
   61574       0   61576   61577   61577       0   61579   61580   61580       0
   61582   61583   61583       0   61585   61586   61586       0   61588   61589
   61589       0   61591   61592   61592       0   61594   61595   61595       0
   61597   61598   61598       0   61600   61601   61601       0   61603   61604
   61604       0   61606   61607   61607       0   61609   61610   61610       0
   61612   61613   61613       0   61615   61616   61616       0   61618   61619
   61619       0   61621   61622   61622       0   61624   61625   61625       0
   61627   61628   61628       0   61630   61631   61631       0   61633   61634
   61634       0   61636   61637   61637       0   61639   61640   61640       0
   61642   61643   61643       0   61645   61646   61646       0   61648   61649
   61649       0   61651   61652   61652       0   61654   61655   61655       0
   61657   61658   61658       0   61660   61661   61661       0   61663   61664
   61664       0   61666   61667   61667       0   61669   61670   61670       0
   61672   61673   61673       0   61675   61676   61676       0   61678   61679
   61679       0   61681   61682   61682       0   61684   61685   61685       0
   61687   61688   61688       0   61690   61691   61691       0   61693   61694
   61694       0   61696   61697   61697       0   61699   61700   61700       0
   61702   61703   61703       0   61705   61706   61706       0   61708   61709
   61709       0   61711   61712   61712       0   61714   61715   61715       0
   61717   61718   61718       0   61720   61721   61721       0   61723   61724
   61724       0   61726   61727   61727       0   61729   61730   61730       0
   61732   61733   61733       0   61735   61736   61736       0   61738   61739
   61739       0   61741   61742   61742       0   61744   61745   61745       0
   61747   61748   61748       0   61750   61751   61751       0   61753   61754
   61754       0   61756   61757   61757       0   61759   61760   61760       0
   61762   61763   61763       0   61765   61766   61766       0   61768   61769
   61769       0   61771   61772   61772       0   61774   61775   61775       0
   61777   61778   61778       0   61780   61781   61781       0   61783   61784
   61784       0   61786   61787   61787       0   61789   61790   61790       0
   61792   61793   61793       0   61795   61796   61796       0   61798   61799
   61799       0   61801   61802   61802       0   61804   61805   61805       0
   61807   61808   61808       0   61810   61811   61811       0   61813   61814
   61814       0   61816   61817   61817       0   61819   61820   61820       0
   61822   61823   61823       0   61825   61826   61826       0   61828   61829
   61829       0   61831   61832   61832       0   61834   61835   61835       0
   61837   61838   61838       0   61840   61841   61841       0   61843   61844
   61844       0   61846   61847   61847       0   61849   61850   61850       0
   61852   61853   61853       0   61855   61856   61856       0   61858   61859
   61859       0   61861   61862   61862       0   61864   61865   61865       0
   61867   61868   61868       0   61870   61871   61871       0   61873   61874
   61874       0   61876   61877   61877       0   61879   61880   61880       0
   61882   61883   61883       0   61885   61886   61886       0   61888   61889
   61889       0   61891   61892   61892       0   61894   61895   61895       0
   61897   61898   61898       0   61900   61901   61901       0   61903   61904
   61904       0   61906   61907   61907       0   61909   61910   61910       0
   61912   61913   61913       0   61915   61916   61916       0   61918   61919
   61919       0   61921   61922   61922       0   61924   61925   61925       0
   61927   61928   61928       0   61930   61931   61931       0   61933   61934
   61934       0   61936   61937   61937       0   61939   61940   61940       0
   61942   61943   61943       0   61945   61946   61946       0   61948   61949
   61949       0   61951   61952   61952       0   61954   61955   61955       0
   61957   61958   61958       0   61960   61961   61961       0   61963   61964
   61964       0   61966   61967   61967       0   61969   61970   61970       0
   61972   61973   61973       0   61975   61976   61976       0   61978   61979
   61979       0   61981   61982   61982       0   61984   61985   61985       0
   61987   61988   61988       0   61990   61991   61991       0   61993   61994
   61994       0   61996   61997   61997       0   61999   62000   62000       0
   62002   62003   62003       0   62005   62006   62006       0   62008   62009
   62009       0   62011   62012   62012       0   62014   62015   62015       0
   62017   62018   62018       0   62020   62021   62021       0   62023   62024
   62024       0   62026   62027   62027       0   62029   62030   62030       0
   62032   62033   62033       0   62035   62036   62036       0   62038   62039
   62039       0   62041   62042   62042       0   62044   62045   62045       0
   62047   62048   62048       0   62050   62051   62051       0   62053   62054
   62054       0   62056   62057   62057       0   62059   62060   62060       0
   62062   62063   62063       0   62065   62066   62066       0   62068   62069
   62069       0   62071   62072   62072       0   62074   62075   62075       0
   62077   62078   62078       0   62080   62081   62081       0   62083   62084
   62084       0   62086   62087   62087       0   62089   62090   62090       0
   62092   62093   62093       0   62095   62096   62096       0   62098   62099
   62099       0   62101   62102   62102       0   62104   62105   62105       0
   62107   62108   62108       0   62110   62111   62111       0   62113   62114
   62114       0   62116   62117   62117       0   62119   62120   62120       0
   62122   62123   62123       0   62125   62126   62126       0   62128   62129
   62129       0   62131   62132   62132       0   62134   62135   62135       0
   62137   62138   62138       0   62140   62141   62141       0   62143   62144
   62144       0   62146   62147   62147       0   62149   62150   62150       0
   62152   62153   62153       0   62155   62156   62156       0   62158   62159
   62159       0   62161   62162   62162       0   62164   62165   62165       0
   62167   62168   62168       0   62170   62171   62171       0   62173   62174
   62174       0   62176   62177   62177       0   62179   62180   62180       0
   62182   62183   62183       0   62185   62186   62186       0   62188   62189
   62189       0   62191   62192   62192       0   62194   62195   62195       0
   62197   62198   62198       0   62200   62201   62201       0   62203   62204
   62204       0   62206   62207   62207       0   62209   62210   62210       0
   62212   62213   62213       0   62215   62216   62216       0   62218   62219
   62219       0   62221   62222   62222       0   62224   62225   62225       0
   62227   62228   62228       0   62230   62231   62231       0   62233   62234
   62234       0   62236   62237   62237       0   62239   62240   62240       0
   62242   62243   62243       0   62245   62246   62246       0   62248   62249
   62249       0   62251   62252   62252       0   62254   62255   62255       0
   62257   62258   62258       0   62260   62261   62261       0   62263   62264
   62264       0   62266   62267   62267       0   62269   62270   62270       0
   62272   62273   62273       0   62275   62276   62276       0   62278   62279
   62279       0   62281   62282   62282       0   62284   62285   62285       0
   62287   62288   62288       0   62290   62291   62291       0   62293   62294
   62294       0   62296   62297   62297       0   62299   62300   62300       0
   62302   62303   62303       0   62305   62306   62306       0   62308   62309
   62309       0   62311   62312   62312       0   62314   62315   62315       0
   62317   62318   62318       0   62320   62321   62321       0   62323   62324
   62324       0   62326   62327   62327       0   62329   62330   62330       0
   62332   62333   62333       0   62335   62336   62336       0   62338   62339
   62339       0   62341   62342   62342       0   62344   62345   62345       0
   62347   62348   62348       0   62350   62351   62351       0   62353   62354
   62354       0   62356   62357   62357       0   62359   62360   62360       0
   62362   62363   62363       0   62365   62366   62366       0   62368   62369
   62369       0   62371   62372   62372       0   62374   62375   62375       0
   62377   62378   62378       0   62380   62381   62381       0   62383   62384
   62384       0   62386   62387   62387       0   62389   62390   62390       0
   62392   62393   62393       0   62395   62396   62396       0   62398   62399
   62399       0   62401   62402   62402       0   62404   62405   62405       0
   62407   62408   62408       0   62410   62411   62411       0   62413   62414
   62414       0   62416   62417   62417       0   62419   62420   62420       0
   62422   62423   62423       0   62425   62426   62426       0   62428   62429
   62429       0   62431   62432   62432       0   62434   62435   62435       0
   62437   62438   62438       0   62440   62441   62441       0   62443   62444
   62444       0   62446   62447   62447       0   62449   62450   62450       0
   62452   62453   62453       0   62455   62456   62456       0   62458   62459
   62459       0   62461   62462   62462       0   62464   62465   62465       0
   62467   62468   62468       0   62470   62471   62471       0   62473   62474
   62474       0   62476   62477   62477       0   62479   62480   62480       0
   62482   62483   62483       0   62485   62486   62486       0   62488   62489
   62489       0   62491   62492   62492       0   62494   62495   62495       0
   62497   62498   62498       0   62500   62501   62501       0   62503   62504
   62504       0   62506   62507   62507       0   62509   62510   62510       0
   62512   62513   62513       0   62515   62516   62516       0   62518   62519
   62519       0   62521   62522   62522       0   62524   62525   62525       0
   62527   62528   62528       0   62530   62531   62531       0   62533   62534
   62534       0   62536   62537   62537       0   62539   62540   62540       0
   62542   62543   62543       0   62545   62546   62546       0   62548   62549
   62549       0   62551   62552   62552       0   62554   62555   62555       0
   62557   62558   62558       0   62560   62561   62561       0   62563   62564
   62564       0   62566   62567   62567       0   62569   62570   62570       0
   62572   62573   62573       0   62575   62576   62576       0   62578   62579
   62579       0   62581   62582   62582       0   62584   62585   62585       0
   62587   62588   62588       0   62590   62591   62591       0   62593   62594
   62594       0   62596   62597   62597       0   62599   62600   62600       0
   62602   62603   62603       0   62605   62606   62606       0   62608   62609
   62609       0   62611   62612   62612       0   62614   62615   62615       0
   62617   62618   62618       0   62620   62621   62621       0   62623   62624
   62624       0   62626   62627   62627       0   62629   62630   62630       0
   62632   62633   62633       0   62635   62636   62636       0   62638   62639
   62639       0   62641   62642   62642       0   62644   62645   62645       0
   62647   62648   62648       0   62650   62651   62651       0   62653   62654
   62654       0   62656   62657   62657       0   62659   62660   62660       0
   62662   62663   62663       0   62665   62666   62666       0   62668   62669
   62669       0   62671   62672   62672       0   62674   62675   62675       0
   62677   62678   62678       0   62680   62681   62681       0   62683   62684
   62684       0   62686   62687   62687       0   62689   62690   62690       0
   62692   62693   62693       0   62695   62696   62696       0   62698   62699
   62699       0   62701   62702   62702       0   62704   62705   62705       0
   62707   62708   62708       0   62710   62711   62711       0   62713   62714
   62714       0   62716   62717   62717       0   62719   62720   62720       0
   62722   62723   62723       0   62725   62726   62726       0   62728   62729
   62729       0   62731   62732   62732       0   62734   62735   62735       0
   62737   62738   62738       0   62740   62741   62741       0   62743   62744
   62744       0   62746   62747   62747       0   62749   62750   62750       0
   62752   62753   62753       0   62755   62756   62756       0   62758   62759
   62759       0   62761   62762   62762       0   62764   62765   62765       0
   62767   62768   62768       0   62770   62771   62771       0   62773   62774
   62774       0   62776   62777   62777       0   62779   62780   62780       0
   62782   62783   62783       0   62785   62786   62786       0   62788   62789
   62789       0   62791   62792   62792       0   62794   62795   62795       0
   62797   62798   62798       0   62800   62801   62801       0   62803   62804
   62804       0   62806   62807   62807       0   62809   62810   62810       0
   62812   62813   62813       0   62815   62816   62816       0   62818   62819
   62819       0   62821   62822   62822       0   62824   62825   62825       0
   62827   62828   62828       0   62830   62831   62831       0   62833   62834
   62834       0   62836   62837   62837       0   62839   62840   62840       0
   62842   62843   62843       0   62845   62846   62846       0   62848   62849
   62849       0   62851   62852   62852       0   62854   62855   62855       0
   62857   62858   62858       0   62860   62861   62861       0   62863   62864
   62864       0   62866   62867   62867       0   62869   62870   62870       0
   62872   62873   62873       0   62875   62876   62876       0   62878   62879
   62879       0   62881   62882   62882       0   62884   62885   62885       0
   62887   62888   62888       0   62890   62891   62891       0   62893   62894
   62894       0   62896   62897   62897       0   62899   62900   62900       0
   62902   62903   62903       0   62905   62906   62906       0   62908   62909
   62909       0   62911   62912   62912       0   62914   62915   62915       0
   62917   62918   62918       0   62920   62921   62921       0   62923   62924
   62924       0   62926   62927   62927       0   62929   62930   62930       0
   62932   62933   62933       0   62935   62936   62936       0   62938   62939
   62939       0   62941   62942   62942       0   62944   62945   62945       0
   62947   62948   62948       0   62950   62951   62951       0   62953   62954
   62954       0   62956   62957   62957       0   62959   62960   62960       0
   62962   62963   62963       0   62965   62966   62966       0   62968   62969
   62969       0   62971   62972   62972       0   62974   62975   62975       0
   62977   62978   62978       0   62980   62981   62981       0   62983   62984
   62984       0   62986   62987   62987       0   62989   62990   62990       0
   62992   62993   62993       0   62995   62996   62996       0   62998   62999
   62999       0   63001   63002   63002       0   63004   63005   63005       0
   63007   63008   63008       0   63010   63011   63011       0   63013   63014
   63014       0   63016   63017   63017       0   63019   63020   63020       0
   63022   63023   63023       0   63025   63026   63026       0   63028   63029
   63029       0   63031   63032   63032       0   63034   63035   63035       0
   63037   63038   63038       0   63040   63041   63041       0   63043   63044
   63044       0   63046   63047   63047       0   63049   63050   63050       0
   63052   63053   63053       0   63055   63056   63056       0   63058   63059
   63059       0   63061   63062   63062       0   63064   63065   63065       0
   63067   63068   63068       0   63070   63071   63071       0   63073   63074
   63074       0   63076   63077   63077       0   63079   63080   63080       0
   63082   63083   63083       0   63085   63086   63086       0   63088   63089
   63089       0   63091   63092   63092       0   63094   63095   63095       0
   63097   63098   63098       0   63100   63101   63101       0   63103   63104
   63104       0   63106   63107   63107       0   63109   63110   63110       0
   63112   63113   63113       0   63115   63116   63116       0   63118   63119
   63119       0   63121   63122   63122       0   63124   63125   63125       0
   63127   63128   63128       0   63130   63131   63131       0   63133   63134
   63134       0   63136   63137   63137       0   63139   63140   63140       0
   63142   63143   63143       0   63145   63146   63146       0   63148   63149
   63149       0   63151   63152   63152       0   63154   63155   63155       0
   63157   63158   63158       0   63160   63161   63161       0   63163   63164
   63164       0   63166   63167   63167       0   63169   63170   63170       0
   63172   63173   63173       0   63175   63176   63176       0   63178   63179
   63179       0   63181   63182   63182       0   63184   63185   63185       0
   63187   63188   63188       0   63190   63191   63191       0   63193   63194
   63194       0   63196   63197   63197       0   63199   63200   63200       0
   63202   63203   63203       0   63205   63206   63206       0   63208   63209
   63209       0   63211   63212   63212       0   63214   63215   63215       0
   63217   63218   63218       0   63220   63221   63221       0   63223   63224
   63224       0   63226   63227   63227       0   63229   63230   63230       0
   63232   63233   63233       0   63235   63236   63236       0   63238   63239
   63239       0   63241   63242   63242       0   63244   63245   63245       0
   63247   63248   63248       0   63250   63251   63251       0   63253   63254
   63254       0   63256   63257   63257       0   63259   63260   63260       0
   63262   63263   63263       0   63265   63266   63266       0   63268   63269
   63269       0   63271   63272   63272       0   63274   63275   63275       0
   63277   63278   63278       0   63280   63281   63281       0   63283   63284
   63284       0   63286   63287   63287       0   63289   63290   63290       0
   63292   63293   63293       0   63295   63296   63296       0   63298   63299
   63299       0   63301   63302   63302       0   63304   63305   63305       0
   63307   63308   63308       0   63310   63311   63311       0   63313   63314
   63314       0   63316   63317   63317       0   63319   63320   63320       0
   63322   63323   63323       0   63325   63326   63326       0   63328   63329
   63329       0   63331   63332   63332       0   63334   63335   63335       0
   63337   63338   63338       0   63340   63341   63341       0   63343   63344
   63344       0   63346   63347   63347       0   63349   63350   63350       0
   63352   63353   63353       0   63355   63356   63356       0   63358   63359
   63359       0   63361   63362   63362       0   63364   63365   63365       0
   63367   63368   63368       0   63370   63371   63371       0   63373   63374
   63374       0   63376   63377   63377       0   63379   63380   63380       0
   63382   63383   63383       0   63385   63386   63386       0   63388   63389
   63389       0   63391   63392   63392       0   63394   63395   63395       0
   63397   63398   63398       0   63400   63401   63401       0   63403   63404
   63404       0   63406   63407   63407       0   63409   63410   63410       0
   63412   63413   63413       0   63415   63416   63416       0   63418   63419
   63419       0   63421   63422   63422       0   63424   63425   63425       0
   63427   63428   63428       0   63430   63431   63431       0   63433   63434
   63434       0   63436   63437   63437       0   63439   63440   63440       0
   63442   63443   63443       0   63445   63446   63446       0   63448   63449
   63449       0   63451   63452   63452       0   63454   63455   63455       0
   63457   63458   63458       0   63460   63461   63461       0   63463   63464
   63464       0   63466   63467   63467       0   63469   63470   63470       0
   63472   63473   63473       0   63475   63476   63476       0   63478   63479
   63479       0   63481   63482   63482       0   63484   63485   63485       0
   63487   63488   63488       0   63490   63491   63491       0   63493   63494
   63494       0   63496   63497   63497       0   63499   63500   63500       0
   63502   63503   63503       0   63505   63506   63506       0   63508   63509
   63509       0   63511   63512   63512       0   63514   63515   63515       0
   63517   63518   63518       0   63520   63521   63521       0   63523   63524
   63524       0   63526   63527   63527       0   63529   63530   63530       0
   63532   63533   63533       0   63535   63536   63536       0   63538   63539
   63539       0   63541   63542   63542       0   63544   63545   63545       0
   63547   63548   63548       0   63550   63551   63551       0   63553   63554
   63554       0   63556   63557   63557       0   63559   63560   63560       0
   63562   63563   63563       0   63565   63566   63566       0   63568   63569
   63569       0   63571   63572   63572       0   63574   63575   63575       0
   63577   63578   63578       0   63580   63581   63581       0   63583   63584
   63584       0   63586   63587   63587       0   63589   63590   63590       0
   63592   63593   63593       0   63595   63596   63596       0   63598   63599
   63599       0   63601   63602   63602       0   63604   63605   63605       0
   63607   63608   63608       0   63610   63611   63611       0   63613   63614
   63614       0   63616   63617   63617       0   63619   63620   63620       0
   63622   63623   63623       0   63625   63626   63626       0   63628   63629
   63629       0   63631   63632   63632       0   63634   63635   63635       0
   63637   63638   63638       0   63640   63641   63641       0   63643   63644
   63644       0   63646   63647   63647       0   63649   63650   63650       0
   63652   63653   63653       0   63655   63656   63656       0   63658   63659
   63659       0   63661   63662   63662       0   63664   63665   63665       0
   63667   63668   63668       0   63670   63671   63671       0   63673   63674
   63674       0   63676   63677   63677       0   63679   63680   63680       0
   63682   63683   63683       0   63685   63686   63686       0   63688   63689
   63689       0   63691   63692   63692       0   63694   63695   63695       0
   63697   63698   63698       0   63700   63701   63701       0   63703   63704
   63704       0   63706   63707   63707       0   63709   63710   63710       0
   63712   63713   63713       0   63715   63716   63716       0   63718   63719
   63719       0   63721   63722   63722       0   63724   63725   63725       0
   63727   63728   63728       0   63730   63731   63731       0   63733   63734
   63734       0   63736   63737   63737       0   63739   63740   63740       0
   63742   63743   63743       0   63745   63746   63746       0   63748   63749
   63749       0   63751   63752   63752       0   63754   63755   63755       0
   63757   63758   63758       0   63760   63761   63761       0   63763   63764
   63764       0   63766   63767   63767       0   63769   63770   63770       0
   63772   63773   63773       0   63775   63776   63776       0   63778   63779
   63779       0   63781   63782   63782       0   63784   63785   63785       0
   63787   63788   63788       0   63790   63791   63791       0   63793   63794
   63794       0   63796   63797   63797       0   63799   63800   63800       0
   63802   63803   63803       0   63805   63806   63806       0   63808   63809
   63809       0   63811   63812   63812       0   63814   63815   63815       0
   63817   63818   63818       0   63820   63821   63821       0   63823   63824
   63824       0   63826   63827   63827       0   63829   63830   63830       0
   63832   63833   63833       0   63835   63836   63836       0   63838   63839
   63839       0   63841   63842   63842       0   63844   63845   63845       0
   63847   63848   63848       0   63850   63851   63851       0   63853   63854
   63854       0   63856   63857   63857       0   63859   63860   63860       0
   63862   63863   63863       0   63865   63866   63866       0   63868   63869
   63869       0   63871   63872   63872       0   63874   63875   63875       0
   63877   63878   63878       0   63880   63881   63881       0   63883   63884
   63884       0   63886   63887   63887       0   63889   63890   63890       0
   63892   63893   63893       0   63895   63896   63896       0   63898   63899
   63899       0   63901   63902   63902       0   63904   63905   63905       0
   63907   63908   63908       0   63910   63911   63911       0   63913   63914
   63914       0   63916   63917   63917       0   63919   63920   63920       0
   63922   63923   63923       0   63925   63926   63926       0   63928   63929
   63929       0   63931   63932   63932       0   63934   63935   63935       0
   63937   63938   63938       0   63940   63941   63941       0   63943   63944
   63944       0   63946   63947   63947       0   63949   63950   63950       0
   63952   63953   63953       0   63955   63956   63956       0   63958   63959
   63959       0   63961   63962   63962       0   63964   63965   63965       0
   63967   63968   63968       0   63970   63971   63971       0   63973   63974
   63974       0   63976   63977   63977       0   63979   63980   63980       0
   63982   63983   63983       0   63985   63986   63986       0   63988   63989
   63989       0   63991   63992   63992       0   63994   63995   63995       0
   63997   63998   63998       0   64000   64001   64001       0   64003   64004
   64004       0   64006   64007   64007       0   64009   64010   64010       0
   64012   64013   64013       0   64015   64016   64016       0   64018   64019
   64019       0   64021   64022   64022       0   64024   64025   64025       0
   64027   64028   64028       0   64030   64031   64031       0   64033   64034
   64034       0   64036   64037   64037       0   64039   64040   64040       0
   64042   64043   64043       0   64045   64046   64046       0   64048   64049
   64049       0   64051   64052   64052       0   64054   64055   64055       0
   64057   64058   64058       0   64060   64061   64061       0   64063   64064
   64064       0   64066   64067   64067       0   64069   64070   64070       0
   64072   64073   64073       0   64075   64076   64076       0   64078   64079
   64079       0   64081   64082   64082       0   64084   64085   64085       0
   64087   64088   64088       0   64090   64091   64091       0   64093   64094
   64094       0   64096   64097   64097       0   64099   64100   64100       0
   64102   64103   64103       0   64105   64106   64106       0   64108   64109
   64109       0   64111   64112   64112       0   64114   64115   64115       0
   64117   64118   64118       0   64120   64121   64121       0   64123   64124
   64124       0   64126   64127   64127       0   64129   64130   64130       0
   64132   64133   64133       0   64135   64136   64136       0   64138   64139
   64139       0   64141   64142   64142       0   64144   64145   64145       0
   64147   64148   64148       0   64150   64151   64151       0   64153   64154
   64154       0   64156   64157   64157       0   64159   64160   64160       0
   64162   64163   64163       0   64165   64166   64166       0   64168   64169
   64169       0   64171   64172   64172       0   64174   64175   64175       0
   64177   64178   64178       0   64180   64181   64181       0   64183   64184
   64184       0   64186   64187   64187       0   64189   64190   64190       0
   64192   64193   64193       0   64195   64196   64196       0   64198   64199
   64199       0   64201   64202   64202       0   64204   64205   64205       0
   64207   64208   64208       0   64210   64211   64211       0   64213   64214
   64214       0   64216   64217   64217       0   64219   64220   64220       0
   64222   64223   64223       0   64225   64226   64226       0   64228   64229
   64229       0   64231   64232   64232       0   64234   64235   64235       0
   64237   64238   64238       0   64240   64241   64241       0   64243   64244
   64244       0   64246   64247   64247       0   64249   64250   64250       0
   64252   64253   64253       0   64255   64256   64256       0   64258   64259
   64259       0   64261   64262   64262       0   64264   64265   64265       0
   64267   64268   64268       0   64270   64271   64271       0   64273   64274
   64274       0   64276   64277   64277       0   64279   64280   64280       0
   64282   64283   64283       0   64285   64286   64286       0   64288   64289
   64289       0   64291   64292   64292       0   64294   64295   64295       0
   64297   64298   64298       0   64300   64301   64301       0   64303   64304
   64304       0   64306   64307   64307       0   64309   64310   64310       0
   64312   64313   64313       0   64315   64316   64316       0   64318   64319
   64319       0   64321   64322   64322       0   64324   64325   64325       0
   64327   64328   64328       0   64330   64331   64331       0   64333   64334
   64334       0   64336   64337   64337       0   64339   64340   64340       0
   64342   64343   64343       0   64345   64346   64346       0   64348   64349
   64349       0   64351   64352   64352       0   64354   64355   64355       0
   64357   64358   64358       0   64360   64361   64361       0   64363   64364
   64364       0   64366   64367   64367       0   64369   64370   64370       0
   64372   64373   64373       0   64375   64376   64376       0   64378   64379
   64379       0   64381   64382   64382       0   64384   64385   64385       0
   64387   64388   64388       0   64390   64391   64391       0   64393   64394
   64394       0   64396   64397   64397       0   64399   64400   64400       0
   64402   64403   64403       0   64405   64406   64406       0   64408   64409
   64409       0   64411   64412   64412       0   64414   64415   64415       0
   64417   64418   64418       0   64420   64421   64421       0   64423   64424
   64424       0   64426   64427   64427       0   64429   64430   64430       0
   64432   64433   64433       0   64435   64436   64436       0   64438   64439
   64439       0   64441   64442   64442       0   64444   64445   64445       0
   64447   64448   64448       0   64450   64451   64451       0   64453   64454
   64454       0   64456   64457   64457       0   64459   64460   64460       0
   64462   64463   64463       0   64465   64466   64466       0   64468   64469
   64469       0   64471   64472   64472       0   64474   64475   64475       0
   64477   64478   64478       0   64480   64481   64481       0   64483   64484
   64484       0   64486   64487   64487       0   64489   64490   64490       0
   64492   64493   64493       0   64495   64496   64496       0   64498   64499
   64499       0   64501   64502   64502       0   64504   64505   64505       0
   64507   64508   64508       0   64510   64511   64511       0   64513   64514
   64514       0   64516   64517   64517       0   64519   64520   64520       0
   64522   64523   64523       0   64525   64526   64526       0   64528   64529
   64529       0   64531   64532   64532       0   64534   64535   64535       0
   64537   64538   64538       0   64540   64541   64541       0   64543   64544
   64544       0   64546   64547   64547       0   64549   64550   64550       0
   64552   64553   64553       0   64555   64556   64556       0   64558   64559
   64559       0   64561   64562   64562       0   64564   64565   64565       0
   64567   64568   64568       0   64570   64571   64571       0   64573   64574
   64574       0   64576   64577   64577       0   64579   64580   64580       0
   64582   64583   64583       0   64585   64586   64586       0   64588   64589
   64589       0   64591   64592   64592       0   64594   64595   64595       0
   64597   64598   64598       0   64600   64601   64601       0   64603   64604
   64604       0   64606   64607   64607       0   64609   64610   64610       0
   64612   64613   64613       0   64615   64616   64616       0   64618   64619
   64619       0   64621   64622   64622       0   64624   64625   64625       0
   64627   64628   64628       0   64630   64631   64631       0   64633   64634
   64634       0   64636   64637   64637       0   64639   64640   64640       0
   64642   64643   64643       0   64645   64646   64646       0   64648   64649
   64649       0   64651   64652   64652       0   64654   64655   64655       0
   64657   64658   64658       0   64660   64661   64661       0   64663   64664
   64664       0   64666   64667   64667       0   64669   64670   64670       0
   64672   64673   64673       0   64675   64676   64676       0   64678   64679
   64679       0   64681   64682   64682       0   64684   64685   64685       0
   64687   64688   64688       0   64690   64691   64691       0   64693   64694
   64694       0   64696   64697   64697       0   64699   64700   64700       0
   64702   64703   64703       0   64705   64706   64706       0   64708   64709
   64709       0   64711   64712   64712       0   64714   64715   64715       0
   64717   64718   64718       0   64720   64721   64721       0   64723   64724
   64724       0   64726   64727   64727       0   64729   64730   64730       0
   64732   64733   64733       0   64735   64736   64736       0   64738   64739
   64739       0   64741   64742   64742       0   64744   64745   64745       0
   64747   64748   64748       0   64750   64751   64751       0   64753   64754
   64754       0   64756   64757   64757       0   64759   64760   64760       0
   64762   64763   64763       0   64765   64766   64766       0   64768   64769
   64769       0   64771   64772   64772       0   64774   64775   64775       0
   64777   64778   64778       0   64780   64781   64781       0   64783   64784
   64784       0   64786   64787   64787       0   64789   64790   64790       0
   64792   64793   64793       0   64795   64796   64796       0   64798   64799
   64799       0   64801   64802   64802       0   64804   64805   64805       0
   64807   64808   64808       0   64810   64811   64811       0   64813   64814
   64814       0   64816   64817   64817       0   64819   64820   64820       0
   64822   64823   64823       0   64825   64826   64826       0   64828   64829
   64829       0   64831   64832   64832       0   64834   64835   64835       0
   64837   64838   64838       0   64840   64841   64841       0   64843   64844
   64844       0   64846   64847   64847       0   64849   64850   64850       0
   64852   64853   64853       0   64855   64856   64856       0   64858   64859
   64859       0   64861   64862   64862       0   64864   64865   64865       0
   64867   64868   64868       0   64870   64871   64871       0   64873   64874
   64874       0   64876   64877   64877       0   64879   64880   64880       0
   64882   64883   64883       0   64885   64886   64886       0   64888   64889
   64889       0   64891   64892   64892       0   64894   64895   64895       0
   64897   64898   64898       0   64900   64901   64901       0   64903   64904
   64904       0   64906   64907   64907       0   64909   64910   64910       0
   64912   64913   64913       0   64915   64916   64916       0   64918   64919
   64919       0   64921   64922   64922       0   64924   64925   64925       0
   64927   64928   64928       0   64930   64931   64931       0   64933   64934
   64934       0   64936   64937   64937       0   64939   64940   64940       0
   64942   64943   64943       0   64945   64946   64946       0   64948   64949
   64949       0   64951   64952   64952       0   64954   64955   64955       0
   64957   64958   64958       0   64960   64961   64961       0   64963   64964
   64964       0   64966   64967   64967       0   64969   64970   64970       0
   64972   64973   64973       0   64975   64976   64976       0   64978   64979
   64979       0   64981   64982   64982       0   64984   64985   64985       0
   64987   64988   64988       0   64990   64991   64991       0   64993   64994
   64994       0   64996   64997   64997       0   64999   65000   65000       0
   65002   65003   65003       0   65005   65006   65006       0   65008   65009
   65009       0   65011   65012   65012       0   65014   65015   65015       0
   65017   65018   65018       0   65020   65021   65021       0   65023   65024
   65024       0   65026   65027   65027       0   65029   65030   65030       0
   65032   65033   65033       0   65035   65036   65036       0   65038   65039
   65039       0   65041   65042   65042       0   65044   65045   65045       0
   65047   65048   65048       0   65050   65051   65051       0   65053   65054
   65054       0   65056   65057   65057       0   65059   65060   65060       0
   65062   65063   65063       0   65065   65066   65066       0   65068   65069
   65069       0   65071   65072   65072       0   65074   65075   65075       0
   65077   65078   65078       0   65080   65081   65081       0   65083   65084
   65084       0   65086   65087   65087       0   65089   65090   65090       0
   65092   65093   65093       0   65095   65096   65096       0   65098   65099
   65099       0   65101   65102   65102       0   65104   65105   65105       0
   65107   65108   65108       0   65110   65111   65111       0   65113   65114
   65114       0   65116   65117   65117       0   65119   65120   65120       0
   65122   65123   65123       0   65125   65126   65126       0   65128   65129
   65129       0   65131   65132   65132       0   65134   65135   65135       0
   65137   65138   65138       0   65140   65141   65141       0   65143   65144
   65144       0   65146   65147   65147       0   65149   65150   65150       0
   65152   65153   65153       0   65155   65156   65156       0   65158   65159
   65159       0   65161   65162   65162       0   65164   65165   65165       0
   65167   65168   65168       0   65170   65171   65171       0   65173   65174
   65174       0   65176   65177   65177       0   65179   65180   65180       0
   65182   65183   65183       0   65185   65186   65186       0   65188   65189
   65189       0   65191   65192   65192       0   65194   65195   65195       0
   65197   65198   65198       0   65200   65201   65201       0   65203   65204
   65204       0   65206   65207   65207       0   65209   65210   65210       0
   65212   65213   65213       0   65215   65216   65216       0   65218   65219
   65219       0   65221   65222   65222       0   65224   65225   65225       0
   65227   65228   65228       0   65230   65231   65231       0   65233   65234
   65234       0   65236   65237   65237       0   65239   65240   65240       0
   65242   65243   65243       0   65245   65246   65246       0   65248   65249
   65249       0   65251   65252   65252       0   65254   65255   65255       0
   65257   65258   65258       0   65260   65261   65261       0   65263   65264
   65264       0   65266   65267   65267       0   65269   65270   65270       0
   65272   65273   65273       0   65275   65276   65276       0   65278   65279
   65279       0   65281   65282   65282       0   65284   65285   65285       0
   65287   65288   65288       0   65290   65291   65291       0   65293   65294
   65294       0   65296   65297   65297       0   65299   65300   65300       0
   65302   65303   65303       0   65305   65306   65306       0   65308   65309
   65309       0   65311   65312   65312       0   65314   65315   65315       0
   65317   65318   65318       0   65320   65321   65321       0   65323   65324
   65324       0   65326   65327   65327       0   65329   65330   65330       0
   65332   65333   65333       0   65335   65336   65336       0   65338   65339
   65339       0   65341   65342   65342       0   65344   65345   65345       0
   65347   65348   65348       0   65350   65351   65351       0   65353   65354
   65354       0   65356   65357   65357       0   65359   65360   65360       0
   65362   65363   65363       0   65365   65366   65366       0   65368   65369
   65369       0   65371   65372   65372       0   65374   65375   65375       0
   65377   65378   65378       0   65380   65381   65381       0   65383   65384
   65384       0   65386   65387   65387       0   65389   65390   65390       0
   65392   65393   65393       0   65395   65396   65396       0   65398   65399
   65399       0   65401   65402   65402       0   65404   65405   65405       0
   65407   65408   65408       0   65410   65411   65411       0   65413   65414
   65414       0   65416   65417   65417       0   65419   65420   65420       0
   65422   65423   65423       0   65425   65426   65426       0   65428   65429
   65429       0   65431   65432   65432       0   65434   65435   65435       0
   65437   65438   65438       0   65440   65441   65441       0   65443   65444
   65444       0   65446   65447   65447       0   65449   65450   65450       0
   65452   65453   65453       0   65455   65456   65456       0   65458   65459
   65459       0   65461   65462   65462       0   65464   65465   65465       0
   65467   65468   65468       0   65470   65471   65471       0   65473   65474
   65474       0   65476   65477   65477       0   65479   65480   65480       0
   65482   65483   65483       0   65485   65486   65486       0   65488   65489
   65489       0   65491   65492   65492       0   65494   65495   65495       0
   65497   65498   65498       0   65500   65501   65501       0   65503   65504
   65504       0   65506   65507   65507       0   65509   65510   65510       0
   65512   65513   65513       0   65515   65516   65516       0   65518   65519
   65519       0   65521   65522   65522       0   65524   65525   65525       0
   65527   65528   65528       0   65530   65531   65531       0   65533   65534
   65534       0   65536   65537   65537       0   65539   65540   65540       0
   65542   65543   65543       0   65545   65546   65546       0   65548   65549
   65549       0   65551   65552   65552       0   65554   65555   65555       0
   65557   65558   65558       0   65560   65561   65561       0   65563   65564
   65564       0   65566   65567   65567       0   65569   65570   65570       0
   65572   65573   65573       0   65575   65576   65576       0   65578   65579
   65579       0   65581   65582   65582       0   65584   65585   65585       0
   65587   65588   65588       0   65590   65591   65591       0   65593   65594
   65594       0   65596   65597   65597       0   65599   65600   65600       0
   65602   65603   65603       0   65605   65606   65606       0   65608   65609
   65609       0   65611   65612   65612       0   65614   65615   65615       0
   65617   65618   65618       0   65620   65621   65621       0   65623   65624
   65624       0   65626   65627   65627       0   65629   65630   65630       0
   65632   65633   65633       0   65635   65636   65636       0   65638   65639
   65639       0   65641   65642   65642       0   65644   65645   65645       0
   65647   65648   65648       0   65650   65651   65651       0   65653   65654
   65654       0   65656   65657   65657       0   65659   65660   65660       0
   65662   65663   65663       0   65665   65666   65666       0   65668   65669
   65669       0   65671   65672   65672       0   65674   65675   65675       0
   65677   65678   65678       0   65680   65681   65681       0   65683   65684
   65684       0   65686   65687   65687       0   65689   65690   65690       0
   65692   65693   65693       0   65695   65696   65696       0   65698   65699
   65699       0   65701   65702   65702       0   65704   65705   65705       0
   65707   65708   65708       0   65710   65711   65711       0   65713   65714
   65714       0   65716   65717   65717       0   65719   65720   65720       0
   65722   65723   65723       0   65725   65726   65726       0   65728   65729
   65729       0   65731   65732   65732       0   65734   65735   65735       0
   65737   65738   65738       0   65740   65741   65741       0   65743   65744
   65744       0   65746   65747   65747       0   65749   65750   65750       0
   65752   65753   65753       0   65755   65756   65756       0   65758   65759
   65759       0   65761   65762   65762       0   65764   65765   65765       0
   65767   65768   65768       0   65770   65771   65771       0   65773   65774
   65774       0   65776   65777   65777       0   65779   65780   65780       0
   65782   65783   65783       0   65785   65786   65786       0   65788   65789
   65789       0   65791   65792   65792       0   65794   65795   65795       0
   65797   65798   65798       0   65800   65801   65801       0   65803   65804
   65804       0   65806   65807   65807       0   65809   65810   65810       0
   65812   65813   65813       0   65815   65816   65816       0   65818   65819
   65819       0   65821   65822   65822       0   65824   65825   65825       0
   65827   65828   65828       0   65830   65831   65831       0   65833   65834
   65834       0   65836   65837   65837       0   65839   65840   65840       0
   65842   65843   65843       0   65845   65846   65846       0   65848   65849
   65849       0   65851   65852   65852       0   65854   65855   65855       0
   65857   65858   65858       0   65860   65861   65861       0   65863   65864
   65864       0   65866   65867   65867       0   65869   65870   65870       0
   65872   65873   65873       0   65875   65876   65876       0   65878   65879
   65879       0   65881   65882   65882       0   65884   65885   65885       0
   65887   65888   65888       0   65890   65891   65891       0   65893   65894
   65894       0   65896   65897   65897       0   65899   65900   65900       0
   65902   65903   65903       0   65905   65906   65906       0   65908   65909
   65909       0   65911   65912   65912       0   65914   65915   65915       0
   65917   65918   65918       0   65920   65921   65921       0   65923   65924
   65924       0   65926   65927   65927       0   65929   65930   65930       0
   65932   65933   65933       0   65935   65936   65936       0   65938   65939
   65939       0   65941   65942   65942       0   65944   65945   65945       0
   65947   65948   65948       0   65950   65951   65951       0   65953   65954
   65954       0   65956   65957   65957       0   65959   65960   65960       0
   65962   65963   65963       0   65965   65966   65966       0   65968   65969
   65969       0   65971   65972   65972       0   65974   65975   65975       0
   65977   65978   65978       0   65980   65981   65981       0   65983   65984
   65984       0   65986   65987   65987       0   65989   65990   65990       0
   65992   65993   65993       0   65995   65996   65996       0   65998   65999
   65999       0   66001   66002   66002       0   66004   66005   66005       0
   66007   66008   66008       0   66010   66011   66011       0   66013   66014
   66014       0   66016   66017   66017       0   66019   66020   66020       0
   66022   66023   66023       0   66025   66026   66026       0   66028   66029
   66029       0   66031   66032   66032       0   66034   66035   66035       0
   66037   66038   66038       0   66040   66041   66041       0   66043   66044
   66044       0   66046   66047   66047       0   66049   66050   66050       0
   66052   66053   66053       0   66055   66056   66056       0   66058   66059
   66059       0   66061   66062   66062       0   66064   66065   66065       0
   66067   66068   66068       0   66070   66071   66071       0   66073   66074
   66074       0   66076   66077   66077       0   66079   66080   66080       0
   66082   66083   66083       0   66085   66086   66086       0   66088   66089
   66089       0   66091   66092   66092       0   66094   66095   66095       0
   66097   66098   66098       0   66100   66101   66101       0   66103   66104
   66104       0   66106   66107   66107       0   66109   66110   66110       0
   66112   66113   66113       0   66115   66116   66116       0   66118   66119
   66119       0   66121   66122   66122       0   66124   66125   66125       0
   66127   66128   66128       0   66130   66131   66131       0   66133   66134
   66134       0   66136   66137   66137       0   66139   66140   66140       0
   66142   66143   66143       0   66145   66146   66146       0   66148   66149
   66149       0   66151   66152   66152       0   66154   66155   66155       0
   66157   66158   66158       0   66160   66161   66161       0   66163   66164
   66164       0   66166   66167   66167       0   66169   66170   66170       0
   66172   66173   66173       0   66175   66176   66176       0   66178   66179
   66179       0   66181   66182   66182       0   66184   66185   66185       0
   66187   66188   66188       0   66190   66191   66191       0   66193   66194
   66194       0   66196   66197   66197       0   66199   66200   66200       0
   66202   66203   66203       0   66205   66206   66206       0   66208   66209
   66209       0   66211   66212   66212       0   66214   66215   66215       0
   66217   66218   66218       0   66220   66221   66221       0   66223   66224
   66224       0   66226   66227   66227       0   66229   66230   66230       0
   66232   66233   66233       0   66235   66236   66236       0   66238   66239
   66239       0   66241   66242   66242       0   66244   66245   66245       0
   66247   66248   66248       0   66250   66251   66251       0   66253   66254
   66254       0   66256   66257   66257       0   66259   66260   66260       0
   66262   66263   66263       0   66265   66266   66266       0   66268   66269
   66269       0   66271   66272   66272       0   66274   66275   66275       0
   66277   66278   66278       0   66280   66281   66281       0   66283   66284
   66284       0   66286   66287   66287       0   66289   66290   66290       0
   66292   66293   66293       0   66295   66296   66296       0   66298   66299
   66299       0   66301   66302   66302       0   66304   66305   66305       0
   66307   66308   66308       0   66310   66311   66311       0   66313   66314
   66314       0   66316   66317   66317       0   66319   66320   66320       0
   66322   66323   66323       0   66325   66326   66326       0   66328   66329
   66329       0   66331   66332   66332       0   66334   66335   66335       0
   66337   66338   66338       0   66340   66341   66341       0   66343   66344
   66344       0   66346   66347   66347       0   66349   66350   66350       0
   66352   66353   66353       0   66355   66356   66356       0   66358   66359
   66359       0   66361   66362   66362       0   66364   66365   66365       0
   66367   66368   66368       0   66370   66371   66371       0   66373   66374
   66374       0   66376   66377   66377       0   66379   66380   66380       0
   66382   66383   66383       0   66385   66386   66386       0   66388   66389
   66389       0   66391   66392   66392       0   66394   66395   66395       0
   66397   66398   66398       0   66400   66401   66401       0   66403   66404
   66404       0   66406   66407   66407       0   66409   66410   66410       0
   66412   66413   66413       0   66415   66416   66416       0   66418   66419
   66419       0   66421   66422   66422       0   66424   66425   66425       0
   66427   66428   66428       0   66430   66431   66431       0   66433   66434
   66434       0   66436   66437   66437       0   66439   66440   66440       0
   66442   66443   66443       0   66445   66446   66446       0   66448   66449
   66449       0   66451   66452   66452       0   66454   66455   66455       0
   66457   66458   66458       0   66460   66461   66461       0   66463   66464
   66464       0   66466   66467   66467       0   66469   66470   66470       0
   66472   66473   66473       0   66475   66476   66476       0   66478   66479
   66479       0   66481   66482   66482       0   66484   66485   66485       0
   66487   66488   66488       0   66490   66491   66491       0   66493   66494
   66494       0   66496   66497   66497       0   66499   66500   66500       0
   66502   66503   66503       0   66505   66506   66506       0   66508   66509
   66509       0   66511   66512   66512       0   66514   66515   66515       0
   66517   66518   66518       0   66520   66521   66521       0   66523   66524
   66524       0   66526   66527   66527       0   66529   66530   66530       0
   66532   66533   66533       0   66535   66536   66536       0   66538   66539
   66539       0   66541   66542   66542       0   66544   66545   66545       0
   66547   66548   66548       0   66550   66551   66551       0   66553   66554
   66554       0   66556   66557   66557       0   66559   66560   66560       0
   66562   66563   66563       0   66565   66566   66566       0   66568   66569
   66569       0   66571   66572   66572       0   66574   66575   66575       0
   66577   66578   66578       0   66580   66581   66581       0   66583   66584
   66584       0   66586   66587   66587       0   66589   66590   66590       0
   66592   66593   66593       0   66595   66596   66596       0   66598   66599
   66599       0   66601   66602   66602       0   66604   66605   66605       0
   66607   66608   66608       0   66610   66611   66611       0   66613   66614
   66614       0   66616   66617   66617       0   66619   66620   66620       0
   66622   66623   66623       0   66625   66626   66626       0   66628   66629
   66629       0   66631   66632   66632       0   66634   66635   66635       0
   66637   66638   66638       0   66640   66641   66641       0   66643   66644
   66644       0   66646   66647   66647       0   66649   66650   66650       0
   66652   66653   66653       0   66655   66656   66656       0   66658   66659
   66659       0   66661   66662   66662       0   66664   66665   66665       0
   66667   66668   66668       0   66670   66671   66671       0   66673   66674
   66674       0   66676   66677   66677       0   66679   66680   66680       0
   66682   66683   66683       0   66685   66686   66686       0   66688   66689
   66689       0   66691   66692   66692       0   66694   66695   66695       0
   66697   66698   66698       0   66700   66701   66701       0   66703   66704
   66704       0   66706   66707   66707       0   66709   66710   66710       0
   66712   66713   66713       0   66715   66716   66716       0   66718   66719
   66719       0   66721   66722   66722       0   66724   66725   66725       0
   66727   66728   66728       0   66730   66731   66731       0   66733   66734
   66734       0   66736   66737   66737       0   66739   66740   66740       0
   66742   66743   66743       0   66745   66746   66746       0   66748   66749
   66749       0   66751   66752   66752       0   66754   66755   66755       0
   66757   66758   66758       0   66760   66761   66761       0   66763   66764
   66764       0   66766   66767   66767       0   66769   66770   66770       0
   66772   66773   66773       0   66775   66776   66776       0   66778   66779
   66779       0   66781   66782   66782       0   66784   66785   66785       0
   66787   66788   66788       0   66790   66791   66791       0   66793   66794
   66794       0   66796   66797   66797       0   66799   66800   66800       0
   66802   66803   66803       0   66805   66806   66806       0   66808   66809
   66809       0   66811   66812   66812       0   66814   66815   66815       0
   66817   66818   66818       0   66820   66821   66821       0   66823   66824
   66824       0   66826   66827   66827       0   66829   66830   66830       0
   66832   66833   66833       0   66835   66836   66836       0   66838   66839
   66839       0   66841   66842   66842       0   66844   66845   66845       0
   66847   66848   66848       0   66850   66851   66851       0   66853   66854
   66854       0   66856   66857   66857       0   66859   66860   66860       0
   66862   66863   66863       0   66865   66866   66866       0   66868   66869
   66869       0   66871   66872   66872       0   66874   66875   66875       0
   66877   66878   66878       0   66880   66881   66881       0   66883   66884
   66884       0   66886   66887   66887       0   66889   66890   66890       0
   66892   66893   66893       0   66895   66896   66896       0   66898   66899
   66899       0   66901   66902   66902       0   66904   66905   66905       0
   66907   66908   66908       0   66910   66911   66911       0   66913   66914
   66914       0   66916   66917   66917       0   66919   66920   66920       0
   66922   66923   66923       0   66925   66926   66926       0   66928   66929
   66929       0   66931   66932   66932       0   66934   66935   66935       0
   66937   66938   66938       0   66940   66941   66941       0   66943   66944
   66944       0   66946   66947   66947       0   66949   66950   66950       0
   66952   66953   66953       0   66955   66956   66956       0   66958   66959
   66959       0   66961   66962   66962       0   66964   66965   66965       0
   66967   66968   66968       0   66970   66971   66971       0   66973   66974
   66974       0   66976   66977   66977       0   66979   66980   66980       0
   66982   66983   66983       0   66985   66986   66986       0   66988   66989
   66989       0   66991   66992   66992       0   66994   66995   66995       0
   66997   66998   66998       0   67000   67001   67001       0   67003   67004
   67004       0   67006   67007   67007       0   67009   67010   67010       0
   67012   67013   67013       0   67015   67016   67016       0   67018   67019
   67019       0   67021   67022   67022       0   67024   67025   67025       0
   67027   67028   67028       0   67030   67031   67031       0   67033   67034
   67034       0   67036   67037   67037       0   67039   67040   67040       0
   67042   67043   67043       0   67045   67046   67046       0   67048   67049
   67049       0   67051   67052   67052       0   67054   67055   67055       0
   67057   67058   67058       0   67060   67061   67061       0   67063   67064
   67064       0   67066   67067   67067       0   67069   67070   67070       0
   67072   67073   67073       0   67075   67076   67076       0   67078   67079
   67079       0   67081   67082   67082       0   67084   67085   67085       0
   67087   67088   67088       0   67090   67091   67091       0   67093   67094
   67094       0   67096   67097   67097       0   67099   67100   67100       0
   67102   67103   67103       0   67105   67106   67106       0   67108   67109
   67109       0   67111   67112   67112       0   67114   67115   67115       0
   67117   67118   67118       0   67120   67121   67121       0   67123   67124
   67124       0   67126   67127   67127       0   67129   67130   67130       0
   67132   67133   67133       0   67135   67136   67136       0   67138   67139
   67139       0   67141   67142   67142       0   67144   67145   67145       0
   67147   67148   67148       0   67150   67151   67151       0   67153   67154
   67154       0   67156   67157   67157       0   67159   67160   67160       0
   67162   67163   67163       0   67165   67166   67166       0   67168   67169
   67169       0   67171   67172   67172       0   67174   67175   67175       0
   67177   67178   67178       0   67180   67181   67181       0   67183   67184
   67184       0   67186   67187   67187       0   67189   67190   67190       0
   67192   67193   67193       0   67195   67196   67196       0   67198   67199
   67199       0   67201   67202   67202       0   67204   67205   67205       0
   67207   67208   67208       0   67210   67211   67211       0   67213   67214
   67214       0   67216   67217   67217       0   67219   67220   67220       0
   67222   67223   67223       0   67225   67226   67226       0   67228   67229
   67229       0   67231   67232   67232       0   67234   67235   67235       0
   67237   67238   67238       0   67240   67241   67241       0   67243   67244
   67244       0   67246   67247   67247       0   67249   67250   67250       0
   67252   67253   67253       0   67255   67256   67256       0   67258   67259
   67259       0   67261   67262   67262       0   67264   67265   67265       0
   67267   67268   67268       0   67270   67271   67271       0   67273   67274
   67274       0   67276   67277   67277       0   67279   67280   67280       0
   67282   67283   67283       0   67285   67286   67286       0   67288   67289
   67289       0   67291   67292   67292       0   67294   67295   67295       0
   67297   67298   67298       0   67300   67301   67301       0   67303   67304
   67304       0   67306   67307   67307       0   67309   67310   67310       0
   67312   67313   67313       0   67315   67316   67316       0   67318   67319
   67319       0   67321   67322   67322       0   67324   67325   67325       0
   67327   67328   67328       0   67330   67331   67331       0   67333   67334
   67334       0   67336   67337   67337       0   67339   67340   67340       0
   67342   67343   67343       0   67345   67346   67346       0   67348   67349
   67349       0   67351   67352   67352       0   67354   67355   67355       0
   67357   67358   67358       0   67360   67361   67361       0   67363   67364
   67364       0   67366   67367   67367       0   67369   67370   67370       0
   67372   67373   67373       0   67375   67376   67376       0   67378   67379
   67379       0   67381   67382   67382       0   67384   67385   67385       0
   67387   67388   67388       0   67390   67391   67391       0   67393   67394
   67394       0   67396   67397   67397       0   67399   67400   67400       0
   67402   67403   67403       0   67405   67406   67406       0   67408   67409
   67409       0   67411   67412   67412       0   67414   67415   67415       0
   67417   67418   67418       0   67420   67421   67421       0   67423   67424
   67424       0   67426   67427   67427       0   67429   67430   67430       0
   67432   67433   67433       0   67435   67436   67436       0   67438   67439
   67439       0   67441   67442   67442       0   67444   67445   67445       0
   67447   67448   67448       0   67450   67451   67451       0   67453   67454
   67454       0   67456   67457   67457       0   67459   67460   67460       0
   67462   67463   67463       0   67465   67466   67466       0   67468   67469
   67469       0   67471   67472   67472       0   67474   67475   67475       0
   67477   67478   67478       0   67480   67481   67481       0   67483   67484
   67484       0   67486   67487   67487       0   67489   67490   67490       0
   67492   67493   67493       0   67495   67496   67496       0   67498   67499
   67499       0   67501   67502   67502       0   67504   67505   67505       0
   67507   67508   67508       0   67510   67511   67511       0   67513   67514
   67514       0   67516   67517   67517       0   67519   67520   67520       0
   67522   67523   67523       0   67525   67526   67526       0   67528   67529
   67529       0   67531   67532   67532       0   67534   67535   67535       0
   67537   67538   67538       0   67540   67541   67541       0   67543   67544
   67544       0   67546   67547   67547       0   67549   67550   67550       0
   67552   67553   67553       0   67555   67556   67556       0   67558   67559
   67559       0   67561   67562   67562       0   67564   67565   67565       0
   67567   67568   67568       0   67570   67571   67571       0   67573   67574
   67574       0   67576   67577   67577       0   67579   67580   67580       0
   67582   67583   67583       0   67585   67586   67586       0   67588   67589
   67589       0   67591   67592   67592       0   67594   67595   67595       0
   67597   67598   67598       0   67600   67601   67601       0   67603   67604
   67604       0   67606   67607   67607       0   67609   67610   67610       0
   67612   67613   67613       0   67615   67616   67616       0   67618   67619
   67619       0   67621   67622   67622       0   67624   67625   67625       0
   67627   67628   67628       0   67630   67631   67631       0   67633   67634
   67634       0   67636   67637   67637       0   67639   67640   67640       0
   67642   67643   67643       0   67645   67646   67646       0   67648   67649
   67649       0   67651   67652   67652       0   67654   67655   67655       0
   67657   67658   67658       0   67660   67661   67661       0   67663   67664
   67664       0   67666   67667   67667       0   67669   67670   67670       0
   67672   67673   67673       0   67675   67676   67676       0   67678   67679
   67679       0   67681   67682   67682       0   67684   67685   67685       0
   67687   67688   67688       0   67690   67691   67691       0   67693   67694
   67694       0   67696   67697   67697       0   67699   67700   67700       0
   67702   67703   67703       0   67705   67706   67706       0   67708   67709
   67709       0   67711   67712   67712       0   67714   67715   67715       0
   67717   67718   67718       0   67720   67721   67721       0   67723   67724
   67724       0   67726   67727   67727       0   67729   67730   67730       0
   67732   67733   67733       0   67735   67736   67736       0   67738   67739
   67739       0   67741   67742   67742       0   67744   67745   67745       0
   67747   67748   67748       0   67750   67751   67751       0   67753   67754
   67754       0   67756   67757   67757       0   67759   67760   67760       0
   67762   67763   67763       0   67765   67766   67766       0   67768   67769
   67769       0   67771   67772   67772       0   67774   67775   67775       0
   67777   67778   67778       0   67780   67781   67781       0   67783   67784
   67784       0   67786   67787   67787       0   67789   67790   67790       0
   67792   67793   67793       0   67795   67796   67796       0   67798   67799
   67799       0   67801   67802   67802       0   67804   67805   67805       0
   67807   67808   67808       0   67810   67811   67811       0   67813   67814
   67814       0   67816   67817   67817       0   67819   67820   67820       0
   67822   67823   67823       0   67825   67826   67826       0   67828   67829
   67829       0   67831   67832   67832       0   67834   67835   67835       0
   67837   67838   67838       0   67840   67841   67841       0   67843   67844
   67844       0   67846   67847   67847       0   67849   67850   67850       0
   67852   67853   67853       0   67855   67856   67856       0   67858   67859
   67859       0   67861   67862   67862       0   67864   67865   67865       0
   67867   67868   67868       0   67870   67871   67871       0   67873   67874
   67874       0   67876   67877   67877       0   67879   67880   67880       0
   67882   67883   67883       0   67885   67886   67886       0   67888   67889
   67889       0   67891   67892   67892       0   67894   67895   67895       0
   67897   67898   67898       0   67900   67901   67901       0   67903   67904
   67904       0   67906   67907   67907       0   67909   67910   67910       0
   67912   67913   67913       0   67915   67916   67916       0   67918   67919
   67919       0   67921   67922   67922       0   67924   67925   67925       0
   67927   67928   67928       0   67930   67931   67931       0   67933   67934
   67934       0   67936   67937   67937       0   67939   67940   67940       0
   67942   67943   67943       0   67945   67946   67946       0   67948   67949
   67949       0   67951   67952   67952       0   67954   67955   67955       0
   67957   67958   67958       0   67960   67961   67961       0   67963   67964
   67964       0   67966   67967   67967       0   67969   67970   67970       0
   67972   67973   67973       0   67975   67976   67976       0   67978   67979
   67979       0   67981   67982   67982       0   67984   67985   67985       0
   67987   67988   67988       0   67990   67991   67991       0   67993   67994
   67994       0   67996   67997   67997       0   67999   68000   68000       0
   68002   68003   68003       0   68005   68006   68006       0   68008   68009
   68009       0   68011   68012   68012       0   68014   68015   68015       0
   68017   68018   68018       0   68020   68021   68021       0   68023   68024
   68024       0   68026   68027   68027       0   68029   68030   68030       0
   68032   68033   68033       0   68035   68036   68036       0   68038   68039
   68039       0   68041   68042   68042       0   68044   68045   68045       0
   68047   68048   68048       0   68050   68051   68051       0   68053   68054
   68054       0   68056   68057   68057       0   68059   68060   68060       0
   68062   68063   68063       0   68065   68066   68066       0   68068   68069
   68069       0   68071   68072   68072       0   68074   68075   68075       0
   68077   68078   68078       0   68080   68081   68081       0   68083   68084
   68084       0   68086   68087   68087       0   68089   68090   68090       0
   68092   68093   68093       0   68095   68096   68096       0   68098   68099
   68099       0   68101   68102   68102       0   68104   68105   68105       0
   68107   68108   68108       0   68110   68111   68111       0   68113   68114
   68114       0   68116   68117   68117       0   68119   68120   68120       0
   68122   68123   68123       0   68125   68126   68126       0   68128   68129
   68129       0   68131   68132   68132       0   68134   68135   68135       0
   68137   68138   68138       0   68140   68141   68141       0   68143   68144
   68144       0   68146   68147   68147       0   68149   68150   68150       0
   68152   68153   68153       0   68155   68156   68156       0   68158   68159
   68159       0   68161   68162   68162       0   68164   68165   68165       0
   68167   68168   68168       0   68170   68171   68171       0   68173   68174
   68174       0   68176   68177   68177       0   68179   68180   68180       0
   68182   68183   68183       0   68185   68186   68186       0   68188   68189
   68189       0   68191   68192   68192       0   68194   68195   68195       0
   68197   68198   68198       0   68200   68201   68201       0   68203   68204
   68204       0   68206   68207   68207       0   68209   68210   68210       0
   68212   68213   68213       0   68215   68216   68216       0   68218   68219
   68219       0   68221   68222   68222       0   68224   68225   68225       0
   68227   68228   68228       0   68230   68231   68231       0   68233   68234
   68234       0   68236   68237   68237       0   68239   68240   68240       0
   68242   68243   68243       0   68245   68246   68246       0   68248   68249
   68249       0   68251   68252   68252       0   68254   68255   68255       0
   68257   68258   68258       0   68260   68261   68261       0   68263   68264
   68264       0   68266   68267   68267       0   68269   68270   68270       0
   68272   68273   68273       0   68275   68276   68276       0   68278   68279
   68279       0   68281   68282   68282       0   68284   68285   68285       0
   68287   68288   68288       0   68290   68291   68291       0   68293   68294
   68294       0   68296   68297   68297       0   68299   68300   68300       0
   68302   68303   68303       0   68305   68306   68306       0   68308   68309
   68309       0   68311   68312   68312       0   68314   68315   68315       0
   68317   68318   68318       0   68320   68321   68321       0   68323   68324
   68324       0   68326   68327   68327       0   68329   68330   68330       0
   68332   68333   68333       0   68335   68336   68336       0   68338   68339
   68339       0   68341   68342   68342       0   68344   68345   68345       0
   68347   68348   68348       0   68350   68351   68351       0   68353   68354
   68354       0   68356   68357   68357       0   68359   68360   68360       0
   68362   68363   68363       0   68365   68366   68366       0   68368   68369
   68369       0   68371   68372   68372       0   68374   68375   68375       0
   68377   68378   68378       0   68380   68381   68381       0   68383   68384
   68384       0   68386   68387   68387       0   68389   68390   68390       0
   68392   68393   68393       0   68395   68396   68396       0   68398   68399
   68399       0   68401   68402   68402       0   68404   68405   68405       0
   68407   68408   68408       0   68410   68411   68411       0   68413   68414
   68414       0   68416   68417   68417       0   68419   68420   68420       0
   68422   68423   68423       0   68425   68426   68426       0   68428   68429
   68429       0   68431   68432   68432       0   68434   68435   68435       0
   68437   68438   68438       0   68440   68441   68441       0   68443   68444
   68444       0   68446   68447   68447       0   68449   68450   68450       0
   68452   68453   68453       0   68455   68456   68456       0   68458   68459
   68459       0   68461   68462   68462       0   68464   68465   68465       0
   68467   68468   68468       0   68470   68471   68471       0   68473   68474
   68474       0   68476   68477   68477       0   68479   68480   68480       0
   68482   68483   68483       0   68485   68486   68486       0   68488   68489
   68489       0   68491   68492   68492       0   68494   68495   68495       0
   68497   68498   68498       0   68500   68501   68501       0   68503   68504
   68504       0   68506   68507   68507       0   68509   68510   68510       0
   68512   68513   68513       0   68515   68516   68516       0   68518   68519
   68519       0   68521   68522   68522       0   68524   68525   68525       0
   68527   68528   68528       0   68530   68531   68531       0   68533   68534
   68534       0   68536   68537   68537       0   68539   68540   68540       0
   68542   68543   68543       0   68545   68546   68546       0   68548   68549
   68549       0   68551   68552   68552       0   68554   68555   68555       0
   68557   68558   68558       0   68560   68561   68561       0   68563   68564
   68564       0   68566   68567   68567       0   68569   68570   68570       0
   68572   68573   68573       0   68575   68576   68576       0   68578   68579
   68579       0   68581   68582   68582       0   68584   68585   68585       0
   68587   68588   68588       0   68590   68591   68591       0   68593   68594
   68594       0   68596   68597   68597       0   68599   68600   68600       0
   68602   68603   68603       0   68605   68606   68606       0   68608   68609
   68609       0   68611   68612   68612       0   68614   68615   68615       0
   68617   68618   68618       0   68620   68621   68621       0   68623   68624
   68624       0   68626   68627   68627       0   68629   68630   68630       0
   68632   68633   68633       0   68635   68636   68636       0   68638   68639
   68639       0   68641   68642   68642       0   68644   68645   68645       0
   68647   68648   68648       0   68650   68651   68651       0   68653   68654
   68654       0   68656   68657   68657       0   68659   68660   68660       0
   68662   68663   68663       0   68665   68666   68666       0   68668   68669
   68669       0   68671   68672   68672       0   68674   68675   68675       0
   68677   68678   68678       0   68680   68681   68681       0   68683   68684
   68684       0   68686   68687   68687       0   68689   68690   68690       0
   68692   68693   68693       0   68695   68696   68696       0   68698   68699
   68699       0   68701   68702   68702       0   68704   68705   68705       0
   68707   68708   68708       0   68710   68711   68711       0   68713   68714
   68714       0   68716   68717   68717       0   68719   68720   68720       0
   68722   68723   68723       0   68725   68726   68726       0   68728   68729
   68729       0   68731   68732   68732       0   68734   68735   68735       0
   68737   68738   68738       0   68740   68741   68741       0   68743   68744
   68744       0   68746   68747   68747       0   68749   68750   68750       0
   68752   68753   68753       0   68755   68756   68756       0   68758   68759
   68759       0   68761   68762   68762       0   68764   68765   68765       0
   68767   68768   68768       0   68770   68771   68771       0   68773   68774
   68774       0   68776   68777   68777       0   68779   68780   68780       0
   68782   68783   68783       0   68785   68786   68786       0   68788   68789
   68789       0   68791   68792   68792       0   68794   68795   68795       0
   68797   68798   68798       0   68800   68801   68801       0   68803   68804
   68804       0   68806   68807   68807       0   68809   68810   68810       0
   68812   68813   68813       0   68815   68816   68816       0   68818   68819
   68819       0   68821   68822   68822       0   68824   68825   68825       0
   68827   68828   68828       0   68830   68831   68831       0   68833   68834
   68834       0   68836   68837   68837       0   68839   68840   68840       0
   68842   68843   68843       0   68845   68846   68846       0   68848   68849
   68849       0   68851   68852   68852       0   68854   68855   68855       0
   68857   68858   68858       0   68860   68861   68861       0   68863   68864
   68864       0   68866   68867   68867       0   68869   68870   68870       0
   68872   68873   68873       0   68875   68876   68876       0   68878   68879
   68879       0   68881   68882   68882       0   68884   68885   68885       0
   68887   68888   68888       0   68890   68891   68891       0   68893   68894
   68894       0   68896   68897   68897       0   68899   68900   68900       0
   68902   68903   68903       0   68905   68906   68906       0   68908   68909
   68909       0   68911   68912   68912       0   68914   68915   68915       0
   68917   68918   68918       0   68920   68921   68921       0   68923   68924
   68924       0   68926   68927   68927       0   68929   68930   68930       0
   68932   68933   68933       0   68935   68936   68936       0   68938   68939
   68939       0   68941   68942   68942       0   68944   68945   68945       0
   68947   68948   68948       0   68950   68951   68951       0   68953   68954
   68954       0   68956   68957   68957       0   68959   68960   68960       0
   68962   68963   68963       0   68965   68966   68966       0   68968   68969
   68969       0   68971   68972   68972       0   68974   68975   68975       0
   68977   68978   68978       0   68980   68981   68981       0   68983   68984
   68984       0   68986   68987   68987       0   68989   68990   68990       0
   68992   68993   68993       0   68995   68996   68996       0   68998   68999
   68999       0   69001   69002   69002       0   69004   69005   69005       0
   69007   69008   69008       0   69010   69011   69011       0   69013   69014
   69014       0   69016   69017   69017       0   69019   69020   69020       0
   69022   69023   69023       0   69025   69026   69026       0   69028   69029
   69029       0   69031   69032   69032       0   69034   69035   69035       0
   69037   69038   69038       0   69040   69041   69041       0   69043   69044
   69044       0   69046   69047   69047       0   69049   69050   69050       0
   69052   69053   69053       0   69055   69056   69056       0   69058   69059
   69059       0   69061   69062   69062       0   69064   69065   69065       0
   69067   69068   69068       0   69070   69071   69071       0   69073   69074
   69074       0   69076   69077   69077       0   69079   69080   69080       0
   69082   69083   69083       0   69085   69086   69086       0   69088   69089
   69089       0   69091   69092   69092       0   69094   69095   69095       0
   69097   69098   69098       0   69100   69101   69101       0   69103   69104
   69104       0   69106   69107   69107       0   69109   69110   69110       0
   69112   69113   69113       0   69115   69116   69116       0   69118   69119
   69119       0   69121   69122   69122       0   69124   69125   69125       0
   69127   69128   69128       0   69130   69131   69131       0   69133   69134
   69134       0   69136   69137   69137       0   69139   69140   69140       0
   69142   69143   69143       0   69145   69146   69146       0   69148   69149
   69149       0   69151   69152   69152       0   69154   69155   69155       0
   69157   69158   69158       0   69160   69161   69161       0   69163   69164
   69164       0   69166   69167   69167       0   69169   69170   69170       0
   69172   69173   69173       0   69175   69176   69176       0   69178   69179
   69179       0   69181   69182   69182       0   69184   69185   69185       0
   69187   69188   69188       0   69190   69191   69191       0   69193   69194
   69194       0   69196   69197   69197       0   69199   69200   69200       0
   69202   69203   69203       0   69205   69206   69206       0   69208   69209
   69209       0   69211   69212   69212       0   69214   69215   69215       0
   69217   69218   69218       0   69220   69221   69221       0   69223   69224
   69224       0   69226   69227   69227       0   69229   69230   69230       0
   69232   69233   69233       0   69235   69236   69236       0   69238   69239
   69239       0   69241   69242   69242       0   69244   69245   69245       0
   69247   69248   69248       0   69250   69251   69251       0   69253   69254
   69254       0   69256   69257   69257       0   69259   69260   69260       0
   69262   69263   69263       0   69265   69266   69266       0   69268   69269
   69269       0   69271   69272   69272       0   69274   69275   69275       0
   69277   69278   69278       0   69280   69281   69281       0   69283   69284
   69284       0   69286   69287   69287       0   69289   69290   69290       0
   69292   69293   69293       0   69295   69296   69296       0   69298   69299
   69299       0   69301   69302   69302       0   69304   69305   69305       0
   69307   69308   69308       0   69310   69311   69311       0   69313   69314
   69314       0   69316   69317   69317       0   69319   69320   69320       0
   69322   69323   69323       0   69325   69326   69326       0   69328   69329
   69329       0   69331   69332   69332       0   69334   69335   69335       0
   69337   69338   69338       0   69340   69341   69341       0   69343   69344
   69344       0   69346   69347   69347       0   69349   69350   69350       0
   69352   69353   69353       0   69355   69356   69356       0   69358   69359
   69359       0   69361   69362   69362       0   69364   69365   69365       0
   69367   69368   69368       0   69370   69371   69371       0   69373   69374
   69374       0   69376   69377   69377       0   69379   69380   69380       0
   69382   69383   69383       0   69385   69386   69386       0   69388   69389
   69389       0   69391   69392   69392       0   69394   69395   69395       0
   69397   69398   69398       0   69400   69401   69401       0   69403   69404
   69404       0   69406   69407   69407       0   69409   69410   69410       0
   69412   69413   69413       0   69415   69416   69416       0   69418   69419
   69419       0   69421   69422   69422       0   69424   69425   69425       0
   69427   69428   69428       0   69430   69431   69431       0   69433   69434
   69434       0   69436   69437   69437       0   69439   69440   69440       0
   69442   69443   69443       0   69445   69446   69446       0   69448   69449
   69449       0   69451   69452   69452       0   69454   69455   69455       0
   69457   69458   69458       0   69460   69461   69461       0   69463   69464
   69464       0   69466   69467   69467       0   69469   69470   69470       0
   69472   69473   69473       0   69475   69476   69476       0   69478   69479
   69479       0   69481   69482   69482       0   69484   69485   69485       0
   69487   69488   69488       0   69490   69491   69491       0   69493   69494
   69494       0   69496   69497   69497       0   69499   69500   69500       0
   69502   69503   69503       0   69505   69506   69506       0   69508   69509
   69509       0   69511   69512   69512       0   69514   69515   69515       0
   69517   69518   69518       0   69520   69521   69521       0   69523   69524
   69524       0   69526   69527   69527       0   69529   69530   69530       0
   69532   69533   69533       0   69535   69536   69536       0   69538   69539
   69539       0   69541   69542   69542       0   69544   69545   69545       0
   69547   69548   69548       0   69550   69551   69551       0   69553   69554
   69554       0   69556   69557   69557       0   69559   69560   69560       0
   69562   69563   69563       0   69565   69566   69566       0   69568   69569
   69569       0   69571   69572   69572       0   69574   69575   69575       0
   69577   69578   69578       0   69580   69581   69581       0   69583   69584
   69584       0   69586   69587   69587       0   69589   69590   69590       0
   69592   69593   69593       0   69595   69596   69596       0   69598   69599
   69599       0   69601   69602   69602       0   69604   69605   69605       0
   69607   69608   69608       0   69610   69611   69611       0   69613   69614
   69614       0   69616   69617   69617       0   69619   69620   69620       0
   69622   69623   69623       0   69625   69626   69626       0   69628   69629
   69629       0   69631   69632   69632       0   69634   69635   69635       0
   69637   69638   69638       0   69640   69641   69641       0   69643   69644
   69644       0   69646   69647   69647       0   69649   69650   69650       0
   69652   69653   69653       0   69655   69656   69656       0   69658   69659
   69659       0   69661   69662   69662       0   69664   69665   69665       0
   69667   69668   69668       0   69670   69671   69671       0   69673   69674
   69674       0   69676   69677   69677       0   69679   69680   69680       0
   69682   69683   69683       0   69685   69686   69686       0   69688   69689
   69689       0   69691   69692   69692       0   69694   69695   69695       0
   69697   69698   69698       0   69700   69701   69701       0   69703   69704
   69704       0   69706   69707   69707       0   69709   69710   69710       0
   69712   69713   69713       0   69715   69716   69716       0   69718   69719
   69719       0   69721   69722   69722       0   69724   69725   69725       0
   69727   69728   69728       0   69730   69731   69731       0   69733   69734
   69734       0   69736   69737   69737       0   69739   69740   69740       0
   69742   69743   69743       0   69745   69746   69746       0   69748   69749
   69749       0   69751   69752   69752       0   69754   69755   69755       0
   69757   69758   69758       0   69760   69761   69761       0   69763   69764
   69764       0   69766   69767   69767       0   69769   69770   69770       0
   69772   69773   69773       0   69775   69776   69776       0   69778   69779
   69779       0   69781   69782   69782       0   69784   69785   69785       0
   69787   69788   69788       0   69790   69791   69791       0   69793   69794
   69794       0   69796   69797   69797       0   69799   69800   69800       0
   69802   69803   69803       0   69805   69806   69806       0   69808   69809
   69809       0   69811   69812   69812       0   69814   69815   69815       0
   69817   69818   69818       0   69820   69821   69821       0   69823   69824
   69824       0   69826   69827   69827       0   69829   69830   69830       0
   69832   69833   69833       0   69835   69836   69836       0   69838   69839
   69839       0   69841   69842   69842       0   69844   69845   69845       0
   69847   69848   69848       0   69850   69851   69851       0   69853   69854
   69854       0   69856   69857   69857       0   69859   69860   69860       0
   69862   69863   69863       0   69865   69866   69866       0   69868   69869
   69869       0   69871   69872   69872       0   69874   69875   69875       0
   69877   69878   69878       0   69880   69881   69881       0   69883   69884
   69884       0   69886   69887   69887       0   69889   69890   69890       0
   69892   69893   69893       0   69895   69896   69896       0   69898   69899
   69899       0   69901   69902   69902       0   69904   69905   69905       0
   69907   69908   69908       0   69910   69911   69911       0   69913   69914
   69914       0   69916   69917   69917       0   69919   69920   69920       0
   69922   69923   69923       0   69925   69926   69926       0   69928   69929
   69929       0   69931   69932   69932       0   69934   69935   69935       0
   69937   69938   69938       0   69940   69941   69941       0   69943   69944
   69944       0   69946   69947   69947       0   69949   69950   69950       0
   69952   69953   69953       0   69955   69956   69956       0   69958   69959
   69959       0   69961   69962   69962       0   69964   69965   69965       0
   69967   69968   69968       0   69970   69971   69971       0   69973   69974
   69974       0   69976   69977   69977       0   69979   69980   69980       0
   69982   69983   69983       0   69985   69986   69986       0   69988   69989
   69989       0   69991   69992   69992       0   69994   69995   69995       0
   69997   69998   69998       0   70000   70001   70001       0   70003   70004
   70004       0   70006   70007   70007       0   70009   70010   70010       0
   70012   70013   70013       0   70015   70016   70016       0   70018   70019
   70019       0   70021   70022   70022       0   70024   70025   70025       0
   70027   70028   70028       0   70030   70031   70031       0   70033   70034
   70034       0   70036   70037   70037       0   70039   70040   70040       0
   70042   70043   70043       0   70045   70046   70046       0   70048   70049
   70049       0   70051   70052   70052       0   70054   70055   70055       0
   70057   70058   70058       0   70060   70061   70061       0   70063   70064
   70064       0   70066   70067   70067       0   70069   70070   70070       0
   70072   70073   70073       0   70075   70076   70076       0   70078   70079
   70079       0   70081   70082   70082       0   70084   70085   70085       0
   70087   70088   70088       0   70090   70091   70091       0   70093   70094
   70094       0   70096   70097   70097       0   70099   70100   70100       0
   70102   70103   70103       0   70105   70106   70106       0   70108   70109
   70109       0   70111   70112   70112       0   70114   70115   70115       0
   70117   70118   70118       0   70120   70121   70121       0   70123   70124
   70124       0   70126   70127   70127       0   70129   70130   70130       0
   70132   70133   70133       0   70135   70136   70136       0   70138   70139
   70139       0   70141   70142   70142       0   70144   70145   70145       0
   70147   70148   70148       0   70150   70151   70151       0   70153   70154
   70154       0   70156   70157   70157       0   70159   70160   70160       0
   70162   70163   70163       0   70165   70166   70166       0   70168   70169
   70169       0   70171   70172   70172       0   70174   70175   70175       0
   70177   70178   70178       0   70180   70181   70181       0   70183   70184
   70184       0   70186   70187   70187       0   70189   70190   70190       0
   70192   70193   70193       0   70195   70196   70196       0   70198   70199
   70199       0   70201   70202   70202       0   70204   70205   70205       0
   70207   70208   70208       0   70210   70211   70211       0   70213   70214
   70214       0   70216   70217   70217       0   70219   70220   70220       0
   70222   70223   70223       0   70225   70226   70226       0   70228   70229
   70229       0   70231   70232   70232       0   70234   70235   70235       0
   70237   70238   70238       0   70240   70241   70241       0   70243   70244
   70244       0   70246   70247   70247       0   70249   70250   70250       0
   70252   70253   70253       0   70255   70256   70256       0   70258   70259
   70259       0   70261   70262   70262       0   70264   70265   70265       0
   70267   70268   70268       0   70270   70271   70271       0   70273   70274
   70274       0   70276   70277   70277       0   70279   70280   70280       0
   70282   70283   70283       0   70285   70286   70286       0   70288   70289
   70289       0   70291   70292   70292       0   70294   70295   70295       0
   70297   70298   70298       0   70300   70301   70301       0   70303   70304
   70304       0   70306   70307   70307       0   70309   70310   70310       0
   70312   70313   70313       0   70315   70316   70316       0   70318   70319
   70319       0   70321   70322   70322       0   70324   70325   70325       0
   70327   70328   70328       0   70330   70331   70331       0   70333   70334
   70334       0   70336   70337   70337       0   70339   70340   70340       0
   70342   70343   70343       0   70345   70346   70346       0   70348   70349
   70349       0   70351   70352   70352       0   70354   70355   70355       0
   70357   70358   70358       0   70360   70361   70361       0   70363   70364
   70364       0   70366   70367   70367       0   70369   70370   70370       0
   70372   70373   70373       0   70375   70376   70376       0   70378   70379
   70379       0   70381   70382   70382       0   70384   70385   70385       0
   70387   70388   70388       0   70390   70391   70391       0   70393   70394
   70394       0   70396   70397   70397       0   70399   70400   70400       0
   70402   70403   70403       0   70405   70406   70406       0   70408   70409
   70409       0   70411   70412   70412       0   70414   70415   70415       0
   70417   70418   70418       0   70420   70421   70421       0   70423   70424
   70424       0   70426   70427   70427       0   70429   70430   70430       0
   70432   70433   70433       0   70435   70436   70436       0   70438   70439
   70439       0   70441   70442   70442       0   70444   70445   70445       0
   70447   70448   70448       0   70450   70451   70451       0   70453   70454
   70454       0   70456   70457   70457       0   70459   70460   70460       0
   70462   70463   70463       0   70465   70466   70466       0   70468   70469
   70469       0   70471   70472   70472       0   70474   70475   70475       0
   70477   70478   70478       0   70480   70481   70481       0   70483   70484
   70484       0   70486   70487   70487       0   70489   70490   70490       0
   70492   70493   70493       0   70495   70496   70496       0   70498   70499
   70499       0   70501   70502   70502       0   70504   70505   70505       0
   70507   70508   70508       0   70510   70511   70511       0   70513   70514
   70514       0   70516   70517   70517       0   70519   70520   70520       0
   70522   70523   70523       0   70525   70526   70526       0   70528   70529
   70529       0   70531   70532   70532       0   70534   70535   70535       0
   70537   70538   70538       0   70540   70541   70541       0   70543   70544
   70544       0   70546   70547   70547       0   70549   70550   70550       0
   70552   70553   70553       0   70555   70556   70556       0   70558   70559
   70559       0   70561   70562   70562       0   70564   70565   70565       0
   70567   70568   70568       0   70570   70571   70571       0   70573   70574
   70574       0   70576   70577   70577       0   70579   70580   70580       0
   70582   70583   70583       0   70585   70586   70586       0   70588   70589
   70589       0   70591   70592   70592       0   70594   70595   70595       0
   70597   70598   70598       0   70600   70601   70601       0   70603   70604
   70604       0   70606   70607   70607       0   70609   70610   70610       0
   70612   70613   70613       0   70615   70616   70616       0   70618   70619
   70619       0   70621   70622   70622       0   70624   70625   70625       0
   70627   70628   70628       0   70630   70631   70631       0   70633   70634
   70634       0   70636   70637   70637       0   70639   70640   70640       0
   70642   70643   70643       0   70645   70646   70646       0   70648   70649
   70649       0   70651   70652   70652       0   70654   70655   70655       0
   70657   70658   70658       0   70660   70661   70661       0   70663   70664
   70664       0   70666   70667   70667       0   70669   70670   70670       0
   70672   70673   70673       0   70675   70676   70676       0   70678   70679
   70679       0   70681   70682   70682       0   70684   70685   70685       0
   70687   70688   70688       0   70690   70691   70691       0   70693   70694
   70694       0   70696   70697   70697       0   70699   70700   70700       0
   70702   70703   70703       0   70705   70706   70706       0   70708   70709
   70709       0   70711   70712   70712       0   70714   70715   70715       0
   70717   70718   70718       0   70720   70721   70721       0   70723   70724
   70724       0   70726   70727   70727       0   70729   70730   70730       0
   70732   70733   70733       0   70735   70736   70736       0   70738   70739
   70739       0   70741   70742   70742       0   70744   70745   70745       0
   70747   70748   70748       0   70750   70751   70751       0   70753   70754
   70754       0   70756   70757   70757       0   70759   70760   70760       0
   70762   70763   70763       0   70765   70766   70766       0   70768   70769
   70769       0   70771   70772   70772       0   70774   70775   70775       0
   70777   70778   70778       0   70780   70781   70781       0   70783   70784
   70784       0   70786   70787   70787       0   70789   70790   70790       0
   70792   70793   70793       0   70795   70796   70796       0   70798   70799
   70799       0   70801   70802   70802       0   70804   70805   70805       0
   70807   70808   70808       0   70810   70811   70811       0   70813   70814
   70814       0   70816   70817   70817       0   70819   70820   70820       0
   70822   70823   70823       0   70825   70826   70826       0   70828   70829
   70829       0   70831   70832   70832       0   70834   70835   70835       0
   70837   70838   70838       0   70840   70841   70841       0   70843   70844
   70844       0   70846   70847   70847       0   70849   70850   70850       0
   70852   70853   70853       0   70855   70856   70856       0   70858   70859
   70859       0   70861   70862   70862       0   70864   70865   70865       0
   70867   70868   70868       0   70870   70871   70871       0   70873   70874
   70874       0   70876   70877   70877       0   70879   70880   70880       0
   70882   70883   70883       0   70885   70886   70886       0   70888   70889
   70889       0   70891   70892   70892       0   70894   70895   70895       0
   70897   70898   70898       0   70900   70901   70901       0   70903   70904
   70904       0   70906   70907   70907       0   70909   70910   70910       0
   70912   70913   70913       0   70915   70916   70916       0   70918   70919
   70919       0   70921   70922   70922       0   70924   70925   70925       0
   70927   70928   70928       0   70930   70931   70931       0   70933   70934
   70934       0   70936   70937   70937       0   70939   70940   70940       0
   70942   70943   70943       0   70945   70946   70946       0   70948   70949
   70949       0   70951   70952   70952       0   70954   70955   70955       0
   70957   70958   70958       0   70960   70961   70961       0   70963   70964
   70964       0   70966   70967   70967       0   70969   70970   70970       0
   70972   70973   70973       0   70975   70976   70976       0   70978   70979
   70979       0   70981   70982   70982       0   70984   70985   70985       0
   70987   70988   70988       0   70990   70991   70991       0   70993   70994
   70994       0   70996   70997   70997       0   70999   71000   71000       0
   71002   71003   71003       0   71005   71006   71006       0   71008   71009
   71009       0   71011   71012   71012       0   71014   71015   71015       0
   71017   71018   71018       0   71020   71021   71021       0   71023   71024
   71024       0   71026   71027   71027       0   71029   71030   71030       0
   71032   71033   71033       0   71035   71036   71036       0   71038   71039
   71039       0   71041   71042   71042       0   71044   71045   71045       0
   71047   71048   71048       0   71050   71051   71051       0   71053   71054
   71054       0   71056   71057   71057       0   71059   71060   71060       0
   71062   71063   71063       0   71065   71066   71066       0   71068   71069
   71069       0   71071   71072   71072       0   71074   71075   71075       0
   71077   71078   71078       0   71080   71081   71081       0   71083   71084
   71084       0   71086   71087   71087       0   71089   71090   71090       0
   71092   71093   71093       0   71095   71096   71096       0   71098   71099
   71099       0   71101   71102   71102       0   71104   71105   71105       0
   71107   71108   71108       0   71110   71111   71111       0   71113   71114
   71114       0   71116   71117   71117       0   71119   71120   71120       0
   71122   71123   71123       0   71125   71126   71126       0   71128   71129
   71129       0   71131   71132   71132       0   71134   71135   71135       0
   71137   71138   71138       0   71140   71141   71141       0   71143   71144
   71144       0   71146   71147   71147       0   71149   71150   71150       0
   71152   71153   71153       0   71155   71156   71156       0   71158   71159
   71159       0   71161   71162   71162       0   71164   71165   71165       0
   71167   71168   71168       0   71170   71171   71171       0   71173   71174
   71174       0   71176   71177   71177       0   71179   71180   71180       0
   71182   71183   71183       0   71185   71186   71186       0   71188   71189
   71189       0   71191   71192   71192       0   71194   71195   71195       0
   71197   71198   71198       0   71200   71201   71201       0   71203   71204
   71204       0   71206   71207   71207       0   71209   71210   71210       0
   71212   71213   71213       0   71215   71216   71216       0   71218   71219
   71219       0   71221   71222   71222       0   71224   71225   71225       0
   71227   71228   71228       0   71230   71231   71231       0   71233   71234
   71234       0   71236   71237   71237       0   71239   71240   71240       0
   71242   71243   71243       0   71245   71246   71246       0   71248   71249
   71249       0   71251   71252   71252       0   71254   71255   71255       0
   71257   71258   71258       0   71260   71261   71261       0   71263   71264
   71264       0   71266   71267   71267       0   71269   71270   71270       0
   71272   71273   71273       0   71275   71276   71276       0   71278   71279
   71279       0   71281   71282   71282       0   71284   71285   71285       0
   71287   71288   71288       0   71290   71291   71291       0   71293   71294
   71294       0   71296   71297   71297       0   71299   71300   71300       0
   71302   71303   71303       0   71305   71306   71306       0   71308   71309
   71309       0   71311   71312   71312       0   71314   71315   71315       0
   71317   71318   71318       0   71320   71321   71321       0   71323   71324
   71324       0   71326   71327   71327       0   71329   71330   71330       0
   71332   71333   71333       0   71335   71336   71336       0   71338   71339
   71339       0   71341   71342   71342       0   71344   71345   71345       0
   71347   71348   71348       0   71350   71351   71351       0   71353   71354
   71354       0   71356   71357   71357       0   71359   71360   71360       0
   71362   71363   71363       0   71365   71366   71366       0   71368   71369
   71369       0   71371   71372   71372       0   71374   71375   71375       0
   71377   71378   71378       0   71380   71381   71381       0   71383   71384
   71384       0   71386   71387   71387       0   71389   71390   71390       0
   71392   71393   71393       0   71395   71396   71396       0   71398   71399
   71399       0   71401   71402   71402       0   71404   71405   71405       0
   71407   71408   71408       0   71410   71411   71411       0   71413   71414
   71414       0   71416   71417   71417       0   71419   71420   71420       0
   71422   71423   71423       0   71425   71426   71426       0   71428   71429
   71429       0   71431   71432   71432       0   71434   71435   71435       0
   71437   71438   71438       0   71440   71441   71441       0   71443   71444
   71444       0   71446   71447   71447       0   71449   71450   71450       0
   71452   71453   71453       0   71455   71456   71456       0   71458   71459
   71459       0   71461   71462   71462       0   71464   71465   71465       0
   71467   71468   71468       0   71470   71471   71471       0   71473   71474
   71474       0   71476   71477   71477       0   71479   71480   71480       0
   71482   71483   71483       0   71485   71486   71486       0   71488   71489
   71489       0   71491   71492   71492       0   71494   71495   71495       0
   71497   71498   71498       0   71500   71501   71501       0   71503   71504
   71504       0   71506   71507   71507       0   71509   71510   71510       0
   71512   71513   71513       0   71515   71516   71516       0   71518   71519
   71519       0   71521   71522   71522       0   71524   71525   71525       0
   71527   71528   71528       0   71530   71531   71531       0   71533   71534
   71534       0   71536   71537   71537       0   71539   71540   71540       0
   71542   71543   71543       0   71545   71546   71546       0   71548   71549
   71549       0   71551   71552   71552       0   71554   71555   71555       0
   71557   71558   71558       0   71560   71561   71561       0   71563   71564
   71564       0   71566   71567   71567       0   71569   71570   71570       0
   71572   71573   71573       0   71575   71576   71576       0   71578   71579
   71579       0   71581   71582   71582       0   71584   71585   71585       0
   71587   71588   71588       0   71590   71591   71591       0   71593   71594
   71594       0   71596   71597   71597       0   71599   71600   71600       0
   71602   71603   71603       0   71605   71606   71606       0   71608   71609
   71609       0   71611   71612   71612       0   71614   71615   71615       0
   71617   71618   71618       0   71620   71621   71621       0   71623   71624
   71624       0   71626   71627   71627       0   71629   71630   71630       0
   71632   71633   71633       0   71635   71636   71636       0   71638   71639
   71639       0   71641   71642   71642       0   71644   71645   71645       0
   71647   71648   71648       0   71650   71651   71651       0   71653   71654
   71654       0   71656   71657   71657       0   71659   71660   71660       0
   71662   71663   71663       0   71665   71666   71666       0   71668   71669
   71669       0   71671   71672   71672       0   71674   71675   71675       0
   71677   71678   71678       0   71680   71681   71681       0   71683   71684
   71684       0   71686   71687   71687       0   71689   71690   71690       0
   71692   71693   71693       0   71695   71696   71696       0   71698   71699
   71699       0   71701   71702   71702       0   71704   71705   71705       0
   71707   71708   71708       0   71710   71711   71711       0   71713   71714
   71714       0   71716   71717   71717       0   71719   71720   71720       0
   71722   71723   71723       0   71725   71726   71726       0   71728   71729
   71729       0   71731   71732   71732       0   71734   71735   71735       0
   71737   71738   71738       0   71740   71741   71741       0   71743   71744
   71744       0   71746   71747   71747       0   71749   71750   71750       0
   71752   71753   71753       0   71755   71756   71756       0   71758   71759
   71759       0   71761   71762   71762       0   71764   71765   71765       0
   71767   71768   71768       0   71770   71771   71771       0   71773   71774
   71774       0   71776   71777   71777       0   71779   71780   71780       0
   71782   71783   71783       0   71785   71786   71786       0   71788   71789
   71789       0   71791   71792   71792       0   71794   71795   71795       0
   71797   71798   71798       0   71800   71801   71801       0   71803   71804
   71804       0   71806   71807   71807       0   71809   71810   71810       0
   71812   71813   71813       0   71815   71816   71816       0   71818   71819
   71819       0   71821   71822   71822       0   71824   71825   71825       0
   71827   71828   71828       0   71830   71831   71831       0   71833   71834
   71834       0   71836   71837   71837       0   71839   71840   71840       0
   71842   71843   71843       0   71845   71846   71846       0   71848   71849
   71849       0   71851   71852   71852       0   71854   71855   71855       0
   71857   71858   71858       0   71860   71861   71861       0   71863   71864
   71864       0   71866   71867   71867       0   71869   71870   71870       0
   71872   71873   71873       0   71875   71876   71876       0   71878   71879
   71879       0   71881   71882   71882       0   71884   71885   71885       0
   71887   71888   71888       0   71890   71891   71891       0   71893   71894
   71894       0   71896   71897   71897       0   71899   71900   71900       0
   71902   71903   71903       0   71905   71906   71906       0   71908   71909
   71909       0   71911   71912   71912       0   71914   71915   71915       0
   71917   71918   71918       0   71920   71921   71921       0   71923   71924
   71924       0   71926   71927   71927       0   71929   71930   71930       0
   71932   71933   71933       0   71935   71936   71936       0   71938   71939
   71939       0   71941   71942   71942       0   71944   71945   71945       0
   71947   71948   71948       0   71950   71951   71951       0   71953   71954
   71954       0   71956   71957   71957       0   71959   71960   71960       0
   71962   71963   71963       0   71965   71966   71966       0   71968   71969
   71969       0   71971   71972   71972       0   71974   71975   71975       0
   71977   71978   71978       0   71980   71981   71981       0   71983   71984
   71984       0   71986   71987   71987       0   71989   71990   71990       0
   71992   71993   71993       0   71995   71996   71996       0   71998   71999
   71999       0   72001   72002   72002       0   72004   72005   72005       0
   72007   72008   72008       0   72010   72011   72011       0   72013   72014
   72014       0   72016   72017   72017       0   72019   72020   72020       0
   72022   72023   72023       0   72025   72026   72026       0   72028   72029
   72029       0   72031   72032   72032       0   72034   72035   72035       0
   72037   72038   72038       0   72040   72041   72041       0   72043   72044
   72044       0   72046   72047   72047       0   72049   72050   72050       0
   72052   72053   72053       0   72055   72056   72056       0   72058   72059
   72059       0   72061   72062   72062       0   72064   72065   72065       0
   72067   72068   72068       0   72070   72071   72071       0   72073   72074
   72074       0   72076   72077   72077       0   72079   72080   72080       0
   72082   72083   72083       0   72085   72086   72086       0   72088   72089
   72089       0   72091   72092   72092       0   72094   72095   72095       0
   72097   72098   72098       0   72100   72101   72101       0   72103   72104
   72104       0   72106   72107   72107       0   72109   72110   72110       0
   72112   72113   72113       0   72115   72116   72116       0   72118   72119
   72119       0   72121   72122   72122       0   72124   72125   72125       0
   72127   72128   72128       0   72130   72131   72131       0   72133   72134
   72134       0   72136   72137   72137       0   72139   72140   72140       0
   72142   72143   72143       0   72145   72146   72146       0   72148   72149
   72149       0   72151   72152   72152       0   72154   72155   72155       0
   72157   72158   72158       0   72160   72161   72161       0   72163   72164
   72164       0   72166   72167   72167       0   72169   72170   72170       0
   72172   72173   72173       0   72175   72176   72176       0   72178   72179
   72179       0   72181   72182   72182       0   72184   72185   72185       0
   72187   72188   72188       0   72190   72191   72191       0   72193   72194
   72194       0   72196   72197   72197       0   72199   72200   72200       0
   72202   72203   72203       0   72205   72206   72206       0   72208   72209
   72209       0   72211   72212   72212       0   72214   72215   72215       0
   72217   72218   72218       0   72220   72221   72221       0   72223   72224
   72224       0   72226   72227   72227       0   72229   72230   72230       0
   72232   72233   72233       0   72235   72236   72236       0   72238   72239
   72239       0   72241   72242   72242       0   72244   72245   72245       0
   72247   72248   72248       0   72250   72251   72251       0   72253   72254
   72254       0   72256   72257   72257       0   72259   72260   72260       0
   72262   72263   72263       0   72265   72266   72266       0   72268   72269
   72269       0   72271   72272   72272       0   72274   72275   72275       0
   72277   72278   72278       0   72280   72281   72281       0   72283   72284
   72284       0   72286   72287   72287       0   72289   72290   72290       0
   72292   72293   72293       0   72295   72296   72296       0   72298   72299
   72299       0   72301   72302   72302       0   72304   72305   72305       0
   72307   72308   72308       0   72310   72311   72311       0   72313   72314
   72314       0   72316   72317   72317       0   72319   72320   72320       0
   72322   72323   72323       0   72325   72326   72326       0   72328   72329
   72329       0   72331   72332   72332       0   72334   72335   72335       0
   72337   72338   72338       0   72340   72341   72341       0   72343   72344
   72344       0   72346   72347   72347       0   72349   72350   72350       0
   72352   72353   72353       0   72355   72356   72356       0   72358   72359
   72359       0   72361   72362   72362       0   72364   72365   72365       0
   72367   72368   72368       0   72370   72371   72371       0   72373   72374
   72374       0   72376   72377   72377       0   72379   72380   72380       0
   72382   72383   72383       0   72385   72386   72386       0   72388   72389
   72389       0   72391   72392   72392       0   72394   72395   72395       0
   72397   72398   72398       0   72400   72401   72401       0   72403   72404
   72404       0   72406   72407   72407       0   72409   72410   72410       0
   72412   72413   72413       0   72415   72416   72416       0   72418   72419
   72419       0   72421   72422   72422       0   72424   72425   72425       0
   72427   72428   72428       0   72430   72431   72431       0   72433   72434
   72434       0   72436   72437   72437       0   72439   72440   72440       0
   72442   72443   72443       0   72445   72446   72446       0   72448   72449
   72449       0   72451   72452   72452       0   72454   72455   72455       0
   72457   72458   72458       0   72460   72461   72461       0   72463   72464
   72464       0   72466   72467   72467       0   72469   72470   72470       0
   72472   72473   72473       0   72475   72476   72476       0   72478   72479
   72479       0   72481   72482   72482       0   72484   72485   72485       0
   72487   72488   72488       0   72490   72491   72491       0   72493   72494
   72494       0   72496   72497   72497       0   72499   72500   72500       0
   72502   72503   72503       0   72505   72506   72506       0   72508   72509
   72509       0   72511   72512   72512       0   72514   72515   72515       0
   72517   72518   72518       0   72520   72521   72521       0   72523   72524
   72524       0   72526   72527   72527       0   72529   72530   72530       0
   72532   72533   72533       0   72535   72536   72536       0   72538   72539
   72539       0   72541   72542   72542       0   72544   72545   72545       0
   72547   72548   72548       0   72550   72551   72551       0   72553   72554
   72554       0   72556   72557   72557       0   72559   72560   72560       0
   72562   72563   72563       0   72565   72566   72566       0   72568   72569
   72569       0   72571   72572   72572       0   72574   72575   72575       0
   72577   72578   72578       0   72580   72581   72581       0   72583   72584
   72584       0   72586   72587   72587       0   72589   72590   72590       0
   72592   72593   72593       0   72595   72596   72596       0   72598   72599
   72599       0   72601   72602   72602       0   72604   72605   72605       0
   72607   72608   72608       0   72610   72611   72611       0   72613   72614
   72614       0   72616   72617   72617       0   72619   72620   72620       0
   72622   72623   72623       0   72625   72626   72626       0   72628   72629
   72629       0   72631   72632   72632       0   72634   72635   72635       0
   72637   72638   72638       0   72640   72641   72641       0   72643   72644
   72644       0   72646   72647   72647       0   72649   72650   72650       0
   72652   72653   72653       0   72655   72656   72656       0   72658   72659
   72659       0   72661   72662   72662       0   72664   72665   72665       0
   72667   72668   72668       0   72670   72671   72671       0   72673   72674
   72674       0   72676   72677   72677       0   72679   72680   72680       0
   72682   72683   72683       0   72685   72686   72686       0   72688   72689
   72689       0   72691   72692   72692       0   72694   72695   72695       0
   72697   72698   72698       0   72700   72701   72701       0   72703   72704
   72704       0   72706   72707   72707       0   72709   72710   72710       0
   72712   72713   72713       0   72715   72716   72716       0   72718   72719
   72719       0   72721   72722   72722       0   72724   72725   72725       0
   72727   72728   72728       0   72730   72731   72731       0   72733   72734
   72734       0   72736   72737   72737       0   72739   72740   72740       0
   72742   72743   72743       0   72745   72746   72746       0   72748   72749
   72749       0   72751   72752   72752       0   72754   72755   72755       0
   72757   72758   72758       0   72760   72761   72761       0   72763   72764
   72764       0   72766   72767   72767       0   72769   72770   72770       0
   72772   72773   72773       0   72775   72776   72776       0   72778   72779
   72779       0   72781   72782   72782       0   72784   72785   72785       0
   72787   72788   72788       0   72790   72791   72791       0   72793   72794
   72794       0   72796   72797   72797       0   72799   72800   72800       0
   72802   72803   72803       0   72805   72806   72806       0   72808   72809
   72809       0   72811   72812   72812       0   72814   72815   72815       0
   72817   72818   72818       0   72820   72821   72821       0   72823   72824
   72824       0   72826   72827   72827       0   72829   72830   72830       0
   72832   72833   72833       0   72835   72836   72836       0   72838   72839
   72839       0   72841   72842   72842       0   72844   72845   72845       0
   72847   72848   72848       0   72850   72851   72851       0   72853   72854
   72854       0   72856   72857   72857       0   72859   72860   72860       0
   72862   72863   72863       0   72865   72866   72866       0   72868   72869
   72869       0   72871   72872   72872       0   72874   72875   72875       0
   72877   72878   72878       0   72880   72881   72881       0   72883   72884
   72884       0   72886   72887   72887       0   72889   72890   72890       0
   72892   72893   72893       0   72895   72896   72896       0   72898   72899
   72899       0   72901   72902   72902       0   72904   72905   72905       0
   72907   72908   72908       0   72910   72911   72911       0   72913   72914
   72914       0   72916   72917   72917       0   72919   72920   72920       0
   72922   72923   72923       0   72925   72926   72926       0   72928   72929
   72929       0   72931   72932   72932       0   72934   72935   72935       0
   72937   72938   72938       0   72940   72941   72941       0   72943   72944
   72944       0   72946   72947   72947       0   72949   72950   72950       0
   72952   72953   72953       0   72955   72956   72956       0   72958   72959
   72959       0   72961   72962   72962       0   72964   72965   72965       0
   72967   72968   72968       0   72970   72971   72971       0   72973   72974
   72974       0   72976   72977   72977       0   72979   72980   72980       0
   72982   72983   72983       0   72985   72986   72986       0   72988   72989
   72989       0   72991   72992   72992       0   72994   72995   72995       0
   72997   72998   72998       0   73000   73001   73001       0   73003   73004
   73004       0   73006   73007   73007       0   73009   73010   73010       0
   73012   73013   73013       0   73015   73016   73016       0   73018   73019
   73019       0   73021   73022   73022       0   73024   73025   73025       0
   73027   73028   73028       0   73030   73031   73031       0   73033   73034
   73034       0   73036   73037   73037       0   73039   73040   73040       0
   73042   73043   73043       0   73045   73046   73046       0   73048   73049
   73049       0   73051   73052   73052       0   73054   73055   73055       0
   73057   73058   73058       0   73060   73061   73061       0   73063   73064
   73064       0   73066   73067   73067       0   73069   73070   73070       0
   73072   73073   73073       0   73075   73076   73076       0   73078   73079
   73079       0   73081   73082   73082       0   73084   73085   73085       0
   73087   73088   73088       0   73090   73091   73091       0   73093   73094
   73094       0   73096   73097   73097       0   73099   73100   73100       0
   73102   73103   73103       0   73105   73106   73106       0   73108   73109
   73109       0   73111   73112   73112       0   73114   73115   73115       0
   73117   73118   73118       0   73120   73121   73121       0   73123   73124
   73124       0   73126   73127   73127       0   73129   73130   73130       0
   73132   73133   73133       0   73135   73136   73136       0   73138   73139
   73139       0   73141   73142   73142       0   73144   73145   73145       0
   73147   73148   73148       0   73150   73151   73151       0   73153   73154
   73154       0   73156   73157   73157       0   73159   73160   73160       0
   73162   73163   73163       0   73165   73166   73166       0   73168   73169
   73169       0   73171   73172   73172       0   73174   73175   73175       0
   73177   73178   73178       0   73180   73181   73181       0   73183   73184
   73184       0   73186   73187   73187       0   73189   73190   73190       0
   73192   73193   73193       0   73195   73196   73196       0   73198   73199
   73199       0   73201   73202   73202       0   73204   73205   73205       0
   73207   73208   73208       0   73210   73211   73211       0   73213   73214
   73214       0   73216   73217   73217       0   73219   73220   73220       0
   73222   73223   73223       0   73225   73226   73226       0   73228   73229
   73229       0   73231   73232   73232       0   73234   73235   73235       0
   73237   73238   73238       0   73240   73241   73241       0   73243   73244
   73244       0   73246   73247   73247       0   73249   73250   73250       0
   73252   73253   73253       0   73255   73256   73256       0   73258   73259
   73259       0   73261   73262   73262       0   73264   73265   73265       0
   73267   73268   73268       0   73270   73271   73271       0   73273   73274
   73274       0   73276   73277   73277       0   73279   73280   73280       0
   73282   73283   73283       0   73285   73286   73286       0   73288   73289
   73289       0   73291   73292   73292       0   73294   73295   73295       0
   73297   73298   73298       0   73300   73301   73301       0   73303   73304
   73304       0   73306   73307   73307       0   73309   73310   73310       0
   73312   73313   73313       0   73315   73316   73316       0   73318   73319
   73319       0   73321   73322   73322       0   73324   73325   73325       0
   73327   73328   73328       0   73330   73331   73331       0   73333   73334
   73334       0   73336   73337   73337       0   73339   73340   73340       0
   73342   73343   73343       0   73345   73346   73346       0   73348   73349
   73349       0   73351   73352   73352       0   73354   73355   73355       0
   73357   73358   73358       0   73360   73361   73361       0   73363   73364
   73364       0   73366   73367   73367       0   73369   73370   73370       0
   73372   73373   73373       0   73375   73376   73376       0   73378   73379
   73379       0   73381   73382   73382       0   73384   73385   73385       0
   73387   73388   73388       0   73390   73391   73391       0   73393   73394
   73394       0   73396   73397   73397       0   73399   73400   73400       0
   73402   73403   73403       0   73405   73406   73406       0   73408   73409
   73409       0   73411   73412   73412       0   73414   73415   73415       0
   73417   73418   73418       0   73420   73421   73421       0   73423   73424
   73424       0   73426   73427   73427       0   73429   73430   73430       0
   73432   73433   73433       0   73435   73436   73436       0   73438   73439
   73439       0   73441   73442   73442       0   73444   73445   73445       0
   73447   73448   73448       0   73450   73451   73451       0   73453   73454
   73454       0   73456   73457   73457       0   73459   73460   73460       0
   73462   73463   73463       0   73465   73466   73466       0   73468   73469
   73469       0   73471   73472   73472       0   73474   73475   73475       0
   73477   73478   73478       0   73480   73481   73481       0   73483   73484
   73484       0   73486   73487   73487       0   73489   73490   73490       0
   73492   73493   73493       0   73495   73496   73496       0   73498   73499
   73499       0   73501   73502   73502       0   73504   73505   73505       0
   73507   73508   73508       0   73510   73511   73511       0   73513   73514
   73514       0   73516   73517   73517       0   73519   73520   73520       0
   73522   73523   73523       0   73525   73526   73526       0   73528   73529
   73529       0   73531   73532   73532       0   73534   73535   73535       0
   73537   73538   73538       0   73540   73541   73541       0   73543   73544
   73544       0   73546   73547   73547       0   73549   73550   73550       0
   73552   73553   73553       0   73555   73556   73556       0   73558   73559
   73559       0   73561   73562   73562       0   73564   73565   73565       0
   73567   73568   73568       0   73570   73571   73571       0   73573   73574
   73574       0   73576   73577   73577       0   73579   73580   73580       0
   73582   73583   73583       0   73585   73586   73586       0   73588   73589
   73589       0   73591   73592   73592       0   73594   73595   73595       0
   73597   73598   73598       0   73600   73601   73601       0   73603   73604
   73604       0   73606   73607   73607       0   73609   73610   73610       0
   73612   73613   73613       0   73615   73616   73616       0   73618   73619
   73619       0   73621   73622   73622       0   73624   73625   73625       0
   73627   73628   73628       0   73630   73631   73631       0   73633   73634
   73634       0   73636   73637   73637       0   73639   73640   73640       0
   73642   73643   73643       0   73645   73646   73646       0   73648   73649
   73649       0   73651   73652   73652       0   73654   73655   73655       0
   73657   73658   73658       0   73660   73661   73661       0   73663   73664
   73664       0   73666   73667   73667       0   73669   73670   73670       0
   73672   73673   73673       0   73675   73676   73676       0   73678   73679
   73679       0   73681   73682   73682       0   73684   73685   73685       0
   73687   73688   73688       0   73690   73691   73691       0   73693   73694
   73694       0   73696   73697   73697       0   73699   73700   73700       0
   73702   73703   73703       0   73705   73706   73706       0   73708   73709
   73709       0   73711   73712   73712       0   73714   73715   73715       0
   73717   73718   73718       0   73720   73721   73721       0   73723   73724
   73724       0   73726   73727   73727       0   73729   73730   73730       0
   73732   73733   73733       0   73735   73736   73736       0   73738   73739
   73739       0   73741   73742   73742       0   73744   73745   73745       0
   73747   73748   73748       0   73750   73751   73751       0   73753   73754
   73754       0   73756   73757   73757       0   73759   73760   73760       0
   73762   73763   73763       0   73765   73766   73766       0   73768   73769
   73769       0   73771   73772   73772       0   73774   73775   73775       0
   73777   73778   73778       0   73780   73781   73781       0   73783   73784
   73784       0   73786   73787   73787       0   73789   73790   73790       0
   73792   73793   73793       0   73795   73796   73796       0   73798   73799
   73799       0   73801   73802   73802       0   73804   73805   73805       0
   73807   73808   73808       0   73810   73811   73811       0   73813   73814
   73814       0   73816   73817   73817       0   73819   73820   73820       0
   73822   73823   73823       0   73825   73826   73826       0   73828   73829
   73829       0   73831   73832   73832       0   73834   73835   73835       0
   73837   73838   73838       0   73840   73841   73841       0   73843   73844
   73844       0   73846   73847   73847       0   73849   73850   73850       0
   73852   73853   73853       0   73855   73856   73856       0   73858   73859
   73859       0   73861   73862   73862       0   73864   73865   73865       0
   73867   73868   73868       0   73870   73871   73871       0   73873   73874
   73874       0   73876   73877   73877       0   73879   73880   73880       0
   73882   73883   73883       0   73885   73886   73886       0   73888   73889
   73889       0   73891   73892   73892       0   73894   73895   73895       0
   73897   73898   73898       0   73900   73901   73901       0   73903   73904
   73904       0   73906   73907   73907       0   73909   73910   73910       0
   73912   73913   73913       0   73915   73916   73916       0   73918   73919
   73919       0   73921   73922   73922       0   73924   73925   73925       0
   73927   73928   73928       0   73930   73931   73931       0   73933   73934
   73934       0   73936   73937   73937       0   73939   73940   73940       0
   73942   73943   73943       0   73945   73946   73946       0   73948   73949
   73949       0   73951   73952   73952       0   73954   73955   73955       0
   73957   73958   73958       0   73960   73961   73961       0   73963   73964
   73964       0   73966   73967   73967       0   73969   73970   73970       0
   73972   73973   73973       0   73975   73976   73976       0   73978   73979
   73979       0   73981   73982   73982       0   73984   73985   73985       0
   73987   73988   73988       0   73990   73991   73991       0   73993   73994
   73994       0   73996   73997   73997       0   73999   74000   74000       0
   74002   74003   74003       0   74005   74006   74006       0   74008   74009
   74009       0   74011   74012   74012       0   74014   74015   74015       0
   74017   74018   74018       0   74020   74021   74021       0   74023   74024
   74024       0   74026   74027   74027       0   74029   74030   74030       0
   74032   74033   74033       0   74035   74036   74036       0   74038   74039
   74039       0   74041   74042   74042       0   74044   74045   74045       0
   74047   74048   74048       0   74050   74051   74051       0   74053   74054
   74054       0   74056   74057   74057       0   74059   74060   74060       0
   74062   74063   74063       0   74065   74066   74066       0   74068   74069
   74069       0   74071   74072   74072       0   74074   74075   74075       0
   74077   74078   74078       0   74080   74081   74081       0   74083   74084
   74084       0   74086   74087   74087       0   74089   74090   74090       0
   74092   74093   74093       0   74095   74096   74096       0   74098   74099
   74099       0   74101   74102   74102       0   74104   74105   74105       0
   74107   74108   74108       0   74110   74111   74111       0   74113   74114
   74114       0   74116   74117   74117       0   74119   74120   74120       0
   74122   74123   74123       0   74125   74126   74126       0   74128   74129
   74129       0   74131   74132   74132       0   74134   74135   74135       0
   74137   74138   74138       0   74140   74141   74141       0   74143   74144
   74144       0   74146   74147   74147       0   74149   74150   74150       0
   74152   74153   74153       0   74155   74156   74156       0   74158   74159
   74159       0   74161   74162   74162       0   74164   74165   74165       0
   74167   74168   74168       0   74170   74171   74171       0   74173   74174
   74174       0   74176   74177   74177       0   74179   74180   74180       0
   74182   74183   74183       0   74185   74186   74186       0   74188   74189
   74189       0   74191   74192   74192       0   74194   74195   74195       0
   74197   74198   74198       0   74200   74201   74201       0   74203   74204
   74204       0   74206   74207   74207       0   74209   74210   74210       0
   74212   74213   74213       0   74215   74216   74216       0   74218   74219
   74219       0   74221   74222   74222       0   74224   74225   74225       0
   74227   74228   74228       0   74230   74231   74231       0   74233   74234
   74234       0   74236   74237   74237       0   74239   74240   74240       0
   74242   74243   74243       0   74245   74246   74246       0   74248   74249
   74249       0   74251   74252   74252       0   74254   74255   74255       0
   74257   74258   74258       0   74260   74261   74261       0   74263   74264
   74264       0   74266   74267   74267       0   74269   74270   74270       0
   74272   74273   74273       0   74275   74276   74276       0   74278   74279
   74279       0   74281   74282   74282       0   74284   74285   74285       0
   74287   74288   74288       0   74290   74291   74291       0   74293   74294
   74294       0   74296   74297   74297       0   74299   74300   74300       0
   74302   74303   74303       0   74305   74306   74306       0   74308   74309
   74309       0   74311   74312   74312       0   74314   74315   74315       0
   74317   74318   74318       0   74320   74321   74321       0   74323   74324
   74324       0   74326   74327   74327       0   74329   74330   74330       0
   74332   74333   74333       0   74335   74336   74336       0   74338   74339
   74339       0   74341   74342   74342       0   74344   74345   74345       0
   74347   74348   74348       0   74350   74351   74351       0   74353   74354
   74354       0   74356   74357   74357       0   74359   74360   74360       0
   74362   74363   74363       0   74365   74366   74366       0   74368   74369
   74369       0   74371   74372   74372       0   74374   74375   74375       0
   74377   74378   74378       0   74380   74381   74381       0   74383   74384
   74384       0   74386   74387   74387       0   74389   74390   74390       0
   74392   74393   74393       0   74395   74396   74396       0   74398   74399
   74399       0   74401   74402   74402       0   74404   74405   74405       0
   74407   74408   74408       0   74410   74411   74411       0   74413   74414
   74414       0   74416   74417   74417       0   74419   74420   74420       0
   74422   74423   74423       0   74425   74426   74426       0   74428   74429
   74429       0   74431   74432   74432       0   74434   74435   74435       0
   74437   74438   74438       0   74440   74441   74441       0   74443   74444
   74444       0   74446   74447   74447       0   74449   74450   74450       0
   74452   74453   74453       0   74455   74456   74456       0   74458   74459
   74459       0   74461   74462   74462       0   74464   74465   74465       0
   74467   74468   74468       0   74470   74471   74471       0   74473   74474
   74474       0   74476   74477   74477       0   74479   74480   74480       0
   74482   74483   74483       0   74485   74486   74486       0   74488   74489
   74489       0   74491   74492   74492       0   74494   74495   74495       0
   74497   74498   74498       0   74500   74501   74501       0   74503   74504
   74504       0   74506   74507   74507       0   74509   74510   74510       0
   74512   74513   74513       0   74515   74516   74516       0   74518   74519
   74519       0   74521   74522   74522       0   74524   74525   74525       0
   74527   74528   74528       0   74530   74531   74531       0   74533   74534
   74534       0   74536   74537   74537       0   74539   74540   74540       0
   74542   74543   74543       0   74545   74546   74546       0   74548   74549
   74549       0   74551   74552   74552       0   74554   74555   74555       0
   74557   74558   74558       0   74560   74561   74561       0   74563   74564
   74564       0   74566   74567   74567       0   74569   74570   74570       0
   74572   74573   74573       0   74575   74576   74576       0   74578   74579
   74579       0   74581   74582   74582       0   74584   74585   74585       0
   74587   74588   74588       0   74590   74591   74591       0   74593   74594
   74594       0   74596   74597   74597       0   74599   74600   74600       0
   74602   74603   74603       0   74605   74606   74606       0   74608   74609
   74609       0   74611   74612   74612       0   74614   74615   74615       0
   74617   74618   74618       0   74620   74621   74621       0   74623   74624
   74624       0   74626   74627   74627       0   74629   74630   74630       0
   74632   74633   74633       0   74635   74636   74636       0   74638   74639
   74639       0   74641   74642   74642       0   74644   74645   74645       0
   74647   74648   74648       0   74650   74651   74651       0   74653   74654
   74654       0   74656   74657   74657       0   74659   74660   74660       0
   74662   74663   74663       0   74665   74666   74666       0   74668   74669
   74669       0   74671   74672   74672       0   74674   74675   74675       0
   74677   74678   74678       0   74680   74681   74681       0   74683   74684
   74684       0   74686   74687   74687       0   74689   74690   74690       0
   74692   74693   74693       0   74695   74696   74696       0   74698   74699
   74699       0   74701   74702   74702       0   74704   74705   74705       0
   74707   74708   74708       0   74710   74711   74711       0   74713   74714
   74714       0   74716   74717   74717       0   74719   74720   74720       0
   74722   74723   74723       0   74725   74726   74726       0   74728   74729
   74729       0   74731   74732   74732       0   74734   74735   74735       0
   74737   74738   74738       0   74740   74741   74741       0   74743   74744
   74744       0   74746   74747   74747       0   74749   74750   74750       0
   74752   74753   74753       0   74755   74756   74756       0   74758   74759
   74759       0   74761   74762   74762       0   74764   74765   74765       0
   74767   74768   74768       0   74770   74771   74771       0   74773   74774
   74774       0   74776   74777   74777       0   74779   74780   74780       0
   74782   74783   74783       0   74785   74786   74786       0   74788   74789
   74789       0   74791   74792   74792       0   74794   74795   74795       0
   74797   74798   74798       0   74800   74801   74801       0   74803   74804
   74804       0   74806   74807   74807       0   74809   74810   74810       0
   74812   74813   74813       0   74815   74816   74816       0   74818   74819
   74819       0   74821   74822   74822       0   74824   74825   74825       0
   74827   74828   74828       0   74830   74831   74831       0   74833   74834
   74834       0   74836   74837   74837       0   74839   74840   74840       0
   74842   74843   74843       0   74845   74846   74846       0   74848   74849
   74849       0   74851   74852   74852       0   74854   74855   74855       0
   74857   74858   74858       0   74860   74861   74861       0   74863   74864
   74864       0   74866   74867   74867       0   74869   74870   74870       0
   74872   74873   74873       0   74875   74876   74876       0   74878   74879
   74879       0   74881   74882   74882       0   74884   74885   74885       0
   74887   74888   74888       0   74890   74891   74891       0   74893   74894
   74894       0   74896   74897   74897       0   74899   74900   74900       0
   74902   74903   74903       0   74905   74906   74906       0   74908   74909
   74909       0   74911   74912   74912       0   74914   74915   74915       0
   74917   74918   74918       0   74920   74921   74921       0   74923   74924
   74924       0   74926   74927   74927       0   74929   74930   74930       0
   74932   74933   74933       0   74935   74936   74936       0   74938   74939
   74939       0   74941   74942   74942       0   74944   74945   74945       0
   74947   74948   74948       0   74950   74951   74951       0   74953   74954
   74954       0   74956   74957   74957       0   74959   74960   74960       0
   74962   74963   74963       0   74965   74966   74966       0   74968   74969
   74969       0   74971   74972   74972       0   74974   74975   74975       0
   74977   74978   74978       0   74980   74981   74981       0   74983   74984
   74984       0   74986   74987   74987       0   74989   74990   74990       0
   74992   74993   74993       0   74995   74996   74996       0   74998   74999
   74999       0   75001   75002   75002       0   75004   75005   75005       0
   75007   75008   75008       0   75010   75011   75011       0   75013   75014
   75014       0   75016   75017   75017       0   75019   75020   75020       0
   75022   75023   75023       0   75025   75026   75026       0   75028   75029
   75029       0   75031   75032   75032       0   75034   75035   75035       0
   75037   75038   75038       0   75040   75041   75041       0   75043   75044
   75044       0   75046   75047   75047       0   75049   75050   75050       0
   75052   75053   75053       0   75055   75056   75056       0   75058   75059
   75059       0   75061   75062   75062       0   75064   75065   75065       0
   75067   75068   75068       0   75070   75071   75071       0   75073   75074
   75074       0   75076   75077   75077       0   75079   75080   75080       0
   75082   75083   75083       0   75085   75086   75086       0   75088   75089
   75089       0   75091   75092   75092       0   75094   75095   75095       0
   75097   75098   75098       0   75100   75101   75101       0   75103   75104
   75104       0   75106   75107   75107       0   75109   75110   75110       0
   75112   75113   75113       0   75115   75116   75116       0   75118   75119
   75119       0   75121   75122   75122       0   75124   75125   75125       0
   75127   75128   75128       0   75130   75131   75131       0   75133   75134
   75134       0   75136   75137   75137       0   75139   75140   75140       0
   75142   75143   75143       0   75145   75146   75146       0   75148   75149
   75149       0   75151   75152   75152       0   75154   75155   75155       0
   75157   75158   75158       0   75160   75161   75161       0   75163   75164
   75164       0   75166   75167   75167       0   75169   75170   75170       0
   75172   75173   75173       0   75175   75176   75176       0   75178   75179
   75179       0   75181   75182   75182       0   75184   75185   75185       0
   75187   75188   75188       0   75190   75191   75191       0   75193   75194
   75194       0   75196   75197   75197       0   75199   75200   75200       0
   75202   75203   75203       0   75205   75206   75206       0   75208   75209
   75209       0   75211   75212   75212       0   75214   75215   75215       0
   75217   75218   75218       0   75220   75221   75221       0   75223   75224
   75224       0   75226   75227   75227       0   75229   75230   75230       0
   75232   75233   75233       0   75235   75236   75236       0   75238   75239
   75239       0   75241   75242   75242       0   75244   75245   75245       0
   75247   75248   75248       0   75250   75251   75251       0   75253   75254
   75254       0   75256   75257   75257       0   75259   75260   75260       0
   75262   75263   75263       0   75265   75266   75266       0   75268   75269
   75269       0   75271   75272   75272       0   75274   75275   75275       0
   75277   75278   75278       0   75280   75281   75281       0   75283   75284
   75284       0   75286   75287   75287       0   75289   75290   75290       0
   75292   75293   75293       0   75295   75296   75296       0   75298   75299
   75299       0   75301   75302   75302       0   75304   75305   75305       0
   75307   75308   75308       0   75310   75311   75311       0   75313   75314
   75314       0   75316   75317   75317       0   75319   75320   75320       0
   75322   75323   75323       0   75325   75326   75326       0   75328   75329
   75329       0   75331   75332   75332       0   75334   75335   75335       0
   75337   75338   75338       0   75340   75341   75341       0   75343   75344
   75344       0   75346   75347   75347       0   75349   75350   75350       0
   75352   75353   75353       0   75355   75356   75356       0   75358   75359
   75359       0   75361   75362   75362       0   75364   75365   75365       0
   75367   75368   75368       0   75370   75371   75371       0   75373   75374
   75374       0   75376   75377   75377       0   75379   75380   75380       0
   75382   75383   75383       0   75385   75386   75386       0   75388   75389
   75389       0   75391   75392   75392       0   75394   75395   75395       0
   75397   75398   75398       0   75400   75401   75401       0   75403   75404
   75404       0   75406   75407   75407       0   75409   75410   75410       0
   75412   75413   75413       0   75415   75416   75416       0   75418   75419
   75419       0   75421   75422   75422       0   75424   75425   75425       0
   75427   75428   75428       0   75430   75431   75431       0   75433   75434
   75434       0   75436   75437   75437       0   75439   75440   75440       0
   75442   75443   75443       0   75445   75446   75446       0   75448   75449
   75449       0   75451   75452   75452       0   75454   75455   75455       0
   75457   75458   75458       0   75460   75461   75461       0   75463   75464
   75464       0   75466   75467   75467       0   75469   75470   75470       0
   75472   75473   75473       0   75475   75476   75476       0   75478   75479
   75479       0   75481   75482   75482       0   75484   75485   75485       0
   75487   75488   75488       0   75490   75491   75491       0   75493   75494
   75494       0   75496   75497   75497       0   75499   75500   75500       0
   75502   75503   75503       0   75505   75506   75506       0   75508   75509
   75509       0   75511   75512   75512       0   75514   75515   75515       0
   75517   75518   75518       0   75520   75521   75521       0   75523   75524
   75524       0   75526   75527   75527       0   75529   75530   75530       0
   75532   75533   75533       0   75535   75536   75536       0   75538   75539
   75539       0   75541   75542   75542       0   75544   75545   75545       0
   75547   75548   75548       0   75550   75551   75551       0   75553   75554
   75554       0   75556   75557   75557       0   75559   75560   75560       0
   75562   75563   75563       0   75565   75566   75566       0   75568   75569
   75569       0   75571   75572   75572       0   75574   75575   75575       0
   75577   75578   75578       0   75580   75581   75581       0   75583   75584
   75584       0   75586   75587   75587       0   75589   75590   75590       0
   75592   75593   75593       0   75595   75596   75596       0   75598   75599
   75599       0   75601   75602   75602       0   75604   75605   75605       0
   75607   75608   75608       0   75610   75611   75611       0   75613   75614
   75614       0   75616   75617   75617       0   75619   75620   75620       0
   75622   75623   75623       0   75625   75626   75626       0   75628   75629
   75629       0   75631   75632   75632       0   75634   75635   75635       0
   75637   75638   75638       0   75640   75641   75641       0   75643   75644
   75644       0   75646   75647   75647       0   75649   75650   75650       0
   75652   75653   75653       0   75655   75656   75656       0   75658   75659
   75659       0   75661   75662   75662       0   75664   75665   75665       0
   75667   75668   75668       0   75670   75671   75671       0   75673   75674
   75674       0   75676   75677   75677       0   75679   75680   75680       0
   75682   75683   75683       0   75685   75686   75686       0   75688   75689
   75689       0   75691   75692   75692       0   75694   75695   75695       0
   75697   75698   75698       0   75700   75701   75701       0   75703   75704
   75704       0   75706   75707   75707       0   75709   75710   75710       0
   75712   75713   75713       0   75715   75716   75716       0   75718   75719
   75719       0   75721   75722   75722       0   75724   75725   75725       0
   75727   75728   75728       0   75730   75731   75731       0   75733   75734
   75734       0   75736   75737   75737       0   75739   75740   75740       0
   75742   75743   75743       0   75745   75746   75746       0   75748   75749
   75749       0   75751   75752   75752       0   75754   75755   75755       0
   75757   75758   75758       0   75760   75761   75761       0   75763   75764
   75764       0   75766   75767   75767       0   75769   75770   75770       0
   75772   75773   75773       0   75775   75776   75776       0   75778   75779
   75779       0   75781   75782   75782       0   75784   75785   75785       0
   75787   75788   75788       0   75790   75791   75791       0   75793   75794
   75794       0   75796   75797   75797       0   75799   75800   75800       0
   75802   75803   75803       0   75805   75806   75806       0   75808   75809
   75809       0   75811   75812   75812       0   75814   75815   75815       0
   75817   75818   75818       0   75820   75821   75821       0   75823   75824
   75824       0   75826   75827   75827       0   75829   75830   75830       0
   75832   75833   75833       0   75835   75836   75836       0   75838   75839
   75839       0   75841   75842   75842       0   75844   75845   75845       0
   75847   75848   75848       0   75850   75851   75851       0   75853   75854
   75854       0   75856   75857   75857       0   75859   75860   75860       0
   75862   75863   75863       0   75865   75866   75866       0   75868   75869
   75869       0   75871   75872   75872       0   75874   75875   75875       0
   75877   75878   75878       0   75880   75881   75881       0   75883   75884
   75884       0   75886   75887   75887       0   75889   75890   75890       0
   75892   75893   75893       0   75895   75896   75896       0   75898   75899
   75899       0   75901   75902   75902       0   75904   75905   75905       0
   75907   75908   75908       0   75910   75911   75911       0   75913   75914
   75914       0   75916   75917   75917       0   75919   75920   75920       0
   75922   75923   75923       0   75925   75926   75926       0   75928   75929
   75929       0   75931   75932   75932       0   75934   75935   75935       0
   75937   75938   75938       0   75940   75941   75941       0   75943   75944
   75944       0   75946   75947   75947       0   75949   75950   75950       0
   75952   75953   75953       0   75955   75956   75956       0   75958   75959
   75959       0   75961   75962   75962       0   75964   75965   75965       0
   75967   75968   75968       0   75970   75971   75971       0   75973   75974
   75974       0   75976   75977   75977       0   75979   75980   75980       0
   75982   75983   75983       0   75985   75986   75986       0   75988   75989
   75989       0   75991   75992   75992       0   75994   75995   75995       0
   75997   75998   75998       0   76000   76001   76001       0   76003   76004
   76004       0   76006   76007   76007       0   76009   76010   76010       0
   76012   76013   76013       0   76015   76016   76016       0   76018   76019
   76019       0   76021   76022   76022       0   76024   76025   76025       0
   76027   76028   76028       0   76030   76031   76031       0   76033   76034
   76034       0   76036   76037   76037       0   76039   76040   76040       0
   76042   76043   76043       0   76045   76046   76046       0   76048   76049
   76049       0   76051   76052   76052       0   76054   76055   76055       0
   76057   76058   76058       0   76060   76061   76061       0   76063   76064
   76064       0   76066   76067   76067       0   76069   76070   76070       0
   76072   76073   76073       0   76075   76076   76076       0   76078   76079
   76079       0   76081   76082   76082       0   76084   76085   76085       0
   76087   76088   76088       0   76090   76091   76091       0   76093   76094
   76094       0   76096   76097   76097       0   76099   76100   76100       0
   76102   76103   76103       0   76105   76106   76106       0   76108   76109
   76109       0   76111   76112   76112       0   76114   76115   76115       0
   76117   76118   76118       0   76120   76121   76121       0   76123   76124
   76124       0   76126   76127   76127       0   76129   76130   76130       0
   76132   76133   76133       0   76135   76136   76136       0   76138   76139
   76139       0   76141   76142   76142       0   76144   76145   76145       0
   76147   76148   76148       0   76150   76151   76151       0   76153   76154
   76154       0   76156   76157   76157       0   76159   76160   76160       0
   76162   76163   76163       0   76165   76166   76166       0   76168   76169
   76169       0   76171   76172   76172       0   76174   76175   76175       0
   76177   76178   76178       0   76180   76181   76181       0   76183   76184
   76184       0   76186   76187   76187       0   76189   76190   76190       0
   76192   76193   76193       0   76195   76196   76196       0   76198   76199
   76199       0   76201   76202   76202       0   76204   76205   76205       0
   76207   76208   76208       0   76210   76211   76211       0   76213   76214
   76214       0   76216   76217   76217       0   76219   76220   76220       0
   76222   76223   76223       0   76225   76226   76226       0   76228   76229
   76229       0   76231   76232   76232       0   76234   76235   76235       0
   76237   76238   76238       0   76240   76241   76241       0   76243   76244
   76244       0   76246   76247   76247       0   76249   76250   76250       0
   76252   76253   76253       0   76255   76256   76256       0   76258   76259
   76259       0   76261   76262   76262       0   76264   76265   76265       0
   76267   76268   76268       0   76270   76271   76271       0   76273   76274
   76274       0   76276   76277   76277       0   76279   76280   76280       0
   76282   76283   76283       0   76285   76286   76286       0   76288   76289
   76289       0   76291   76292   76292       0   76294   76295   76295       0
   76297   76298   76298       0   76300   76301   76301       0   76303   76304
   76304       0   76306   76307   76307       0   76309   76310   76310       0
   76312   76313   76313       0   76315   76316   76316       0   76318   76319
   76319       0   76321   76322   76322       0   76324   76325   76325       0
   76327   76328   76328       0   76330   76331   76331       0   76333   76334
   76334       0   76336   76337   76337       0   76339   76340   76340       0
   76342   76343   76343       0   76345   76346   76346       0   76348   76349
   76349       0   76351   76352   76352       0   76354   76355   76355       0
   76357   76358   76358       0   76360   76361   76361       0   76363   76364
   76364       0   76366   76367   76367       0   76369   76370   76370       0
   76372   76373   76373       0   76375   76376   76376       0   76378   76379
   76379       0   76381   76382   76382       0   76384   76385   76385       0
   76387   76388   76388       0   76390   76391   76391       0   76393   76394
   76394       0   76396   76397   76397       0   76399   76400   76400       0
   76402   76403   76403       0   76405   76406   76406       0   76408   76409
   76409       0   76411   76412   76412       0   76414   76415   76415       0
   76417   76418   76418       0   76420   76421   76421       0   76423   76424
   76424       0   76426   76427   76427       0   76429   76430   76430       0
   76432   76433   76433       0   76435   76436   76436       0   76438   76439
   76439       0   76441   76442   76442       0   76444   76445   76445       0
   76447   76448   76448       0   76450   76451   76451       0   76453   76454
   76454       0   76456   76457   76457       0   76459   76460   76460       0
   76462   76463   76463       0   76465   76466   76466       0   76468   76469
   76469       0   76471   76472   76472       0   76474   76475   76475       0
   76477   76478   76478       0   76480   76481   76481       0   76483   76484
   76484       0   76486   76487   76487       0   76489   76490   76490       0
   76492   76493   76493       0   76495   76496   76496       0   76498   76499
   76499       0   76501   76502   76502       0   76504   76505   76505       0
   76507   76508   76508       0   76510   76511   76511       0   76513   76514
   76514       0   76516   76517   76517       0   76519   76520   76520       0
   76522   76523   76523       0   76525   76526   76526       0   76528   76529
   76529       0   76531   76532   76532       0   76534   76535   76535       0
   76537   76538   76538       0   76540   76541   76541       0   76543   76544
   76544       0   76546   76547   76547       0   76549   76550   76550       0
   76552   76553   76553       0   76555   76556   76556       0   76558   76559
   76559       0   76561   76562   76562       0   76564   76565   76565       0
   76567   76568   76568       0   76570   76571   76571       0   76573   76574
   76574       0   76576   76577   76577       0   76579   76580   76580       0
   76582   76583   76583       0   76585   76586   76586       0   76588   76589
   76589       0   76591   76592   76592       0   76594   76595   76595       0
   76597   76598   76598       0   76600   76601   76601       0   76603   76604
   76604       0   76606   76607   76607       0   76609   76610   76610       0
   76612   76613   76613       0   76615   76616   76616       0   76618   76619
   76619       0   76621   76622   76622       0   76624   76625   76625       0
   76627   76628   76628       0   76630   76631   76631       0   76633   76634
   76634       0   76636   76637   76637       0   76639   76640   76640       0
   76642   76643   76643       0   76645   76646   76646       0   76648   76649
   76649       0   76651   76652   76652       0   76654   76655   76655       0
   76657   76658   76658       0   76660   76661   76661       0   76663   76664
   76664       0
%FLAG HBOND_ACOEF                                                               
%FORMAT(5E16.8)                                                                 

%FLAG HBOND_BCOEF                                                               
%FORMAT(5E16.8)                                                                 

%FLAG HBCUT                                                                     
%FORMAT(5E16.8)                                                                 

%FLAG AMBER_ATOM_TYPE                                                           
%FORMAT(20a4)                                                                   
n3  c3  o   c3  n3  o   c3  n3  o   c3  o   c3  o   c3  o   c3  c   c3  c   c3  
c   h1  h1  h1  h1  h1  h1  h1  h1  h1  h1  h1  h1  h1  h1  h1  h1  h1  h1  Zn2+
Na+ OW  HW  HW  OW  HW  HW  OW  HW  HW  OW  HW  HW  OW  HW  HW  OW  HW  HW  OW  
HW  HW  OW  HW  HW  OW  HW  HW  OW  HW  HW  OW  HW  HW  OW  HW  HW  OW  HW  HW  
OW  HW  HW  OW  HW  HW  OW  HW  HW  OW  HW  HW  OW  HW  HW  OW  HW  HW  OW  HW  
HW  OW  HW  HW  OW  HW  HW  OW  HW  HW  OW  HW  HW  OW  HW  HW  OW  HW  HW  OW  
HW  HW  OW  HW  HW  OW  HW  HW  OW  HW  HW  OW  HW  HW  OW  HW  HW  OW  HW  HW  
OW  HW  HW  OW  HW  HW  OW  HW  HW  OW  HW  HW  OW  HW  HW  OW  HW  HW  OW  HW  
HW  OW  HW  HW  OW  HW  HW  OW  HW  HW  OW  HW  HW  OW  HW  HW  OW  HW  HW  OW  
HW  HW  OW  HW  HW  OW  HW  HW  OW  HW  HW  OW  HW  HW  OW  HW  HW  OW  HW  HW  
OW  HW  HW  OW  HW  HW  OW  HW  HW  OW  HW  HW  OW  HW  HW  OW  HW  HW  OW  HW  
HW  OW  HW  HW  OW  HW  HW  OW  HW  HW  OW  HW  HW  OW  HW  HW  OW  HW  HW  OW  
HW  HW  OW  HW  HW  OW  HW  HW  OW  HW  HW  OW  HW  HW  OW  HW  HW  OW  HW  HW  
OW  HW  HW  OW  HW  HW  OW  HW  HW  OW  HW  HW  OW  HW  HW  OW  HW  HW  OW  HW  
HW  OW  HW  HW  OW  HW  HW  OW  HW  HW  OW  HW  HW  OW  HW  HW  OW  HW  HW  OW  
HW  HW  OW  HW  HW  OW  HW  HW  OW  HW  HW  OW  HW  HW  OW  HW  HW  OW  HW  HW  
OW  HW  HW  OW  HW  HW  OW  HW  HW  OW  HW  HW  OW  HW  HW  OW  HW  HW  OW  HW  
HW  OW  HW  HW  OW  HW  HW  OW  HW  HW  OW  HW  HW  OW  HW  HW  OW  HW  HW  OW  
HW  HW  OW  HW  HW  OW  HW  HW  OW  HW  HW  OW  HW  HW  OW  HW  HW  OW  HW  HW  
OW  HW  HW  OW  HW  HW  OW  HW  HW  OW  HW  HW  OW  HW  HW  OW  HW  HW  OW  HW  
HW  OW  HW  HW  OW  HW  HW  OW  HW  HW  OW  HW  HW  OW  HW  HW  OW  HW  HW  OW  
HW  HW  OW  HW  HW  OW  HW  HW  OW  HW  HW  OW  HW  HW  OW  HW  HW  OW  HW  HW  
OW  HW  HW  OW  HW  HW  OW  HW  HW  OW  HW  HW  OW  HW  HW  OW  HW  HW  OW  HW  
HW  OW  HW  HW  OW  HW  HW  OW  HW  HW  OW  HW  HW  OW  HW  HW  OW  HW  HW  OW  
HW  HW  OW  HW  HW  OW  HW  HW  OW  HW  HW  OW  HW  HW  OW  HW  HW  OW  HW  HW  
OW  HW  HW  OW  HW  HW  OW  HW  HW  OW  HW  HW  OW  HW  HW  OW  HW  HW  OW  HW  
HW  OW  HW  HW  OW  HW  HW  OW  HW  HW  OW  HW  HW  OW  HW  HW  OW  HW  HW  OW  
HW  HW  OW  HW  HW  OW  HW  HW  OW  HW  HW  OW  HW  HW  OW  HW  HW  OW  HW  HW  
OW  HW  HW  OW  HW  HW  OW  HW  HW  OW  HW  HW  OW  HW  HW  OW  HW  HW  OW  HW  
HW  OW  HW  HW  OW  HW  HW  OW  HW  HW  OW  HW  HW  OW  HW  HW  OW  HW  HW  OW  
HW  HW  OW  HW  HW  OW  HW  HW  OW  HW  HW  OW  HW  HW  OW  HW  HW  OW  HW  HW  
OW  HW  HW  OW  HW  HW  OW  HW  HW  OW  HW  HW  OW  HW  HW  OW  HW  HW  OW  HW  
HW  OW  HW  HW  OW  HW  HW  OW  HW  HW  OW  HW  HW  OW  HW  HW  OW  HW  HW  OW  
HW  HW  OW  HW  HW  OW  HW  HW  OW  HW  HW  OW  HW  HW  OW  HW  HW  OW  HW  HW  
OW  HW  HW  OW  HW  HW  OW  HW  HW  OW  HW  HW  OW  HW  HW  OW  HW  HW  OW  HW  
HW  OW  HW  HW  OW  HW  HW  OW  HW  HW  OW  HW  HW  OW  HW  HW  OW  HW  HW  OW  
HW  HW  OW  HW  HW  OW  HW  HW  OW  HW  HW  OW  HW  HW  OW  HW  HW  OW  HW  HW  
OW  HW  HW  OW  HW  HW  OW  HW  HW  OW  HW  HW  OW  HW  HW  OW  HW  HW  OW  HW  
HW  OW  HW  HW  OW  HW  HW  OW  HW  HW  OW  HW  HW  OW  HW  HW  OW  HW  HW  OW  
HW  HW  OW  HW  HW  OW  HW  HW  OW  HW  HW  OW  HW  HW  OW  HW  HW  OW  HW  HW  
OW  HW  HW  OW  HW  HW  OW  HW  HW  OW  HW  HW  OW  HW  HW  OW  HW  HW  OW  HW  
HW  OW  HW  HW  OW  HW  HW  OW  HW  HW  OW  HW  HW  OW  HW  HW  OW  HW  HW  OW  
HW  HW  OW  HW  HW  OW  HW  HW  OW  HW  HW  OW  HW  HW  OW  HW  HW  OW  HW  HW  
OW  HW  HW  OW  HW  HW  OW  HW  HW  OW  HW  HW  OW  HW  HW  OW  HW  HW  OW  HW  
HW  OW  HW  HW  OW  HW  HW  OW  HW  HW  OW  HW  HW  OW  HW  HW  OW  HW  HW  OW  
HW  HW  OW  HW  HW  OW  HW  HW  OW  HW  HW  OW  HW  HW  OW  HW  HW  OW  HW  HW  
OW  HW  HW  OW  HW  HW  OW  HW  HW  OW  HW  HW  OW  HW  HW  OW  HW  HW  OW  HW  
HW  OW  HW  HW  OW  HW  HW  OW  HW  HW  OW  HW  HW  OW  HW  HW  OW  HW  HW  OW  
HW  HW  OW  HW  HW  OW  HW  HW  OW  HW  HW  OW  HW  HW  OW  HW  HW  OW  HW  HW  
OW  HW  HW  OW  HW  HW  OW  HW  HW  OW  HW  HW  OW  HW  HW  OW  HW  HW  OW  HW  
HW  OW  HW  HW  OW  HW  HW  OW  HW  HW  OW  HW  HW  OW  HW  HW  OW  HW  HW  OW  
HW  HW  OW  HW  HW  OW  HW  HW  OW  HW  HW  OW  HW  HW  OW  HW  HW  OW  HW  HW  
OW  HW  HW  OW  HW  HW  OW  HW  HW  OW  HW  HW  OW  HW  HW  OW  HW  HW  OW  HW  
HW  OW  HW  HW  OW  HW  HW  OW  HW  HW  OW  HW  HW  OW  HW  HW  OW  HW  HW  OW  
HW  HW  OW  HW  HW  OW  HW  HW  OW  HW  HW  OW  HW  HW  OW  HW  HW  OW  HW  HW  
OW  HW  HW  OW  HW  HW  OW  HW  HW  OW  HW  HW  OW  HW  HW  OW  HW  HW  OW  HW  
HW  OW  HW  HW  OW  HW  HW  OW  HW  HW  OW  HW  HW  OW  HW  HW  OW  HW  HW  OW  
HW  HW  OW  HW  HW  OW  HW  HW  OW  HW  HW  OW  HW  HW  OW  HW  HW  OW  HW  HW  
OW  HW  HW  OW  HW  HW  OW  HW  HW  OW  HW  HW  OW  HW  HW  OW  HW  HW  OW  HW  
HW  OW  HW  HW  OW  HW  HW  OW  HW  HW  OW  HW  HW  OW  HW  HW  OW  HW  HW  OW  
HW  HW  OW  HW  HW  OW  HW  HW  OW  HW  HW  OW  HW  HW  OW  HW  HW  OW  HW  HW  
OW  HW  HW  OW  HW  HW  OW  HW  HW  OW  HW  HW  OW  HW  HW  OW  HW  HW  OW  HW  
HW  OW  HW  HW  OW  HW  HW  OW  HW  HW  OW  HW  HW  OW  HW  HW  OW  HW  HW  OW  
HW  HW  OW  HW  HW  OW  HW  HW  OW  HW  HW  OW  HW  HW  OW  HW  HW  OW  HW  HW  
OW  HW  HW  OW  HW  HW  OW  HW  HW  OW  HW  HW  OW  HW  HW  OW  HW  HW  OW  HW  
HW  OW  HW  HW  OW  HW  HW  OW  HW  HW  OW  HW  HW  OW  HW  HW  OW  HW  HW  OW  
HW  HW  OW  HW  HW  OW  HW  HW  OW  HW  HW  OW  HW  HW  OW  HW  HW  OW  HW  HW  
OW  HW  HW  OW  HW  HW  OW  HW  HW  OW  HW  HW  OW  HW  HW  OW  HW  HW  OW  HW  
HW  OW  HW  HW  OW  HW  HW  OW  HW  HW  OW  HW  HW  OW  HW  HW  OW  HW  HW  OW  
HW  HW  OW  HW  HW  OW  HW  HW  OW  HW  HW  OW  HW  HW  OW  HW  HW  OW  HW  HW  
OW  HW  HW  OW  HW  HW  OW  HW  HW  OW  HW  HW  OW  HW  HW  OW  HW  HW  OW  HW  
HW  OW  HW  HW  OW  HW  HW  OW  HW  HW  OW  HW  HW  OW  HW  HW  OW  HW  HW  OW  
HW  HW  OW  HW  HW  OW  HW  HW  OW  HW  HW  OW  HW  HW  OW  HW  HW  OW  HW  HW  
OW  HW  HW  OW  HW  HW  OW  HW  HW  OW  HW  HW  OW  HW  HW  OW  HW  HW  OW  HW  
HW  OW  HW  HW  OW  HW  HW  OW  HW  HW  OW  HW  HW  OW  HW  HW  OW  HW  HW  OW  
HW  HW  OW  HW  HW  OW  HW  HW  OW  HW  HW  OW  HW  HW  OW  HW  HW  OW  HW  HW  
OW  HW  HW  OW  HW  HW  OW  HW  HW  OW  HW  HW  OW  HW  HW  OW  HW  HW  OW  HW  
HW  OW  HW  HW  OW  HW  HW  OW  HW  HW  OW  HW  HW  OW  HW  HW  OW  HW  HW  OW  
HW  HW  OW  HW  HW  OW  HW  HW  OW  HW  HW  OW  HW  HW  OW  HW  HW  OW  HW  HW  
OW  HW  HW  OW  HW  HW  OW  HW  HW  OW  HW  HW  OW  HW  HW  OW  HW  HW  OW  HW  
HW  OW  HW  HW  OW  HW  HW  OW  HW  HW  OW  HW  HW  OW  HW  HW  OW  HW  HW  OW  
HW  HW  OW  HW  HW  OW  HW  HW  OW  HW  HW  OW  HW  HW  OW  HW  HW  OW  HW  HW  
OW  HW  HW  OW  HW  HW  OW  HW  HW  OW  HW  HW  OW  HW  HW  OW  HW  HW  OW  HW  
HW  OW  HW  HW  OW  HW  HW  OW  HW  HW  OW  HW  HW  OW  HW  HW  OW  HW  HW  OW  
HW  HW  OW  HW  HW  OW  HW  HW  OW  HW  HW  OW  HW  HW  OW  HW  HW  OW  HW  HW  
OW  HW  HW  OW  HW  HW  OW  HW  HW  OW  HW  HW  OW  HW  HW  OW  HW  HW  OW  HW  
HW  OW  HW  HW  OW  HW  HW  OW  HW  HW  OW  HW  HW  OW  HW  HW  OW  HW  HW  OW  
HW  HW  OW  HW  HW  OW  HW  HW  OW  HW  HW  OW  HW  HW  OW  HW  HW  OW  HW  HW  
OW  HW  HW  OW  HW  HW  OW  HW  HW  OW  HW  HW  OW  HW  HW  OW  HW  HW  OW  HW  
HW  OW  HW  HW  OW  HW  HW  OW  HW  HW  OW  HW  HW  OW  HW  HW  OW  HW  HW  OW  
HW  HW  OW  HW  HW  OW  HW  HW  OW  HW  HW  OW  HW  HW  OW  HW  HW  OW  HW  HW  
OW  HW  HW  OW  HW  HW  OW  HW  HW  OW  HW  HW  OW  HW  HW  OW  HW  HW  OW  HW  
HW  OW  HW  HW  OW  HW  HW  OW  HW  HW  OW  HW  HW  OW  HW  HW  OW  HW  HW  OW  
HW  HW  OW  HW  HW  OW  HW  HW  OW  HW  HW  OW  HW  HW  OW  HW  HW  OW  HW  HW  
OW  HW  HW  OW  HW  HW  OW  HW  HW  OW  HW  HW  OW  HW  HW  OW  HW  HW  OW  HW  
HW  OW  HW  HW  OW  HW  HW  OW  HW  HW  OW  HW  HW  OW  HW  HW  OW  HW  HW  OW  
HW  HW  OW  HW  HW  OW  HW  HW  OW  HW  HW  OW  HW  HW  OW  HW  HW  OW  HW  HW  
OW  HW  HW  OW  HW  HW  OW  HW  HW  OW  HW  HW  OW  HW  HW  OW  HW  HW  OW  HW  
HW  OW  HW  HW  OW  HW  HW  OW  HW  HW  OW  HW  HW  OW  HW  HW  OW  HW  HW  OW  
HW  HW  OW  HW  HW  OW  HW  HW  OW  HW  HW  OW  HW  HW  OW  HW  HW  OW  HW  HW  
OW  HW  HW  OW  HW  HW  OW  HW  HW  OW  HW  HW  OW  HW  HW  OW  HW  HW  OW  HW  
HW  OW  HW  HW  OW  HW  HW  OW  HW  HW  OW  HW  HW  OW  HW  HW  OW  HW  HW  OW  
HW  HW  OW  HW  HW  OW  HW  HW  OW  HW  HW  OW  HW  HW  OW  HW  HW  OW  HW  HW  
OW  HW  HW  OW  HW  HW  OW  HW  HW  OW  HW  HW  OW  HW  HW  OW  HW  HW  OW  HW  
HW  OW  HW  HW  OW  HW  HW  OW  HW  HW  OW  HW  HW  OW  HW  HW  OW  HW  HW  OW  
HW  HW  OW  HW  HW  OW  HW  HW  OW  HW  HW  OW  HW  HW  OW  HW  HW  OW  HW  HW  
OW  HW  HW  OW  HW  HW  OW  HW  HW  OW  HW  HW  OW  HW  HW  OW  HW  HW  OW  HW  
HW  OW  HW  HW  OW  HW  HW  OW  HW  HW  OW  HW  HW  OW  HW  HW  OW  HW  HW  OW  
HW  HW  OW  HW  HW  OW  HW  HW  OW  HW  HW  OW  HW  HW  OW  HW  HW  OW  HW  HW  
OW  HW  HW  OW  HW  HW  OW  HW  HW  OW  HW  HW  OW  HW  HW  OW  HW  HW  OW  HW  
HW  OW  HW  HW  OW  HW  HW  OW  HW  HW  OW  HW  HW  OW  HW  HW  OW  HW  HW  OW  
HW  HW  OW  HW  HW  OW  HW  HW  OW  HW  HW  OW  HW  HW  OW  HW  HW  OW  HW  HW  
OW  HW  HW  OW  HW  HW  OW  HW  HW  OW  HW  HW  OW  HW  HW  OW  HW  HW  OW  HW  
HW  OW  HW  HW  OW  HW  HW  OW  HW  HW  OW  HW  HW  OW  HW  HW  OW  HW  HW  OW  
HW  HW  OW  HW  HW  OW  HW  HW  OW  HW  HW  OW  HW  HW  OW  HW  HW  OW  HW  HW  
OW  HW  HW  OW  HW  HW  OW  HW  HW  OW  HW  HW  OW  HW  HW  OW  HW  HW  OW  HW  
HW  OW  HW  HW  OW  HW  HW  OW  HW  HW  OW  HW  HW  OW  HW  HW  OW  HW  HW  OW  
HW  HW  OW  HW  HW  OW  HW  HW  OW  HW  HW  OW  HW  HW  OW  HW  HW  OW  HW  HW  
OW  HW  HW  OW  HW  HW  OW  HW  HW  OW  HW  HW  OW  HW  HW  OW  HW  HW  OW  HW  
HW  OW  HW  HW  OW  HW  HW  OW  HW  HW  OW  HW  HW  OW  HW  HW  OW  HW  HW  OW  
HW  HW  OW  HW  HW  OW  HW  HW  OW  HW  HW  OW  HW  HW  OW  HW  HW  OW  HW  HW  
OW  HW  HW  OW  HW  HW  OW  HW  HW  OW  HW  HW  OW  HW  HW  OW  HW  HW  OW  HW  
HW  OW  HW  HW  OW  HW  HW  OW  HW  HW  OW  HW  HW  OW  HW  HW  OW  HW  HW  OW  
HW  HW  OW  HW  HW  OW  HW  HW  OW  HW  HW  OW  HW  HW  OW  HW  HW  OW  HW  HW  
OW  HW  HW  OW  HW  HW  OW  HW  HW  OW  HW  HW  OW  HW  HW  OW  HW  HW  OW  HW  
HW  OW  HW  HW  OW  HW  HW  OW  HW  HW  OW  HW  HW  OW  HW  HW  OW  HW  HW  OW  
HW  HW  OW  HW  HW  OW  HW  HW  OW  HW  HW  OW  HW  HW  OW  HW  HW  OW  HW  HW  
OW  HW  HW  OW  HW  HW  OW  HW  HW  OW  HW  HW  OW  HW  HW  OW  HW  HW  OW  HW  
HW  OW  HW  HW  OW  HW  HW  OW  HW  HW  OW  HW  HW  OW  HW  HW  OW  HW  HW  OW  
HW  HW  OW  HW  HW  OW  HW  HW  OW  HW  HW  OW  HW  HW  OW  HW  HW  OW  HW  HW  
OW  HW  HW  OW  HW  HW  OW  HW  HW  OW  HW  HW  OW  HW  HW  OW  HW  HW  OW  HW  
HW  OW  HW  HW  OW  HW  HW  OW  HW  HW  OW  HW  HW  OW  HW  HW  OW  HW  HW  OW  
HW  HW  OW  HW  HW  OW  HW  HW  OW  HW  HW  OW  HW  HW  OW  HW  HW  OW  HW  HW  
OW  HW  HW  OW  HW  HW  OW  HW  HW  OW  HW  HW  OW  HW  HW  OW  HW  HW  OW  HW  
HW  OW  HW  HW  OW  HW  HW  OW  HW  HW  OW  HW  HW  OW  HW  HW  OW  HW  HW  OW  
HW  HW  OW  HW  HW  OW  HW  HW  OW  HW  HW  OW  HW  HW  OW  HW  HW  OW  HW  HW  
OW  HW  HW  OW  HW  HW  OW  HW  HW  OW  HW  HW  OW  HW  HW  OW  HW  HW  OW  HW  
HW  OW  HW  HW  OW  HW  HW  OW  HW  HW  OW  HW  HW  OW  HW  HW  OW  HW  HW  OW  
HW  HW  OW  HW  HW  OW  HW  HW  OW  HW  HW  OW  HW  HW  OW  HW  HW  OW  HW  HW  
OW  HW  HW  OW  HW  HW  OW  HW  HW  OW  HW  HW  OW  HW  HW  OW  HW  HW  OW  HW  
HW  OW  HW  HW  OW  HW  HW  OW  HW  HW  OW  HW  HW  OW  HW  HW  OW  HW  HW  OW  
HW  HW  OW  HW  HW  OW  HW  HW  OW  HW  HW  OW  HW  HW  OW  HW  HW  OW  HW  HW  
OW  HW  HW  OW  HW  HW  OW  HW  HW  OW  HW  HW  OW  HW  HW  OW  HW  HW  OW  HW  
HW  OW  HW  HW  OW  HW  HW  OW  HW  HW  OW  HW  HW  OW  HW  HW  OW  HW  HW  OW  
HW  HW  OW  HW  HW  OW  HW  HW  OW  HW  HW  OW  HW  HW  OW  HW  HW  OW  HW  HW  
OW  HW  HW  OW  HW  HW  OW  HW  HW  OW  HW  HW  OW  HW  HW  OW  HW  HW  OW  HW  
HW  OW  HW  HW  OW  HW  HW  OW  HW  HW  OW  HW  HW  OW  HW  HW  OW  HW  HW  OW  
HW  HW  OW  HW  HW  OW  HW  HW  OW  HW  HW  OW  HW  HW  OW  HW  HW  OW  HW  HW  
OW  HW  HW  OW  HW  HW  OW  HW  HW  OW  HW  HW  OW  HW  HW  OW  HW  HW  OW  HW  
HW  OW  HW  HW  OW  HW  HW  OW  HW  HW  OW  HW  HW  OW  HW  HW  OW  HW  HW  OW  
HW  HW  OW  HW  HW  OW  HW  HW  OW  HW  HW  OW  HW  HW  OW  HW  HW  OW  HW  HW  
OW  HW  HW  OW  HW  HW  OW  HW  HW  OW  HW  HW  OW  HW  HW  OW  HW  HW  OW  HW  
HW  OW  HW  HW  OW  HW  HW  OW  HW  HW  OW  HW  HW  OW  HW  HW  OW  HW  HW  OW  
HW  HW  OW  HW  HW  OW  HW  HW  OW  HW  HW  OW  HW  HW  OW  HW  HW  OW  HW  HW  
OW  HW  HW  OW  HW  HW  OW  HW  HW  OW  HW  HW  OW  HW  HW  OW  HW  HW  OW  HW  
HW  OW  HW  HW  OW  HW  HW  OW  HW  HW  OW  HW  HW  OW  HW  HW  OW  HW  HW  OW  
HW  HW  OW  HW  HW  OW  HW  HW  OW  HW  HW  OW  HW  HW  OW  HW  HW  OW  HW  HW  
OW  HW  HW  OW  HW  HW  OW  HW  HW  OW  HW  HW  OW  HW  HW  OW  HW  HW  OW  HW  
HW  OW  HW  HW  OW  HW  HW  OW  HW  HW  OW  HW  HW  OW  HW  HW  OW  HW  HW  OW  
HW  HW  OW  HW  HW  OW  HW  HW  OW  HW  HW  OW  HW  HW  OW  HW  HW  OW  HW  HW  
OW  HW  HW  OW  HW  HW  OW  HW  HW  OW  HW  HW  OW  HW  HW  OW  HW  HW  OW  HW  
HW  OW  HW  HW  OW  HW  HW  OW  HW  HW  OW  HW  HW  OW  HW  HW  OW  HW  HW  OW  
HW  HW  OW  HW  HW  OW  HW  HW  OW  HW  HW  OW  HW  HW  OW  HW  HW  OW  HW  HW  
OW  HW  HW  OW  HW  HW  OW  HW  HW  OW  HW  HW  OW  HW  HW  OW  HW  HW  OW  HW  
HW  OW  HW  HW  OW  HW  HW  OW  HW  HW  OW  HW  HW  OW  HW  HW  OW  HW  HW  OW  
HW  HW  OW  HW  HW  OW  HW  HW  OW  HW  HW  OW  HW  HW  OW  HW  HW  OW  HW  HW  
OW  HW  HW  OW  HW  HW  OW  HW  HW  OW  HW  HW  OW  HW  HW  OW  HW  HW  OW  HW  
HW  OW  HW  HW  OW  HW  HW  OW  HW  HW  OW  HW  HW  OW  HW  HW  OW  HW  HW  OW  
HW  HW  OW  HW  HW  OW  HW  HW  OW  HW  HW  OW  HW  HW  OW  HW  HW  OW  HW  HW  
OW  HW  HW  OW  HW  HW  OW  HW  HW  OW  HW  HW  OW  HW  HW  OW  HW  HW  OW  HW  
HW  OW  HW  HW  OW  HW  HW  OW  HW  HW  OW  HW  HW  OW  HW  HW  OW  HW  HW  OW  
HW  HW  OW  HW  HW  OW  HW  HW  OW  HW  HW  OW  HW  HW  OW  HW  HW  OW  HW  HW  
OW  HW  HW  OW  HW  HW  OW  HW  HW  OW  HW  HW  OW  HW  HW  OW  HW  HW  OW  HW  
HW  OW  HW  HW  OW  HW  HW  OW  HW  HW  OW  HW  HW  OW  HW  HW  OW  HW  HW  OW  
HW  HW  OW  HW  HW  OW  HW  HW  OW  HW  HW  OW  HW  HW  OW  HW  HW  OW  HW  HW  
OW  HW  HW  OW  HW  HW  OW  HW  HW  OW  HW  HW  OW  HW  HW  OW  HW  HW  OW  HW  
HW  OW  HW  HW  OW  HW  HW  OW  HW  HW  OW  HW  HW  OW  HW  HW  OW  HW  HW  OW  
HW  HW  OW  HW  HW  OW  HW  HW  OW  HW  HW  OW  HW  HW  OW  HW  HW  OW  HW  HW  
OW  HW  HW  OW  HW  HW  OW  HW  HW  OW  HW  HW  OW  HW  HW  OW  HW  HW  OW  HW  
HW  OW  HW  HW  OW  HW  HW  OW  HW  HW  OW  HW  HW  OW  HW  HW  OW  HW  HW  OW  
HW  HW  OW  HW  HW  OW  HW  HW  OW  HW  HW  OW  HW  HW  OW  HW  HW  OW  HW  HW  
OW  HW  HW  OW  HW  HW  OW  HW  HW  OW  HW  HW  OW  HW  HW  OW  HW  HW  OW  HW  
HW  OW  HW  HW  OW  HW  HW  OW  HW  HW  OW  HW  HW  OW  HW  HW  OW  HW  HW  OW  
HW  HW  OW  HW  HW  OW  HW  HW  OW  HW  HW  OW  HW  HW  OW  HW  HW  OW  HW  HW  
OW  HW  HW  OW  HW  HW  OW  HW  HW  OW  HW  HW  OW  HW  HW  OW  HW  HW  OW  HW  
HW  OW  HW  HW  OW  HW  HW  OW  HW  HW  OW  HW  HW  OW  HW  HW  OW  HW  HW  OW  
HW  HW  OW  HW  HW  OW  HW  HW  OW  HW  HW  OW  HW  HW  OW  HW  HW  OW  HW  HW  
OW  HW  HW  OW  HW  HW  OW  HW  HW  OW  HW  HW  OW  HW  HW  OW  HW  HW  OW  HW  
HW  OW  HW  HW  OW  HW  HW  OW  HW  HW  OW  HW  HW  OW  HW  HW  OW  HW  HW  OW  
HW  HW  OW  HW  HW  OW  HW  HW  OW  HW  HW  OW  HW  HW  OW  HW  HW  OW  HW  HW  
OW  HW  HW  OW  HW  HW  OW  HW  HW  OW  HW  HW  OW  HW  HW  OW  HW  HW  OW  HW  
HW  OW  HW  HW  OW  HW  HW  OW  HW  HW  OW  HW  HW  OW  HW  HW  OW  HW  HW  OW  
HW  HW  OW  HW  HW  OW  HW  HW  OW  HW  HW  OW  HW  HW  OW  HW  HW  OW  HW  HW  
OW  HW  HW  OW  HW  HW  OW  HW  HW  OW  HW  HW  OW  HW  HW  OW  HW  HW  OW  HW  
HW  OW  HW  HW  OW  HW  HW  OW  HW  HW  OW  HW  HW  OW  HW  HW  OW  HW  HW  OW  
HW  HW  OW  HW  HW  OW  HW  HW  OW  HW  HW  OW  HW  HW  OW  HW  HW  OW  HW  HW  
OW  HW  HW  OW  HW  HW  OW  HW  HW  OW  HW  HW  OW  HW  HW  OW  HW  HW  OW  HW  
HW  OW  HW  HW  OW  HW  HW  OW  HW  HW  OW  HW  HW  OW  HW  HW  OW  HW  HW  OW  
HW  HW  OW  HW  HW  OW  HW  HW  OW  HW  HW  OW  HW  HW  OW  HW  HW  OW  HW  HW  
OW  HW  HW  OW  HW  HW  OW  HW  HW  OW  HW  HW  OW  HW  HW  OW  HW  HW  OW  HW  
HW  OW  HW  HW  OW  HW  HW  OW  HW  HW  OW  HW  HW  OW  HW  HW  OW  HW  HW  OW  
HW  HW  OW  HW  HW  OW  HW  HW  OW  HW  HW  OW  HW  HW  OW  HW  HW  OW  HW  HW  
OW  HW  HW  OW  HW  HW  OW  HW  HW  OW  HW  HW  OW  HW  HW  OW  HW  HW  OW  HW  
HW  OW  HW  HW  OW  HW  HW  OW  HW  HW  OW  HW  HW  OW  HW  HW  OW  HW  HW  OW  
HW  HW  OW  HW  HW  OW  HW  HW  OW  HW  HW  OW  HW  HW  OW  HW  HW  OW  HW  HW  
OW  HW  HW  OW  HW  HW  OW  HW  HW  OW  HW  HW  OW  HW  HW  OW  HW  HW  OW  HW  
HW  OW  HW  HW  OW  HW  HW  OW  HW  HW  OW  HW  HW  OW  HW  HW  OW  HW  HW  OW  
HW  HW  OW  HW  HW  OW  HW  HW  OW  HW  HW  OW  HW  HW  OW  HW  HW  OW  HW  HW  
OW  HW  HW  OW  HW  HW  OW  HW  HW  OW  HW  HW  OW  HW  HW  OW  HW  HW  OW  HW  
HW  OW  HW  HW  OW  HW  HW  OW  HW  HW  OW  HW  HW  OW  HW  HW  OW  HW  HW  OW  
HW  HW  OW  HW  HW  OW  HW  HW  OW  HW  HW  OW  HW  HW  OW  HW  HW  OW  HW  HW  
OW  HW  HW  OW  HW  HW  OW  HW  HW  OW  HW  HW  OW  HW  HW  OW  HW  HW  OW  HW  
HW  OW  HW  HW  OW  HW  HW  OW  HW  HW  OW  HW  HW  OW  HW  HW  OW  HW  HW  OW  
HW  HW  OW  HW  HW  OW  HW  HW  OW  HW  HW  OW  HW  HW  OW  HW  HW  OW  HW  HW  
OW  HW  HW  OW  HW  HW  OW  HW  HW  OW  HW  HW  OW  HW  HW  OW  HW  HW  OW  HW  
HW  OW  HW  HW  OW  HW  HW  OW  HW  HW  OW  HW  HW  OW  HW  HW  OW  HW  HW  OW  
HW  HW  OW  HW  HW  OW  HW  HW  OW  HW  HW  OW  HW  HW  OW  HW  HW  OW  HW  HW  
OW  HW  HW  OW  HW  HW  OW  HW  HW  OW  HW  HW  OW  HW  HW  OW  HW  HW  OW  HW  
HW  OW  HW  HW  OW  HW  HW  OW  HW  HW  OW  HW  HW  OW  HW  HW  OW  HW  HW  OW  
HW  HW  OW  HW  HW  OW  HW  HW  OW  HW  HW  OW  HW  HW  OW  HW  HW  OW  HW  HW  
OW  HW  HW  OW  HW  HW  OW  HW  HW  OW  HW  HW  OW  HW  HW  OW  HW  HW  OW  HW  
HW  OW  HW  HW  OW  HW  HW  OW  HW  HW  OW  HW  HW  OW  HW  HW  OW  HW  HW  OW  
HW  HW  OW  HW  HW  OW  HW  HW  OW  HW  HW  OW  HW  HW  OW  HW  HW  OW  HW  HW  
OW  HW  HW  OW  HW  HW  OW  HW  HW  OW  HW  HW  OW  HW  HW  OW  HW  HW  OW  HW  
HW  OW  HW  HW  OW  HW  HW  OW  HW  HW  OW  HW  HW  OW  HW  HW  OW  HW  HW  OW  
HW  HW  OW  HW  HW  OW  HW  HW  OW  HW  HW  OW  HW  HW  OW  HW  HW  OW  HW  HW  
OW  HW  HW  OW  HW  HW  OW  HW  HW  OW  HW  HW  OW  HW  HW  OW  HW  HW  OW  HW  
HW  OW  HW  HW  OW  HW  HW  OW  HW  HW  OW  HW  HW  OW  HW  HW  OW  HW  HW  OW  
HW  HW  OW  HW  HW  OW  HW  HW  OW  HW  HW  OW  HW  HW  OW  HW  HW  OW  HW  HW  
OW  HW  HW  OW  HW  HW  OW  HW  HW  OW  HW  HW  OW  HW  HW  OW  HW  HW  OW  HW  
HW  OW  HW  HW  OW  HW  HW  OW  HW  HW  OW  HW  HW  OW  HW  HW  OW  HW  HW  OW  
HW  HW  OW  HW  HW  OW  HW  HW  OW  HW  HW  OW  HW  HW  OW  HW  HW  OW  HW  HW  
OW  HW  HW  OW  HW  HW  OW  HW  HW  OW  HW  HW  OW  HW  HW  OW  HW  HW  OW  HW  
HW  OW  HW  HW  OW  HW  HW  OW  HW  HW  OW  HW  HW  OW  HW  HW  OW  HW  HW  OW  
HW  HW  OW  HW  HW  OW  HW  HW  OW  HW  HW  OW  HW  HW  OW  HW  HW  OW  HW  HW  
OW  HW  HW  OW  HW  HW  OW  HW  HW  OW  HW  HW  OW  HW  HW  OW  HW  HW  OW  HW  
HW  OW  HW  HW  OW  HW  HW  OW  HW  HW  OW  HW  HW  OW  HW  HW  OW  HW  HW  OW  
HW  HW  OW  HW  HW  OW  HW  HW  OW  HW  HW  OW  HW  HW  OW  HW  HW  OW  HW  HW  
OW  HW  HW  OW  HW  HW  OW  HW  HW  OW  HW  HW  OW  HW  HW  OW  HW  HW  OW  HW  
HW  OW  HW  HW  OW  HW  HW  OW  HW  HW  OW  HW  HW  OW  HW  HW  OW  HW  HW  OW  
HW  HW  OW  HW  HW  OW  HW  HW  OW  HW  HW  OW  HW  HW  OW  HW  HW  OW  HW  HW  
OW  HW  HW  OW  HW  HW  OW  HW  HW  OW  HW  HW  OW  HW  HW  OW  HW  HW  OW  HW  
HW  OW  HW  HW  OW  HW  HW  OW  HW  HW  OW  HW  HW  OW  HW  HW  OW  HW  HW  OW  
HW  HW  OW  HW  HW  OW  HW  HW  OW  HW  HW  OW  HW  HW  OW  HW  HW  OW  HW  HW  
OW  HW  HW  OW  HW  HW  OW  HW  HW  OW  HW  HW  OW  HW  HW  OW  HW  HW  OW  HW  
HW  OW  HW  HW  OW  HW  HW  OW  HW  HW  OW  HW  HW  OW  HW  HW  OW  HW  HW  OW  
HW  HW  OW  HW  HW  OW  HW  HW  OW  HW  HW  OW  HW  HW  OW  HW  HW  OW  HW  HW  
OW  HW  HW  OW  HW  HW  OW  HW  HW  OW  HW  HW  OW  HW  HW  OW  HW  HW  OW  HW  
HW  OW  HW  HW  OW  HW  HW  OW  HW  HW  OW  HW  HW  OW  HW  HW  OW  HW  HW  OW  
HW  HW  OW  HW  HW  OW  HW  HW  OW  HW  HW  OW  HW  HW  OW  HW  HW  OW  HW  HW  
OW  HW  HW  OW  HW  HW  OW  HW  HW  OW  HW  HW  OW  HW  HW  OW  HW  HW  OW  HW  
HW  OW  HW  HW  OW  HW  HW  OW  HW  HW  OW  HW  HW  OW  HW  HW  OW  HW  HW  OW  
HW  HW  OW  HW  HW  OW  HW  HW  OW  HW  HW  OW  HW  HW  OW  HW  HW  OW  HW  HW  
OW  HW  HW  OW  HW  HW  OW  HW  HW  OW  HW  HW  OW  HW  HW  OW  HW  HW  OW  HW  
HW  OW  HW  HW  OW  HW  HW  OW  HW  HW  OW  HW  HW  OW  HW  HW  OW  HW  HW  OW  
HW  HW  OW  HW  HW  OW  HW  HW  OW  HW  HW  OW  HW  HW  OW  HW  HW  OW  HW  HW  
OW  HW  HW  OW  HW  HW  OW  HW  HW  OW  HW  HW  OW  HW  HW  OW  HW  HW  OW  HW  
HW  OW  HW  HW  OW  HW  HW  OW  HW  HW  OW  HW  HW  OW  HW  HW  OW  HW  HW  OW  
HW  HW  OW  HW  HW  OW  HW  HW  OW  HW  HW  OW  HW  HW  OW  HW  HW  OW  HW  HW  
OW  HW  HW  OW  HW  HW  OW  HW  HW  OW  HW  HW  OW  HW  HW  OW  HW  HW  OW  HW  
HW  OW  HW  HW  OW  HW  HW  OW  HW  HW  OW  HW  HW  OW  HW  HW  OW  HW  HW  OW  
HW  HW  OW  HW  HW  OW  HW  HW  OW  HW  HW  OW  HW  HW  OW  HW  HW  OW  HW  HW  
OW  HW  HW  OW  HW  HW  OW  HW  HW  OW  HW  HW  OW  HW  HW  OW  HW  HW  OW  HW  
HW  OW  HW  HW  OW  HW  HW  OW  HW  HW  OW  HW  HW  OW  HW  HW  OW  HW  HW  OW  
HW  HW  OW  HW  HW  OW  HW  HW  OW  HW  HW  OW  HW  HW  OW  HW  HW  OW  HW  HW  
OW  HW  HW  OW  HW  HW  OW  HW  HW  OW  HW  HW  OW  HW  HW  OW  HW  HW  OW  HW  
HW  OW  HW  HW  OW  HW  HW  OW  HW  HW  OW  HW  HW  OW  HW  HW  OW  HW  HW  OW  
HW  HW  OW  HW  HW  OW  HW  HW  OW  HW  HW  OW  HW  HW  OW  HW  HW  OW  HW  HW  
OW  HW  HW  OW  HW  HW  OW  HW  HW  OW  HW  HW  OW  HW  HW  OW  HW  HW  OW  HW  
HW  OW  HW  HW  OW  HW  HW  OW  HW  HW  OW  HW  HW  OW  HW  HW  OW  HW  HW  OW  
HW  HW  OW  HW  HW  OW  HW  HW  OW  HW  HW  OW  HW  HW  OW  HW  HW  OW  HW  HW  
OW  HW  HW  OW  HW  HW  OW  HW  HW  OW  HW  HW  OW  HW  HW  OW  HW  HW  OW  HW  
HW  OW  HW  HW  OW  HW  HW  OW  HW  HW  OW  HW  HW  OW  HW  HW  OW  HW  HW  OW  
HW  HW  OW  HW  HW  OW  HW  HW  OW  HW  HW  OW  HW  HW  OW  HW  HW  OW  HW  HW  
OW  HW  HW  OW  HW  HW  OW  HW  HW  OW  HW  HW  OW  HW  HW  OW  HW  HW  OW  HW  
HW  OW  HW  HW  OW  HW  HW  OW  HW  HW  OW  HW  HW  OW  HW  HW  OW  HW  HW  OW  
HW  HW  OW  HW  HW  OW  HW  HW  OW  HW  HW  OW  HW  HW  OW  HW  HW  OW  HW  HW  
OW  HW  HW  OW  HW  HW  OW  HW  HW  OW  HW  HW  OW  HW  HW  OW  HW  HW  OW  HW  
HW  OW  HW  HW  OW  HW  HW  OW  HW  HW  OW  HW  HW  OW  HW  HW  OW  HW  HW  OW  
HW  HW  OW  HW  HW  OW  HW  HW  OW  HW  HW  OW  HW  HW  OW  HW  HW  OW  HW  HW  
OW  HW  HW  OW  HW  HW  OW  HW  HW  OW  HW  HW  OW  HW  HW  OW  HW  HW  OW  HW  
HW  OW  HW  HW  OW  HW  HW  OW  HW  HW  OW  HW  HW  OW  HW  HW  OW  HW  HW  OW  
HW  HW  OW  HW  HW  OW  HW  HW  OW  HW  HW  OW  HW  HW  OW  HW  HW  OW  HW  HW  
OW  HW  HW  OW  HW  HW  OW  HW  HW  OW  HW  HW  OW  HW  HW  OW  HW  HW  OW  HW  
HW  OW  HW  HW  OW  HW  HW  OW  HW  HW  OW  HW  HW  OW  HW  HW  OW  HW  HW  OW  
HW  HW  OW  HW  HW  OW  HW  HW  OW  HW  HW  OW  HW  HW  OW  HW  HW  OW  HW  HW  
OW  HW  HW  OW  HW  HW  OW  HW  HW  OW  HW  HW  OW  HW  HW  OW  HW  HW  OW  HW  
HW  OW  HW  HW  OW  HW  HW  OW  HW  HW  OW  HW  HW  OW  HW  HW  OW  HW  HW  OW  
HW  HW  OW  HW  HW  OW  HW  HW  OW  HW  HW  OW  HW  HW  OW  HW  HW  OW  HW  HW  
OW  HW  HW  OW  HW  HW  OW  HW  HW  OW  HW  HW  OW  HW  HW  OW  HW  HW  OW  HW  
HW  OW  HW  HW  OW  HW  HW  OW  HW  HW  OW  HW  HW  OW  HW  HW  OW  HW  HW  OW  
HW  HW  OW  HW  HW  OW  HW  HW  OW  HW  HW  OW  HW  HW  OW  HW  HW  OW  HW  HW  
OW  HW  HW  OW  HW  HW  OW  HW  HW  OW  HW  HW  OW  HW  HW  OW  HW  HW  OW  HW  
HW  OW  HW  HW  OW  HW  HW  OW  HW  HW  OW  HW  HW  OW  HW  HW  OW  HW  HW  OW  
HW  HW  OW  HW  HW  OW  HW  HW  OW  HW  HW  OW  HW  HW  OW  HW  HW  OW  HW  HW  
OW  HW  HW  OW  HW  HW  OW  HW  HW  OW  HW  HW  OW  HW  HW  OW  HW  HW  OW  HW  
HW  OW  HW  HW  OW  HW  HW  OW  HW  HW  OW  HW  HW  OW  HW  HW  OW  HW  HW  OW  
HW  HW  OW  HW  HW  OW  HW  HW  OW  HW  HW  OW  HW  HW  OW  HW  HW  OW  HW  HW  
OW  HW  HW  OW  HW  HW  OW  HW  HW  OW  HW  HW  OW  HW  HW  OW  HW  HW  OW  HW  
HW  OW  HW  HW  OW  HW  HW  OW  HW  HW  OW  HW  HW  OW  HW  HW  OW  HW  HW  OW  
HW  HW  OW  HW  HW  OW  HW  HW  OW  HW  HW  OW  HW  HW  OW  HW  HW  OW  HW  HW  
OW  HW  HW  OW  HW  HW  OW  HW  HW  OW  HW  HW  OW  HW  HW  OW  HW  HW  OW  HW  
HW  OW  HW  HW  OW  HW  HW  OW  HW  HW  OW  HW  HW  OW  HW  HW  OW  HW  HW  OW  
HW  HW  OW  HW  HW  OW  HW  HW  OW  HW  HW  OW  HW  HW  OW  HW  HW  OW  HW  HW  
OW  HW  HW  OW  HW  HW  OW  HW  HW  OW  HW  HW  OW  HW  HW  OW  HW  HW  OW  HW  
HW  OW  HW  HW  OW  HW  HW  OW  HW  HW  OW  HW  HW  OW  HW  HW  OW  HW  HW  OW  
HW  HW  OW  HW  HW  OW  HW  HW  OW  HW  HW  OW  HW  HW  OW  HW  HW  OW  HW  HW  
OW  HW  HW  OW  HW  HW  OW  HW  HW  OW  HW  HW  OW  HW  HW  OW  HW  HW  OW  HW  
HW  OW  HW  HW  OW  HW  HW  OW  HW  HW  OW  HW  HW  OW  HW  HW  OW  HW  HW  OW  
HW  HW  OW  HW  HW  OW  HW  HW  OW  HW  HW  OW  HW  HW  OW  HW  HW  OW  HW  HW  
OW  HW  HW  OW  HW  HW  OW  HW  HW  OW  HW  HW  OW  HW  HW  OW  HW  HW  OW  HW  
HW  OW  HW  HW  OW  HW  HW  OW  HW  HW  OW  HW  HW  OW  HW  HW  OW  HW  HW  OW  
HW  HW  OW  HW  HW  OW  HW  HW  OW  HW  HW  OW  HW  HW  OW  HW  HW  OW  HW  HW  
OW  HW  HW  OW  HW  HW  OW  HW  HW  OW  HW  HW  OW  HW  HW  OW  HW  HW  OW  HW  
HW  OW  HW  HW  OW  HW  HW  OW  HW  HW  OW  HW  HW  OW  HW  HW  OW  HW  HW  OW  
HW  HW  OW  HW  HW  OW  HW  HW  OW  HW  HW  OW  HW  HW  OW  HW  HW  OW  HW  HW  
OW  HW  HW  OW  HW  HW  OW  HW  HW  OW  HW  HW  OW  HW  HW  OW  HW  HW  OW  HW  
HW  OW  HW  HW  OW  HW  HW  OW  HW  HW  OW  HW  HW  OW  HW  HW  OW  HW  HW  OW  
HW  HW  OW  HW  HW  OW  HW  HW  OW  HW  HW  OW  HW  HW  OW  HW  HW  OW  HW  HW  
OW  HW  HW  OW  HW  HW  OW  HW  HW  OW  HW  HW  OW  HW  HW  OW  HW  HW  OW  HW  
HW  OW  HW  HW  OW  HW  HW  OW  HW  HW  OW  HW  HW  OW  HW  HW  OW  HW  HW  OW  
HW  HW  OW  HW  HW  OW  HW  HW  OW  HW  HW  OW  HW  HW  OW  HW  HW  OW  HW  HW  
OW  HW  HW  OW  HW  HW  OW  HW  HW  OW  HW  HW  OW  HW  HW  OW  HW  HW  OW  HW  
HW  OW  HW  HW  OW  HW  HW  OW  HW  HW  OW  HW  HW  OW  HW  HW  OW  HW  HW  OW  
HW  HW  OW  HW  HW  OW  HW  HW  OW  HW  HW  OW  HW  HW  OW  HW  HW  OW  HW  HW  
OW  HW  HW  OW  HW  HW  OW  HW  HW  OW  HW  HW  OW  HW  HW  OW  HW  HW  OW  HW  
HW  OW  HW  HW  OW  HW  HW  OW  HW  HW  OW  HW  HW  OW  HW  HW  OW  HW  HW  OW  
HW  HW  OW  HW  HW  OW  HW  HW  OW  HW  HW  OW  HW  HW  OW  HW  HW  OW  HW  HW  
OW  HW  HW  OW  HW  HW  OW  HW  HW  OW  HW  HW  OW  HW  HW  OW  HW  HW  OW  HW  
HW  OW  HW  HW  OW  HW  HW  OW  HW  HW  OW  HW  HW  OW  HW  HW  OW  HW  HW  OW  
HW  HW  OW  HW  HW  OW  HW  HW  OW  HW  HW  OW  HW  HW  OW  HW  HW  OW  HW  HW  
OW  HW  HW  OW  HW  HW  OW  HW  HW  OW  HW  HW  OW  HW  HW  OW  HW  HW  OW  HW  
HW  OW  HW  HW  OW  HW  HW  OW  HW  HW  OW  HW  HW  OW  HW  HW  OW  HW  HW  OW  
HW  HW  OW  HW  HW  OW  HW  HW  OW  HW  HW  OW  HW  HW  OW  HW  HW  OW  HW  HW  
OW  HW  HW  OW  HW  HW  OW  HW  HW  OW  HW  HW  OW  HW  HW  OW  HW  HW  OW  HW  
HW  OW  HW  HW  OW  HW  HW  OW  HW  HW  OW  HW  HW  OW  HW  HW  OW  HW  HW  OW  
HW  HW  OW  HW  HW  OW  HW  HW  OW  HW  HW  OW  HW  HW  OW  HW  HW  OW  HW  HW  
OW  HW  HW  OW  HW  HW  OW  HW  HW  OW  HW  HW  OW  HW  HW  OW  HW  HW  OW  HW  
HW  OW  HW  HW  OW  HW  HW  OW  HW  HW  OW  HW  HW  OW  HW  HW  OW  HW  HW  OW  
HW  HW  OW  HW  HW  OW  HW  HW  OW  HW  HW  OW  HW  HW  OW  HW  HW  OW  HW  HW  
OW  HW  HW  OW  HW  HW  OW  HW  HW  OW  HW  HW  OW  HW  HW  OW  HW  HW  OW  HW  
HW  OW  HW  HW  OW  HW  HW  OW  HW  HW  OW  HW  HW  OW  HW  HW  OW  HW  HW  OW  
HW  HW  OW  HW  HW  OW  HW  HW  OW  HW  HW  OW  HW  HW  OW  HW  HW  OW  HW  HW  
OW  HW  HW  OW  HW  HW  OW  HW  HW  OW  HW  HW  OW  HW  HW  OW  HW  HW  OW  HW  
HW  OW  HW  HW  OW  HW  HW  OW  HW  HW  OW  HW  HW  OW  HW  HW  OW  HW  HW  OW  
HW  HW  OW  HW  HW  OW  HW  HW  OW  HW  HW  OW  HW  HW  OW  HW  HW  OW  HW  HW  
OW  HW  HW  OW  HW  HW  OW  HW  HW  OW  HW  HW  OW  HW  HW  OW  HW  HW  OW  HW  
HW  OW  HW  HW  OW  HW  HW  OW  HW  HW  OW  HW  HW  OW  HW  HW  OW  HW  HW  OW  
HW  HW  OW  HW  HW  OW  HW  HW  OW  HW  HW  OW  HW  HW  OW  HW  HW  OW  HW  HW  
OW  HW  HW  OW  HW  HW  OW  HW  HW  OW  HW  HW  OW  HW  HW  OW  HW  HW  OW  HW  
HW  OW  HW  HW  OW  HW  HW  OW  HW  HW  OW  HW  HW  OW  HW  HW  OW  HW  HW  OW  
HW  HW  OW  HW  HW  OW  HW  HW  OW  HW  HW  OW  HW  HW  OW  HW  HW  OW  HW  HW  
OW  HW  HW  OW  HW  HW  OW  HW  HW  OW  HW  HW  OW  HW  HW  OW  HW  HW  OW  HW  
HW  OW  HW  HW  OW  HW  HW  OW  HW  HW  OW  HW  HW  OW  HW  HW  OW  HW  HW  OW  
HW  HW  OW  HW  HW  OW  HW  HW  OW  HW  HW  OW  HW  HW  OW  HW  HW  OW  HW  HW  
OW  HW  HW  OW  HW  HW  OW  HW  HW  OW  HW  HW  OW  HW  HW  OW  HW  HW  OW  HW  
HW  OW  HW  HW  OW  HW  HW  OW  HW  HW  OW  HW  HW  OW  HW  HW  OW  HW  HW  OW  
HW  HW  OW  HW  HW  OW  HW  HW  OW  HW  HW  OW  HW  HW  OW  HW  HW  OW  HW  HW  
OW  HW  HW  OW  HW  HW  OW  HW  HW  OW  HW  HW  OW  HW  HW  OW  HW  HW  OW  HW  
HW  OW  HW  HW  OW  HW  HW  OW  HW  HW  OW  HW  HW  OW  HW  HW  OW  HW  HW  OW  
HW  HW  OW  HW  HW  OW  HW  HW  OW  HW  HW  OW  HW  HW  OW  HW  HW  OW  HW  HW  
OW  HW  HW  OW  HW  HW  OW  HW  HW  OW  HW  HW  OW  HW  HW  OW  HW  HW  OW  HW  
HW  OW  HW  HW  OW  HW  HW  OW  HW  HW  OW  HW  HW  OW  HW  HW  OW  HW  HW  OW  
HW  HW  OW  HW  HW  OW  HW  HW  OW  HW  HW  OW  HW  HW  OW  HW  HW  OW  HW  HW  
OW  HW  HW  OW  HW  HW  OW  HW  HW  OW  HW  HW  OW  HW  HW  OW  HW  HW  OW  HW  
HW  OW  HW  HW  OW  HW  HW  OW  HW  HW  OW  HW  HW  OW  HW  HW  OW  HW  HW  OW  
HW  HW  OW  HW  HW  OW  HW  HW  OW  HW  HW  OW  HW  HW  OW  HW  HW  OW  HW  HW  
OW  HW  HW  OW  HW  HW  OW  HW  HW  OW  HW  HW  OW  HW  HW  OW  HW  HW  OW  HW  
HW  OW  HW  HW  OW  HW  HW  OW  HW  HW  OW  HW  HW  OW  HW  HW  OW  HW  HW  OW  
HW  HW  OW  HW  HW  OW  HW  HW  OW  HW  HW  OW  HW  HW  OW  HW  HW  OW  HW  HW  
OW  HW  HW  OW  HW  HW  OW  HW  HW  OW  HW  HW  OW  HW  HW  OW  HW  HW  OW  HW  
HW  OW  HW  HW  OW  HW  HW  OW  HW  HW  OW  HW  HW  OW  HW  HW  OW  HW  HW  OW  
HW  HW  OW  HW  HW  OW  HW  HW  OW  HW  HW  OW  HW  HW  OW  HW  HW  OW  HW  HW  
OW  HW  HW  OW  HW  HW  OW  HW  HW  OW  HW  HW  OW  HW  HW  OW  HW  HW  OW  HW  
HW  OW  HW  HW  OW  HW  HW  OW  HW  HW  OW  HW  HW  OW  HW  HW  OW  HW  HW  OW  
HW  HW  OW  HW  HW  OW  HW  HW  OW  HW  HW  OW  HW  HW  OW  HW  HW  OW  HW  HW  
OW  HW  HW  OW  HW  HW  OW  HW  HW  OW  HW  HW  OW  HW  HW  OW  HW  HW  OW  HW  
HW  OW  HW  HW  OW  HW  HW  OW  HW  HW  OW  HW  HW  OW  HW  HW  OW  HW  HW  OW  
HW  HW  OW  HW  HW  OW  HW  HW  OW  HW  HW  OW  HW  HW  OW  HW  HW  OW  HW  HW  
OW  HW  HW  OW  HW  HW  OW  HW  HW  OW  HW  HW  OW  HW  HW  OW  HW  HW  OW  HW  
HW  OW  HW  HW  OW  HW  HW  OW  HW  HW  OW  HW  HW  OW  HW  HW  OW  HW  HW  OW  
HW  HW  OW  HW  HW  OW  HW  HW  OW  HW  HW  OW  HW  HW  OW  HW  HW  OW  HW  HW  
OW  HW  HW  OW  HW  HW  OW  HW  HW  OW  HW  HW  OW  HW  HW  OW  HW  HW  OW  HW  
HW  OW  HW  HW  OW  HW  HW  OW  HW  HW  OW  HW  HW  OW  HW  HW  OW  HW  HW  OW  
HW  HW  OW  HW  HW  OW  HW  HW  OW  HW  HW  OW  HW  HW  OW  HW  HW  OW  HW  HW  
OW  HW  HW  OW  HW  HW  OW  HW  HW  OW  HW  HW  OW  HW  HW  OW  HW  HW  OW  HW  
HW  OW  HW  HW  OW  HW  HW  OW  HW  HW  OW  HW  HW  OW  HW  HW  OW  HW  HW  OW  
HW  HW  OW  HW  HW  OW  HW  HW  OW  HW  HW  OW  HW  HW  OW  HW  HW  OW  HW  HW  
OW  HW  HW  OW  HW  HW  OW  HW  HW  OW  HW  HW  OW  HW  HW  OW  HW  HW  OW  HW  
HW  OW  HW  HW  OW  HW  HW  OW  HW  HW  OW  HW  HW  OW  HW  HW  OW  HW  HW  OW  
HW  HW  OW  HW  HW  OW  HW  HW  OW  HW  HW  OW  HW  HW  OW  HW  HW  OW  HW  HW  
OW  HW  HW  OW  HW  HW  OW  HW  HW  OW  HW  HW  OW  HW  HW  OW  HW  HW  OW  HW  
HW  OW  HW  HW  OW  HW  HW  OW  HW  HW  OW  HW  HW  OW  HW  HW  OW  HW  HW  OW  
HW  HW  OW  HW  HW  OW  HW  HW  OW  HW  HW  OW  HW  HW  OW  HW  HW  OW  HW  HW  
OW  HW  HW  OW  HW  HW  OW  HW  HW  OW  HW  HW  OW  HW  HW  OW  HW  HW  OW  HW  
HW  OW  HW  HW  OW  HW  HW  OW  HW  HW  OW  HW  HW  OW  HW  HW  OW  HW  HW  OW  
HW  HW  OW  HW  HW  OW  HW  HW  OW  HW  HW  OW  HW  HW  OW  HW  HW  OW  HW  HW  
OW  HW  HW  OW  HW  HW  OW  HW  HW  OW  HW  HW  OW  HW  HW  OW  HW  HW  OW  HW  
HW  OW  HW  HW  OW  HW  HW  OW  HW  HW  OW  HW  HW  OW  HW  HW  OW  HW  HW  OW  
HW  HW  OW  HW  HW  OW  HW  HW  OW  HW  HW  OW  HW  HW  OW  HW  HW  OW  HW  HW  
OW  HW  HW  OW  HW  HW  OW  HW  HW  OW  HW  HW  OW  HW  HW  OW  HW  HW  OW  HW  
HW  OW  HW  HW  OW  HW  HW  OW  HW  HW  OW  HW  HW  OW  HW  HW  OW  HW  HW  OW  
HW  HW  OW  HW  HW  OW  HW  HW  OW  HW  HW  OW  HW  HW  OW  HW  HW  OW  HW  HW  
OW  HW  HW  OW  HW  HW  OW  HW  HW  OW  HW  HW  OW  HW  HW  OW  HW  HW  OW  HW  
HW  OW  HW  HW  OW  HW  HW  OW  HW  HW  OW  HW  HW  OW  HW  HW  OW  HW  HW  OW  
HW  HW  OW  HW  HW  OW  HW  HW  OW  HW  HW  OW  HW  HW  OW  HW  HW  OW  HW  HW  
OW  HW  HW  OW  HW  HW  OW  HW  HW  OW  HW  HW  OW  HW  HW  OW  HW  HW  OW  HW  
HW  OW  HW  HW  OW  HW  HW  OW  HW  HW  OW  HW  HW  OW  HW  HW  OW  HW  HW  OW  
HW  HW  OW  HW  HW  OW  HW  HW  OW  HW  HW  OW  HW  HW  OW  HW  HW  OW  HW  HW  
OW  HW  HW  OW  HW  HW  OW  HW  HW  OW  HW  HW  OW  HW  HW  OW  HW  HW  OW  HW  
HW  OW  HW  HW  OW  HW  HW  OW  HW  HW  OW  HW  HW  OW  HW  HW  OW  HW  HW  OW  
HW  HW  OW  HW  HW  OW  HW  HW  OW  HW  HW  OW  HW  HW  OW  HW  HW  OW  HW  HW  
OW  HW  HW  OW  HW  HW  OW  HW  HW  OW  HW  HW  OW  HW  HW  OW  HW  HW  OW  HW  
HW  OW  HW  HW  OW  HW  HW  OW  HW  HW  OW  HW  HW  OW  HW  HW  OW  HW  HW  OW  
HW  HW  OW  HW  HW  OW  HW  HW  OW  HW  HW  OW  HW  HW  OW  HW  HW  OW  HW  HW  
OW  HW  HW  OW  HW  HW  OW  HW  HW  OW  HW  HW  OW  HW  HW  OW  HW  HW  OW  HW  
HW  OW  HW  HW  OW  HW  HW  OW  HW  HW  OW  HW  HW  OW  HW  HW  OW  HW  HW  OW  
HW  HW  OW  HW  HW  OW  HW  HW  OW  HW  HW  OW  HW  HW  OW  HW  HW  OW  HW  HW  
OW  HW  HW  OW  HW  HW  OW  HW  HW  OW  HW  HW  OW  HW  HW  OW  HW  HW  OW  HW  
HW  OW  HW  HW  OW  HW  HW  OW  HW  HW  OW  HW  HW  OW  HW  HW  OW  HW  HW  OW  
HW  HW  OW  HW  HW  OW  HW  HW  OW  HW  HW  OW  HW  HW  OW  HW  HW  OW  HW  HW  
OW  HW  HW  OW  HW  HW  OW  HW  HW  OW  HW  HW  OW  HW  HW  OW  HW  HW  OW  HW  
HW  OW  HW  HW  OW  HW  HW  OW  HW  HW  OW  HW  HW  OW  HW  HW  OW  HW  HW  OW  
HW  HW  OW  HW  HW  OW  HW  HW  OW  HW  HW  OW  HW  HW  OW  HW  HW  OW  HW  HW  
OW  HW  HW  OW  HW  HW  OW  HW  HW  OW  HW  HW  OW  HW  HW  OW  HW  HW  OW  HW  
HW  OW  HW  HW  OW  HW  HW  OW  HW  HW  OW  HW  HW  OW  HW  HW  OW  HW  HW  OW  
HW  HW  OW  HW  HW  OW  HW  HW  OW  HW  HW  OW  HW  HW  OW  HW  HW  OW  HW  HW  
OW  HW  HW  OW  HW  HW  OW  HW  HW  OW  HW  HW  OW  HW  HW  OW  HW  HW  OW  HW  
HW  OW  HW  HW  OW  HW  HW  OW  HW  HW  OW  HW  HW  OW  HW  HW  OW  HW  HW  OW  
HW  HW  OW  HW  HW  OW  HW  HW  OW  HW  HW  OW  HW  HW  OW  HW  HW  OW  HW  HW  
OW  HW  HW  OW  HW  HW  OW  HW  HW  OW  HW  HW  OW  HW  HW  OW  HW  HW  OW  HW  
HW  OW  HW  HW  OW  HW  HW  OW  HW  HW  OW  HW  HW  OW  HW  HW  OW  HW  HW  OW  
HW  HW  OW  HW  HW  OW  HW  HW  OW  HW  HW  OW  HW  HW  OW  HW  HW  OW  HW  HW  
OW  HW  HW  OW  HW  HW  OW  HW  HW  OW  HW  HW  OW  HW  HW  OW  HW  HW  OW  HW  
HW  OW  HW  HW  OW  HW  HW  OW  HW  HW  OW  HW  HW  OW  HW  HW  OW  HW  HW  OW  
HW  HW  OW  HW  HW  OW  HW  HW  OW  HW  HW  OW  HW  HW  OW  HW  HW  OW  HW  HW  
OW  HW  HW  OW  HW  HW  OW  HW  HW  OW  HW  HW  OW  HW  HW  OW  HW  HW  OW  HW  
HW  OW  HW  HW  OW  HW  HW  OW  HW  HW  OW  HW  HW  OW  HW  HW  OW  HW  HW  OW  
HW  HW  OW  HW  HW  OW  HW  HW  OW  HW  HW  OW  HW  HW  OW  HW  HW  OW  HW  HW  
OW  HW  HW  OW  HW  HW  OW  HW  HW  OW  HW  HW  OW  HW  HW  OW  HW  HW  OW  HW  
HW  OW  HW  HW  OW  HW  HW  OW  HW  HW  OW  HW  HW  OW  HW  HW  OW  HW  HW  OW  
HW  HW  OW  HW  HW  OW  HW  HW  OW  HW  HW  OW  HW  HW  OW  HW  HW  OW  HW  HW  
OW  HW  HW  OW  HW  HW  OW  HW  HW  OW  HW  HW  OW  HW  HW  OW  HW  HW  OW  HW  
HW  OW  HW  HW  OW  HW  HW  OW  HW  HW  OW  HW  HW  OW  HW  HW  OW  HW  HW  OW  
HW  HW  OW  HW  HW  OW  HW  HW  OW  HW  HW  OW  HW  HW  OW  HW  HW  OW  HW  HW  
OW  HW  HW  OW  HW  HW  OW  HW  HW  OW  HW  HW  OW  HW  HW  OW  HW  HW  OW  HW  
HW  OW  HW  HW  OW  HW  HW  OW  HW  HW  OW  HW  HW  OW  HW  HW  OW  HW  HW  OW  
HW  HW  OW  HW  HW  OW  HW  HW  OW  HW  HW  OW  HW  HW  OW  HW  HW  OW  HW  HW  
OW  HW  HW  OW  HW  HW  OW  HW  HW  OW  HW  HW  OW  HW  HW  OW  HW  HW  OW  HW  
HW  OW  HW  HW  OW  HW  HW  OW  HW  HW  OW  HW  HW  OW  HW  HW  OW  HW  HW  OW  
HW  HW  OW  HW  HW  OW  HW  HW  OW  HW  HW  OW  HW  HW  OW  HW  HW  OW  HW  HW  
OW  HW  HW  OW  HW  HW  OW  HW  HW  OW  HW  HW  OW  HW  HW  OW  HW  HW  OW  HW  
HW  OW  HW  HW  OW  HW  HW  OW  HW  HW  OW  HW  HW  OW  HW  HW  OW  HW  HW  OW  
HW  HW  OW  HW  HW  OW  HW  HW  OW  HW  HW  OW  HW  HW  OW  HW  HW  OW  HW  HW  
OW  HW  HW  OW  HW  HW  OW  HW  HW  OW  HW  HW  OW  HW  HW  OW  HW  HW  OW  HW  
HW  OW  HW  HW  OW  HW  HW  OW  HW  HW  OW  HW  HW  OW  HW  HW  OW  HW  HW  OW  
HW  HW  OW  HW  HW  OW  HW  HW  OW  HW  HW  OW  HW  HW  OW  HW  HW  OW  HW  HW  
OW  HW  HW  OW  HW  HW  OW  HW  HW  OW  HW  HW  OW  HW  HW  OW  HW  HW  OW  HW  
HW  OW  HW  HW  OW  HW  HW  OW  HW  HW  OW  HW  HW  OW  HW  HW  OW  HW  HW  OW  
HW  HW  OW  HW  HW  OW  HW  HW  OW  HW  HW  OW  HW  HW  OW  HW  HW  OW  HW  HW  
OW  HW  HW  OW  HW  HW  OW  HW  HW  OW  HW  HW  OW  HW  HW  OW  HW  HW  OW  HW  
HW  OW  HW  HW  OW  HW  HW  OW  HW  HW  OW  HW  HW  OW  HW  HW  OW  HW  HW  OW  
HW  HW  OW  HW  HW  OW  HW  HW  OW  HW  HW  OW  HW  HW  OW  HW  HW  OW  HW  HW  
OW  HW  HW  OW  HW  HW  OW  HW  HW  OW  HW  HW  OW  HW  HW  OW  HW  HW  OW  HW  
HW  OW  HW  HW  OW  HW  HW  OW  HW  HW  OW  HW  HW  OW  HW  HW  OW  HW  HW  OW  
HW  HW  OW  HW  HW  OW  HW  HW  OW  HW  HW  OW  HW  HW  OW  HW  HW  OW  HW  HW  
OW  HW  HW  OW  HW  HW  OW  HW  HW  OW  HW  HW  OW  HW  HW  OW  HW  HW  OW  HW  
HW  OW  HW  HW  OW  HW  HW  OW  HW  HW  OW  HW  HW  OW  HW  HW  OW  HW  HW  OW  
HW  HW  OW  HW  HW  OW  HW  HW  OW  HW  HW  OW  HW  HW  OW  HW  HW  OW  HW  HW  
OW  HW  HW  OW  HW  HW  OW  HW  HW  OW  HW  HW  OW  HW  HW  OW  HW  HW  OW  HW  
HW  OW  HW  HW  OW  HW  HW  OW  HW  HW  OW  HW  HW  OW  HW  HW  OW  HW  HW  OW  
HW  HW  OW  HW  HW  OW  HW  HW  OW  HW  HW  OW  HW  HW  OW  HW  HW  OW  HW  HW  
OW  HW  HW  OW  HW  HW  OW  HW  HW  OW  HW  HW  OW  HW  HW  OW  HW  HW  OW  HW  
HW  OW  HW  HW  OW  HW  HW  OW  HW  HW  OW  HW  HW  OW  HW  HW  OW  HW  HW  OW  
HW  HW  OW  HW  HW  OW  HW  HW  OW  HW  HW  OW  HW  HW  OW  HW  HW  OW  HW  HW  
OW  HW  HW  OW  HW  HW  OW  HW  HW  OW  HW  HW  OW  HW  HW  OW  HW  HW  OW  HW  
HW  OW  HW  HW  OW  HW  HW  OW  HW  HW  OW  HW  HW  OW  HW  HW  OW  HW  HW  OW  
HW  HW  OW  HW  HW  OW  HW  HW  OW  HW  HW  OW  HW  HW  OW  HW  HW  OW  HW  HW  
OW  HW  HW  OW  HW  HW  OW  HW  HW  OW  HW  HW  OW  HW  HW  OW  HW  HW  OW  HW  
HW  OW  HW  HW  OW  HW  HW  OW  HW  HW  OW  HW  HW  OW  HW  HW  OW  HW  HW  OW  
HW  HW  OW  HW  HW  OW  HW  HW  OW  HW  HW  OW  HW  HW  OW  HW  HW  OW  HW  HW  
OW  HW  HW  OW  HW  HW  OW  HW  HW  OW  HW  HW  OW  HW  HW  OW  HW  HW  OW  HW  
HW  OW  HW  HW  OW  HW  HW  OW  HW  HW  OW  HW  HW  OW  HW  HW  OW  HW  HW  OW  
HW  HW  OW  HW  HW  OW  HW  HW  OW  HW  HW  OW  HW  HW  OW  HW  HW  OW  HW  HW  
OW  HW  HW  OW  HW  HW  OW  HW  HW  OW  HW  HW  OW  HW  HW  OW  HW  HW  OW  HW  
HW  OW  HW  HW  OW  HW  HW  OW  HW  HW  OW  HW  HW  OW  HW  HW  OW  HW  HW  OW  
HW  HW  OW  HW  HW  OW  HW  HW  OW  HW  HW  OW  HW  HW  OW  HW  HW  OW  HW  HW  
OW  HW  HW  OW  HW  HW  OW  HW  HW  OW  HW  HW  OW  HW  HW  OW  HW  HW  OW  HW  
HW  OW  HW  HW  OW  HW  HW  OW  HW  HW  OW  HW  HW  OW  HW  HW  OW  HW  HW  OW  
HW  HW  OW  HW  HW  OW  HW  HW  OW  HW  HW  OW  HW  HW  OW  HW  HW  OW  HW  HW  
OW  HW  HW  OW  HW  HW  OW  HW  HW  OW  HW  HW  OW  HW  HW  OW  HW  HW  OW  HW  
HW  OW  HW  HW  OW  HW  HW  OW  HW  HW  OW  HW  HW  OW  HW  HW  OW  HW  HW  OW  
HW  HW  OW  HW  HW  OW  HW  HW  OW  HW  HW  OW  HW  HW  OW  HW  HW  OW  HW  HW  
OW  HW  HW  OW  HW  HW  OW  HW  HW  OW  HW  HW  OW  HW  HW  OW  HW  HW  OW  HW  
HW  OW  HW  HW  OW  HW  HW  OW  HW  HW  OW  HW  HW  OW  HW  HW  OW  HW  HW  OW  
HW  HW  OW  HW  HW  OW  HW  HW  OW  HW  HW  OW  HW  HW  OW  HW  HW  OW  HW  HW  
OW  HW  HW  OW  HW  HW  OW  HW  HW  OW  HW  HW  OW  HW  HW  OW  HW  HW  OW  HW  
HW  OW  HW  HW  OW  HW  HW  OW  HW  HW  OW  HW  HW  OW  HW  HW  OW  HW  HW  OW  
HW  HW  OW  HW  HW  OW  HW  HW  OW  HW  HW  OW  HW  HW  OW  HW  HW  OW  HW  HW  
OW  HW  HW  OW  HW  HW  OW  HW  HW  OW  HW  HW  OW  HW  HW  OW  HW  HW  OW  HW  
HW  OW  HW  HW  OW  HW  HW  OW  HW  HW  OW  HW  HW  OW  HW  HW  OW  HW  HW  OW  
HW  HW  OW  HW  HW  OW  HW  HW  OW  HW  HW  OW  HW  HW  OW  HW  HW  OW  HW  HW  
OW  HW  HW  OW  HW  HW  OW  HW  HW  OW  HW  HW  OW  HW  HW  OW  HW  HW  OW  HW  
HW  OW  HW  HW  OW  HW  HW  OW  HW  HW  OW  HW  HW  OW  HW  HW  OW  HW  HW  OW  
HW  HW  OW  HW  HW  OW  HW  HW  OW  HW  HW  OW  HW  HW  OW  HW  HW  OW  HW  HW  
OW  HW  HW  OW  HW  HW  OW  HW  HW  OW  HW  HW  OW  HW  HW  OW  HW  HW  OW  HW  
HW  OW  HW  HW  OW  HW  HW  OW  HW  HW  OW  HW  HW  OW  HW  HW  OW  HW  HW  OW  
HW  HW  OW  HW  HW  OW  HW  HW  OW  HW  HW  OW  HW  HW  OW  HW  HW  OW  HW  HW  
OW  HW  HW  OW  HW  HW  OW  HW  HW  OW  HW  HW  OW  HW  HW  OW  HW  HW  OW  HW  
HW  OW  HW  HW  OW  HW  HW  OW  HW  HW  OW  HW  HW  OW  HW  HW  OW  HW  HW  OW  
HW  HW  OW  HW  HW  OW  HW  HW  OW  HW  HW  OW  HW  HW  OW  HW  HW  OW  HW  HW  
OW  HW  HW  OW  HW  HW  OW  HW  HW  OW  HW  HW  OW  HW  HW  OW  HW  HW  OW  HW  
HW  OW  HW  HW  OW  HW  HW  OW  HW  HW  OW  HW  HW  OW  HW  HW  OW  HW  HW  OW  
HW  HW  OW  HW  HW  OW  HW  HW  OW  HW  HW  OW  HW  HW  OW  HW  HW  OW  HW  HW  
OW  HW  HW  OW  HW  HW  OW  HW  HW  OW  HW  HW  OW  HW  HW  OW  HW  HW  OW  HW  
HW  OW  HW  HW  OW  HW  HW  OW  HW  HW  OW  HW  HW  OW  HW  HW  OW  HW  HW  OW  
HW  HW  OW  HW  HW  OW  HW  HW  OW  HW  HW  OW  HW  HW  OW  HW  HW  OW  HW  HW  
OW  HW  HW  OW  HW  HW  OW  HW  HW  OW  HW  HW  OW  HW  HW  OW  HW  HW  OW  HW  
HW  OW  HW  HW  OW  HW  HW  OW  HW  HW  OW  HW  HW  OW  HW  HW  OW  HW  HW  OW  
HW  HW  OW  HW  HW  OW  HW  HW  OW  HW  HW  OW  HW  HW  OW  HW  HW  OW  HW  HW  
OW  HW  HW  OW  HW  HW  OW  HW  HW  OW  HW  HW  OW  HW  HW  OW  HW  HW  OW  HW  
HW  OW  HW  HW  OW  HW  HW  OW  HW  HW  OW  HW  HW  OW  HW  HW  OW  HW  HW  OW  
HW  HW  OW  HW  HW  OW  HW  HW  OW  HW  HW  OW  HW  HW  OW  HW  HW  OW  HW  HW  
OW  HW  HW  OW  HW  HW  OW  HW  HW  OW  HW  HW  OW  HW  HW  OW  HW  HW  OW  HW  
HW  OW  HW  HW  OW  HW  HW  OW  HW  HW  OW  HW  HW  OW  HW  HW  OW  HW  HW  OW  
HW  HW  OW  HW  HW  OW  HW  HW  OW  HW  HW  OW  HW  HW  OW  HW  HW  OW  HW  HW  
OW  HW  HW  OW  HW  HW  OW  HW  HW  OW  HW  HW  OW  HW  HW  OW  HW  HW  OW  HW  
HW  OW  HW  HW  OW  HW  HW  OW  HW  HW  OW  HW  HW  OW  HW  HW  OW  HW  HW  OW  
HW  HW  OW  HW  HW  OW  HW  HW  OW  HW  HW  OW  HW  HW  OW  HW  HW  OW  HW  HW  
OW  HW  HW  OW  HW  HW  OW  HW  HW  OW  HW  HW  OW  HW  HW  OW  HW  HW  OW  HW  
HW  OW  HW  HW  OW  HW  HW  OW  HW  HW  OW  HW  HW  OW  HW  HW  OW  HW  HW  OW  
HW  HW  OW  HW  HW  OW  HW  HW  OW  HW  HW  OW  HW  HW  OW  HW  HW  OW  HW  HW  
OW  HW  HW  OW  HW  HW  OW  HW  HW  OW  HW  HW  OW  HW  HW  OW  HW  HW  OW  HW  
HW  OW  HW  HW  OW  HW  HW  OW  HW  HW  OW  HW  HW  OW  HW  HW  OW  HW  HW  OW  
HW  HW  OW  HW  HW  OW  HW  HW  OW  HW  HW  OW  HW  HW  OW  HW  HW  OW  HW  HW  
OW  HW  HW  OW  HW  HW  OW  HW  HW  OW  HW  HW  OW  HW  HW  OW  HW  HW  OW  HW  
HW  OW  HW  HW  OW  HW  HW  OW  HW  HW  OW  HW  HW  OW  HW  HW  OW  HW  HW  OW  
HW  HW  OW  HW  HW  OW  HW  HW  OW  HW  HW  OW  HW  HW  OW  HW  HW  OW  HW  HW  
OW  HW  HW  OW  HW  HW  OW  HW  HW  OW  HW  HW  OW  HW  HW  OW  HW  HW  OW  HW  
HW  OW  HW  HW  OW  HW  HW  OW  HW  HW  OW  HW  HW  OW  HW  HW  OW  HW  HW  OW  
HW  HW  OW  HW  HW  OW  HW  HW  OW  HW  HW  OW  HW  HW  OW  HW  HW  OW  HW  HW  
OW  HW  HW  OW  HW  HW  OW  HW  HW  OW  HW  HW  OW  HW  HW  OW  HW  HW  OW  HW  
HW  OW  HW  HW  OW  HW  HW  OW  HW  HW  OW  HW  HW  OW  HW  HW  OW  HW  HW  OW  
HW  HW  OW  HW  HW  OW  HW  HW  OW  HW  HW  OW  HW  HW  OW  HW  HW  OW  HW  HW  
OW  HW  HW  OW  HW  HW  OW  HW  HW  OW  HW  HW  OW  HW  HW  OW  HW  HW  OW  HW  
HW  OW  HW  HW  OW  HW  HW  OW  HW  HW  OW  HW  HW  OW  HW  HW  OW  HW  HW  OW  
HW  HW  OW  HW  HW  OW  HW  HW  OW  HW  HW  OW  HW  HW  OW  HW  HW  OW  HW  HW  
OW  HW  HW  OW  HW  HW  OW  HW  HW  OW  HW  HW  OW  HW  HW  OW  HW  HW  OW  HW  
HW  OW  HW  HW  OW  HW  HW  OW  HW  HW  OW  HW  HW  OW  HW  HW  OW  HW  HW  OW  
HW  HW  OW  HW  HW  OW  HW  HW  OW  HW  HW  OW  HW  HW  OW  HW  HW  OW  HW  HW  
OW  HW  HW  OW  HW  HW  OW  HW  HW  OW  HW  HW  OW  HW  HW  OW  HW  HW  OW  HW  
HW  OW  HW  HW  OW  HW  HW  OW  HW  HW  OW  HW  HW  OW  HW  HW  OW  HW  HW  OW  
HW  HW  OW  HW  HW  OW  HW  HW  OW  HW  HW  OW  HW  HW  OW  HW  HW  OW  HW  HW  
OW  HW  HW  OW  HW  HW  OW  HW  HW  OW  HW  HW  OW  HW  HW  OW  HW  HW  OW  HW  
HW  OW  HW  HW  OW  HW  HW  OW  HW  HW  OW  HW  HW  OW  HW  HW  OW  HW  HW  OW  
HW  HW  OW  HW  HW  OW  HW  HW  OW  HW  HW  OW  HW  HW  OW  HW  HW  OW  HW  HW  
OW  HW  HW  OW  HW  HW  OW  HW  HW  OW  HW  HW  OW  HW  HW  OW  HW  HW  OW  HW  
HW  OW  HW  HW  OW  HW  HW  OW  HW  HW  OW  HW  HW  OW  HW  HW  OW  HW  HW  OW  
HW  HW  OW  HW  HW  OW  HW  HW  OW  HW  HW  OW  HW  HW  OW  HW  HW  OW  HW  HW  
OW  HW  HW  OW  HW  HW  OW  HW  HW  OW  HW  HW  OW  HW  HW  OW  HW  HW  OW  HW  
HW  OW  HW  HW  OW  HW  HW  OW  HW  HW  OW  HW  HW  OW  HW  HW  OW  HW  HW  OW  
HW  HW  OW  HW  HW  OW  HW  HW  OW  HW  HW  OW  HW  HW  OW  HW  HW  OW  HW  HW  
OW  HW  HW  OW  HW  HW  OW  HW  HW  OW  HW  HW  OW  HW  HW  OW  HW  HW  OW  HW  
HW  OW  HW  HW  OW  HW  HW  OW  HW  HW  OW  HW  HW  OW  HW  HW  OW  HW  HW  OW  
HW  HW  OW  HW  HW  OW  HW  HW  OW  HW  HW  OW  HW  HW  OW  HW  HW  OW  HW  HW  
OW  HW  HW  OW  HW  HW  OW  HW  HW  OW  HW  HW  OW  HW  HW  OW  HW  HW  OW  HW  
HW  OW  HW  HW  OW  HW  HW  OW  HW  HW  OW  HW  HW  OW  HW  HW  OW  HW  HW  OW  
HW  HW  OW  HW  HW  OW  HW  HW  OW  HW  HW  OW  HW  HW  OW  HW  HW  OW  HW  HW  
OW  HW  HW  OW  HW  HW  OW  HW  HW  OW  HW  HW  OW  HW  HW  OW  HW  HW  OW  HW  
HW  OW  HW  HW  OW  HW  HW  OW  HW  HW  OW  HW  HW  OW  HW  HW  OW  HW  HW  OW  
HW  HW  OW  HW  HW  OW  HW  HW  OW  HW  HW  OW  HW  HW  OW  HW  HW  OW  HW  HW  
OW  HW  HW  OW  HW  HW  OW  HW  HW  OW  HW  HW  OW  HW  HW  OW  HW  HW  OW  HW  
HW  OW  HW  HW  OW  HW  HW  OW  HW  HW  OW  HW  HW  OW  HW  HW  OW  HW  HW  OW  
HW  HW  OW  HW  HW  OW  HW  HW  OW  HW  HW  OW  HW  HW  OW  HW  HW  OW  HW  HW  
OW  HW  HW  OW  HW  HW  OW  HW  HW  OW  HW  HW  OW  HW  HW  OW  HW  HW  OW  HW  
HW  OW  HW  HW  OW  HW  HW  OW  HW  HW  OW  HW  HW  OW  HW  HW  OW  HW  HW  OW  
HW  HW  OW  HW  HW  OW  HW  HW  OW  HW  HW  OW  HW  HW  OW  HW  HW  OW  HW  HW  
OW  HW  HW  OW  HW  HW  OW  HW  HW  OW  HW  HW  OW  HW  HW  OW  HW  HW  OW  HW  
HW  OW  HW  HW  OW  HW  HW  OW  HW  HW  OW  HW  HW  OW  HW  HW  OW  HW  HW  OW  
HW  HW  OW  HW  HW  OW  HW  HW  OW  HW  HW  OW  HW  HW  OW  HW  HW  OW  HW  HW  
OW  HW  HW  OW  HW  HW  OW  HW  HW  OW  HW  HW  OW  HW  HW  OW  HW  HW  OW  HW  
HW  OW  HW  HW  OW  HW  HW  OW  HW  HW  OW  HW  HW  OW  HW  HW  OW  HW  HW  OW  
HW  HW  OW  HW  HW  OW  HW  HW  OW  HW  HW  OW  HW  HW  OW  HW  HW  OW  HW  HW  
OW  HW  HW  OW  HW  HW  OW  HW  HW  OW  HW  HW  OW  HW  HW  OW  HW  HW  OW  HW  
HW  OW  HW  HW  OW  HW  HW  OW  HW  HW  OW  HW  HW  OW  HW  HW  OW  HW  HW  OW  
HW  HW  OW  HW  HW  OW  HW  HW  OW  HW  HW  OW  HW  HW  OW  HW  HW  OW  HW  HW  
OW  HW  HW  OW  HW  HW  OW  HW  HW  OW  HW  HW  OW  HW  HW  OW  HW  HW  OW  HW  
HW  OW  HW  HW  OW  HW  HW  OW  HW  HW  OW  HW  HW  OW  HW  HW  OW  HW  HW  OW  
HW  HW  OW  HW  HW  OW  HW  HW  OW  HW  HW  OW  HW  HW  OW  HW  HW  OW  HW  HW  
OW  HW  HW  OW  HW  HW  OW  HW  HW  OW  HW  HW  OW  HW  HW  OW  HW  HW  OW  HW  
HW  OW  HW  HW  OW  HW  HW  OW  HW  HW  OW  HW  HW  OW  HW  HW  OW  HW  HW  OW  
HW  HW  OW  HW  HW  OW  HW  HW  OW  HW  HW  OW  HW  HW  OW  HW  HW  OW  HW  HW  
OW  HW  HW  OW  HW  HW  OW  HW  HW  OW  HW  HW  OW  HW  HW  OW  HW  HW  OW  HW  
HW  OW  HW  HW  OW  HW  HW  OW  HW  HW  OW  HW  HW  OW  HW  HW  OW  HW  HW  OW  
HW  HW  OW  HW  HW  OW  HW  HW  OW  HW  HW  OW  HW  HW  OW  HW  HW  OW  HW  HW  
OW  HW  HW  OW  HW  HW  OW  HW  HW  OW  HW  HW  OW  HW  HW  OW  HW  HW  OW  HW  
HW  OW  HW  HW  OW  HW  HW  OW  HW  HW  OW  HW  HW  OW  HW  HW  OW  HW  HW  OW  
HW  HW  OW  HW  HW  OW  HW  HW  OW  HW  HW  OW  HW  HW  OW  HW  HW  OW  HW  HW  
OW  HW  HW  OW  HW  HW  OW  HW  HW  OW  HW  HW  OW  HW  HW  OW  HW  HW  OW  HW  
HW  OW  HW  HW  OW  HW  HW  OW  HW  HW  OW  HW  HW  OW  HW  HW  OW  HW  HW  OW  
HW  HW  OW  HW  HW  OW  HW  HW  OW  HW  HW  OW  HW  HW  OW  HW  HW  OW  HW  HW  
OW  HW  HW  OW  HW  HW  OW  HW  HW  OW  HW  HW  OW  HW  HW  OW  HW  HW  OW  HW  
HW  OW  HW  HW  OW  HW  HW  OW  HW  HW  OW  HW  HW  OW  HW  HW  OW  HW  HW  OW  
HW  HW  OW  HW  HW  OW  HW  HW  OW  HW  HW  OW  HW  HW  OW  HW  HW  OW  HW  HW  
OW  HW  HW  OW  HW  HW  OW  HW  HW  OW  HW  HW  OW  HW  HW  OW  HW  HW  OW  HW  
HW  OW  HW  HW  OW  HW  HW  OW  HW  HW  OW  HW  HW  OW  HW  HW  OW  HW  HW  OW  
HW  HW  OW  HW  HW  OW  HW  HW  OW  HW  HW  OW  HW  HW  OW  HW  HW  OW  HW  HW  
OW  HW  HW  OW  HW  HW  OW  HW  HW  OW  HW  HW  OW  HW  HW  OW  HW  HW  OW  HW  
HW  OW  HW  HW  OW  HW  HW  OW  HW  HW  OW  HW  HW  OW  HW  HW  OW  HW  HW  OW  
HW  HW  OW  HW  HW  OW  HW  HW  OW  HW  HW  OW  HW  HW  OW  HW  HW  OW  HW  HW  
OW  HW  HW  OW  HW  HW  OW  HW  HW  OW  HW  HW  OW  HW  HW  OW  HW  HW  OW  HW  
HW  OW  HW  HW  OW  HW  HW  OW  HW  HW  OW  HW  HW  OW  HW  HW  OW  HW  HW  OW  
HW  HW  OW  HW  HW  OW  HW  HW  OW  HW  HW  OW  HW  HW  OW  HW  HW  OW  HW  HW  
OW  HW  HW  OW  HW  HW  OW  HW  HW  OW  HW  HW  OW  HW  HW  OW  HW  HW  OW  HW  
HW  OW  HW  HW  OW  HW  HW  OW  HW  HW  OW  HW  HW  OW  HW  HW  OW  HW  HW  OW  
HW  HW  OW  HW  HW  OW  HW  HW  OW  HW  HW  OW  HW  HW  OW  HW  HW  OW  HW  HW  
OW  HW  HW  OW  HW  HW  OW  HW  HW  OW  HW  HW  OW  HW  HW  OW  HW  HW  OW  HW  
HW  OW  HW  HW  OW  HW  HW  OW  HW  HW  OW  HW  HW  OW  HW  HW  OW  HW  HW  OW  
HW  HW  OW  HW  HW  OW  HW  HW  OW  HW  HW  OW  HW  HW  OW  HW  HW  OW  HW  HW  
OW  HW  HW  OW  HW  HW  OW  HW  HW  OW  HW  HW  OW  HW  HW  OW  HW  HW  OW  HW  
HW  OW  HW  HW  OW  HW  HW  OW  HW  HW  OW  HW  HW  OW  HW  HW  OW  HW  HW  OW  
HW  HW  OW  HW  HW  OW  HW  HW  OW  HW  HW  OW  HW  HW  OW  HW  HW  OW  HW  HW  
OW  HW  HW  OW  HW  HW  OW  HW  HW  OW  HW  HW  OW  HW  HW  OW  HW  HW  OW  HW  
HW  OW  HW  HW  OW  HW  HW  OW  HW  HW  OW  HW  HW  OW  HW  HW  OW  HW  HW  OW  
HW  HW  OW  HW  HW  OW  HW  HW  OW  HW  HW  OW  HW  HW  OW  HW  HW  OW  HW  HW  
OW  HW  HW  OW  HW  HW  OW  HW  HW  OW  HW  HW  OW  HW  HW  OW  HW  HW  OW  HW  
HW  OW  HW  HW  OW  HW  HW  OW  HW  HW  OW  HW  HW  OW  HW  HW  OW  HW  HW  OW  
HW  HW  OW  HW  HW  OW  HW  HW  OW  HW  HW  OW  HW  HW  OW  HW  HW  OW  HW  HW  
OW  HW  HW  OW  HW  HW  OW  HW  HW  OW  HW  HW  OW  HW  HW  OW  HW  HW  OW  HW  
HW  OW  HW  HW  OW  HW  HW  OW  HW  HW  OW  HW  HW  OW  HW  HW  OW  HW  HW  OW  
HW  HW  OW  HW  HW  OW  HW  HW  OW  HW  HW  OW  HW  HW  OW  HW  HW  OW  HW  HW  
OW  HW  HW  OW  HW  HW  OW  HW  HW  OW  HW  HW  OW  HW  HW  OW  HW  HW  OW  HW  
HW  OW  HW  HW  OW  HW  HW  OW  HW  HW  OW  HW  HW  OW  HW  HW  OW  HW  HW  OW  
HW  HW  OW  HW  HW  OW  HW  HW  OW  HW  HW  OW  HW  HW  OW  HW  HW  OW  HW  HW  
OW  HW  HW  OW  HW  HW  OW  HW  HW  OW  HW  HW  OW  HW  HW  OW  HW  HW  OW  HW  
HW  OW  HW  HW  OW  HW  HW  OW  HW  HW  OW  HW  HW  OW  HW  HW  OW  HW  HW  OW  
HW  HW  OW  HW  HW  OW  HW  HW  OW  HW  HW  OW  HW  HW  OW  HW  HW  OW  HW  HW  
OW  HW  HW  OW  HW  HW  OW  HW  HW  OW  HW  HW  OW  HW  HW  OW  HW  HW  OW  HW  
HW  OW  HW  HW  OW  HW  HW  OW  HW  HW  OW  HW  HW  OW  HW  HW  OW  HW  HW  OW  
HW  HW  OW  HW  HW  OW  HW  HW  OW  HW  HW  OW  HW  HW  OW  HW  HW  OW  HW  HW  
OW  HW  HW  OW  HW  HW  OW  HW  HW  OW  HW  HW  OW  HW  HW  OW  HW  HW  OW  HW  
HW  OW  HW  HW  OW  HW  HW  OW  HW  HW  OW  HW  HW  OW  HW  HW  OW  HW  HW  OW  
HW  HW  OW  HW  HW  OW  HW  HW  OW  HW  HW  OW  HW  HW  OW  HW  HW  OW  HW  HW  
OW  HW  HW  OW  HW  HW  OW  HW  HW  OW  HW  HW  OW  HW  HW  OW  HW  HW  OW  HW  
HW  OW  HW  HW  OW  HW  HW  OW  HW  HW  OW  HW  HW  OW  HW  HW  OW  HW  HW  OW  
HW  HW  OW  HW  HW  OW  HW  HW  OW  HW  HW  OW  HW  HW  OW  HW  HW  OW  HW  HW  
OW  HW  HW  OW  HW  HW  OW  HW  HW  OW  HW  HW  OW  HW  HW  OW  HW  HW  OW  HW  
HW  OW  HW  HW  OW  HW  HW  OW  HW  HW  OW  HW  HW  OW  HW  HW  OW  HW  HW  OW  
HW  HW  OW  HW  HW  OW  HW  HW  OW  HW  HW  OW  HW  HW  OW  HW  HW  OW  HW  HW  
OW  HW  HW  OW  HW  HW  OW  HW  HW  OW  HW  HW  OW  HW  HW  OW  HW  HW  OW  HW  
HW  OW  HW  HW  OW  HW  HW  OW  HW  HW  OW  HW  HW  OW  HW  HW  OW  HW  HW  OW  
HW  HW  OW  HW  HW  OW  HW  HW  OW  HW  HW  OW  HW  HW  OW  HW  HW  OW  HW  HW  
OW  HW  HW  OW  HW  HW  OW  HW  HW  OW  HW  HW  OW  HW  HW  OW  HW  HW  OW  HW  
HW  OW  HW  HW  OW  HW  HW  OW  HW  HW  OW  HW  HW  OW  HW  HW  OW  HW  HW  OW  
HW  HW  OW  HW  HW  OW  HW  HW  OW  HW  HW  OW  HW  HW  OW  HW  HW  OW  HW  HW  
OW  HW  HW  OW  HW  HW  OW  HW  HW  OW  HW  HW  OW  HW  HW  OW  HW  HW  OW  HW  
HW  OW  HW  HW  OW  HW  HW  OW  HW  HW  OW  HW  HW  OW  HW  HW  OW  HW  HW  OW  
HW  HW  OW  HW  HW  OW  HW  HW  OW  HW  HW  OW  HW  HW  OW  HW  HW  OW  HW  HW  
OW  HW  HW  OW  HW  HW  OW  HW  HW  OW  HW  HW  OW  HW  HW  OW  HW  HW  OW  HW  
HW  OW  HW  HW  OW  HW  HW  OW  HW  HW  OW  HW  HW  OW  HW  HW  OW  HW  HW  OW  
HW  HW  OW  HW  HW  OW  HW  HW  OW  HW  HW  OW  HW  HW  OW  HW  HW  OW  HW  HW  
OW  HW  HW  OW  HW  HW  OW  HW  HW  OW  HW  HW  OW  HW  HW  OW  HW  HW  OW  HW  
HW  OW  HW  HW  OW  HW  HW  OW  HW  HW  OW  HW  HW  OW  HW  HW  OW  HW  HW  OW  
HW  HW  OW  HW  HW  OW  HW  HW  OW  HW  HW  OW  HW  HW  OW  HW  HW  OW  HW  HW  
OW  HW  HW  OW  HW  HW  OW  HW  HW  OW  HW  HW  OW  HW  HW  OW  HW  HW  OW  HW  
HW  OW  HW  HW  OW  HW  HW  OW  HW  HW  OW  HW  HW  OW  HW  HW  OW  HW  HW  OW  
HW  HW  OW  HW  HW  OW  HW  HW  OW  HW  HW  OW  HW  HW  OW  HW  HW  OW  HW  HW  
OW  HW  HW  OW  HW  HW  OW  HW  HW  OW  HW  HW  OW  HW  HW  OW  HW  HW  OW  HW  
HW  OW  HW  HW  OW  HW  HW  OW  HW  HW  OW  HW  HW  OW  HW  HW  OW  HW  HW  OW  
HW  HW  OW  HW  HW  OW  HW  HW  OW  HW  HW  OW  HW  HW  OW  HW  HW  OW  HW  HW  
OW  HW  HW  OW  HW  HW  OW  HW  HW  OW  HW  HW  OW  HW  HW  OW  HW  HW  OW  HW  
HW  OW  HW  HW  OW  HW  HW  OW  HW  HW  OW  HW  HW  OW  HW  HW  OW  HW  HW  OW  
HW  HW  OW  HW  HW  OW  HW  HW  OW  HW  HW  OW  HW  HW  OW  HW  HW  OW  HW  HW  
OW  HW  HW  OW  HW  HW  OW  HW  HW  OW  HW  HW  OW  HW  HW  OW  HW  HW  OW  HW  
HW  OW  HW  HW  OW  HW  HW  OW  HW  HW  OW  HW  HW  OW  HW  HW  OW  HW  HW  OW  
HW  HW  OW  HW  HW  OW  HW  HW  OW  HW  HW  OW  HW  HW  OW  HW  HW  OW  HW  HW  
OW  HW  HW  OW  HW  HW  OW  HW  HW  OW  HW  HW  OW  HW  HW  OW  HW  HW  OW  HW  
HW  OW  HW  HW  OW  HW  HW  OW  HW  HW  OW  HW  HW  OW  HW  HW  OW  HW  HW  OW  
HW  HW  OW  HW  HW  OW  HW  HW  OW  HW  HW  OW  HW  HW  OW  HW  HW  OW  HW  HW  
OW  HW  HW  OW  HW  HW  OW  HW  HW  OW  HW  HW  OW  HW  HW  OW  HW  HW  OW  HW  
HW  OW  HW  HW  OW  HW  HW  OW  HW  HW  OW  HW  HW  OW  HW  HW  OW  HW  HW  OW  
HW  HW  OW  HW  HW  OW  HW  HW  OW  HW  HW  OW  HW  HW  OW  HW  HW  OW  HW  HW  
OW  HW  HW  OW  HW  HW  OW  HW  HW  OW  HW  HW  OW  HW  HW  OW  HW  HW  OW  HW  
HW  OW  HW  HW  OW  HW  HW  OW  HW  HW  OW  HW  HW  OW  HW  HW  OW  HW  HW  OW  
HW  HW  OW  HW  HW  OW  HW  HW  OW  HW  HW  OW  HW  HW  OW  HW  HW  OW  HW  HW  
OW  HW  HW  OW  HW  HW  OW  HW  HW  OW  HW  HW  OW  HW  HW  OW  HW  HW  OW  HW  
HW  OW  HW  HW  OW  HW  HW  OW  HW  HW  OW  HW  HW  OW  HW  HW  OW  HW  HW  OW  
HW  HW  OW  HW  HW  OW  HW  HW  OW  HW  HW  OW  HW  HW  OW  HW  HW  OW  HW  HW  
OW  HW  HW  OW  HW  HW  OW  HW  HW  OW  HW  HW  OW  HW  HW  OW  HW  HW  OW  HW  
HW  OW  HW  HW  OW  HW  HW  OW  HW  HW  OW  HW  HW  OW  HW  HW  OW  HW  HW  OW  
HW  HW  OW  HW  HW  OW  HW  HW  OW  HW  HW  OW  HW  HW  OW  HW  HW  OW  HW  HW  
OW  HW  HW  OW  HW  HW  OW  HW  HW  OW  HW  HW  OW  HW  HW  OW  HW  HW  OW  HW  
HW  OW  HW  HW  OW  HW  HW  OW  HW  HW  OW  HW  HW  OW  HW  HW  OW  HW  HW  OW  
HW  HW  OW  HW  HW  OW  HW  HW  OW  HW  HW  OW  HW  HW  OW  HW  HW  OW  HW  HW  
OW  HW  HW  OW  HW  HW  OW  HW  HW  OW  HW  HW  OW  HW  HW  OW  HW  HW  OW  HW  
HW  OW  HW  HW  OW  HW  HW  OW  HW  HW  OW  HW  HW  OW  HW  HW  OW  HW  HW  OW  
HW  HW  OW  HW  HW  OW  HW  HW  OW  HW  HW  OW  HW  HW  OW  HW  HW  OW  HW  HW  
OW  HW  HW  OW  HW  HW  OW  HW  HW  OW  HW  HW  OW  HW  HW  OW  HW  HW  OW  HW  
HW  OW  HW  HW  OW  HW  HW  OW  HW  HW  OW  HW  HW  OW  HW  HW  OW  HW  HW  OW  
HW  HW  OW  HW  HW  OW  HW  HW  OW  HW  HW  OW  HW  HW  OW  HW  HW  OW  HW  HW  
OW  HW  HW  OW  HW  HW  OW  HW  HW  OW  HW  HW  OW  HW  HW  OW  HW  HW  OW  HW  
HW  OW  HW  HW  OW  HW  HW  OW  HW  HW  OW  HW  HW  OW  HW  HW  OW  HW  HW  OW  
HW  HW  OW  HW  HW  OW  HW  HW  OW  HW  HW  OW  HW  HW  OW  HW  HW  OW  HW  HW  
OW  HW  HW  OW  HW  HW  OW  HW  HW  OW  HW  HW  OW  HW  HW  OW  HW  HW  OW  HW  
HW  OW  HW  HW  OW  HW  HW  OW  HW  HW  OW  HW  HW  OW  HW  HW  OW  HW  HW  OW  
HW  HW  OW  HW  HW  OW  HW  HW  OW  HW  HW  OW  HW  HW  OW  HW  HW  OW  HW  HW  
OW  HW  HW  OW  HW  HW  OW  HW  HW  OW  HW  HW  OW  HW  HW  OW  HW  HW  OW  HW  
HW  OW  HW  HW  OW  HW  HW  OW  HW  HW  OW  HW  HW  OW  HW  HW  OW  HW  HW  OW  
HW  HW  OW  HW  HW  OW  HW  HW  OW  HW  HW  OW  HW  HW  OW  HW  HW  OW  HW  HW  
OW  HW  HW  OW  HW  HW  OW  HW  HW  OW  HW  HW  OW  HW  HW  OW  HW  HW  OW  HW  
HW  OW  HW  HW  OW  HW  HW  OW  HW  HW  OW  HW  HW  OW  HW  HW  OW  HW  HW  OW  
HW  HW  OW  HW  HW  OW  HW  HW  OW  HW  HW  OW  HW  HW  OW  HW  HW  OW  HW  HW  
OW  HW  HW  OW  HW  HW  OW  HW  HW  OW  HW  HW  OW  HW  HW  OW  HW  HW  OW  HW  
HW  OW  HW  HW  OW  HW  HW  OW  HW  HW  OW  HW  HW  OW  HW  HW  OW  HW  HW  OW  
HW  HW  OW  HW  HW  OW  HW  HW  OW  HW  HW  OW  HW  HW  OW  HW  HW  OW  HW  HW  
OW  HW  HW  OW  HW  HW  OW  HW  HW  OW  HW  HW  OW  HW  HW  OW  HW  HW  OW  HW  
HW  OW  HW  HW  OW  HW  HW  OW  HW  HW  OW  HW  HW  OW  HW  HW  OW  HW  HW  OW  
HW  HW  OW  HW  HW  OW  HW  HW  OW  HW  HW  OW  HW  HW  OW  HW  HW  OW  HW  HW  
OW  HW  HW  OW  HW  HW  OW  HW  HW  OW  HW  HW  OW  HW  HW  OW  HW  HW  OW  HW  
HW  OW  HW  HW  OW  HW  HW  OW  HW  HW  OW  HW  HW  OW  HW  HW  OW  HW  HW  OW  
HW  HW  OW  HW  HW  OW  HW  HW  OW  HW  HW  OW  HW  HW  OW  HW  HW  OW  HW  HW  
OW  HW  HW  OW  HW  HW  OW  HW  HW  OW  HW  HW  OW  HW  HW  OW  HW  HW  OW  HW  
HW  OW  HW  HW  OW  HW  HW  OW  HW  HW  OW  HW  HW  OW  HW  HW  OW  HW  HW  OW  
HW  HW  OW  HW  HW  OW  HW  HW  OW  HW  HW  OW  HW  HW  OW  HW  HW  OW  HW  HW  
OW  HW  HW  OW  HW  HW  OW  HW  HW  OW  HW  HW  OW  HW  HW  OW  HW  HW  OW  HW  
HW  OW  HW  HW  OW  HW  HW  OW  HW  HW  OW  HW  HW  OW  HW  HW  OW  HW  HW  OW  
HW  HW  OW  HW  HW  OW  HW  HW  OW  HW  HW  OW  HW  HW  OW  HW  HW  OW  HW  HW  
OW  HW  HW  OW  HW  HW  OW  HW  HW  OW  HW  HW  OW  HW  HW  OW  HW  HW  OW  HW  
HW  OW  HW  HW  OW  HW  HW  OW  HW  HW  OW  HW  HW  OW  HW  HW  OW  HW  HW  OW  
HW  HW  OW  HW  HW  OW  HW  HW  OW  HW  HW  OW  HW  HW  OW  HW  HW  OW  HW  HW  
OW  HW  HW  OW  HW  HW  OW  HW  HW  OW  HW  HW  OW  HW  HW  OW  HW  HW  OW  HW  
HW  OW  HW  HW  OW  HW  HW  OW  HW  HW  OW  HW  HW  OW  HW  HW  OW  HW  HW  OW  
HW  HW  OW  HW  HW  OW  HW  HW  OW  HW  HW  OW  HW  HW  OW  HW  HW  OW  HW  HW  
OW  HW  HW  OW  HW  HW  OW  HW  HW  OW  HW  HW  OW  HW  HW  OW  HW  HW  OW  HW  
HW  OW  HW  HW  OW  HW  HW  OW  HW  HW  OW  HW  HW  OW  HW  HW  OW  HW  HW  OW  
HW  HW  OW  HW  HW  OW  HW  HW  OW  HW  HW  OW  HW  HW  OW  HW  HW  OW  HW  HW  
OW  HW  HW  OW  HW  HW  OW  HW  HW  OW  HW  HW  OW  HW  HW  OW  HW  HW  OW  HW  
HW  OW  HW  HW  OW  HW  HW  OW  HW  HW  OW  HW  HW  OW  HW  HW  OW  HW  HW  OW  
HW  HW  OW  HW  HW  OW  HW  HW  OW  HW  HW  OW  HW  HW  OW  HW  HW  OW  HW  HW  
OW  HW  HW  OW  HW  HW  OW  HW  HW  OW  HW  HW  OW  HW  HW  OW  HW  HW  OW  HW  
HW  OW  HW  HW  OW  HW  HW  OW  HW  HW  OW  HW  HW  OW  HW  HW  OW  HW  HW  OW  
HW  HW  OW  HW  HW  OW  HW  HW  OW  HW  HW  OW  HW  HW  OW  HW  HW  OW  HW  HW  
OW  HW  HW  OW  HW  HW  OW  HW  HW  OW  HW  HW  OW  HW  HW  OW  HW  HW  OW  HW  
HW  OW  HW  HW  OW  HW  HW  OW  HW  HW  OW  HW  HW  OW  HW  HW  OW  HW  HW  OW  
HW  HW  OW  HW  HW  OW  HW  HW  OW  HW  HW  OW  HW  HW  OW  HW  HW  OW  HW  HW  
OW  HW  HW  OW  HW  HW  OW  HW  HW  OW  HW  HW  OW  HW  HW  OW  HW  HW  OW  HW  
HW  OW  HW  HW  OW  HW  HW  OW  HW  HW  OW  HW  HW  OW  HW  HW  OW  HW  HW  OW  
HW  HW  OW  HW  HW  OW  HW  HW  OW  HW  HW  OW  HW  HW  OW  HW  HW  OW  HW  HW  
OW  HW  HW  OW  HW  HW  OW  HW  HW  OW  HW  HW  OW  HW  HW  OW  HW  HW  OW  HW  
HW  OW  HW  HW  OW  HW  HW  OW  HW  HW  OW  HW  HW  OW  HW  HW  OW  HW  HW  OW  
HW  HW  OW  HW  HW  OW  HW  HW  OW  HW  HW  OW  HW  HW  OW  HW  HW  OW  HW  HW  
OW  HW  HW  OW  HW  HW  OW  HW  HW  OW  HW  HW  OW  HW  HW  OW  HW  HW  OW  HW  
HW  OW  HW  HW  OW  HW  HW  OW  HW  HW  OW  HW  HW  OW  HW  HW  OW  HW  HW  OW  
HW  HW  OW  HW  HW  OW  HW  HW  OW  HW  HW  OW  HW  HW  OW  HW  HW  OW  HW  HW  
OW  HW  HW  OW  HW  HW  OW  HW  HW  OW  HW  HW  OW  HW  HW  OW  HW  HW  OW  HW  
HW  OW  HW  HW  OW  HW  HW  OW  HW  HW  OW  HW  HW  OW  HW  HW  OW  HW  HW  OW  
HW  HW  OW  HW  HW  OW  HW  HW  OW  HW  HW  OW  HW  HW  OW  HW  HW  OW  HW  HW  
OW  HW  HW  OW  HW  HW  OW  HW  HW  OW  HW  HW  OW  HW  HW  OW  HW  HW  OW  HW  
HW  OW  HW  HW  OW  HW  HW  OW  HW  HW  OW  HW  HW  OW  HW  HW  OW  HW  HW  OW  
HW  HW  OW  HW  HW  OW  HW  HW  OW  HW  HW  OW  HW  HW  OW  HW  HW  OW  HW  HW  
OW  HW  HW  OW  HW  HW  OW  HW  HW  OW  HW  HW  OW  HW  HW  OW  HW  HW  OW  HW  
HW  OW  HW  HW  OW  HW  HW  OW  HW  HW  OW  HW  HW  OW  HW  HW  OW  HW  HW  OW  
HW  HW  OW  HW  HW  OW  HW  HW  OW  HW  HW  OW  HW  HW  OW  HW  HW  OW  HW  HW  
OW  HW  HW  OW  HW  HW  OW  HW  HW  OW  HW  HW  OW  HW  HW  OW  HW  HW  OW  HW  
HW  OW  HW  HW  OW  HW  HW  OW  HW  HW  OW  HW  HW  OW  HW  HW  OW  HW  HW  OW  
HW  HW  OW  HW  HW  OW  HW  HW  OW  HW  HW  OW  HW  HW  OW  HW  HW  OW  HW  HW  
OW  HW  HW  OW  HW  HW  OW  HW  HW  OW  HW  HW  OW  HW  HW  OW  HW  HW  OW  HW  
HW  OW  HW  HW  OW  HW  HW  OW  HW  HW  OW  HW  HW  OW  HW  HW  OW  HW  HW  OW  
HW  HW  OW  HW  HW  OW  HW  HW  OW  HW  HW  OW  HW  HW  OW  HW  HW  OW  HW  HW  
OW  HW  HW  OW  HW  HW  OW  HW  HW  OW  HW  HW  OW  HW  HW  OW  HW  HW  OW  HW  
HW  OW  HW  HW  OW  HW  HW  OW  HW  HW  OW  HW  HW  OW  HW  HW  OW  HW  HW  OW  
HW  HW  OW  HW  HW  OW  HW  HW  OW  HW  HW  OW  HW  HW  OW  HW  HW  OW  HW  HW  
OW  HW  HW  OW  HW  HW  OW  HW  HW  OW  HW  HW  OW  HW  HW  OW  HW  HW  OW  HW  
HW  OW  HW  HW  OW  HW  HW  OW  HW  HW  OW  HW  HW  OW  HW  HW  OW  HW  HW  OW  
HW  HW  OW  HW  HW  OW  HW  HW  OW  HW  HW  OW  HW  HW  OW  HW  HW  OW  HW  HW  
OW  HW  HW  OW  HW  HW  OW  HW  HW  OW  HW  HW  OW  HW  HW  OW  HW  HW  OW  HW  
HW  OW  HW  HW  OW  HW  HW  OW  HW  HW  OW  HW  HW  OW  HW  HW  OW  HW  HW  OW  
HW  HW  OW  HW  HW  OW  HW  HW  OW  HW  HW  OW  HW  HW  OW  HW  HW  OW  HW  HW  
OW  HW  HW  OW  HW  HW  OW  HW  HW  OW  HW  HW  OW  HW  HW  OW  HW  HW  OW  HW  
HW  OW  HW  HW  OW  HW  HW  OW  HW  HW  OW  HW  HW  OW  HW  HW  OW  HW  HW  OW  
HW  HW  OW  HW  HW  OW  HW  HW  OW  HW  HW  OW  HW  HW  OW  HW  HW  OW  HW  HW  
OW  HW  HW  OW  HW  HW  OW  HW  HW  OW  HW  HW  OW  HW  HW  OW  HW  HW  OW  HW  
HW  OW  HW  HW  OW  HW  HW  OW  HW  HW  OW  HW  HW  OW  HW  HW  OW  HW  HW  OW  
HW  HW  OW  HW  HW  OW  HW  HW  OW  HW  HW  OW  HW  HW  OW  HW  HW  OW  HW  HW  
OW  HW  HW  OW  HW  HW  OW  HW  HW  OW  HW  HW  OW  HW  HW  OW  HW  HW  OW  HW  
HW  OW  HW  HW  OW  HW  HW  OW  HW  HW  OW  HW  HW  OW  HW  HW  OW  HW  HW  OW  
HW  HW  OW  HW  HW  OW  HW  HW  OW  HW  HW  OW  HW  HW  OW  HW  HW  OW  HW  HW  
OW  HW  HW  OW  HW  HW  OW  HW  HW  OW  HW  HW  OW  HW  HW  OW  HW  HW  OW  HW  
HW  OW  HW  HW  OW  HW  HW  OW  HW  HW  OW  HW  HW  OW  HW  HW  OW  HW  HW  OW  
HW  HW  OW  HW  HW  OW  HW  HW  OW  HW  HW  OW  HW  HW  OW  HW  HW  OW  HW  HW  
OW  HW  HW  OW  HW  HW  OW  HW  HW  OW  HW  HW  OW  HW  HW  OW  HW  HW  OW  HW  
HW  OW  HW  HW  OW  HW  HW  OW  HW  HW  OW  HW  HW  OW  HW  HW  OW  HW  HW  OW  
HW  HW  OW  HW  HW  OW  HW  HW  OW  HW  HW  OW  HW  HW  OW  HW  HW  OW  HW  HW  
OW  HW  HW  OW  HW  HW  OW  HW  HW  OW  HW  HW  OW  HW  HW  OW  HW  HW  OW  HW  
HW  OW  HW  HW  OW  HW  HW  OW  HW  HW  OW  HW  HW  OW  HW  HW  OW  HW  HW  OW  
HW  HW  OW  HW  HW  OW  HW  HW  OW  HW  HW  OW  HW  HW  OW  HW  HW  OW  HW  HW  
OW  HW  HW  OW  HW  HW  OW  HW  HW  OW  HW  HW  OW  HW  HW  OW  HW  HW  OW  HW  
HW  OW  HW  HW  OW  HW  HW  OW  HW  HW  OW  HW  HW  OW  HW  HW  OW  HW  HW  OW  
HW  HW  OW  HW  HW  OW  HW  HW  OW  HW  HW  OW  HW  HW  OW  HW  HW  OW  HW  HW  
OW  HW  HW  OW  HW  HW  OW  HW  HW  OW  HW  HW  OW  HW  HW  OW  HW  HW  OW  HW  
HW  OW  HW  HW  OW  HW  HW  OW  HW  HW  OW  HW  HW  OW  HW  HW  OW  HW  HW  OW  
HW  HW  OW  HW  HW  OW  HW  HW  OW  HW  HW  OW  HW  HW  OW  HW  HW  OW  HW  HW  
OW  HW  HW  OW  HW  HW  OW  HW  HW  OW  HW  HW  OW  HW  HW  OW  HW  HW  OW  HW  
HW  OW  HW  HW  OW  HW  HW  OW  HW  HW  OW  HW  HW  OW  HW  HW  OW  HW  HW  OW  
HW  HW  OW  HW  HW  OW  HW  HW  OW  HW  HW  OW  HW  HW  OW  HW  HW  OW  HW  HW  
OW  HW  HW  OW  HW  HW  OW  HW  HW  OW  HW  HW  OW  HW  HW  OW  HW  HW  OW  HW  
HW  OW  HW  HW  OW  HW  HW  OW  HW  HW  OW  HW  HW  OW  HW  HW  OW  HW  HW  OW  
HW  HW  OW  HW  HW  OW  HW  HW  OW  HW  HW  OW  HW  HW  OW  HW  HW  OW  HW  HW  
OW  HW  HW  OW  HW  HW  OW  HW  HW  OW  HW  HW  OW  HW  HW  OW  HW  HW  OW  HW  
HW  OW  HW  HW  OW  HW  HW  OW  HW  HW  OW  HW  HW  OW  HW  HW  OW  HW  HW  OW  
HW  HW  OW  HW  HW  OW  HW  HW  OW  HW  HW  OW  HW  HW  OW  HW  HW  OW  HW  HW  
OW  HW  HW  OW  HW  HW  OW  HW  HW  OW  HW  HW  OW  HW  HW  OW  HW  HW  OW  HW  
HW  OW  HW  HW  OW  HW  HW  OW  HW  HW  OW  HW  HW  OW  HW  HW  OW  HW  HW  OW  
HW  HW  OW  HW  HW  OW  HW  HW  OW  HW  HW  OW  HW  HW  OW  HW  HW  OW  HW  HW  
OW  HW  HW  OW  HW  HW  OW  HW  HW  OW  HW  HW  OW  HW  HW  OW  HW  HW  OW  HW  
HW  OW  HW  HW  OW  HW  HW  OW  HW  HW  OW  HW  HW  OW  HW  HW  OW  HW  HW  OW  
HW  HW  OW  HW  HW  OW  HW  HW  OW  HW  HW  OW  HW  HW  OW  HW  HW  OW  HW  HW  
OW  HW  HW  OW  HW  HW  OW  HW  HW  OW  HW  HW  OW  HW  HW  OW  HW  HW  OW  HW  
HW  OW  HW  HW  OW  HW  HW  OW  HW  HW  OW  HW  HW  OW  HW  HW  OW  HW  HW  OW  
HW  HW  OW  HW  HW  OW  HW  HW  OW  HW  HW  OW  HW  HW  OW  HW  HW  OW  HW  HW  
OW  HW  HW  OW  HW  HW  OW  HW  HW  OW  HW  HW  OW  HW  HW  OW  HW  HW  OW  HW  
HW  OW  HW  HW  OW  HW  HW  OW  HW  HW  OW  HW  HW  OW  HW  HW  OW  HW  HW  OW  
HW  HW  OW  HW  HW  OW  HW  HW  OW  HW  HW  OW  HW  HW  OW  HW  HW  OW  HW  HW  
OW  HW  HW  OW  HW  HW  OW  HW  HW  OW  HW  HW  OW  HW  HW  OW  HW  HW  OW  HW  
HW  OW  HW  HW  OW  HW  HW  OW  HW  HW  OW  HW  HW  OW  HW  HW  OW  HW  HW  OW  
HW  HW  OW  HW  HW  OW  HW  HW  OW  HW  HW  OW  HW  HW  OW  HW  HW  OW  HW  HW  
OW  HW  HW  OW  HW  HW  OW  HW  HW  OW  HW  HW  OW  HW  HW  OW  HW  HW  OW  HW  
HW  OW  HW  HW  OW  HW  HW  OW  HW  HW  OW  HW  HW  OW  HW  HW  OW  HW  HW  OW  
HW  HW  OW  HW  HW  OW  HW  HW  OW  HW  HW  OW  HW  HW  OW  HW  HW  OW  HW  HW  
OW  HW  HW  OW  HW  HW  OW  HW  HW  OW  HW  HW  OW  HW  HW  OW  HW  HW  OW  HW  
HW  OW  HW  HW  OW  HW  HW  OW  HW  HW  OW  HW  HW  OW  HW  HW  OW  HW  HW  OW  
HW  HW  OW  HW  HW  OW  HW  HW  OW  HW  HW  OW  HW  HW  OW  HW  HW  OW  HW  HW  
OW  HW  HW  OW  HW  HW  OW  HW  HW  OW  HW  HW  OW  HW  HW  OW  HW  HW  OW  HW  
HW  OW  HW  HW  OW  HW  HW  OW  HW  HW  OW  HW  HW  OW  HW  HW  OW  HW  HW  OW  
HW  HW  OW  HW  HW  OW  HW  HW  OW  HW  HW  OW  HW  HW  OW  HW  HW  OW  HW  HW  
OW  HW  HW  OW  HW  HW  OW  HW  HW  OW  HW  HW  OW  HW  HW  OW  HW  HW  OW  HW  
HW  OW  HW  HW  OW  HW  HW  OW  HW  HW  OW  HW  HW  OW  HW  HW  OW  HW  HW  OW  
HW  HW  OW  HW  HW  OW  HW  HW  OW  HW  HW  OW  HW  HW  OW  HW  HW  OW  HW  HW  
OW  HW  HW  OW  HW  HW  OW  HW  HW  OW  HW  HW  OW  HW  HW  OW  HW  HW  OW  HW  
HW  OW  HW  HW  OW  HW  HW  OW  HW  HW  OW  HW  HW  OW  HW  HW  OW  HW  HW  OW  
HW  HW  OW  HW  HW  OW  HW  HW  OW  HW  HW  OW  HW  HW  OW  HW  HW  OW  HW  HW  
OW  HW  HW  OW  HW  HW  OW  HW  HW  OW  HW  HW  OW  HW  HW  OW  HW  HW  OW  HW  
HW  OW  HW  HW  OW  HW  HW  OW  HW  HW  OW  HW  HW  OW  HW  HW  OW  HW  HW  OW  
HW  HW  OW  HW  HW  OW  HW  HW  OW  HW  HW  OW  HW  HW  OW  HW  HW  OW  HW  HW  
OW  HW  HW  OW  HW  HW  OW  HW  HW  OW  HW  HW  OW  HW  HW  OW  HW  HW  OW  HW  
HW  OW  HW  HW  OW  HW  HW  OW  HW  HW  OW  HW  HW  OW  HW  HW  OW  HW  HW  OW  
HW  HW  OW  HW  HW  OW  HW  HW  OW  HW  HW  OW  HW  HW  OW  HW  HW  OW  HW  HW  
OW  HW  HW  OW  HW  HW  OW  HW  HW  OW  HW  HW  OW  HW  HW  OW  HW  HW  OW  HW  
HW  OW  HW  HW  OW  HW  HW  OW  HW  HW  OW  HW  HW  OW  HW  HW  OW  HW  HW  OW  
HW  HW  OW  HW  HW  OW  HW  HW  OW  HW  HW  OW  HW  HW  OW  HW  HW  OW  HW  HW  
OW  HW  HW  OW  HW  HW  OW  HW  HW  OW  HW  HW  OW  HW  HW  OW  HW  HW  OW  HW  
HW  OW  HW  HW  OW  HW  HW  OW  HW  HW  OW  HW  HW  OW  HW  HW  OW  HW  HW  OW  
HW  HW  OW  HW  HW  OW  HW  HW  OW  HW  HW  OW  HW  HW  OW  HW  HW  OW  HW  HW  
OW  HW  HW  OW  HW  HW  OW  HW  HW  OW  HW  HW  OW  HW  HW  OW  HW  HW  OW  HW  
HW  OW  HW  HW  OW  HW  HW  OW  HW  HW  OW  HW  HW  OW  HW  HW  OW  HW  HW  OW  
HW  HW  OW  HW  HW  OW  HW  HW  OW  HW  HW  OW  HW  HW  OW  HW  HW  OW  HW  HW  
OW  HW  HW  OW  HW  HW  OW  HW  HW  OW  HW  HW  OW  HW  HW  OW  HW  HW  OW  HW  
HW  OW  HW  HW  OW  HW  HW  OW  HW  HW  OW  HW  HW  OW  HW  HW  OW  HW  HW  OW  
HW  HW  OW  HW  HW  OW  HW  HW  OW  HW  HW  OW  HW  HW  OW  HW  HW  OW  HW  HW  
OW  HW  HW  OW  HW  HW  OW  HW  HW  OW  HW  HW  OW  HW  HW  OW  HW  HW  OW  HW  
HW  OW  HW  HW  OW  HW  HW  OW  HW  HW  OW  HW  HW  OW  HW  HW  OW  HW  HW  OW  
HW  HW  OW  HW  HW  OW  HW  HW  OW  HW  HW  OW  HW  HW  OW  HW  HW  OW  HW  HW  
OW  HW  HW  OW  HW  HW  OW  HW  HW  OW  HW  HW  OW  HW  HW  OW  HW  HW  OW  HW  
HW  OW  HW  HW  OW  HW  HW  OW  HW  HW  OW  HW  HW  OW  HW  HW  OW  HW  HW  OW  
HW  HW  OW  HW  HW  OW  HW  HW  OW  HW  HW  OW  HW  HW  OW  HW  HW  OW  HW  HW  
OW  HW  HW  OW  HW  HW  OW  HW  HW  OW  HW  HW  OW  HW  HW  OW  HW  HW  OW  HW  
HW  OW  HW  HW  OW  HW  HW  OW  HW  HW  OW  HW  HW  OW  HW  HW  OW  HW  HW  OW  
HW  HW  OW  HW  HW  OW  HW  HW  OW  HW  HW  OW  HW  HW  OW  HW  HW  OW  HW  HW  
OW  HW  HW  OW  HW  HW  OW  HW  HW  OW  HW  HW  OW  HW  HW  OW  HW  HW  OW  HW  
HW  OW  HW  HW  OW  HW  HW  OW  HW  HW  OW  HW  HW  OW  HW  HW  OW  HW  HW  OW  
HW  HW  OW  HW  HW  OW  HW  HW  OW  HW  HW  OW  HW  HW  OW  HW  HW  OW  HW  HW  
OW  HW  HW  OW  HW  HW  OW  HW  HW  OW  HW  HW  OW  HW  HW  OW  HW  HW  OW  HW  
HW  OW  HW  HW  OW  HW  HW  OW  HW  HW  OW  HW  HW  OW  HW  HW  OW  HW  HW  OW  
HW  HW  OW  HW  HW  OW  HW  HW  OW  HW  HW  OW  HW  HW  OW  HW  HW  OW  HW  HW  
OW  HW  HW  OW  HW  HW  OW  HW  HW  OW  HW  HW  OW  HW  HW  OW  HW  HW  OW  HW  
HW  OW  HW  HW  OW  HW  HW  OW  HW  HW  OW  HW  HW  OW  HW  HW  OW  HW  HW  OW  
HW  HW  OW  HW  HW  OW  HW  HW  OW  HW  HW  OW  HW  HW  OW  HW  HW  OW  HW  HW  
OW  HW  HW  OW  HW  HW  OW  HW  HW  OW  HW  HW  OW  HW  HW  OW  HW  HW  OW  HW  
HW  OW  HW  HW  OW  HW  HW  OW  HW  HW  OW  HW  HW  OW  HW  HW  OW  HW  HW  OW  
HW  HW  OW  HW  HW  OW  HW  HW  OW  HW  HW  OW  HW  HW  OW  HW  HW  OW  HW  HW  
OW  HW  HW  OW  HW  HW  OW  HW  HW  OW  HW  HW  OW  HW  HW  OW  HW  HW  OW  HW  
HW  OW  HW  HW  OW  HW  HW  OW  HW  HW  OW  HW  HW  OW  HW  HW  OW  HW  HW  OW  
HW  HW  OW  HW  HW  OW  HW  HW  OW  HW  HW  OW  HW  HW  OW  HW  HW  OW  HW  HW  
OW  HW  HW  OW  HW  HW  OW  HW  HW  OW  HW  HW  OW  HW  HW  OW  HW  HW  OW  HW  
HW  OW  HW  HW  OW  HW  HW  OW  HW  HW  OW  HW  HW  OW  HW  HW  OW  HW  HW  OW  
HW  HW  OW  HW  HW  OW  HW  HW  OW  HW  HW  OW  HW  HW  OW  HW  HW  OW  HW  HW  
OW  HW  HW  OW  HW  HW  OW  HW  HW  OW  HW  HW  OW  HW  HW  OW  HW  HW  OW  HW  
HW  OW  HW  HW  OW  HW  HW  OW  HW  HW  OW  HW  HW  OW  HW  HW  OW  HW  HW  OW  
HW  HW  OW  HW  HW  OW  HW  HW  OW  HW  HW  OW  HW  HW  OW  HW  HW  OW  HW  HW  
OW  HW  HW  OW  HW  HW  OW  HW  HW  OW  HW  HW  OW  HW  HW  OW  HW  HW  OW  HW  
HW  OW  HW  HW  OW  HW  HW  OW  HW  HW  OW  HW  HW  OW  HW  HW  OW  HW  HW  OW  
HW  HW  OW  HW  HW  OW  HW  HW  OW  HW  HW  OW  HW  HW  OW  HW  HW  OW  HW  HW  
OW  HW  HW  OW  HW  HW  OW  HW  HW  OW  HW  HW  OW  HW  HW  OW  HW  HW  OW  HW  
HW  OW  HW  HW  OW  HW  HW  OW  HW  HW  OW  HW  HW  OW  HW  HW  OW  HW  HW  OW  
HW  HW  OW  HW  HW  OW  HW  HW  OW  HW  HW  OW  HW  HW  OW  HW  HW  OW  HW  HW  
OW  HW  HW  OW  HW  HW  OW  HW  HW  OW  HW  HW  OW  HW  HW  OW  HW  HW  OW  HW  
HW  OW  HW  HW  OW  HW  HW  OW  HW  HW  OW  HW  HW  OW  HW  HW  OW  HW  HW  OW  
HW  HW  OW  HW  HW  OW  HW  HW  OW  HW  HW  OW  HW  HW  OW  HW  HW  OW  HW  HW  
OW  HW  HW  OW  HW  HW  OW  HW  HW  OW  HW  HW  OW  HW  HW  OW  HW  HW  OW  HW  
HW  OW  HW  HW  OW  HW  HW  OW  HW  HW  OW  HW  HW  OW  HW  HW  OW  HW  HW  OW  
HW  HW  OW  HW  HW  OW  HW  HW  OW  HW  HW  OW  HW  HW  OW  HW  HW  OW  HW  HW  
OW  HW  HW  OW  HW  HW  OW  HW  HW  OW  HW  HW  OW  HW  HW  OW  HW  HW  OW  HW  
HW  OW  HW  HW  OW  HW  HW  OW  HW  HW  OW  HW  HW  OW  HW  HW  OW  HW  HW  OW  
HW  HW  OW  HW  HW  OW  HW  HW  OW  HW  HW  OW  HW  HW  OW  HW  HW  OW  HW  HW  
OW  HW  HW  OW  HW  HW  OW  HW  HW  OW  HW  HW  OW  HW  HW  OW  HW  HW  OW  HW  
HW  OW  HW  HW  OW  HW  HW  OW  HW  HW  OW  HW  HW  OW  HW  HW  OW  HW  HW  OW  
HW  HW  OW  HW  HW  OW  HW  HW  OW  HW  HW  OW  HW  HW  OW  HW  HW  OW  HW  HW  
OW  HW  HW  OW  HW  HW  OW  HW  HW  OW  HW  HW  OW  HW  HW  OW  HW  HW  OW  HW  
HW  OW  HW  HW  OW  HW  HW  OW  HW  HW  OW  HW  HW  OW  HW  HW  OW  HW  HW  OW  
HW  HW  OW  HW  HW  OW  HW  HW  OW  HW  HW  OW  HW  HW  OW  HW  HW  OW  HW  HW  
OW  HW  HW  OW  HW  HW  OW  HW  HW  OW  HW  HW  OW  HW  HW  OW  HW  HW  OW  HW  
HW  OW  HW  HW  OW  HW  HW  OW  HW  HW  OW  HW  HW  OW  HW  HW  OW  HW  HW  OW  
HW  HW  OW  HW  HW  OW  HW  HW  OW  HW  HW  OW  HW  HW  OW  HW  HW  OW  HW  HW  
OW  HW  HW  OW  HW  HW  OW  HW  HW  OW  HW  HW  OW  HW  HW  OW  HW  HW  OW  HW  
HW  OW  HW  HW  OW  HW  HW  OW  HW  HW  OW  HW  HW  OW  HW  HW  OW  HW  HW  OW  
HW  HW  OW  HW  HW  OW  HW  HW  OW  HW  HW  OW  HW  HW  OW  HW  HW  OW  HW  HW  
OW  HW  HW  OW  HW  HW  OW  HW  HW  OW  HW  HW  OW  HW  HW  OW  HW  HW  OW  HW  
HW  OW  HW  HW  OW  HW  HW  OW  HW  HW  OW  HW  HW  OW  HW  HW  OW  HW  HW  OW  
HW  HW  OW  HW  HW  OW  HW  HW  OW  HW  HW  OW  HW  HW  OW  HW  HW  OW  HW  HW  
OW  HW  HW  OW  HW  HW  OW  HW  HW  OW  HW  HW  OW  HW  HW  OW  HW  HW  OW  HW  
HW  OW  HW  HW  OW  HW  HW  OW  HW  HW  OW  HW  HW  OW  HW  HW  OW  HW  HW  OW  
HW  HW  OW  HW  HW  OW  HW  HW  OW  HW  HW  OW  HW  HW  OW  HW  HW  OW  HW  HW  
OW  HW  HW  OW  HW  HW  OW  HW  HW  OW  HW  HW  OW  HW  HW  OW  HW  HW  OW  HW  
HW  OW  HW  HW  OW  HW  HW  OW  HW  HW  OW  HW  HW  OW  HW  HW  OW  HW  HW  OW  
HW  HW  OW  HW  HW  OW  HW  HW  OW  HW  HW  OW  HW  HW  OW  HW  HW  OW  HW  HW  
OW  HW  HW  OW  HW  HW  OW  HW  HW  OW  HW  HW  OW  HW  HW  OW  HW  HW  OW  HW  
HW  OW  HW  HW  OW  HW  HW  OW  HW  HW  OW  HW  HW  OW  HW  HW  OW  HW  HW  OW  
HW  HW  OW  HW  HW  OW  HW  HW  OW  HW  HW  OW  HW  HW  OW  HW  HW  OW  HW  HW  
OW  HW  HW  OW  HW  HW  OW  HW  HW  OW  HW  HW  OW  HW  HW  OW  HW  HW  OW  HW  
HW  OW  HW  HW  OW  HW  HW  OW  HW  HW  OW  HW  HW  OW  HW  HW  OW  HW  HW  OW  
HW  HW  OW  HW  HW  OW  HW  HW  OW  HW  HW  OW  HW  HW  OW  HW  HW  OW  HW  HW  
OW  HW  HW  OW  HW  HW  OW  HW  HW  OW  HW  HW  OW  HW  HW  OW  HW  HW  OW  HW  
HW  OW  HW  HW  OW  HW  HW  OW  HW  HW  OW  HW  HW  OW  HW  HW  OW  HW  HW  OW  
HW  HW  OW  HW  HW  OW  HW  HW  OW  HW  HW  OW  HW  HW  OW  HW  HW  OW  HW  HW  
OW  HW  HW  OW  HW  HW  OW  HW  HW  OW  HW  HW  OW  HW  HW  OW  HW  HW  OW  HW  
HW  OW  HW  HW  OW  HW  HW  OW  HW  HW  OW  HW  HW  OW  HW  HW  OW  HW  HW  OW  
HW  HW  OW  HW  HW  OW  HW  HW  OW  HW  HW  OW  HW  HW  OW  HW  HW  OW  HW  HW  
OW  HW  HW  OW  HW  HW  OW  HW  HW  OW  HW  HW  OW  HW  HW  OW  HW  HW  OW  HW  
HW  OW  HW  HW  OW  HW  HW  OW  HW  HW  OW  HW  HW  OW  HW  HW  OW  HW  HW  OW  
HW  HW  OW  HW  HW  OW  HW  HW  OW  HW  HW  OW  HW  HW  OW  HW  HW  OW  HW  HW  
OW  HW  HW  OW  HW  HW  OW  HW  HW  OW  HW  HW  OW  HW  HW  OW  HW  HW  OW  HW  
HW  OW  HW  HW  OW  HW  HW  OW  HW  HW  OW  HW  HW  OW  HW  HW  OW  HW  HW  OW  
HW  HW  OW  HW  HW  OW  HW  HW  OW  HW  HW  OW  HW  HW  OW  HW  HW  OW  HW  HW  
OW  HW  HW  OW  HW  HW  OW  HW  HW  OW  HW  HW  OW  HW  HW  OW  HW  HW  OW  HW  
HW  OW  HW  HW  OW  HW  HW  OW  HW  HW  OW  HW  HW  OW  HW  HW  OW  HW  HW  OW  
HW  HW  OW  HW  HW  OW  HW  HW  OW  HW  HW  OW  HW  HW  OW  HW  HW  OW  HW  HW  
OW  HW  HW  OW  HW  HW  OW  HW  HW  OW  HW  HW  OW  HW  HW  OW  HW  HW  OW  HW  
HW  OW  HW  HW  OW  HW  HW  OW  HW  HW  OW  HW  HW  OW  HW  HW  OW  HW  HW  OW  
HW  HW  OW  HW  HW  OW  HW  HW  OW  HW  HW  OW  HW  HW  OW  HW  HW  OW  HW  HW  
OW  HW  HW  OW  HW  HW  OW  HW  HW  OW  HW  HW  OW  HW  HW  OW  HW  HW  OW  HW  
HW  OW  HW  HW  OW  HW  HW  OW  HW  HW  OW  HW  HW  OW  HW  HW  OW  HW  HW  OW  
HW  HW  OW  HW  HW  OW  HW  HW  OW  HW  HW  OW  HW  HW  OW  HW  HW  OW  HW  HW  
OW  HW  HW  OW  HW  HW  OW  HW  HW  OW  HW  HW  OW  HW  HW  OW  HW  HW  OW  HW  
HW  OW  HW  HW  OW  HW  HW  OW  HW  HW  OW  HW  HW  OW  HW  HW  OW  HW  HW  OW  
HW  HW  OW  HW  HW  OW  HW  HW  OW  HW  HW  OW  HW  HW  OW  HW  HW  OW  HW  HW  
OW  HW  HW  OW  HW  HW  OW  HW  HW  OW  HW  HW  OW  HW  HW  OW  HW  HW  OW  HW  
HW  OW  HW  HW  OW  HW  HW  OW  HW  HW  OW  HW  HW  OW  HW  HW  OW  HW  HW  OW  
HW  HW  OW  HW  HW  OW  HW  HW  OW  HW  HW  OW  HW  HW  OW  HW  HW  OW  HW  HW  
OW  HW  HW  OW  HW  HW  OW  HW  HW  OW  HW  HW  OW  HW  HW  OW  HW  HW  OW  HW  
HW  OW  HW  HW  OW  HW  HW  OW  HW  HW  OW  HW  HW  OW  HW  HW  OW  HW  HW  OW  
HW  HW  OW  HW  HW  OW  HW  HW  OW  HW  HW  OW  HW  HW  OW  HW  HW  OW  HW  HW  
OW  HW  HW  OW  HW  HW  OW  HW  HW  OW  HW  HW  OW  HW  HW  OW  HW  HW  OW  HW  
HW  OW  HW  HW  OW  HW  HW  OW  HW  HW  OW  HW  HW  OW  HW  HW  OW  HW  HW  OW  
HW  HW  OW  HW  HW  OW  HW  HW  OW  HW  HW  OW  HW  HW  OW  HW  HW  OW  HW  HW  
OW  HW  HW  OW  HW  HW  OW  HW  HW  OW  HW  HW  OW  HW  HW  OW  HW  HW  OW  HW  
HW  OW  HW  HW  OW  HW  HW  OW  HW  HW  OW  HW  HW  OW  HW  HW  OW  HW  HW  OW  
HW  HW  OW  HW  HW  OW  HW  HW  OW  HW  HW  OW  HW  HW  OW  HW  HW  OW  HW  HW  
OW  HW  HW  OW  HW  HW  OW  HW  HW  OW  HW  HW  OW  HW  HW  OW  HW  HW  OW  HW  
HW  OW  HW  HW  OW  HW  HW  OW  HW  HW  OW  HW  HW  OW  HW  HW  OW  HW  HW  OW  
HW  HW  OW  HW  HW  OW  HW  HW  OW  HW  HW  OW  HW  HW  OW  HW  HW  OW  HW  HW  
OW  HW  HW  OW  HW  HW  OW  HW  HW  OW  HW  HW  OW  HW  HW  OW  HW  HW  OW  HW  
HW  OW  HW  HW  OW  HW  HW  OW  HW  HW  OW  HW  HW  OW  HW  HW  OW  HW  HW  OW  
HW  HW  OW  HW  HW  OW  HW  HW  OW  HW  HW  OW  HW  HW  OW  HW  HW  OW  HW  HW  
OW  HW  HW  OW  HW  HW  OW  HW  HW  OW  HW  HW  OW  HW  HW  OW  HW  HW  OW  HW  
HW  OW  HW  HW  OW  HW  HW  OW  HW  HW  OW  HW  HW  OW  HW  HW  OW  HW  HW  OW  
HW  HW  OW  HW  HW  OW  HW  HW  OW  HW  HW  OW  HW  HW  OW  HW  HW  OW  HW  HW  
OW  HW  HW  OW  HW  HW  OW  HW  HW  OW  HW  HW  OW  HW  HW  OW  HW  HW  OW  HW  
HW  OW  HW  HW  OW  HW  HW  OW  HW  HW  OW  HW  HW  OW  HW  HW  OW  HW  HW  OW  
HW  HW  OW  HW  HW  OW  HW  HW  OW  HW  HW  OW  HW  HW  OW  HW  HW  OW  HW  HW  
OW  HW  HW  OW  HW  HW  OW  HW  HW  OW  HW  HW  OW  HW  HW  OW  HW  HW  OW  HW  
HW  OW  HW  HW  OW  HW  HW  OW  HW  HW  OW  HW  HW  OW  HW  HW  OW  HW  HW  OW  
HW  HW  OW  HW  HW  OW  HW  HW  OW  HW  HW  OW  HW  HW  OW  HW  HW  OW  HW  HW  
OW  HW  HW  OW  HW  HW  OW  HW  HW  OW  HW  HW  OW  HW  HW  OW  HW  HW  OW  HW  
HW  OW  HW  HW  OW  HW  HW  OW  HW  HW  OW  HW  HW  OW  HW  HW  OW  HW  HW  OW  
HW  HW  OW  HW  HW  OW  HW  HW  OW  HW  HW  OW  HW  HW  OW  HW  HW  OW  HW  HW  
OW  HW  HW  OW  HW  HW  OW  HW  HW  OW  HW  HW  OW  HW  HW  OW  HW  HW  OW  HW  
HW  OW  HW  HW  OW  HW  HW  OW  HW  HW  OW  HW  HW  OW  HW  HW  OW  HW  HW  OW  
HW  HW  OW  HW  HW  OW  HW  HW  OW  HW  HW  OW  HW  HW  OW  HW  HW  OW  HW  HW  
OW  HW  HW  OW  HW  HW  OW  HW  HW  OW  HW  HW  OW  HW  HW  OW  HW  HW  OW  HW  
HW  OW  HW  HW  OW  HW  HW  OW  HW  HW  OW  HW  HW  OW  HW  HW  OW  HW  HW  OW  
HW  HW  OW  HW  HW  OW  HW  HW  OW  HW  HW  OW  HW  HW  OW  HW  HW  OW  HW  HW  
OW  HW  HW  OW  HW  HW  OW  HW  HW  OW  HW  HW  OW  HW  HW  OW  HW  HW  OW  HW  
HW  OW  HW  HW  OW  HW  HW  OW  HW  HW  OW  HW  HW  OW  HW  HW  OW  HW  HW  OW  
HW  HW  OW  HW  HW  OW  HW  HW  OW  HW  HW  OW  HW  HW  OW  HW  HW  OW  HW  HW  
OW  HW  HW  OW  HW  HW  OW  HW  HW  OW  HW  HW  OW  HW  HW  OW  HW  HW  OW  HW  
HW  OW  HW  HW  OW  HW  HW  OW  HW  HW  OW  HW  HW  OW  HW  HW  OW  HW  HW  OW  
HW  HW  OW  HW  HW  OW  HW  HW  OW  HW  HW  OW  HW  HW  OW  HW  HW  OW  HW  HW  
OW  HW  HW  OW  HW  HW  OW  HW  HW  OW  HW  HW  OW  HW  HW  OW  HW  HW  OW  HW  
HW  OW  HW  HW  OW  HW  HW  OW  HW  HW  OW  HW  HW  OW  HW  HW  OW  HW  HW  OW  
HW  HW  OW  HW  HW  OW  HW  HW  OW  HW  HW  OW  HW  HW  OW  HW  HW  OW  HW  HW  
OW  HW  HW  OW  HW  HW  OW  HW  HW  OW  HW  HW  OW  HW  HW  OW  HW  HW  OW  HW  
HW  OW  HW  HW  OW  HW  HW  OW  HW  HW  OW  HW  HW  OW  HW  HW  OW  HW  HW  OW  
HW  HW  OW  HW  HW  OW  HW  HW  OW  HW  HW  OW  HW  HW  OW  HW  HW  OW  HW  HW  
OW  HW  HW  OW  HW  HW  OW  HW  HW  OW  HW  HW  OW  HW  HW  OW  HW  HW  OW  HW  
HW  OW  HW  HW  OW  HW  HW  OW  HW  HW  OW  HW  HW  OW  HW  HW  OW  HW  HW  OW  
HW  HW  OW  HW  HW  OW  HW  HW  OW  HW  HW  OW  HW  HW  OW  HW  HW  OW  HW  HW  
OW  HW  HW  OW  HW  HW  OW  HW  HW  OW  HW  HW  OW  HW  HW  OW  HW  HW  OW  HW  
HW  OW  HW  HW  OW  HW  HW  OW  HW  HW  OW  HW  HW  OW  HW  HW  OW  HW  HW  OW  
HW  HW  OW  HW  HW  OW  HW  HW  OW  HW  HW  OW  HW  HW  OW  HW  HW  OW  HW  HW  
OW  HW  HW  OW  HW  HW  OW  HW  HW  OW  HW  HW  OW  HW  HW  OW  HW  HW  OW  HW  
HW  OW  HW  HW  OW  HW  HW  OW  HW  HW  OW  HW  HW  OW  HW  HW  OW  HW  HW  OW  
HW  HW  OW  HW  HW  OW  HW  HW  OW  HW  HW  OW  HW  HW  OW  HW  HW  OW  HW  HW  
OW  HW  HW  OW  HW  HW  OW  HW  HW  OW  HW  HW  OW  HW  HW  OW  HW  HW  OW  HW  
HW  OW  HW  HW  OW  HW  HW  OW  HW  HW  OW  HW  HW  OW  HW  HW  OW  HW  HW  OW  
HW  HW  OW  HW  HW  OW  HW  HW  OW  HW  HW  OW  HW  HW  OW  HW  HW  OW  HW  HW  
OW  HW  HW  OW  HW  HW  OW  HW  HW  OW  HW  HW  OW  HW  HW  OW  HW  HW  OW  HW  
HW  OW  HW  HW  OW  HW  HW  OW  HW  HW  OW  HW  HW  OW  HW  HW  OW  HW  HW  OW  
HW  HW  OW  HW  HW  OW  HW  HW  OW  HW  HW  OW  HW  HW  OW  HW  HW  OW  HW  HW  
OW  HW  HW  OW  HW  HW  OW  HW  HW  OW  HW  HW  OW  HW  HW  OW  HW  HW  OW  HW  
HW  OW  HW  HW  OW  HW  HW  OW  HW  HW  OW  HW  HW  OW  HW  HW  OW  HW  HW  OW  
HW  HW  OW  HW  HW  OW  HW  HW  OW  HW  HW  OW  HW  HW  OW  HW  HW  OW  HW  HW  
OW  HW  HW  OW  HW  HW  OW  HW  HW  OW  HW  HW  OW  HW  HW  OW  HW  HW  OW  HW  
HW  OW  HW  HW  OW  HW  HW  OW  HW  HW  OW  HW  HW  OW  HW  HW  OW  HW  HW  OW  
HW  HW  OW  HW  HW  OW  HW  HW  OW  HW  HW  OW  HW  HW  OW  HW  HW  OW  HW  HW  
OW  HW  HW  OW  HW  HW  OW  HW  HW  OW  HW  HW  OW  HW  HW  OW  HW  HW  OW  HW  
HW  OW  HW  HW  OW  HW  HW  OW  HW  HW  OW  HW  HW  OW  HW  HW  OW  HW  HW  OW  
HW  HW  OW  HW  HW  OW  HW  HW  OW  HW  HW  OW  HW  HW  OW  HW  HW  OW  HW  HW  
OW  HW  HW  OW  HW  HW  OW  HW  HW  OW  HW  HW  OW  HW  HW  OW  HW  HW  OW  HW  
HW  OW  HW  HW  OW  HW  HW  OW  HW  HW  OW  HW  HW  OW  HW  HW  OW  HW  HW  OW  
HW  HW  OW  HW  HW  OW  HW  HW  OW  HW  HW  OW  HW  HW  OW  HW  HW  OW  HW  HW  
OW  HW  HW  OW  HW  HW  OW  HW  HW  OW  HW  HW  OW  HW  HW  OW  HW  HW  OW  HW  
HW  OW  HW  HW  OW  HW  HW  OW  HW  HW  OW  HW  HW  OW  HW  HW  OW  HW  HW  OW  
HW  HW  OW  HW  HW  OW  HW  HW  OW  HW  HW  OW  HW  HW  OW  HW  HW  OW  HW  HW  
OW  HW  HW  OW  HW  HW  OW  HW  HW  OW  HW  HW  OW  HW  HW  OW  HW  HW  OW  HW  
HW  OW  HW  HW  OW  HW  HW  OW  HW  HW  OW  HW  HW  OW  HW  HW  OW  HW  HW  OW  
HW  HW  OW  HW  HW  OW  HW  HW  OW  HW  HW  OW  HW  HW  OW  HW  HW  OW  HW  HW  
OW  HW  HW  OW  HW  HW  OW  HW  HW  OW  HW  HW  OW  HW  HW  OW  HW  HW  OW  HW  
HW  OW  HW  HW  OW  HW  HW  OW  HW  HW  OW  HW  HW  OW  HW  HW  OW  HW  HW  OW  
HW  HW  OW  HW  HW  OW  HW  HW  OW  HW  HW  OW  HW  HW  OW  HW  HW  OW  HW  HW  
OW  HW  HW  OW  HW  HW  OW  HW  HW  OW  HW  HW  OW  HW  HW  OW  HW  HW  OW  HW  
HW  OW  HW  HW  OW  HW  HW  OW  HW  HW  OW  HW  HW  OW  HW  HW  OW  HW  HW  OW  
HW  HW  OW  HW  HW  OW  HW  HW  OW  HW  HW  OW  HW  HW  OW  HW  HW  OW  HW  HW  
OW  HW  HW  OW  HW  HW  OW  HW  HW  OW  HW  HW  OW  HW  HW  OW  HW  HW  OW  HW  
HW  OW  HW  HW  OW  HW  HW  OW  HW  HW  OW  HW  HW  OW  HW  HW  OW  HW  HW  OW  
HW  HW  OW  HW  HW  OW  HW  HW  OW  HW  HW  OW  HW  HW  OW  HW  HW  OW  HW  HW  
OW  HW  HW  OW  HW  HW  OW  HW  HW  OW  HW  HW  OW  HW  HW  OW  HW  HW  OW  HW  
HW  OW  HW  HW  OW  HW  HW  OW  HW  HW  OW  HW  HW  OW  HW  HW  OW  HW  HW  OW  
HW  HW  OW  HW  HW  OW  HW  HW  OW  HW  HW  OW  HW  HW  OW  HW  HW  OW  HW  HW  
OW  HW  HW  OW  HW  HW  OW  HW  HW  OW  HW  HW  OW  HW  HW  OW  HW  HW  OW  HW  
HW  OW  HW  HW  OW  HW  HW  OW  HW  HW  OW  HW  HW  OW  HW  HW  OW  HW  HW  OW  
HW  HW  OW  HW  HW  OW  HW  HW  OW  HW  HW  OW  HW  HW  OW  HW  HW  OW  HW  HW  
OW  HW  HW  OW  HW  HW  OW  HW  HW  OW  HW  HW  OW  HW  HW  OW  HW  HW  OW  HW  
HW  OW  HW  HW  OW  HW  HW  OW  HW  HW  OW  HW  HW  OW  HW  HW  OW  HW  HW  OW  
HW  HW  OW  HW  HW  OW  HW  HW  OW  HW  HW  OW  HW  HW  OW  HW  HW  OW  HW  HW  
OW  HW  HW  OW  HW  HW  OW  HW  HW  OW  HW  HW  OW  HW  HW  OW  HW  HW  OW  HW  
HW  OW  HW  HW  OW  HW  HW  OW  HW  HW  OW  HW  HW  OW  HW  HW  OW  HW  HW  OW  
HW  HW  OW  HW  HW  OW  HW  HW  OW  HW  HW  OW  HW  HW  OW  HW  HW  OW  HW  HW  
OW  HW  HW  OW  HW  HW  OW  HW  HW  OW  HW  HW  OW  HW  HW  OW  HW  HW  OW  HW  
HW  OW  HW  HW  OW  HW  HW  OW  HW  HW  OW  HW  HW  OW  HW  HW  OW  HW  HW  OW  
HW  HW  OW  HW  HW  OW  HW  HW  OW  HW  HW  OW  HW  HW  OW  HW  HW  OW  HW  HW  
OW  HW  HW  OW  HW  HW  OW  HW  HW  OW  HW  HW  OW  HW  HW  OW  HW  HW  OW  HW  
HW  OW  HW  HW  OW  HW  HW  OW  HW  HW  OW  HW  HW  OW  HW  HW  OW  HW  HW  OW  
HW  HW  OW  HW  HW  OW  HW  HW  OW  HW  HW  OW  HW  HW  OW  HW  HW  OW  HW  HW  
OW  HW  HW  OW  HW  HW  OW  HW  HW  OW  HW  HW  OW  HW  HW  OW  HW  HW  OW  HW  
HW  OW  HW  HW  OW  HW  HW  OW  HW  HW  OW  HW  HW  OW  HW  HW  OW  HW  HW  OW  
HW  HW  OW  HW  HW  OW  HW  HW  OW  HW  HW  OW  HW  HW  OW  HW  HW  OW  HW  HW  
OW  HW  HW  OW  HW  HW  OW  HW  HW  OW  HW  HW  OW  HW  HW  OW  HW  HW  OW  HW  
HW  OW  HW  HW  OW  HW  HW  OW  HW  HW  OW  HW  HW  OW  HW  HW  OW  HW  HW  OW  
HW  HW  OW  HW  HW  OW  HW  HW  OW  HW  HW  OW  HW  HW  OW  HW  HW  OW  HW  HW  
OW  HW  HW  OW  HW  HW  OW  HW  HW  OW  HW  HW  OW  HW  HW  OW  HW  HW  OW  HW  
HW  OW  HW  HW  OW  HW  HW  OW  HW  HW  OW  HW  HW  OW  HW  HW  OW  HW  HW  OW  
HW  HW  OW  HW  HW  OW  HW  HW  OW  HW  HW  OW  HW  HW  OW  HW  HW  OW  HW  HW  
OW  HW  HW  OW  HW  HW  OW  HW  HW  OW  HW  HW  OW  HW  HW  OW  HW  HW  OW  HW  
HW  OW  HW  HW  OW  HW  HW  OW  HW  HW  OW  HW  HW  OW  HW  HW  OW  HW  HW  OW  
HW  HW  OW  HW  HW  OW  HW  HW  OW  HW  HW  OW  HW  HW  OW  HW  HW  OW  HW  HW  
OW  HW  HW  OW  HW  HW  OW  HW  HW  OW  HW  HW  OW  HW  HW  OW  HW  HW  OW  HW  
HW  OW  HW  HW  OW  HW  HW  OW  HW  HW  OW  HW  HW  OW  HW  HW  OW  HW  HW  OW  
HW  HW  OW  HW  HW  OW  HW  HW  OW  HW  HW  OW  HW  HW  OW  HW  HW  OW  HW  HW  
OW  HW  HW  OW  HW  HW  OW  HW  HW  OW  HW  HW  OW  HW  HW  OW  HW  HW  OW  HW  
HW  OW  HW  HW  OW  HW  HW  OW  HW  HW  OW  HW  HW  OW  HW  HW  OW  HW  HW  OW  
HW  HW  OW  HW  HW  OW  HW  HW  OW  HW  HW  OW  HW  HW  OW  HW  HW  OW  HW  HW  
OW  HW  HW  OW  HW  HW  OW  HW  HW  OW  HW  HW  OW  HW  HW  OW  HW  HW  OW  HW  
HW  OW  HW  HW  OW  HW  HW  OW  HW  HW  OW  HW  HW  OW  HW  HW  OW  HW  HW  OW  
HW  HW  OW  HW  HW  OW  HW  HW  OW  HW  HW  OW  HW  HW  OW  HW  HW  OW  HW  HW  
OW  HW  HW  OW  HW  HW  OW  HW  HW  OW  HW  HW  OW  HW  HW  OW  HW  HW  OW  HW  
HW  OW  HW  HW  OW  HW  HW  OW  HW  HW  OW  HW  HW  OW  HW  HW  OW  HW  HW  OW  
HW  HW  OW  HW  HW  OW  HW  HW  OW  HW  HW  OW  HW  HW  OW  HW  HW  OW  HW  HW  
OW  HW  HW  OW  HW  HW  OW  HW  HW  OW  HW  HW  OW  HW  HW  OW  HW  HW  OW  HW  
HW  OW  HW  HW  OW  HW  HW  OW  HW  HW  OW  HW  HW  OW  HW  HW  OW  HW  HW  OW  
HW  HW  OW  HW  HW  OW  HW  HW  OW  HW  HW  OW  HW  HW  OW  HW  HW  OW  HW  HW  
OW  HW  HW  OW  HW  HW  OW  HW  HW  OW  HW  HW  OW  HW  HW  OW  HW  HW  OW  HW  
HW  OW  HW  HW  OW  HW  HW  OW  HW  HW  OW  HW  HW  OW  HW  HW  OW  HW  HW  OW  
HW  HW  OW  HW  HW  OW  HW  HW  OW  HW  HW  OW  HW  HW  OW  HW  HW  OW  HW  HW  
OW  HW  HW  OW  HW  HW  OW  HW  HW  OW  HW  HW  OW  HW  HW  OW  HW  HW  OW  HW  
HW  OW  HW  HW  OW  HW  HW  OW  HW  HW  OW  HW  HW  OW  HW  HW  OW  HW  HW  OW  
HW  HW  OW  HW  HW  OW  HW  HW  OW  HW  HW  OW  HW  HW  OW  HW  HW  OW  HW  HW  
OW  HW  HW  OW  HW  HW  OW  HW  HW  OW  HW  HW  OW  HW  HW  OW  HW  HW  OW  HW  
HW  OW  HW  HW  OW  HW  HW  OW  HW  HW  OW  HW  HW  OW  HW  HW  OW  HW  HW  OW  
HW  HW  OW  HW  HW  OW  HW  HW  OW  HW  HW  OW  HW  HW  OW  HW  HW  OW  HW  HW  
OW  HW  HW  OW  HW  HW  OW  HW  HW  OW  HW  HW  OW  HW  HW  OW  HW  HW  OW  HW  
HW  OW  HW  HW  OW  HW  HW  OW  HW  HW  OW  HW  HW  OW  HW  HW  OW  HW  HW  OW  
HW  HW  OW  HW  HW  OW  HW  HW  OW  HW  HW  OW  HW  HW  OW  HW  HW  OW  HW  HW  
OW  HW  HW  OW  HW  HW  OW  HW  HW  OW  HW  HW  OW  HW  HW  OW  HW  HW  OW  HW  
HW  OW  HW  HW  OW  HW  HW  OW  HW  HW  OW  HW  HW  OW  HW  HW  OW  HW  HW  OW  
HW  HW  OW  HW  HW  OW  HW  HW  OW  HW  HW  OW  HW  HW  OW  HW  HW  OW  HW  HW  
OW  HW  HW  OW  HW  HW  OW  HW  HW  OW  HW  HW  OW  HW  HW  OW  HW  HW  OW  HW  
HW  OW  HW  HW  OW  HW  HW  OW  HW  HW  OW  HW  HW  OW  HW  HW  OW  HW  HW  OW  
HW  HW  OW  HW  HW  OW  HW  HW  OW  HW  HW  OW  HW  HW  OW  HW  HW  OW  HW  HW  
OW  HW  HW  OW  HW  HW  OW  HW  HW  OW  HW  HW  OW  HW  HW  OW  HW  HW  OW  HW  
HW  OW  HW  HW  OW  HW  HW  OW  HW  HW  OW  HW  HW  OW  HW  HW  OW  HW  HW  OW  
HW  HW  OW  HW  HW  OW  HW  HW  OW  HW  HW  OW  HW  HW  OW  HW  HW  OW  HW  HW  
OW  HW  HW  OW  HW  HW  OW  HW  HW  OW  HW  HW  OW  HW  HW  OW  HW  HW  OW  HW  
HW  OW  HW  HW  OW  HW  HW  OW  HW  HW  OW  HW  HW  OW  HW  HW  OW  HW  HW  OW  
HW  HW  OW  HW  HW  OW  HW  HW  OW  HW  HW  OW  HW  HW  OW  HW  HW  OW  HW  HW  
OW  HW  HW  OW  HW  HW  OW  HW  HW  OW  HW  HW  OW  HW  HW  OW  HW  HW  OW  HW  
HW  OW  HW  HW  OW  HW  HW  OW  HW  HW  OW  HW  HW  OW  HW  HW  OW  HW  HW  OW  
HW  HW  OW  HW  HW  OW  HW  HW  OW  HW  HW  OW  HW  HW  OW  HW  HW  OW  HW  HW  
OW  HW  HW  OW  HW  HW  OW  HW  HW  OW  HW  HW  OW  HW  HW  OW  HW  HW  OW  HW  
HW  OW  HW  HW  OW  HW  HW  OW  HW  HW  OW  HW  HW  OW  HW  HW  OW  HW  HW  OW  
HW  HW  OW  HW  HW  OW  HW  HW  OW  HW  HW  OW  HW  HW  OW  HW  HW  OW  HW  HW  
OW  HW  HW  OW  HW  HW  OW  HW  HW  OW  HW  HW  OW  HW  HW  OW  HW  HW  OW  HW  
HW  OW  HW  HW  OW  HW  HW  OW  HW  HW  OW  HW  HW  OW  HW  HW  OW  HW  HW  OW  
HW  HW  OW  HW  HW  OW  HW  HW  OW  HW  HW  OW  HW  HW  OW  HW  HW  OW  HW  HW  
OW  HW  HW  OW  HW  HW  OW  HW  HW  OW  HW  HW  OW  HW  HW  OW  HW  HW  OW  HW  
HW  OW  HW  HW  OW  HW  HW  OW  HW  HW  OW  HW  HW  OW  HW  HW  OW  HW  HW  OW  
HW  HW  OW  HW  HW  OW  HW  HW  OW  HW  HW  OW  HW  HW  OW  HW  HW  OW  HW  HW  
OW  HW  HW  OW  HW  HW  OW  HW  HW  OW  HW  HW  OW  HW  HW  OW  HW  HW  OW  HW  
HW  OW  HW  HW  OW  HW  HW  OW  HW  HW  OW  HW  HW  OW  HW  HW  OW  HW  HW  OW  
HW  HW  OW  HW  HW  OW  HW  HW  OW  HW  HW  OW  HW  HW  OW  HW  HW  OW  HW  HW  
OW  HW  HW  OW  HW  HW  OW  HW  HW  OW  HW  HW  OW  HW  HW  OW  HW  HW  OW  HW  
HW  OW  HW  HW  OW  HW  HW  OW  HW  HW  OW  HW  HW  OW  HW  HW  OW  HW  HW  OW  
HW  HW  OW  HW  HW  OW  HW  HW  OW  HW  HW  OW  HW  HW  OW  HW  HW  OW  HW  HW  
OW  HW  HW  OW  HW  HW  OW  HW  HW  OW  HW  HW  OW  HW  HW  OW  HW  HW  OW  HW  
HW  OW  HW  HW  OW  HW  HW  OW  HW  HW  OW  HW  HW  OW  HW  HW  OW  HW  HW  OW  
HW  HW  OW  HW  HW  OW  HW  HW  OW  HW  HW  OW  HW  HW  OW  HW  HW  OW  HW  HW  
OW  HW  HW  OW  HW  HW  OW  HW  HW  OW  HW  HW  OW  HW  HW  OW  HW  HW  OW  HW  
HW  OW  HW  HW  OW  HW  HW  OW  HW  HW  OW  HW  HW  OW  HW  HW  OW  HW  HW  OW  
HW  HW  OW  HW  HW  OW  HW  HW  OW  HW  HW  OW  HW  HW  OW  HW  HW  OW  HW  HW  
OW  HW  HW  OW  HW  HW  OW  HW  HW  OW  HW  HW  OW  HW  HW  OW  HW  HW  OW  HW  
HW  OW  HW  HW  OW  HW  HW  OW  HW  HW  OW  HW  HW  OW  HW  HW  OW  HW  HW  OW  
HW  HW  OW  HW  HW  OW  HW  HW  OW  HW  HW  OW  HW  HW  OW  HW  HW  OW  HW  HW  
OW  HW  HW  OW  HW  HW  OW  HW  HW  OW  HW  HW  OW  HW  HW  OW  HW  HW  OW  HW  
HW  OW  HW  HW  OW  HW  HW  OW  HW  HW  OW  HW  HW  OW  HW  HW  OW  HW  HW  OW  
HW  HW  OW  HW  HW  OW  HW  HW  OW  HW  HW  OW  HW  HW  OW  HW  HW  OW  HW  HW  
OW  HW  HW  OW  HW  HW  OW  HW  HW  OW  HW  HW  OW  HW  HW  OW  HW  HW  OW  HW  
HW  OW  HW  HW  OW  HW  HW  OW  HW  HW  OW  HW  HW  OW  HW  HW  OW  HW  HW  OW  
HW  HW  OW  HW  HW  OW  HW  HW  OW  HW  HW  OW  HW  HW  OW  HW  HW  OW  HW  HW  
OW  HW  HW  OW  HW  HW  OW  HW  HW  OW  HW  HW  OW  HW  HW  OW  HW  HW  OW  HW  
HW  OW  HW  HW  OW  HW  HW  OW  HW  HW  OW  HW  HW  OW  HW  HW  OW  HW  HW  OW  
HW  HW  OW  HW  HW  OW  HW  HW  OW  HW  HW  OW  HW  HW  OW  HW  HW  OW  HW  HW  
OW  HW  HW  OW  HW  HW  OW  HW  HW  OW  HW  HW  OW  HW  HW  OW  HW  HW  OW  HW  
HW  OW  HW  HW  OW  HW  HW  OW  HW  HW  OW  HW  HW  OW  HW  HW  OW  HW  HW  OW  
HW  HW  OW  HW  HW  OW  HW  HW  OW  HW  HW  OW  HW  HW  OW  HW  HW  OW  HW  HW  
OW  HW  HW  OW  HW  HW  OW  HW  HW  OW  HW  HW  OW  HW  HW  OW  HW  HW  OW  HW  
HW  OW  HW  HW  OW  HW  HW  OW  HW  HW  OW  HW  HW  OW  HW  HW  OW  HW  HW  OW  
HW  HW  OW  HW  HW  OW  HW  HW  OW  HW  HW  OW  HW  HW  OW  HW  HW  OW  HW  HW  
OW  HW  HW  OW  HW  HW  OW  HW  HW  OW  HW  HW  OW  HW  HW  OW  HW  HW  OW  HW  
HW  OW  HW  HW  OW  HW  HW  OW  HW  HW  OW  HW  HW  OW  HW  HW  OW  HW  HW  OW  
HW  HW  OW  HW  HW  OW  HW  HW  OW  HW  HW  OW  HW  HW  OW  HW  HW  OW  HW  HW  
OW  HW  HW  OW  HW  HW  OW  HW  HW  OW  HW  HW  OW  HW  HW  OW  HW  HW  OW  HW  
HW  OW  HW  HW  OW  HW  HW  OW  HW  HW  OW  HW  HW  OW  HW  HW  OW  HW  HW  OW  
HW  HW  OW  HW  HW  OW  HW  HW  OW  HW  HW  OW  HW  HW  OW  HW  HW  OW  HW  HW  
OW  HW  HW  OW  HW  HW  OW  HW  HW  OW  HW  HW  OW  HW  HW  OW  HW  HW  OW  HW  
HW  OW  HW  HW  OW  HW  HW  OW  HW  HW  OW  HW  HW  OW  HW  HW  OW  HW  HW  OW  
HW  HW  OW  HW  HW  OW  HW  HW  OW  HW  HW  OW  HW  HW  OW  HW  HW  OW  HW  HW  
OW  HW  HW  OW  HW  HW  OW  HW  HW  OW  HW  HW  OW  HW  HW  OW  HW  HW  OW  HW  
HW  OW  HW  HW  OW  HW  HW  OW  HW  HW  OW  HW  HW  OW  HW  HW  OW  HW  HW  OW  
HW  HW  OW  HW  HW  OW  HW  HW  OW  HW  HW  OW  HW  HW  OW  HW  HW  OW  HW  HW  
OW  HW  HW  OW  HW  HW  OW  HW  HW  OW  HW  HW  OW  HW  HW  OW  HW  HW  OW  HW  
HW  OW  HW  HW  OW  HW  HW  OW  HW  HW  OW  HW  HW  OW  HW  HW  OW  HW  HW  OW  
HW  HW  OW  HW  HW  OW  HW  HW  OW  HW  HW  OW  HW  HW  OW  HW  HW  OW  HW  HW  
OW  HW  HW  OW  HW  HW  OW  HW  HW  OW  HW  HW  OW  HW  HW  OW  HW  HW  OW  HW  
HW  OW  HW  HW  OW  HW  HW  OW  HW  HW  OW  HW  HW  OW  HW  HW  OW  HW  HW  OW  
HW  HW  OW  HW  HW  OW  HW  HW  OW  HW  HW  OW  HW  HW  OW  HW  HW  OW  HW  HW  
OW  HW  HW  OW  HW  HW  OW  HW  HW  OW  HW  HW  OW  HW  HW  OW  HW  HW  OW  HW  
HW  OW  HW  HW  OW  HW  HW  OW  HW  HW  OW  HW  HW  OW  HW  HW  OW  HW  HW  OW  
HW  HW  OW  HW  HW  OW  HW  HW  OW  HW  HW  OW  HW  HW  OW  HW  HW  OW  HW  HW  
OW  HW  HW  OW  HW  HW  OW  HW  HW  OW  HW  HW  OW  HW  HW  OW  HW  HW  OW  HW  
HW  OW  HW  HW  OW  HW  HW  OW  HW  HW  OW  HW  HW  OW  HW  HW  OW  HW  HW  OW  
HW  HW  OW  HW  HW  OW  HW  HW  OW  HW  HW  OW  HW  HW  OW  HW  HW  OW  HW  HW  
OW  HW  HW  OW  HW  HW  OW  HW  HW  OW  HW  HW  OW  HW  HW  OW  HW  HW  OW  HW  
HW  OW  HW  HW  OW  HW  HW  OW  HW  HW  OW  HW  HW  OW  HW  HW  OW  HW  HW  OW  
HW  HW  OW  HW  HW  OW  HW  HW  OW  HW  HW  OW  HW  HW  OW  HW  HW  OW  HW  HW  
OW  HW  HW  OW  HW  HW  OW  HW  HW  OW  HW  HW  OW  HW  HW  OW  HW  HW  OW  HW  
HW  OW  HW  HW  OW  HW  HW  OW  HW  HW  OW  HW  HW  OW  HW  HW  OW  HW  HW  OW  
HW  HW  OW  HW  HW  OW  HW  HW  OW  HW  HW  OW  HW  HW  OW  HW  HW  OW  HW  HW  
OW  HW  HW  OW  HW  HW  OW  HW  HW  OW  HW  HW  OW  HW  HW  OW  HW  HW  OW  HW  
HW  OW  HW  HW  OW  HW  HW  OW  HW  HW  OW  HW  HW  OW  HW  HW  OW  HW  HW  OW  
HW  HW  OW  HW  HW  OW  HW  HW  OW  HW  HW  OW  HW  HW  OW  HW  HW  OW  HW  HW  
OW  HW  HW  OW  HW  HW  OW  HW  HW  OW  HW  HW  OW  HW  HW  OW  HW  HW  OW  HW  
HW  OW  HW  HW  OW  HW  HW  OW  HW  HW  OW  HW  HW  OW  HW  HW  OW  HW  HW  OW  
HW  HW  OW  HW  HW  OW  HW  HW  OW  HW  HW  OW  HW  HW  OW  HW  HW  OW  HW  HW  
OW  HW  HW  OW  HW  HW  OW  HW  HW  OW  HW  HW  OW  HW  HW  OW  HW  HW  OW  HW  
HW  OW  HW  HW  OW  HW  HW  OW  HW  HW  OW  HW  HW  OW  HW  HW  OW  HW  HW  OW  
HW  HW  OW  HW  HW  OW  HW  HW  OW  HW  HW  OW  HW  HW  OW  HW  HW  OW  HW  HW  
OW  HW  HW  OW  HW  HW  OW  HW  HW  OW  HW  HW  OW  HW  HW  OW  HW  HW  OW  HW  
HW  OW  HW  HW  OW  HW  HW  OW  HW  HW  OW  HW  HW  OW  HW  HW  OW  HW  HW  OW  
HW  HW  OW  HW  HW  OW  HW  HW  OW  HW  HW  OW  HW  HW  OW  HW  HW  OW  HW  HW  
OW  HW  HW  OW  HW  HW  OW  HW  HW  OW  HW  HW  OW  HW  HW  OW  HW  HW  OW  HW  
HW  OW  HW  HW  OW  HW  HW  OW  HW  HW  OW  HW  HW  OW  HW  HW  OW  HW  HW  OW  
HW  HW  OW  HW  HW  OW  HW  HW  OW  HW  HW  OW  HW  HW  OW  HW  HW  OW  HW  HW  
OW  HW  HW  OW  HW  HW  OW  HW  HW  OW  HW  HW  OW  HW  HW  OW  HW  HW  OW  HW  
HW  OW  HW  HW  OW  HW  HW  OW  HW  HW  OW  HW  HW  OW  HW  HW  OW  HW  HW  OW  
HW  HW  OW  HW  HW  OW  HW  HW  OW  HW  HW  OW  HW  HW  OW  HW  HW  OW  HW  HW  
OW  HW  HW  OW  HW  HW  OW  HW  HW  OW  HW  HW  OW  HW  HW  OW  HW  HW  OW  HW  
HW  OW  HW  HW  OW  HW  HW  OW  HW  HW  OW  HW  HW  OW  HW  HW  OW  HW  HW  OW  
HW  HW  OW  HW  HW  OW  HW  HW  OW  HW  HW  OW  HW  HW  OW  HW  HW  OW  HW  HW  
OW  HW  HW  OW  HW  HW  OW  HW  HW  OW  HW  HW  OW  HW  HW  OW  HW  HW  OW  HW  
HW  OW  HW  HW  OW  HW  HW  OW  HW  HW  OW  HW  HW  OW  HW  HW  OW  HW  HW  OW  
HW  HW  OW  HW  HW  OW  HW  HW  OW  HW  HW  OW  HW  HW  OW  HW  HW  OW  HW  HW  
OW  HW  HW  OW  HW  HW  OW  HW  HW  OW  HW  HW  OW  HW  HW  OW  HW  HW  OW  HW  
HW  OW  HW  HW  OW  HW  HW  OW  HW  HW  OW  HW  HW  OW  HW  HW  OW  HW  HW  OW  
HW  HW  OW  HW  HW  OW  HW  HW  OW  HW  HW  OW  HW  HW  OW  HW  HW  OW  HW  HW  
OW  HW  HW  OW  HW  HW  OW  HW  HW  OW  HW  HW  OW  HW  HW  OW  HW  HW  OW  HW  
HW  OW  HW  HW  OW  HW  HW  OW  HW  HW  OW  HW  HW  OW  HW  HW  OW  HW  HW  OW  
HW  HW  OW  HW  HW  OW  HW  HW  OW  HW  HW  OW  HW  HW  OW  HW  HW  OW  HW  HW  
OW  HW  HW  OW  HW  HW  OW  HW  HW  OW  HW  HW  OW  HW  HW  OW  HW  HW  OW  HW  
HW  OW  HW  HW  OW  HW  HW  OW  HW  HW  OW  HW  HW  OW  HW  HW  OW  HW  HW  OW  
HW  HW  OW  HW  HW  OW  HW  HW  OW  HW  HW  OW  HW  HW  OW  HW  HW  OW  HW  HW  
OW  HW  HW  OW  HW  HW  OW  HW  HW  OW  HW  HW  OW  HW  HW  OW  HW  HW  OW  HW  
HW  OW  HW  HW  OW  HW  HW  OW  HW  HW  OW  HW  HW  OW  HW  HW  OW  HW  HW  OW  
HW  HW  OW  HW  HW  OW  HW  HW  OW  HW  HW  OW  HW  HW  OW  HW  HW  OW  HW  HW  
OW  HW  HW  OW  HW  HW  OW  HW  HW  OW  HW  HW  OW  HW  HW  OW  HW  HW  OW  HW  
HW  OW  HW  HW  OW  HW  HW  OW  HW  HW  OW  HW  HW  OW  HW  HW  OW  HW  HW  OW  
HW  HW  OW  HW  HW  OW  HW  HW  OW  HW  HW  OW  HW  HW  OW  HW  HW  OW  HW  HW  
OW  HW  HW  OW  HW  HW  OW  HW  HW  OW  HW  HW  OW  HW  HW  OW  HW  HW  OW  HW  
HW  OW  HW  HW  OW  HW  HW  OW  HW  HW  OW  HW  HW  OW  HW  HW  OW  HW  HW  OW  
HW  HW  OW  HW  HW  OW  HW  HW  OW  HW  HW  OW  HW  HW  OW  HW  HW  OW  HW  HW  
OW  HW  HW  OW  HW  HW  OW  HW  HW  OW  HW  HW  OW  HW  HW  OW  HW  HW  OW  HW  
HW  OW  HW  HW  OW  HW  HW  OW  HW  HW  OW  HW  HW  OW  HW  HW  OW  HW  HW  OW  
HW  HW  OW  HW  HW  OW  HW  HW  OW  HW  HW  OW  HW  HW  OW  HW  HW  OW  HW  HW  
OW  HW  HW  OW  HW  HW  OW  HW  HW  OW  HW  HW  OW  HW  HW  OW  HW  HW  OW  HW  
HW  OW  HW  HW  OW  HW  HW  OW  HW  HW  OW  HW  HW  OW  HW  HW  OW  HW  HW  OW  
HW  HW  OW  HW  HW  OW  HW  HW  OW  HW  HW  OW  HW  HW  OW  HW  HW  OW  HW  HW  
OW  HW  HW  OW  HW  HW  OW  HW  HW  OW  HW  HW  OW  HW  HW  OW  HW  HW  OW  HW  
HW  OW  HW  HW  OW  HW  HW  OW  HW  HW  OW  HW  HW  OW  HW  HW  OW  HW  HW  OW  
HW  HW  OW  HW  HW  OW  HW  HW  OW  HW  HW  OW  HW  HW  OW  HW  HW  OW  HW  HW  
OW  HW  HW  OW  HW  HW  OW  HW  HW  OW  HW  HW  OW  HW  HW  OW  HW  HW  OW  HW  
HW  OW  HW  HW  OW  HW  HW  OW  HW  HW  OW  HW  HW  OW  HW  HW  OW  HW  HW  OW  
HW  HW  OW  HW  HW  OW  HW  HW  OW  HW  HW  OW  HW  HW  OW  HW  HW  OW  HW  HW  
OW  HW  HW  OW  HW  HW  OW  HW  HW  OW  HW  HW  OW  HW  HW  OW  HW  HW  OW  HW  
HW  OW  HW  HW  OW  HW  HW  OW  HW  HW  OW  HW  HW  OW  HW  HW  OW  HW  HW  OW  
HW  HW  OW  HW  HW  OW  HW  HW  OW  HW  HW  OW  HW  HW  OW  HW  HW  OW  HW  HW  
OW  HW  HW  OW  HW  HW  OW  HW  HW  OW  HW  HW  OW  HW  HW  OW  HW  HW  OW  HW  
HW  OW  HW  HW  OW  HW  HW  OW  HW  HW  OW  HW  HW  OW  HW  HW  OW  HW  HW  OW  
HW  HW  OW  HW  HW  OW  HW  HW  OW  HW  HW  OW  HW  HW  OW  HW  HW  OW  HW  HW  
OW  HW  HW  OW  HW  HW  OW  HW  HW  OW  HW  HW  OW  HW  HW  OW  HW  HW  OW  HW  
HW  OW  HW  HW  OW  HW  HW  OW  HW  HW  OW  HW  HW  OW  HW  HW  OW  HW  HW  OW  
HW  HW  OW  HW  HW  OW  HW  HW  OW  HW  HW  OW  HW  HW  OW  HW  HW  OW  HW  HW  
OW  HW  HW  OW  HW  HW  OW  HW  HW  OW  HW  HW  OW  HW  HW  OW  HW  HW  OW  HW  
HW  OW  HW  HW  OW  HW  HW  OW  HW  HW  OW  HW  HW  OW  HW  HW  OW  HW  HW  OW  
HW  HW  OW  HW  HW  OW  HW  HW  OW  HW  HW  OW  HW  HW  OW  HW  HW  OW  HW  HW  
OW  HW  HW  OW  HW  HW  OW  HW  HW  OW  HW  HW  OW  HW  HW  OW  HW  HW  OW  HW  
HW  OW  HW  HW  OW  HW  HW  OW  HW  HW  OW  HW  HW  OW  HW  HW  OW  HW  HW  OW  
HW  HW  OW  HW  HW  OW  HW  HW  OW  HW  HW  OW  HW  HW  OW  HW  HW  OW  HW  HW  
OW  HW  HW  OW  HW  HW  OW  HW  HW  OW  HW  HW  OW  HW  HW  OW  HW  HW  OW  HW  
HW  OW  HW  HW  OW  HW  HW  OW  HW  HW  OW  HW  HW  OW  HW  HW  OW  HW  HW  OW  
HW  HW  OW  HW  HW  OW  HW  HW  OW  HW  HW  OW  HW  HW  OW  HW  HW  OW  HW  HW  
OW  HW  HW  OW  HW  HW  OW  HW  HW  OW  HW  HW  OW  HW  HW  OW  HW  HW  OW  HW  
HW  OW  HW  HW  OW  HW  HW  OW  HW  HW  OW  HW  HW  OW  HW  HW  OW  HW  HW  OW  
HW  HW  OW  HW  HW  OW  HW  HW  OW  HW  HW  OW  HW  HW  OW  HW  HW  OW  HW  HW  
OW  HW  HW  OW  HW  HW  OW  HW  HW  OW  HW  HW  OW  HW  HW  OW  HW  HW  OW  HW  
HW  OW  HW  HW  OW  HW  HW  OW  HW  HW  OW  HW  HW  OW  HW  HW  OW  HW  HW  OW  
HW  HW  OW  HW  HW  OW  HW  HW  OW  HW  HW  OW  HW  HW  OW  HW  HW  OW  HW  HW  
OW  HW  HW  OW  HW  HW  OW  HW  HW  OW  HW  HW  OW  HW  HW  OW  HW  HW  OW  HW  
HW  OW  HW  HW  OW  HW  HW  OW  HW  HW  OW  HW  HW  OW  HW  HW  OW  HW  HW  OW  
HW  HW  OW  HW  HW  OW  HW  HW  OW  HW  HW  OW  HW  HW  OW  HW  HW  OW  HW  HW  
OW  HW  HW  OW  HW  HW  OW  HW  HW  OW  HW  HW  OW  HW  HW  OW  HW  HW  OW  HW  
HW  OW  HW  HW  OW  HW  HW  OW  HW  HW  OW  HW  HW  OW  HW  HW  OW  HW  HW  OW  
HW  HW  OW  HW  HW  OW  HW  HW  OW  HW  HW  OW  HW  HW  OW  HW  HW  OW  HW  HW  
OW  HW  HW  OW  HW  HW  OW  HW  HW  OW  HW  HW  OW  HW  HW  OW  HW  HW  OW  HW  
HW  OW  HW  HW  OW  HW  HW  OW  HW  HW  OW  HW  HW  OW  HW  HW  OW  HW  HW  OW  
HW  HW  OW  HW  HW  OW  HW  HW  OW  HW  HW  OW  HW  HW  OW  HW  HW  OW  HW  HW  
OW  HW  HW  OW  HW  HW  OW  HW  HW  OW  HW  HW  OW  HW  HW  OW  HW  HW  OW  HW  
HW  OW  HW  HW  OW  HW  HW  OW  HW  HW  OW  HW  HW  OW  HW  HW  OW  HW  HW  OW  
HW  HW  OW  HW  HW  OW  HW  HW  OW  HW  HW  OW  HW  HW  OW  HW  HW  OW  HW  HW  
OW  HW  HW  OW  HW  HW  OW  HW  HW  OW  HW  HW  OW  HW  HW  OW  HW  HW  OW  HW  
HW  OW  HW  HW  OW  HW  HW  OW  HW  HW  OW  HW  HW  OW  HW  HW  OW  HW  HW  OW  
HW  HW  OW  HW  HW  OW  HW  HW  OW  HW  HW  OW  HW  HW  OW  HW  HW  OW  HW  HW  
OW  HW  HW  OW  HW  HW  OW  HW  HW  OW  HW  HW  OW  HW  HW  OW  HW  HW  OW  HW  
HW  OW  HW  HW  OW  HW  HW  OW  HW  HW  OW  HW  HW  OW  HW  HW  OW  HW  HW  OW  
HW  HW  OW  HW  HW  OW  HW  HW  OW  HW  HW  OW  HW  HW  OW  HW  HW  OW  HW  HW  
OW  HW  HW  OW  HW  HW  OW  HW  HW  OW  HW  HW  OW  HW  HW  OW  HW  HW  OW  HW  
HW  OW  HW  HW  OW  HW  HW  OW  HW  HW  OW  HW  HW  OW  HW  HW  OW  HW  HW  OW  
HW  HW  OW  HW  HW  OW  HW  HW  OW  HW  HW  OW  HW  HW  OW  HW  HW  OW  HW  HW  
OW  HW  HW  OW  HW  HW  OW  HW  HW  OW  HW  HW  OW  HW  HW  OW  HW  HW  OW  HW  
HW  OW  HW  HW  OW  HW  HW  OW  HW  HW  OW  HW  HW  OW  HW  HW  OW  HW  HW  OW  
HW  HW  OW  HW  HW  OW  HW  HW  OW  HW  HW  OW  HW  HW  OW  HW  HW  OW  HW  HW  
OW  HW  HW  OW  HW  HW  OW  HW  HW  OW  HW  HW  OW  HW  HW  OW  HW  HW  OW  HW  
HW  OW  HW  HW  OW  HW  HW  OW  HW  HW  OW  HW  HW  OW  HW  HW  OW  HW  HW  OW  
HW  HW  OW  HW  HW  OW  HW  HW  OW  HW  HW  OW  HW  HW  OW  HW  HW  OW  HW  HW  
OW  HW  HW  OW  HW  HW  OW  HW  HW  OW  HW  HW  OW  HW  HW  OW  HW  HW  OW  HW  
HW  OW  HW  HW  OW  HW  HW  OW  HW  HW  OW  HW  HW  OW  HW  HW  OW  HW  HW  OW  
HW  HW  OW  HW  HW  OW  HW  HW  OW  HW  HW  OW  HW  HW  OW  HW  HW  OW  HW  HW  
OW  HW  HW  OW  HW  HW  OW  HW  HW  OW  HW  HW  OW  HW  HW  OW  HW  HW  OW  HW  
HW  OW  HW  HW  OW  HW  HW  OW  HW  HW  OW  HW  HW  OW  HW  HW  OW  HW  HW  OW  
HW  HW  OW  HW  HW  OW  HW  HW  OW  HW  HW  OW  HW  HW  OW  HW  HW  OW  HW  HW  
OW  HW  HW  OW  HW  HW  OW  HW  HW  OW  HW  HW  OW  HW  HW  OW  HW  HW  OW  HW  
HW  OW  HW  HW  OW  HW  HW  OW  HW  HW  OW  HW  HW  OW  HW  HW  OW  HW  HW  OW  
HW  HW  OW  HW  HW  OW  HW  HW  OW  HW  HW  OW  HW  HW  OW  HW  HW  OW  HW  HW  
OW  HW  HW  OW  HW  HW  OW  HW  HW  OW  HW  HW  OW  HW  HW  OW  HW  HW  OW  HW  
HW  OW  HW  HW  OW  HW  HW  OW  HW  HW  OW  HW  HW  OW  HW  HW  OW  HW  HW  OW  
HW  HW  OW  HW  HW  OW  HW  HW  OW  HW  HW  OW  HW  HW  OW  HW  HW  OW  HW  HW  
OW  HW  HW  OW  HW  HW  OW  HW  HW  OW  HW  HW  OW  HW  HW  OW  HW  HW  OW  HW  
HW  OW  HW  HW  OW  HW  HW  OW  HW  HW  OW  HW  HW  OW  HW  HW  OW  HW  HW  OW  
HW  HW  OW  HW  HW  OW  HW  HW  OW  HW  HW  OW  HW  HW  OW  HW  HW  OW  HW  HW  
OW  HW  HW  OW  HW  HW  OW  HW  HW  OW  HW  HW  OW  HW  HW  OW  HW  HW  OW  HW  
HW  OW  HW  HW  OW  HW  HW  OW  HW  HW  OW  HW  HW  OW  HW  HW  OW  HW  HW  OW  
HW  HW  OW  HW  HW  OW  HW  HW  OW  HW  HW  OW  HW  HW  OW  HW  HW  OW  HW  HW  
OW  HW  HW  OW  HW  HW  OW  HW  HW  OW  HW  HW  OW  HW  HW  OW  HW  HW  OW  HW  
HW  OW  HW  HW  OW  HW  HW  OW  HW  HW  OW  HW  HW  OW  HW  HW  OW  HW  HW  OW  
HW  HW  OW  HW  HW  OW  HW  HW  OW  HW  HW  OW  HW  HW  OW  HW  HW  OW  HW  HW  
OW  HW  HW  OW  HW  HW  OW  HW  HW  OW  HW  HW  OW  HW  HW  OW  HW  HW  OW  HW  
HW  OW  HW  HW  OW  HW  HW  OW  HW  HW  OW  HW  HW  OW  HW  HW  OW  HW  HW  OW  
HW  HW  OW  HW  HW  OW  HW  HW  OW  HW  HW  OW  HW  HW  OW  HW  HW  OW  HW  HW  
OW  HW  HW  OW  HW  HW  OW  HW  HW  OW  HW  HW  OW  HW  HW  OW  HW  HW  OW  HW  
HW  OW  HW  HW  OW  HW  HW  OW  HW  HW  OW  HW  HW  OW  HW  HW  OW  HW  HW  OW  
HW  HW  OW  HW  HW  OW  HW  HW  OW  HW  HW  OW  HW  HW  OW  HW  HW  OW  HW  HW  
OW  HW  HW  OW  HW  HW  OW  HW  HW  OW  HW  HW  OW  HW  HW  OW  HW  HW  OW  HW  
HW  OW  HW  HW  OW  HW  HW  OW  HW  HW  OW  HW  HW  OW  HW  HW  OW  HW  HW  OW  
HW  HW  OW  HW  HW  OW  HW  HW  OW  HW  HW  OW  HW  HW  OW  HW  HW  OW  HW  HW  
OW  HW  HW  OW  HW  HW  OW  HW  HW  OW  HW  HW  OW  HW  HW  OW  HW  HW  OW  HW  
HW  OW  HW  HW  OW  HW  HW  OW  HW  HW  OW  HW  HW  OW  HW  HW  OW  HW  HW  OW  
HW  HW  OW  HW  HW  OW  HW  HW  OW  HW  HW  OW  HW  HW  OW  HW  HW  OW  HW  HW  
OW  HW  HW  OW  HW  HW  OW  HW  HW  OW  HW  HW  OW  HW  HW  OW  HW  HW  OW  HW  
HW  OW  HW  HW  OW  HW  HW  OW  HW  HW  OW  HW  HW  OW  HW  HW  OW  HW  HW  OW  
HW  HW  OW  HW  HW  OW  HW  HW  OW  HW  HW  OW  HW  HW  OW  HW  HW  OW  HW  HW  
OW  HW  HW  OW  HW  HW  OW  HW  HW  OW  HW  HW  OW  HW  HW  OW  HW  HW  OW  HW  
HW  OW  HW  HW  OW  HW  HW  OW  HW  HW  OW  HW  HW  OW  HW  HW  OW  HW  HW  OW  
HW  HW  OW  HW  HW  OW  HW  HW  OW  HW  HW  OW  HW  HW  OW  HW  HW  OW  HW  HW  
OW  HW  HW  OW  HW  HW  OW  HW  HW  OW  HW  HW  OW  HW  HW  OW  HW  HW  OW  HW  
HW  OW  HW  HW  OW  HW  HW  OW  HW  HW  OW  HW  HW  OW  HW  HW  OW  HW  HW  OW  
HW  HW  OW  HW  HW  OW  HW  HW  OW  HW  HW  OW  HW  HW  OW  HW  HW  OW  HW  HW  
OW  HW  HW  OW  HW  HW  OW  HW  HW  OW  HW  HW  OW  HW  HW  OW  HW  HW  OW  HW  
HW  OW  HW  HW  OW  HW  HW  OW  HW  HW  OW  HW  HW  OW  HW  HW  OW  HW  HW  OW  
HW  HW  OW  HW  HW  OW  HW  HW  OW  HW  HW  OW  HW  HW  OW  HW  HW  OW  HW  HW  
OW  HW  HW  OW  HW  HW  OW  HW  HW  OW  HW  HW  OW  HW  HW  OW  HW  HW  OW  HW  
HW  OW  HW  HW  OW  HW  HW  OW  HW  HW  OW  HW  HW  OW  HW  HW  OW  HW  HW  OW  
HW  HW  OW  HW  HW  OW  HW  HW  OW  HW  HW  OW  HW  HW  OW  HW  HW  OW  HW  HW  
OW  HW  HW  OW  HW  HW  OW  HW  HW  OW  HW  HW  OW  HW  HW  OW  HW  HW  OW  HW  
HW  OW  HW  HW  OW  HW  HW  OW  HW  HW  OW  HW  HW  OW  HW  HW  OW  HW  HW  OW  
HW  HW  OW  HW  HW  OW  HW  HW  OW  HW  HW  OW  HW  HW  OW  HW  HW  OW  HW  HW  
OW  HW  HW  OW  HW  HW  OW  HW  HW  OW  HW  HW  OW  HW  HW  OW  HW  HW  OW  HW  
HW  OW  HW  HW  OW  HW  HW  OW  HW  HW  OW  HW  HW  OW  HW  HW  OW  HW  HW  OW  
HW  HW  OW  HW  HW  OW  HW  HW  OW  HW  HW  OW  HW  HW  OW  HW  HW  OW  HW  HW  
OW  HW  HW  OW  HW  HW  OW  HW  HW  OW  HW  HW  OW  HW  HW  OW  HW  HW  OW  HW  
HW  OW  HW  HW  OW  HW  HW  OW  HW  HW  OW  HW  HW  OW  HW  HW  OW  HW  HW  OW  
HW  HW  OW  HW  HW  OW  HW  HW  OW  HW  HW  OW  HW  HW  OW  HW  HW  OW  HW  HW  
OW  HW  HW  OW  HW  HW  OW  HW  HW  OW  HW  HW  OW  HW  HW  OW  HW  HW  OW  HW  
HW  OW  HW  HW  OW  HW  HW  OW  HW  HW  OW  HW  HW  OW  HW  HW  OW  HW  HW  OW  
HW  HW  OW  HW  HW  OW  HW  HW  OW  HW  HW  OW  HW  HW  OW  HW  HW  OW  HW  HW  
OW  HW  HW  OW  HW  HW  OW  HW  HW  OW  HW  HW  OW  HW  HW  OW  HW  HW  OW  HW  
HW  OW  HW  HW  OW  HW  HW  OW  HW  HW  OW  HW  HW  OW  HW  HW  OW  HW  HW  OW  
HW  HW  OW  HW  HW  OW  HW  HW  OW  HW  HW  OW  HW  HW  OW  HW  HW  OW  HW  HW  
OW  HW  HW  OW  HW  HW  OW  HW  HW  OW  HW  HW  OW  HW  HW  OW  HW  HW  OW  HW  
HW  OW  HW  HW  OW  HW  HW  OW  HW  HW  OW  HW  HW  OW  HW  HW  OW  HW  HW  OW  
HW  HW  OW  HW  HW  OW  HW  HW  OW  HW  HW  OW  HW  HW  OW  HW  HW  OW  HW  HW  
OW  HW  HW  OW  HW  HW  OW  HW  HW  OW  HW  HW  OW  HW  HW  OW  HW  HW  OW  HW  
HW  OW  HW  HW  OW  HW  HW  OW  HW  HW  OW  HW  HW  OW  HW  HW  OW  HW  HW  OW  
HW  HW  OW  HW  HW  OW  HW  HW  OW  HW  HW  OW  HW  HW  OW  HW  HW  OW  HW  HW  
OW  HW  HW  OW  HW  HW  OW  HW  HW  OW  HW  HW  OW  HW  HW  OW  HW  HW  OW  HW  
HW  OW  HW  HW  OW  HW  HW  OW  HW  HW  OW  HW  HW  OW  HW  HW  OW  HW  HW  OW  
HW  HW  OW  HW  HW  OW  HW  HW  OW  HW  HW  OW  HW  HW  OW  HW  HW  OW  HW  HW  
OW  HW  HW  OW  HW  HW  OW  HW  HW  OW  HW  HW  OW  HW  HW  OW  HW  HW  OW  HW  
HW  OW  HW  HW  OW  HW  HW  OW  HW  HW  OW  HW  HW  OW  HW  HW  OW  HW  HW  OW  
HW  HW  OW  HW  HW  OW  HW  HW  OW  HW  HW  OW  HW  HW  OW  HW  HW  OW  HW  HW  
OW  HW  HW  OW  HW  HW  OW  HW  HW  OW  HW  HW  OW  HW  HW  OW  HW  HW  OW  HW  
HW  OW  HW  HW  OW  HW  HW  OW  HW  HW  OW  HW  HW  OW  HW  HW  OW  HW  HW  OW  
HW  HW  OW  HW  HW  OW  HW  HW  OW  HW  HW  OW  HW  HW  OW  HW  HW  OW  HW  HW  
OW  HW  HW  OW  HW  HW  OW  HW  HW  OW  HW  HW  OW  HW  HW  OW  HW  HW  OW  HW  
HW  OW  HW  HW  OW  HW  HW  OW  HW  HW  OW  HW  HW  OW  HW  HW  OW  HW  HW  OW  
HW  HW  OW  HW  HW  OW  HW  HW  OW  HW  HW  OW  HW  HW  OW  HW  HW  OW  HW  HW  
OW  HW  HW  OW  HW  HW  OW  HW  HW  OW  HW  HW  OW  HW  HW  OW  HW  HW  OW  HW  
HW  OW  HW  HW  OW  HW  HW  OW  HW  HW  OW  HW  HW  OW  HW  HW  OW  HW  HW  OW  
HW  HW  OW  HW  HW  OW  HW  HW  OW  HW  HW  OW  HW  HW  OW  HW  HW  OW  HW  HW  
OW  HW  HW  OW  HW  HW  OW  HW  HW  OW  HW  HW  OW  HW  HW  OW  HW  HW  OW  HW  
HW  OW  HW  HW  OW  HW  HW  OW  HW  HW  OW  HW  HW  OW  HW  HW  OW  HW  HW  OW  
HW  HW  OW  HW  HW  OW  HW  HW  OW  HW  HW  OW  HW  HW  OW  HW  HW  OW  HW  HW  
OW  HW  HW  OW  HW  HW  OW  HW  HW  OW  HW  HW  OW  HW  HW  OW  HW  HW  OW  HW  
HW  OW  HW  HW  OW  HW  HW  OW  HW  HW  OW  HW  HW  OW  HW  HW  OW  HW  HW  OW  
HW  HW  OW  HW  HW  OW  HW  HW  OW  HW  HW  OW  HW  HW  OW  HW  HW  OW  HW  HW  
OW  HW  HW  OW  HW  HW  OW  HW  HW  OW  HW  HW  OW  HW  HW  OW  HW  HW  OW  HW  
HW  OW  HW  HW  OW  HW  HW  OW  HW  HW  OW  HW  HW  OW  HW  HW  OW  HW  HW  OW  
HW  HW  OW  HW  HW  OW  HW  HW  OW  HW  HW  OW  HW  HW  OW  HW  HW  OW  HW  HW  
OW  HW  HW  OW  HW  HW  OW  HW  HW  OW  HW  HW  OW  HW  HW  OW  HW  HW  OW  HW  
HW  OW  HW  HW  OW  HW  HW  OW  HW  HW  OW  HW  HW  OW  HW  HW  OW  HW  HW  OW  
HW  HW  OW  HW  HW  OW  HW  HW  OW  HW  HW  OW  HW  HW  OW  HW  HW  OW  HW  HW  
OW  HW  HW  OW  HW  HW  OW  HW  HW  OW  HW  HW  OW  HW  HW  OW  HW  HW  OW  HW  
HW  OW  HW  HW  OW  HW  HW  OW  HW  HW  OW  HW  HW  OW  HW  HW  OW  HW  HW  OW  
HW  HW  OW  HW  HW  OW  HW  HW  OW  HW  HW  OW  HW  HW  OW  HW  HW  OW  HW  HW  
OW  HW  HW  OW  HW  HW  OW  HW  HW  OW  HW  HW  OW  HW  HW  OW  HW  HW  OW  HW  
HW  OW  HW  HW  OW  HW  HW  OW  HW  HW  OW  HW  HW  OW  HW  HW  OW  HW  HW  OW  
HW  HW  OW  HW  HW  OW  HW  HW  OW  HW  HW  OW  HW  HW  OW  HW  HW  OW  HW  HW  
OW  HW  HW  OW  HW  HW  OW  HW  HW  OW  HW  HW  OW  HW  HW  OW  HW  HW  OW  HW  
HW  OW  HW  HW  OW  HW  HW  OW  HW  HW  OW  HW  HW  OW  HW  HW  OW  HW  HW  OW  
HW  HW  OW  HW  HW  OW  HW  HW  OW  HW  HW  OW  HW  HW  OW  HW  HW  OW  HW  HW  
OW  HW  HW  OW  HW  HW  OW  HW  HW  OW  HW  HW  OW  HW  HW  OW  HW  HW  OW  HW  
HW  OW  HW  HW  OW  HW  HW  OW  HW  HW  OW  HW  HW  OW  HW  HW  OW  HW  HW  OW  
HW  HW  OW  HW  HW  OW  HW  HW  OW  HW  HW  OW  HW  HW  OW  HW  HW  OW  HW  HW  
OW  HW  HW  OW  HW  HW  OW  HW  HW  OW  HW  HW  OW  HW  HW  OW  HW  HW  OW  HW  
HW  OW  HW  HW  OW  HW  HW  OW  HW  HW  OW  HW  HW  OW  HW  HW  OW  HW  HW  OW  
HW  HW  OW  HW  HW  OW  HW  HW  OW  HW  HW  OW  HW  HW  OW  HW  HW  OW  HW  HW  
OW  HW  HW  OW  HW  HW  OW  HW  HW  OW  HW  HW  OW  HW  HW  OW  HW  HW  OW  HW  
HW  OW  HW  HW  OW  HW  HW  OW  HW  HW  OW  HW  HW  OW  HW  HW  OW  HW  HW  OW  
HW  HW  OW  HW  HW  OW  HW  HW  OW  HW  HW  OW  HW  HW  OW  HW  HW  OW  HW  HW  
OW  HW  HW  OW  HW  HW  OW  HW  HW  OW  HW  HW  OW  HW  HW  OW  HW  HW  OW  HW  
HW  OW  HW  HW  OW  HW  HW  OW  HW  HW  OW  HW  HW  OW  HW  HW  OW  HW  HW  OW  
HW  HW  OW  HW  HW  OW  HW  HW  OW  HW  HW  OW  HW  HW  OW  HW  HW  OW  HW  HW  
OW  HW  HW  OW  HW  HW  OW  HW  HW  OW  HW  HW  OW  HW  HW  OW  HW  HW  OW  HW  
HW  OW  HW  HW  OW  HW  HW  OW  HW  HW  OW  HW  HW  OW  HW  HW  OW  HW  HW  OW  
HW  HW  OW  HW  HW  OW  HW  HW  OW  HW  HW  OW  HW  HW  OW  HW  HW  OW  HW  HW  
OW  HW  HW  OW  HW  HW  OW  HW  HW  OW  HW  HW  OW  HW  HW  OW  HW  HW  OW  HW  
HW  OW  HW  HW  OW  HW  HW  OW  HW  HW  OW  HW  HW  OW  HW  HW  OW  HW  HW  OW  
HW  HW  OW  HW  HW  OW  HW  HW  OW  HW  HW  OW  HW  HW  OW  HW  HW  OW  HW  HW  
OW  HW  HW  OW  HW  HW  OW  HW  HW  OW  HW  HW  OW  HW  HW  OW  HW  HW  OW  HW  
HW  OW  HW  HW  OW  HW  HW  OW  HW  HW  OW  HW  HW  OW  HW  HW  OW  HW  HW  OW  
HW  HW  OW  HW  HW  OW  HW  HW  OW  HW  HW  OW  HW  HW  OW  HW  HW  OW  HW  HW  
OW  HW  HW  OW  HW  HW  OW  HW  HW  OW  HW  HW  OW  HW  HW  OW  HW  HW  OW  HW  
HW  OW  HW  HW  OW  HW  HW  OW  HW  HW  OW  HW  HW  OW  HW  HW  OW  HW  HW  OW  
HW  HW  OW  HW  HW  OW  HW  HW  OW  HW  HW  OW  HW  HW  OW  HW  HW  OW  HW  HW  
OW  HW  HW  OW  HW  HW  OW  HW  HW  OW  HW  HW  OW  HW  HW  OW  HW  HW  OW  HW  
HW  OW  HW  HW  OW  HW  HW  OW  HW  HW  OW  HW  HW  OW  HW  HW  OW  HW  HW  OW  
HW  HW  OW  HW  HW  OW  HW  HW  OW  HW  HW  OW  HW  HW  OW  HW  HW  OW  HW  HW  
OW  HW  HW  OW  HW  HW  OW  HW  HW  OW  HW  HW  OW  HW  HW  OW  HW  HW  OW  HW  
HW  OW  HW  HW  OW  HW  HW  OW  HW  HW  OW  HW  HW  OW  HW  HW  OW  HW  HW  OW  
HW  HW  OW  HW  HW  OW  HW  HW  OW  HW  HW  OW  HW  HW  OW  HW  HW  OW  HW  HW  
OW  HW  HW  OW  HW  HW  OW  HW  HW  OW  HW  HW  OW  HW  HW  OW  HW  HW  OW  HW  
HW  OW  HW  HW  OW  HW  HW  OW  HW  HW  OW  HW  HW  OW  HW  HW  OW  HW  HW  OW  
HW  HW  OW  HW  HW  OW  HW  HW  OW  HW  HW  OW  HW  HW  OW  HW  HW  OW  HW  HW  
OW  HW  HW  OW  HW  HW  OW  HW  HW  OW  HW  HW  OW  HW  HW  OW  HW  HW  OW  HW  
HW  OW  HW  HW  OW  HW  HW  OW  HW  HW  OW  HW  HW  OW  HW  HW  OW  HW  HW  OW  
HW  HW  OW  HW  HW  OW  HW  HW  OW  HW  HW  OW  HW  HW  OW  HW  HW  OW  HW  HW  
OW  HW  HW  OW  HW  HW  OW  HW  HW  OW  HW  HW  OW  HW  HW  OW  HW  HW  OW  HW  
HW  OW  HW  HW  OW  HW  HW  OW  HW  HW  OW  HW  HW  OW  HW  HW  OW  HW  HW  OW  
HW  HW  OW  HW  HW  OW  HW  HW  OW  HW  HW  OW  HW  HW  OW  HW  HW  OW  HW  HW  
OW  HW  HW  OW  HW  HW  OW  HW  HW  OW  HW  HW  OW  HW  HW  OW  HW  HW  OW  HW  
HW  OW  HW  HW  OW  HW  HW  OW  HW  HW  OW  HW  HW  OW  HW  HW  OW  HW  HW  OW  
HW  HW  OW  HW  HW  OW  HW  HW  OW  HW  HW  OW  HW  HW  OW  HW  HW  OW  HW  HW  
OW  HW  HW  OW  HW  HW  OW  HW  HW  OW  HW  HW  OW  HW  HW  OW  HW  HW  OW  HW  
HW  OW  HW  HW  OW  HW  HW  OW  HW  HW  OW  HW  HW  OW  HW  HW  OW  HW  HW  OW  
HW  HW  OW  HW  HW  OW  HW  HW  OW  HW  HW  OW  HW  HW  OW  HW  HW  OW  HW  HW  
OW  HW  HW  OW  HW  HW  OW  HW  HW  OW  HW  HW  OW  HW  HW  OW  HW  HW  OW  HW  
HW  OW  HW  HW  OW  HW  HW  OW  HW  HW  OW  HW  HW  OW  HW  HW  OW  HW  HW  OW  
HW  HW  OW  HW  HW  OW  HW  HW  OW  HW  HW  OW  HW  HW  OW  HW  HW  OW  HW  HW  
OW  HW  HW  OW  HW  HW  OW  HW  HW  OW  HW  HW  OW  HW  HW  OW  HW  HW  OW  HW  
HW  OW  HW  HW  OW  HW  HW  OW  HW  HW  OW  HW  HW  OW  HW  HW  OW  HW  HW  OW  
HW  HW  OW  HW  HW  OW  HW  HW  OW  HW  HW  OW  HW  HW  OW  HW  HW  OW  HW  HW  
OW  HW  HW  OW  HW  HW  OW  HW  HW  OW  HW  HW  OW  HW  HW  OW  HW  HW  OW  HW  
HW  OW  HW  HW  OW  HW  HW  OW  HW  HW  OW  HW  HW  OW  HW  HW  OW  HW  HW  OW  
HW  HW  OW  HW  HW  OW  HW  HW  OW  HW  HW  OW  HW  HW  OW  HW  HW  OW  HW  HW  
OW  HW  HW  OW  HW  HW  OW  HW  HW  OW  HW  HW  OW  HW  HW  OW  HW  HW  OW  HW  
HW  OW  HW  HW  OW  HW  HW  OW  HW  HW  OW  HW  HW  OW  HW  HW  OW  HW  HW  OW  
HW  HW  OW  HW  HW  OW  HW  HW  OW  HW  HW  OW  HW  HW  OW  HW  HW  OW  HW  HW  
OW  HW  HW  OW  HW  HW  OW  HW  HW  OW  HW  HW  OW  HW  HW  OW  HW  HW  OW  HW  
HW  OW  HW  HW  OW  HW  HW  OW  HW  HW  OW  HW  HW  OW  HW  HW  OW  HW  HW  OW  
HW  HW  OW  HW  HW  OW  HW  HW  OW  HW  HW  OW  HW  HW  OW  HW  HW  OW  HW  HW  
OW  HW  HW  OW  HW  HW  OW  HW  HW  OW  HW  HW  OW  HW  HW  OW  HW  HW  OW  HW  
HW  OW  HW  HW  OW  HW  HW  OW  HW  HW  OW  HW  HW  OW  HW  HW  OW  HW  HW  OW  
HW  HW  OW  HW  HW  OW  HW  HW  OW  HW  HW  OW  HW  HW  OW  HW  HW  OW  HW  HW  
OW  HW  HW  OW  HW  HW  OW  HW  HW  OW  HW  HW  OW  HW  HW  OW  HW  HW  OW  HW  
HW  OW  HW  HW  OW  HW  HW  OW  HW  HW  OW  HW  HW  OW  HW  HW  OW  HW  HW  OW  
HW  HW  OW  HW  HW  OW  HW  HW  OW  HW  HW  OW  HW  HW  OW  HW  HW  OW  HW  HW  
OW  HW  HW  OW  HW  HW  OW  HW  HW  OW  HW  HW  OW  HW  HW  OW  HW  HW  OW  HW  
HW  OW  HW  HW  OW  HW  HW  OW  HW  HW  OW  HW  HW  OW  HW  HW  OW  HW  HW  OW  
HW  HW  OW  HW  HW  OW  HW  HW  OW  HW  HW  OW  HW  HW  OW  HW  HW  OW  HW  HW  
OW  HW  HW  OW  HW  HW  OW  HW  HW  OW  HW  HW  OW  HW  HW  OW  HW  HW  OW  HW  
HW  OW  HW  HW  OW  HW  HW  OW  HW  HW  OW  HW  HW  OW  HW  HW  OW  HW  HW  OW  
HW  HW  OW  HW  HW  OW  HW  HW  OW  HW  HW  OW  HW  HW  OW  HW  HW  OW  HW  HW  
OW  HW  HW  OW  HW  HW  OW  HW  HW  OW  HW  HW  OW  HW  HW  OW  HW  HW  OW  HW  
HW  OW  HW  HW  OW  HW  HW  OW  HW  HW  OW  HW  HW  OW  HW  HW  OW  HW  HW  OW  
HW  HW  OW  HW  HW  OW  HW  HW  OW  HW  HW  OW  HW  HW  OW  HW  HW  OW  HW  HW  
OW  HW  HW  OW  HW  HW  OW  HW  HW  OW  HW  HW  OW  HW  HW  OW  HW  HW  OW  HW  
HW  OW  HW  HW  OW  HW  HW  OW  HW  HW  OW  HW  HW  OW  HW  HW  OW  HW  HW  OW  
HW  HW  OW  HW  HW  OW  HW  HW  OW  HW  HW  OW  HW  HW  OW  HW  HW  OW  HW  HW  
OW  HW  HW  OW  HW  HW  OW  HW  HW  OW  HW  HW  OW  HW  HW  OW  HW  HW  OW  HW  
HW  OW  HW  HW  OW  HW  HW  OW  HW  HW  OW  HW  HW  OW  HW  HW  OW  HW  HW  OW  
HW  HW  OW  HW  HW  OW  HW  HW  OW  HW  HW  OW  HW  HW  OW  HW  HW  OW  HW  HW  
OW  HW  HW  OW  HW  HW  OW  HW  HW  OW  HW  HW  OW  HW  HW  OW  HW  HW  OW  HW  
HW  OW  HW  HW  OW  HW  HW  OW  HW  HW  OW  HW  HW  OW  HW  HW  OW  HW  HW  OW  
HW  HW  OW  HW  HW  OW  HW  HW  OW  HW  HW  OW  HW  HW  OW  HW  HW  OW  HW  HW  
OW  HW  HW  OW  HW  HW  OW  HW  HW  OW  HW  HW  OW  HW  HW  OW  HW  HW  OW  HW  
HW  OW  HW  HW  OW  HW  HW  OW  HW  HW  OW  HW  HW  OW  HW  HW  OW  HW  HW  OW  
HW  HW  OW  HW  HW  OW  HW  HW  OW  HW  HW  OW  HW  HW  OW  HW  HW  OW  HW  HW  
OW  HW  HW  OW  HW  HW  OW  HW  HW  OW  HW  HW  OW  HW  HW  OW  HW  HW  OW  HW  
HW  OW  HW  HW  OW  HW  HW  OW  HW  HW  OW  HW  HW  OW  HW  HW  OW  HW  HW  OW  
HW  HW  OW  HW  HW  OW  HW  HW  OW  HW  HW  OW  HW  HW  OW  HW  HW  OW  HW  HW  
OW  HW  HW  OW  HW  HW  OW  HW  HW  OW  HW  HW  OW  HW  HW  OW  HW  HW  OW  HW  
HW  OW  HW  HW  OW  HW  HW  OW  HW  HW  OW  HW  HW  OW  HW  HW  OW  HW  HW  OW  
HW  HW  OW  HW  HW  OW  HW  HW  OW  HW  HW  OW  HW  HW  OW  HW  HW  OW  HW  HW  
OW  HW  HW  OW  HW  HW  OW  HW  HW  OW  HW  HW  OW  HW  HW  OW  HW  HW  OW  HW  
HW  OW  HW  HW  OW  HW  HW  OW  HW  HW  OW  HW  HW  OW  HW  HW  OW  HW  HW  OW  
HW  HW  OW  HW  HW  OW  HW  HW  OW  HW  HW  OW  HW  HW  OW  HW  HW  OW  HW  HW  
OW  HW  HW  OW  HW  HW  OW  HW  HW  OW  HW  HW  OW  HW  HW  OW  HW  HW  OW  HW  
HW  OW  HW  HW  OW  HW  HW  OW  HW  HW  OW  HW  HW  OW  HW  HW  OW  HW  HW  OW  
HW  HW  OW  HW  HW  OW  HW  HW  OW  HW  HW  OW  HW  HW  OW  HW  HW  OW  HW  HW  
OW  HW  HW  OW  HW  HW  OW  HW  HW  OW  HW  HW  OW  HW  HW  OW  HW  HW  OW  HW  
HW  OW  HW  HW  OW  HW  HW  OW  HW  HW  OW  HW  HW  OW  HW  HW  OW  HW  HW  OW  
HW  HW  OW  HW  HW  OW  HW  HW  OW  HW  HW  OW  HW  HW  OW  HW  HW  OW  HW  HW  
OW  HW  HW  OW  HW  HW  OW  HW  HW  OW  HW  HW  OW  HW  HW  OW  HW  HW  OW  HW  
HW  OW  HW  HW  OW  HW  HW  OW  HW  HW  OW  HW  HW  OW  HW  HW  OW  HW  HW  OW  
HW  HW  OW  HW  HW  OW  HW  HW  OW  HW  HW  OW  HW  HW  OW  HW  HW  OW  HW  HW  
OW  HW  HW  OW  HW  HW  OW  HW  HW  OW  HW  HW  OW  HW  HW  OW  HW  HW  OW  HW  
HW  OW  HW  HW  OW  HW  HW  OW  HW  HW  OW  HW  HW  OW  HW  HW  OW  HW  HW  OW  
HW  HW  OW  HW  HW  OW  HW  HW  OW  HW  HW  OW  HW  HW  OW  HW  HW  OW  HW  HW  
OW  HW  HW  OW  HW  HW  OW  HW  HW  OW  HW  HW  OW  HW  HW  OW  HW  HW  OW  HW  
HW  OW  HW  HW  OW  HW  HW  OW  HW  HW  OW  HW  HW  OW  HW  HW  OW  HW  HW  OW  
HW  HW  OW  HW  HW  OW  HW  HW  OW  HW  HW  OW  HW  HW  OW  HW  HW  OW  HW  HW  
OW  HW  HW  OW  HW  HW  OW  HW  HW  OW  HW  HW  OW  HW  HW  OW  HW  HW  OW  HW  
HW  OW  HW  HW  OW  HW  HW  OW  HW  HW  OW  HW  HW  OW  HW  HW  OW  HW  HW  OW  
HW  HW  OW  HW  HW  OW  HW  HW  OW  HW  HW  OW  HW  HW  OW  HW  HW  OW  HW  HW  
OW  HW  HW  OW  HW  HW  OW  HW  HW  OW  HW  HW  OW  HW  HW  OW  HW  HW  OW  HW  
HW  OW  HW  HW  OW  HW  HW  OW  HW  HW  OW  HW  HW  OW  HW  HW  OW  HW  HW  OW  
HW  HW  OW  HW  HW  OW  HW  HW  OW  HW  HW  OW  HW  HW  OW  HW  HW  OW  HW  HW  
OW  HW  HW  OW  HW  HW  OW  HW  HW  OW  HW  HW  OW  HW  HW  OW  HW  HW  OW  HW  
HW  OW  HW  HW  OW  HW  HW  OW  HW  HW  OW  HW  HW  OW  HW  HW  OW  HW  HW  OW  
HW  HW  OW  HW  HW  OW  HW  HW  OW  HW  HW  OW  HW  HW  OW  HW  HW  OW  HW  HW  
OW  HW  HW  OW  HW  HW  OW  HW  HW  OW  HW  HW  OW  HW  HW  OW  HW  HW  OW  HW  
HW  OW  HW  HW  OW  HW  HW  OW  HW  HW  OW  HW  HW  OW  HW  HW  OW  HW  HW  OW  
HW  HW  OW  HW  HW  OW  HW  HW  OW  HW  HW  OW  HW  HW  OW  HW  HW  OW  HW  HW  
OW  HW  HW  OW  HW  HW  OW  HW  HW  OW  HW  HW  OW  HW  HW  OW  HW  HW  OW  HW  
HW  OW  HW  HW  OW  HW  HW  OW  HW  HW  OW  HW  HW  OW  HW  HW  OW  HW  HW  OW  
HW  HW  OW  HW  HW  OW  HW  HW  OW  HW  HW  OW  HW  HW  OW  HW  HW  OW  HW  HW  
OW  HW  HW  OW  HW  HW  OW  HW  HW  OW  HW  HW  OW  HW  HW  OW  HW  HW  OW  HW  
HW  OW  HW  HW  OW  HW  HW  OW  HW  HW  OW  HW  HW  OW  HW  HW  OW  HW  HW  OW  
HW  HW  OW  HW  HW  OW  HW  HW  OW  HW  HW  OW  HW  HW  OW  HW  HW  OW  HW  HW  
OW  HW  HW  OW  HW  HW  OW  HW  HW  OW  HW  HW  OW  HW  HW  OW  HW  HW  OW  HW  
HW  OW  HW  HW  OW  HW  HW  OW  HW  HW  OW  HW  HW  OW  HW  HW  OW  HW  HW  OW  
HW  HW  OW  HW  HW  OW  HW  HW  OW  HW  HW  OW  HW  HW  OW  HW  HW  OW  HW  HW  
OW  HW  HW  OW  HW  HW  OW  HW  HW  OW  HW  HW  OW  HW  HW  OW  HW  HW  OW  HW  
HW  OW  HW  HW  OW  HW  HW  OW  HW  HW  OW  HW  HW  OW  HW  HW  OW  HW  HW  OW  
HW  HW  OW  HW  HW  OW  HW  HW  OW  HW  HW  OW  HW  HW  OW  HW  HW  OW  HW  HW  
OW  HW  HW  OW  HW  HW  OW  HW  HW  OW  HW  HW  OW  HW  HW  OW  HW  HW  OW  HW  
HW  OW  HW  HW  OW  HW  HW  OW  HW  HW  OW  HW  HW  OW  HW  HW  OW  HW  HW  OW  
HW  HW  OW  HW  HW  OW  HW  HW  OW  HW  HW  OW  HW  HW  OW  HW  HW  OW  HW  HW  
OW  HW  HW  OW  HW  HW  OW  HW  HW  OW  HW  HW  OW  HW  HW  OW  HW  HW  OW  HW  
HW  OW  HW  HW  OW  HW  HW  OW  HW  HW  OW  HW  HW  OW  HW  HW  OW  HW  HW  OW  
HW  HW  OW  HW  HW  OW  HW  HW  OW  HW  HW  OW  HW  HW  OW  HW  HW  OW  HW  HW  
OW  HW  HW  OW  HW  HW  OW  HW  HW  OW  HW  HW  OW  HW  HW  OW  HW  HW  OW  HW  
HW  OW  HW  HW  OW  HW  HW  OW  HW  HW  OW  HW  HW  OW  HW  HW  OW  HW  HW  OW  
HW  HW  OW  HW  HW  OW  HW  HW  OW  HW  HW  OW  HW  HW  OW  HW  HW  OW  HW  HW  
OW  HW  HW  OW  HW  HW  OW  HW  HW  OW  HW  HW  OW  HW  HW  OW  HW  HW  OW  HW  
HW  OW  HW  HW  OW  HW  HW  OW  HW  HW  OW  HW  HW  OW  HW  HW  OW  HW  HW  OW  
HW  HW  OW  HW  HW  OW  HW  HW  OW  HW  HW  OW  HW  HW  OW  HW  HW  OW  HW  HW  
OW  HW  HW  OW  HW  HW  OW  HW  HW  OW  HW  HW  OW  HW  HW  OW  HW  HW  OW  HW  
HW  OW  HW  HW  OW  HW  HW  OW  HW  HW  OW  HW  HW  OW  HW  HW  OW  HW  HW  OW  
HW  HW  OW  HW  HW  OW  HW  HW  OW  HW  HW  OW  HW  HW  OW  HW  HW  OW  HW  HW  
OW  HW  HW  OW  HW  HW  OW  HW  HW  OW  HW  HW  OW  HW  HW  OW  HW  HW  OW  HW  
HW  OW  HW  HW  OW  HW  HW  OW  HW  HW  OW  HW  HW  OW  HW  HW  OW  HW  HW  OW  
HW  HW  OW  HW  HW  OW  HW  HW  OW  HW  HW  OW  HW  HW  OW  HW  HW  OW  HW  HW  
OW  HW  HW  OW  HW  HW  OW  HW  HW  OW  HW  HW  OW  HW  HW  OW  HW  HW  OW  HW  
HW  OW  HW  HW  OW  HW  HW  OW  HW  HW  OW  HW  HW  OW  HW  HW  OW  HW  HW  OW  
HW  HW  OW  HW  HW  OW  HW  HW  OW  HW  HW  OW  HW  HW  OW  HW  HW  OW  HW  HW  
OW  HW  HW  OW  HW  HW  OW  HW  HW  OW  HW  HW  OW  HW  HW  OW  HW  HW  OW  HW  
HW  OW  HW  HW  OW  HW  HW  OW  HW  HW  OW  HW  HW  OW  HW  HW  OW  HW  HW  OW  
HW  HW  OW  HW  HW  OW  HW  HW  OW  HW  HW  OW  HW  HW  OW  HW  HW  OW  HW  HW  
OW  HW  HW  OW  HW  HW  OW  HW  HW  OW  HW  HW  OW  HW  HW  OW  HW  HW  OW  HW  
HW  OW  HW  HW  OW  HW  HW  OW  HW  HW  OW  HW  HW  OW  HW  HW  OW  HW  HW  OW  
HW  HW  OW  HW  HW  OW  HW  HW  OW  HW  HW  OW  HW  HW  OW  HW  HW  OW  HW  HW  
OW  HW  HW  OW  HW  HW  OW  HW  HW  OW  HW  HW  OW  HW  HW  OW  HW  HW  OW  HW  
HW  OW  HW  HW  OW  HW  HW  OW  HW  HW  OW  HW  HW  OW  HW  HW  OW  HW  HW  OW  
HW  HW  OW  HW  HW  OW  HW  HW  OW  HW  HW  OW  HW  HW  OW  HW  HW  OW  HW  HW  
OW  HW  HW  OW  HW  HW  OW  HW  HW  OW  HW  HW  OW  HW  HW  OW  HW  HW  OW  HW  
HW  OW  HW  HW  OW  HW  HW  OW  HW  HW  OW  HW  HW  OW  HW  HW  OW  HW  HW  OW  
HW  HW  OW  HW  HW  OW  HW  HW  OW  HW  HW  OW  HW  HW  OW  HW  HW  OW  HW  HW  
OW  HW  HW  OW  HW  HW  OW  HW  HW  OW  HW  HW  OW  HW  HW  OW  HW  HW  OW  HW  
HW  OW  HW  HW  OW  HW  HW  OW  HW  HW  OW  HW  HW  OW  HW  HW  OW  HW  HW  OW  
HW  HW  OW  HW  HW  OW  HW  HW  OW  HW  HW  OW  HW  HW  OW  HW  HW  OW  HW  HW  
OW  HW  HW  OW  HW  HW  OW  HW  HW  OW  HW  HW  OW  HW  HW  OW  HW  HW  OW  HW  
HW  OW  HW  HW  OW  HW  HW  OW  HW  HW  OW  HW  HW  OW  HW  HW  OW  HW  HW  OW  
HW  HW  OW  HW  HW  OW  HW  HW  OW  HW  HW  OW  HW  HW  OW  HW  HW  OW  HW  HW  
OW  HW  HW  OW  HW  HW  OW  HW  HW  OW  HW  HW  OW  HW  HW  OW  HW  HW  OW  HW  
HW  OW  HW  HW  OW  HW  HW  OW  HW  HW  OW  HW  HW  OW  HW  HW  OW  HW  HW  OW  
HW  HW  OW  HW  HW  OW  HW  HW  OW  HW  HW  OW  HW  HW  OW  HW  HW  OW  HW  HW  
OW  HW  HW  OW  HW  HW  OW  HW  HW  OW  HW  HW  OW  HW  HW  OW  HW  HW  OW  HW  
HW  OW  HW  HW  OW  HW  HW  OW  HW  HW  OW  HW  HW  OW  HW  HW  OW  HW  HW  OW  
HW  HW  OW  HW  HW  OW  HW  HW  OW  HW  HW  OW  HW  HW  OW  HW  HW  OW  HW  HW  
OW  HW  HW  OW  HW  HW  OW  HW  HW  OW  HW  HW  OW  HW  HW  OW  HW  HW  OW  HW  
HW  OW  HW  HW  OW  HW  HW  OW  HW  HW  OW  HW  HW  OW  HW  HW  OW  HW  HW  OW  
HW  HW  OW  HW  HW  OW  HW  HW  OW  HW  HW  OW  HW  HW  OW  HW  HW  OW  HW  HW  
OW  HW  HW  OW  HW  HW  OW  HW  HW  OW  HW  HW  OW  HW  HW  OW  HW  HW  OW  HW  
HW  OW  HW  HW  OW  HW  HW  OW  HW  HW  OW  HW  HW  OW  HW  HW  OW  HW  HW  OW  
HW  HW  OW  HW  HW  OW  HW  HW  OW  HW  HW  OW  HW  HW  OW  HW  HW  OW  HW  HW  
OW  HW  HW  OW  HW  HW  OW  HW  HW  OW  HW  HW  OW  HW  HW  OW  HW  HW  OW  HW  
HW  OW  HW  HW  OW  HW  HW  OW  HW  HW  OW  HW  HW  OW  HW  HW  OW  HW  HW  OW  
HW  HW  OW  HW  HW  OW  HW  HW  OW  HW  HW  OW  HW  HW  OW  HW  HW  OW  HW  HW  
OW  HW  HW  OW  HW  HW  OW  HW  HW  OW  HW  HW  OW  HW  HW  OW  HW  HW  OW  HW  
HW  OW  HW  HW  OW  HW  HW  OW  HW  HW  OW  HW  HW  OW  HW  HW  OW  HW  HW  OW  
HW  HW  OW  HW  HW  OW  HW  HW  OW  HW  HW  OW  HW  HW  OW  HW  HW  OW  HW  HW  
OW  HW  HW  OW  HW  HW  OW  HW  HW  OW  HW  HW  OW  HW  HW  OW  HW  HW  OW  HW  
HW  OW  HW  HW  OW  HW  HW  OW  HW  HW  OW  HW  HW  OW  HW  HW  OW  HW  HW  OW  
HW  HW  OW  HW  HW  OW  HW  HW  OW  HW  HW  OW  HW  HW  OW  HW  HW  OW  HW  HW  
OW  HW  HW  OW  HW  HW  OW  HW  HW  OW  HW  HW  OW  HW  HW  OW  HW  HW  OW  HW  
HW  OW  HW  HW  OW  HW  HW  OW  HW  HW  OW  HW  HW  OW  HW  HW  OW  HW  HW  OW  
HW  HW  OW  HW  HW  OW  HW  HW  OW  HW  HW  OW  HW  HW  OW  HW  HW  OW  HW  HW  
OW  HW  HW  OW  HW  HW  OW  HW  HW  OW  HW  HW  OW  HW  HW  OW  HW  HW  OW  HW  
HW  OW  HW  HW  OW  HW  HW  OW  HW  HW  OW  HW  HW  OW  HW  HW  OW  HW  HW  OW  
HW  HW  OW  HW  HW  OW  HW  HW  OW  HW  HW  OW  HW  HW  OW  HW  HW  OW  HW  HW  
OW  HW  HW  OW  HW  HW  OW  HW  HW  OW  HW  HW  OW  HW  HW  OW  HW  HW  OW  HW  
HW  OW  HW  HW  OW  HW  HW  OW  HW  HW  OW  HW  HW  OW  HW  HW  OW  HW  HW  OW  
HW  HW  OW  HW  HW  OW  HW  HW  OW  HW  HW  OW  HW  HW  OW  HW  HW  OW  HW  HW  
OW  HW  HW  OW  HW  HW  OW  HW  HW  OW  HW  HW  OW  HW  HW  OW  HW  HW  OW  HW  
HW  OW  HW  HW  OW  HW  HW  OW  HW  HW  OW  HW  HW  OW  HW  HW  OW  HW  HW  OW  
HW  HW  OW  HW  HW  OW  HW  HW  OW  HW  HW  OW  HW  HW  OW  HW  HW  OW  HW  HW  
OW  HW  HW  OW  HW  HW  OW  HW  HW  OW  HW  HW  OW  HW  HW  OW  HW  HW  OW  HW  
HW  OW  HW  HW  OW  HW  HW  OW  HW  HW  OW  HW  HW  OW  HW  HW  OW  HW  HW  OW  
HW  HW  OW  HW  HW  OW  HW  HW  OW  HW  HW  OW  HW  HW  OW  HW  HW  OW  HW  HW  
OW  HW  HW  OW  HW  HW  OW  HW  HW  OW  HW  HW  OW  HW  HW  OW  HW  HW  OW  HW  
HW  OW  HW  HW  OW  HW  HW  OW  HW  HW  OW  HW  HW  OW  HW  HW  OW  HW  HW  OW  
HW  HW  OW  HW  HW  OW  HW  HW  OW  HW  HW  OW  HW  HW  OW  HW  HW  OW  HW  HW  
OW  HW  HW  OW  HW  HW  OW  HW  HW  OW  HW  HW  OW  HW  HW  OW  HW  HW  OW  HW  
HW  OW  HW  HW  OW  HW  HW  OW  HW  HW  OW  HW  HW  OW  HW  HW  OW  HW  HW  OW  
HW  HW  OW  HW  HW  OW  HW  HW  OW  HW  HW  OW  HW  HW  OW  HW  HW  OW  HW  HW  
OW  HW  HW  OW  HW  HW  OW  HW  HW  OW  HW  HW  OW  HW  HW  OW  HW  HW  OW  HW  
HW  OW  HW  HW  OW  HW  HW  OW  HW  HW  OW  HW  HW  OW  HW  HW  OW  HW  HW  OW  
HW  HW  OW  HW  HW  OW  HW  HW  OW  HW  HW  OW  HW  HW  OW  HW  HW  OW  HW  HW  
OW  HW  HW  OW  HW  HW  OW  HW  HW  OW  HW  HW  OW  HW  HW  OW  HW  HW  OW  HW  
HW  OW  HW  HW  OW  HW  HW  OW  HW  HW  OW  HW  HW  OW  HW  HW  OW  HW  HW  OW  
HW  HW  OW  HW  HW  OW  HW  HW  OW  HW  HW  OW  HW  HW  OW  HW  HW  OW  HW  HW  
OW  HW  HW  OW  HW  HW  OW  HW  HW  OW  HW  HW  OW  HW  HW  OW  HW  HW  OW  HW  
HW  OW  HW  HW  OW  HW  HW  OW  HW  HW  OW  HW  HW  OW  HW  HW  OW  HW  HW  OW  
HW  HW  OW  HW  HW  OW  HW  HW  OW  HW  HW  OW  HW  HW  OW  HW  HW  OW  HW  HW  
OW  HW  HW  OW  HW  HW  OW  HW  HW  OW  HW  HW  OW  HW  HW  OW  HW  HW  OW  HW  
HW  OW  HW  HW  OW  HW  HW  OW  HW  HW  OW  HW  HW  OW  HW  HW  OW  HW  HW  OW  
HW  HW  OW  HW  HW  OW  HW  HW  OW  HW  HW  OW  HW  HW  OW  HW  HW  OW  HW  HW  
OW  HW  HW  OW  HW  HW  OW  HW  HW  OW  HW  HW  OW  HW  HW  OW  HW  HW  OW  HW  
HW  OW  HW  HW  OW  HW  HW  OW  HW  HW  OW  HW  HW  OW  HW  HW  OW  HW  HW  OW  
HW  HW  OW  HW  HW  OW  HW  HW  OW  HW  HW  OW  HW  HW  OW  HW  HW  OW  HW  HW  
OW  HW  HW  OW  HW  HW  OW  HW  HW  OW  HW  HW  OW  HW  HW  OW  HW  HW  OW  HW  
HW  OW  HW  HW  OW  HW  HW  OW  HW  HW  OW  HW  HW  OW  HW  HW  OW  HW  HW  OW  
HW  HW  OW  HW  HW  OW  HW  HW  OW  HW  HW  OW  HW  HW  OW  HW  HW  OW  HW  HW  
OW  HW  HW  OW  HW  HW  OW  HW  HW  OW  HW  HW  OW  HW  HW  OW  HW  HW  OW  HW  
HW  OW  HW  HW  OW  HW  HW  OW  HW  HW  OW  HW  HW  OW  HW  HW  OW  HW  HW  OW  
HW  HW  OW  HW  HW  OW  HW  HW  OW  HW  HW  OW  HW  HW  OW  HW  HW  OW  HW  HW  
OW  HW  HW  OW  HW  HW  OW  HW  HW  OW  HW  HW  OW  HW  HW  OW  HW  HW  OW  HW  
HW  OW  HW  HW  OW  HW  HW  OW  HW  HW  OW  HW  HW  OW  HW  HW  OW  HW  HW  OW  
HW  HW  OW  HW  HW  OW  HW  HW  OW  HW  HW  OW  HW  HW  OW  HW  HW  OW  HW  HW  
OW  HW  HW  OW  HW  HW  OW  HW  HW  OW  HW  HW  OW  HW  HW  OW  HW  HW  OW  HW  
HW  OW  HW  HW  OW  HW  HW  OW  HW  HW  OW  HW  HW  OW  HW  HW  OW  HW  HW  OW  
HW  HW  OW  HW  HW  OW  HW  HW  OW  HW  HW  OW  HW  HW  OW  HW  HW  OW  HW  HW  
OW  HW  HW  OW  HW  HW  OW  HW  HW  OW  HW  HW  OW  HW  HW  OW  HW  HW  OW  HW  
HW  OW  HW  HW  OW  HW  HW  OW  HW  HW  OW  HW  HW  OW  HW  HW  OW  HW  HW  OW  
HW  HW  OW  HW  HW  OW  HW  HW  OW  HW  HW  OW  HW  HW  OW  HW  HW  OW  HW  HW  
OW  HW  HW  OW  HW  HW  OW  HW  HW  OW  HW  HW  OW  HW  HW  OW  HW  HW  OW  HW  
HW  OW  HW  HW  OW  HW  HW  OW  HW  HW  OW  HW  HW  OW  HW  HW  OW  HW  HW  OW  
HW  HW  OW  HW  HW  OW  HW  HW  OW  HW  HW  OW  HW  HW  OW  HW  HW  OW  HW  HW  
OW  HW  HW  OW  HW  HW  OW  HW  HW  OW  HW  HW  OW  HW  HW  OW  HW  HW  OW  HW  
HW  OW  HW  HW  OW  HW  HW  OW  HW  HW  OW  HW  HW  OW  HW  HW  OW  HW  HW  OW  
HW  HW  OW  HW  HW  OW  HW  HW  OW  HW  HW  OW  HW  HW  OW  HW  HW  OW  HW  HW  
OW  HW  HW  OW  HW  HW  OW  HW  HW  OW  HW  HW  OW  HW  HW  OW  HW  HW  OW  HW  
HW  OW  HW  HW  OW  HW  HW  OW  HW  HW  OW  HW  HW  OW  HW  HW  OW  HW  HW  OW  
HW  HW  OW  HW  HW  OW  HW  HW  OW  HW  HW  OW  HW  HW  OW  HW  HW  OW  HW  HW  
OW  HW  HW  OW  HW  HW  OW  HW  HW  OW  HW  HW  OW  HW  HW  OW  HW  HW  OW  HW  
HW  OW  HW  HW  OW  HW  HW  OW  HW  HW  OW  HW  HW  OW  HW  HW  OW  HW  HW  OW  
HW  HW  OW  HW  HW  OW  HW  HW  OW  HW  HW  OW  HW  HW  OW  HW  HW  OW  HW  HW  
OW  HW  HW  OW  HW  HW  OW  HW  HW  OW  HW  HW  OW  HW  HW  OW  HW  HW  OW  HW  
HW  OW  HW  HW  OW  HW  HW  OW  HW  HW  OW  HW  HW  OW  HW  HW  OW  HW  HW  OW  
HW  HW  OW  HW  HW  OW  HW  HW  OW  HW  HW  OW  HW  HW  OW  HW  HW  OW  HW  HW  
OW  HW  HW  OW  HW  HW  OW  HW  HW  OW  HW  HW  OW  HW  HW  OW  HW  HW  OW  HW  
HW  OW  HW  HW  OW  HW  HW  OW  HW  HW  OW  HW  HW  OW  HW  HW  OW  HW  HW  OW  
HW  HW  OW  HW  HW  OW  HW  HW  OW  HW  HW  OW  HW  HW  OW  HW  HW  OW  HW  HW  
OW  HW  HW  OW  HW  HW  OW  HW  HW  OW  HW  HW  OW  HW  HW  OW  HW  HW  OW  HW  
HW  OW  HW  HW  OW  HW  HW  OW  HW  HW  OW  HW  HW  OW  HW  HW  OW  HW  HW  OW  
HW  HW  OW  HW  HW  OW  HW  HW  OW  HW  HW  OW  HW  HW  OW  HW  HW  OW  HW  HW  
OW  HW  HW  OW  HW  HW  OW  HW  HW  OW  HW  HW  OW  HW  HW  OW  HW  HW  OW  HW  
HW  OW  HW  HW  OW  HW  HW  OW  HW  HW  OW  HW  HW  OW  HW  HW  OW  HW  HW  OW  
HW  HW  OW  HW  HW  OW  HW  HW  OW  HW  HW  OW  HW  HW  OW  HW  HW  OW  HW  HW  
OW  HW  HW  OW  HW  HW  OW  HW  HW  OW  HW  HW  OW  HW  HW  OW  HW  HW  OW  HW  
HW  OW  HW  HW  OW  HW  HW  OW  HW  HW  OW  HW  HW  OW  HW  HW  OW  HW  HW  OW  
HW  HW  OW  HW  HW  OW  HW  HW  OW  HW  HW  OW  HW  HW  OW  HW  HW  OW  HW  HW  
OW  HW  HW  OW  HW  HW  OW  HW  HW  OW  HW  HW  OW  HW  HW  OW  HW  HW  OW  HW  
HW  OW  HW  HW  OW  HW  HW  OW  HW  HW  OW  HW  HW  OW  HW  HW  OW  HW  HW  OW  
HW  HW  OW  HW  HW  OW  HW  HW  OW  HW  HW  OW  HW  HW  OW  HW  HW  OW  HW  HW  
OW  HW  HW  OW  HW  HW  OW  HW  HW  OW  HW  HW  OW  HW  HW  OW  HW  HW  OW  HW  
HW  OW  HW  HW  OW  HW  HW  OW  HW  HW  OW  HW  HW  OW  HW  HW  OW  HW  HW  OW  
HW  HW  OW  HW  HW  OW  HW  HW  OW  HW  HW  OW  HW  HW  OW  HW  HW  OW  HW  HW  
OW  HW  HW  OW  HW  HW  OW  HW  HW  OW  HW  HW  OW  HW  HW  OW  HW  HW  OW  HW  
HW  OW  HW  HW  OW  HW  HW  OW  HW  HW  OW  HW  HW  OW  HW  HW  OW  HW  HW  OW  
HW  HW  OW  HW  HW  OW  HW  HW  OW  HW  HW  OW  HW  HW  OW  HW  HW  OW  HW  HW  
OW  HW  HW  OW  HW  HW  OW  HW  HW  OW  HW  HW  OW  HW  HW  OW  HW  HW  OW  HW  
HW  OW  HW  HW  OW  HW  HW  OW  HW  HW  OW  HW  HW  OW  HW  HW  OW  HW  HW  OW  
HW  HW  OW  HW  HW  OW  HW  HW  OW  HW  HW  OW  HW  HW  OW  HW  HW  OW  HW  HW  
OW  HW  HW  OW  HW  HW  OW  HW  HW  OW  HW  HW  OW  HW  HW  OW  HW  HW  OW  HW  
HW  OW  HW  HW  OW  HW  HW  OW  HW  HW  OW  HW  HW  OW  HW  HW  OW  HW  HW  OW  
HW  HW  OW  HW  HW  OW  HW  HW  OW  HW  HW  OW  HW  HW  OW  HW  HW  OW  HW  HW  
OW  HW  HW  OW  HW  HW  OW  HW  HW  OW  HW  HW  OW  HW  HW  OW  HW  HW  OW  HW  
HW  OW  HW  HW  OW  HW  HW  OW  HW  HW  OW  HW  HW  OW  HW  HW  OW  HW  HW  OW  
HW  HW  OW  HW  HW  OW  HW  HW  OW  HW  HW  OW  HW  HW  OW  HW  HW  OW  HW  HW  
OW  HW  HW  OW  HW  HW  OW  HW  HW  OW  HW  HW  OW  HW  HW  OW  HW  HW  OW  HW  
HW  OW  HW  HW  OW  HW  HW  OW  HW  HW  OW  HW  HW  OW  HW  HW  OW  HW  HW  OW  
HW  HW  OW  HW  HW  OW  HW  HW  OW  HW  HW  OW  HW  HW  OW  HW  HW  OW  HW  HW  
OW  HW  HW  OW  HW  HW  OW  HW  HW  OW  HW  HW  OW  HW  HW  OW  HW  HW  OW  HW  
HW  OW  HW  HW  OW  HW  HW  OW  HW  HW  OW  HW  HW  OW  HW  HW  OW  HW  HW  OW  
HW  HW  OW  HW  HW  OW  HW  HW  OW  HW  HW  OW  HW  HW  OW  HW  HW  OW  HW  HW  
OW  HW  HW  OW  HW  HW  OW  HW  HW  OW  HW  HW  OW  HW  HW  OW  HW  HW  OW  HW  
HW  OW  HW  HW  OW  HW  HW  OW  HW  HW  OW  HW  HW  OW  HW  HW  OW  HW  HW  OW  
HW  HW  OW  HW  HW  OW  HW  HW  OW  HW  HW  OW  HW  HW  OW  HW  HW  OW  HW  HW  
OW  HW  HW  OW  HW  HW  OW  HW  HW  OW  HW  HW  OW  HW  HW  OW  HW  HW  OW  HW  
HW  OW  HW  HW  OW  HW  HW  OW  HW  HW  OW  HW  HW  OW  HW  HW  OW  HW  HW  OW  
HW  HW  OW  HW  HW  OW  HW  HW  OW  HW  HW  OW  HW  HW  OW  HW  HW  OW  HW  HW  
OW  HW  HW  OW  HW  HW  OW  HW  HW  OW  HW  HW  OW  HW  HW  OW  HW  HW  OW  HW  
HW  OW  HW  HW  OW  HW  HW  OW  HW  HW  OW  HW  HW  OW  HW  HW  OW  HW  HW  OW  
HW  HW  OW  HW  HW  OW  HW  HW  OW  HW  HW  OW  HW  HW  OW  HW  HW  OW  HW  HW  
OW  HW  HW  OW  HW  HW  OW  HW  HW  OW  HW  HW  OW  HW  HW  OW  HW  HW  OW  HW  
HW  OW  HW  HW  OW  HW  HW  OW  HW  HW  OW  HW  HW  OW  HW  HW  OW  HW  HW  OW  
HW  HW  OW  HW  HW  OW  HW  HW  OW  HW  HW  OW  HW  HW  OW  HW  HW  OW  HW  HW  
OW  HW  HW  OW  HW  HW  OW  HW  HW  OW  HW  HW  OW  HW  HW  OW  HW  HW  OW  HW  
HW  OW  HW  HW  OW  HW  HW  OW  HW  HW  OW  HW  HW  OW  HW  HW  OW  HW  HW  OW  
HW  HW  OW  HW  HW  OW  HW  HW  OW  HW  HW  OW  HW  HW  OW  HW  HW  OW  HW  HW  
OW  HW  HW  OW  HW  HW  OW  HW  HW  OW  HW  HW  OW  HW  HW  OW  HW  HW  OW  HW  
HW  OW  HW  HW  OW  HW  HW  OW  HW  HW  OW  HW  HW  OW  HW  HW  OW  HW  HW  OW  
HW  HW  OW  HW  HW  OW  HW  HW  OW  HW  HW  OW  HW  HW  OW  HW  HW  OW  HW  HW  
OW  HW  HW  OW  HW  HW  OW  HW  HW  OW  HW  HW  OW  HW  HW  OW  HW  HW  OW  HW  
HW  OW  HW  HW  OW  HW  HW  OW  HW  HW  OW  HW  HW  OW  HW  HW  OW  HW  HW  OW  
HW  HW  OW  HW  HW  OW  HW  HW  OW  HW  HW  OW  HW  HW  OW  HW  HW  OW  HW  HW  
OW  HW  HW  OW  HW  HW  OW  HW  HW  OW  HW  HW  OW  HW  HW  OW  HW  HW  OW  HW  
HW  OW  HW  HW  OW  HW  HW  OW  HW  HW  OW  HW  HW  OW  HW  HW  OW  HW  HW  OW  
HW  HW  OW  HW  HW  OW  HW  HW  OW  HW  HW  OW  HW  HW  OW  HW  HW  OW  HW  HW  
OW  HW  HW  OW  HW  HW  OW  HW  HW  OW  HW  HW  OW  HW  HW  OW  HW  HW  OW  HW  
HW  OW  HW  HW  OW  HW  HW  OW  HW  HW  OW  HW  HW  OW  HW  HW  OW  HW  HW  OW  
HW  HW  OW  HW  HW  OW  HW  HW  OW  HW  HW  OW  HW  HW  OW  HW  HW  OW  HW  HW  
OW  HW  HW  OW  HW  HW  OW  HW  HW  OW  HW  HW  OW  HW  HW  OW  HW  HW  OW  HW  
HW  OW  HW  HW  OW  HW  HW  OW  HW  HW  OW  HW  HW  OW  HW  HW  OW  HW  HW  OW  
HW  HW  OW  HW  HW  OW  HW  HW  OW  HW  HW  OW  HW  HW  OW  HW  HW  OW  HW  HW  
OW  HW  HW  OW  HW  HW  OW  HW  HW  OW  HW  HW  OW  HW  HW  OW  HW  HW  OW  HW  
HW  OW  HW  HW  OW  HW  HW  OW  HW  HW  OW  HW  HW  OW  HW  HW  OW  HW  HW  OW  
HW  HW  OW  HW  HW  OW  HW  HW  OW  HW  HW  OW  HW  HW  OW  HW  HW  OW  HW  HW  
OW  HW  HW  OW  HW  HW  OW  HW  HW  OW  HW  HW  OW  HW  HW  OW  HW  HW  OW  HW  
HW  OW  HW  HW  OW  HW  HW  OW  HW  HW  OW  HW  HW  OW  HW  HW  OW  HW  HW  OW  
HW  HW  OW  HW  HW  OW  HW  HW  OW  HW  HW  OW  HW  HW  OW  HW  HW  OW  HW  HW  
OW  HW  HW  OW  HW  HW  OW  HW  HW  OW  HW  HW  OW  HW  HW  OW  HW  HW  OW  HW  
HW  OW  HW  HW  OW  HW  HW  OW  HW  HW  OW  HW  HW  OW  HW  HW  OW  HW  HW  OW  
HW  HW  OW  HW  HW  OW  HW  HW  OW  HW  HW  OW  HW  HW  OW  HW  HW  OW  HW  HW  
OW  HW  HW  OW  HW  HW  OW  HW  HW  OW  HW  HW  OW  HW  HW  OW  HW  HW  OW  HW  
HW  OW  HW  HW  OW  HW  HW  OW  HW  HW  OW  HW  HW  OW  HW  HW  OW  HW  HW  OW  
HW  HW  OW  HW  HW  OW  HW  HW  OW  HW  HW  OW  HW  HW  OW  HW  HW  OW  HW  HW  
OW  HW  HW  OW  HW  HW  OW  HW  HW  OW  HW  HW  OW  HW  HW  OW  HW  HW  OW  HW  
HW  OW  HW  HW  OW  HW  HW  OW  HW  HW  OW  HW  HW  OW  HW  HW  OW  HW  HW  OW  
HW  HW  OW  HW  HW  OW  HW  HW  OW  HW  HW  OW  HW  HW  OW  HW  HW  OW  HW  HW  
OW  HW  HW  OW  HW  HW  OW  HW  HW  OW  HW  HW  OW  HW  HW  OW  HW  HW  OW  HW  
HW  OW  HW  HW  OW  HW  HW  OW  HW  HW  OW  HW  HW  OW  HW  HW  OW  HW  HW  OW  
HW  HW  OW  HW  HW  OW  HW  HW  OW  HW  HW  OW  HW  HW  OW  HW  HW  OW  HW  HW  
OW  HW  HW  OW  HW  HW  OW  HW  HW  OW  HW  HW  OW  HW  HW  OW  HW  HW  OW  HW  
HW  OW  HW  HW  OW  HW  HW  OW  HW  HW  OW  HW  HW  OW  HW  HW  OW  HW  HW  OW  
HW  HW  OW  HW  HW  OW  HW  HW  OW  HW  HW  OW  HW  HW  OW  HW  HW  OW  HW  HW  
OW  HW  HW  OW  HW  HW  OW  HW  HW  OW  HW  HW  OW  HW  HW  OW  HW  HW  OW  HW  
HW  OW  HW  HW  OW  HW  HW  OW  HW  HW  OW  HW  HW  OW  HW  HW  OW  HW  HW  OW  
HW  HW  OW  HW  HW  OW  HW  HW  OW  HW  HW  OW  HW  HW  OW  HW  HW  OW  HW  HW  
OW  HW  HW  OW  HW  HW  OW  HW  HW  OW  HW  HW  OW  HW  HW  OW  HW  HW  OW  HW  
HW  OW  HW  HW  OW  HW  HW  OW  HW  HW  OW  HW  HW  OW  HW  HW  OW  HW  HW  OW  
HW  HW  OW  HW  HW  OW  HW  HW  OW  HW  HW  OW  HW  HW  OW  HW  HW  OW  HW  HW  
OW  HW  HW  OW  HW  HW  OW  HW  HW  OW  HW  HW  OW  HW  HW  OW  HW  HW  OW  HW  
HW  OW  HW  HW  OW  HW  HW  OW  HW  HW  OW  HW  HW  OW  HW  HW  OW  HW  HW  OW  
HW  HW  OW  HW  HW  OW  HW  HW  OW  HW  HW  OW  HW  HW  OW  HW  HW  OW  HW  HW  
OW  HW  HW  OW  HW  HW  OW  HW  HW  OW  HW  HW  OW  HW  HW  OW  HW  HW  OW  HW  
HW  OW  HW  HW  OW  HW  HW  OW  HW  HW  OW  HW  HW  OW  HW  HW  OW  HW  HW  OW  
HW  HW  OW  HW  HW  OW  HW  HW  OW  HW  HW  OW  HW  HW  OW  HW  HW  OW  HW  HW  
OW  HW  HW  OW  HW  HW  OW  HW  HW  OW  HW  HW  OW  HW  HW  OW  HW  HW  OW  HW  
HW  OW  HW  HW  OW  HW  HW  OW  HW  HW  OW  HW  HW  OW  HW  HW  OW  HW  HW  OW  
HW  HW  OW  HW  HW  OW  HW  HW  OW  HW  HW  OW  HW  HW  OW  HW  HW  OW  HW  HW  
OW  HW  HW  OW  HW  HW  OW  HW  HW  OW  HW  HW  OW  HW  HW  OW  HW  HW  OW  HW  
HW  OW  HW  HW  OW  HW  HW  OW  HW  HW  OW  HW  HW  OW  HW  HW  OW  HW  HW  OW  
HW  HW  OW  HW  HW  OW  HW  HW  OW  HW  HW  OW  HW  HW  OW  HW  HW  OW  HW  HW  
OW  HW  HW  OW  HW  HW  OW  HW  HW  OW  HW  HW  OW  HW  HW  OW  HW  HW  OW  HW  
HW  OW  HW  HW  OW  HW  HW  OW  HW  HW  OW  HW  HW  OW  HW  HW  OW  HW  HW  OW  
HW  HW  OW  HW  HW  OW  HW  HW  OW  HW  HW  OW  HW  HW  OW  HW  HW  OW  HW  HW  
OW  HW  HW  OW  HW  HW  OW  HW  HW  OW  HW  HW  OW  HW  HW  OW  HW  HW  OW  HW  
HW  OW  HW  HW  OW  HW  HW  OW  HW  HW  OW  HW  HW  OW  HW  HW  OW  HW  HW  OW  
HW  HW  OW  HW  HW  OW  HW  HW  OW  HW  HW  OW  HW  HW  OW  HW  HW  OW  HW  HW  
OW  HW  HW  OW  HW  HW  OW  HW  HW  OW  HW  HW  OW  HW  HW  OW  HW  HW  OW  HW  
HW  OW  HW  HW  OW  HW  HW  OW  HW  HW  OW  HW  HW  OW  HW  HW  OW  HW  HW  OW  
HW  HW  OW  HW  HW  OW  HW  HW  OW  HW  HW  OW  HW  HW  OW  HW  HW  OW  HW  HW  
OW  HW  HW  OW  HW  HW  OW  HW  HW  OW  HW  HW  OW  HW  HW  OW  HW  HW  OW  HW  
HW  OW  HW  HW  OW  HW  HW  OW  HW  HW  OW  HW  HW  OW  HW  HW  OW  HW  HW  OW  
HW  HW  OW  HW  HW  OW  HW  HW  OW  HW  HW  OW  HW  HW  OW  HW  HW  OW  HW  HW  
OW  HW  HW  OW  HW  HW  OW  HW  HW  OW  HW  HW  OW  HW  HW  OW  HW  HW  OW  HW  
HW  OW  HW  HW  OW  HW  HW  OW  HW  HW  OW  HW  HW  OW  HW  HW  OW  HW  HW  OW  
HW  HW  OW  HW  HW  OW  HW  HW  OW  HW  HW  OW  HW  HW  OW  HW  HW  OW  HW  HW  
OW  HW  HW  OW  HW  HW  OW  HW  HW  OW  HW  HW  OW  HW  HW  OW  HW  HW  OW  HW  
HW  OW  HW  HW  OW  HW  HW  OW  HW  HW  OW  HW  HW  OW  HW  HW  OW  HW  HW  OW  
HW  HW  OW  HW  HW  OW  HW  HW  OW  HW  HW  OW  HW  HW  OW  HW  HW  OW  HW  HW  
OW  HW  HW  OW  HW  HW  OW  HW  HW  OW  HW  HW  OW  HW  HW  OW  HW  HW  OW  HW  
HW  OW  HW  HW  OW  HW  HW  OW  HW  HW  OW  HW  HW  OW  HW  HW  OW  HW  HW  OW  
HW  HW  OW  HW  HW  OW  HW  HW  OW  HW  HW  OW  HW  HW  OW  HW  HW  OW  HW  HW  
OW  HW  HW  OW  HW  HW  OW  HW  HW  OW  HW  HW  OW  HW  HW  OW  HW  HW  OW  HW  
HW  OW  HW  HW  OW  HW  HW  OW  HW  HW  OW  HW  HW  OW  HW  HW  OW  HW  HW  OW  
HW  HW  OW  HW  HW  OW  HW  HW  OW  HW  HW  OW  HW  HW  OW  HW  HW  OW  HW  HW  
OW  HW  HW  OW  HW  HW  OW  HW  HW  OW  HW  HW  OW  HW  HW  OW  HW  HW  OW  HW  
HW  OW  HW  HW  OW  HW  HW  OW  HW  HW  OW  HW  HW  OW  HW  HW  OW  HW  HW  OW  
HW  HW  OW  HW  HW  OW  HW  HW  OW  HW  HW  OW  HW  HW  OW  HW  HW  OW  HW  HW  
OW  HW  HW  OW  HW  HW  OW  HW  HW  OW  HW  HW  OW  HW  HW  OW  HW  HW  OW  HW  
HW  OW  HW  HW  OW  HW  HW  OW  HW  HW  OW  HW  HW  OW  HW  HW  OW  HW  HW  OW  
HW  HW  OW  HW  HW  OW  HW  HW  OW  HW  HW  OW  HW  HW  OW  HW  HW  OW  HW  HW  
OW  HW  HW  OW  HW  HW  OW  HW  HW  OW  HW  HW  OW  HW  HW  OW  HW  HW  OW  HW  
HW  OW  HW  HW  OW  HW  HW  OW  HW  HW  OW  HW  HW  OW  HW  HW  OW  HW  HW  OW  
HW  HW  OW  HW  HW  OW  HW  HW  OW  HW  HW  OW  HW  HW  OW  HW  HW  OW  HW  HW  
OW  HW  HW  OW  HW  HW  OW  HW  HW  OW  HW  HW  OW  HW  HW  OW  HW  HW  OW  HW  
HW  OW  HW  HW  OW  HW  HW  OW  HW  HW  OW  HW  HW  OW  HW  HW  OW  HW  HW  OW  
HW  HW  OW  HW  HW  OW  HW  HW  OW  HW  HW  OW  HW  HW  OW  HW  HW  OW  HW  HW  
OW  HW  HW  OW  HW  HW  OW  HW  HW  OW  HW  HW  OW  HW  HW  OW  HW  HW  OW  HW  
HW  OW  HW  HW  OW  HW  HW  OW  HW  HW  OW  HW  HW  OW  HW  HW  OW  HW  HW  OW  
HW  HW  OW  HW  HW  OW  HW  HW  OW  HW  HW  OW  HW  HW  OW  HW  HW  OW  HW  HW  
OW  HW  HW  OW  HW  HW  OW  HW  HW  OW  HW  HW  OW  HW  HW  OW  HW  HW  OW  HW  
HW  OW  HW  HW  OW  HW  HW  OW  HW  HW  OW  HW  HW  OW  HW  HW  OW  HW  HW  OW  
HW  HW  OW  HW  HW  OW  HW  HW  OW  HW  HW  OW  HW  HW  OW  HW  HW  OW  HW  HW  
OW  HW  HW  OW  HW  HW  OW  HW  HW  OW  HW  HW  OW  HW  HW  OW  HW  HW  OW  HW  
HW  OW  HW  HW  OW  HW  HW  OW  HW  HW  OW  HW  HW  OW  HW  HW  OW  HW  HW  OW  
HW  HW  OW  HW  HW  OW  HW  HW  OW  HW  HW  OW  HW  HW  OW  HW  HW  OW  HW  HW  
OW  HW  HW  OW  HW  HW  OW  HW  HW  OW  HW  HW  OW  HW  HW  OW  HW  HW  OW  HW  
HW  OW  HW  HW  OW  HW  HW  OW  HW  HW  OW  HW  HW  OW  HW  HW  OW  HW  HW  OW  
HW  HW  OW  HW  HW  OW  HW  HW  OW  HW  HW  OW  HW  HW  OW  HW  HW  OW  HW  HW  
OW  HW  HW  OW  HW  HW  OW  HW  HW  OW  HW  HW  OW  HW  HW  OW  HW  HW  OW  HW  
HW  OW  HW  HW  OW  HW  HW  OW  HW  HW  OW  HW  HW  OW  HW  HW  OW  HW  HW  OW  
HW  HW  OW  HW  HW  OW  HW  HW  OW  HW  HW  OW  HW  HW  OW  HW  HW  OW  HW  HW  
OW  HW  HW  OW  HW  HW  OW  HW  HW  OW  HW  HW  OW  HW  HW  OW  HW  HW  OW  HW  
HW  OW  HW  HW  OW  HW  HW  OW  HW  HW  OW  HW  HW  OW  HW  HW  OW  HW  HW  OW  
HW  HW  OW  HW  HW  OW  HW  HW  OW  HW  HW  OW  HW  HW  OW  HW  HW  OW  HW  HW  
OW  HW  HW  OW  HW  HW  OW  HW  HW  OW  HW  HW  OW  HW  HW  OW  HW  HW  OW  HW  
HW  OW  HW  HW  OW  HW  HW  OW  HW  HW  OW  HW  HW  OW  HW  HW  OW  HW  HW  OW  
HW  HW  OW  HW  HW  OW  HW  HW  OW  HW  HW  OW  HW  HW  OW  HW  HW  OW  HW  HW  
OW  HW  HW  OW  HW  HW  OW  HW  HW  OW  HW  HW  OW  HW  HW  OW  HW  HW  OW  HW  
HW  OW  HW  HW  OW  HW  HW  OW  HW  HW  OW  HW  HW  OW  HW  HW  OW  HW  HW  OW  
HW  HW  OW  HW  HW  OW  HW  HW  OW  HW  HW  OW  HW  HW  OW  HW  HW  OW  HW  HW  
OW  HW  HW  OW  HW  HW  OW  HW  HW  OW  HW  HW  OW  HW  HW  OW  HW  HW  OW  HW  
HW  OW  HW  HW  OW  HW  HW  OW  HW  HW  OW  HW  HW  OW  HW  HW  OW  HW  HW  OW  
HW  HW  OW  HW  HW  OW  HW  HW  OW  HW  HW  OW  HW  HW  OW  HW  HW  OW  HW  HW  
OW  HW  HW  OW  HW  HW  OW  HW  HW  OW  HW  HW  OW  HW  HW  OW  HW  HW  OW  HW  
HW  OW  HW  HW  OW  HW  HW  OW  HW  HW  OW  HW  HW  OW  HW  HW  OW  HW  HW  OW  
HW  HW  OW  HW  HW  OW  HW  HW  OW  HW  HW  OW  HW  HW  OW  HW  HW  OW  HW  HW  
OW  HW  HW  OW  HW  HW  OW  HW  HW  OW  HW  HW  OW  HW  HW  OW  HW  HW  OW  HW  
HW  OW  HW  HW  OW  HW  HW  OW  HW  HW  OW  HW  HW  OW  HW  HW  OW  HW  HW  OW  
HW  HW  OW  HW  HW  OW  HW  HW  OW  HW  HW  OW  HW  HW  OW  HW  HW  OW  HW  HW  
OW  HW  HW  OW  HW  HW  OW  HW  HW  OW  HW  HW  OW  HW  HW  OW  HW  HW  OW  HW  
HW  OW  HW  HW  OW  HW  HW  OW  HW  HW  OW  HW  HW  OW  HW  HW  OW  HW  HW  OW  
HW  HW  OW  HW  HW  OW  HW  HW  OW  HW  HW  OW  HW  HW  OW  HW  HW  OW  HW  HW  
OW  HW  HW  OW  HW  HW  OW  HW  HW  OW  HW  HW  OW  HW  HW  OW  HW  HW  OW  HW  
HW  OW  HW  HW  OW  HW  HW  OW  HW  HW  OW  HW  HW  OW  HW  HW  OW  HW  HW  OW  
HW  HW  OW  HW  HW  OW  HW  HW  OW  HW  HW  OW  HW  HW  OW  HW  HW  OW  HW  HW  
OW  HW  HW  OW  HW  HW  OW  HW  HW  OW  HW  HW  OW  HW  HW  OW  HW  HW  OW  HW  
HW  OW  HW  HW  OW  HW  HW  OW  HW  HW  OW  HW  HW  OW  HW  HW  OW  HW  HW  OW  
HW  HW  OW  HW  HW  OW  HW  HW  OW  HW  HW  OW  HW  HW  OW  HW  HW  OW  HW  HW  
OW  HW  HW  OW  HW  HW  OW  HW  HW  OW  HW  HW  OW  HW  HW  OW  HW  HW  OW  HW  
HW  OW  HW  HW  OW  HW  HW  OW  HW  HW  OW  HW  HW  OW  HW  HW  OW  HW  HW  OW  
HW  HW  OW  HW  HW  OW  HW  HW  OW  HW  HW  OW  HW  HW  OW  HW  HW  OW  HW  HW  
OW  HW  HW  OW  HW  HW  OW  HW  HW  OW  HW  HW  OW  HW  HW  OW  HW  HW  OW  HW  
HW  OW  HW  HW  OW  HW  HW  OW  HW  HW  OW  HW  HW  OW  HW  HW  OW  HW  HW  OW  
HW  HW  OW  HW  HW  OW  HW  HW  OW  HW  HW  OW  HW  HW  OW  HW  HW  OW  HW  HW  
OW  HW  HW  OW  HW  HW  OW  HW  HW  OW  HW  HW  OW  HW  HW  OW  HW  HW  OW  HW  
HW  OW  HW  HW  OW  HW  HW  OW  HW  HW  OW  HW  HW  OW  HW  HW  OW  HW  HW  OW  
HW  HW  OW  HW  HW  OW  HW  HW  OW  HW  HW  OW  HW  HW  OW  HW  HW  OW  HW  HW  
OW  HW  HW  OW  HW  HW  OW  HW  HW  OW  HW  HW  OW  HW  HW  OW  HW  HW  OW  HW  
HW  OW  HW  HW  OW  HW  HW  OW  HW  HW  OW  HW  HW  OW  HW  HW  OW  HW  HW  OW  
HW  HW  OW  HW  HW  OW  HW  HW  OW  HW  HW  OW  HW  HW  OW  HW  HW  OW  HW  HW  
OW  HW  HW  OW  HW  HW  OW  HW  HW  OW  HW  HW  OW  HW  HW  OW  HW  HW  OW  HW  
HW  OW  HW  HW  OW  HW  HW  OW  HW  HW  OW  HW  HW  OW  HW  HW  OW  HW  HW  OW  
HW  HW  OW  HW  HW  OW  HW  HW  OW  HW  HW  OW  HW  HW  OW  HW  HW  OW  HW  HW  
OW  HW  HW  OW  HW  HW  OW  HW  HW  OW  HW  HW  OW  HW  HW  OW  HW  HW  OW  HW  
HW  OW  HW  HW  OW  HW  HW  OW  HW  HW  OW  HW  HW  OW  HW  HW  OW  HW  HW  OW  
HW  HW  OW  HW  HW  OW  HW  HW  OW  HW  HW  OW  HW  HW  OW  HW  HW  OW  HW  HW  
OW  HW  HW  OW  HW  HW  OW  HW  HW  OW  HW  HW  OW  HW  HW  OW  HW  HW  OW  HW  
HW  OW  HW  HW  OW  HW  HW  OW  HW  HW  OW  HW  HW  OW  HW  HW  OW  HW  HW  OW  
HW  HW  OW  HW  HW  OW  HW  HW  OW  HW  HW  OW  HW  HW  OW  HW  HW  OW  HW  HW  
OW  HW  HW  OW  HW  HW  OW  HW  HW  OW  HW  HW  OW  HW  HW  OW  HW  HW  OW  HW  
HW  OW  HW  HW  OW  HW  HW  OW  HW  HW  OW  HW  HW  OW  HW  HW  OW  HW  HW  OW  
HW  HW  OW  HW  HW  OW  HW  HW  OW  HW  HW  OW  HW  HW  OW  HW  HW  OW  HW  HW  
OW  HW  HW  OW  HW  HW  OW  HW  HW  OW  HW  HW  OW  HW  HW  OW  HW  HW  OW  HW  
HW  OW  HW  HW  OW  HW  HW  OW  HW  HW  OW  HW  HW  OW  HW  HW  OW  HW  HW  OW  
HW  HW  OW  HW  HW  OW  HW  HW  OW  HW  HW  OW  HW  HW  OW  HW  HW  OW  HW  HW  
OW  HW  HW  OW  HW  HW  OW  HW  HW  OW  HW  HW  OW  HW  HW  OW  HW  HW  OW  HW  
HW  OW  HW  HW  OW  HW  HW  OW  HW  HW  OW  HW  HW  OW  HW  HW  OW  HW  HW  OW  
HW  HW  OW  HW  HW  OW  HW  HW  OW  HW  HW  OW  HW  HW  OW  HW  HW  OW  HW  HW  
OW  HW  HW  OW  HW  HW  OW  HW  HW  OW  HW  HW  OW  HW  HW  OW  HW  HW  OW  HW  
HW  OW  HW  HW  OW  HW  HW  OW  HW  HW  OW  HW  HW  OW  HW  HW  OW  HW  HW  OW  
HW  HW  OW  HW  HW  OW  HW  HW  OW  HW  HW  OW  HW  HW  OW  HW  HW  OW  HW  HW  
OW  HW  HW  OW  HW  HW  OW  HW  HW  OW  HW  HW  OW  HW  HW  OW  HW  HW  OW  HW  
HW  OW  HW  HW  OW  HW  HW  OW  HW  HW  OW  HW  HW  OW  HW  HW  OW  HW  HW  OW  
HW  HW  OW  HW  HW  OW  HW  HW  OW  HW  HW  OW  HW  HW  OW  HW  HW  OW  HW  HW  
OW  HW  HW  OW  HW  HW  OW  HW  HW  OW  HW  HW  OW  HW  HW  OW  HW  HW  OW  HW  
HW  OW  HW  HW  OW  HW  HW  OW  HW  HW  OW  HW  HW  OW  HW  HW  OW  HW  HW  OW  
HW  HW  OW  HW  HW  OW  HW  HW  OW  HW  HW  OW  HW  HW  OW  HW  HW  OW  HW  HW  
OW  HW  HW  OW  HW  HW  OW  HW  HW  OW  HW  HW  OW  HW  HW  OW  HW  HW  OW  HW  
HW  OW  HW  HW  OW  HW  HW  OW  HW  HW  OW  HW  HW  OW  HW  HW  OW  HW  HW  OW  
HW  HW  OW  HW  HW  OW  HW  HW  OW  HW  HW  OW  HW  HW  OW  HW  HW  OW  HW  HW  
OW  HW  HW  OW  HW  HW  OW  HW  HW  OW  HW  HW  OW  HW  HW  OW  HW  HW  OW  HW  
HW  OW  HW  HW  OW  HW  HW  OW  HW  HW  OW  HW  HW  OW  HW  HW  OW  HW  HW  OW  
HW  HW  OW  HW  HW  OW  HW  HW  OW  HW  HW  OW  HW  HW  OW  HW  HW  OW  HW  HW  
OW  HW  HW  OW  HW  HW  OW  HW  HW  OW  HW  HW  OW  HW  HW  OW  HW  HW  OW  HW  
HW  OW  HW  HW  OW  HW  HW  OW  HW  HW  OW  HW  HW  OW  HW  HW  OW  HW  HW  OW  
HW  HW  OW  HW  HW  OW  HW  HW  OW  HW  HW  OW  HW  HW  OW  HW  HW  OW  HW  HW  
OW  HW  HW  OW  HW  HW  OW  HW  HW  OW  HW  HW  OW  HW  HW  OW  HW  HW  OW  HW  
HW  OW  HW  HW  OW  HW  HW  OW  HW  HW  OW  HW  HW  OW  HW  HW  OW  HW  HW  OW  
HW  HW  OW  HW  HW  OW  HW  HW  OW  HW  HW  OW  HW  HW  OW  HW  HW  OW  HW  HW  
OW  HW  HW  OW  HW  HW  OW  HW  HW  OW  HW  HW  OW  HW  HW  OW  HW  HW  OW  HW  
HW  OW  HW  HW  OW  HW  HW  OW  HW  HW  OW  HW  HW  OW  HW  HW  OW  HW  HW  OW  
HW  HW  OW  HW  HW  OW  HW  HW  OW  HW  HW  OW  HW  HW  OW  HW  HW  OW  HW  HW  
OW  HW  HW  OW  HW  HW  OW  HW  HW  OW  HW  HW  OW  HW  HW  OW  HW  HW  OW  HW  
HW  OW  HW  HW  OW  HW  HW  OW  HW  HW  OW  HW  HW  OW  HW  HW  OW  HW  HW  OW  
HW  HW  OW  HW  HW  OW  HW  HW  OW  HW  HW  OW  HW  HW  OW  HW  HW  OW  HW  HW  
OW  HW  HW  OW  HW  HW  OW  HW  HW  OW  HW  HW  OW  HW  HW  OW  HW  HW  OW  HW  
HW  OW  HW  HW  OW  HW  HW  OW  HW  HW  OW  HW  HW  OW  HW  HW  OW  HW  HW  OW  
HW  HW  OW  HW  HW  OW  HW  HW  OW  HW  HW  OW  HW  HW  OW  HW  HW  OW  HW  HW  
OW  HW  HW  OW  HW  HW  OW  HW  HW  OW  HW  HW  OW  HW  HW  OW  HW  HW  OW  HW  
HW  OW  HW  HW  OW  HW  HW  OW  HW  HW  OW  HW  HW  OW  HW  HW  OW  HW  HW  OW  
HW  HW  OW  HW  HW  OW  HW  HW  OW  HW  HW  OW  HW  HW  OW  HW  HW  OW  HW  HW  
OW  HW  HW  OW  HW  HW  OW  HW  HW  OW  HW  HW  OW  HW  HW  OW  HW  HW  OW  HW  
HW  OW  HW  HW  OW  HW  HW  OW  HW  HW  OW  HW  HW  OW  HW  HW  OW  HW  HW  OW  
HW  HW  OW  HW  HW  OW  HW  HW  OW  HW  HW  OW  HW  HW  OW  HW  HW  OW  HW  HW  
OW  HW  HW  OW  HW  HW  OW  HW  HW  OW  HW  HW  OW  HW  HW  OW  HW  HW  OW  HW  
HW  OW  HW  HW  OW  HW  HW  OW  HW  HW  OW  HW  HW  OW  HW  HW  OW  HW  HW  OW  
HW  HW  OW  HW  HW  OW  HW  HW  OW  HW  HW  OW  HW  HW  OW  HW  HW  OW  HW  HW  
OW  HW  HW  OW  HW  HW  OW  HW  HW  OW  HW  HW  OW  HW  HW  OW  HW  HW  OW  HW  
HW  OW  HW  HW  OW  HW  HW  OW  HW  HW  OW  HW  HW  OW  HW  HW  OW  HW  HW  OW  
HW  HW  OW  HW  HW  OW  HW  HW  OW  HW  HW  OW  HW  HW  OW  HW  HW  OW  HW  HW  
OW  HW  HW  OW  HW  HW  OW  HW  HW  OW  HW  HW  OW  HW  HW  OW  HW  HW  OW  HW  
HW  OW  HW  HW  OW  HW  HW  OW  HW  HW  OW  HW  HW  OW  HW  HW  OW  HW  HW  OW  
HW  HW  OW  HW  HW  OW  HW  HW  OW  HW  HW  OW  HW  HW  OW  HW  HW  OW  HW  HW  
OW  HW  HW  OW  HW  HW  OW  HW  HW  OW  HW  HW  OW  HW  HW  OW  HW  HW  OW  HW  
HW  OW  HW  HW  OW  HW  HW  OW  HW  HW  OW  HW  HW  OW  HW  HW  OW  HW  HW  OW  
HW  HW  OW  HW  HW  OW  HW  HW  OW  HW  HW  OW  HW  HW  OW  HW  HW  OW  HW  HW  
OW  HW  HW  OW  HW  HW  OW  HW  HW  OW  HW  HW  OW  HW  HW  OW  HW  HW  OW  HW  
HW  OW  HW  HW  OW  HW  HW  OW  HW  HW  OW  HW  HW  OW  HW  HW  OW  HW  HW  OW  
HW  HW  OW  HW  HW  OW  HW  HW  OW  HW  HW  OW  HW  HW  OW  HW  HW  OW  HW  HW  
OW  HW  HW  OW  HW  HW  OW  HW  HW  OW  HW  HW  OW  HW  HW  OW  HW  HW  OW  HW  
HW  OW  HW  HW  OW  HW  HW  OW  HW  HW  OW  HW  HW  OW  HW  HW  OW  HW  HW  OW  
HW  HW  OW  HW  HW  OW  HW  HW  OW  HW  HW  OW  HW  HW  OW  HW  HW  OW  HW  HW  
OW  HW  HW  OW  HW  HW  OW  HW  HW  OW  HW  HW  OW  HW  HW  OW  HW  HW  OW  HW  
HW  OW  HW  HW  OW  HW  HW  OW  HW  HW  OW  HW  HW  OW  HW  HW  OW  HW  HW  OW  
HW  HW  OW  HW  HW  OW  HW  HW  OW  HW  HW  OW  HW  HW  OW  HW  HW  OW  HW  HW  
OW  HW  HW  OW  HW  HW  OW  HW  HW  OW  HW  HW  OW  HW  HW  OW  HW  HW  OW  HW  
HW  OW  HW  HW  OW  HW  HW  OW  HW  HW  OW  HW  HW  OW  HW  HW  OW  HW  HW  OW  
HW  HW  OW  HW  HW  OW  HW  HW  OW  HW  HW  OW  HW  HW  OW  HW  HW  OW  HW  HW  
OW  HW  HW  OW  HW  HW  OW  HW  HW  OW  HW  HW  OW  HW  HW  OW  HW  HW  OW  HW  
HW  OW  HW  HW  OW  HW  HW  OW  HW  HW  OW  HW  HW  OW  HW  HW  OW  HW  HW  OW  
HW  HW  OW  HW  HW  OW  HW  HW  OW  HW  HW  OW  HW  HW  OW  HW  HW  OW  HW  HW  
OW  HW  HW  OW  HW  HW  OW  HW  HW  OW  HW  HW  OW  HW  HW  OW  HW  HW  OW  HW  
HW  OW  HW  HW  OW  HW  HW  OW  HW  HW  OW  HW  HW  OW  HW  HW  OW  HW  HW  OW  
HW  HW  OW  HW  HW  OW  HW  HW  OW  HW  HW  OW  HW  HW  OW  HW  HW  OW  HW  HW  
OW  HW  HW  OW  HW  HW  OW  HW  HW  OW  HW  HW  OW  HW  HW  OW  HW  HW  OW  HW  
HW  OW  HW  HW  OW  HW  HW  OW  HW  HW  OW  HW  HW  OW  HW  HW  OW  HW  HW  OW  
HW  HW  OW  HW  HW  OW  HW  HW  OW  HW  HW  OW  HW  HW  OW  HW  HW  OW  HW  HW  
OW  HW  HW  OW  HW  HW  OW  HW  HW  OW  HW  HW  OW  HW  HW  OW  HW  HW  OW  HW  
HW  OW  HW  HW  OW  HW  HW  OW  HW  HW  OW  HW  HW  OW  HW  HW  OW  HW  HW  OW  
HW  HW  OW  HW  HW  OW  HW  HW  OW  HW  HW  OW  HW  HW  OW  HW  HW  OW  HW  HW  
OW  HW  HW  OW  HW  HW  OW  HW  HW  OW  HW  HW  OW  HW  HW  OW  HW  HW  OW  HW  
HW  OW  HW  HW  OW  HW  HW  OW  HW  HW  OW  HW  HW  OW  HW  HW  OW  HW  HW  OW  
HW  HW  OW  HW  HW  OW  HW  HW  OW  HW  HW  OW  HW  HW  OW  HW  HW  OW  HW  HW  
OW  HW  HW  OW  HW  HW  OW  HW  HW  OW  HW  HW  OW  HW  HW  OW  HW  HW  OW  HW  
HW  OW  HW  HW  OW  HW  HW  OW  HW  HW  OW  HW  HW  OW  HW  HW  OW  HW  HW  OW  
HW  HW  OW  HW  HW  OW  HW  HW  OW  HW  HW  OW  HW  HW  OW  HW  HW  OW  HW  HW  
OW  HW  HW  OW  HW  HW  OW  HW  HW  OW  HW  HW  OW  HW  HW  OW  HW  HW  OW  HW  
HW  OW  HW  HW  OW  HW  HW  OW  HW  HW  OW  HW  HW  OW  HW  HW  OW  HW  HW  OW  
HW  HW  OW  HW  HW  OW  HW  HW  OW  HW  HW  OW  HW  HW  OW  HW  HW  OW  HW  HW  
OW  HW  HW  OW  HW  HW  OW  HW  HW  OW  HW  HW  OW  HW  HW  OW  HW  HW  OW  HW  
HW  OW  HW  HW  OW  HW  HW  OW  HW  HW  OW  HW  HW  OW  HW  HW  OW  HW  HW  OW  
HW  HW  OW  HW  HW  OW  HW  HW  OW  HW  HW  OW  HW  HW  OW  HW  HW  OW  HW  HW  
OW  HW  HW  OW  HW  HW  OW  HW  HW  OW  HW  HW  OW  HW  HW  OW  HW  HW  OW  HW  
HW  OW  HW  HW  OW  HW  HW  OW  HW  HW  OW  HW  HW  OW  HW  HW  OW  HW  HW  OW  
HW  HW  OW  HW  HW  OW  HW  HW  OW  HW  HW  OW  HW  HW  OW  HW  HW  OW  HW  HW  
OW  HW  HW  OW  HW  HW  OW  HW  HW  OW  HW  HW  OW  HW  HW  OW  HW  HW  OW  HW  
HW  OW  HW  HW  OW  HW  HW  OW  HW  HW  OW  HW  HW  OW  HW  HW  OW  HW  HW  OW  
HW  HW  OW  HW  HW  OW  HW  HW  OW  HW  HW  OW  HW  HW  OW  HW  HW  OW  HW  HW  
OW  HW  HW  OW  HW  HW  OW  HW  HW  OW  HW  HW  OW  HW  HW  OW  HW  HW  OW  HW  
HW  OW  HW  HW  OW  HW  HW  OW  HW  HW  OW  HW  HW  OW  HW  HW  OW  HW  HW  OW  
HW  HW  OW  HW  HW  OW  HW  HW  OW  HW  HW  OW  HW  HW  OW  HW  HW  OW  HW  HW  
OW  HW  HW  OW  HW  HW  OW  HW  HW  OW  HW  HW  OW  HW  HW  OW  HW  HW  OW  HW  
HW  OW  HW  HW  OW  HW  HW  OW  HW  HW  OW  HW  HW  OW  HW  HW  OW  HW  HW  OW  
HW  HW  OW  HW  HW  OW  HW  HW  OW  HW  HW  OW  HW  HW  OW  HW  HW  OW  HW  HW  
OW  HW  HW  OW  HW  HW  OW  HW  HW  OW  HW  HW  OW  HW  HW  OW  HW  HW  OW  HW  
HW  OW  HW  HW  OW  HW  HW  OW  HW  HW  OW  HW  HW  OW  HW  HW  OW  HW  HW  OW  
HW  HW  OW  HW  HW  OW  HW  HW  OW  HW  HW  OW  HW  HW  OW  HW  HW  OW  HW  HW  
OW  HW  HW  OW  HW  HW  OW  HW  HW  OW  HW  HW  OW  HW  HW  OW  HW  HW  OW  HW  
HW  OW  HW  HW  OW  HW  HW  OW  HW  HW  OW  HW  HW  OW  HW  HW  OW  HW  HW  OW  
HW  HW  OW  HW  HW  OW  HW  HW  OW  HW  HW  OW  HW  HW  OW  HW  HW  OW  HW  HW  
OW  HW  HW  OW  HW  HW  OW  HW  HW  OW  HW  HW  OW  HW  HW  OW  HW  HW  OW  HW  
HW  OW  HW  HW  OW  HW  HW  OW  HW  HW  OW  HW  HW  OW  HW  HW  OW  HW  HW  OW  
HW  HW  OW  HW  HW  OW  HW  HW  OW  HW  HW  OW  HW  HW  OW  HW  HW  OW  HW  HW  
OW  HW  HW  OW  HW  HW  OW  HW  HW  OW  HW  HW  OW  HW  HW  OW  HW  HW  OW  HW  
HW  OW  HW  HW  OW  HW  HW  OW  HW  HW  OW  HW  HW  OW  HW  HW  OW  HW  HW  OW  
HW  HW  OW  HW  HW  OW  HW  HW  OW  HW  HW  OW  HW  HW  OW  HW  HW  OW  HW  HW  
OW  HW  HW  OW  HW  HW  OW  HW  HW  OW  HW  HW  OW  HW  HW  OW  HW  HW  OW  HW  
HW  OW  HW  HW  OW  HW  HW  OW  HW  HW  OW  HW  HW  OW  HW  HW  OW  HW  HW  OW  
HW  HW  OW  HW  HW  OW  HW  HW  OW  HW  HW  OW  HW  HW  OW  HW  HW  OW  HW  HW  
OW  HW  HW  OW  HW  HW  OW  HW  HW  OW  HW  HW  OW  HW  HW  OW  HW  HW  OW  HW  
HW  OW  HW  HW  OW  HW  HW  OW  HW  HW  OW  HW  HW  OW  HW  HW  OW  HW  HW  OW  
HW  HW  OW  HW  HW  OW  HW  HW  OW  HW  HW  OW  HW  HW  OW  HW  HW  OW  HW  HW  
OW  HW  HW  OW  HW  HW  OW  HW  HW  OW  HW  HW  OW  HW  HW  OW  HW  HW  OW  HW  
HW  OW  HW  HW  OW  HW  HW  OW  HW  HW  OW  HW  HW  OW  HW  HW  OW  HW  HW  OW  
HW  HW  OW  HW  HW  OW  HW  HW  OW  HW  HW  OW  HW  HW  OW  HW  HW  OW  HW  HW  
OW  HW  HW  OW  HW  HW  OW  HW  HW  OW  HW  HW  OW  HW  HW  OW  HW  HW  OW  HW  
HW  OW  HW  HW  OW  HW  HW  OW  HW  HW  OW  HW  HW  OW  HW  HW  OW  HW  HW  OW  
HW  HW  OW  HW  HW  OW  HW  HW  OW  HW  HW  OW  HW  HW  OW  HW  HW  OW  HW  HW  
OW  HW  HW  OW  HW  HW  OW  HW  HW  OW  HW  HW  OW  HW  HW  OW  HW  HW  OW  HW  
HW  OW  HW  HW  OW  HW  HW  OW  HW  HW  OW  HW  HW  OW  HW  HW  OW  HW  HW  OW  
HW  HW  OW  HW  HW  OW  HW  HW  OW  HW  HW  OW  HW  HW  OW  HW  HW  OW  HW  HW  
OW  HW  HW  OW  HW  HW  OW  HW  HW  OW  HW  HW  OW  HW  HW  OW  HW  HW  OW  HW  
HW  OW  HW  HW  OW  HW  HW  OW  HW  HW  OW  HW  HW  OW  HW  HW  OW  HW  HW  OW  
HW  HW  OW  HW  HW  OW  HW  HW  OW  HW  HW  OW  HW  HW  OW  HW  HW  OW  HW  HW  
OW  HW  HW  OW  HW  HW  OW  HW  HW  OW  HW  HW  OW  HW  HW  OW  HW  HW  OW  HW  
HW  OW  HW  HW  OW  HW  HW  OW  HW  HW  OW  HW  HW  OW  HW  HW  OW  HW  HW  OW  
HW  HW  OW  HW  HW  OW  HW  HW  OW  HW  HW  OW  HW  HW  OW  HW  HW  OW  HW  HW  
OW  HW  HW  OW  HW  HW  OW  HW  HW  OW  HW  HW  OW  HW  HW  OW  HW  HW  OW  HW  
HW  OW  HW  HW  OW  HW  HW  OW  HW  HW  OW  HW  HW  OW  HW  HW  OW  HW  HW  OW  
HW  HW  OW  HW  HW  OW  HW  HW  OW  HW  HW  OW  HW  HW  OW  HW  HW  OW  HW  HW  
OW  HW  HW  OW  HW  HW  OW  HW  HW  OW  HW  HW  OW  HW  HW  OW  HW  HW  OW  HW  
HW  OW  HW  HW  OW  HW  HW  OW  HW  HW  OW  HW  HW  OW  HW  HW  OW  HW  HW  OW  
HW  HW  OW  HW  HW  OW  HW  HW  OW  HW  HW  OW  HW  HW  OW  HW  HW  OW  HW  HW  
OW  HW  HW  OW  HW  HW  OW  HW  HW  OW  HW  HW  OW  HW  HW  OW  HW  HW  OW  HW  
HW  OW  HW  HW  OW  HW  HW  OW  HW  HW  OW  HW  HW  OW  HW  HW  OW  HW  HW  OW  
HW  HW  OW  HW  HW  OW  HW  HW  OW  HW  HW  OW  HW  HW  OW  HW  HW  OW  HW  HW  
OW  HW  HW  OW  HW  HW  OW  HW  HW  OW  HW  HW  OW  HW  HW  OW  HW  HW  OW  HW  
HW  OW  HW  HW  OW  HW  HW  OW  HW  HW  OW  HW  HW  OW  HW  HW  OW  HW  HW  OW  
HW  HW  OW  HW  HW  OW  HW  HW  OW  HW  HW  OW  HW  HW  OW  HW  HW  OW  HW  HW  
OW  HW  HW  OW  HW  HW  OW  HW  HW  OW  HW  HW  OW  HW  HW  OW  HW  HW  OW  HW  
HW  OW  HW  HW  OW  HW  HW  OW  HW  HW  OW  HW  HW  OW  HW  HW  OW  HW  HW  OW  
HW  HW  OW  HW  HW  OW  HW  HW  OW  HW  HW  OW  HW  HW  OW  HW  HW  OW  HW  HW  
OW  HW  HW  OW  HW  HW  OW  HW  HW  OW  HW  HW  OW  HW  HW  OW  HW  HW  OW  HW  
HW  OW  HW  HW  OW  HW  HW  OW  HW  HW  OW  HW  HW  OW  HW  HW  OW  HW  HW  OW  
HW  HW  OW  HW  HW  OW  HW  HW  OW  HW  HW  OW  HW  HW  OW  HW  HW  OW  HW  HW  
OW  HW  HW  OW  HW  HW  OW  HW  HW  OW  HW  HW  OW  HW  HW  OW  HW  HW  OW  HW  
HW  OW  HW  HW  OW  HW  HW  OW  HW  HW  OW  HW  HW  OW  HW  HW  OW  HW  HW  OW  
HW  HW  OW  HW  HW  OW  HW  HW  OW  HW  HW  OW  HW  HW  OW  HW  HW  OW  HW  HW  
OW  HW  HW  OW  HW  HW  OW  HW  HW  OW  HW  HW  OW  HW  HW  OW  HW  HW  OW  HW  
HW  OW  HW  HW  OW  HW  HW  OW  HW  HW  OW  HW  HW  OW  HW  HW  OW  HW  HW  OW  
HW  HW  OW  HW  HW  OW  HW  HW  OW  HW  HW  OW  HW  HW  OW  HW  HW  OW  HW  HW  
OW  HW  HW  OW  HW  HW  OW  HW  HW  OW  HW  HW  OW  HW  HW  OW  HW  HW  OW  HW  
HW  OW  HW  HW  OW  HW  HW  OW  HW  HW  OW  HW  HW  OW  HW  HW  OW  HW  HW  OW  
HW  HW  OW  HW  HW  OW  HW  HW  OW  HW  HW  OW  HW  HW  OW  HW  HW  OW  HW  HW  
OW  HW  HW  OW  HW  HW  OW  HW  HW  OW  HW  HW  OW  HW  HW  OW  HW  HW  OW  HW  
HW  OW  HW  HW  OW  HW  HW  OW  HW  HW  OW  HW  HW  OW  HW  HW  OW  HW  HW  OW  
HW  HW  OW  HW  HW  OW  HW  HW  OW  HW  HW  OW  HW  HW  OW  HW  HW  OW  HW  HW  
OW  HW  HW  OW  HW  HW  OW  HW  HW  OW  HW  HW  OW  HW  HW  OW  HW  HW  OW  HW  
HW  OW  HW  HW  OW  HW  HW  OW  HW  HW  OW  HW  HW  OW  HW  HW  OW  HW  HW  OW  
HW  HW  OW  HW  HW  OW  HW  HW  OW  HW  HW  OW  HW  HW  OW  HW  HW  OW  HW  HW  
OW  HW  HW  OW  HW  HW  OW  HW  HW  OW  HW  HW  OW  HW  HW  OW  HW  HW  OW  HW  
HW  OW  HW  HW  OW  HW  HW  OW  HW  HW  OW  HW  HW  OW  HW  HW  OW  HW  HW  OW  
HW  HW  OW  HW  HW  OW  HW  HW  OW  HW  HW  OW  HW  HW  OW  HW  HW  OW  HW  HW  
OW  HW  HW  OW  HW  HW  OW  HW  HW  OW  HW  HW  OW  HW  HW  OW  HW  HW  OW  HW  
HW  OW  HW  HW  OW  HW  HW  OW  HW  HW  OW  HW  HW  OW  HW  HW  OW  HW  HW  OW  
HW  HW  OW  HW  HW  OW  HW  HW  OW  HW  HW  OW  HW  HW  OW  HW  HW  OW  HW  HW  
OW  HW  HW  OW  HW  HW  OW  HW  HW  OW  HW  HW  OW  HW  HW  OW  HW  HW  OW  HW  
HW  OW  HW  HW  OW  HW  HW  OW  HW  HW  OW  HW  HW  OW  HW  HW  OW  HW  HW  OW  
HW  HW  OW  HW  HW  OW  HW  HW  OW  HW  HW  OW  HW  HW  OW  HW  HW  OW  HW  HW  
OW  HW  HW  OW  HW  HW  OW  HW  HW  OW  HW  HW  OW  HW  HW  OW  HW  HW  OW  HW  
HW  OW  HW  HW  OW  HW  HW  OW  HW  HW  OW  HW  HW  OW  HW  HW  OW  HW  HW  OW  
HW  HW  OW  HW  HW  OW  HW  HW  OW  HW  HW  OW  HW  HW  OW  HW  HW  OW  HW  HW  
OW  HW  HW  OW  HW  HW  OW  HW  HW  OW  HW  HW  OW  HW  HW  OW  HW  HW  OW  HW  
HW  OW  HW  HW  OW  HW  HW  OW  HW  HW  OW  HW  HW  OW  HW  HW  OW  HW  HW  OW  
HW  HW  OW  HW  HW  OW  HW  HW  OW  HW  HW  OW  HW  HW  OW  HW  HW  OW  HW  HW  
OW  HW  HW  OW  HW  HW  OW  HW  HW  OW  HW  HW  OW  HW  HW  OW  HW  HW  OW  HW  
HW  OW  HW  HW  OW  HW  HW  OW  HW  HW  OW  HW  HW  OW  HW  HW  OW  HW  HW  OW  
HW  HW  OW  HW  HW  OW  HW  HW  OW  HW  HW  OW  HW  HW  OW  HW  HW  OW  HW  HW  
OW  HW  HW  OW  HW  HW  OW  HW  HW  OW  HW  HW  OW  HW  HW  OW  HW  HW  OW  HW  
HW  OW  HW  HW  OW  HW  HW  OW  HW  HW  OW  HW  HW  OW  HW  HW  OW  HW  HW  OW  
HW  HW  OW  HW  HW  OW  HW  HW  OW  HW  HW  OW  HW  HW  OW  HW  HW  OW  HW  HW  
OW  HW  HW  OW  HW  HW  OW  HW  HW  OW  HW  HW  OW  HW  HW  OW  HW  HW  OW  HW  
HW  OW  HW  HW  OW  HW  HW  OW  HW  HW  OW  HW  HW  OW  HW  HW  OW  HW  HW  OW  
HW  HW  OW  HW  HW  OW  HW  HW  OW  HW  HW  OW  HW  HW  OW  HW  HW  OW  HW  HW  
OW  HW  HW  OW  HW  HW  OW  HW  HW  OW  HW  HW  OW  HW  HW  OW  HW  HW  OW  HW  
HW  OW  HW  HW  OW  HW  HW  OW  HW  HW  OW  HW  HW  OW  HW  HW  OW  HW  HW  OW  
HW  HW  OW  HW  HW  OW  HW  HW  OW  HW  HW  OW  HW  HW  OW  HW  HW  OW  HW  HW  
OW  HW  HW  OW  HW  HW  OW  HW  HW  OW  HW  HW  OW  HW  HW  OW  HW  HW  OW  HW  
HW  OW  HW  HW  OW  HW  HW  OW  HW  HW  OW  HW  HW  OW  HW  HW  OW  HW  HW  OW  
HW  HW  OW  HW  HW  OW  HW  HW  OW  HW  HW  OW  HW  HW  OW  HW  HW  OW  HW  HW  
OW  HW  HW  OW  HW  HW  OW  HW  HW  OW  HW  HW  OW  HW  HW  OW  HW  HW  OW  HW  
HW  OW  HW  HW  OW  HW  HW  OW  HW  HW  OW  HW  HW  OW  HW  HW  OW  HW  HW  OW  
HW  HW  OW  HW  HW  OW  HW  HW  OW  HW  HW  OW  HW  HW  OW  HW  HW  OW  HW  HW  
OW  HW  HW  OW  HW  HW  OW  HW  HW  OW  HW  HW  OW  HW  HW  OW  HW  HW  OW  HW  
HW  OW  HW  HW  OW  HW  HW  OW  HW  HW  OW  HW  HW  OW  HW  HW  OW  HW  HW  OW  
HW  HW  OW  HW  HW  OW  HW  HW  OW  HW  HW  OW  HW  HW  OW  HW  HW  OW  HW  HW  
OW  HW  HW  OW  HW  HW  OW  HW  HW  OW  HW  HW  OW  HW  HW  OW  HW  HW  OW  HW  
HW  OW  HW  HW  OW  HW  HW  OW  HW  HW  OW  HW  HW  OW  HW  HW  OW  HW  HW  OW  
HW  HW  OW  HW  HW  OW  HW  HW  OW  HW  HW  OW  HW  HW  OW  HW  HW  OW  HW  HW  
OW  HW  HW  OW  HW  HW  OW  HW  HW  OW  HW  HW  OW  HW  HW  OW  HW  HW  OW  HW  
HW  OW  HW  HW  OW  HW  HW  OW  HW  HW  OW  HW  HW  OW  HW  HW  OW  HW  HW  OW  
HW  HW  OW  HW  HW  OW  HW  HW  OW  HW  HW  OW  HW  HW  OW  HW  HW  OW  HW  HW  
OW  HW  HW  OW  HW  HW  OW  HW  HW  OW  HW  HW  OW  HW  HW  OW  HW  HW  OW  HW  
HW  OW  HW  HW  OW  HW  HW  OW  HW  HW  OW  HW  HW  OW  HW  HW  OW  HW  HW  OW  
HW  HW  OW  HW  HW  OW  HW  HW  OW  HW  HW  OW  HW  HW  OW  HW  HW  OW  HW  HW  
OW  HW  HW  OW  HW  HW  OW  HW  HW  OW  HW  HW  OW  HW  HW  OW  HW  HW  OW  HW  
HW  OW  HW  HW  OW  HW  HW  OW  HW  HW  OW  HW  HW  OW  HW  HW  OW  HW  HW  OW  
HW  HW  OW  HW  HW  OW  HW  HW  OW  HW  HW  OW  HW  HW  OW  HW  HW  OW  HW  HW  
OW  HW  HW  OW  HW  HW  OW  HW  HW  OW  HW  HW  OW  HW  HW  OW  HW  HW  OW  HW  
HW  OW  HW  HW  OW  HW  HW  OW  HW  HW  OW  HW  HW  OW  HW  HW  OW  HW  HW  OW  
HW  HW  OW  HW  HW  OW  HW  HW  OW  HW  HW  OW  HW  HW  OW  HW  HW  OW  HW  HW  
OW  HW  HW  OW  HW  HW  OW  HW  HW  OW  HW  HW  OW  HW  HW  OW  HW  HW  OW  HW  
HW  OW  HW  HW  OW  HW  HW  OW  HW  HW  OW  HW  HW  OW  HW  HW  OW  HW  HW  OW  
HW  HW  OW  HW  HW  OW  HW  HW  OW  HW  HW  OW  HW  HW  OW  HW  HW  OW  HW  HW  
OW  HW  HW  OW  HW  HW  OW  HW  HW  OW  HW  HW  OW  HW  HW  OW  HW  HW  OW  HW  
HW  OW  HW  HW  OW  HW  HW  OW  HW  HW  OW  HW  HW  OW  HW  HW  OW  HW  HW  OW  
HW  HW  OW  HW  HW  OW  HW  HW  OW  HW  HW  OW  HW  HW  OW  HW  HW  OW  HW  HW  
OW  HW  HW  OW  HW  HW  OW  HW  HW  OW  HW  HW  OW  HW  HW  OW  HW  HW  OW  HW  
HW  OW  HW  HW  OW  HW  HW  OW  HW  HW  OW  HW  HW  OW  HW  HW  OW  HW  HW  OW  
HW  HW  OW  HW  HW  OW  HW  HW  OW  HW  HW  OW  HW  HW  OW  HW  HW  OW  HW  HW  
OW  HW  HW  OW  HW  HW  OW  HW  HW  OW  HW  HW  OW  HW  HW  OW  HW  HW  OW  HW  
HW  OW  HW  HW  OW  HW  HW  OW  HW  HW  OW  HW  HW  OW  HW  HW  OW  HW  HW  OW  
HW  HW  OW  HW  HW  OW  HW  HW  OW  HW  HW  OW  HW  HW  OW  HW  HW  OW  HW  HW  
OW  HW  HW  OW  HW  HW  OW  HW  HW  OW  HW  HW  OW  HW  HW  OW  HW  HW  OW  HW  
HW  OW  HW  HW  OW  HW  HW  OW  HW  HW  OW  HW  HW  OW  HW  HW  OW  HW  HW  OW  
HW  HW  OW  HW  HW  OW  HW  HW  OW  HW  HW  OW  HW  HW  OW  HW  HW  OW  HW  HW  
OW  HW  HW  OW  HW  HW  OW  HW  HW  OW  HW  HW  OW  HW  HW  OW  HW  HW  OW  HW  
HW  OW  HW  HW  OW  HW  HW  OW  HW  HW  OW  HW  HW  OW  HW  HW  OW  HW  HW  OW  
HW  HW  OW  HW  HW  OW  HW  HW  OW  HW  HW  OW  HW  HW  OW  HW  HW  OW  HW  HW  
OW  HW  HW  OW  HW  HW  OW  HW  HW  OW  HW  HW  OW  HW  HW  OW  HW  HW  OW  HW  
HW  OW  HW  HW  OW  HW  HW  OW  HW  HW  OW  HW  HW  OW  HW  HW  OW  HW  HW  OW  
HW  HW  OW  HW  HW  OW  HW  HW  OW  HW  HW  OW  HW  HW  OW  HW  HW  OW  HW  HW  
OW  HW  HW  OW  HW  HW  OW  HW  HW  OW  HW  HW  OW  HW  HW  OW  HW  HW  OW  HW  
HW  OW  HW  HW  OW  HW  HW  OW  HW  HW  OW  HW  HW  OW  HW  HW  OW  HW  HW  OW  
HW  HW  OW  HW  HW  OW  HW  HW  OW  HW  HW  OW  HW  HW  OW  HW  HW  OW  HW  HW  
OW  HW  HW  OW  HW  HW  OW  HW  HW  OW  HW  HW  OW  HW  HW  OW  HW  HW  OW  HW  
HW  OW  HW  HW  OW  HW  HW  OW  HW  HW  OW  HW  HW  OW  HW  HW  OW  HW  HW  OW  
HW  HW  OW  HW  HW  OW  HW  HW  OW  HW  HW  OW  HW  HW  OW  HW  HW  OW  HW  HW  
OW  HW  HW  OW  HW  HW  OW  HW  HW  OW  HW  HW  OW  HW  HW  OW  HW  HW  OW  HW  
HW  OW  HW  HW  OW  HW  HW  OW  HW  HW  OW  HW  HW  OW  HW  HW  OW  HW  HW  OW  
HW  HW  OW  HW  HW  OW  HW  HW  OW  HW  HW  OW  HW  HW  OW  HW  HW  OW  HW  HW  
OW  HW  HW  OW  HW  HW  OW  HW  HW  OW  HW  HW  OW  HW  HW  OW  HW  HW  OW  HW  
HW  OW  HW  HW  OW  HW  HW  OW  HW  HW  OW  HW  HW  OW  HW  HW  OW  HW  HW  OW  
HW  HW  OW  HW  HW  OW  HW  HW  OW  HW  HW  OW  HW  HW  OW  HW  HW  OW  HW  HW  
OW  HW  HW  OW  HW  HW  OW  HW  HW  OW  HW  HW  OW  HW  HW  OW  HW  HW  OW  HW  
HW  OW  HW  HW  OW  HW  HW  OW  HW  HW  OW  HW  HW  OW  HW  HW  OW  HW  HW  OW  
HW  HW  OW  HW  HW  OW  HW  HW  OW  HW  HW  OW  HW  HW  OW  HW  HW  OW  HW  HW  
OW  HW  HW  OW  HW  HW  OW  HW  HW  OW  HW  HW  OW  HW  HW  OW  HW  HW  OW  HW  
HW  OW  HW  HW  OW  HW  HW  OW  HW  HW  OW  HW  HW  OW  HW  HW  OW  HW  HW  OW  
HW  HW  OW  HW  HW  OW  HW  HW  OW  HW  HW  OW  HW  HW  OW  HW  HW  OW  HW  HW  
OW  HW  HW  OW  HW  HW  OW  HW  HW  OW  HW  HW  OW  HW  HW  OW  HW  HW  OW  HW  
HW  OW  HW  HW  OW  HW  HW  OW  HW  HW  OW  HW  HW  OW  HW  HW  OW  HW  HW  OW  
HW  HW  OW  HW  HW  OW  HW  HW  OW  HW  HW  OW  HW  HW  OW  HW  HW  OW  HW  HW  
OW  HW  HW  OW  HW  HW  OW  HW  HW  OW  HW  HW  OW  HW  HW  OW  HW  HW  OW  HW  
HW  OW  HW  HW  OW  HW  HW  OW  HW  HW  OW  HW  HW  OW  HW  HW  OW  HW  HW  OW  
HW  HW  OW  HW  HW  OW  HW  HW  OW  HW  HW  OW  HW  HW  OW  HW  HW  OW  HW  HW  
OW  HW  HW  OW  HW  HW  OW  HW  HW  OW  HW  HW  OW  HW  HW  OW  HW  HW  OW  HW  
HW  OW  HW  HW  OW  HW  HW  OW  HW  HW  OW  HW  HW  OW  HW  HW  OW  HW  HW  OW  
HW  HW  OW  HW  HW  OW  HW  HW  OW  HW  HW  OW  HW  HW  OW  HW  HW  OW  HW  HW  
OW  HW  HW  OW  HW  HW  OW  HW  HW  OW  HW  HW  OW  HW  HW  OW  HW  HW  OW  HW  
HW  OW  HW  HW  OW  HW  HW  OW  HW  HW  OW  HW  HW  OW  HW  HW  OW  HW  HW  OW  
HW  HW  OW  HW  HW  OW  HW  HW  OW  HW  HW  OW  HW  HW  OW  HW  HW  OW  HW  HW  
OW  HW  HW  OW  HW  HW  OW  HW  HW  OW  HW  HW  OW  HW  HW  OW  HW  HW  OW  HW  
HW  OW  HW  HW  OW  HW  HW  OW  HW  HW  OW  HW  HW  OW  HW  HW  OW  HW  HW  OW  
HW  HW  OW  HW  HW  OW  HW  HW  OW  HW  HW  OW  HW  HW  OW  HW  HW  OW  HW  HW  
OW  HW  HW  OW  HW  HW  OW  HW  HW  OW  HW  HW  OW  HW  HW  OW  HW  HW  OW  HW  
HW  OW  HW  HW  OW  HW  HW  OW  HW  HW  OW  HW  HW  OW  HW  HW  OW  HW  HW  OW  
HW  HW  OW  HW  HW  OW  HW  HW  OW  HW  HW  OW  HW  HW  OW  HW  HW  OW  HW  HW  
OW  HW  HW  OW  HW  HW  OW  HW  HW  OW  HW  HW  OW  HW  HW  OW  HW  HW  OW  HW  
HW  OW  HW  HW  OW  HW  HW  OW  HW  HW  OW  HW  HW  OW  HW  HW  OW  HW  HW  OW  
HW  HW  OW  HW  HW  OW  HW  HW  OW  HW  HW  OW  HW  HW  OW  HW  HW  OW  HW  HW  
OW  HW  HW  OW  HW  HW  OW  HW  HW  OW  HW  HW  OW  HW  HW  OW  HW  HW  OW  HW  
HW  OW  HW  HW  OW  HW  HW  OW  HW  HW  OW  HW  HW  OW  HW  HW  OW  HW  HW  OW  
HW  HW  OW  HW  HW  OW  HW  HW  OW  HW  HW  OW  HW  HW  OW  HW  HW  OW  HW  HW  
OW  HW  HW  OW  HW  HW  OW  HW  HW  OW  HW  HW  OW  HW  HW  OW  HW  HW  OW  HW  
HW  OW  HW  HW  OW  HW  HW  OW  HW  HW  OW  HW  HW  OW  HW  HW  OW  HW  HW  OW  
HW  HW  OW  HW  HW  OW  HW  HW  OW  HW  HW  OW  HW  HW  OW  HW  HW  OW  HW  HW  
OW  HW  HW  OW  HW  HW  OW  HW  HW  OW  HW  HW  OW  HW  HW  OW  HW  HW  OW  HW  
HW  OW  HW  HW  OW  HW  HW  OW  HW  HW  OW  HW  HW  OW  HW  HW  OW  HW  HW  OW  
HW  HW  OW  HW  HW  OW  HW  HW  OW  HW  HW  OW  HW  HW  OW  HW  HW  OW  HW  HW  
OW  HW  HW  OW  HW  HW  OW  HW  HW  OW  HW  HW  OW  HW  HW  OW  HW  HW  OW  HW  
HW  OW  HW  HW  OW  HW  HW  OW  HW  HW  OW  HW  HW  OW  HW  HW  OW  HW  HW  OW  
HW  HW  OW  HW  HW  OW  HW  HW  OW  HW  HW  OW  HW  HW  OW  HW  HW  OW  HW  HW  
OW  HW  HW  OW  HW  HW  OW  HW  HW  OW  HW  HW  OW  HW  HW  OW  HW  HW  OW  HW  
HW  OW  HW  HW  OW  HW  HW  OW  HW  HW  OW  HW  HW  OW  HW  HW  OW  HW  HW  OW  
HW  HW  OW  HW  HW  OW  HW  HW  OW  HW  HW  OW  HW  HW  OW  HW  HW  OW  HW  HW  
OW  HW  HW  OW  HW  HW  OW  HW  HW  OW  HW  HW  OW  HW  HW  OW  HW  HW  OW  HW  
HW  OW  HW  HW  OW  HW  HW  OW  HW  HW  OW  HW  HW  OW  HW  HW  OW  HW  HW  OW  
HW  HW  OW  HW  HW  OW  HW  HW  OW  HW  HW  OW  HW  HW  OW  HW  HW  OW  HW  HW  
OW  HW  HW  OW  HW  HW  OW  HW  HW  OW  HW  HW  OW  HW  HW  OW  HW  HW  OW  HW  
HW  OW  HW  HW  OW  HW  HW  OW  HW  HW  OW  HW  HW  OW  HW  HW  OW  HW  HW  OW  
HW  HW  OW  HW  HW  OW  HW  HW  OW  HW  HW  OW  HW  HW  OW  HW  HW  OW  HW  HW  
OW  HW  HW  OW  HW  HW  OW  HW  HW  OW  HW  HW  OW  HW  HW  OW  HW  HW  OW  HW  
HW  OW  HW  HW  OW  HW  HW  OW  HW  HW  OW  HW  HW  OW  HW  HW  OW  HW  HW  OW  
HW  HW  OW  HW  HW  OW  HW  HW  OW  HW  HW  OW  HW  HW  OW  HW  HW  OW  HW  HW  
OW  HW  HW  OW  HW  HW  OW  HW  HW  OW  HW  HW  OW  HW  HW  OW  HW  HW  OW  HW  
HW  OW  HW  HW  OW  HW  HW  OW  HW  HW  OW  HW  HW  OW  HW  HW  OW  HW  HW  OW  
HW  HW  OW  HW  HW  OW  HW  HW  OW  HW  HW  OW  HW  HW  OW  HW  HW  OW  HW  HW  
OW  HW  HW  OW  HW  HW  OW  HW  HW  OW  HW  HW  OW  HW  HW  OW  HW  HW  OW  HW  
HW  OW  HW  HW  OW  HW  HW  OW  HW  HW  OW  HW  HW  OW  HW  HW  OW  HW  HW  OW  
HW  HW  OW  HW  HW  OW  HW  HW  OW  HW  HW  OW  HW  HW  OW  HW  HW  OW  HW  HW  
OW  HW  HW  OW  HW  HW  OW  HW  HW  OW  HW  HW  OW  HW  HW  OW  HW  HW  OW  HW  
HW  OW  HW  HW  OW  HW  HW  OW  HW  HW  OW  HW  HW  OW  HW  HW  OW  HW  HW  OW  
HW  HW  OW  HW  HW  OW  HW  HW  OW  HW  HW  OW  HW  HW  OW  HW  HW  OW  HW  HW  
OW  HW  HW  OW  HW  HW  OW  HW  HW  OW  HW  HW  OW  HW  HW  OW  HW  HW  OW  HW  
HW  OW  HW  HW  OW  HW  HW  OW  HW  HW  OW  HW  HW  OW  HW  HW  OW  HW  HW  OW  
HW  HW  OW  HW  HW  OW  HW  HW  OW  HW  HW  OW  HW  HW  OW  HW  HW  OW  HW  HW  
OW  HW  HW  OW  HW  HW  OW  HW  HW  OW  HW  HW  OW  HW  HW  OW  HW  HW  OW  HW  
HW  OW  HW  HW  OW  HW  HW  OW  HW  HW  OW  HW  HW  OW  HW  HW  OW  HW  HW  OW  
HW  HW  OW  HW  HW  OW  HW  HW  OW  HW  HW  OW  HW  HW  OW  HW  HW  OW  HW  HW  
OW  HW  HW  OW  HW  HW  OW  HW  HW  OW  HW  HW  OW  HW  HW  OW  HW  HW  OW  HW  
HW  OW  HW  HW  OW  HW  HW  OW  HW  HW  OW  HW  HW  OW  HW  HW  OW  HW  HW  OW  
HW  HW  OW  HW  HW  OW  HW  HW  OW  HW  HW  OW  HW  HW  OW  HW  HW  OW  HW  HW  
OW  HW  HW  OW  HW  HW  OW  HW  HW  OW  HW  HW  OW  HW  HW  OW  HW  HW  OW  HW  
HW  OW  HW  HW  OW  HW  HW  OW  HW  HW  OW  HW  HW  OW  HW  HW  OW  HW  HW  OW  
HW  HW  OW  HW  HW  OW  HW  HW  OW  HW  HW  OW  HW  HW  OW  HW  HW  OW  HW  HW  
OW  HW  HW  OW  HW  HW  OW  HW  HW  OW  HW  HW  OW  HW  HW  OW  HW  HW  OW  HW  
HW  OW  HW  HW  OW  HW  HW  OW  HW  HW  OW  HW  HW  OW  HW  HW  OW  HW  HW  OW  
HW  HW  OW  HW  HW  OW  HW  HW  OW  HW  HW  OW  HW  HW  OW  HW  HW  OW  HW  HW  
OW  HW  HW  OW  HW  HW  OW  HW  HW  OW  HW  HW  OW  HW  HW  OW  HW  HW  OW  HW  
HW  OW  HW  HW  OW  HW  HW  OW  HW  HW  OW  HW  HW  OW  HW  HW  OW  HW  HW  OW  
HW  HW  OW  HW  HW  OW  HW  HW  OW  HW  HW  OW  HW  HW  OW  HW  HW  OW  HW  HW  
OW  HW  HW  OW  HW  HW  OW  HW  HW  OW  HW  HW  OW  HW  HW  OW  HW  HW  OW  HW  
HW  OW  HW  HW  OW  HW  HW  OW  HW  HW  OW  HW  HW  OW  HW  HW  OW  HW  HW  OW  
HW  HW  OW  HW  HW  OW  HW  HW  OW  HW  HW  OW  HW  HW  OW  HW  HW  OW  HW  HW  
OW  HW  HW  OW  HW  HW  OW  HW  HW  OW  HW  HW  OW  HW  HW  OW  HW  HW  OW  HW  
HW  OW  HW  HW  OW  HW  HW  OW  HW  HW  OW  HW  HW  OW  HW  HW  OW  HW  HW  OW  
HW  HW  OW  HW  HW  OW  HW  HW  OW  HW  HW  OW  HW  HW  OW  HW  HW  OW  HW  HW  
OW  HW  HW  OW  HW  HW  OW  HW  HW  OW  HW  HW  OW  HW  HW  OW  HW  HW  OW  HW  
HW  OW  HW  HW  OW  HW  HW  OW  HW  HW  OW  HW  HW  OW  HW  HW  OW  HW  HW  OW  
HW  HW  OW  HW  HW  OW  HW  HW  OW  HW  HW  OW  HW  HW  OW  HW  HW  OW  HW  HW  
OW  HW  HW  OW  HW  HW  OW  HW  HW  OW  HW  HW  OW  HW  HW  OW  HW  HW  OW  HW  
HW  OW  HW  HW  OW  HW  HW  OW  HW  HW  OW  HW  HW  OW  HW  HW  OW  HW  HW  OW  
HW  HW  OW  HW  HW  OW  HW  HW  OW  HW  HW  OW  HW  HW  OW  HW  HW  OW  HW  HW  
OW  HW  HW  OW  HW  HW  OW  HW  HW  OW  HW  HW  OW  HW  HW  OW  HW  HW  OW  HW  
HW  OW  HW  HW  OW  HW  HW  OW  HW  HW  OW  HW  HW  OW  HW  HW  OW  HW  HW  OW  
HW  HW  OW  HW  HW  OW  HW  HW  OW  HW  HW  OW  HW  HW  OW  HW  HW  OW  HW  HW  
OW  HW  HW  OW  HW  HW  OW  HW  HW  OW  HW  HW  OW  HW  HW  OW  HW  HW  OW  HW  
HW  OW  HW  HW  OW  HW  HW  OW  HW  HW  OW  HW  HW  OW  HW  HW  OW  HW  HW  OW  
HW  HW  OW  HW  HW  OW  HW  HW  OW  HW  HW  OW  HW  HW  OW  HW  HW  OW  HW  HW  
OW  HW  HW  OW  HW  HW  OW  HW  HW  OW  HW  HW  OW  HW  HW  OW  HW  HW  OW  HW  
HW  OW  HW  HW  OW  HW  HW  OW  HW  HW  OW  HW  HW  OW  HW  HW  OW  HW  HW  OW  
HW  HW  OW  HW  HW  OW  HW  HW  OW  HW  HW  OW  HW  HW  OW  HW  HW  OW  HW  HW  
OW  HW  HW  OW  HW  HW  OW  HW  HW  OW  HW  HW  OW  HW  HW  OW  HW  HW  OW  HW  
HW  OW  HW  HW  OW  HW  HW  OW  HW  HW  OW  HW  HW  OW  HW  HW  OW  HW  HW  OW  
HW  HW  OW  HW  HW  OW  HW  HW  OW  HW  HW  OW  HW  HW  OW  HW  HW  OW  HW  HW  
OW  HW  HW  OW  HW  HW  OW  HW  HW  OW  HW  HW  OW  HW  HW  OW  HW  HW  OW  HW  
HW  OW  HW  HW  OW  HW  HW  OW  HW  HW  OW  HW  HW  OW  HW  HW  OW  HW  HW  OW  
HW  HW  OW  HW  HW  OW  HW  HW  OW  HW  HW  OW  HW  HW  OW  HW  HW  OW  HW  HW  
OW  HW  HW  OW  HW  HW  OW  HW  HW  OW  HW  HW  OW  HW  HW  OW  HW  HW  OW  HW  
HW  OW  HW  HW  OW  HW  HW  OW  HW  HW  OW  HW  HW  OW  HW  HW  OW  HW  HW  OW  
HW  HW  OW  HW  HW  OW  HW  HW  OW  HW  HW  OW  HW  HW  OW  HW  HW  OW  HW  HW  
OW  HW  HW  OW  HW  HW  OW  HW  HW  OW  HW  HW  OW  HW  HW  OW  HW  HW  OW  HW  
HW  OW  HW  HW  OW  HW  HW  OW  HW  HW  OW  HW  HW  OW  HW  HW  OW  HW  HW  OW  
HW  HW  OW  HW  HW  OW  HW  HW  OW  HW  HW  OW  HW  HW  OW  HW  HW  OW  HW  HW  
OW  HW  HW  OW  HW  HW  OW  HW  HW  OW  HW  HW  OW  HW  HW  OW  HW  HW  OW  HW  
HW  OW  HW  HW  OW  HW  HW  OW  HW  HW  OW  HW  HW  OW  HW  HW  OW  HW  HW  OW  
HW  HW  OW  HW  HW  OW  HW  HW  OW  HW  HW  OW  HW  HW  OW  HW  HW  OW  HW  HW  
OW  HW  HW  OW  HW  HW  OW  HW  HW  OW  HW  HW  OW  HW  HW  OW  HW  HW  OW  HW  
HW  OW  HW  HW  OW  HW  HW  OW  HW  HW  OW  HW  HW  OW  HW  HW  OW  HW  HW  OW  
HW  HW  OW  HW  HW  OW  HW  HW  OW  HW  HW  OW  HW  HW  OW  HW  HW  OW  HW  HW  
OW  HW  HW  OW  HW  HW  OW  HW  HW  OW  HW  HW  OW  HW  HW  OW  HW  HW  OW  HW  
HW  OW  HW  HW  OW  HW  HW  OW  HW  HW  OW  HW  HW  OW  HW  HW  OW  HW  HW  OW  
HW  HW  OW  HW  HW  OW  HW  HW  OW  HW  HW  OW  HW  HW  OW  HW  HW  OW  HW  HW  
OW  HW  HW  OW  HW  HW  OW  HW  HW  OW  HW  HW  OW  HW  HW  OW  HW  HW  OW  HW  
HW  OW  HW  HW  OW  HW  HW  OW  HW  HW  OW  HW  HW  OW  HW  HW  OW  HW  HW  OW  
HW  HW  OW  HW  HW  OW  HW  HW  OW  HW  HW  OW  HW  HW  OW  HW  HW  OW  HW  HW  
OW  HW  HW  OW  HW  HW  OW  HW  HW  OW  HW  HW  OW  HW  HW  OW  HW  HW  OW  HW  
HW  OW  HW  HW  OW  HW  HW  OW  HW  HW  OW  HW  HW  OW  HW  HW  OW  HW  HW  OW  
HW  HW  OW  HW  HW  OW  HW  HW  OW  HW  HW  OW  HW  HW  OW  HW  HW  OW  HW  HW  
OW  HW  HW  OW  HW  HW  OW  HW  HW  OW  HW  HW  OW  HW  HW  OW  HW  HW  OW  HW  
HW  OW  HW  HW  OW  HW  HW  OW  HW  HW  OW  HW  HW  OW  HW  HW  OW  HW  HW  OW  
HW  HW  OW  HW  HW  OW  HW  HW  OW  HW  HW  OW  HW  HW  OW  HW  HW  OW  HW  HW  
OW  HW  HW  OW  HW  HW  OW  HW  HW  OW  HW  HW  OW  HW  HW  OW  HW  HW  OW  HW  
HW  OW  HW  HW  OW  HW  HW  OW  HW  HW  OW  HW  HW  OW  HW  HW  OW  HW  HW  OW  
HW  HW  OW  HW  HW  OW  HW  HW  OW  HW  HW  OW  HW  HW  OW  HW  HW  OW  HW  HW  
OW  HW  HW  OW  HW  HW  OW  HW  HW  OW  HW  HW  OW  HW  HW  OW  HW  HW  OW  HW  
HW  OW  HW  HW  OW  HW  HW  OW  HW  HW  OW  HW  HW  OW  HW  HW  OW  HW  HW  OW  
HW  HW  OW  HW  HW  OW  HW  HW  OW  HW  HW  OW  HW  HW  OW  HW  HW  OW  HW  HW  
OW  HW  HW  OW  HW  HW  OW  HW  HW  OW  HW  HW  OW  HW  HW  OW  HW  HW  OW  HW  
HW  OW  HW  HW  OW  HW  HW  OW  HW  HW  OW  HW  HW  OW  HW  HW  OW  HW  HW  OW  
HW  HW  OW  HW  HW  OW  HW  HW  OW  HW  HW  OW  HW  HW  OW  HW  HW  OW  HW  HW  
OW  HW  HW  OW  HW  HW  OW  HW  HW  OW  HW  HW  OW  HW  HW  OW  HW  HW  OW  HW  
HW  OW  HW  HW  OW  HW  HW  OW  HW  HW  OW  HW  HW  OW  HW  HW  OW  HW  HW  OW  
HW  HW  OW  HW  HW  OW  HW  HW  OW  HW  HW  OW  HW  HW  OW  HW  HW  OW  HW  HW  
OW  HW  HW  OW  HW  HW  OW  HW  HW  OW  HW  HW  OW  HW  HW  OW  HW  HW  OW  HW  
HW  OW  HW  HW  OW  HW  HW  OW  HW  HW  OW  HW  HW  OW  HW  HW  OW  HW  HW  OW  
HW  HW  OW  HW  HW  OW  HW  HW  OW  HW  HW  OW  HW  HW  OW  HW  HW  OW  HW  HW  
OW  HW  HW  OW  HW  HW  OW  HW  HW  OW  HW  HW  OW  HW  HW  OW  HW  HW  OW  HW  
HW  OW  HW  HW  OW  HW  HW  OW  HW  HW  OW  HW  HW  OW  HW  HW  OW  HW  HW  OW  
HW  HW  OW  HW  HW  OW  HW  HW  OW  HW  HW  OW  HW  HW  OW  HW  HW  OW  HW  HW  
OW  HW  HW  OW  HW  HW  OW  HW  HW  OW  HW  HW  OW  HW  HW  OW  HW  HW  OW  HW  
HW  OW  HW  HW  OW  HW  HW  OW  HW  HW  OW  HW  HW  OW  HW  HW  OW  HW  HW  OW  
HW  HW  OW  HW  HW  OW  HW  HW  OW  HW  HW  OW  HW  HW  OW  HW  HW  OW  HW  HW  
OW  HW  HW  OW  HW  HW  OW  HW  HW  OW  HW  HW  OW  HW  HW  OW  HW  HW  OW  HW  
HW  OW  HW  HW  OW  HW  HW  OW  HW  HW  OW  HW  HW  OW  HW  HW  OW  HW  HW  OW  
HW  HW  OW  HW  HW  OW  HW  HW  OW  HW  HW  OW  HW  HW  OW  HW  HW  OW  HW  HW  
OW  HW  HW  OW  HW  HW  OW  HW  HW  OW  HW  HW  OW  HW  HW  OW  HW  HW  OW  HW  
HW  OW  HW  HW  OW  HW  HW  OW  HW  HW  OW  HW  HW  OW  HW  HW  OW  HW  HW  OW  
HW  HW  OW  HW  HW  OW  HW  HW  OW  HW  HW  OW  HW  HW  OW  HW  HW  OW  HW  HW  
OW  HW  HW  OW  HW  HW  OW  HW  HW  OW  HW  HW  OW  HW  HW  OW  HW  HW  OW  HW  
HW  OW  HW  HW  OW  HW  HW  OW  HW  HW  OW  HW  HW  OW  HW  HW  OW  HW  HW  OW  
HW  HW  OW  HW  HW  OW  HW  HW  OW  HW  HW  OW  HW  HW  OW  HW  HW  OW  HW  HW  
OW  HW  HW  OW  HW  HW  OW  HW  HW  OW  HW  HW  OW  HW  HW  OW  HW  HW  OW  HW  
HW  OW  HW  HW  OW  HW  HW  OW  HW  HW  OW  HW  HW  OW  HW  HW  OW  HW  HW  OW  
HW  HW  OW  HW  HW  OW  HW  HW  OW  HW  HW  OW  HW  HW  OW  HW  HW  OW  HW  HW  
OW  HW  HW  OW  HW  HW  OW  HW  HW  OW  HW  HW  OW  HW  HW  OW  HW  HW  OW  HW  
HW  OW  HW  HW  OW  HW  HW  OW  HW  HW  OW  HW  HW  OW  HW  HW  OW  HW  HW  OW  
HW  HW  OW  HW  HW  OW  HW  HW  OW  HW  HW  OW  HW  HW  OW  HW  HW  OW  HW  HW  
OW  HW  HW  OW  HW  HW  OW  HW  HW  OW  HW  HW  OW  HW  HW  OW  HW  HW  OW  HW  
HW  OW  HW  HW  OW  HW  HW  OW  HW  HW  OW  HW  HW  OW  HW  HW  OW  HW  HW  OW  
HW  HW  OW  HW  HW  OW  HW  HW  OW  HW  HW  OW  HW  HW  OW  HW  HW  OW  HW  HW  
OW  HW  HW  OW  HW  HW  OW  HW  HW  OW  HW  HW  OW  HW  HW  OW  HW  HW  OW  HW  
HW  OW  HW  HW  OW  HW  HW  OW  HW  HW  OW  HW  HW  OW  HW  HW  OW  HW  HW  OW  
HW  HW  OW  HW  HW  OW  HW  HW  OW  HW  HW  OW  HW  HW  OW  HW  HW  OW  HW  HW  
OW  HW  HW  OW  HW  HW  OW  HW  HW  OW  HW  HW  OW  HW  HW  OW  HW  HW  OW  HW  
HW  OW  HW  HW  OW  HW  HW  OW  HW  HW  OW  HW  HW  OW  HW  HW  OW  HW  HW  OW  
HW  HW  OW  HW  HW  OW  HW  HW  OW  HW  HW  OW  HW  HW  OW  HW  HW  OW  HW  HW  
OW  HW  HW  OW  HW  HW  OW  HW  HW  OW  HW  HW  OW  HW  HW  OW  HW  HW  OW  HW  
HW  OW  HW  HW  OW  HW  HW  OW  HW  HW  OW  HW  HW  OW  HW  HW  OW  HW  HW  OW  
HW  HW  OW  HW  HW  OW  HW  HW  OW  HW  HW  OW  HW  HW  OW  HW  HW  OW  HW  HW  
OW  HW  HW  OW  HW  HW  OW  HW  HW  OW  HW  HW  OW  HW  HW  OW  HW  HW  OW  HW  
HW  OW  HW  HW  OW  HW  HW  OW  HW  HW  OW  HW  HW  OW  HW  HW  OW  HW  HW  OW  
HW  HW  OW  HW  HW  OW  HW  HW  OW  HW  HW  OW  HW  HW  OW  HW  HW  OW  HW  HW  
OW  HW  HW  OW  HW  HW  OW  HW  HW  OW  HW  HW  OW  HW  HW  OW  HW  HW  OW  HW  
HW  OW  HW  HW  OW  HW  HW  OW  HW  HW  OW  HW  HW  OW  HW  HW  OW  HW  HW  OW  
HW  HW  OW  HW  HW  OW  HW  HW  OW  HW  HW  OW  HW  HW  OW  HW  HW  OW  HW  HW  
OW  HW  HW  OW  HW  HW  OW  HW  HW  OW  HW  HW  OW  HW  HW  OW  HW  HW  OW  HW  
HW  OW  HW  HW  OW  HW  HW  OW  HW  HW  OW  HW  HW  OW  HW  HW  OW  HW  HW  OW  
HW  HW  OW  HW  HW  OW  HW  HW  OW  HW  HW  OW  HW  HW  OW  HW  HW  OW  HW  HW  
OW  HW  HW  OW  HW  HW  OW  HW  HW  OW  HW  HW  OW  HW  HW  OW  HW  HW  OW  HW  
HW  OW  HW  HW  OW  HW  HW  OW  HW  HW  OW  HW  HW  OW  HW  HW  OW  HW  HW  OW  
HW  HW  OW  HW  HW  OW  HW  HW  OW  HW  HW  OW  HW  HW  OW  HW  HW  OW  HW  HW  
OW  HW  HW  OW  HW  HW  OW  HW  HW  OW  HW  HW  OW  HW  HW  OW  HW  HW  OW  HW  
HW  OW  HW  HW  OW  HW  HW  OW  HW  HW  OW  HW  HW  OW  HW  HW  OW  HW  HW  OW  
HW  HW  OW  HW  HW  OW  HW  HW  OW  HW  HW  OW  HW  HW  OW  HW  HW  OW  HW  HW  
OW  HW  HW  OW  HW  HW  OW  HW  HW  OW  HW  HW  OW  HW  HW  OW  HW  HW  OW  HW  
HW  OW  HW  HW  OW  HW  HW  OW  HW  HW  OW  HW  HW  OW  HW  HW  OW  HW  HW  OW  
HW  HW  OW  HW  HW  OW  HW  HW  OW  HW  HW  OW  HW  HW  OW  HW  HW  OW  HW  HW  
OW  HW  HW  OW  HW  HW  OW  HW  HW  OW  HW  HW  OW  HW  HW  OW  HW  HW  OW  HW  
HW  OW  HW  HW  OW  HW  HW  OW  HW  HW  OW  HW  HW  OW  HW  HW  OW  HW  HW  OW  
HW  HW  OW  HW  HW  OW  HW  HW  OW  HW  HW  OW  HW  HW  OW  HW  HW  OW  HW  HW  
OW  HW  HW  OW  HW  HW  OW  HW  HW  OW  HW  HW  OW  HW  HW  OW  HW  HW  OW  HW  
HW  OW  HW  HW  OW  HW  HW  OW  HW  HW  OW  HW  HW  OW  HW  HW  OW  HW  HW  OW  
HW  HW  OW  HW  HW  OW  HW  HW  OW  HW  HW  OW  HW  HW  OW  HW  HW  OW  HW  HW  
OW  HW  HW  OW  HW  HW  OW  HW  HW  OW  HW  HW  OW  HW  HW  OW  HW  HW  OW  HW  
HW  OW  HW  HW  OW  HW  HW  OW  HW  HW  OW  HW  HW  OW  HW  HW  OW  HW  HW  OW  
HW  HW  OW  HW  HW  OW  HW  HW  OW  HW  HW  OW  HW  HW  OW  HW  HW  OW  HW  HW  
OW  HW  HW  OW  HW  HW  OW  HW  HW  OW  HW  HW  OW  HW  HW  OW  HW  HW  OW  HW  
HW  OW  HW  HW  OW  HW  HW  OW  HW  HW  OW  HW  HW  OW  HW  HW  OW  HW  HW  OW  
HW  HW  OW  HW  HW  OW  HW  HW  OW  HW  HW  OW  HW  HW  OW  HW  HW  OW  HW  HW  
OW  HW  HW  OW  HW  HW  OW  HW  HW  OW  HW  HW  OW  HW  HW  OW  HW  HW  OW  HW  
HW  OW  HW  HW  OW  HW  HW  OW  HW  HW  OW  HW  HW  OW  HW  HW  OW  HW  HW  OW  
HW  HW  OW  HW  HW  OW  HW  HW  OW  HW  HW  OW  HW  HW  OW  HW  HW  OW  HW  HW  
OW  HW  HW  OW  HW  HW  OW  HW  HW  OW  HW  HW  OW  HW  HW  OW  HW  HW  OW  HW  
HW  OW  HW  HW  OW  HW  HW  OW  HW  HW  OW  HW  HW  OW  HW  HW  OW  HW  HW  OW  
HW  HW  OW  HW  HW  OW  HW  HW  OW  HW  HW  OW  HW  HW  OW  HW  HW  OW  HW  HW  
OW  HW  HW  OW  HW  HW  OW  HW  HW  OW  HW  HW  OW  HW  HW  OW  HW  HW  OW  HW  
HW  OW  HW  HW  OW  HW  HW  OW  HW  HW  OW  HW  HW  OW  HW  HW  OW  HW  HW  OW  
HW  HW  OW  HW  HW  OW  HW  HW  OW  HW  HW  OW  HW  HW  OW  HW  HW  OW  HW  HW  
OW  HW  HW  OW  HW  HW  OW  HW  HW  OW  HW  HW  OW  HW  HW  OW  HW  HW  OW  HW  
HW  OW  HW  HW  OW  HW  HW  OW  HW  HW  OW  HW  HW  OW  HW  HW  OW  HW  HW  OW  
HW  HW  OW  HW  HW  OW  HW  HW  OW  HW  HW  OW  HW  HW  OW  HW  HW  OW  HW  HW  
OW  HW  HW  OW  HW  HW  OW  HW  HW  OW  HW  HW  OW  HW  HW  OW  HW  HW  OW  HW  
HW  OW  HW  HW  OW  HW  HW  OW  HW  HW  OW  HW  HW  OW  HW  HW  OW  HW  HW  OW  
HW  HW  OW  HW  HW  OW  HW  HW  OW  HW  HW  OW  HW  HW  OW  HW  HW  OW  HW  HW  
OW  HW  HW  OW  HW  HW  OW  HW  HW  OW  HW  HW  OW  HW  HW  OW  HW  HW  OW  HW  
HW  OW  HW  HW  OW  HW  HW  OW  HW  HW  OW  HW  HW  OW  HW  HW  OW  HW  HW  OW  
HW  HW  OW  HW  HW  OW  HW  HW  OW  HW  HW  OW  HW  HW  OW  HW  HW  OW  HW  HW  
OW  HW  HW  OW  HW  HW  OW  HW  HW  OW  HW  HW  OW  HW  HW  OW  HW  HW  OW  HW  
HW  OW  HW  HW  OW  HW  HW  OW  HW  HW  OW  HW  HW  OW  HW  HW  OW  HW  HW  OW  
HW  HW  OW  HW  HW  OW  HW  HW  OW  HW  HW  OW  HW  HW  OW  HW  HW  OW  HW  HW  
OW  HW  HW  OW  HW  HW  OW  HW  HW  OW  HW  HW  OW  HW  HW  OW  HW  HW  OW  HW  
HW  OW  HW  HW  OW  HW  HW  OW  HW  HW  OW  HW  HW  OW  HW  HW  OW  HW  HW  OW  
HW  HW  OW  HW  HW  OW  HW  HW  OW  HW  HW  OW  HW  HW  OW  HW  HW  OW  HW  HW  
OW  HW  HW  OW  HW  HW  OW  HW  HW  OW  HW  HW  OW  HW  HW  OW  HW  HW  OW  HW  
HW  OW  HW  HW  OW  HW  HW  OW  HW  HW  OW  HW  HW  OW  HW  HW  OW  HW  HW  OW  
HW  HW  OW  HW  HW  OW  HW  HW  OW  HW  HW  OW  HW  HW  OW  HW  HW  OW  HW  HW  
OW  HW  HW  OW  HW  HW  OW  HW  HW  OW  HW  HW  OW  HW  HW  OW  HW  HW  OW  HW  
HW  OW  HW  HW  OW  HW  HW  OW  HW  HW  OW  HW  HW  OW  HW  HW  OW  HW  HW  OW  
HW  HW  OW  HW  HW  OW  HW  HW  OW  HW  HW  OW  HW  HW  OW  HW  HW  OW  HW  HW  
OW  HW  HW  OW  HW  HW  OW  HW  HW  OW  HW  HW  OW  HW  HW  OW  HW  HW  OW  HW  
HW  OW  HW  HW  OW  HW  HW  OW  HW  HW  OW  HW  HW  OW  HW  HW  OW  HW  HW  OW  
HW  HW  OW  HW  HW  OW  HW  HW  OW  HW  HW  OW  HW  HW  OW  HW  HW  OW  HW  HW  
OW  HW  HW  OW  HW  HW  OW  HW  HW  OW  HW  HW  OW  HW  HW  OW  HW  HW  OW  HW  
HW  OW  HW  HW  OW  HW  HW  OW  HW  HW  OW  HW  HW  OW  HW  HW  OW  HW  HW  OW  
HW  HW  OW  HW  HW  OW  HW  HW  OW  HW  HW  OW  HW  HW  OW  HW  HW  OW  HW  HW  
OW  HW  HW  OW  HW  HW  OW  HW  HW  OW  HW  HW  OW  HW  HW  OW  HW  HW  OW  HW  
HW  OW  HW  HW  OW  HW  HW  OW  HW  HW  OW  HW  HW  OW  HW  HW  OW  HW  HW  OW  
HW  HW  OW  HW  HW  OW  HW  HW  OW  HW  HW  OW  HW  HW  OW  HW  HW  OW  HW  HW  
OW  HW  HW  OW  HW  HW  OW  HW  HW  OW  HW  HW  OW  HW  HW  OW  HW  HW  OW  HW  
HW  OW  HW  HW  OW  HW  HW  OW  HW  HW  OW  HW  HW  OW  HW  HW  OW  HW  HW  OW  
HW  HW  OW  HW  HW  OW  HW  HW  OW  HW  HW  OW  HW  HW  OW  HW  HW  OW  HW  HW  
OW  HW  HW  OW  HW  HW  OW  HW  HW  OW  HW  HW  OW  HW  HW  OW  HW  HW  OW  HW  
HW  OW  HW  HW  OW  HW  HW  OW  HW  HW  OW  HW  HW  OW  HW  HW  OW  HW  HW  OW  
HW  HW  OW  HW  HW  OW  HW  HW  OW  HW  HW  OW  HW  HW  OW  HW  HW  OW  HW  HW  
OW  HW  HW  OW  HW  HW  OW  HW  HW  OW  HW  HW  OW  HW  HW  OW  HW  HW  OW  HW  
HW  OW  HW  HW  OW  HW  HW  OW  HW  HW  OW  HW  HW  OW  HW  HW  OW  HW  HW  OW  
HW  HW  OW  HW  HW  OW  HW  HW  OW  HW  HW  OW  HW  HW  OW  HW  HW  OW  HW  HW  
OW  HW  HW  OW  HW  HW  OW  HW  HW  OW  HW  HW  OW  HW  HW  OW  HW  HW  OW  HW  
HW  OW  HW  HW  OW  HW  HW  OW  HW  HW  OW  HW  HW  OW  HW  HW  OW  HW  HW  OW  
HW  HW  OW  HW  HW  OW  HW  HW  OW  HW  HW  OW  HW  HW  OW  HW  HW  OW  HW  HW  
OW  HW  HW  OW  HW  HW  OW  HW  HW  OW  HW  HW  OW  HW  HW  OW  HW  HW  OW  HW  
HW  OW  HW  HW  OW  HW  HW  OW  HW  HW  OW  HW  HW  OW  HW  HW  OW  HW  HW  OW  
HW  HW  OW  HW  HW  OW  HW  HW  OW  HW  HW  OW  HW  HW  OW  HW  HW  OW  HW  HW  
OW  HW  HW  OW  HW  HW  OW  HW  HW  OW  HW  HW  OW  HW  HW  OW  HW  HW  OW  HW  
HW  OW  HW  HW  OW  HW  HW  OW  HW  HW  OW  HW  HW  OW  HW  HW  OW  HW  HW  OW  
HW  HW  OW  HW  HW  OW  HW  HW  OW  HW  HW  OW  HW  HW  OW  HW  HW  OW  HW  HW  
OW  HW  HW  OW  HW  HW  OW  HW  HW  OW  HW  HW  OW  HW  HW  OW  HW  HW  OW  HW  
HW  OW  HW  HW  OW  HW  HW  OW  HW  HW  OW  HW  HW  OW  HW  HW  OW  HW  HW  OW  
HW  HW  OW  HW  HW  OW  HW  HW  OW  HW  HW  OW  HW  HW  OW  HW  HW  OW  HW  HW  
OW  HW  HW  OW  HW  HW  OW  HW  HW  OW  HW  HW  OW  HW  HW  OW  HW  HW  OW  HW  
HW  OW  HW  HW  OW  HW  HW  OW  HW  HW  OW  HW  HW  OW  HW  HW  OW  HW  HW  OW  
HW  HW  OW  HW  HW  OW  HW  HW  OW  HW  HW  OW  HW  HW  OW  HW  HW  OW  HW  HW  
OW  HW  HW  OW  HW  HW  OW  HW  HW  OW  HW  HW  OW  HW  HW  OW  HW  HW  OW  HW  
HW  OW  HW  HW  OW  HW  HW  OW  HW  HW  OW  HW  HW  OW  HW  HW  OW  HW  HW  OW  
HW  HW  OW  HW  HW  OW  HW  HW  OW  HW  HW  OW  HW  HW  OW  HW  HW  OW  HW  HW  
OW  HW  HW  OW  HW  HW  OW  HW  HW  OW  HW  HW  OW  HW  HW  OW  HW  HW  OW  HW  
HW  OW  HW  HW  OW  HW  HW  OW  HW  HW  OW  HW  HW  OW  HW  HW  OW  HW  HW  OW  
HW  HW  OW  HW  HW  OW  HW  HW  OW  HW  HW  OW  HW  HW  OW  HW  HW  OW  HW  HW  
OW  HW  HW  OW  HW  HW  OW  HW  HW  OW  HW  HW  OW  HW  HW  OW  HW  HW  OW  HW  
HW  OW  HW  HW  OW  HW  HW  OW  HW  HW  OW  HW  HW  OW  HW  HW  OW  HW  HW  OW  
HW  HW  OW  HW  HW  OW  HW  HW  OW  HW  HW  OW  HW  HW  OW  HW  HW  OW  HW  HW  
OW  HW  HW  OW  HW  HW  OW  HW  HW  OW  HW  HW  OW  HW  HW  OW  HW  HW  OW  HW  
HW  OW  HW  HW  OW  HW  HW  OW  HW  HW  OW  HW  HW  OW  HW  HW  OW  HW  HW  OW  
HW  HW  OW  HW  HW  OW  HW  HW  OW  HW  HW  OW  HW  HW  OW  HW  HW  OW  HW  HW  
OW  HW  HW  OW  HW  HW  OW  HW  HW  OW  HW  HW  OW  HW  HW  OW  HW  HW  OW  HW  
HW  OW  HW  HW  OW  HW  HW  OW  HW  HW  OW  HW  HW  OW  HW  HW  OW  HW  HW  OW  
HW  HW  OW  HW  HW  OW  HW  HW  OW  HW  HW  OW  HW  HW  OW  HW  HW  OW  HW  HW  
OW  HW  HW  OW  HW  HW  OW  HW  HW  OW  HW  HW  OW  HW  HW  OW  HW  HW  OW  HW  
HW  OW  HW  HW  OW  HW  HW  OW  HW  HW  OW  HW  HW  OW  HW  HW  OW  HW  HW  OW  
HW  HW  OW  HW  HW  OW  HW  HW  OW  HW  HW  OW  HW  HW  OW  HW  HW  OW  HW  HW  
OW  HW  HW  OW  HW  HW  OW  HW  HW  OW  HW  HW  OW  HW  HW  OW  HW  HW  OW  HW  
HW  OW  HW  HW  OW  HW  HW  OW  HW  HW  OW  HW  HW  OW  HW  HW  OW  HW  HW  OW  
HW  HW  OW  HW  HW  OW  HW  HW  OW  HW  HW  OW  HW  HW  OW  HW  HW  OW  HW  HW  
OW  HW  HW  OW  HW  HW  OW  HW  HW  OW  HW  HW  OW  HW  HW  OW  HW  HW  OW  HW  
HW  OW  HW  HW  OW  HW  HW  OW  HW  HW  OW  HW  HW  OW  HW  HW  OW  HW  HW  OW  
HW  HW  OW  HW  HW  OW  HW  HW  OW  HW  HW  OW  HW  HW  OW  HW  HW  OW  HW  HW  
OW  HW  HW  OW  HW  HW  OW  HW  HW  OW  HW  HW  OW  HW  HW  OW  HW  HW  OW  HW  
HW  OW  HW  HW  OW  HW  HW  OW  HW  HW  OW  HW  HW  OW  HW  HW  OW  HW  HW  OW  
HW  HW  OW  HW  HW  OW  HW  HW  OW  HW  HW  OW  HW  HW  OW  HW  HW  OW  HW  HW  
OW  HW  HW  OW  HW  HW  OW  HW  HW  OW  HW  HW  OW  HW  HW  OW  HW  HW  OW  HW  
HW  OW  HW  HW  OW  HW  HW  OW  HW  HW  OW  HW  HW  OW  HW  HW  OW  HW  HW  OW  
HW  HW  OW  HW  HW  OW  HW  HW  OW  HW  HW  OW  HW  HW  OW  HW  HW  OW  HW  HW  
OW  HW  HW  OW  HW  HW  OW  HW  HW  OW  HW  HW  OW  HW  HW  OW  HW  HW  OW  HW  
HW  OW  HW  HW  OW  HW  HW  OW  HW  HW  OW  HW  HW  OW  HW  HW  OW  HW  HW  OW  
HW  HW  OW  HW  HW  OW  HW  HW  OW  HW  HW  OW  HW  HW  OW  HW  HW  OW  HW  HW  
OW  HW  HW  OW  HW  HW  OW  HW  HW  OW  HW  HW  OW  HW  HW  OW  HW  HW  OW  HW  
HW  OW  HW  HW  OW  HW  HW  OW  HW  HW  OW  HW  HW  OW  HW  HW  OW  HW  HW  OW  
HW  HW  OW  HW  HW  OW  HW  HW  OW  HW  HW  OW  HW  HW  OW  HW  HW  OW  HW  HW  
OW  HW  HW  OW  HW  HW  OW  HW  HW  OW  HW  HW  OW  HW  HW  OW  HW  HW  OW  HW  
HW  OW  HW  HW  OW  HW  HW  OW  HW  HW  OW  HW  HW  OW  HW  HW  OW  HW  HW  OW  
HW  HW  OW  HW  HW  OW  HW  HW  OW  HW  HW  OW  HW  HW  OW  HW  HW  OW  HW  HW  
OW  HW  HW  OW  HW  HW  OW  HW  HW  OW  HW  HW  OW  HW  HW  OW  HW  HW  OW  HW  
HW  OW  HW  HW  OW  HW  HW  OW  HW  HW  OW  HW  HW  OW  HW  HW  OW  HW  HW  OW  
HW  HW  OW  HW  HW  OW  HW  HW  OW  HW  HW  OW  HW  HW  OW  HW  HW  OW  HW  HW  
OW  HW  HW  OW  HW  HW  OW  HW  HW  OW  HW  HW  OW  HW  HW  OW  HW  HW  OW  HW  
HW  OW  HW  HW  OW  HW  HW  OW  HW  HW  OW  HW  HW  OW  HW  HW  OW  HW  HW  OW  
HW  HW  OW  HW  HW  OW  HW  HW  OW  HW  HW  OW  HW  HW  OW  HW  HW  OW  HW  HW  
OW  HW  HW  OW  HW  HW  OW  HW  HW  OW  HW  HW  OW  HW  HW  OW  HW  HW  OW  HW  
HW  OW  HW  HW  OW  HW  HW  OW  HW  HW  OW  HW  HW  OW  HW  HW  OW  HW  HW  OW  
HW  HW  OW  HW  HW  OW  HW  HW  OW  HW  HW  OW  HW  HW  OW  HW  HW  OW  HW  HW  
OW  HW  HW  OW  HW  HW  OW  HW  HW  OW  HW  HW  OW  HW  HW  OW  HW  HW  OW  HW  
HW  OW  HW  HW  OW  HW  HW  OW  HW  HW  OW  HW  HW  OW  HW  HW  OW  HW  HW  OW  
HW  HW  OW  HW  HW  OW  HW  HW  OW  HW  HW  OW  HW  HW  OW  HW  HW  OW  HW  HW  
OW  HW  HW  OW  HW  HW  OW  HW  HW  OW  HW  HW  OW  HW  HW  OW  HW  HW  OW  HW  
HW  OW  HW  HW  OW  HW  HW  OW  HW  HW  OW  HW  HW  OW  HW  HW  OW  HW  HW  OW  
HW  HW  OW  HW  HW  OW  HW  HW  OW  HW  HW  OW  HW  HW  OW  HW  HW  OW  HW  HW  
OW  HW  HW  OW  HW  HW  OW  HW  HW  OW  HW  HW  OW  HW  HW  OW  HW  HW  OW  HW  
HW  OW  HW  HW  OW  HW  HW  OW  HW  HW  OW  HW  HW  OW  HW  HW  OW  HW  HW  OW  
HW  HW  OW  HW  HW  OW  HW  HW  OW  HW  HW  OW  HW  HW  OW  HW  HW  OW  HW  HW  
OW  HW  HW  OW  HW  HW  OW  HW  HW  OW  HW  HW  OW  HW  HW  OW  HW  HW  OW  HW  
HW  OW  HW  HW  OW  HW  HW  OW  HW  HW  OW  HW  HW  OW  HW  HW  OW  HW  HW  OW  
HW  HW  OW  HW  HW  OW  HW  HW  OW  HW  HW  OW  HW  HW  OW  HW  HW  OW  HW  HW  
OW  HW  HW  OW  HW  HW  OW  HW  HW  OW  HW  HW  OW  HW  HW  OW  HW  HW  OW  HW  
HW  OW  HW  HW  OW  HW  HW  OW  HW  HW  OW  HW  HW  OW  HW  HW  OW  HW  HW  OW  
HW  HW  OW  HW  HW  OW  HW  HW  OW  HW  HW  OW  HW  HW  OW  HW  HW  OW  HW  HW  
OW  HW  HW  OW  HW  HW  OW  HW  HW  OW  HW  HW  OW  HW  HW  OW  HW  HW  OW  HW  
HW  OW  HW  HW  OW  HW  HW  OW  HW  HW  OW  HW  HW  OW  HW  HW  OW  HW  HW  OW  
HW  HW  OW  HW  HW  OW  HW  HW  OW  HW  HW  OW  HW  HW  OW  HW  HW  OW  HW  HW  
OW  HW  HW  OW  HW  HW  OW  HW  HW  OW  HW  HW  OW  HW  HW  OW  HW  HW  OW  HW  
HW  OW  HW  HW  OW  HW  HW  OW  HW  HW  OW  HW  HW  OW  HW  HW  OW  HW  HW  OW  
HW  HW  OW  HW  HW  OW  HW  HW  OW  HW  HW  OW  HW  HW  OW  HW  HW  OW  HW  HW  
OW  HW  HW  OW  HW  HW  OW  HW  HW  OW  HW  HW  OW  HW  HW  OW  HW  HW  OW  HW  
HW  OW  HW  HW  OW  HW  HW  OW  HW  HW  OW  HW  HW  OW  HW  HW  OW  HW  HW  OW  
HW  HW  OW  HW  HW  OW  HW  HW  OW  HW  HW  OW  HW  HW  OW  HW  HW  OW  HW  HW  
OW  HW  HW  OW  HW  HW  OW  HW  HW  OW  HW  HW  OW  HW  HW  OW  HW  HW  OW  HW  
HW  OW  HW  HW  OW  HW  HW  OW  HW  HW  OW  HW  HW  OW  HW  HW  OW  HW  HW  OW  
HW  HW  OW  HW  HW  OW  HW  HW  OW  HW  HW  OW  HW  HW  OW  HW  HW  OW  HW  HW  
OW  HW  HW  OW  HW  HW  OW  HW  HW  OW  HW  HW  OW  HW  HW  OW  HW  HW  OW  HW  
HW  OW  HW  HW  OW  HW  HW  OW  HW  HW  OW  HW  HW  OW  HW  HW  OW  HW  HW  OW  
HW  HW  OW  HW  HW  OW  HW  HW  OW  HW  HW  OW  HW  HW  OW  HW  HW  OW  HW  HW  
OW  HW  HW  OW  HW  HW  OW  HW  HW  OW  HW  HW  OW  HW  HW  OW  HW  HW  OW  HW  
HW  OW  HW  HW  OW  HW  HW  OW  HW  HW  OW  HW  HW  OW  HW  HW  OW  HW  HW  OW  
HW  HW  OW  HW  HW  OW  HW  HW  OW  HW  HW  OW  HW  HW  OW  HW  HW  OW  HW  HW  
OW  HW  HW  OW  HW  HW  OW  HW  HW  OW  HW  HW  OW  HW  HW  OW  HW  HW  OW  HW  
HW  OW  HW  HW  OW  HW  HW  OW  HW  HW  OW  HW  HW  OW  HW  HW  OW  HW  HW  OW  
HW  HW  OW  HW  HW  OW  HW  HW  OW  HW  HW  OW  HW  HW  OW  HW  HW  OW  HW  HW  
OW  HW  HW  OW  HW  HW  OW  HW  HW  OW  HW  HW  OW  HW  HW  OW  HW  HW  OW  HW  
HW  OW  HW  HW  OW  HW  HW  OW  HW  HW  OW  HW  HW  OW  HW  HW  OW  HW  HW  OW  
HW  HW  OW  HW  HW  OW  HW  HW  OW  HW  HW  OW  HW  HW  OW  HW  HW  OW  HW  HW  
OW  HW  HW  OW  HW  HW  OW  HW  HW  OW  HW  HW  OW  HW  HW  OW  HW  HW  OW  HW  
HW  OW  HW  HW  OW  HW  HW  OW  HW  HW  OW  HW  HW  OW  HW  HW  OW  HW  HW  OW  
HW  HW  OW  HW  HW  OW  HW  HW  OW  HW  HW  OW  HW  HW  OW  HW  HW  OW  HW  HW  
OW  HW  HW  OW  HW  HW  OW  HW  HW  OW  HW  HW  OW  HW  HW  OW  HW  HW  OW  HW  
HW  OW  HW  HW  OW  HW  HW  OW  HW  HW  OW  HW  HW  OW  HW  HW  OW  HW  HW  OW  
HW  HW  OW  HW  HW  OW  HW  HW  OW  HW  HW  OW  HW  HW  OW  HW  HW  OW  HW  HW  
OW  HW  HW  OW  HW  HW  OW  HW  HW  OW  HW  HW  OW  HW  HW  OW  HW  HW  OW  HW  
HW  OW  HW  HW  OW  HW  HW  OW  HW  HW  OW  HW  HW  OW  HW  HW  OW  HW  HW  OW  
HW  HW  OW  HW  HW  OW  HW  HW  OW  HW  HW  OW  HW  HW  OW  HW  HW  OW  HW  HW  
OW  HW  HW  OW  HW  HW  OW  HW  HW  OW  HW  HW  OW  HW  HW  OW  HW  HW  OW  HW  
HW  OW  HW  HW  OW  HW  HW  OW  HW  HW  OW  HW  HW  OW  HW  HW  OW  HW  HW  OW  
HW  HW  OW  HW  HW  OW  HW  HW  OW  HW  HW  OW  HW  HW  OW  HW  HW  OW  HW  HW  
OW  HW  HW  OW  HW  HW  OW  HW  HW  OW  HW  HW  OW  HW  HW  OW  HW  HW  OW  HW  
HW  OW  HW  HW  OW  HW  HW  OW  HW  HW  OW  HW  HW  OW  HW  HW  OW  HW  HW  OW  
HW  HW  OW  HW  HW  OW  HW  HW  OW  HW  HW  OW  HW  HW  OW  HW  HW  OW  HW  HW  
OW  HW  HW  OW  HW  HW  OW  HW  HW  OW  HW  HW  OW  HW  HW  OW  HW  HW  OW  HW  
HW  OW  HW  HW  OW  HW  HW  OW  HW  HW  OW  HW  HW  OW  HW  HW  OW  HW  HW  OW  
HW  HW  OW  HW  HW  OW  HW  HW  OW  HW  HW  OW  HW  HW  OW  HW  HW  OW  HW  HW  
OW  HW  HW  OW  HW  HW  OW  HW  HW  OW  HW  HW  OW  HW  HW  OW  HW  HW  OW  HW  
HW  OW  HW  HW  OW  HW  HW  OW  HW  HW  OW  HW  HW  OW  HW  HW  OW  HW  HW  OW  
HW  HW  OW  HW  HW  OW  HW  HW  OW  HW  HW  OW  HW  HW  OW  HW  HW  OW  HW  HW  
OW  HW  HW  OW  HW  HW  OW  HW  HW  OW  HW  HW  OW  HW  HW  OW  HW  HW  OW  HW  
HW  OW  HW  HW  OW  HW  HW  OW  HW  HW  OW  HW  HW  OW  HW  HW  OW  HW  HW  OW  
HW  HW  OW  HW  HW  OW  HW  HW  OW  HW  HW  OW  HW  HW  OW  HW  HW  OW  HW  HW  
OW  HW  HW  OW  HW  HW  OW  HW  HW  OW  HW  HW  OW  HW  HW  OW  HW  HW  OW  HW  
HW  OW  HW  HW  OW  HW  HW  OW  HW  HW  OW  HW  HW  OW  HW  HW  OW  HW  HW  OW  
HW  HW  OW  HW  HW  OW  HW  HW  OW  HW  HW  OW  HW  HW  OW  HW  HW  OW  HW  HW  
OW  HW  HW  OW  HW  HW  OW  HW  HW  OW  HW  HW  OW  HW  HW  OW  HW  HW  OW  HW  
HW  OW  HW  HW  OW  HW  HW  OW  HW  HW  OW  HW  HW  OW  HW  HW  OW  HW  HW  OW  
HW  HW  OW  HW  HW  OW  HW  HW  OW  HW  HW  OW  HW  HW  OW  HW  HW  OW  HW  HW  
OW  HW  HW  OW  HW  HW  OW  HW  HW  OW  HW  HW  OW  HW  HW  OW  HW  HW  OW  HW  
HW  OW  HW  HW  OW  HW  HW  OW  HW  HW  OW  HW  HW  OW  HW  HW  OW  HW  HW  OW  
HW  HW  OW  HW  HW  OW  HW  HW  OW  HW  HW  OW  HW  HW  OW  HW  HW  OW  HW  HW  
OW  HW  HW  OW  HW  HW  OW  HW  HW  OW  HW  HW  OW  HW  HW  OW  HW  HW  OW  HW  
HW  OW  HW  HW  OW  HW  HW  OW  HW  HW  OW  HW  HW  OW  HW  HW  OW  HW  HW  OW  
HW  HW  OW  HW  HW  OW  HW  HW  OW  HW  HW  OW  HW  HW  OW  HW  HW  OW  HW  HW  
OW  HW  HW  OW  HW  HW  OW  HW  HW  OW  HW  HW  OW  HW  HW  OW  HW  HW  OW  HW  
HW  OW  HW  HW  OW  HW  HW  OW  HW  HW  OW  HW  HW  OW  HW  HW  OW  HW  HW  OW  
HW  HW  OW  HW  HW  OW  HW  HW  OW  HW  HW  OW  HW  HW  OW  HW  HW  OW  HW  HW  
OW  HW  HW  OW  HW  HW  OW  HW  HW  OW  HW  HW  OW  HW  HW  OW  HW  HW  OW  HW  
HW  OW  HW  HW  OW  HW  HW  OW  HW  HW  OW  HW  HW  OW  HW  HW  OW  HW  HW  OW  
HW  HW  OW  HW  HW  OW  HW  HW  OW  HW  HW  OW  HW  HW  OW  HW  HW  OW  HW  HW  
OW  HW  HW  OW  HW  HW  OW  HW  HW  OW  HW  HW  OW  HW  HW  OW  HW  HW  OW  HW  
HW  OW  HW  HW  OW  HW  HW  OW  HW  HW  OW  HW  HW  OW  HW  HW  OW  HW  HW  OW  
HW  HW  OW  HW  HW  OW  HW  HW  OW  HW  HW  OW  HW  HW  OW  HW  HW  OW  HW  HW  
OW  HW  HW  OW  HW  HW  OW  HW  HW  OW  HW  HW  OW  HW  HW  OW  HW  HW  OW  HW  
HW  OW  HW  HW  OW  HW  HW  OW  HW  HW  OW  HW  HW  OW  HW  HW  OW  HW  HW  OW  
HW  HW  OW  HW  HW  OW  HW  HW  OW  HW  HW  OW  HW  HW  OW  HW  HW  OW  HW  HW  
OW  HW  HW  OW  HW  HW  OW  HW  HW  OW  HW  HW  OW  HW  HW  OW  HW  HW  OW  HW  
HW  OW  HW  HW  OW  HW  HW  OW  HW  HW  OW  HW  HW  OW  HW  HW  OW  HW  HW  OW  
HW  HW  OW  HW  HW  OW  HW  HW  OW  HW  HW  OW  HW  HW  OW  HW  HW  OW  HW  HW  
OW  HW  HW  OW  HW  HW  OW  HW  HW  OW  HW  HW  OW  HW  HW  OW  HW  HW  OW  HW  
HW  OW  HW  HW  OW  HW  HW  OW  HW  HW  OW  HW  HW  OW  HW  HW  OW  HW  HW  OW  
HW  HW  OW  HW  HW  OW  HW  HW  OW  HW  HW  OW  HW  HW  OW  HW  HW  OW  HW  HW  
OW  HW  HW  OW  HW  HW  OW  HW  HW  OW  HW  HW  OW  HW  HW  OW  HW  HW  OW  HW  
HW  OW  HW  HW  OW  HW  HW  OW  HW  HW  OW  HW  HW  OW  HW  HW  OW  HW  HW  OW  
HW  HW  OW  HW  HW  OW  HW  HW  OW  HW  HW  OW  HW  HW  OW  HW  HW  OW  HW  HW  
OW  HW  HW  OW  HW  HW  OW  HW  HW  OW  HW  HW  OW  HW  HW  OW  HW  HW  OW  HW  
HW  OW  HW  HW  OW  HW  HW  OW  HW  HW  OW  HW  HW  OW  HW  HW  OW  HW  HW  OW  
HW  HW  OW  HW  HW  OW  HW  HW  OW  HW  HW  OW  HW  HW  OW  HW  HW  OW  HW  HW  
OW  HW  HW  OW  HW  HW  OW  HW  HW  OW  HW  HW  OW  HW  HW  OW  HW  HW  OW  HW  
HW  OW  HW  HW  OW  HW  HW  OW  HW  HW  OW  HW  HW  OW  HW  HW  OW  HW  HW  OW  
HW  HW  OW  HW  HW  OW  HW  HW  OW  HW  HW  OW  HW  HW  OW  HW  HW  OW  HW  HW  
OW  HW  HW  OW  HW  HW  OW  HW  HW  OW  HW  HW  OW  HW  HW  OW  HW  HW  OW  HW  
HW  OW  HW  HW  OW  HW  HW  OW  HW  HW  OW  HW  HW  OW  HW  HW  OW  HW  HW  OW  
HW  HW  OW  HW  HW  OW  HW  HW  OW  HW  HW  OW  HW  HW  OW  HW  HW  OW  HW  HW  
OW  HW  HW  OW  HW  HW  OW  HW  HW  OW  HW  HW  OW  HW  HW  OW  HW  HW  OW  HW  
HW  OW  HW  HW  OW  HW  HW  OW  HW  HW  OW  HW  HW  OW  HW  HW  OW  HW  HW  OW  
HW  HW  OW  HW  HW  OW  HW  HW  OW  HW  HW  OW  HW  HW  OW  HW  HW  OW  HW  HW  
OW  HW  HW  OW  HW  HW  OW  HW  HW  OW  HW  HW  OW  HW  HW  OW  HW  HW  OW  HW  
HW  OW  HW  HW  OW  HW  HW  OW  HW  HW  OW  HW  HW  OW  HW  HW  OW  HW  HW  OW  
HW  HW  OW  HW  HW  OW  HW  HW  OW  HW  HW  OW  HW  HW  OW  HW  HW  OW  HW  HW  
OW  HW  HW  OW  HW  HW  OW  HW  HW  OW  HW  HW  OW  HW  HW  OW  HW  HW  OW  HW  
HW  OW  HW  HW  OW  HW  HW  OW  HW  HW  OW  HW  HW  OW  HW  HW  OW  HW  HW  OW  
HW  HW  OW  HW  HW  OW  HW  HW  OW  HW  HW  OW  HW  HW  OW  HW  HW  OW  HW  HW  
OW  HW  HW  OW  HW  HW  OW  HW  HW  OW  HW  HW  OW  HW  HW  OW  HW  HW  OW  HW  
HW  OW  HW  HW  OW  HW  HW  OW  HW  HW  OW  HW  HW  OW  HW  HW  OW  HW  HW  OW  
HW  HW  OW  HW  HW  OW  HW  HW  OW  HW  HW  OW  HW  HW  OW  HW  HW  OW  HW  HW  
OW  HW  HW  OW  HW  HW  OW  HW  HW  OW  HW  HW  OW  HW  HW  OW  HW  HW  OW  HW  
HW  OW  HW  HW  OW  HW  HW  OW  HW  HW  OW  HW  HW  OW  HW  HW  OW  HW  HW  OW  
HW  HW  OW  HW  HW  OW  HW  HW  OW  HW  HW  OW  HW  HW  OW  HW  HW  OW  HW  HW  
OW  HW  HW  OW  HW  HW  OW  HW  HW  OW  HW  HW  OW  HW  HW  OW  HW  HW  OW  HW  
HW  OW  HW  HW  OW  HW  HW  OW  HW  HW  OW  HW  HW  OW  HW  HW  OW  HW  HW  OW  
HW  HW  OW  HW  HW  OW  HW  HW  OW  HW  HW  OW  HW  HW  OW  HW  HW  OW  HW  HW  
OW  HW  HW  OW  HW  HW  OW  HW  HW  OW  HW  HW  OW  HW  HW  OW  HW  HW  OW  HW  
HW  OW  HW  HW  OW  HW  HW  OW  HW  HW  OW  HW  HW  OW  HW  HW  OW  HW  HW  OW  
HW  HW  OW  HW  HW  OW  HW  HW  OW  HW  HW  OW  HW  HW  OW  HW  HW  OW  HW  HW  
OW  HW  HW  OW  HW  HW  OW  HW  HW  OW  HW  HW  OW  HW  HW  OW  HW  HW  OW  HW  
HW  OW  HW  HW  OW  HW  HW  OW  HW  HW  OW  HW  HW  OW  HW  HW  OW  HW  HW  OW  
HW  HW  OW  HW  HW  OW  HW  HW  OW  HW  HW  OW  HW  HW  OW  HW  HW  OW  HW  HW  
OW  HW  HW  OW  HW  HW  OW  HW  HW  OW  HW  HW  OW  HW  HW  OW  HW  HW  OW  HW  
HW  OW  HW  HW  OW  HW  HW  OW  HW  HW  OW  HW  HW  OW  HW  HW  OW  HW  HW  OW  
HW  HW  OW  HW  HW  OW  HW  HW  OW  HW  HW  OW  HW  HW  OW  HW  HW  OW  HW  HW  
OW  HW  HW  OW  HW  HW  OW  HW  HW  OW  HW  HW  OW  HW  HW  OW  HW  HW  OW  HW  
HW  OW  HW  HW  OW  HW  HW  OW  HW  HW  OW  HW  HW  OW  HW  HW  OW  HW  HW  OW  
HW  HW  OW  HW  HW  OW  HW  HW  OW  HW  HW  OW  HW  HW  OW  HW  HW  OW  HW  HW  
OW  HW  HW  OW  HW  HW  OW  HW  HW  OW  HW  HW  OW  HW  HW  OW  HW  HW  OW  HW  
HW  OW  HW  HW  OW  HW  HW  OW  HW  HW  OW  HW  HW  OW  HW  HW  OW  HW  HW  OW  
HW  HW  OW  HW  HW  OW  HW  HW  OW  HW  HW  OW  HW  HW  OW  HW  HW  OW  HW  HW  
OW  HW  HW  OW  HW  HW  OW  HW  HW  OW  HW  HW  OW  HW  HW  OW  HW  HW  OW  HW  
HW  OW  HW  HW  OW  HW  HW  OW  HW  HW  OW  HW  HW  OW  HW  HW  OW  HW  HW  OW  
HW  HW  OW  HW  HW  OW  HW  HW  OW  HW  HW  OW  HW  HW  OW  HW  HW  OW  HW  HW  
OW  HW  HW  OW  HW  HW  OW  HW  HW  OW  HW  HW  OW  HW  HW  OW  HW  HW  OW  HW  
HW  OW  HW  HW  OW  HW  HW  OW  HW  HW  OW  HW  HW  OW  HW  HW  OW  HW  HW  OW  
HW  HW  OW  HW  HW  OW  HW  HW  OW  HW  HW  OW  HW  HW  OW  HW  HW  OW  HW  HW  
OW  HW  HW  OW  HW  HW  OW  HW  HW  OW  HW  HW  OW  HW  HW  OW  HW  HW  OW  HW  
HW  OW  HW  HW  OW  HW  HW  OW  HW  HW  OW  HW  HW  OW  HW  HW  OW  HW  HW  OW  
HW  HW  OW  HW  HW  OW  HW  HW  OW  HW  HW  OW  HW  HW  OW  HW  HW  OW  HW  HW  
OW  HW  HW  OW  HW  HW  OW  HW  HW  OW  HW  HW  OW  HW  HW  OW  HW  HW  OW  HW  
HW  OW  HW  HW  OW  HW  HW  OW  HW  HW  OW  HW  HW  OW  HW  HW  OW  HW  HW  OW  
HW  HW  OW  HW  HW  OW  HW  HW  OW  HW  HW  OW  HW  HW  OW  HW  HW  OW  HW  HW  
OW  HW  HW  OW  HW  HW  OW  HW  HW  OW  HW  HW  OW  HW  HW  OW  HW  HW  OW  HW  
HW  OW  HW  HW  OW  HW  HW  OW  HW  HW  OW  HW  HW  OW  HW  HW  OW  HW  HW  OW  
HW  HW  OW  HW  HW  OW  HW  HW  OW  HW  HW  OW  HW  HW  OW  HW  HW  OW  HW  HW  
OW  HW  HW  OW  HW  HW  OW  HW  HW  OW  HW  HW  OW  HW  HW  OW  HW  HW  OW  HW  
HW  OW  HW  HW  OW  HW  HW  OW  HW  HW  OW  HW  HW  OW  HW  HW  OW  HW  HW  OW  
HW  HW  OW  HW  HW  OW  HW  HW  OW  HW  HW  OW  HW  HW  OW  HW  HW  OW  HW  HW  
OW  HW  HW  OW  HW  HW  OW  HW  HW  OW  HW  HW  OW  HW  HW  OW  HW  HW  OW  HW  
HW  OW  HW  HW  OW  HW  HW  OW  HW  HW  OW  HW  HW  OW  HW  HW  OW  HW  HW  OW  
HW  HW  OW  HW  HW  OW  HW  HW  OW  HW  HW  OW  HW  HW  OW  HW  HW  OW  HW  HW  
OW  HW  HW  OW  HW  HW  OW  HW  HW  OW  HW  HW  OW  HW  HW  OW  HW  HW  OW  HW  
HW  OW  HW  HW  OW  HW  HW  OW  HW  HW  OW  HW  HW  OW  HW  HW  OW  HW  HW  OW  
HW  HW  OW  HW  HW  OW  HW  HW  OW  HW  HW  OW  HW  HW  OW  HW  HW  OW  HW  HW  
OW  HW  HW  OW  HW  HW  OW  HW  HW  OW  HW  HW  OW  HW  HW  OW  HW  HW  OW  HW  
HW  OW  HW  HW  OW  HW  HW  OW  HW  HW  OW  HW  HW  OW  HW  HW  OW  HW  HW  OW  
HW  HW  OW  HW  HW  OW  HW  HW  OW  HW  HW  OW  HW  HW  OW  HW  HW  OW  HW  HW  
OW  HW  HW  OW  HW  HW  OW  HW  HW  OW  HW  HW  OW  HW  HW  OW  HW  HW  OW  HW  
HW  OW  HW  HW  OW  HW  HW  OW  HW  HW  OW  HW  HW  OW  HW  HW  OW  HW  HW  OW  
HW  HW  OW  HW  HW  OW  HW  HW  OW  HW  HW  OW  HW  HW  OW  HW  HW  OW  HW  HW  
OW  HW  HW  OW  HW  HW  OW  HW  HW  OW  HW  HW  OW  HW  HW  OW  HW  HW  OW  HW  
HW  OW  HW  HW  OW  HW  HW  OW  HW  HW  OW  HW  HW  OW  HW  HW  OW  HW  HW  OW  
HW  HW  OW  HW  HW  OW  HW  HW  OW  HW  HW  OW  HW  HW  OW  HW  HW  OW  HW  HW  
OW  HW  HW  OW  HW  HW  OW  HW  HW  OW  HW  HW  OW  HW  HW  OW  HW  HW  OW  HW  
HW  OW  HW  HW  OW  HW  HW  OW  HW  HW  OW  HW  HW  OW  HW  HW  OW  HW  HW  OW  
HW  HW  OW  HW  HW  OW  HW  HW  OW  HW  HW  OW  HW  HW  OW  HW  HW  OW  HW  HW  
OW  HW  HW  OW  HW  HW  OW  HW  HW  OW  HW  HW  OW  HW  HW  OW  HW  HW  OW  HW  
HW  OW  HW  HW  OW  HW  HW  OW  HW  HW  OW  HW  HW  OW  HW  HW  OW  HW  HW  OW  
HW  HW  OW  HW  HW  OW  HW  HW  OW  HW  HW  OW  HW  HW  OW  HW  HW  OW  HW  HW  
OW  HW  HW  OW  HW  HW  OW  HW  HW  OW  HW  HW  OW  HW  HW  OW  HW  HW  OW  HW  
HW  OW  HW  HW  OW  HW  HW  OW  HW  HW  OW  HW  HW  OW  HW  HW  OW  HW  HW  OW  
HW  HW  OW  HW  HW  OW  HW  HW  OW  HW  HW  OW  HW  HW  OW  HW  HW  OW  HW  HW  
OW  HW  HW  OW  HW  HW  OW  HW  HW  OW  HW  HW  OW  HW  HW  OW  HW  HW  OW  HW  
HW  OW  HW  HW  OW  HW  HW  OW  HW  HW  OW  HW  HW  OW  HW  HW  OW  HW  HW  OW  
HW  HW  OW  HW  HW  OW  HW  HW  OW  HW  HW  OW  HW  HW  OW  HW  HW  OW  HW  HW  
OW  HW  HW  OW  HW  HW  OW  HW  HW  OW  HW  HW  OW  HW  HW  OW  HW  HW  OW  HW  
HW  OW  HW  HW  OW  HW  HW  OW  HW  HW  OW  HW  HW  OW  HW  HW  OW  HW  HW  OW  
HW  HW  OW  HW  HW  OW  HW  HW  OW  HW  HW  OW  HW  HW  OW  HW  HW  OW  HW  HW  
OW  HW  HW  OW  HW  HW  OW  HW  HW  OW  HW  HW  OW  HW  HW  OW  HW  HW  OW  HW  
HW  OW  HW  HW  OW  HW  HW  OW  HW  HW  OW  HW  HW  OW  HW  HW  OW  HW  HW  OW  
HW  HW  OW  HW  HW  OW  HW  HW  OW  HW  HW  OW  HW  HW  OW  HW  HW  OW  HW  HW  
OW  HW  HW  OW  HW  HW  OW  HW  HW  OW  HW  HW  OW  HW  HW  OW  HW  HW  OW  HW  
HW  OW  HW  HW  OW  HW  HW  OW  HW  HW  OW  HW  HW  OW  HW  HW  OW  HW  HW  OW  
HW  HW  OW  HW  HW  OW  HW  HW  OW  HW  HW  OW  HW  HW  OW  HW  HW  OW  HW  HW  
OW  HW  HW  OW  HW  HW  OW  HW  HW  OW  HW  HW  OW  HW  HW  OW  HW  HW  OW  HW  
HW  OW  HW  HW  OW  HW  HW  OW  HW  HW  OW  HW  HW  OW  HW  HW  OW  HW  HW  OW  
HW  HW  OW  HW  HW  OW  HW  HW  OW  HW  HW  OW  HW  HW  OW  HW  HW  OW  HW  HW  
OW  HW  HW  OW  HW  HW  OW  HW  HW  OW  HW  HW  OW  HW  HW  OW  HW  HW  OW  HW  
HW  OW  HW  HW  OW  HW  HW  OW  HW  HW  OW  HW  HW  OW  HW  HW  OW  HW  HW  OW  
HW  HW  OW  HW  HW  OW  HW  HW  OW  HW  HW  OW  HW  HW  OW  HW  HW  OW  HW  HW  
OW  HW  HW  OW  HW  HW  OW  HW  HW  OW  HW  HW  OW  HW  HW  OW  HW  HW  OW  HW  
HW  OW  HW  HW  OW  HW  HW  OW  HW  HW  OW  HW  HW  OW  HW  HW  OW  HW  HW  OW  
HW  HW  OW  HW  HW  OW  HW  HW  OW  HW  HW  OW  HW  HW  OW  HW  HW  OW  HW  HW  
OW  HW  HW  OW  HW  HW  OW  HW  HW  OW  HW  HW  OW  HW  HW  OW  HW  HW  OW  HW  
HW  OW  HW  HW  OW  HW  HW  OW  HW  HW  OW  HW  HW  OW  HW  HW  OW  HW  HW  OW  
HW  HW  OW  HW  HW  OW  HW  HW  OW  HW  HW  OW  HW  HW  OW  HW  HW  OW  HW  HW  
OW  HW  HW  OW  HW  HW  OW  HW  HW  OW  HW  HW  OW  HW  HW  OW  HW  HW  OW  HW  
HW  OW  HW  HW  OW  HW  HW  OW  HW  HW  OW  HW  HW  OW  HW  HW  OW  HW  HW  OW  
HW  HW  OW  HW  HW  OW  HW  HW  OW  HW  HW  OW  HW  HW  OW  HW  HW  OW  HW  HW  
OW  HW  HW  OW  HW  HW  OW  HW  HW  OW  HW  HW  OW  HW  HW  OW  HW  HW  OW  HW  
HW  OW  HW  HW  OW  HW  HW  OW  HW  HW  OW  HW  HW  OW  HW  HW  OW  HW  HW  OW  
HW  HW  OW  HW  HW  OW  HW  HW  OW  HW  HW  OW  HW  HW  OW  HW  HW  OW  HW  HW  
OW  HW  HW  OW  HW  HW  OW  HW  HW  OW  HW  HW  OW  HW  HW  OW  HW  HW  OW  HW  
HW  OW  HW  HW  OW  HW  HW  OW  HW  HW  OW  HW  HW  OW  HW  HW  OW  HW  HW  OW  
HW  HW  OW  HW  HW  OW  HW  HW  OW  HW  HW  OW  HW  HW  OW  HW  HW  OW  HW  HW  
OW  HW  HW  OW  HW  HW  OW  HW  HW  OW  HW  HW  OW  HW  HW  OW  HW  HW  OW  HW  
HW  OW  HW  HW  OW  HW  HW  OW  HW  HW  OW  HW  HW  OW  HW  HW  OW  HW  HW  OW  
HW  HW  OW  HW  HW  OW  HW  HW  OW  HW  HW  OW  HW  HW  OW  HW  HW  OW  HW  HW  
OW  HW  HW  OW  HW  HW  OW  HW  HW  OW  HW  HW  OW  HW  HW  OW  HW  HW  OW  HW  
HW  OW  HW  HW  OW  HW  HW  OW  HW  HW  OW  HW  HW  OW  HW  HW  OW  HW  HW  OW  
HW  HW  OW  HW  HW  OW  HW  HW  OW  HW  HW  OW  HW  HW  OW  HW  HW  OW  HW  HW  
OW  HW  HW  OW  HW  HW  OW  HW  HW  OW  HW  HW  OW  HW  HW  OW  HW  HW  OW  HW  
HW  OW  HW  HW  OW  HW  HW  OW  HW  HW  OW  HW  HW  OW  HW  HW  OW  HW  HW  OW  
HW  HW  OW  HW  HW  OW  HW  HW  OW  HW  HW  OW  HW  HW  OW  HW  HW  OW  HW  HW  
OW  HW  HW  OW  HW  HW  OW  HW  HW  OW  HW  HW  OW  HW  HW  OW  HW  HW  OW  HW  
HW  OW  HW  HW  OW  HW  HW  OW  HW  HW  OW  HW  HW  OW  HW  HW  OW  HW  HW  OW  
HW  HW  OW  HW  HW  OW  HW  HW  OW  HW  HW  OW  HW  HW  OW  HW  HW  OW  HW  HW  
OW  HW  HW  OW  HW  HW  OW  HW  HW  OW  HW  HW  OW  HW  HW  OW  HW  HW  OW  HW  
HW  OW  HW  HW  OW  HW  HW  OW  HW  HW  OW  HW  HW  OW  HW  HW  OW  HW  HW  OW  
HW  HW  OW  HW  HW  OW  HW  HW  OW  HW  HW  OW  HW  HW  OW  HW  HW  OW  HW  HW  
OW  HW  HW  OW  HW  HW  OW  HW  HW  OW  HW  HW  OW  HW  HW  OW  HW  HW  OW  HW  
HW  OW  HW  HW  OW  HW  HW  OW  HW  HW  OW  HW  HW  OW  HW  HW  OW  HW  HW  OW  
HW  HW  OW  HW  HW  OW  HW  HW  OW  HW  HW  OW  HW  HW  OW  HW  HW  OW  HW  HW  
OW  HW  HW  OW  HW  HW  OW  HW  HW  OW  HW  HW  OW  HW  HW  OW  HW  HW  OW  HW  
HW  OW  HW  HW  OW  HW  HW  OW  HW  HW  OW  HW  HW  OW  HW  HW  OW  HW  HW  OW  
HW  HW  OW  HW  HW  OW  HW  HW  OW  HW  HW  OW  HW  HW  OW  HW  HW  OW  HW  HW  
OW  HW  HW  OW  HW  HW  OW  HW  HW  OW  HW  HW  OW  HW  HW  OW  HW  HW  OW  HW  
HW  OW  HW  HW  OW  HW  HW  OW  HW  HW  OW  HW  HW  OW  HW  HW  OW  HW  HW  OW  
HW  HW  OW  HW  HW  OW  HW  HW  OW  HW  HW  OW  HW  HW  OW  HW  HW  OW  HW  HW  
OW  HW  HW  OW  HW  HW  OW  HW  HW  OW  HW  HW  OW  HW  HW  OW  HW  HW  OW  HW  
HW  OW  HW  HW  OW  HW  HW  OW  HW  HW  OW  HW  HW  OW  HW  HW  OW  HW  HW  OW  
HW  HW  OW  HW  HW  OW  HW  HW  OW  HW  HW  OW  HW  HW  OW  HW  HW  OW  HW  HW  
OW  HW  HW  OW  HW  HW  OW  HW  HW  OW  HW  HW  OW  HW  HW  OW  HW  HW  OW  HW  
HW  OW  HW  HW  OW  HW  HW  OW  HW  HW  OW  HW  HW  OW  HW  HW  OW  HW  HW  OW  
HW  HW  OW  HW  HW  OW  HW  HW  OW  HW  HW  OW  HW  HW  OW  HW  HW  OW  HW  HW  
OW  HW  HW  OW  HW  HW  OW  HW  HW  OW  HW  HW  OW  HW  HW  OW  HW  HW  OW  HW  
HW  OW  HW  HW  OW  HW  HW  OW  HW  HW  OW  HW  HW  OW  HW  HW  OW  HW  HW  OW  
HW  HW  OW  HW  HW  OW  HW  HW  OW  HW  HW  OW  HW  HW  OW  HW  HW  OW  HW  HW  
OW  HW  HW  OW  HW  HW  OW  HW  HW  OW  HW  HW  OW  HW  HW  OW  HW  HW  OW  HW  
HW  OW  HW  HW  OW  HW  HW  OW  HW  HW  OW  HW  HW  OW  HW  HW  OW  HW  HW  OW  
HW  HW  OW  HW  HW  OW  HW  HW  OW  HW  HW  OW  HW  HW  OW  HW  HW  OW  HW  HW  
OW  HW  HW  OW  HW  HW  OW  HW  HW  OW  HW  HW  OW  HW  HW  OW  HW  HW  OW  HW  
HW  OW  HW  HW  OW  HW  HW  OW  HW  HW  OW  HW  HW  OW  HW  HW  OW  HW  HW  OW  
HW  HW  OW  HW  HW  OW  HW  HW  OW  HW  HW  OW  HW  HW  OW  HW  HW  OW  HW  HW  
OW  HW  HW  OW  HW  HW  OW  HW  HW  OW  HW  HW  OW  HW  HW  OW  HW  HW  OW  HW  
HW  OW  HW  HW  OW  HW  HW  OW  HW  HW  OW  HW  HW  OW  HW  HW  OW  HW  HW  OW  
HW  HW  OW  HW  HW  OW  HW  HW  OW  HW  HW  OW  HW  HW  OW  HW  HW  OW  HW  HW  
OW  HW  HW  OW  HW  HW  OW  HW  HW  OW  HW  HW  OW  HW  HW  OW  HW  HW  OW  HW  
HW  OW  HW  HW  OW  HW  HW  OW  HW  HW  OW  HW  HW  OW  HW  HW  OW  HW  HW  OW  
HW  HW  OW  HW  HW  OW  HW  HW  OW  HW  HW  OW  HW  HW  OW  HW  HW  OW  HW  HW  
OW  HW  HW  OW  HW  HW  OW  HW  HW  OW  HW  HW  OW  HW  HW  OW  HW  HW  OW  HW  
HW  OW  HW  HW  OW  HW  HW  OW  HW  HW  OW  HW  HW  OW  HW  HW  OW  HW  HW  OW  
HW  HW  OW  HW  HW  OW  HW  HW  OW  HW  HW  OW  HW  HW  OW  HW  HW  OW  HW  HW  
OW  HW  HW  OW  HW  HW  OW  HW  HW  OW  HW  HW  OW  HW  HW  OW  HW  HW  OW  HW  
HW  OW  HW  HW  OW  HW  HW  OW  HW  HW  OW  HW  HW  OW  HW  HW  OW  HW  HW  OW  
HW  HW  OW  HW  HW  OW  HW  HW  OW  HW  HW  OW  HW  HW  OW  HW  HW  OW  HW  HW  
OW  HW  HW  OW  HW  HW  OW  HW  HW  OW  HW  HW  OW  HW  HW  OW  HW  HW  OW  HW  
HW  OW  HW  HW  OW  HW  HW  OW  HW  HW  OW  HW  HW  OW  HW  HW  OW  HW  HW  OW  
HW  HW  OW  HW  HW  OW  HW  HW  OW  HW  HW  OW  HW  HW  OW  HW  HW  OW  HW  HW  
OW  HW  HW  OW  HW  HW  OW  HW  HW  OW  HW  HW  OW  HW  HW  OW  HW  HW  OW  HW  
HW  OW  HW  HW  OW  HW  HW  OW  HW  HW  OW  HW  HW  OW  HW  HW  OW  HW  HW  OW  
HW  HW  OW  HW  HW  OW  HW  HW  OW  HW  HW  OW  HW  HW  OW  HW  HW  OW  HW  HW  
OW  HW  HW  OW  HW  HW  OW  HW  HW  OW  HW  HW  OW  HW  HW  OW  HW  HW  OW  HW  
HW  OW  HW  HW  OW  HW  HW  OW  HW  HW  OW  HW  HW  OW  HW  HW  OW  HW  HW  OW  
HW  HW  OW  HW  HW  OW  HW  HW  OW  HW  HW  OW  HW  HW  OW  HW  HW  OW  HW  HW  
OW  HW  HW  OW  HW  HW  OW  HW  HW  OW  HW  HW  OW  HW  HW  OW  HW  HW  OW  HW  
HW  OW  HW  HW  OW  HW  HW  OW  HW  HW  OW  HW  HW  OW  HW  HW  OW  HW  HW  OW  
HW  HW  OW  HW  HW  OW  HW  HW  OW  HW  HW  OW  HW  HW  OW  HW  HW  OW  HW  HW  
OW  HW  HW  OW  HW  HW  OW  HW  HW  OW  HW  HW  OW  HW  HW  OW  HW  HW  OW  HW  
HW  OW  HW  HW  OW  HW  HW  OW  HW  HW  OW  HW  HW  OW  HW  HW  OW  HW  HW  OW  
HW  HW  OW  HW  HW  OW  HW  HW  OW  HW  HW  OW  HW  HW  OW  HW  HW  OW  HW  HW  
OW  HW  HW  OW  HW  HW  OW  HW  HW  OW  HW  HW  OW  HW  HW  OW  HW  HW  OW  HW  
HW  OW  HW  HW  OW  HW  HW  OW  HW  HW  OW  HW  HW  OW  HW  HW  OW  HW  HW  OW  
HW  HW  OW  HW  HW  OW  HW  HW  OW  HW  HW  OW  HW  HW  OW  HW  HW  OW  HW  HW  
OW  HW  HW  OW  HW  HW  OW  HW  HW  OW  HW  HW  OW  HW  HW  OW  HW  HW  OW  HW  
HW  OW  HW  HW  OW  HW  HW  OW  HW  HW  OW  HW  HW  OW  HW  HW  OW  HW  HW  OW  
HW  HW  OW  HW  HW  OW  HW  HW  OW  HW  HW  OW  HW  HW  OW  HW  HW  OW  HW  HW  
OW  HW  HW  OW  HW  HW  OW  HW  HW  OW  HW  HW  OW  HW  HW  OW  HW  HW  OW  HW  
HW  OW  HW  HW  OW  HW  HW  OW  HW  HW  OW  HW  HW  OW  HW  HW  OW  HW  HW  OW  
HW  HW  OW  HW  HW  OW  HW  HW  OW  HW  HW  OW  HW  HW  OW  HW  HW  OW  HW  HW  
OW  HW  HW  OW  HW  HW  OW  HW  HW  OW  HW  HW  OW  HW  HW  OW  HW  HW  OW  HW  
HW  OW  HW  HW  OW  HW  HW  OW  HW  HW  OW  HW  HW  OW  HW  HW  OW  HW  HW  OW  
HW  HW  OW  HW  HW  OW  HW  HW  OW  HW  HW  OW  HW  HW  OW  HW  HW  OW  HW  HW  
OW  HW  HW  OW  HW  HW  OW  HW  HW  OW  HW  HW  OW  HW  HW  OW  HW  HW  OW  HW  
HW  OW  HW  HW  OW  HW  HW  OW  HW  HW  OW  HW  HW  OW  HW  HW  OW  HW  HW  OW  
HW  HW  OW  HW  HW  OW  HW  HW  OW  HW  HW  OW  HW  HW  OW  HW  HW  OW  HW  HW  
OW  HW  HW  OW  HW  HW  OW  HW  HW  OW  HW  HW  OW  HW  HW  OW  HW  HW  OW  HW  
HW  OW  HW  HW  OW  HW  HW  OW  HW  HW  OW  HW  HW  OW  HW  HW  OW  HW  HW  OW  
HW  HW  OW  HW  HW  OW  HW  HW  OW  HW  HW  OW  HW  HW  OW  HW  HW  OW  HW  HW  
OW  HW  HW  OW  HW  HW  OW  HW  HW  OW  HW  HW  OW  HW  HW  OW  HW  HW  OW  HW  
HW  OW  HW  HW  OW  HW  HW  OW  HW  HW  OW  HW  HW  OW  HW  HW  OW  HW  HW  OW  
HW  HW  OW  HW  HW  OW  HW  HW  OW  HW  HW  OW  HW  HW  OW  HW  HW  OW  HW  HW  
OW  HW  HW  OW  HW  HW  OW  HW  HW  OW  HW  HW  OW  HW  HW  OW  HW  HW  OW  HW  
HW  OW  HW  HW  OW  HW  HW  OW  HW  HW  OW  HW  HW  OW  HW  HW  OW  HW  HW  OW  
HW  HW  OW  HW  HW  OW  HW  HW  OW  HW  HW  OW  HW  HW  OW  HW  HW  OW  HW  HW  
OW  HW  HW  OW  HW  HW  OW  HW  HW  OW  HW  HW  OW  HW  HW  OW  HW  HW  OW  HW  
HW  OW  HW  HW  OW  HW  HW  OW  HW  HW  OW  HW  HW  OW  HW  HW  OW  HW  HW  OW  
HW  HW  OW  HW  HW  OW  HW  HW  OW  HW  HW  OW  HW  HW  OW  HW  HW  OW  HW  HW  
OW  HW  HW  OW  HW  HW  OW  HW  HW  OW  HW  HW  OW  HW  HW  OW  HW  HW  OW  HW  
HW  OW  HW  HW  OW  HW  HW  OW  HW  HW  OW  HW  HW  OW  HW  HW  OW  HW  HW  OW  
HW  HW  OW  HW  HW  OW  HW  HW  OW  HW  HW  OW  HW  HW  OW  HW  HW  OW  HW  HW  
OW  HW  HW  OW  HW  HW  OW  HW  HW  OW  HW  HW  OW  HW  HW  OW  HW  HW  OW  HW  
HW  OW  HW  HW  OW  HW  HW  OW  HW  HW  OW  HW  HW  OW  HW  HW  OW  HW  HW  OW  
HW  HW  OW  HW  HW  OW  HW  HW  OW  HW  HW  OW  HW  HW  OW  HW  HW  OW  HW  HW  
OW  HW  HW  OW  HW  HW  OW  HW  HW  OW  HW  HW  OW  HW  HW  OW  HW  HW  OW  HW  
HW  OW  HW  HW  OW  HW  HW  OW  HW  HW  OW  HW  HW  OW  HW  HW  OW  HW  HW  OW  
HW  HW  OW  HW  HW  OW  HW  HW  OW  HW  HW  OW  HW  HW  OW  HW  HW  OW  HW  HW  
OW  HW  HW  OW  HW  HW  OW  HW  HW  OW  HW  HW  OW  HW  HW  OW  HW  HW  OW  HW  
HW  OW  HW  HW  OW  HW  HW  OW  HW  HW  OW  HW  HW  OW  HW  HW  OW  HW  HW  OW  
HW  HW  OW  HW  HW  OW  HW  HW  OW  HW  HW  OW  HW  HW  OW  HW  HW  OW  HW  HW  
OW  HW  HW  OW  HW  HW  OW  HW  HW  OW  HW  HW  OW  HW  HW  OW  HW  HW  OW  HW  
HW  OW  HW  HW  OW  HW  HW  OW  HW  HW  OW  HW  HW  OW  HW  HW  OW  HW  HW  OW  
HW  HW  OW  HW  HW  OW  HW  HW  OW  HW  HW  OW  HW  HW  OW  HW  HW  OW  HW  HW  
OW  HW  HW  OW  HW  HW  OW  HW  HW  OW  HW  HW  OW  HW  HW  OW  HW  HW  OW  HW  
HW  OW  HW  HW  OW  HW  HW  OW  HW  HW  OW  HW  HW  OW  HW  HW  OW  HW  HW  OW  
HW  HW  OW  HW  HW  OW  HW  HW  OW  HW  HW  OW  HW  HW  OW  HW  HW  OW  HW  HW  
OW  HW  HW  OW  HW  HW  OW  HW  HW  OW  HW  HW  OW  HW  HW  OW  HW  HW  OW  HW  
HW  OW  HW  HW  OW  HW  HW  OW  HW  HW  OW  HW  HW  OW  HW  HW  OW  HW  HW  OW  
HW  HW  OW  HW  HW  OW  HW  HW  OW  HW  HW  OW  HW  HW  OW  HW  HW  OW  HW  HW  
OW  HW  HW  OW  HW  HW  OW  HW  HW  OW  HW  HW  OW  HW  HW  OW  HW  HW  OW  HW  
HW  OW  HW  HW  OW  HW  HW  OW  HW  HW  OW  HW  HW  OW  HW  HW  OW  HW  HW  OW  
HW  HW  OW  HW  HW  OW  HW  HW  OW  HW  HW  OW  HW  HW  OW  HW  HW  OW  HW  HW  
OW  HW  HW  OW  HW  HW  OW  HW  HW  OW  HW  HW  OW  HW  HW  OW  HW  HW  OW  HW  
HW  OW  HW  HW  OW  HW  HW  OW  HW  HW  OW  HW  HW  OW  HW  HW  OW  HW  HW  OW  
HW  HW  OW  HW  HW  OW  HW  HW  OW  HW  HW  OW  HW  HW  OW  HW  HW  OW  HW  HW  
OW  HW  HW  OW  HW  HW  OW  HW  HW  OW  HW  HW  OW  HW  HW  OW  HW  HW  OW  HW  
HW  OW  HW  HW  OW  HW  HW  OW  HW  HW  OW  HW  HW  OW  HW  HW  OW  HW  HW  OW  
HW  HW  OW  HW  HW  OW  HW  HW  OW  HW  HW  OW  HW  HW  OW  HW  HW  OW  HW  HW  
OW  HW  HW  OW  HW  HW  OW  HW  HW  OW  HW  HW  OW  HW  HW  OW  HW  HW  OW  HW  
HW  OW  HW  HW  OW  HW  HW  OW  HW  HW  OW  HW  HW  OW  HW  HW  OW  HW  HW  OW  
HW  HW  OW  HW  HW  OW  HW  HW  OW  HW  HW  OW  HW  HW  OW  HW  HW  OW  HW  HW  
OW  HW  HW  OW  HW  HW  OW  HW  HW  OW  HW  HW  OW  HW  HW  OW  HW  HW  OW  HW  
HW  OW  HW  HW  OW  HW  HW  OW  HW  HW  OW  HW  HW  OW  HW  HW  OW  HW  HW  OW  
HW  HW  OW  HW  HW  OW  HW  HW  OW  HW  HW  OW  HW  HW  OW  HW  HW  OW  HW  HW  
OW  HW  HW  OW  HW  HW  OW  HW  HW  OW  HW  HW  OW  HW  HW  OW  HW  HW  OW  HW  
HW  OW  HW  HW  OW  HW  HW  OW  HW  HW  OW  HW  HW  OW  HW  HW  OW  HW  HW  OW  
HW  HW  OW  HW  HW  OW  HW  HW  OW  HW  HW  OW  HW  HW  OW  HW  HW  OW  HW  HW  
OW  HW  HW  OW  HW  HW  OW  HW  HW  OW  HW  HW  OW  HW  HW  OW  HW  HW  OW  HW  
HW  OW  HW  HW  OW  HW  HW  OW  HW  HW  OW  HW  HW  OW  HW  HW  OW  HW  HW  OW  
HW  HW  OW  HW  HW  OW  HW  HW  OW  HW  HW  OW  HW  HW  OW  HW  HW  OW  HW  HW  
OW  HW  HW  OW  HW  HW  OW  HW  HW  OW  HW  HW  OW  HW  HW  OW  HW  HW  OW  HW  
HW  OW  HW  HW  OW  HW  HW  OW  HW  HW  OW  HW  HW  OW  HW  HW  OW  HW  HW  OW  
HW  HW  OW  HW  HW  OW  HW  HW  OW  HW  HW  OW  HW  HW  OW  HW  HW  OW  HW  HW  
OW  HW  HW  OW  HW  HW  OW  HW  HW  OW  HW  HW  OW  HW  HW  OW  HW  HW  OW  HW  
HW  OW  HW  HW  OW  HW  HW  OW  HW  HW  OW  HW  HW  OW  HW  HW  OW  HW  HW  OW  
HW  HW  OW  HW  HW  OW  HW  HW  OW  HW  HW  OW  HW  HW  OW  HW  HW  OW  HW  HW  
OW  HW  HW  OW  HW  HW  OW  HW  HW  OW  HW  HW  OW  HW  HW  OW  HW  HW  OW  HW  
HW  OW  HW  HW  OW  HW  HW  OW  HW  HW  OW  HW  HW  OW  HW  HW  OW  HW  HW  OW  
HW  HW  OW  HW  HW  OW  HW  HW  OW  HW  HW  OW  HW  HW  OW  HW  HW  OW  HW  HW  
OW  HW  HW  OW  HW  HW  OW  HW  HW  OW  HW  HW  OW  HW  HW  OW  HW  HW  OW  HW  
HW  OW  HW  HW  OW  HW  HW  OW  HW  HW  OW  HW  HW  OW  HW  HW  OW  HW  HW  OW  
HW  HW  OW  HW  HW  OW  HW  HW  OW  HW  HW  OW  HW  HW  OW  HW  HW  OW  HW  HW  
OW  HW  HW  OW  HW  HW  OW  HW  HW  OW  HW  HW  OW  HW  HW  OW  HW  HW  OW  HW  
HW  OW  HW  HW  OW  HW  HW  OW  HW  HW  OW  HW  HW  OW  HW  HW  OW  HW  HW  OW  
HW  HW  OW  HW  HW  OW  HW  HW  OW  HW  HW  OW  HW  HW  OW  HW  HW  OW  HW  HW  
OW  HW  HW  OW  HW  HW  OW  HW  HW  OW  HW  HW  OW  HW  HW  OW  HW  HW  OW  HW  
HW  OW  HW  HW  OW  HW  HW  OW  HW  HW  OW  HW  HW  OW  HW  HW  OW  HW  HW  OW  
HW  HW  OW  HW  HW  OW  HW  HW  OW  HW  HW  OW  HW  HW  OW  HW  HW  OW  HW  HW  
OW  HW  HW  OW  HW  HW  OW  HW  HW  OW  HW  HW  OW  HW  HW  OW  HW  HW  OW  HW  
HW  OW  HW  HW  OW  HW  HW  OW  HW  HW  OW  HW  HW  OW  HW  HW  OW  HW  HW  OW  
HW  HW  OW  HW  HW  OW  HW  HW  OW  HW  HW  OW  HW  HW  OW  HW  HW  OW  HW  HW  
OW  HW  HW  OW  HW  HW  OW  HW  HW  OW  HW  HW  OW  HW  HW  OW  HW  HW  OW  HW  
HW  OW  HW  HW  OW  HW  HW  OW  HW  HW  OW  HW  HW  OW  HW  HW  OW  HW  HW  OW  
HW  HW  OW  HW  HW  OW  HW  HW  OW  HW  HW  OW  HW  HW  OW  HW  HW  OW  HW  HW  
OW  HW  HW  OW  HW  HW  OW  HW  HW  OW  HW  HW  OW  HW  HW  OW  HW  HW  OW  HW  
HW  OW  HW  HW  OW  HW  HW  OW  HW  HW  OW  HW  HW  OW  HW  HW  OW  HW  HW  OW  
HW  HW  OW  HW  HW  OW  HW  HW  OW  HW  HW  OW  HW  HW  OW  HW  HW  OW  HW  HW  
OW  HW  HW  OW  HW  HW  OW  HW  HW  OW  HW  HW  OW  HW  HW  OW  HW  HW  OW  HW  
HW  OW  HW  HW  OW  HW  HW  OW  HW  HW  OW  HW  HW  OW  HW  HW  OW  HW  HW  OW  
HW  HW  OW  HW  HW  OW  HW  HW  OW  HW  HW  OW  HW  HW  OW  HW  HW  OW  HW  HW  
OW  HW  HW  OW  HW  HW  OW  HW  HW  OW  HW  HW  OW  HW  HW  OW  HW  HW  OW  HW  
HW  OW  HW  HW  OW  HW  HW  OW  HW  HW  OW  HW  HW  OW  HW  HW  OW  HW  HW  OW  
HW  HW  OW  HW  HW  OW  HW  HW  OW  HW  HW  OW  HW  HW  OW  HW  HW  OW  HW  HW  
OW  HW  HW  OW  HW  HW  OW  HW  HW  OW  HW  HW  OW  HW  HW  OW  HW  HW  OW  HW  
HW  OW  HW  HW  OW  HW  HW  OW  HW  HW  OW  HW  HW  OW  HW  HW  OW  HW  HW  OW  
HW  HW  OW  HW  HW  OW  HW  HW  OW  HW  HW  OW  HW  HW  OW  HW  HW  OW  HW  HW  
OW  HW  HW  OW  HW  HW  OW  HW  HW  OW  HW  HW  OW  HW  HW  OW  HW  HW  OW  HW  
HW  OW  HW  HW  OW  HW  HW  OW  HW  HW  OW  HW  HW  OW  HW  HW  OW  HW  HW  OW  
HW  HW  OW  HW  HW  OW  HW  HW  OW  HW  HW  OW  HW  HW  OW  HW  HW  OW  HW  HW  
OW  HW  HW  OW  HW  HW  OW  HW  HW  OW  HW  HW  OW  HW  HW  OW  HW  HW  OW  HW  
HW  OW  HW  HW  OW  HW  HW  OW  HW  HW  OW  HW  HW  OW  HW  HW  OW  HW  HW  OW  
HW  HW  OW  HW  HW  OW  HW  HW  OW  HW  HW  OW  HW  HW  OW  HW  HW  OW  HW  HW  
OW  HW  HW  OW  HW  HW  OW  HW  HW  OW  HW  HW  OW  HW  HW  OW  HW  HW  OW  HW  
HW  OW  HW  HW  OW  HW  HW  OW  HW  HW  OW  HW  HW  OW  HW  HW  OW  HW  HW  OW  
HW  HW  OW  HW  HW  OW  HW  HW  OW  HW  HW  OW  HW  HW  OW  HW  HW  OW  HW  HW  
OW  HW  HW  OW  HW  HW  OW  HW  HW  OW  HW  HW  OW  HW  HW  OW  HW  HW  OW  HW  
HW  OW  HW  HW  OW  HW  HW  OW  HW  HW  OW  HW  HW  OW  HW  HW  OW  HW  HW  OW  
HW  HW  OW  HW  HW  OW  HW  HW  OW  HW  HW  OW  HW  HW  OW  HW  HW  OW  HW  HW  
OW  HW  HW  OW  HW  HW  OW  HW  HW  OW  HW  HW  OW  HW  HW  OW  HW  HW  OW  HW  
HW  OW  HW  HW  OW  HW  HW  OW  HW  HW  OW  HW  HW  OW  HW  HW  OW  HW  HW  OW  
HW  HW  OW  HW  HW  OW  HW  HW  OW  HW  HW  OW  HW  HW  OW  HW  HW  OW  HW  HW  
OW  HW  HW  OW  HW  HW  OW  HW  HW  OW  HW  HW  OW  HW  HW  OW  HW  HW  OW  HW  
HW  OW  HW  HW  OW  HW  HW  OW  HW  HW  OW  HW  HW  OW  HW  HW  OW  HW  HW  OW  
HW  HW  OW  HW  HW  OW  HW  HW  OW  HW  HW  OW  HW  HW  OW  HW  HW  OW  HW  HW  
OW  HW  HW  OW  HW  HW  OW  HW  HW  OW  HW  HW  OW  HW  HW  OW  HW  HW  OW  HW  
HW  OW  HW  HW  OW  HW  HW  OW  HW  HW  OW  HW  HW  OW  HW  HW  OW  HW  HW  OW  
HW  HW  OW  HW  HW  OW  HW  HW  OW  HW  HW  OW  HW  HW  OW  HW  HW  OW  HW  HW  
OW  HW  HW  OW  HW  HW  OW  HW  HW  OW  HW  HW  OW  HW  HW  OW  HW  HW  OW  HW  
HW  OW  HW  HW  OW  HW  HW  OW  HW  HW  OW  HW  HW  OW  HW  HW  OW  HW  HW  OW  
HW  HW  OW  HW  HW  OW  HW  HW  OW  HW  HW  OW  HW  HW  OW  HW  HW  OW  HW  HW  
OW  HW  HW  OW  HW  HW  OW  HW  HW  OW  HW  HW  OW  HW  HW  OW  HW  HW  OW  HW  
HW  OW  HW  HW  OW  HW  HW  OW  HW  HW  OW  HW  HW  OW  HW  HW  OW  HW  HW  OW  
HW  HW  OW  HW  HW  OW  HW  HW  OW  HW  HW  OW  HW  HW  OW  HW  HW  OW  HW  HW  
OW  HW  HW  OW  HW  HW  OW  HW  HW  OW  HW  HW  OW  HW  HW  OW  HW  HW  OW  HW  
HW  OW  HW  HW  OW  HW  HW  OW  HW  HW  OW  HW  HW  OW  HW  HW  OW  HW  HW  OW  
HW  HW  OW  HW  HW  OW  HW  HW  OW  HW  HW  OW  HW  HW  OW  HW  HW  OW  HW  HW  
OW  HW  HW  OW  HW  HW  OW  HW  HW  OW  HW  HW  OW  HW  HW  OW  HW  HW  OW  HW  
HW  OW  HW  HW  OW  HW  HW  OW  HW  HW  OW  HW  HW  OW  HW  HW  OW  HW  HW  OW  
HW  HW  OW  HW  HW  OW  HW  HW  OW  HW  HW  OW  HW  HW  OW  HW  HW  OW  HW  HW  
OW  HW  HW  OW  HW  HW  OW  HW  HW  OW  HW  HW  OW  HW  HW  OW  HW  HW  OW  HW  
HW  OW  HW  HW  OW  HW  HW  OW  HW  HW  OW  HW  HW  OW  HW  HW  OW  HW  HW  OW  
HW  HW  OW  HW  HW  OW  HW  HW  OW  HW  HW  OW  HW  HW  OW  HW  HW  OW  HW  HW  
OW  HW  HW  OW  HW  HW  OW  HW  HW  OW  HW  HW  OW  HW  HW  OW  HW  HW  OW  HW  
HW  OW  HW  HW  OW  HW  HW  OW  HW  HW  OW  HW  HW  OW  HW  HW  OW  HW  HW  OW  
HW  HW  OW  HW  HW  OW  HW  HW  OW  HW  HW  OW  HW  HW  OW  HW  HW  OW  HW  HW  
OW  HW  HW  OW  HW  HW  OW  HW  HW  OW  HW  HW  OW  HW  HW  OW  HW  HW  OW  HW  
HW  OW  HW  HW  OW  HW  HW  OW  HW  HW  OW  HW  HW  OW  HW  HW  OW  HW  HW  OW  
HW  HW  OW  HW  HW  OW  HW  HW  OW  HW  HW  OW  HW  HW  OW  HW  HW  OW  HW  HW  
OW  HW  HW  OW  HW  HW  OW  HW  HW  OW  HW  HW  OW  HW  HW  OW  HW  HW  OW  HW  
HW  OW  HW  HW  OW  HW  HW  OW  HW  HW  OW  HW  HW  OW  HW  HW  OW  HW  HW  OW  
HW  HW  OW  HW  HW  OW  HW  HW  OW  HW  HW  OW  HW  HW  OW  HW  HW  OW  HW  HW  
OW  HW  HW  OW  HW  HW  OW  HW  HW  OW  HW  HW  OW  HW  HW  OW  HW  HW  OW  HW  
HW  OW  HW  HW  OW  HW  HW  OW  HW  HW  OW  HW  HW  OW  HW  HW  OW  HW  HW  OW  
HW  HW  OW  HW  HW  OW  HW  HW  OW  HW  HW  OW  HW  HW  OW  HW  HW  OW  HW  HW  
OW  HW  HW  OW  HW  HW  OW  HW  HW  OW  HW  HW  OW  HW  HW  OW  HW  HW  OW  HW  
HW  OW  HW  HW  OW  HW  HW  OW  HW  HW  OW  HW  HW  OW  HW  HW  OW  HW  HW  OW  
HW  HW  OW  HW  HW  OW  HW  HW  OW  HW  HW  OW  HW  HW  OW  HW  HW  OW  HW  HW  
OW  HW  HW  OW  HW  HW  OW  HW  HW  OW  HW  HW  OW  HW  HW  OW  HW  HW  OW  HW  
HW  OW  HW  HW  OW  HW  HW  OW  HW  HW  OW  HW  HW  OW  HW  HW  OW  HW  HW  OW  
HW  HW  OW  HW  HW  OW  HW  HW  OW  HW  HW  OW  HW  HW  OW  HW  HW  OW  HW  HW  
OW  HW  HW  OW  HW  HW  OW  HW  HW  OW  HW  HW  OW  HW  HW  OW  HW  HW  OW  HW  
HW  OW  HW  HW  OW  HW  HW  OW  HW  HW  OW  HW  HW  OW  HW  HW  OW  HW  HW  OW  
HW  HW  OW  HW  HW  OW  HW  HW  OW  HW  HW  OW  HW  HW  OW  HW  HW  OW  HW  HW  
OW  HW  HW  OW  HW  HW  OW  HW  HW  OW  HW  HW  OW  HW  HW  OW  HW  HW  OW  HW  
HW  OW  HW  HW  OW  HW  HW  OW  HW  HW  OW  HW  HW  OW  HW  HW  OW  HW  HW  OW  
HW  HW  OW  HW  HW  OW  HW  HW  OW  HW  HW  OW  HW  HW  OW  HW  HW  OW  HW  HW  
OW  HW  HW  OW  HW  HW  OW  HW  HW  OW  HW  HW  OW  HW  HW  OW  HW  HW  OW  HW  
HW  OW  HW  HW  OW  HW  HW  OW  HW  HW  OW  HW  HW  OW  HW  HW  OW  HW  HW  OW  
HW  HW  OW  HW  HW  OW  HW  HW  OW  HW  HW  OW  HW  HW  OW  HW  HW  OW  HW  HW  
OW  HW  HW  OW  HW  HW  OW  HW  HW  OW  HW  HW  OW  HW  HW  OW  HW  HW  OW  HW  
HW  OW  HW  HW  OW  HW  HW  OW  HW  HW  OW  HW  HW  OW  HW  HW  OW  HW  HW  OW  
HW  HW  OW  HW  HW  OW  HW  HW  OW  HW  HW  OW  HW  HW  OW  HW  HW  OW  HW  HW  
OW  HW  HW  OW  HW  HW  OW  HW  HW  OW  HW  HW  OW  HW  HW  OW  HW  HW  OW  HW  
HW  OW  HW  HW  OW  HW  HW  OW  HW  HW  OW  HW  HW  OW  HW  HW  OW  HW  HW  OW  
HW  HW  OW  HW  HW  OW  HW  HW  OW  HW  HW  OW  HW  HW  OW  HW  HW  OW  HW  HW  
OW  HW  HW  OW  HW  HW  OW  HW  HW  OW  HW  HW  OW  HW  HW  OW  HW  HW  OW  HW  
HW  OW  HW  HW  OW  HW  HW  OW  HW  HW  OW  HW  HW  OW  HW  HW  OW  HW  HW  OW  
HW  HW  OW  HW  HW  OW  HW  HW  OW  HW  HW  OW  HW  HW  OW  HW  HW  OW  HW  HW  
OW  HW  HW  OW  HW  HW  OW  HW  HW  OW  HW  HW  OW  HW  HW  OW  HW  HW  OW  HW  
HW  OW  HW  HW  OW  HW  HW  OW  HW  HW  OW  HW  HW  OW  HW  HW  OW  HW  HW  OW  
HW  HW  OW  HW  HW  OW  HW  HW  OW  HW  HW  OW  HW  HW  OW  HW  HW  OW  HW  HW  
OW  HW  HW  OW  HW  HW  OW  HW  HW  OW  HW  HW  OW  HW  HW  OW  HW  HW  OW  HW  
HW  OW  HW  HW  OW  HW  HW  OW  HW  HW  OW  HW  HW  OW  HW  HW  OW  HW  HW  OW  
HW  HW  OW  HW  HW  OW  HW  HW  OW  HW  HW  OW  HW  HW  OW  HW  HW  OW  HW  HW  
OW  HW  HW  OW  HW  HW  OW  HW  HW  OW  HW  HW  OW  HW  HW  OW  HW  HW  OW  HW  
HW  OW  HW  HW  OW  HW  HW  OW  HW  HW  OW  HW  HW  OW  HW  HW  OW  HW  HW  OW  
HW  HW  OW  HW  HW  OW  HW  HW  OW  HW  HW  OW  HW  HW  OW  HW  HW  OW  HW  HW  
OW  HW  HW  OW  HW  HW  OW  HW  HW  OW  HW  HW  OW  HW  HW  OW  HW  HW  OW  HW  
HW  OW  HW  HW  OW  HW  HW  OW  HW  HW  OW  HW  HW  OW  HW  HW  OW  HW  HW  OW  
HW  HW  OW  HW  HW  OW  HW  HW  OW  HW  HW  OW  HW  HW  OW  HW  HW  OW  HW  HW  
OW  HW  HW  OW  HW  HW  OW  HW  HW  OW  HW  HW  OW  HW  HW  OW  HW  HW  OW  HW  
HW  OW  HW  HW  OW  HW  HW  OW  HW  HW  OW  HW  HW  OW  HW  HW  OW  HW  HW  OW  
HW  HW  OW  HW  HW  OW  HW  HW  OW  HW  HW  OW  HW  HW  OW  HW  HW  OW  HW  HW  
OW  HW  HW  OW  HW  HW  OW  HW  HW  OW  HW  HW  OW  HW  HW  OW  HW  HW  OW  HW  
HW  OW  HW  HW  OW  HW  HW  OW  HW  HW  OW  HW  HW  OW  HW  HW  OW  HW  HW  OW  
HW  HW  OW  HW  HW  OW  HW  HW  OW  HW  HW  OW  HW  HW  OW  HW  HW  OW  HW  HW  
OW  HW  HW  OW  HW  HW  OW  HW  HW  OW  HW  HW  OW  HW  HW  OW  HW  HW  OW  HW  
HW  OW  HW  HW  OW  HW  HW  OW  HW  HW  OW  HW  HW  OW  HW  HW  OW  HW  HW  OW  
HW  HW  OW  HW  HW  OW  HW  HW  OW  HW  HW  OW  HW  HW  OW  HW  HW  OW  HW  HW  
OW  HW  HW  OW  HW  HW  OW  HW  HW  OW  HW  HW  OW  HW  HW  OW  HW  HW  OW  HW  
HW  OW  HW  HW  OW  HW  HW  OW  HW  HW  OW  HW  HW  OW  HW  HW  OW  HW  HW  OW  
HW  HW  OW  HW  HW  OW  HW  HW  OW  HW  HW  OW  HW  HW  OW  HW  HW  OW  HW  HW  
OW  HW  HW  OW  HW  HW  OW  HW  HW  OW  HW  HW  OW  HW  HW  OW  HW  HW  OW  HW  
HW  OW  HW  HW  OW  HW  HW  OW  HW  HW  OW  HW  HW  OW  HW  HW  OW  HW  HW  OW  
HW  HW  OW  HW  HW  OW  HW  HW  OW  HW  HW  OW  HW  HW  OW  HW  HW  OW  HW  HW  
OW  HW  HW  OW  HW  HW  OW  HW  HW  OW  HW  HW  OW  HW  HW  OW  HW  HW  OW  HW  
HW  OW  HW  HW  OW  HW  HW  OW  HW  HW  OW  HW  HW  OW  HW  HW  OW  HW  HW  OW  
HW  HW  OW  HW  HW  OW  HW  HW  OW  HW  HW  OW  HW  HW  OW  HW  HW  OW  HW  HW  
OW  HW  HW  OW  HW  HW  OW  HW  HW  OW  HW  HW  OW  HW  HW  OW  HW  HW  OW  HW  
HW  OW  HW  HW  OW  HW  HW  OW  HW  HW  OW  HW  HW  OW  HW  HW  OW  HW  HW  OW  
HW  HW  OW  HW  HW  OW  HW  HW  OW  HW  HW  OW  HW  HW  OW  HW  HW  OW  HW  HW  
OW  HW  HW  OW  HW  HW  OW  HW  HW  OW  HW  HW  OW  HW  HW  OW  HW  HW  OW  HW  
HW  OW  HW  HW  OW  HW  HW  OW  HW  HW  OW  HW  HW  OW  HW  HW  OW  HW  HW  OW  
HW  HW  OW  HW  HW  OW  HW  HW  OW  HW  HW  OW  HW  HW  OW  HW  HW  OW  HW  HW  
OW  HW  HW  OW  HW  HW  OW  HW  HW  OW  HW  HW  OW  HW  HW  OW  HW  HW  OW  HW  
HW  OW  HW  HW  OW  HW  HW  OW  HW  HW  OW  HW  HW  OW  HW  HW  OW  HW  HW  OW  
HW  HW  OW  HW  HW  OW  HW  HW  OW  HW  HW  OW  HW  HW  OW  HW  HW  OW  HW  HW  
OW  HW  HW  OW  HW  HW  OW  HW  HW  OW  HW  HW  OW  HW  HW  OW  HW  HW  OW  HW  
HW  OW  HW  HW  OW  HW  HW  OW  HW  HW  OW  HW  HW  OW  HW  HW  OW  HW  HW  OW  
HW  HW  OW  HW  HW  OW  HW  HW  OW  HW  HW  OW  HW  HW  OW  HW  HW  OW  HW  HW  
OW  HW  HW  OW  HW  HW  OW  HW  HW  OW  HW  HW  OW  HW  HW  OW  HW  HW  OW  HW  
HW  OW  HW  HW  OW  HW  HW  OW  HW  HW  OW  HW  HW  OW  HW  HW  OW  HW  HW  OW  
HW  HW  OW  HW  HW  OW  HW  HW  OW  HW  HW  OW  HW  HW  OW  HW  HW  OW  HW  HW  
OW  HW  HW  OW  HW  HW  OW  HW  HW  OW  HW  HW  OW  HW  HW  OW  HW  HW  OW  HW  
HW  OW  HW  HW  OW  HW  HW  OW  HW  HW  OW  HW  HW  OW  HW  HW  OW  HW  HW  OW  
HW  HW  OW  HW  HW  OW  HW  HW  OW  HW  HW  OW  HW  HW  OW  HW  HW  OW  HW  HW  
OW  HW  HW  OW  HW  HW  OW  HW  HW  OW  HW  HW  OW  HW  HW  OW  HW  HW  OW  HW  
HW  OW  HW  HW  OW  HW  HW  OW  HW  HW  OW  HW  HW  OW  HW  HW  OW  HW  HW  OW  
HW  HW  OW  HW  HW  OW  HW  HW  OW  HW  HW  OW  HW  HW  OW  HW  HW  OW  HW  HW  
OW  HW  HW  OW  HW  HW  OW  HW  HW  OW  HW  HW  OW  HW  HW  OW  HW  HW  OW  HW  
HW  OW  HW  HW  OW  HW  HW  OW  HW  HW  OW  HW  HW  OW  HW  HW  OW  HW  HW  OW  
HW  HW  OW  HW  HW  OW  HW  HW  OW  HW  HW  OW  HW  HW  OW  HW  HW  OW  HW  HW  
OW  HW  HW  OW  HW  HW  OW  HW  HW  OW  HW  HW  OW  HW  HW  OW  HW  HW  OW  HW  
HW  OW  HW  HW  OW  HW  HW  OW  HW  HW  OW  HW  HW  OW  HW  HW  OW  HW  HW  OW  
HW  HW  OW  HW  HW  OW  HW  HW  OW  HW  HW  OW  HW  HW  OW  HW  HW  OW  HW  HW  
OW  HW  HW  OW  HW  HW  OW  HW  HW  OW  HW  HW  OW  HW  HW  OW  HW  HW  OW  HW  
HW  OW  HW  HW  OW  HW  HW  OW  HW  HW  OW  HW  HW  OW  HW  HW  OW  HW  HW  OW  
HW  HW  OW  HW  HW  OW  HW  HW  OW  HW  HW  OW  HW  HW  OW  HW  HW  OW  HW  HW  
OW  HW  HW  OW  HW  HW  OW  HW  HW  OW  HW  HW  OW  HW  HW  OW  HW  HW  OW  HW  
HW  OW  HW  HW  OW  HW  HW  OW  HW  HW  OW  HW  HW  OW  HW  HW  OW  HW  HW  OW  
HW  HW  OW  HW  HW  OW  HW  HW  OW  HW  HW  OW  HW  HW  OW  HW  HW  OW  HW  HW  
OW  HW  HW  OW  HW  HW  OW  HW  HW  OW  HW  HW  OW  HW  HW  OW  HW  HW  OW  HW  
HW  OW  HW  HW  OW  HW  HW  OW  HW  HW  OW  HW  HW  OW  HW  HW  OW  HW  HW  OW  
HW  HW  OW  HW  HW  OW  HW  HW  OW  HW  HW  OW  HW  HW  OW  HW  HW  OW  HW  HW  
OW  HW  HW  OW  HW  HW  OW  HW  HW  OW  HW  HW  OW  HW  HW  OW  HW  HW  OW  HW  
HW  OW  HW  HW  OW  HW  HW  OW  HW  HW  OW  HW  HW  OW  HW  HW  OW  HW  HW  OW  
HW  HW  OW  HW  HW  OW  HW  HW  OW  HW  HW  OW  HW  HW  OW  HW  HW  OW  HW  HW  
OW  HW  HW  OW  HW  HW  OW  HW  HW  OW  HW  HW  OW  HW  HW  OW  HW  HW  OW  HW  
HW  OW  HW  HW  OW  HW  HW  OW  HW  HW  OW  HW  HW  OW  HW  HW  OW  HW  HW  OW  
HW  HW  OW  HW  HW  OW  HW  HW  OW  HW  HW  OW  HW  HW  OW  HW  HW  OW  HW  HW  
OW  HW  HW  OW  HW  HW  OW  HW  HW  OW  HW  HW  OW  HW  HW  OW  HW  HW  OW  HW  
HW  OW  HW  HW  OW  HW  HW  OW  HW  HW  OW  HW  HW  OW  HW  HW  OW  HW  HW  OW  
HW  HW  OW  HW  HW  OW  HW  HW  OW  HW  HW  OW  HW  HW  OW  HW  HW  OW  HW  HW  
OW  HW  HW  OW  HW  HW  OW  HW  HW  OW  HW  HW  OW  HW  HW  OW  HW  HW  OW  HW  
HW  OW  HW  HW  OW  HW  HW  OW  HW  HW  OW  HW  HW  OW  HW  HW  OW  HW  HW  OW  
HW  HW  OW  HW  HW  OW  HW  HW  OW  HW  HW  OW  HW  HW  OW  HW  HW  OW  HW  HW  
OW  HW  HW  OW  HW  HW  OW  HW  HW  OW  HW  HW  OW  HW  HW  OW  HW  HW  OW  HW  
HW  OW  HW  HW  OW  HW  HW  OW  HW  HW  OW  HW  HW  OW  HW  HW  OW  HW  HW  OW  
HW  HW  OW  HW  HW  OW  HW  HW  OW  HW  HW  OW  HW  HW  OW  HW  HW  OW  HW  HW  
OW  HW  HW  OW  HW  HW  OW  HW  HW  OW  HW  HW  OW  HW  HW  OW  HW  HW  OW  HW  
HW  OW  HW  HW  OW  HW  HW  OW  HW  HW  OW  HW  HW  OW  HW  HW  OW  HW  HW  OW  
HW  HW  OW  HW  HW  OW  HW  HW  OW  HW  HW  OW  HW  HW  OW  HW  HW  OW  HW  HW  
OW  HW  HW  OW  HW  HW  OW  HW  HW  OW  HW  HW  OW  HW  HW  OW  HW  HW  OW  HW  
HW  OW  HW  HW  OW  HW  HW  OW  HW  HW  OW  HW  HW  OW  HW  HW  OW  HW  HW  OW  
HW  HW  OW  HW  HW  OW  HW  HW  OW  HW  HW  OW  HW  HW  OW  HW  HW  OW  HW  HW  
OW  HW  HW  OW  HW  HW  OW  HW  HW  OW  HW  HW  OW  HW  HW  OW  HW  HW  OW  HW  
HW  OW  HW  HW  OW  HW  HW  OW  HW  HW  OW  HW  HW  OW  HW  HW  OW  HW  HW  OW  
HW  HW  OW  HW  HW  OW  HW  HW  OW  HW  HW  OW  HW  HW  OW  HW  HW  OW  HW  HW  
OW  HW  HW  OW  HW  HW  OW  HW  HW  OW  HW  HW  OW  HW  HW  OW  HW  HW  OW  HW  
HW  OW  HW  HW  OW  HW  HW  OW  HW  HW  OW  HW  HW  OW  HW  HW  OW  HW  HW  OW  
HW  HW  OW  HW  HW  OW  HW  HW  OW  HW  HW  OW  HW  HW  OW  HW  HW  OW  HW  HW  
OW  HW  HW  OW  HW  HW  OW  HW  HW  OW  HW  HW  OW  HW  HW  OW  HW  HW  OW  HW  
HW  OW  HW  HW  OW  HW  HW  OW  HW  HW  OW  HW  HW  OW  HW  HW  OW  HW  HW  OW  
HW  HW  OW  HW  HW  OW  HW  HW  OW  HW  HW  OW  HW  HW  OW  HW  HW  OW  HW  HW  
OW  HW  HW  OW  HW  HW  OW  HW  HW  OW  HW  HW  OW  HW  HW  OW  HW  HW  OW  HW  
HW  OW  HW  HW  OW  HW  HW  OW  HW  HW  OW  HW  HW  OW  HW  HW  OW  HW  HW  OW  
HW  HW  OW  HW  HW  OW  HW  HW  OW  HW  HW  OW  HW  HW  OW  HW  HW  OW  HW  HW  
OW  HW  HW  OW  HW  HW  OW  HW  HW  OW  HW  HW  OW  HW  HW  OW  HW  HW  OW  HW  
HW  OW  HW  HW  OW  HW  HW  OW  HW  HW  OW  HW  HW  OW  HW  HW  OW  HW  HW  OW  
HW  HW  OW  HW  HW  OW  HW  HW  OW  HW  HW  OW  HW  HW  OW  HW  HW  OW  HW  HW  
OW  HW  HW  OW  HW  HW  OW  HW  HW  OW  HW  HW  OW  HW  HW  OW  HW  HW  OW  HW  
HW  OW  HW  HW  OW  HW  HW  OW  HW  HW  OW  HW  HW  OW  HW  HW  OW  HW  HW  OW  
HW  HW  OW  HW  HW  OW  HW  HW  OW  HW  HW  OW  HW  HW  OW  HW  HW  OW  HW  HW  
OW  HW  HW  OW  HW  HW  OW  HW  HW  OW  HW  HW  OW  HW  HW  OW  HW  HW  OW  HW  
HW  OW  HW  HW  OW  HW  HW  OW  HW  HW  OW  HW  HW  OW  HW  HW  OW  HW  HW  OW  
HW  HW  OW  HW  HW  OW  HW  HW  OW  HW  HW  OW  HW  HW  OW  HW  HW  OW  HW  HW  
OW  HW  HW  OW  HW  HW  OW  HW  HW  OW  HW  HW  OW  HW  HW  OW  HW  HW  OW  HW  
HW  OW  HW  HW  OW  HW  HW  OW  HW  HW  OW  HW  HW  OW  HW  HW  OW  HW  HW  OW  
HW  HW  OW  HW  HW  OW  HW  HW  OW  HW  HW  OW  HW  HW  OW  HW  HW  OW  HW  HW  
OW  HW  HW  OW  HW  HW  OW  HW  HW  OW  HW  HW  OW  HW  HW  OW  HW  HW  OW  HW  
HW  OW  HW  HW  OW  HW  HW  OW  HW  HW  OW  HW  HW  OW  HW  HW  OW  HW  HW  OW  
HW  HW  OW  HW  HW  OW  HW  HW  OW  HW  HW  OW  HW  HW  OW  HW  HW  OW  HW  HW  
OW  HW  HW  OW  HW  HW  OW  HW  HW  OW  HW  HW  OW  HW  HW  OW  HW  HW  OW  HW  
HW  OW  HW  HW  OW  HW  HW  OW  HW  HW  OW  HW  HW  OW  HW  HW  OW  HW  HW  OW  
HW  HW  OW  HW  HW  OW  HW  HW  OW  HW  HW  OW  HW  HW  OW  HW  HW  OW  HW  HW  
OW  HW  HW  OW  HW  HW  OW  HW  HW  OW  HW  HW  OW  HW  HW  OW  HW  HW  OW  HW  
HW  OW  HW  HW  OW  HW  HW  OW  HW  HW  OW  HW  HW  OW  HW  HW  OW  HW  HW  OW  
HW  HW  OW  HW  HW  OW  HW  HW  OW  HW  HW  OW  HW  HW  OW  HW  HW  OW  HW  HW  
OW  HW  HW  OW  HW  HW  OW  HW  HW  OW  HW  HW  OW  HW  HW  OW  HW  HW  OW  HW  
HW  OW  HW  HW  OW  HW  HW  OW  HW  HW  OW  HW  HW  OW  HW  HW  OW  HW  HW  OW  
HW  HW  OW  HW  HW  OW  HW  HW  OW  HW  HW  OW  HW  HW  OW  HW  HW  OW  HW  HW  
OW  HW  HW  OW  HW  HW  OW  HW  HW  OW  HW  HW  OW  HW  HW  OW  HW  HW  OW  HW  
HW  OW  HW  HW  OW  HW  HW  OW  HW  HW  OW  HW  HW  OW  HW  HW  OW  HW  HW  OW  
HW  HW  OW  HW  HW  OW  HW  HW  OW  HW  HW  OW  HW  HW  OW  HW  HW  OW  HW  HW  
OW  HW  HW  OW  HW  HW  OW  HW  HW  OW  HW  HW  OW  HW  HW  OW  HW  HW  OW  HW  
HW  OW  HW  HW  OW  HW  HW  OW  HW  HW  OW  HW  HW  OW  HW  HW  OW  HW  HW  OW  
HW  HW  OW  HW  HW  OW  HW  HW  OW  HW  HW  OW  HW  HW  OW  HW  HW  OW  HW  HW  
OW  HW  HW  OW  HW  HW  OW  HW  HW  OW  HW  HW  OW  HW  HW  OW  HW  HW  OW  HW  
HW  OW  HW  HW  OW  HW  HW  OW  HW  HW  OW  HW  HW  OW  HW  HW  OW  HW  HW  OW  
HW  HW  OW  HW  HW  OW  HW  HW  OW  HW  HW  OW  HW  HW  OW  HW  HW  OW  HW  HW  
OW  HW  HW  OW  HW  HW  OW  HW  HW  OW  HW  HW  OW  HW  HW  OW  HW  HW  OW  HW  
HW  OW  HW  HW  OW  HW  HW  OW  HW  HW  OW  HW  HW  OW  HW  HW  OW  HW  HW  OW  
HW  HW  OW  HW  HW  OW  HW  HW  OW  HW  HW  OW  HW  HW  OW  HW  HW  OW  HW  HW  
OW  HW  HW  OW  HW  HW  OW  HW  HW  OW  HW  HW  OW  HW  HW  OW  HW  HW  OW  HW  
HW  OW  HW  HW  OW  HW  HW  OW  HW  HW  OW  HW  HW  OW  HW  HW  OW  HW  HW  OW  
HW  HW  OW  HW  HW  OW  HW  HW  OW  HW  HW  OW  HW  HW  OW  HW  HW  OW  HW  HW  
OW  HW  HW  OW  HW  HW  OW  HW  HW  OW  HW  HW  OW  HW  HW  OW  HW  HW  OW  HW  
HW  OW  HW  HW  OW  HW  HW  OW  HW  HW  OW  HW  HW  OW  HW  HW  OW  HW  HW  OW  
HW  HW  OW  HW  HW  OW  HW  HW  OW  HW  HW  OW  HW  HW  OW  HW  HW  OW  HW  HW  
OW  HW  HW  OW  HW  HW  OW  HW  HW  OW  HW  HW  OW  HW  HW  OW  HW  HW  OW  HW  
HW  OW  HW  HW  OW  HW  HW  OW  HW  HW  OW  HW  HW  OW  HW  HW  OW  HW  HW  OW  
HW  HW  OW  HW  HW  OW  HW  HW  OW  HW  HW  OW  HW  HW  OW  HW  HW  OW  HW  HW  
OW  HW  HW  OW  HW  HW  OW  HW  HW  OW  HW  HW  OW  HW  HW  OW  HW  HW  OW  HW  
HW  OW  HW  HW  OW  HW  HW  OW  HW  HW  OW  HW  HW  OW  HW  HW  OW  HW  HW  OW  
HW  HW  OW  HW  HW  OW  HW  HW  OW  HW  HW  OW  HW  HW  OW  HW  HW  OW  HW  HW  
OW  HW  HW  OW  HW  HW  OW  HW  HW  OW  HW  HW  OW  HW  HW  OW  HW  HW  OW  HW  
HW  OW  HW  HW  OW  HW  HW  OW  HW  HW  OW  HW  HW  OW  HW  HW  OW  HW  HW  OW  
HW  HW  OW  HW  HW  OW  HW  HW  OW  HW  HW  OW  HW  HW  OW  HW  HW  OW  HW  HW  
OW  HW  HW  OW  HW  HW  OW  HW  HW  OW  HW  HW  OW  HW  HW  OW  HW  HW  OW  HW  
HW  OW  HW  HW  OW  HW  HW  OW  HW  HW  OW  HW  HW  OW  HW  HW  OW  HW  HW  OW  
HW  HW  OW  HW  HW  OW  HW  HW  OW  HW  HW  OW  HW  HW  OW  HW  HW  OW  HW  HW  
OW  HW  HW  OW  HW  HW  OW  HW  HW  OW  HW  HW  OW  HW  HW  OW  HW  HW  OW  HW  
HW  OW  HW  HW  OW  HW  HW  OW  HW  HW  OW  HW  HW  OW  HW  HW  OW  HW  HW  OW  
HW  HW  OW  HW  HW  OW  HW  HW  OW  HW  HW  OW  HW  HW  OW  HW  HW  OW  HW  HW  
OW  HW  HW  OW  HW  HW  OW  HW  HW  OW  HW  HW  OW  HW  HW  OW  HW  HW  OW  HW  
HW  OW  HW  HW  OW  HW  HW  OW  HW  HW  OW  HW  HW  OW  HW  HW  OW  HW  HW  OW  
HW  HW  OW  HW  HW  OW  HW  HW  OW  HW  HW  OW  HW  HW  OW  HW  HW  OW  HW  HW  
OW  HW  HW  OW  HW  HW  OW  HW  HW  OW  HW  HW  OW  HW  HW  OW  HW  HW  OW  HW  
HW  OW  HW  HW  OW  HW  HW  OW  HW  HW  OW  HW  HW  OW  HW  HW  OW  HW  HW  OW  
HW  HW  OW  HW  HW  OW  HW  HW  OW  HW  HW  OW  HW  HW  OW  HW  HW  OW  HW  HW  
OW  HW  HW  OW  HW  HW  OW  HW  HW  OW  HW  HW  OW  HW  HW  OW  HW  HW  OW  HW  
HW  OW  HW  HW  OW  HW  HW  OW  HW  HW  OW  HW  HW  OW  HW  HW  OW  HW  HW  OW  
HW  HW  OW  HW  HW  OW  HW  HW  OW  HW  HW  OW  HW  HW  OW  HW  HW  OW  HW  HW  
OW  HW  HW  OW  HW  HW  OW  HW  HW  OW  HW  HW  OW  HW  HW  OW  HW  HW  OW  HW  
HW  OW  HW  HW  OW  HW  HW  OW  HW  HW  OW  HW  HW  OW  HW  HW  OW  HW  HW  OW  
HW  HW  OW  HW  HW  OW  HW  HW  OW  HW  HW  OW  HW  HW  OW  HW  HW  OW  HW  HW  
OW  HW  HW  OW  HW  HW  OW  HW  HW  OW  HW  HW  OW  HW  HW  OW  HW  HW  OW  HW  
HW  OW  HW  HW  OW  HW  HW  OW  HW  HW  OW  HW  HW  OW  HW  HW  OW  HW  HW  OW  
HW  HW  OW  HW  HW  OW  HW  HW  OW  HW  HW  OW  HW  HW  OW  HW  HW  OW  HW  HW  
OW  HW  HW  OW  HW  HW  OW  HW  HW  OW  HW  HW  OW  HW  HW  OW  HW  HW  OW  HW  
HW  OW  HW  HW  OW  HW  HW  OW  HW  HW  OW  HW  HW  OW  HW  HW  OW  HW  HW  OW  
HW  HW  OW  HW  HW  OW  HW  HW  OW  HW  HW  OW  HW  HW  OW  HW  HW  OW  HW  HW  
OW  HW  HW  OW  HW  HW  OW  HW  HW  OW  HW  HW  OW  HW  HW  OW  HW  HW  OW  HW  
HW  OW  HW  HW  OW  HW  HW  OW  HW  HW  OW  HW  HW  OW  HW  HW  OW  HW  HW  OW  
HW  HW  OW  HW  HW  OW  HW  HW  OW  HW  HW  OW  HW  HW  OW  HW  HW  OW  HW  HW  
OW  HW  HW  OW  HW  HW  OW  HW  HW  OW  HW  HW  OW  HW  HW  OW  HW  HW  OW  HW  
HW  OW  HW  HW  OW  HW  HW  OW  HW  HW  OW  HW  HW  OW  HW  HW  OW  HW  HW  OW  
HW  HW  OW  HW  HW  OW  HW  HW  OW  HW  HW  OW  HW  HW  OW  HW  HW  OW  HW  HW  
OW  HW  HW  OW  HW  HW  OW  HW  HW  OW  HW  HW  OW  HW  HW  OW  HW  HW  OW  HW  
HW  OW  HW  HW  OW  HW  HW  OW  HW  HW  OW  HW  HW  OW  HW  HW  OW  HW  HW  OW  
HW  HW  OW  HW  HW  OW  HW  HW  OW  HW  HW  OW  HW  HW  OW  HW  HW  OW  HW  HW  
OW  HW  HW  OW  HW  HW  OW  HW  HW  OW  HW  HW  OW  HW  HW  OW  HW  HW  OW  HW  
HW  OW  HW  HW  OW  HW  HW  OW  HW  HW  OW  HW  HW  OW  HW  HW  OW  HW  HW  OW  
HW  HW  OW  HW  HW  OW  HW  HW  OW  HW  HW  OW  HW  HW  OW  HW  HW  OW  HW  HW  
OW  HW  HW  OW  HW  HW  OW  HW  HW  OW  HW  HW  OW  HW  HW  OW  HW  HW  OW  HW  
HW  OW  HW  HW  OW  HW  HW  OW  HW  HW  OW  HW  HW  OW  HW  HW  OW  HW  HW  OW  
HW  HW  OW  HW  HW  OW  HW  HW  OW  HW  HW  OW  HW  HW  OW  HW  HW  OW  HW  HW  
OW  HW  HW  OW  HW  HW  OW  HW  HW  OW  HW  HW  OW  HW  HW  OW  HW  HW  OW  HW  
HW  OW  HW  HW  OW  HW  HW  OW  HW  HW  OW  HW  HW  OW  HW  HW  OW  HW  HW  OW  
HW  HW  OW  HW  HW  OW  HW  HW  OW  HW  HW  OW  HW  HW  OW  HW  HW  OW  HW  HW  
OW  HW  HW  OW  HW  HW  OW  HW  HW  OW  HW  HW  OW  HW  HW  OW  HW  HW  OW  HW  
HW  OW  HW  HW  OW  HW  HW  OW  HW  HW  OW  HW  HW  OW  HW  HW  OW  HW  HW  OW  
HW  HW  OW  HW  HW  OW  HW  HW  OW  HW  HW  OW  HW  HW  OW  HW  HW  OW  HW  HW  
OW  HW  HW  OW  HW  HW  OW  HW  HW  OW  HW  HW  OW  HW  HW  OW  HW  HW  OW  HW  
HW  OW  HW  HW  OW  HW  HW  OW  HW  HW  OW  HW  HW  OW  HW  HW  OW  HW  HW  OW  
HW  HW  OW  HW  HW  OW  HW  HW  OW  HW  HW  OW  HW  HW  OW  HW  HW  OW  HW  HW  
OW  HW  HW  OW  HW  HW  OW  HW  HW  OW  HW  HW  OW  HW  HW  OW  HW  HW  OW  HW  
HW  OW  HW  HW  OW  HW  HW  OW  HW  HW  OW  HW  HW  OW  HW  HW  OW  HW  HW  OW  
HW  HW  OW  HW  HW  OW  HW  HW  OW  HW  HW  OW  HW  HW  OW  HW  HW  OW  HW  HW  
OW  HW  HW  OW  HW  HW  OW  HW  HW  OW  HW  HW  OW  HW  HW  OW  HW  HW  OW  HW  
HW  OW  HW  HW  OW  HW  HW  OW  HW  HW  OW  HW  HW  OW  HW  HW  OW  HW  HW  OW  
HW  HW  OW  HW  HW  OW  HW  HW  OW  HW  HW  OW  HW  HW  OW  HW  HW  OW  HW  HW  
OW  HW  HW  OW  HW  HW  OW  HW  HW  OW  HW  HW  OW  HW  HW  OW  HW  HW  OW  HW  
HW  OW  HW  HW  OW  HW  HW  OW  HW  HW  OW  HW  HW  OW  HW  HW  OW  HW  HW  OW  
HW  HW  OW  HW  HW  OW  HW  HW  OW  HW  HW  OW  HW  HW  OW  HW  HW  OW  HW  HW  
OW  HW  HW  OW  HW  HW  OW  HW  HW  OW  HW  HW  OW  HW  HW  OW  HW  HW  OW  HW  
HW  OW  HW  HW  OW  HW  HW  OW  HW  HW  OW  HW  HW  OW  HW  HW  OW  HW  HW  OW  
HW  HW  OW  HW  HW  OW  HW  HW  OW  HW  HW  OW  HW  HW  OW  HW  HW  OW  HW  HW  
OW  HW  HW  OW  HW  HW  OW  HW  HW  OW  HW  HW  OW  HW  HW  OW  HW  HW  OW  HW  
HW  OW  HW  HW  OW  HW  HW  OW  HW  HW  OW  HW  HW  OW  HW  HW  OW  HW  HW  OW  
HW  HW  OW  HW  HW  OW  HW  HW  OW  HW  HW  OW  HW  HW  OW  HW  HW  OW  HW  HW  
OW  HW  HW  OW  HW  HW  OW  HW  HW  OW  HW  HW  OW  HW  HW  OW  HW  HW  OW  HW  
HW  OW  HW  HW  OW  HW  HW  OW  HW  HW  OW  HW  HW  OW  HW  HW  OW  HW  HW  OW  
HW  HW  OW  HW  HW  OW  HW  HW  OW  HW  HW  OW  HW  HW  OW  HW  HW  OW  HW  HW  
OW  HW  HW  OW  HW  HW  OW  HW  HW  OW  HW  HW  OW  HW  HW  OW  HW  HW  OW  HW  
HW  OW  HW  HW  OW  HW  HW  OW  HW  HW  OW  HW  HW  OW  HW  HW  OW  HW  HW  OW  
HW  HW  OW  HW  HW  OW  HW  HW  OW  HW  HW  OW  HW  HW  OW  HW  HW  OW  HW  HW  
OW  HW  HW  OW  HW  HW  OW  HW  HW  OW  HW  HW  OW  HW  HW  OW  HW  HW  OW  HW  
HW  OW  HW  HW  OW  HW  HW  OW  HW  HW  OW  HW  HW  OW  HW  HW  OW  HW  HW  OW  
HW  HW  OW  HW  HW  OW  HW  HW  OW  HW  HW  OW  HW  HW  OW  HW  HW  OW  HW  HW  
OW  HW  HW  OW  HW  HW  OW  HW  HW  OW  HW  HW  OW  HW  HW  OW  HW  HW  OW  HW  
HW  OW  HW  HW  OW  HW  HW  OW  HW  HW  OW  HW  HW  OW  HW  HW  OW  HW  HW  OW  
HW  HW  OW  HW  HW  OW  HW  HW  OW  HW  HW  OW  HW  HW  OW  HW  HW  OW  HW  HW  
OW  HW  HW  OW  HW  HW  OW  HW  HW  OW  HW  HW  OW  HW  HW  OW  HW  HW  OW  HW  
HW  OW  HW  HW  OW  HW  HW  OW  HW  HW  OW  HW  HW  OW  HW  HW  OW  HW  HW  OW  
HW  HW  OW  HW  HW  OW  HW  HW  OW  HW  HW  OW  HW  HW  OW  HW  HW  OW  HW  HW  
OW  HW  HW  OW  HW  HW  OW  HW  HW  OW  HW  HW  OW  HW  HW  OW  HW  HW  OW  HW  
HW  OW  HW  HW  OW  HW  HW  OW  HW  HW  OW  HW  HW  OW  HW  HW  OW  HW  HW  OW  
HW  HW  OW  HW  HW  OW  HW  HW  OW  HW  HW  OW  HW  HW  OW  HW  HW  OW  HW  HW  
OW  HW  HW  OW  HW  HW  OW  HW  HW  OW  HW  HW  OW  HW  HW  OW  HW  HW  OW  HW  
HW  OW  HW  HW  OW  HW  HW  OW  HW  HW  OW  HW  HW  OW  HW  HW  OW  HW  HW  OW  
HW  HW  OW  HW  HW  OW  HW  HW  OW  HW  HW  OW  HW  HW  OW  HW  HW  OW  HW  HW  
OW  HW  HW  OW  HW  HW  OW  HW  HW  OW  HW  HW  OW  HW  HW  OW  HW  HW  OW  HW  
HW  OW  HW  HW  OW  HW  HW  OW  HW  HW  OW  HW  HW  OW  HW  HW  OW  HW  HW  OW  
HW  HW  OW  HW  HW  OW  HW  HW  OW  HW  HW  OW  HW  HW  OW  HW  HW  OW  HW  HW  
OW  HW  HW  OW  HW  HW  OW  HW  HW  OW  HW  HW  OW  HW  HW  OW  HW  HW  OW  HW  
HW  OW  HW  HW  OW  HW  HW  OW  HW  HW  OW  HW  HW  OW  HW  HW  OW  HW  HW  OW  
HW  HW  OW  HW  HW  OW  HW  HW  OW  HW  HW  OW  HW  HW  OW  HW  HW  OW  HW  HW  
OW  HW  HW  OW  HW  HW  OW  HW  HW  OW  HW  HW  OW  HW  HW  OW  HW  HW  OW  HW  
HW  OW  HW  HW  OW  HW  HW  OW  HW  HW  OW  HW  HW  OW  HW  HW  OW  HW  HW  OW  
HW  HW  OW  HW  HW  OW  HW  HW  OW  HW  HW  OW  HW  HW  OW  HW  HW  OW  HW  HW  
OW  HW  HW  OW  HW  HW  OW  HW  HW  OW  HW  HW  OW  HW  HW  OW  HW  HW  OW  HW  
HW  OW  HW  HW  OW  HW  HW  OW  HW  HW  OW  HW  HW  OW  HW  HW  OW  HW  HW  OW  
HW  HW  OW  HW  HW  OW  HW  HW  OW  HW  HW  OW  HW  HW  OW  HW  HW  OW  HW  HW  
OW  HW  HW  OW  HW  HW  OW  HW  HW  OW  HW  HW  OW  HW  HW  OW  HW  HW  OW  HW  
HW  OW  HW  HW  OW  HW  HW  OW  HW  HW  OW  HW  HW  OW  HW  HW  OW  HW  HW  OW  
HW  HW  OW  HW  HW  OW  HW  HW  OW  HW  HW  OW  HW  HW  OW  HW  HW  OW  HW  HW  
OW  HW  HW  OW  HW  HW  OW  HW  HW  OW  HW  HW  OW  HW  HW  OW  HW  HW  OW  HW  
HW  OW  HW  HW  OW  HW  HW  OW  HW  HW  OW  HW  HW  OW  HW  HW  OW  HW  HW  OW  
HW  HW  OW  HW  HW  OW  HW  HW  OW  HW  HW  OW  HW  HW  OW  HW  HW  OW  HW  HW  
OW  HW  HW  OW  HW  HW  OW  HW  HW  OW  HW  HW  OW  HW  HW  OW  HW  HW  OW  HW  
HW  OW  HW  HW  OW  HW  HW  OW  HW  HW  OW  HW  HW  OW  HW  HW  OW  HW  HW  OW  
HW  HW  OW  HW  HW  OW  HW  HW  OW  HW  HW  OW  HW  HW  OW  HW  HW  OW  HW  HW  
OW  HW  HW  OW  HW  HW  OW  HW  HW  OW  HW  HW  OW  HW  HW  OW  HW  HW  OW  HW  
HW  OW  HW  HW  OW  HW  HW  OW  HW  HW  OW  HW  HW  OW  HW  HW  OW  HW  HW  OW  
HW  HW  OW  HW  HW  OW  HW  HW  OW  HW  HW  OW  HW  HW  OW  HW  HW  OW  HW  HW  
OW  HW  HW  OW  HW  HW  OW  HW  HW  OW  HW  HW  OW  HW  HW  OW  HW  HW  OW  HW  
HW  OW  HW  HW  OW  HW  HW  OW  HW  HW  OW  HW  HW  OW  HW  HW  OW  HW  HW  OW  
HW  HW  OW  HW  HW  OW  HW  HW  OW  HW  HW  OW  HW  HW  OW  HW  HW  OW  HW  HW  
OW  HW  HW  OW  HW  HW  OW  HW  HW  OW  HW  HW  OW  HW  HW  OW  HW  HW  OW  HW  
HW  OW  HW  HW  OW  HW  HW  OW  HW  HW  OW  HW  HW  OW  HW  HW  OW  HW  HW  OW  
HW  HW  OW  HW  HW  OW  HW  HW  OW  HW  HW  OW  HW  HW  OW  HW  HW  OW  HW  HW  
OW  HW  HW  OW  HW  HW  OW  HW  HW  OW  HW  HW  OW  HW  HW  OW  HW  HW  OW  HW  
HW  OW  HW  HW  OW  HW  HW  OW  HW  HW  OW  HW  HW  OW  HW  HW  OW  HW  HW  OW  
HW  HW  OW  HW  HW  OW  HW  HW  OW  HW  HW  OW  HW  HW  OW  HW  HW  OW  HW  HW  
OW  HW  HW  OW  HW  HW  OW  HW  HW  OW  HW  HW  OW  HW  HW  OW  HW  HW  OW  HW  
HW  OW  HW  HW  OW  HW  HW  OW  HW  HW  OW  HW  HW  OW  HW  HW  OW  HW  HW  OW  
HW  HW  OW  HW  HW  OW  HW  HW  OW  HW  HW  OW  HW  HW  OW  HW  HW  OW  HW  HW  
OW  HW  HW  OW  HW  HW  OW  HW  HW  OW  HW  HW  OW  HW  HW  OW  HW  HW  OW  HW  
HW  OW  HW  HW  OW  HW  HW  OW  HW  HW  OW  HW  HW  OW  HW  HW  OW  HW  HW  OW  
HW  HW  OW  HW  HW  OW  HW  HW  OW  HW  HW  OW  HW  HW  OW  HW  HW  OW  HW  HW  
OW  HW  HW  OW  HW  HW  OW  HW  HW  OW  HW  HW  OW  HW  HW  OW  HW  HW  OW  HW  
HW  OW  HW  HW  OW  HW  HW  OW  HW  HW  OW  HW  HW  OW  HW  HW  OW  HW  HW  OW  
HW  HW  OW  HW  HW  OW  HW  HW  OW  HW  HW  OW  HW  HW  OW  HW  HW  OW  HW  HW  
OW  HW  HW  OW  HW  HW  OW  HW  HW  OW  HW  HW  OW  HW  HW  OW  HW  HW  OW  HW  
HW  OW  HW  HW  OW  HW  HW  OW  HW  HW  OW  HW  HW  OW  HW  HW  OW  HW  HW  OW  
HW  HW  OW  HW  HW  OW  HW  HW  OW  HW  HW  OW  HW  HW  OW  HW  HW  OW  HW  HW  
OW  HW  HW  OW  HW  HW  OW  HW  HW  OW  HW  HW  OW  HW  HW  OW  HW  HW  OW  HW  
HW  OW  HW  HW  OW  HW  HW  OW  HW  HW  OW  HW  HW  OW  HW  HW  OW  HW  HW  OW  
HW  HW  OW  HW  HW  OW  HW  HW  OW  HW  HW  OW  HW  HW  OW  HW  HW  OW  HW  HW  
OW  HW  HW  OW  HW  HW  OW  HW  HW  OW  HW  HW  OW  HW  HW  OW  HW  HW  OW  HW  
HW  OW  HW  HW  OW  HW  HW  OW  HW  HW  OW  HW  HW  OW  HW  HW  OW  HW  HW  OW  
HW  HW  OW  HW  HW  OW  HW  HW  OW  HW  HW  OW  HW  HW  OW  HW  HW  OW  HW  HW  
OW  HW  HW  OW  HW  HW  OW  HW  HW  OW  HW  HW  OW  HW  HW  OW  HW  HW  OW  HW  
HW  OW  HW  HW  OW  HW  HW  OW  HW  HW  OW  HW  HW  OW  HW  HW  OW  HW  HW  OW  
HW  HW  OW  HW  HW  OW  HW  HW  OW  HW  HW  OW  HW  HW  OW  HW  HW  OW  HW  HW  
OW  HW  HW  OW  HW  HW  OW  HW  HW  OW  HW  HW  OW  HW  HW  OW  HW  HW  OW  HW  
HW  OW  HW  HW  OW  HW  HW  OW  HW  HW  OW  HW  HW  OW  HW  HW  OW  HW  HW  OW  
HW  HW  OW  HW  HW  OW  HW  HW  OW  HW  HW  OW  HW  HW  OW  HW  HW  OW  HW  HW  
OW  HW  HW  OW  HW  HW  OW  HW  HW  OW  HW  HW  OW  HW  HW  OW  HW  HW  OW  HW  
HW  OW  HW  HW  OW  HW  HW  OW  HW  HW  OW  HW  HW  OW  HW  HW  OW  HW  HW  OW  
HW  HW  OW  HW  HW  OW  HW  HW  OW  HW  HW  OW  HW  HW  OW  HW  HW  OW  HW  HW  
OW  HW  HW  OW  HW  HW  OW  HW  HW  OW  HW  HW  OW  HW  HW  OW  HW  HW  OW  HW  
HW  OW  HW  HW  OW  HW  HW  OW  HW  HW  OW  HW  HW  OW  HW  HW  OW  HW  HW  OW  
HW  HW  OW  HW  HW  OW  HW  HW  OW  HW  HW  OW  HW  HW  OW  HW  HW  OW  HW  HW  
OW  HW  HW  OW  HW  HW  OW  HW  HW  OW  HW  HW  OW  HW  HW  OW  HW  HW  OW  HW  
HW  OW  HW  HW  OW  HW  HW  OW  HW  HW  OW  HW  HW  OW  HW  HW  OW  HW  HW  OW  
HW  HW  OW  HW  HW  OW  HW  HW  OW  HW  HW  OW  HW  HW  OW  HW  HW  OW  HW  HW  
OW  HW  HW  OW  HW  HW  OW  HW  HW  OW  HW  HW  OW  HW  HW  OW  HW  HW  OW  HW  
HW  OW  HW  HW  OW  HW  HW  OW  HW  HW  OW  HW  HW  OW  HW  HW  OW  HW  HW  OW  
HW  HW  OW  HW  HW  OW  HW  HW  OW  HW  HW  OW  HW  HW  OW  HW  HW  OW  HW  HW  
OW  HW  HW  OW  HW  HW  OW  HW  HW  OW  HW  HW  OW  HW  HW  OW  HW  HW  OW  HW  
HW  OW  HW  HW  OW  HW  HW  OW  HW  HW  OW  HW  HW  OW  HW  HW  OW  HW  HW  OW  
HW  HW  OW  HW  HW  OW  HW  HW  OW  HW  HW  OW  HW  HW  OW  HW  HW  OW  HW  HW  
OW  HW  HW  OW  HW  HW  OW  HW  HW  OW  HW  HW  OW  HW  HW  OW  HW  HW  OW  HW  
HW  OW  HW  HW  OW  HW  HW  OW  HW  HW  OW  HW  HW  OW  HW  HW  OW  HW  HW  OW  
HW  HW  OW  HW  HW  OW  HW  HW  OW  HW  HW  OW  HW  HW  OW  HW  HW  OW  HW  HW  
OW  HW  HW  OW  HW  HW  OW  HW  HW  OW  HW  HW  OW  HW  HW  OW  HW  HW  OW  HW  
HW  OW  HW  HW  OW  HW  HW  OW  HW  HW  OW  HW  HW  OW  HW  HW  OW  HW  HW  OW  
HW  HW  OW  HW  HW  OW  HW  HW  OW  HW  HW  OW  HW  HW  OW  HW  HW  OW  HW  HW  
OW  HW  HW  OW  HW  HW  OW  HW  HW  OW  HW  HW  OW  HW  HW  OW  HW  HW  OW  HW  
HW  OW  HW  HW  OW  HW  HW  OW  HW  HW  OW  HW  HW  OW  HW  HW  OW  HW  HW  OW  
HW  HW  OW  HW  HW  OW  HW  HW  OW  HW  HW  OW  HW  HW  OW  HW  HW  OW  HW  HW  
OW  HW  HW  OW  HW  HW  OW  HW  HW  OW  HW  HW  OW  HW  HW  OW  HW  HW  OW  HW  
HW  OW  HW  HW  OW  HW  HW  OW  HW  HW  OW  HW  HW  OW  HW  HW  OW  HW  HW  OW  
HW  HW  OW  HW  HW  OW  HW  HW  OW  HW  HW  OW  HW  HW  OW  HW  HW  OW  HW  HW  
OW  HW  HW  OW  HW  HW  OW  HW  HW  OW  HW  HW  OW  HW  HW  OW  HW  HW  OW  HW  
HW  OW  HW  HW  OW  HW  HW  OW  HW  HW  OW  HW  HW  OW  HW  HW  OW  HW  HW  OW  
HW  HW  OW  HW  HW  OW  HW  HW  OW  HW  HW  OW  HW  HW  OW  HW  HW  OW  HW  HW  
OW  HW  HW  OW  HW  HW  OW  HW  HW  OW  HW  HW  OW  HW  HW  OW  HW  HW  OW  HW  
HW  OW  HW  HW  OW  HW  HW  OW  HW  HW  OW  HW  HW  OW  HW  HW  OW  HW  HW  OW  
HW  HW  OW  HW  HW  OW  HW  HW  OW  HW  HW  OW  HW  HW  OW  HW  HW  OW  HW  HW  
OW  HW  HW  OW  HW  HW  OW  HW  HW  OW  HW  HW  OW  HW  HW  OW  HW  HW  OW  HW  
HW  OW  HW  HW  OW  HW  HW  OW  HW  HW  OW  HW  HW  OW  HW  HW  OW  HW  HW  OW  
HW  HW  OW  HW  HW  OW  HW  HW  OW  HW  HW  OW  HW  HW  OW  HW  HW  OW  HW  HW  
OW  HW  HW  OW  HW  HW  OW  HW  HW  OW  HW  HW  OW  HW  HW  OW  HW  HW  OW  HW  
HW  OW  HW  HW  OW  HW  HW  OW  HW  HW  OW  HW  HW  OW  HW  HW  OW  HW  HW  OW  
HW  HW  OW  HW  HW  OW  HW  HW  OW  HW  HW  OW  HW  HW  OW  HW  HW  OW  HW  HW  
OW  HW  HW  OW  HW  HW  OW  HW  HW  OW  HW  HW  OW  HW  HW  OW  HW  HW  OW  HW  
HW  OW  HW  HW  OW  HW  HW  OW  HW  HW  OW  HW  HW  OW  HW  HW  OW  HW  HW  OW  
HW  HW  OW  HW  HW  OW  HW  HW  OW  HW  HW  OW  HW  HW  OW  HW  HW  OW  HW  HW  
OW  HW  HW  OW  HW  HW  OW  HW  HW  OW  HW  HW  OW  HW  HW  OW  HW  HW  OW  HW  
HW  OW  HW  HW  OW  HW  HW  OW  HW  HW  OW  HW  HW  OW  HW  HW  OW  HW  HW  OW  
HW  HW  OW  HW  HW  OW  HW  HW  OW  HW  HW  OW  HW  HW  OW  HW  HW  OW  HW  HW  
OW  HW  HW  OW  HW  HW  OW  HW  HW  OW  HW  HW  OW  HW  HW  OW  HW  HW  OW  HW  
HW  OW  HW  HW  OW  HW  HW  OW  HW  HW  OW  HW  HW  OW  HW  HW  OW  HW  HW  OW  
HW  HW  OW  HW  HW  OW  HW  HW  OW  HW  HW  OW  HW  HW  OW  HW  HW  OW  HW  HW  
OW  HW  HW  OW  HW  HW  OW  HW  HW  OW  HW  HW  OW  HW  HW  OW  HW  HW  OW  HW  
HW  OW  HW  HW  OW  HW  HW  OW  HW  HW  OW  HW  HW  OW  HW  HW  OW  HW  HW  OW  
HW  HW  OW  HW  HW  OW  HW  HW  OW  HW  HW  OW  HW  HW  OW  HW  HW  OW  HW  HW  
OW  HW  HW  OW  HW  HW  OW  HW  HW  OW  HW  HW  OW  HW  HW  OW  HW  HW  OW  HW  
HW  OW  HW  HW  OW  HW  HW  OW  HW  HW  OW  HW  HW  OW  HW  HW  OW  HW  HW  OW  
HW  HW  OW  HW  HW  OW  HW  HW  OW  HW  HW  OW  HW  HW  OW  HW  HW  OW  HW  HW  
OW  HW  HW  OW  HW  HW  OW  HW  HW  OW  HW  HW  OW  HW  HW  OW  HW  HW  OW  HW  
HW  OW  HW  HW  OW  HW  HW  OW  HW  HW  OW  HW  HW  OW  HW  HW  OW  HW  HW  OW  
HW  HW  OW  HW  HW  OW  HW  HW  OW  HW  HW  OW  HW  HW  OW  HW  HW  OW  HW  HW  
OW  HW  HW  OW  HW  HW  OW  HW  HW  OW  HW  HW  OW  HW  HW  OW  HW  HW  OW  HW  
HW  OW  HW  HW  OW  HW  HW  OW  HW  HW  OW  HW  HW  OW  HW  HW  OW  HW  HW  OW  
HW  HW  OW  HW  HW  OW  HW  HW  OW  HW  HW  OW  HW  HW  OW  HW  HW  OW  HW  HW  
OW  HW  HW  OW  HW  HW  OW  HW  HW  OW  HW  HW  OW  HW  HW  OW  HW  HW  OW  HW  
HW  OW  HW  HW  OW  HW  HW  OW  HW  HW  OW  HW  HW  OW  HW  HW  OW  HW  HW  OW  
HW  HW  OW  HW  HW  OW  HW  HW  OW  HW  HW  OW  HW  HW  OW  HW  HW  OW  HW  HW  
OW  HW  HW  OW  HW  HW  OW  HW  HW  OW  HW  HW  OW  HW  HW  OW  HW  HW  OW  HW  
HW  OW  HW  HW  OW  HW  HW  OW  HW  HW  OW  HW  HW  OW  HW  HW  OW  HW  HW  OW  
HW  HW  OW  HW  HW  OW  HW  HW  OW  HW  HW  OW  HW  HW  OW  HW  HW  OW  HW  HW  
OW  HW  HW  OW  HW  HW  OW  HW  HW  OW  HW  HW  OW  HW  HW  OW  HW  HW  OW  HW  
HW  OW  HW  HW  OW  HW  HW  OW  HW  HW  OW  HW  HW  OW  HW  HW  OW  HW  HW  OW  
HW  HW  OW  HW  HW  OW  HW  HW  OW  HW  HW  OW  HW  HW  OW  HW  HW  OW  HW  HW  
OW  HW  HW  OW  HW  HW  OW  HW  HW  OW  HW  HW  OW  HW  HW  OW  HW  HW  OW  HW  
HW  OW  HW  HW  OW  HW  HW  OW  HW  HW  OW  HW  HW  OW  HW  HW  OW  HW  HW  OW  
HW  HW  OW  HW  HW  OW  HW  HW  OW  HW  HW  OW  HW  HW  OW  HW  HW  OW  HW  HW  
OW  HW  HW  OW  HW  HW  OW  HW  HW  OW  HW  HW  OW  HW  HW  OW  HW  HW  OW  HW  
HW  OW  HW  HW  OW  HW  HW  OW  HW  HW  OW  HW  HW  OW  HW  HW  OW  HW  HW  OW  
HW  HW  OW  HW  HW  OW  HW  HW  OW  HW  HW  OW  HW  HW  OW  HW  HW  OW  HW  HW  
OW  HW  HW  OW  HW  HW  OW  HW  HW  OW  HW  HW  OW  HW  HW  OW  HW  HW  OW  HW  
HW  OW  HW  HW  OW  HW  HW  OW  HW  HW  OW  HW  HW  OW  HW  HW  OW  HW  HW  OW  
HW  HW  OW  HW  HW  OW  HW  HW  OW  HW  HW  OW  HW  HW  OW  HW  HW  OW  HW  HW  
OW  HW  HW  OW  HW  HW  OW  HW  HW  OW  HW  HW  OW  HW  HW  OW  HW  HW  OW  HW  
HW  OW  HW  HW  OW  HW  HW  OW  HW  HW  OW  HW  HW  OW  HW  HW  OW  HW  HW  OW  
HW  HW  OW  HW  HW  OW  HW  HW  OW  HW  HW  OW  HW  HW  OW  HW  HW  OW  HW  HW  
OW  HW  HW  OW  HW  HW  OW  HW  HW  OW  HW  HW  OW  HW  HW  OW  HW  HW  OW  HW  
HW  OW  HW  HW  OW  HW  HW  OW  HW  HW  OW  HW  HW  OW  HW  HW  OW  HW  HW  OW  
HW  HW  OW  HW  HW  OW  HW  HW  OW  HW  HW  OW  HW  HW  OW  HW  HW  OW  HW  HW  
OW  HW  HW  OW  HW  HW  OW  HW  HW  OW  HW  HW  OW  HW  HW  OW  HW  HW  OW  HW  
HW  OW  HW  HW  OW  HW  HW  OW  HW  HW  OW  HW  HW  OW  HW  HW  OW  HW  HW  OW  
HW  HW  OW  HW  HW  OW  HW  HW  OW  HW  HW  OW  HW  HW  OW  HW  HW  OW  HW  HW  
OW  HW  HW  OW  HW  HW  OW  HW  HW  OW  HW  HW  OW  HW  HW  OW  HW  HW  OW  HW  
HW  OW  HW  HW  OW  HW  HW  OW  HW  HW  OW  HW  HW  OW  HW  HW  OW  HW  HW  OW  
HW  HW  OW  HW  HW  OW  HW  HW  OW  HW  HW  OW  HW  HW  OW  HW  HW  OW  HW  HW  
OW  HW  HW  OW  HW  HW  OW  HW  HW  OW  HW  HW  OW  HW  HW  OW  HW  HW  OW  HW  
HW  OW  HW  HW  OW  HW  HW  OW  HW  HW  OW  HW  HW  OW  HW  HW  OW  HW  HW  OW  
HW  HW  OW  HW  HW  OW  HW  HW  OW  HW  HW  OW  HW  HW  OW  HW  HW  OW  HW  HW  
OW  HW  HW  OW  HW  HW  OW  HW  HW  OW  HW  HW  OW  HW  HW  OW  HW  HW  OW  HW  
HW  OW  HW  HW  OW  HW  HW  OW  HW  HW  OW  HW  HW  OW  HW  HW  OW  HW  HW  OW  
HW  HW  OW  HW  HW  OW  HW  HW  OW  HW  HW  OW  HW  HW  OW  HW  HW  OW  HW  HW  
OW  HW  HW  OW  HW  HW  OW  HW  HW  OW  HW  HW  OW  HW  HW  OW  HW  HW  OW  HW  
HW  OW  HW  HW  OW  HW  HW  OW  HW  HW  OW  HW  HW  OW  HW  HW  OW  HW  HW  OW  
HW  HW  OW  HW  HW  OW  HW  HW  OW  HW  HW  OW  HW  HW  OW  HW  HW  OW  HW  HW  
OW  HW  HW  OW  HW  HW  OW  HW  HW  OW  HW  HW  OW  HW  HW  OW  HW  HW  OW  HW  
HW  OW  HW  HW  OW  HW  HW  OW  HW  HW  OW  HW  HW  OW  HW  HW  OW  HW  HW  OW  
HW  HW  OW  HW  HW  OW  HW  HW  OW  HW  HW  OW  HW  HW  OW  HW  HW  OW  HW  HW  
OW  HW  HW  OW  HW  HW  OW  HW  HW  OW  HW  HW  OW  HW  HW  OW  HW  HW  OW  HW  
HW  OW  HW  HW  OW  HW  HW  OW  HW  HW  OW  HW  HW  OW  HW  HW  OW  HW  HW  OW  
HW  HW  OW  HW  HW  OW  HW  HW  OW  HW  HW  OW  HW  HW  OW  HW  HW  OW  HW  HW  
OW  HW  HW  OW  HW  HW  OW  HW  HW  OW  HW  HW  OW  HW  HW  OW  HW  HW  OW  HW  
HW  OW  HW  HW  OW  HW  HW  OW  HW  HW  OW  HW  HW  OW  HW  HW  OW  HW  HW  OW  
HW  HW  OW  HW  HW  OW  HW  HW  OW  HW  HW  OW  HW  HW  OW  HW  HW  OW  HW  HW  
OW  HW  HW  OW  HW  HW  OW  HW  HW  OW  HW  HW  OW  HW  HW  OW  HW  HW  OW  HW  
HW  OW  HW  HW  OW  HW  HW  OW  HW  HW  OW  HW  HW  OW  HW  HW  OW  HW  HW  OW  
HW  HW  OW  HW  HW  OW  HW  HW  OW  HW  HW  OW  HW  HW  OW  HW  HW  OW  HW  HW  
OW  HW  HW  OW  HW  HW  OW  HW  HW  OW  HW  HW  OW  HW  HW  OW  HW  HW  OW  HW  
HW  OW  HW  HW  OW  HW  HW  OW  HW  HW  OW  HW  HW  OW  HW  HW  OW  HW  HW  OW  
HW  HW  OW  HW  HW  OW  HW  HW  OW  HW  HW  OW  HW  HW  OW  HW  HW  OW  HW  HW  
OW  HW  HW  OW  HW  HW  OW  HW  HW  OW  HW  HW  OW  HW  HW  OW  HW  HW  OW  HW  
HW  OW  HW  HW  OW  HW  HW  OW  HW  HW  OW  HW  HW  OW  HW  HW  OW  HW  HW  OW  
HW  HW  OW  HW  HW  OW  HW  HW  OW  HW  HW  OW  HW  HW  OW  HW  HW  OW  HW  HW  
OW  HW  HW  OW  HW  HW  OW  HW  HW  OW  HW  HW  OW  HW  HW  OW  HW  HW  OW  HW  
HW  OW  HW  HW  OW  HW  HW  OW  HW  HW  OW  HW  HW  OW  HW  HW  OW  HW  HW  OW  
HW  HW  OW  HW  HW  OW  HW  HW  OW  HW  HW  OW  HW  HW  OW  HW  HW  OW  HW  HW  
OW  HW  HW  OW  HW  HW  OW  HW  HW  OW  HW  HW  OW  HW  HW  OW  HW  HW  OW  HW  
HW  OW  HW  HW  OW  HW  HW  OW  HW  HW  OW  HW  HW  OW  HW  HW  OW  HW  HW  OW  
HW  HW  OW  HW  HW  OW  HW  HW  OW  HW  HW  OW  HW  HW  OW  HW  HW  OW  HW  HW  
OW  HW  HW  OW  HW  HW  OW  HW  HW  OW  HW  HW  OW  HW  HW  OW  HW  HW  OW  HW  
HW  OW  HW  HW  OW  HW  HW  OW  HW  HW  OW  HW  HW  OW  HW  HW  OW  HW  HW  OW  
HW  HW  OW  HW  HW  OW  HW  HW  OW  HW  HW  OW  HW  HW  OW  HW  HW  OW  HW  HW  
OW  HW  HW  OW  HW  HW  OW  HW  HW  OW  HW  HW  OW  HW  HW  OW  HW  HW  OW  HW  
HW  OW  HW  HW  OW  HW  HW  OW  HW  HW  OW  HW  HW  OW  HW  HW  OW  HW  HW  OW  
HW  HW  OW  HW  HW  OW  HW  HW  OW  HW  HW  OW  HW  HW  OW  HW  HW  OW  HW  HW  
OW  HW  HW  OW  HW  HW  OW  HW  HW  OW  HW  HW  OW  HW  HW  OW  HW  HW  OW  HW  
HW  OW  HW  HW  OW  HW  HW  OW  HW  HW  OW  HW  HW  OW  HW  HW  OW  HW  HW  OW  
HW  HW  OW  HW  HW  OW  HW  HW  OW  HW  HW  OW  HW  HW  OW  HW  HW  OW  HW  HW  
OW  HW  HW  OW  HW  HW  OW  HW  HW  OW  HW  HW  OW  HW  HW  OW  HW  HW  OW  HW  
HW  OW  HW  HW  OW  HW  HW  OW  HW  HW  OW  HW  HW  OW  HW  HW  OW  HW  HW  OW  
HW  HW  OW  HW  HW  OW  HW  HW  OW  HW  HW  OW  HW  HW  OW  HW  HW  OW  HW  HW  
OW  HW  HW  OW  HW  HW  OW  HW  HW  OW  HW  HW  OW  HW  HW  OW  HW  HW  OW  HW  
HW  OW  HW  HW  OW  HW  HW  OW  HW  HW  OW  HW  HW  OW  HW  HW  OW  HW  HW  OW  
HW  HW  OW  HW  HW  OW  HW  HW  OW  HW  HW  OW  HW  HW  OW  HW  HW  OW  HW  HW  
OW  HW  HW  OW  HW  HW  OW  HW  HW  OW  HW  HW  OW  HW  HW  OW  HW  HW  OW  HW  
HW  OW  HW  HW  OW  HW  HW  OW  HW  HW  OW  HW  HW  OW  HW  HW  OW  HW  HW  OW  
HW  HW  OW  HW  HW  OW  HW  HW  OW  HW  HW  OW  HW  HW  OW  HW  HW  OW  HW  HW  
OW  HW  HW  OW  HW  HW  OW  HW  HW  OW  HW  HW  OW  HW  HW  OW  HW  HW  OW  HW  
HW  OW  HW  HW  OW  HW  HW  OW  HW  HW  OW  HW  HW  OW  HW  HW  OW  HW  HW  OW  
HW  HW  OW  HW  HW  OW  HW  HW  OW  HW  HW  OW  HW  HW  OW  HW  HW  OW  HW  HW  
OW  HW  HW  OW  HW  HW  OW  HW  HW  OW  HW  HW  OW  HW  HW  OW  HW  HW  OW  HW  
HW  OW  HW  HW  OW  HW  HW  OW  HW  HW  OW  HW  HW  OW  HW  HW  OW  HW  HW  OW  
HW  HW  OW  HW  HW  OW  HW  HW  OW  HW  HW  OW  HW  HW  OW  HW  HW  OW  HW  HW  
OW  HW  HW  OW  HW  HW  OW  HW  HW  OW  HW  HW  OW  HW  HW  OW  HW  HW  OW  HW  
HW  OW  HW  HW  OW  HW  HW  OW  HW  HW  OW  HW  HW  OW  HW  HW  OW  HW  HW  OW  
HW  HW  OW  HW  HW  OW  HW  HW  OW  HW  HW  OW  HW  HW  OW  HW  HW  OW  HW  HW  
OW  HW  HW  OW  HW  HW  OW  HW  HW  OW  HW  HW  OW  HW  HW  OW  HW  HW  OW  HW  
HW  OW  HW  HW  OW  HW  HW  OW  HW  HW  OW  HW  HW  OW  HW  HW  OW  HW  HW  OW  
HW  HW  OW  HW  HW  OW  HW  HW  OW  HW  HW  OW  HW  HW  OW  HW  HW  OW  HW  HW  
OW  HW  HW  OW  HW  HW  OW  HW  HW  OW  HW  HW  OW  HW  HW  OW  HW  HW  OW  HW  
HW  OW  HW  HW  OW  HW  HW  OW  HW  HW  OW  HW  HW  OW  HW  HW  OW  HW  HW  OW  
HW  HW  OW  HW  HW  OW  HW  HW  OW  HW  HW  OW  HW  HW  OW  HW  HW  OW  HW  HW  
OW  HW  HW  OW  HW  HW  OW  HW  HW  OW  HW  HW  OW  HW  HW  OW  HW  HW  OW  HW  
HW  OW  HW  HW  OW  HW  HW  OW  HW  HW  OW  HW  HW  OW  HW  HW  OW  HW  HW  OW  
HW  HW  OW  HW  HW  OW  HW  HW  OW  HW  HW  OW  HW  HW  OW  HW  HW  OW  HW  HW  
OW  HW  HW  OW  HW  HW  OW  HW  HW  OW  HW  HW  OW  HW  HW  OW  HW  HW  OW  HW  
HW  OW  HW  HW  OW  HW  HW  OW  HW  HW  OW  HW  HW  OW  HW  HW  OW  HW  HW  OW  
HW  HW  OW  HW  HW  OW  HW  HW  OW  HW  HW  OW  HW  HW  OW  HW  HW  OW  HW  HW  
OW  HW  HW  OW  HW  HW  OW  HW  HW  OW  HW  HW  OW  HW  HW  OW  HW  HW  OW  HW  
HW  OW  HW  HW  OW  HW  HW  OW  HW  HW  OW  HW  HW  OW  HW  HW  OW  HW  HW  OW  
HW  HW  OW  HW  HW  OW  HW  HW  OW  HW  HW  OW  HW  HW  OW  HW  HW  OW  HW  HW  
OW  HW  HW  OW  HW  HW  OW  HW  HW  OW  HW  HW  OW  HW  HW  OW  HW  HW  OW  HW  
HW  OW  HW  HW  OW  HW  HW  OW  HW  HW  OW  HW  HW  OW  HW  HW  OW  HW  HW  OW  
HW  HW  OW  HW  HW  OW  HW  HW  OW  HW  HW  OW  HW  HW  OW  HW  HW  OW  HW  HW  
OW  HW  HW  OW  HW  HW  OW  HW  HW  OW  HW  HW  OW  HW  HW  OW  HW  HW  OW  HW  
HW  OW  HW  HW  OW  HW  HW  OW  HW  HW  OW  HW  HW  OW  HW  HW  OW  HW  HW  OW  
HW  HW  OW  HW  HW  OW  HW  HW  OW  HW  HW  OW  HW  HW  OW  HW  HW  OW  HW  HW  
OW  HW  HW  OW  HW  HW  OW  HW  HW  OW  HW  HW  OW  HW  HW  OW  HW  HW  OW  HW  
HW  OW  HW  HW  OW  HW  HW  OW  HW  HW  OW  HW  HW  OW  HW  HW  OW  HW  HW  OW  
HW  HW  OW  HW  HW  OW  HW  HW  OW  HW  HW  OW  HW  HW  OW  HW  HW  OW  HW  HW  
OW  HW  HW  OW  HW  HW  OW  HW  HW  OW  HW  HW  OW  HW  HW  OW  HW  HW  OW  HW  
HW  OW  HW  HW  OW  HW  HW  OW  HW  HW  OW  HW  HW  OW  HW  HW  OW  HW  HW  OW  
HW  HW  OW  HW  HW  OW  HW  HW  OW  HW  HW  OW  HW  HW  OW  HW  HW  OW  HW  HW  
OW  HW  HW  OW  HW  HW  OW  HW  HW  OW  HW  HW  OW  HW  HW  OW  HW  HW  OW  HW  
HW  OW  HW  HW  OW  HW  HW  OW  HW  HW  OW  HW  HW  OW  HW  HW  OW  HW  HW  OW  
HW  HW  OW  HW  HW  OW  HW  HW  OW  HW  HW  OW  HW  HW  OW  HW  HW  OW  HW  HW  
OW  HW  HW  OW  HW  HW  OW  HW  HW  OW  HW  HW  OW  HW  HW  OW  HW  HW  OW  HW  
HW  OW  HW  HW  OW  HW  HW  OW  HW  HW  OW  HW  HW  OW  HW  HW  OW  HW  HW  OW  
HW  HW  OW  HW  HW  OW  HW  HW  OW  HW  HW  OW  HW  HW  OW  HW  HW  OW  HW  HW  
OW  HW  HW  OW  HW  HW  OW  HW  HW  OW  HW  HW  OW  HW  HW  OW  HW  HW  OW  HW  
HW  OW  HW  HW  OW  HW  HW  OW  HW  HW  OW  HW  HW  OW  HW  HW  OW  HW  HW  OW  
HW  HW  OW  HW  HW  OW  HW  HW  OW  HW  HW  OW  HW  HW  OW  HW  HW  OW  HW  HW  
OW  HW  HW  OW  HW  HW  OW  HW  HW  OW  HW  HW  OW  HW  HW  OW  HW  HW  OW  HW  
HW  OW  HW  HW  OW  HW  HW  OW  HW  HW  OW  HW  HW  OW  HW  HW  OW  HW  HW  OW  
HW  HW  OW  HW  HW  OW  HW  HW  OW  HW  HW  OW  HW  HW  OW  HW  HW  OW  HW  HW  
OW  HW  HW  OW  HW  HW  OW  HW  HW  OW  HW  HW  OW  HW  HW  OW  HW  HW  OW  HW  
HW  OW  HW  HW  OW  HW  HW  OW  HW  HW  OW  HW  HW  OW  HW  HW  OW  HW  HW  OW  
HW  HW  OW  HW  HW  OW  HW  HW  OW  HW  HW  OW  HW  HW  OW  HW  HW  OW  HW  HW  
OW  HW  HW  OW  HW  HW  OW  HW  HW  OW  HW  HW  OW  HW  HW  OW  HW  HW  OW  HW  
HW  OW  HW  HW  OW  HW  HW  OW  HW  HW  OW  HW  HW  OW  HW  HW  OW  HW  HW  OW  
HW  HW  OW  HW  HW  OW  HW  HW  OW  HW  HW  OW  HW  HW  OW  HW  HW  OW  HW  HW  
OW  HW  HW  OW  HW  HW  OW  HW  HW  OW  HW  HW  OW  HW  HW  OW  HW  HW  OW  HW  
HW  OW  HW  HW  OW  HW  HW  OW  HW  HW  OW  HW  HW  OW  HW  HW  OW  HW  HW  OW  
HW  HW  OW  HW  HW  OW  HW  HW  OW  HW  HW  OW  HW  HW  OW  HW  HW  OW  HW  HW  
OW  HW  HW  OW  HW  HW  OW  HW  HW  OW  HW  HW  OW  HW  HW  OW  HW  HW  OW  HW  
HW  OW  HW  HW  OW  HW  HW  OW  HW  HW  OW  HW  HW  OW  HW  HW  OW  HW  HW  OW  
HW  HW  OW  HW  HW  OW  HW  HW  OW  HW  HW  OW  HW  HW  OW  HW  HW  OW  HW  HW  
OW  HW  HW  OW  HW  HW  OW  HW  HW  OW  HW  HW  OW  HW  HW  OW  HW  HW  OW  HW  
HW  OW  HW  HW  OW  HW  HW  OW  HW  HW  OW  HW  HW  OW  HW  HW  OW  HW  HW  OW  
HW  HW  OW  HW  HW  OW  HW  HW  OW  HW  HW  OW  HW  HW  OW  HW  HW  OW  HW  HW  
OW  HW  HW  OW  HW  HW  OW  HW  HW  OW  HW  HW  OW  HW  HW  OW  HW  HW  OW  HW  
HW  OW  HW  HW  OW  HW  HW  OW  HW  HW  OW  HW  HW  OW  HW  HW  OW  HW  HW  OW  
HW  HW  OW  HW  HW  OW  HW  HW  OW  HW  HW  OW  HW  HW  OW  HW  HW  OW  HW  HW  
OW  HW  HW  OW  HW  HW  OW  HW  HW  OW  HW  HW  OW  HW  HW  OW  HW  HW  OW  HW  
HW  OW  HW  HW  OW  HW  HW  OW  HW  HW  OW  HW  HW  OW  HW  HW  OW  HW  HW  OW  
HW  HW  OW  HW  HW  OW  HW  HW  OW  HW  HW  OW  HW  HW  OW  HW  HW  OW  HW  HW  
OW  HW  HW  OW  HW  HW  OW  HW  HW  OW  HW  HW  OW  HW  HW  OW  HW  HW  OW  HW  
HW  OW  HW  HW  OW  HW  HW  OW  HW  HW  OW  HW  HW  OW  HW  HW  OW  HW  HW  OW  
HW  HW  OW  HW  HW  OW  HW  HW  OW  HW  HW  OW  HW  HW  OW  HW  HW  OW  HW  HW  
OW  HW  HW  OW  HW  HW  OW  HW  HW  OW  HW  HW  OW  HW  HW  OW  HW  HW  OW  HW  
HW  OW  HW  HW  OW  HW  HW  OW  HW  HW  OW  HW  HW  OW  HW  HW  OW  HW  HW  OW  
HW  HW  OW  HW  HW  OW  HW  HW  OW  HW  HW  OW  HW  HW  OW  HW  HW  OW  HW  HW  
OW  HW  HW  OW  HW  HW  OW  HW  HW  OW  HW  HW  OW  HW  HW  OW  HW  HW  OW  HW  
HW  OW  HW  HW  OW  HW  HW  OW  HW  HW  OW  HW  HW  OW  HW  HW  OW  HW  HW  OW  
HW  HW  OW  HW  HW  OW  HW  HW  OW  HW  HW  OW  HW  HW  OW  HW  HW  OW  HW  HW  
OW  HW  HW  OW  HW  HW  OW  HW  HW  OW  HW  HW  OW  HW  HW  OW  HW  HW  OW  HW  
HW  OW  HW  HW  OW  HW  HW  OW  HW  HW  OW  HW  HW  OW  HW  HW  OW  HW  HW  OW  
HW  HW  OW  HW  HW  OW  HW  HW  OW  HW  HW  OW  HW  HW  OW  HW  HW  OW  HW  HW  
OW  HW  HW  OW  HW  HW  OW  HW  HW  OW  HW  HW  OW  HW  HW  OW  HW  HW  OW  HW  
HW  OW  HW  HW  OW  HW  HW  OW  HW  HW  OW  HW  HW  OW  HW  HW  OW  HW  HW  OW  
HW  HW  OW  HW  HW  OW  HW  HW  OW  HW  HW  OW  HW  HW  OW  HW  HW  OW  HW  HW  
OW  HW  HW  OW  HW  HW  OW  HW  HW  OW  HW  HW  OW  HW  HW  OW  HW  HW  OW  HW  
HW  OW  HW  HW  OW  HW  HW  OW  HW  HW  OW  HW  HW  OW  HW  HW  OW  HW  HW  OW  
HW  HW  OW  HW  HW  OW  HW  HW  OW  HW  HW  OW  HW  HW  OW  HW  HW  OW  HW  HW  
OW  HW  HW  OW  HW  HW  OW  HW  HW  OW  HW  HW  OW  HW  HW  OW  HW  HW  OW  HW  
HW  OW  HW  HW  OW  HW  HW  OW  HW  HW  OW  HW  HW  OW  HW  HW  OW  HW  HW  OW  
HW  HW  OW  HW  HW  OW  HW  HW  OW  HW  HW  OW  HW  HW  OW  HW  HW  OW  HW  HW  
OW  HW  HW  OW  HW  HW  OW  HW  HW  OW  HW  HW  OW  HW  HW  OW  HW  HW  OW  HW  
HW  OW  HW  HW  OW  HW  HW  OW  HW  HW  OW  HW  HW  OW  HW  HW  OW  HW  HW  OW  
HW  HW  OW  HW  HW  OW  HW  HW  OW  HW  HW  OW  HW  HW  OW  HW  HW  OW  HW  HW  
OW  HW  HW  OW  HW  HW  OW  HW  HW  OW  HW  HW  OW  HW  HW  OW  HW  HW  OW  HW  
HW  OW  HW  HW  OW  HW  HW  OW  HW  HW  OW  HW  HW  OW  HW  HW  OW  HW  HW  OW  
HW  HW  OW  HW  HW  OW  HW  HW  OW  HW  HW  OW  HW  HW  OW  HW  HW  OW  HW  HW  
OW  HW  HW  OW  HW  HW  OW  HW  HW  OW  HW  HW  OW  HW  HW  OW  HW  HW  OW  HW  
HW  OW  HW  HW  OW  HW  HW  OW  HW  HW  OW  HW  HW  OW  HW  HW  OW  HW  HW  OW  
HW  HW  OW  HW  HW  OW  HW  HW  OW  HW  HW  OW  HW  HW  OW  HW  HW  OW  HW  HW  
OW  HW  HW  OW  HW  HW  OW  HW  HW  OW  HW  HW  OW  HW  HW  OW  HW  HW  OW  HW  
HW  OW  HW  HW  OW  HW  HW  OW  HW  HW  OW  HW  HW  OW  HW  HW  OW  HW  HW  OW  
HW  HW  OW  HW  HW  OW  HW  HW  OW  HW  HW  OW  HW  HW  OW  HW  HW  OW  HW  HW  
OW  HW  HW  OW  HW  HW  OW  HW  HW  OW  HW  HW  OW  HW  HW  OW  HW  HW  OW  HW  
HW  OW  HW  HW  OW  HW  HW  OW  HW  HW  OW  HW  HW  OW  HW  HW  OW  HW  HW  OW  
HW  HW  OW  HW  HW  OW  HW  HW  OW  HW  HW  OW  HW  HW  OW  HW  HW  OW  HW  HW  
OW  HW  HW  OW  HW  HW  OW  HW  HW  OW  HW  HW  OW  HW  HW  OW  HW  HW  OW  HW  
HW  OW  HW  HW  OW  HW  HW  OW  HW  HW  OW  HW  HW  OW  HW  HW  OW  HW  HW  OW  
HW  HW  OW  HW  HW  OW  HW  HW  OW  HW  HW  OW  HW  HW  OW  HW  HW  OW  HW  HW  
OW  HW  HW  OW  HW  HW  OW  HW  HW  OW  HW  HW  OW  HW  HW  OW  HW  HW  OW  HW  
HW  OW  HW  HW  OW  HW  HW  OW  HW  HW  OW  HW  HW  OW  HW  HW  OW  HW  HW  OW  
HW  HW  OW  HW  HW  OW  HW  HW  OW  HW  HW  OW  HW  HW  OW  HW  HW  OW  HW  HW  
OW  HW  HW  OW  HW  HW  OW  HW  HW  OW  HW  HW  OW  HW  HW  OW  HW  HW  OW  HW  
HW  OW  HW  HW  OW  HW  HW  OW  HW  HW  OW  HW  HW  OW  HW  HW  OW  HW  HW  OW  
HW  HW  OW  HW  HW  OW  HW  HW  OW  HW  HW  OW  HW  HW  OW  HW  HW  OW  HW  HW  
OW  HW  HW  OW  HW  HW  OW  HW  HW  OW  HW  HW  OW  HW  HW  OW  HW  HW  OW  HW  
HW  OW  HW  HW  OW  HW  HW  OW  HW  HW  OW  HW  HW  OW  HW  HW  OW  HW  HW  OW  
HW  HW  OW  HW  HW  OW  HW  HW  OW  HW  HW  OW  HW  HW  OW  HW  HW  OW  HW  HW  
OW  HW  HW  OW  HW  HW  OW  HW  HW  OW  HW  HW  OW  HW  HW  OW  HW  HW  OW  HW  
HW  OW  HW  HW  OW  HW  HW  OW  HW  HW  OW  HW  HW  OW  HW  HW  OW  HW  HW  OW  
HW  HW  OW  HW  HW  OW  HW  HW  OW  HW  HW  OW  HW  HW  OW  HW  HW  OW  HW  HW  
OW  HW  HW  OW  HW  HW  OW  HW  HW  OW  HW  HW  OW  HW  HW  OW  HW  HW  OW  HW  
HW  OW  HW  HW  OW  HW  HW  OW  HW  HW  OW  HW  HW  OW  HW  HW  OW  HW  HW  OW  
HW  HW  OW  HW  HW  OW  HW  HW  OW  HW  HW  OW  HW  HW  OW  HW  HW  OW  HW  HW  
OW  HW  HW  OW  HW  HW  OW  HW  HW  OW  HW  HW  OW  HW  HW  OW  HW  HW  OW  HW  
HW  OW  HW  HW  OW  HW  HW  OW  HW  HW  OW  HW  HW  OW  HW  HW  OW  HW  HW  OW  
HW  HW  OW  HW  HW  OW  HW  HW  OW  HW  HW  OW  HW  HW  OW  HW  HW  OW  HW  HW  
OW  HW  HW  OW  HW  HW  OW  HW  HW  OW  HW  HW  OW  HW  HW  OW  HW  HW  OW  HW  
HW  OW  HW  HW  OW  HW  HW  OW  HW  HW  OW  HW  HW  OW  HW  HW  OW  HW  HW  OW  
HW  HW  OW  HW  HW  OW  HW  HW  OW  HW  HW  OW  HW  HW  OW  HW  HW  OW  HW  HW  
OW  HW  HW  OW  HW  HW  OW  HW  HW  OW  HW  HW  OW  HW  HW  OW  HW  HW  OW  HW  
HW  OW  HW  HW  OW  HW  HW  OW  HW  HW  OW  HW  HW  OW  HW  HW  OW  HW  HW  OW  
HW  HW  OW  HW  HW  OW  HW  HW  OW  HW  HW  OW  HW  HW  OW  HW  HW  OW  HW  HW  
OW  HW  HW  OW  HW  HW  OW  HW  HW  OW  HW  HW  OW  HW  HW  OW  HW  HW  OW  HW  
HW  OW  HW  HW  OW  HW  HW  OW  HW  HW  OW  HW  HW  OW  HW  HW  OW  HW  HW  OW  
HW  HW  OW  HW  HW  OW  HW  HW  OW  HW  HW  OW  HW  HW  OW  HW  HW  OW  HW  HW  
OW  HW  HW  OW  HW  HW  OW  HW  HW  OW  HW  HW  OW  HW  HW  OW  HW  HW  OW  HW  
HW  OW  HW  HW  OW  HW  HW  OW  HW  HW  OW  HW  HW  OW  HW  HW  OW  HW  HW  OW  
HW  HW  OW  HW  HW  OW  HW  HW  OW  HW  HW  OW  HW  HW  OW  HW  HW  OW  HW  HW  
OW  HW  HW  OW  HW  HW  OW  HW  HW  OW  HW  HW  OW  HW  HW  OW  HW  HW  OW  HW  
HW  OW  HW  HW  OW  HW  HW  OW  HW  HW  OW  HW  HW  OW  HW  HW  OW  HW  HW  OW  
HW  HW  OW  HW  HW  OW  HW  HW  OW  HW  HW  OW  HW  HW  OW  HW  HW  OW  HW  HW  
OW  HW  HW  OW  HW  HW  OW  HW  HW  OW  HW  HW  OW  HW  HW  OW  HW  HW  OW  HW  
HW  OW  HW  HW  OW  HW  HW  OW  HW  HW  OW  HW  HW  OW  HW  HW  OW  HW  HW  OW  
HW  HW  OW  HW  HW  OW  HW  HW  OW  HW  HW  OW  HW  HW  OW  HW  HW  OW  HW  HW  
OW  HW  HW  OW  HW  HW  OW  HW  HW  OW  HW  HW  OW  HW  HW  OW  HW  HW  OW  HW  
HW  OW  HW  HW  OW  HW  HW  OW  HW  HW  OW  HW  HW  OW  HW  HW  OW  HW  HW  OW  
HW  HW  OW  HW  HW  OW  HW  HW  OW  HW  HW  OW  HW  HW  OW  HW  HW  OW  HW  HW  
OW  HW  HW  OW  HW  HW  OW  HW  HW  OW  HW  HW  OW  HW  HW  OW  HW  HW  OW  HW  
HW  OW  HW  HW  OW  HW  HW  OW  HW  HW  OW  HW  HW  OW  HW  HW  OW  HW  HW  OW  
HW  HW  OW  HW  HW  OW  HW  HW  OW  HW  HW  OW  HW  HW  OW  HW  HW  OW  HW  HW  
OW  HW  HW  OW  HW  HW  OW  HW  HW  OW  HW  HW  OW  HW  HW  OW  HW  HW  OW  HW  
HW  OW  HW  HW  OW  HW  HW  OW  HW  HW  OW  HW  HW  OW  HW  HW  OW  HW  HW  OW  
HW  HW  OW  HW  HW  OW  HW  HW  OW  HW  HW  OW  HW  HW  OW  HW  HW  OW  HW  HW  
OW  HW  HW  OW  HW  HW  OW  HW  HW  OW  HW  HW  OW  HW  HW  OW  HW  HW  OW  HW  
HW  OW  HW  HW  OW  HW  HW  OW  HW  HW  OW  HW  HW  OW  HW  HW  OW  HW  HW  OW  
HW  HW  OW  HW  HW  OW  HW  HW  OW  HW  HW  OW  HW  HW  OW  HW  HW  OW  HW  HW  
OW  HW  HW  OW  HW  HW  OW  HW  HW  OW  HW  HW  OW  HW  HW  OW  HW  HW  OW  HW  
HW  OW  HW  HW  OW  HW  HW  OW  HW  HW  OW  HW  HW  OW  HW  HW  OW  HW  HW  OW  
HW  HW  OW  HW  HW  OW  HW  HW  OW  HW  HW  OW  HW  HW  OW  HW  HW  OW  HW  HW  
OW  HW  HW  OW  HW  HW  OW  HW  HW  OW  HW  HW  OW  HW  HW  OW  HW  HW  OW  HW  
HW  OW  HW  HW  OW  HW  HW  OW  HW  HW  OW  HW  HW  OW  HW  HW  OW  HW  HW  OW  
HW  HW  OW  HW  HW  OW  HW  HW  OW  HW  HW  OW  HW  HW  OW  HW  HW  OW  HW  HW  
OW  HW  HW  OW  HW  HW  OW  HW  HW  OW  HW  HW  OW  HW  HW  OW  HW  HW  OW  HW  
HW  OW  HW  HW  OW  HW  HW  OW  HW  HW  OW  HW  HW  OW  HW  HW  OW  HW  HW  OW  
HW  HW  OW  HW  HW  OW  HW  HW  OW  HW  HW  OW  HW  HW  OW  HW  HW  OW  HW  HW  
OW  HW  HW  OW  HW  HW  OW  HW  HW  OW  HW  HW  OW  HW  HW  OW  HW  HW  OW  HW  
HW  OW  HW  HW  OW  HW  HW  OW  HW  HW  OW  HW  HW  OW  HW  HW  OW  HW  HW  OW  
HW  HW  OW  HW  HW  OW  HW  HW  OW  HW  HW  OW  HW  HW  OW  HW  HW  OW  HW  HW  
OW  HW  HW  OW  HW  HW  OW  HW  HW  OW  HW  HW  OW  HW  HW  OW  HW  HW  OW  HW  
HW  OW  HW  HW  OW  HW  HW  OW  HW  HW  OW  HW  HW  OW  HW  HW  OW  HW  HW  OW  
HW  HW  OW  HW  HW  OW  HW  HW  OW  HW  HW  OW  HW  HW  OW  HW  HW  OW  HW  HW  
OW  HW  HW  OW  HW  HW  OW  HW  HW  OW  HW  HW  OW  HW  HW  OW  HW  HW  OW  HW  
HW  OW  HW  HW  OW  HW  HW  OW  HW  HW  OW  HW  HW  OW  HW  HW  OW  HW  HW  OW  
HW  HW  OW  HW  HW  OW  HW  HW  OW  HW  HW  OW  HW  HW  OW  HW  HW  OW  HW  HW  
OW  HW  HW  OW  HW  HW  OW  HW  HW  OW  HW  HW  OW  HW  HW  OW  HW  HW  OW  HW  
HW  OW  HW  HW  OW  HW  HW  OW  HW  HW  OW  HW  HW  OW  HW  HW  OW  HW  HW  OW  
HW  HW  OW  HW  HW  OW  HW  HW  OW  HW  HW  OW  HW  HW  OW  HW  HW  OW  HW  HW  
OW  HW  HW  OW  HW  HW  OW  HW  HW  OW  HW  HW  OW  HW  HW  OW  HW  HW  OW  HW  
HW  OW  HW  HW  OW  HW  HW  OW  HW  HW  OW  HW  HW  OW  HW  HW  OW  HW  HW  OW  
HW  HW  OW  HW  HW  OW  HW  HW  OW  HW  HW  OW  HW  HW  OW  HW  HW  OW  HW  HW  
OW  HW  HW  OW  HW  HW  OW  HW  HW  OW  HW  HW  OW  HW  HW  OW  HW  HW  OW  HW  
HW  OW  HW  HW  OW  HW  HW  OW  HW  HW  OW  HW  HW  OW  HW  HW  OW  HW  HW  OW  
HW  HW  OW  HW  HW  OW  HW  HW  OW  HW  HW  OW  HW  HW  OW  HW  HW  OW  HW  HW  
OW  HW  HW  OW  HW  HW  OW  HW  HW  OW  HW  HW  OW  HW  HW  OW  HW  HW  OW  HW  
HW  OW  HW  HW  OW  HW  HW  OW  HW  HW  OW  HW  HW  OW  HW  HW  OW  HW  HW  OW  
HW  HW  OW  HW  HW  OW  HW  HW  OW  HW  HW  OW  HW  HW  OW  HW  HW  OW  HW  HW  
OW  HW  HW  OW  HW  HW  OW  HW  HW  OW  HW  HW  OW  HW  HW  OW  HW  HW  OW  HW  
HW  OW  HW  HW  OW  HW  HW  OW  HW  HW  OW  HW  HW  OW  HW  HW  OW  HW  HW  OW  
HW  HW  OW  HW  HW  OW  HW  HW  OW  HW  HW  OW  HW  HW  OW  HW  HW  OW  HW  HW  
OW  HW  HW  OW  HW  HW  OW  HW  HW  OW  HW  HW  OW  HW  HW  OW  HW  HW  OW  HW  
HW  OW  HW  HW  OW  HW  HW  OW  HW  HW  OW  HW  HW  OW  HW  HW  OW  HW  HW  OW  
HW  HW  OW  HW  HW  OW  HW  HW  OW  HW  HW  OW  HW  HW  OW  HW  HW  OW  HW  HW  
OW  HW  HW  OW  HW  HW  OW  HW  HW  OW  HW  HW  OW  HW  HW  OW  HW  HW  OW  HW  
HW  OW  HW  HW  OW  HW  HW  OW  HW  HW  OW  HW  HW  OW  HW  HW  OW  HW  HW  OW  
HW  HW  OW  HW  HW  OW  HW  HW  OW  HW  HW  OW  HW  HW  OW  HW  HW  OW  HW  HW  
OW  HW  HW  OW  HW  HW  OW  HW  HW  OW  HW  HW  OW  HW  HW  OW  HW  HW  OW  HW  
HW  OW  HW  HW  OW  HW  HW  OW  HW  HW  OW  HW  HW  OW  HW  HW  OW  HW  HW  OW  
HW  HW  OW  HW  HW  OW  HW  HW  OW  HW  HW  OW  HW  HW  OW  HW  HW  OW  HW  HW  
OW  HW  HW  OW  HW  HW  OW  HW  HW  OW  HW  HW  OW  HW  HW  OW  HW  HW  OW  HW  
HW  OW  HW  HW  OW  HW  HW  OW  HW  HW  OW  HW  HW  OW  HW  HW  OW  HW  HW  OW  
HW  HW  OW  HW  HW  OW  HW  HW  OW  HW  HW  OW  HW  HW  OW  HW  HW  OW  HW  HW  
OW  HW  HW  OW  HW  HW  OW  HW  HW  OW  HW  HW  OW  HW  HW  OW  HW  HW  OW  HW  
HW  OW  HW  HW  OW  HW  HW  OW  HW  HW  OW  HW  HW  OW  HW  HW  OW  HW  HW  OW  
HW  HW  OW  HW  HW  OW  HW  HW  OW  HW  HW  OW  HW  HW  OW  HW  HW  OW  HW  HW  
OW  HW  HW  OW  HW  HW  OW  HW  HW  OW  HW  HW  OW  HW  HW  OW  HW  HW  OW  HW  
HW  OW  HW  HW  OW  HW  HW  OW  HW  HW  OW  HW  HW  OW  HW  HW  OW  HW  HW  OW  
HW  HW  OW  HW  HW  OW  HW  HW  OW  HW  HW  OW  HW  HW  OW  HW  HW  OW  HW  HW  
OW  HW  HW  OW  HW  HW  OW  HW  HW  OW  HW  HW  OW  HW  HW  OW  HW  HW  OW  HW  
HW  OW  HW  HW  OW  HW  HW  OW  HW  HW  OW  HW  HW  OW  HW  HW  OW  HW  HW  OW  
HW  HW  OW  HW  HW  OW  HW  HW  OW  HW  HW  OW  HW  HW  OW  HW  HW  OW  HW  HW  
OW  HW  HW  OW  HW  HW  OW  HW  HW  OW  HW  HW  OW  HW  HW  OW  HW  HW  OW  HW  
HW  OW  HW  HW  OW  HW  HW  OW  HW  HW  OW  HW  HW  OW  HW  HW  OW  HW  HW  OW  
HW  HW  OW  HW  HW  OW  HW  HW  OW  HW  HW  OW  HW  HW  OW  HW  HW  OW  HW  HW  
OW  HW  HW  OW  HW  HW  OW  HW  HW  OW  HW  HW  OW  HW  HW  OW  HW  HW  OW  HW  
HW  OW  HW  HW  OW  HW  HW  OW  HW  HW  OW  HW  HW  OW  HW  HW  OW  HW  HW  OW  
HW  HW  OW  HW  HW  OW  HW  HW  OW  HW  HW  OW  HW  HW  OW  HW  HW  OW  HW  HW  
OW  HW  HW  OW  HW  HW  OW  HW  HW  OW  HW  HW  OW  HW  HW  OW  HW  HW  OW  HW  
HW  OW  HW  HW  OW  HW  HW  OW  HW  HW  OW  HW  HW  OW  HW  HW  OW  HW  HW  OW  
HW  HW  OW  HW  HW  OW  HW  HW  OW  HW  HW  OW  HW  HW  OW  HW  HW  OW  HW  HW  
OW  HW  HW  OW  HW  HW  OW  HW  HW  OW  HW  HW  OW  HW  HW  OW  HW  HW  OW  HW  
HW  OW  HW  HW  OW  HW  HW  OW  HW  HW  OW  HW  HW  OW  HW  HW  OW  HW  HW  OW  
HW  HW  OW  HW  HW  OW  HW  HW  OW  HW  HW  OW  HW  HW  OW  HW  HW  OW  HW  HW  
OW  HW  HW  OW  HW  HW  OW  HW  HW  OW  HW  HW  OW  HW  HW  OW  HW  HW  OW  HW  
HW  OW  HW  HW  OW  HW  HW  OW  HW  HW  OW  HW  HW  OW  HW  HW  OW  HW  HW  OW  
HW  HW  OW  HW  HW  OW  HW  HW  OW  HW  HW  OW  HW  HW  OW  HW  HW  OW  HW  HW  
OW  HW  HW  OW  HW  HW  OW  HW  HW  OW  HW  HW  OW  HW  HW  OW  HW  HW  OW  HW  
HW  OW  HW  HW  OW  HW  HW  OW  HW  HW  OW  HW  HW  OW  HW  HW  OW  HW  HW  OW  
HW  HW  OW  HW  HW  OW  HW  HW  OW  HW  HW  OW  HW  HW  OW  HW  HW  OW  HW  HW  
OW  HW  HW  OW  HW  HW  OW  HW  HW  OW  HW  HW  OW  HW  HW  OW  HW  HW  OW  HW  
HW  OW  HW  HW  OW  HW  HW  OW  HW  HW  OW  HW  HW  OW  HW  HW  OW  HW  HW  OW  
HW  HW  OW  HW  HW  OW  HW  HW  OW  HW  HW  OW  HW  HW  OW  HW  HW  OW  HW  HW  
OW  HW  HW  OW  HW  HW  OW  HW  HW  OW  HW  HW  OW  HW  HW  OW  HW  HW  OW  HW  
HW  OW  HW  HW  OW  HW  HW  OW  HW  HW  OW  HW  HW  OW  HW  HW  OW  HW  HW  OW  
HW  HW  OW  HW  HW  OW  HW  HW  OW  HW  HW  OW  HW  HW  OW  HW  HW  OW  HW  HW  
OW  HW  HW  OW  HW  HW  OW  HW  HW  OW  HW  HW  OW  HW  HW  OW  HW  HW  OW  HW  
HW  OW  HW  HW  OW  HW  HW  OW  HW  HW  OW  HW  HW  OW  HW  HW  OW  HW  HW  OW  
HW  HW  OW  HW  HW  OW  HW  HW  OW  HW  HW  OW  HW  HW  OW  HW  HW  OW  HW  HW  
OW  HW  HW  OW  HW  HW  OW  HW  HW  OW  HW  HW  OW  HW  HW  OW  HW  HW  OW  HW  
HW  OW  HW  HW  OW  HW  HW  OW  HW  HW  OW  HW  HW  OW  HW  HW  OW  HW  HW  OW  
HW  HW  OW  HW  HW  OW  HW  HW  OW  HW  HW  OW  HW  HW  OW  HW  HW  OW  HW  HW  
OW  HW  HW  OW  HW  HW  OW  HW  HW  OW  HW  HW  OW  HW  HW  OW  HW  HW  OW  HW  
HW  OW  HW  HW  OW  HW  HW  OW  HW  HW  OW  HW  HW  OW  HW  HW  OW  HW  HW  OW  
HW  HW  OW  HW  HW  OW  HW  HW  OW  HW  HW  OW  HW  HW  OW  HW  HW  OW  HW  HW  
OW  HW  HW  OW  HW  HW  OW  HW  HW  OW  HW  HW  OW  HW  HW  OW  HW  HW  OW  HW  
HW  OW  HW  HW  OW  HW  HW  OW  HW  HW  OW  HW  HW  OW  HW  HW  OW  HW  HW  OW  
HW  HW  OW  HW  HW  OW  HW  HW  OW  HW  HW  OW  HW  HW  OW  HW  HW  OW  HW  HW  
OW  HW  HW  OW  HW  HW  OW  HW  HW  OW  HW  HW  OW  HW  HW  OW  HW  HW  OW  HW  
HW  OW  HW  HW  OW  HW  HW  OW  HW  HW  OW  HW  HW  OW  HW  HW  OW  HW  HW  OW  
HW  HW  OW  HW  HW  OW  HW  HW  OW  HW  HW  OW  HW  HW  OW  HW  HW  OW  HW  HW  
OW  HW  HW  OW  HW  HW  OW  HW  HW  OW  HW  HW  OW  HW  HW  OW  HW  HW  OW  HW  
HW  OW  HW  HW  OW  HW  HW  OW  HW  HW  OW  HW  HW  OW  HW  HW  OW  HW  HW  OW  
HW  HW  OW  HW  HW  OW  HW  HW  OW  HW  HW  OW  HW  HW  OW  HW  HW  OW  HW  HW  
OW  HW  HW  OW  HW  HW  OW  HW  HW  OW  HW  HW  OW  HW  HW  OW  HW  HW  OW  HW  
HW  OW  HW  HW  OW  HW  HW  OW  HW  HW  OW  HW  HW  OW  HW  HW  OW  HW  HW  OW  
HW  HW  OW  HW  HW  OW  HW  HW  OW  HW  HW  OW  HW  HW  OW  HW  HW  OW  HW  HW  
OW  HW  HW  OW  HW  HW  OW  HW  HW  OW  HW  HW  OW  HW  HW  OW  HW  HW  OW  HW  
HW  OW  HW  HW  OW  HW  HW  OW  HW  HW  OW  HW  HW  OW  HW  HW  OW  HW  HW  OW  
HW  HW  OW  HW  HW  OW  HW  HW  OW  HW  HW  OW  HW  HW  OW  HW  HW  OW  HW  HW  
OW  HW  HW  OW  HW  HW  OW  HW  HW  OW  HW  HW  OW  HW  HW  OW  HW  HW  OW  HW  
HW  OW  HW  HW  OW  HW  HW  OW  HW  HW  OW  HW  HW  OW  HW  HW  OW  HW  HW  OW  
HW  HW  OW  HW  HW  OW  HW  HW  OW  HW  HW  OW  HW  HW  OW  HW  HW  OW  HW  HW  
OW  HW  HW  OW  HW  HW  OW  HW  HW  OW  HW  HW  OW  HW  HW  OW  HW  HW  OW  HW  
HW  OW  HW  HW  OW  HW  HW  OW  HW  HW  OW  HW  HW  OW  HW  HW  OW  HW  HW  OW  
HW  HW  OW  HW  HW  OW  HW  HW  OW  HW  HW  OW  HW  HW  OW  HW  HW  OW  HW  HW  
OW  HW  HW  OW  HW  HW  OW  HW  HW  OW  HW  HW  OW  HW  HW  OW  HW  HW  OW  HW  
HW  OW  HW  HW  OW  HW  HW  OW  HW  HW  OW  HW  HW  OW  HW  HW  OW  HW  HW  OW  
HW  HW  OW  HW  HW  OW  HW  HW  OW  HW  HW  OW  HW  HW  OW  HW  HW  OW  HW  HW  
OW  HW  HW  OW  HW  HW  OW  HW  HW  OW  HW  HW  OW  HW  HW  OW  HW  HW  OW  HW  
HW  OW  HW  HW  OW  HW  HW  OW  HW  HW  OW  HW  HW  OW  HW  HW  OW  HW  HW  OW  
HW  HW  OW  HW  HW  OW  HW  HW  OW  HW  HW  OW  HW  HW  OW  HW  HW  OW  HW  HW  
OW  HW  HW  OW  HW  HW  OW  HW  HW  OW  HW  HW  OW  HW  HW  OW  HW  HW  OW  HW  
HW  OW  HW  HW  OW  HW  HW  OW  HW  HW  OW  HW  HW  OW  HW  HW  OW  HW  HW  OW  
HW  HW  OW  HW  HW  OW  HW  HW  OW  HW  HW  OW  HW  HW  OW  HW  HW  OW  HW  HW  
OW  HW  HW  OW  HW  HW  OW  HW  HW  OW  HW  HW  OW  HW  HW  OW  HW  HW  OW  HW  
HW  OW  HW  HW  OW  HW  HW  OW  HW  HW  OW  HW  HW  OW  HW  HW  OW  HW  HW  OW  
HW  HW  OW  HW  HW  OW  HW  HW  OW  HW  HW  OW  HW  HW  OW  HW  HW  OW  HW  HW  
OW  HW  HW  OW  HW  HW  OW  HW  HW  OW  HW  HW  OW  HW  HW  OW  HW  HW  OW  HW  
HW  OW  HW  HW  OW  HW  HW  OW  HW  HW  OW  HW  HW  OW  HW  HW  OW  HW  HW  OW  
HW  HW  OW  HW  HW  OW  HW  HW  OW  HW  HW  OW  HW  HW  OW  HW  HW  OW  HW  HW  
OW  HW  HW  OW  HW  HW  OW  HW  HW  OW  HW  HW  OW  HW  HW  OW  HW  HW  OW  HW  
HW  OW  HW  HW  OW  HW  HW  OW  HW  HW  OW  HW  HW  OW  HW  HW  OW  HW  HW  OW  
HW  HW  OW  HW  HW  OW  HW  HW  OW  HW  HW  OW  HW  HW  OW  HW  HW  OW  HW  HW  
OW  HW  HW  OW  HW  HW  OW  HW  HW  OW  HW  HW  OW  HW  HW  OW  HW  HW  OW  HW  
HW  OW  HW  HW  OW  HW  HW  OW  HW  HW  OW  HW  HW  OW  HW  HW  OW  HW  HW  OW  
HW  HW  OW  HW  HW  OW  HW  HW  OW  HW  HW  OW  HW  HW  OW  HW  HW  OW  HW  HW  
OW  HW  HW  OW  HW  HW  OW  HW  HW  OW  HW  HW  OW  HW  HW  OW  HW  HW  OW  HW  
HW  OW  HW  HW  OW  HW  HW  OW  HW  HW  OW  HW  HW  OW  HW  HW  OW  HW  HW  OW  
HW  HW  OW  HW  HW  OW  HW  HW  OW  HW  HW  OW  HW  HW  OW  HW  HW  OW  HW  HW  
OW  HW  HW  OW  HW  HW  OW  HW  HW  OW  HW  HW  OW  HW  HW  OW  HW  HW  OW  HW  
HW  OW  HW  HW  OW  HW  HW  OW  HW  HW  OW  HW  HW  OW  HW  HW  OW  HW  HW  OW  
HW  HW  OW  HW  HW  OW  HW  HW  OW  HW  HW  OW  HW  HW  OW  HW  HW  OW  HW  HW  
OW  HW  HW  OW  HW  HW  OW  HW  HW  OW  HW  HW  OW  HW  HW  OW  HW  HW  OW  HW  
HW  OW  HW  HW  OW  HW  HW  OW  HW  HW  OW  HW  HW  OW  HW  HW  OW  HW  HW  OW  
HW  HW  OW  HW  HW  OW  HW  HW  OW  HW  HW  OW  HW  HW  OW  HW  HW  OW  HW  HW  
OW  HW  HW  OW  HW  HW  OW  HW  HW  OW  HW  HW  OW  HW  HW  OW  HW  HW  OW  HW  
HW  OW  HW  HW  OW  HW  HW  OW  HW  HW  OW  HW  HW  OW  HW  HW  OW  HW  HW  OW  
HW  HW  OW  HW  HW  OW  HW  HW  OW  HW  HW  OW  HW  HW  OW  HW  HW  OW  HW  HW  
OW  HW  HW  OW  HW  HW  OW  HW  HW  OW  HW  HW  OW  HW  HW  OW  HW  HW  OW  HW  
HW  OW  HW  HW  OW  HW  HW  OW  HW  HW  OW  HW  HW  OW  HW  HW  OW  HW  HW  OW  
HW  HW  OW  HW  HW  OW  HW  HW  OW  HW  HW  OW  HW  HW  OW  HW  HW  OW  HW  HW  
OW  HW  HW  OW  HW  HW  OW  HW  HW  OW  HW  HW  OW  HW  HW  OW  HW  HW  OW  HW  
HW  OW  HW  HW  OW  HW  HW  OW  HW  HW  OW  HW  HW  OW  HW  HW  OW  HW  HW  OW  
HW  HW  OW  HW  HW  OW  HW  HW  OW  HW  HW  OW  HW  HW  OW  HW  HW  OW  HW  HW  
OW  HW  HW  OW  HW  HW  OW  HW  HW  OW  HW  HW  OW  HW  HW  OW  HW  HW  OW  HW  
HW  OW  HW  HW  OW  HW  HW  OW  HW  HW  OW  HW  HW  OW  HW  HW  OW  HW  HW  OW  
HW  HW  OW  HW  HW  OW  HW  HW  OW  HW  HW  OW  HW  HW  OW  HW  HW  OW  HW  HW  
OW  HW  HW  OW  HW  HW  OW  HW  HW  OW  HW  HW  OW  HW  HW  OW  HW  HW  OW  HW  
HW  OW  HW  HW  OW  HW  HW  OW  HW  HW  OW  HW  HW  OW  HW  HW  OW  HW  HW  OW  
HW  HW  OW  HW  HW  OW  HW  HW  OW  HW  HW  OW  HW  HW  OW  HW  HW  OW  HW  HW  
OW  HW  HW  OW  HW  HW  OW  HW  HW  OW  HW  HW  OW  HW  HW  OW  HW  HW  OW  HW  
HW  OW  HW  HW  OW  HW  HW  OW  HW  HW  OW  HW  HW  OW  HW  HW  OW  HW  HW  OW  
HW  HW  OW  HW  HW  OW  HW  HW  OW  HW  HW  OW  HW  HW  OW  HW  HW  OW  HW  HW  
OW  HW  HW  OW  HW  HW  OW  HW  HW  OW  HW  HW  OW  HW  HW  OW  HW  HW  OW  HW  
HW  OW  HW  HW  OW  HW  HW  OW  HW  HW  OW  HW  HW  OW  HW  HW  OW  HW  HW  OW  
HW  HW  OW  HW  HW  OW  HW  HW  OW  HW  HW  OW  HW  HW  OW  HW  HW  OW  HW  HW  
OW  HW  HW  OW  HW  HW  OW  HW  HW  OW  HW  HW  OW  HW  HW  OW  HW  HW  OW  HW  
HW  OW  HW  HW  OW  HW  HW  OW  HW  HW  OW  HW  HW  OW  HW  HW  OW  HW  HW  OW  
HW  HW  OW  HW  HW  OW  HW  HW  OW  HW  HW  OW  HW  HW  OW  HW  HW  OW  HW  HW  
OW  HW  HW  OW  HW  HW  OW  HW  HW  OW  HW  HW  OW  HW  HW  OW  HW  HW  OW  HW  
HW  OW  HW  HW  OW  HW  HW  OW  HW  HW  OW  HW  HW  OW  HW  HW  OW  HW  HW  OW  
HW  HW  OW  HW  HW  OW  HW  HW  OW  HW  HW  OW  HW  HW  OW  HW  HW  OW  HW  HW  
OW  HW  HW  OW  HW  HW  OW  HW  HW  OW  HW  HW  OW  HW  HW  OW  HW  HW  OW  HW  
HW  OW  HW  HW  OW  HW  HW  OW  HW  HW  OW  HW  HW  OW  HW  HW  OW  HW  HW  OW  
HW  HW  OW  HW  HW  OW  HW  HW  OW  HW  HW  OW  HW  HW  OW  HW  HW  OW  HW  HW  
OW  HW  HW  OW  HW  HW  OW  HW  HW  OW  HW  HW  OW  HW  HW  OW  HW  HW  OW  HW  
HW  OW  HW  HW  OW  HW  HW  OW  HW  HW  OW  HW  HW  OW  HW  HW  OW  HW  HW  OW  
HW  HW  OW  HW  HW  OW  HW  HW  OW  HW  HW  OW  HW  HW  OW  HW  HW  OW  HW  HW  
OW  HW  HW  OW  HW  HW  OW  HW  HW  OW  HW  HW  OW  HW  HW  OW  HW  HW  OW  HW  
HW  OW  HW  HW  OW  HW  HW  OW  HW  HW  OW  HW  HW  OW  HW  HW  OW  HW  HW  OW  
HW  HW  OW  HW  HW  OW  HW  HW  OW  HW  HW  OW  HW  HW  OW  HW  HW  OW  HW  HW  
OW  HW  HW  OW  HW  HW  OW  HW  HW  OW  HW  HW  OW  HW  HW  OW  HW  HW  OW  HW  
HW  OW  HW  HW  OW  HW  HW  OW  HW  HW  OW  HW  HW  OW  HW  HW  OW  HW  HW  OW  
HW  HW  OW  HW  HW  OW  HW  HW  OW  HW  HW  OW  HW  HW  OW  HW  HW  OW  HW  HW  
OW  HW  HW  OW  HW  HW  OW  HW  HW  OW  HW  HW  OW  HW  HW  OW  HW  HW  OW  HW  
HW  OW  HW  HW  OW  HW  HW  OW  HW  HW  OW  HW  HW  OW  HW  HW  OW  HW  HW  OW  
HW  HW  OW  HW  HW  OW  HW  HW  OW  HW  HW  OW  HW  HW  OW  HW  HW  OW  HW  HW  
OW  HW  HW  OW  HW  HW  OW  HW  HW  OW  HW  HW  OW  HW  HW  OW  HW  HW  OW  HW  
HW  OW  HW  HW  OW  HW  HW  OW  HW  HW  OW  HW  HW  OW  HW  HW  OW  HW  HW  OW  
HW  HW  OW  HW  HW  OW  HW  HW  OW  HW  HW  OW  HW  HW  OW  HW  HW  OW  HW  HW  
OW  HW  HW  OW  HW  HW  OW  HW  HW  OW  HW  HW  OW  HW  HW  OW  HW  HW  OW  HW  
HW  OW  HW  HW  OW  HW  HW  OW  HW  HW  OW  HW  HW  OW  HW  HW  OW  HW  HW  OW  
HW  HW  OW  HW  HW  OW  HW  HW  OW  HW  HW  OW  HW  HW  OW  HW  HW  OW  HW  HW  
OW  HW  HW  OW  HW  HW  OW  HW  HW  OW  HW  HW  OW  HW  HW  OW  HW  HW  OW  HW  
HW  OW  HW  HW  OW  HW  HW  OW  HW  HW  OW  HW  HW  OW  HW  HW  OW  HW  HW  OW  
HW  HW  OW  HW  HW  OW  HW  HW  OW  HW  HW  OW  HW  HW  OW  HW  HW  OW  HW  HW  
OW  HW  HW  OW  HW  HW  OW  HW  HW  OW  HW  HW  OW  HW  HW  OW  HW  HW  OW  HW  
HW  OW  HW  HW  OW  HW  HW  OW  HW  HW  OW  HW  HW  OW  HW  HW  OW  HW  HW  OW  
HW  HW  OW  HW  HW  OW  HW  HW  OW  HW  HW  OW  HW  HW  OW  HW  HW  OW  HW  HW  
OW  HW  HW  OW  HW  HW  OW  HW  HW  OW  HW  HW  OW  HW  HW  OW  HW  HW  OW  HW  
HW  OW  HW  HW  OW  HW  HW  OW  HW  HW  OW  HW  HW  OW  HW  HW  OW  HW  HW  OW  
HW  HW  OW  HW  HW  OW  HW  HW  OW  HW  HW  OW  HW  HW  OW  HW  HW  OW  HW  HW  
OW  HW  HW  OW  HW  HW  OW  HW  HW  OW  HW  HW  OW  HW  HW  OW  HW  HW  OW  HW  
HW  OW  HW  HW  OW  HW  HW  OW  HW  HW  OW  HW  HW  OW  HW  HW  OW  HW  HW  OW  
HW  HW  OW  HW  HW  OW  HW  HW  OW  HW  HW  OW  HW  HW  OW  HW  HW  OW  HW  HW  
OW  HW  HW  OW  HW  HW  OW  HW  HW  OW  HW  HW  OW  HW  HW  OW  HW  HW  OW  HW  
HW  OW  HW  HW  OW  HW  HW  OW  HW  HW  OW  HW  HW  OW  HW  HW  OW  HW  HW  OW  
HW  HW  OW  HW  HW  OW  HW  HW  OW  HW  HW  OW  HW  HW  OW  HW  HW  OW  HW  HW  
OW  HW  HW  OW  HW  HW  OW  HW  HW  OW  HW  HW  OW  HW  HW  OW  HW  HW  OW  HW  
HW  OW  HW  HW  OW  HW  HW  OW  HW  HW  OW  HW  HW  OW  HW  HW  OW  HW  HW  OW  
HW  HW  OW  HW  HW  OW  HW  HW  OW  HW  HW  OW  HW  HW  OW  HW  HW  OW  HW  HW  
OW  HW  HW  OW  HW  HW  OW  HW  HW  OW  HW  HW  OW  HW  HW  OW  HW  HW  OW  HW  
HW  OW  HW  HW  OW  HW  HW  OW  HW  HW  OW  HW  HW  OW  HW  HW  OW  HW  HW  OW  
HW  HW  OW  HW  HW  OW  HW  HW  OW  HW  HW  OW  HW  HW  OW  HW  HW  OW  HW  HW  
OW  HW  HW  OW  HW  HW  OW  HW  HW  OW  HW  HW  OW  HW  HW  OW  HW  HW  OW  HW  
HW  OW  HW  HW  OW  HW  HW  OW  HW  HW  OW  HW  HW  OW  HW  HW  OW  HW  HW  OW  
HW  HW  OW  HW  HW  OW  HW  HW  OW  HW  HW  OW  HW  HW  OW  HW  HW  OW  HW  HW  
OW  HW  HW  OW  HW  HW  OW  HW  HW  OW  HW  HW  OW  HW  HW  OW  HW  HW  OW  HW  
HW  OW  HW  HW  OW  HW  HW  OW  HW  HW  OW  HW  HW  OW  HW  HW  OW  HW  HW  OW  
HW  HW  OW  HW  HW  OW  HW  HW  OW  HW  HW  OW  HW  HW  OW  HW  HW  OW  HW  HW  
OW  HW  HW  OW  HW  HW  OW  HW  HW  OW  HW  HW  OW  HW  HW  OW  HW  HW  OW  HW  
HW  OW  HW  HW  OW  HW  HW  OW  HW  HW  OW  HW  HW  OW  HW  HW  OW  HW  HW  OW  
HW  HW  OW  HW  HW  OW  HW  HW  OW  HW  HW  OW  HW  HW  OW  HW  HW  OW  HW  HW  
OW  HW  HW  OW  HW  HW  OW  HW  HW  OW  HW  HW  OW  HW  HW  OW  HW  HW  OW  HW  
HW  OW  HW  HW  OW  HW  HW  OW  HW  HW  OW  HW  HW  OW  HW  HW  OW  HW  HW  OW  
HW  HW  OW  HW  HW  OW  HW  HW  OW  HW  HW  OW  HW  HW  OW  HW  HW  OW  HW  HW  
OW  HW  HW  OW  HW  HW  OW  HW  HW  OW  HW  HW  OW  HW  HW  OW  HW  HW  OW  HW  
HW  OW  HW  HW  OW  HW  HW  OW  HW  HW  OW  HW  HW  OW  HW  HW  OW  HW  HW  OW  
HW  HW  OW  HW  HW  OW  HW  HW  OW  HW  HW  OW  HW  HW  OW  HW  HW  OW  HW  HW  
OW  HW  HW  OW  HW  HW  OW  HW  HW  OW  HW  HW  OW  HW  HW  OW  HW  HW  OW  HW  
HW  OW  HW  HW  OW  HW  HW  OW  HW  HW  OW  HW  HW  OW  HW  HW  OW  HW  HW  OW  
HW  HW  OW  HW  HW  OW  HW  HW  OW  HW  HW  OW  HW  HW  OW  HW  HW  OW  HW  HW  
OW  HW  HW  OW  HW  HW  OW  HW  HW  OW  HW  HW  OW  HW  HW  OW  HW  HW  OW  HW  
HW  OW  HW  HW  OW  HW  HW  OW  HW  HW  OW  HW  HW  OW  HW  HW  OW  HW  HW  OW  
HW  HW  OW  HW  HW  OW  HW  HW  OW  HW  HW  OW  HW  HW  OW  HW  HW  OW  HW  HW  
OW  HW  HW  OW  HW  HW  OW  HW  HW  OW  HW  HW  OW  HW  HW  OW  HW  HW  OW  HW  
HW  OW  HW  HW  OW  HW  HW  OW  HW  HW  OW  HW  HW  OW  HW  HW  OW  HW  HW  OW  
HW  HW  OW  HW  HW  OW  HW  HW  OW  HW  HW  OW  HW  HW  OW  HW  HW  OW  HW  HW  
OW  HW  HW  OW  HW  HW  OW  HW  HW  OW  HW  HW  OW  HW  HW  OW  HW  HW  OW  HW  
HW  OW  HW  HW  OW  HW  HW  OW  HW  HW  OW  HW  HW  OW  HW  HW  OW  HW  HW  OW  
HW  HW  OW  HW  HW  OW  HW  HW  OW  HW  HW  OW  HW  HW  OW  HW  HW  OW  HW  HW  
OW  HW  HW  OW  HW  HW  OW  HW  HW  OW  HW  HW  OW  HW  HW  OW  HW  HW  OW  HW  
HW  OW  HW  HW  OW  HW  HW  OW  HW  HW  OW  HW  HW  OW  HW  HW  OW  HW  HW  OW  
HW  HW  OW  HW  HW  OW  HW  HW  OW  HW  HW  OW  HW  HW  OW  HW  HW  OW  HW  HW  
OW  HW  HW  OW  HW  HW  OW  HW  HW  OW  HW  HW  OW  HW  HW  OW  HW  HW  OW  HW  
HW  OW  HW  HW  OW  HW  HW  OW  HW  HW  OW  HW  HW  OW  HW  HW  OW  HW  HW  OW  
HW  HW  OW  HW  HW  OW  HW  HW  OW  HW  HW  OW  HW  HW  OW  HW  HW  OW  HW  HW  
OW  HW  HW  OW  HW  HW  OW  HW  HW  OW  HW  HW  OW  HW  HW  OW  HW  HW  OW  HW  
HW  OW  HW  HW  OW  HW  HW  OW  HW  HW  OW  HW  HW  OW  HW  HW  OW  HW  HW  OW  
HW  HW  OW  HW  HW  OW  HW  HW  OW  HW  HW  OW  HW  HW  OW  HW  HW  OW  HW  HW  
OW  HW  HW  OW  HW  HW  OW  HW  HW  OW  HW  HW  OW  HW  HW  OW  HW  HW  OW  HW  
HW  OW  HW  HW  OW  HW  HW  OW  HW  HW  OW  HW  HW  OW  HW  HW  OW  HW  HW  OW  
HW  HW  OW  HW  HW  OW  HW  HW  OW  HW  HW  OW  HW  HW  OW  HW  HW  OW  HW  HW  
OW  HW  HW  OW  HW  HW  OW  HW  HW  OW  HW  HW  OW  HW  HW  OW  HW  HW  OW  HW  
HW  OW  HW  HW  OW  HW  HW  OW  HW  HW  OW  HW  HW  OW  HW  HW  OW  HW  HW  OW  
HW  HW  OW  HW  HW  OW  HW  HW  OW  HW  HW  OW  HW  HW  OW  HW  HW  OW  HW  HW  
OW  HW  HW  OW  HW  HW  OW  HW  HW  OW  HW  HW  OW  HW  HW  OW  HW  HW  OW  HW  
HW  OW  HW  HW  OW  HW  HW  OW  HW  HW  OW  HW  HW  OW  HW  HW  OW  HW  HW  OW  
HW  HW  OW  HW  HW  OW  HW  HW  OW  HW  HW  OW  HW  HW  OW  HW  HW  OW  HW  HW  
OW  HW  HW  OW  HW  HW  OW  HW  HW  OW  HW  HW  OW  HW  HW  OW  HW  HW  OW  HW  
HW  OW  HW  HW  OW  HW  HW  OW  HW  HW  OW  HW  HW  OW  HW  HW  OW  HW  HW  OW  
HW  HW  OW  HW  HW  OW  HW  HW  OW  HW  HW  OW  HW  HW  OW  HW  HW  OW  HW  HW  
OW  HW  HW  OW  HW  HW  OW  HW  HW  OW  HW  HW  OW  HW  HW  OW  HW  HW  OW  HW  
HW  OW  HW  HW  OW  HW  HW  OW  HW  HW  OW  HW  HW  OW  HW  HW  OW  HW  HW  OW  
HW  HW  OW  HW  HW  OW  HW  HW  OW  HW  HW  OW  HW  HW  OW  HW  HW  OW  HW  HW  
OW  HW  HW  OW  HW  HW  OW  HW  HW  OW  HW  HW  OW  HW  HW  OW  HW  HW  OW  HW  
HW  OW  HW  HW  OW  HW  HW  OW  HW  HW  OW  HW  HW  OW  HW  HW  OW  HW  HW  OW  
HW  HW  OW  HW  HW  OW  HW  HW  OW  HW  HW  OW  HW  HW  OW  HW  HW  OW  HW  HW  
OW  HW  HW  OW  HW  HW  OW  HW  HW  OW  HW  HW  OW  HW  HW  OW  HW  HW  OW  HW  
HW  OW  HW  HW  OW  HW  HW  OW  HW  HW  OW  HW  HW  OW  HW  HW  OW  HW  HW  OW  
HW  HW  OW  HW  HW  OW  HW  HW  OW  HW  HW  OW  HW  HW  OW  HW  HW  OW  HW  HW  
OW  HW  HW  OW  HW  HW  OW  HW  HW  OW  HW  HW  OW  HW  HW  OW  HW  HW  OW  HW  
HW  OW  HW  HW  OW  HW  HW  OW  HW  HW  OW  HW  HW  OW  HW  HW  OW  HW  HW  OW  
HW  HW  OW  HW  HW  OW  HW  HW  OW  HW  HW  OW  HW  HW  OW  HW  HW  OW  HW  HW  
OW  HW  HW  OW  HW  HW  OW  HW  HW  OW  HW  HW  OW  HW  HW  OW  HW  HW  OW  HW  
HW  OW  HW  HW  OW  HW  HW  OW  HW  HW  OW  HW  HW  OW  HW  HW  OW  HW  HW  OW  
HW  HW  OW  HW  HW  OW  HW  HW  OW  HW  HW  OW  HW  HW  OW  HW  HW  OW  HW  HW  
OW  HW  HW  OW  HW  HW  OW  HW  HW  OW  HW  HW  OW  HW  HW  OW  HW  HW  OW  HW  
HW  OW  HW  HW  OW  HW  HW  OW  HW  HW  OW  HW  HW  OW  HW  HW  OW  HW  HW  OW  
HW  HW  OW  HW  HW  OW  HW  HW  OW  HW  HW  OW  HW  HW  OW  HW  HW  OW  HW  HW  
OW  HW  HW  OW  HW  HW  OW  HW  HW  OW  HW  HW  OW  HW  HW  OW  HW  HW  OW  HW  
HW  OW  HW  HW  OW  HW  HW  OW  HW  HW  OW  HW  HW  OW  HW  HW  OW  HW  HW  OW  
HW  HW  OW  HW  HW  OW  HW  HW  OW  HW  HW  OW  HW  HW  OW  HW  HW  OW  HW  HW  
OW  HW  HW  OW  HW  HW  OW  HW  HW  OW  HW  HW  OW  HW  HW  OW  HW  HW  OW  HW  
HW  OW  HW  HW  OW  HW  HW  OW  HW  HW  OW  HW  HW  OW  HW  HW  OW  HW  HW  OW  
HW  HW  OW  HW  HW  OW  HW  HW  OW  HW  HW  OW  HW  HW  OW  HW  HW  OW  HW  HW  
OW  HW  HW  OW  HW  HW  OW  HW  HW  OW  HW  HW  OW  HW  HW  OW  HW  HW  OW  HW  
HW  OW  HW  HW  OW  HW  HW  OW  HW  HW  OW  HW  HW  OW  HW  HW  OW  HW  HW  OW  
HW  HW  OW  HW  HW  OW  HW  HW  OW  HW  HW  OW  HW  HW  OW  HW  HW  OW  HW  HW  
OW  HW  HW  OW  HW  HW  OW  HW  HW  OW  HW  HW  OW  HW  HW  OW  HW  HW  OW  HW  
HW  OW  HW  HW  OW  HW  HW  OW  HW  HW  OW  HW  HW  OW  HW  HW  OW  HW  HW  OW  
HW  HW  OW  HW  HW  OW  HW  HW  OW  HW  HW  OW  HW  HW  OW  HW  HW  OW  HW  HW  
OW  HW  HW  OW  HW  HW  OW  HW  HW  OW  HW  HW  OW  HW  HW  OW  HW  HW  OW  HW  
HW  OW  HW  HW  OW  HW  HW  OW  HW  HW  OW  HW  HW  OW  HW  HW  OW  HW  HW  OW  
HW  HW  OW  HW  HW  OW  HW  HW  OW  HW  HW  OW  HW  HW  OW  HW  HW  OW  HW  HW  
OW  HW  HW  OW  HW  HW  OW  HW  HW  OW  HW  HW  OW  HW  HW  OW  HW  HW  OW  HW  
HW  OW  HW  HW  OW  HW  HW  OW  HW  HW  OW  HW  HW  OW  HW  HW  OW  HW  HW  OW  
HW  HW  OW  HW  HW  OW  HW  HW  OW  HW  HW  OW  HW  HW  OW  HW  HW  OW  HW  HW  
OW  HW  HW  OW  HW  HW  OW  HW  HW  OW  HW  HW  OW  HW  HW  OW  HW  HW  OW  HW  
HW  OW  HW  HW  OW  HW  HW  OW  HW  HW  OW  HW  HW  OW  HW  HW  OW  HW  HW  OW  
HW  HW  OW  HW  HW  OW  HW  HW  OW  HW  HW  OW  HW  HW  OW  HW  HW  OW  HW  HW  
OW  HW  HW  OW  HW  HW  OW  HW  HW  OW  HW  HW  OW  HW  HW  OW  HW  HW  OW  HW  
HW  OW  HW  HW  OW  HW  HW  OW  HW  HW  OW  HW  HW  OW  HW  HW  OW  HW  HW  OW  
HW  HW  OW  HW  HW  OW  HW  HW  OW  HW  HW  OW  HW  HW  OW  HW  HW  OW  HW  HW  
OW  HW  HW  OW  HW  HW  OW  HW  HW  OW  HW  HW  OW  HW  HW  OW  HW  HW  OW  HW  
HW  OW  HW  HW  OW  HW  HW  OW  HW  HW  OW  HW  HW  OW  HW  HW  OW  HW  HW  OW  
HW  HW  OW  HW  HW  OW  HW  HW  OW  HW  HW  OW  HW  HW  OW  HW  HW  OW  HW  HW  
OW  HW  HW  OW  HW  HW  OW  HW  HW  OW  HW  HW  OW  HW  HW  OW  HW  HW  OW  HW  
HW  OW  HW  HW  OW  HW  HW  OW  HW  HW  OW  HW  HW  OW  HW  HW  OW  HW  HW  OW  
HW  HW  OW  HW  HW  OW  HW  HW  OW  HW  HW  OW  HW  HW  OW  HW  HW  OW  HW  HW  
OW  HW  HW  OW  HW  HW  OW  HW  HW  OW  HW  HW  OW  HW  HW  OW  HW  HW  OW  HW  
HW  OW  HW  HW  OW  HW  HW  OW  HW  HW  OW  HW  HW  OW  HW  HW  OW  HW  HW  OW  
HW  HW  OW  HW  HW  OW  HW  HW  OW  HW  HW  OW  HW  HW  OW  HW  HW  OW  HW  HW  
OW  HW  HW  OW  HW  HW  OW  HW  HW  OW  HW  HW  OW  HW  HW  OW  HW  HW  OW  HW  
HW  OW  HW  HW  OW  HW  HW  OW  HW  HW  OW  HW  HW  OW  HW  HW  OW  HW  HW  OW  
HW  HW  OW  HW  HW  OW  HW  HW  OW  HW  HW  OW  HW  HW  OW  HW  HW  OW  HW  HW  
OW  HW  HW  OW  HW  HW  OW  HW  HW  OW  HW  HW  OW  HW  HW  OW  HW  HW  OW  HW  
HW  OW  HW  HW  OW  HW  HW  OW  HW  HW  OW  HW  HW  OW  HW  HW  OW  HW  HW  OW  
HW  HW  OW  HW  HW  OW  HW  HW  OW  HW  HW  OW  HW  HW  OW  HW  HW  OW  HW  HW  
OW  HW  HW  OW  HW  HW  OW  HW  HW  OW  HW  HW  OW  HW  HW  OW  HW  HW  OW  HW  
HW  OW  HW  HW  OW  HW  HW  OW  HW  HW  OW  HW  HW  OW  HW  HW  OW  HW  HW  OW  
HW  HW  OW  HW  HW  OW  HW  HW  OW  HW  HW  OW  HW  HW  OW  HW  HW  OW  HW  HW  
OW  HW  HW  OW  HW  HW  OW  HW  HW  OW  HW  HW  OW  HW  HW  OW  HW  HW  OW  HW  
HW  OW  HW  HW  OW  HW  HW  OW  HW  HW  OW  HW  HW  OW  HW  HW  OW  HW  HW  OW  
HW  HW  OW  HW  HW  OW  HW  HW  OW  HW  HW  OW  HW  HW  OW  HW  HW  OW  HW  HW  
OW  HW  HW  OW  HW  HW  OW  HW  HW  OW  HW  HW  OW  HW  HW  OW  HW  HW  OW  HW  
HW  OW  HW  HW  OW  HW  HW  OW  HW  HW  OW  HW  HW  OW  HW  HW  OW  HW  HW  OW  
HW  HW  OW  HW  HW  OW  HW  HW  OW  HW  HW  OW  HW  HW  OW  HW  HW  OW  HW  HW  
OW  HW  HW  OW  HW  HW  OW  HW  HW  OW  HW  HW  OW  HW  HW  OW  HW  HW  OW  HW  
HW  OW  HW  HW  OW  HW  HW  OW  HW  HW  OW  HW  HW  OW  HW  HW  OW  HW  HW  OW  
HW  HW  OW  HW  HW  OW  HW  HW  OW  HW  HW  OW  HW  HW  OW  HW  HW  OW  HW  HW  
OW  HW  HW  OW  HW  HW  OW  HW  HW  OW  HW  HW  OW  HW  HW  OW  HW  HW  OW  HW  
HW  OW  HW  HW  OW  HW  HW  OW  HW  HW  OW  HW  HW  OW  HW  HW  OW  HW  HW  OW  
HW  HW  OW  HW  HW  OW  HW  HW  OW  HW  HW  OW  HW  HW  OW  HW  HW  OW  HW  HW  
OW  HW  HW  OW  HW  HW  OW  HW  HW  OW  HW  HW  OW  HW  HW  OW  HW  HW  OW  HW  
HW  OW  HW  HW  OW  HW  HW  OW  HW  HW  OW  HW  HW  OW  HW  HW  OW  HW  HW  OW  
HW  HW  OW  HW  HW  OW  HW  HW  OW  HW  HW  OW  HW  HW  OW  HW  HW  OW  HW  HW  
OW  HW  HW  OW  HW  HW  OW  HW  HW  OW  HW  HW  OW  HW  HW  OW  HW  HW  OW  HW  
HW  OW  HW  HW  OW  HW  HW  OW  HW  HW  OW  HW  HW  OW  HW  HW  OW  HW  HW  OW  
HW  HW  OW  HW  HW  OW  HW  HW  OW  HW  HW  OW  HW  HW  OW  HW  HW  OW  HW  HW  
OW  HW  HW  OW  HW  HW  OW  HW  HW  OW  HW  HW  OW  HW  HW  OW  HW  HW  OW  HW  
HW  OW  HW  HW  OW  HW  HW  OW  HW  HW  OW  HW  HW  OW  HW  HW  OW  HW  HW  OW  
HW  HW  OW  HW  HW  OW  HW  HW  OW  HW  HW  OW  HW  HW  OW  HW  HW  OW  HW  HW  
OW  HW  HW  OW  HW  HW  OW  HW  HW  OW  HW  HW  OW  HW  HW  OW  HW  HW  OW  HW  
HW  OW  HW  HW  OW  HW  HW  OW  HW  HW  OW  HW  HW  OW  HW  HW  OW  HW  HW  OW  
HW  HW  OW  HW  HW  OW  HW  HW  OW  HW  HW  OW  HW  HW  OW  HW  HW  OW  HW  HW  
OW  HW  HW  OW  HW  HW  OW  HW  HW  OW  HW  HW  OW  HW  HW  OW  HW  HW  OW  HW  
HW  OW  HW  HW  OW  HW  HW  OW  HW  HW  OW  HW  HW  OW  HW  HW  OW  HW  HW  OW  
HW  HW  OW  HW  HW  OW  HW  HW  OW  HW  HW  OW  HW  HW  OW  HW  HW  OW  HW  HW  
OW  HW  HW  OW  HW  HW  OW  HW  HW  OW  HW  HW  OW  HW  HW  OW  HW  HW  OW  HW  
HW  OW  HW  HW  OW  HW  HW  OW  HW  HW  OW  HW  HW  OW  HW  HW  OW  HW  HW  OW  
HW  HW  OW  HW  HW  OW  HW  HW  OW  HW  HW  OW  HW  HW  OW  HW  HW  OW  HW  HW  
OW  HW  HW  OW  HW  HW  OW  HW  HW  OW  HW  HW  OW  HW  HW  OW  HW  HW  OW  HW  
HW  OW  HW  HW  OW  HW  HW  OW  HW  HW  OW  HW  HW  OW  HW  HW  OW  HW  HW  OW  
HW  HW  OW  HW  HW  OW  HW  HW  OW  HW  HW  OW  HW  HW  OW  HW  HW  OW  HW  HW  
OW  HW  HW  OW  HW  HW  OW  HW  HW  OW  HW  HW  OW  HW  HW  OW  HW  HW  OW  HW  
HW  OW  HW  HW  OW  HW  HW  OW  HW  HW  OW  HW  HW  OW  HW  HW  OW  HW  HW  OW  
HW  HW  OW  HW  HW  OW  HW  HW  OW  HW  HW  OW  HW  HW  OW  HW  HW  OW  HW  HW  
OW  HW  HW  OW  HW  HW  OW  HW  HW  OW  HW  HW  OW  HW  HW  OW  HW  HW  OW  HW  
HW  OW  HW  HW  OW  HW  HW  OW  HW  HW  OW  HW  HW  OW  HW  HW  OW  HW  HW  OW  
HW  HW  OW  HW  HW  OW  HW  HW  OW  HW  HW  OW  HW  HW  OW  HW  HW  OW  HW  HW  
OW  HW  HW  OW  HW  HW  OW  HW  HW  OW  HW  HW  OW  HW  HW  OW  HW  HW  OW  HW  
HW  OW  HW  HW  
%FLAG TREE_CHAIN_CLASSIFICATION                                                 
%FORMAT(20a4)                                                                   
BLA BLA BLA BLA BLA BLA BLA BLA BLA BLA BLA BLA BLA BLA BLA BLA BLA BLA BLA BLA 
BLA BLA BLA BLA BLA BLA BLA BLA BLA BLA BLA BLA BLA BLA BLA BLA BLA BLA BLA M   
M   BLA BLA BLA BLA BLA BLA BLA BLA BLA BLA BLA BLA BLA BLA BLA BLA BLA BLA BLA 
BLA BLA BLA BLA BLA BLA BLA BLA BLA BLA BLA BLA BLA BLA BLA BLA BLA BLA BLA BLA 
BLA BLA BLA BLA BLA BLA BLA BLA BLA BLA BLA BLA BLA BLA BLA BLA BLA BLA BLA BLA 
BLA BLA BLA BLA BLA BLA BLA BLA BLA BLA BLA BLA BLA BLA BLA BLA BLA BLA BLA BLA 
BLA BLA BLA BLA BLA BLA BLA BLA BLA BLA BLA BLA BLA BLA BLA BLA BLA BLA BLA BLA 
BLA BLA BLA BLA BLA BLA BLA BLA BLA BLA BLA BLA BLA BLA BLA BLA BLA BLA BLA BLA 
BLA BLA BLA BLA BLA BLA BLA BLA BLA BLA BLA BLA BLA BLA BLA BLA BLA BLA BLA BLA 
BLA BLA BLA BLA BLA BLA BLA BLA BLA BLA BLA BLA BLA BLA BLA BLA BLA BLA BLA BLA 
BLA BLA BLA BLA BLA BLA BLA BLA BLA BLA BLA BLA BLA BLA BLA BLA BLA BLA BLA BLA 
BLA BLA BLA BLA BLA BLA BLA BLA BLA BLA BLA BLA BLA BLA BLA BLA BLA BLA BLA BLA 
BLA BLA BLA BLA BLA BLA BLA BLA BLA BLA BLA BLA BLA BLA BLA BLA BLA BLA BLA BLA 
BLA BLA BLA BLA BLA BLA BLA BLA BLA BLA BLA BLA BLA BLA BLA BLA BLA BLA BLA BLA 
BLA BLA BLA BLA BLA BLA BLA BLA BLA BLA BLA BLA BLA BLA BLA BLA BLA BLA BLA BLA 
BLA BLA BLA BLA BLA BLA BLA BLA BLA BLA BLA BLA BLA BLA BLA BLA BLA BLA BLA BLA 
BLA BLA BLA BLA BLA BLA BLA BLA BLA BLA BLA BLA BLA BLA BLA BLA BLA BLA BLA BLA 
BLA BLA BLA BLA BLA BLA BLA BLA BLA BLA BLA BLA BLA BLA BLA BLA BLA BLA BLA BLA 
BLA BLA BLA BLA BLA BLA BLA BLA BLA BLA BLA BLA BLA BLA BLA BLA BLA BLA BLA BLA 
BLA BLA BLA BLA BLA BLA BLA BLA BLA BLA BLA BLA BLA BLA BLA BLA BLA BLA BLA BLA 
BLA BLA BLA BLA BLA BLA BLA BLA BLA BLA BLA BLA BLA BLA BLA BLA BLA BLA BLA BLA 
BLA BLA BLA BLA BLA BLA BLA BLA BLA BLA BLA BLA BLA BLA BLA BLA BLA BLA BLA BLA 
BLA BLA BLA BLA BLA BLA BLA BLA BLA BLA BLA BLA BLA BLA BLA BLA BLA BLA BLA BLA 
BLA BLA BLA BLA BLA BLA BLA BLA BLA BLA BLA BLA BLA BLA BLA BLA BLA BLA BLA BLA 
BLA BLA BLA BLA BLA BLA BLA BLA BLA BLA BLA BLA BLA BLA BLA BLA BLA BLA BLA BLA 
BLA BLA BLA BLA BLA BLA BLA BLA BLA BLA BLA BLA BLA BLA BLA BLA BLA BLA BLA BLA 
BLA BLA BLA BLA BLA BLA BLA BLA BLA BLA BLA BLA BLA BLA BLA BLA BLA BLA BLA BLA 
BLA BLA BLA BLA BLA BLA BLA BLA BLA BLA BLA BLA BLA BLA BLA BLA BLA BLA BLA BLA 
BLA BLA BLA BLA BLA BLA BLA BLA BLA BLA BLA BLA BLA BLA BLA BLA BLA BLA BLA BLA 
BLA BLA BLA BLA BLA BLA BLA BLA BLA BLA BLA BLA BLA BLA BLA BLA BLA BLA BLA BLA 
BLA BLA BLA BLA BLA BLA BLA BLA BLA BLA BLA BLA BLA BLA BLA BLA BLA BLA BLA BLA 
BLA BLA BLA BLA BLA BLA BLA BLA BLA BLA BLA BLA BLA BLA BLA BLA BLA BLA BLA BLA 
BLA BLA BLA BLA BLA BLA BLA BLA BLA BLA BLA BLA BLA BLA BLA BLA BLA BLA BLA BLA 
BLA BLA BLA BLA BLA BLA BLA BLA BLA BLA BLA BLA BLA BLA BLA BLA BLA BLA BLA BLA 
BLA BLA BLA BLA BLA BLA BLA BLA BLA BLA BLA BLA BLA BLA BLA BLA BLA BLA BLA BLA 
BLA BLA BLA BLA BLA BLA BLA BLA BLA BLA BLA BLA BLA BLA BLA BLA BLA BLA BLA BLA 
BLA BLA BLA BLA BLA BLA BLA BLA BLA BLA BLA BLA BLA BLA BLA BLA BLA BLA BLA BLA 
BLA BLA BLA BLA BLA BLA BLA BLA BLA BLA BLA BLA BLA BLA BLA BLA BLA BLA BLA BLA 
BLA BLA BLA BLA BLA BLA BLA BLA BLA BLA BLA BLA BLA BLA BLA BLA BLA BLA BLA BLA 
BLA BLA BLA BLA BLA BLA BLA BLA BLA BLA BLA BLA BLA BLA BLA BLA BLA BLA BLA BLA 
BLA BLA BLA BLA BLA BLA BLA BLA BLA BLA BLA BLA BLA BLA BLA BLA BLA BLA BLA BLA 
BLA BLA BLA BLA BLA BLA BLA BLA BLA BLA BLA BLA BLA BLA BLA BLA BLA BLA BLA BLA 
BLA BLA BLA BLA BLA BLA BLA BLA BLA BLA BLA BLA BLA BLA BLA BLA BLA BLA BLA BLA 
BLA BLA BLA BLA BLA BLA BLA BLA BLA BLA BLA BLA BLA BLA BLA BLA BLA BLA BLA BLA 
BLA BLA BLA BLA BLA BLA BLA BLA BLA BLA BLA BLA BLA BLA BLA BLA BLA BLA BLA BLA 
BLA BLA BLA BLA BLA BLA BLA BLA BLA BLA BLA BLA BLA BLA BLA BLA BLA BLA BLA BLA 
BLA BLA BLA BLA BLA BLA BLA BLA BLA BLA BLA BLA BLA BLA BLA BLA BLA BLA BLA BLA 
BLA BLA BLA BLA BLA BLA BLA BLA BLA BLA BLA BLA BLA BLA BLA BLA BLA BLA BLA BLA 
BLA BLA BLA BLA BLA BLA BLA BLA BLA BLA BLA BLA BLA BLA BLA BLA BLA BLA BLA BLA 
BLA BLA BLA BLA BLA BLA BLA BLA BLA BLA BLA BLA BLA BLA BLA BLA BLA BLA BLA BLA 
BLA BLA BLA BLA BLA BLA BLA BLA BLA BLA BLA BLA BLA BLA BLA BLA BLA BLA BLA BLA 
BLA BLA BLA BLA BLA BLA BLA BLA BLA BLA BLA BLA BLA BLA BLA BLA BLA BLA BLA BLA 
BLA BLA BLA BLA BLA BLA BLA BLA BLA BLA BLA BLA BLA BLA BLA BLA BLA BLA BLA BLA 
BLA BLA BLA BLA BLA BLA BLA BLA BLA BLA BLA BLA BLA BLA BLA BLA BLA BLA BLA BLA 
BLA BLA BLA BLA BLA BLA BLA BLA BLA BLA BLA BLA BLA BLA BLA BLA BLA BLA BLA BLA 
BLA BLA BLA BLA BLA BLA BLA BLA BLA BLA BLA BLA BLA BLA BLA BLA BLA BLA BLA BLA 
BLA BLA BLA BLA BLA BLA BLA BLA BLA BLA BLA BLA BLA BLA BLA BLA BLA BLA BLA BLA 
BLA BLA BLA BLA BLA BLA BLA BLA BLA BLA BLA BLA BLA BLA BLA BLA BLA BLA BLA BLA 
BLA BLA BLA BLA BLA BLA BLA BLA BLA BLA BLA BLA BLA BLA BLA BLA BLA BLA BLA BLA 
BLA BLA BLA BLA BLA BLA BLA BLA BLA BLA BLA BLA BLA BLA BLA BLA BLA BLA BLA BLA 
BLA BLA BLA BLA BLA BLA BLA BLA BLA BLA BLA BLA BLA BLA BLA BLA BLA BLA BLA BLA 
BLA BLA BLA BLA BLA BLA BLA BLA BLA BLA BLA BLA BLA BLA BLA BLA BLA BLA BLA BLA 
BLA BLA BLA BLA BLA BLA BLA BLA BLA BLA BLA BLA BLA BLA BLA BLA BLA BLA BLA BLA 
BLA BLA BLA BLA BLA BLA BLA BLA BLA BLA BLA BLA BLA BLA BLA BLA BLA BLA BLA BLA 
BLA BLA BLA BLA BLA BLA BLA BLA BLA BLA BLA BLA BLA BLA BLA BLA BLA BLA BLA BLA 
BLA BLA BLA BLA BLA BLA BLA BLA BLA BLA BLA BLA BLA BLA BLA BLA BLA BLA BLA BLA 
BLA BLA BLA BLA BLA BLA BLA BLA BLA BLA BLA BLA BLA BLA BLA BLA BLA BLA BLA BLA 
BLA BLA BLA BLA BLA BLA BLA BLA BLA BLA BLA BLA BLA BLA BLA BLA BLA BLA BLA BLA 
BLA BLA BLA BLA BLA BLA BLA BLA BLA BLA BLA BLA BLA BLA BLA BLA BLA BLA BLA BLA 
BLA BLA BLA BLA BLA BLA BLA BLA BLA BLA BLA BLA BLA BLA BLA BLA BLA BLA BLA BLA 
BLA BLA BLA BLA BLA BLA BLA BLA BLA BLA BLA BLA BLA BLA BLA BLA BLA BLA BLA BLA 
BLA BLA BLA BLA BLA BLA BLA BLA BLA BLA BLA BLA BLA BLA BLA BLA BLA BLA BLA BLA 
BLA BLA BLA BLA BLA BLA BLA BLA BLA BLA BLA BLA BLA BLA BLA BLA BLA BLA BLA BLA 
BLA BLA BLA BLA BLA BLA BLA BLA BLA BLA BLA BLA BLA BLA BLA BLA BLA BLA BLA BLA 
BLA BLA BLA BLA BLA BLA BLA BLA BLA BLA BLA BLA BLA BLA BLA BLA BLA BLA BLA BLA 
BLA BLA BLA BLA BLA BLA BLA BLA BLA BLA BLA BLA BLA BLA BLA BLA BLA BLA BLA BLA 
BLA BLA BLA BLA BLA BLA BLA BLA BLA BLA BLA BLA BLA BLA BLA BLA BLA BLA BLA BLA 
BLA BLA BLA BLA BLA BLA BLA BLA BLA BLA BLA BLA BLA BLA BLA BLA BLA BLA BLA BLA 
BLA BLA BLA BLA BLA BLA BLA BLA BLA BLA BLA BLA BLA BLA BLA BLA BLA BLA BLA BLA 
BLA BLA BLA BLA BLA BLA BLA BLA BLA BLA BLA BLA BLA BLA BLA BLA BLA BLA BLA BLA 
BLA BLA BLA BLA BLA BLA BLA BLA BLA BLA BLA BLA BLA BLA BLA BLA BLA BLA BLA BLA 
BLA BLA BLA BLA BLA BLA BLA BLA BLA BLA BLA BLA BLA BLA BLA BLA BLA BLA BLA BLA 
BLA BLA BLA BLA BLA BLA BLA BLA BLA BLA BLA BLA BLA BLA BLA BLA BLA BLA BLA BLA 
BLA BLA BLA BLA BLA BLA BLA BLA BLA BLA BLA BLA BLA BLA BLA BLA BLA BLA BLA BLA 
BLA BLA BLA BLA BLA BLA BLA BLA BLA BLA BLA BLA BLA BLA BLA BLA BLA BLA BLA BLA 
BLA BLA BLA BLA BLA BLA BLA BLA BLA BLA BLA BLA BLA BLA BLA BLA BLA BLA BLA BLA 
BLA BLA BLA BLA BLA BLA BLA BLA BLA BLA BLA BLA BLA BLA BLA BLA BLA BLA BLA BLA 
BLA BLA BLA BLA BLA BLA BLA BLA BLA BLA BLA BLA BLA BLA BLA BLA BLA BLA BLA BLA 
BLA BLA BLA BLA BLA BLA BLA BLA BLA BLA BLA BLA BLA BLA BLA BLA BLA BLA BLA BLA 
BLA BLA BLA BLA BLA BLA BLA BLA BLA BLA BLA BLA BLA BLA BLA BLA BLA BLA BLA BLA 
BLA BLA BLA BLA BLA BLA BLA BLA BLA BLA BLA BLA BLA BLA BLA BLA BLA BLA BLA BLA 
BLA BLA BLA BLA BLA BLA BLA BLA BLA BLA BLA BLA BLA BLA BLA BLA BLA BLA BLA BLA 
BLA BLA BLA BLA BLA BLA BLA BLA BLA BLA BLA BLA BLA BLA BLA BLA BLA BLA BLA BLA 
BLA BLA BLA BLA BLA BLA BLA BLA BLA BLA BLA BLA BLA BLA BLA BLA BLA BLA BLA BLA 
BLA BLA BLA BLA BLA BLA BLA BLA BLA BLA BLA BLA BLA BLA BLA BLA BLA BLA BLA BLA 
BLA BLA BLA BLA BLA BLA BLA BLA BLA BLA BLA BLA BLA BLA BLA BLA BLA BLA BLA BLA 
BLA BLA BLA BLA BLA BLA BLA BLA BLA BLA BLA BLA BLA BLA BLA BLA BLA BLA BLA BLA 
BLA BLA BLA BLA BLA BLA BLA BLA BLA BLA BLA BLA BLA BLA BLA BLA BLA BLA BLA BLA 
BLA BLA BLA BLA BLA BLA BLA BLA BLA BLA BLA BLA BLA BLA BLA BLA BLA BLA BLA BLA 
BLA BLA BLA BLA BLA BLA BLA BLA BLA BLA BLA BLA BLA BLA BLA BLA BLA BLA BLA BLA 
BLA BLA BLA BLA BLA BLA BLA BLA BLA BLA BLA BLA BLA BLA BLA BLA BLA BLA BLA BLA 
BLA BLA BLA BLA BLA BLA BLA BLA BLA BLA BLA BLA BLA BLA BLA BLA BLA BLA BLA BLA 
BLA BLA BLA BLA BLA BLA BLA BLA BLA BLA BLA BLA BLA BLA BLA BLA BLA BLA BLA BLA 
BLA BLA BLA BLA BLA BLA BLA BLA BLA BLA BLA BLA BLA BLA BLA BLA BLA BLA BLA BLA 
BLA BLA BLA BLA BLA BLA BLA BLA BLA BLA BLA BLA BLA BLA BLA BLA BLA BLA BLA BLA 
BLA BLA BLA BLA BLA BLA BLA BLA BLA BLA BLA BLA BLA BLA BLA BLA BLA BLA BLA BLA 
BLA BLA BLA BLA BLA BLA BLA BLA BLA BLA BLA BLA BLA BLA BLA BLA BLA BLA BLA BLA 
BLA BLA BLA BLA BLA BLA BLA BLA BLA BLA BLA BLA BLA BLA BLA BLA BLA BLA BLA BLA 
BLA BLA BLA BLA BLA BLA BLA BLA BLA BLA BLA BLA BLA BLA BLA BLA BLA BLA BLA BLA 
BLA BLA BLA BLA BLA BLA BLA BLA BLA BLA BLA BLA BLA BLA BLA BLA BLA BLA BLA BLA 
BLA BLA BLA BLA BLA BLA BLA BLA BLA BLA BLA BLA BLA BLA BLA BLA BLA BLA BLA BLA 
BLA BLA BLA BLA BLA BLA BLA BLA BLA BLA BLA BLA BLA BLA BLA BLA BLA BLA BLA BLA 
BLA BLA BLA BLA BLA BLA BLA BLA BLA BLA BLA BLA BLA BLA BLA BLA BLA BLA BLA BLA 
BLA BLA BLA BLA BLA BLA BLA BLA BLA BLA BLA BLA BLA BLA BLA BLA BLA BLA BLA BLA 
BLA BLA BLA BLA BLA BLA BLA BLA BLA BLA BLA BLA BLA BLA BLA BLA BLA BLA BLA BLA 
BLA BLA BLA BLA BLA BLA BLA BLA BLA BLA BLA BLA BLA BLA BLA BLA BLA BLA BLA BLA 
BLA BLA BLA BLA BLA BLA BLA BLA BLA BLA BLA BLA BLA BLA BLA BLA BLA BLA BLA BLA 
BLA BLA BLA BLA BLA BLA BLA BLA BLA BLA BLA BLA BLA BLA BLA BLA BLA BLA BLA BLA 
BLA BLA BLA BLA BLA BLA BLA BLA BLA BLA BLA BLA BLA BLA BLA BLA BLA BLA BLA BLA 
BLA BLA BLA BLA BLA BLA BLA BLA BLA BLA BLA BLA BLA BLA BLA BLA BLA BLA BLA BLA 
BLA BLA BLA BLA BLA BLA BLA BLA BLA BLA BLA BLA BLA BLA BLA BLA BLA BLA BLA BLA 
BLA BLA BLA BLA BLA BLA BLA BLA BLA BLA BLA BLA BLA BLA BLA BLA BLA BLA BLA BLA 
BLA BLA BLA BLA BLA BLA BLA BLA BLA BLA BLA BLA BLA BLA BLA BLA BLA BLA BLA BLA 
BLA BLA BLA BLA BLA BLA BLA BLA BLA BLA BLA BLA BLA BLA BLA BLA BLA BLA BLA BLA 
BLA BLA BLA BLA BLA BLA BLA BLA BLA BLA BLA BLA BLA BLA BLA BLA BLA BLA BLA BLA 
BLA BLA BLA BLA BLA BLA BLA BLA BLA BLA BLA BLA BLA BLA BLA BLA BLA BLA BLA BLA 
BLA BLA BLA BLA BLA BLA BLA BLA BLA BLA BLA BLA BLA BLA BLA BLA BLA BLA BLA BLA 
BLA BLA BLA BLA BLA BLA BLA BLA BLA BLA BLA BLA BLA BLA BLA BLA BLA BLA BLA BLA 
BLA BLA BLA BLA BLA BLA BLA BLA BLA BLA BLA BLA BLA BLA BLA BLA BLA BLA BLA BLA 
BLA BLA BLA BLA BLA BLA BLA BLA BLA BLA BLA BLA BLA BLA BLA BLA BLA BLA BLA BLA 
BLA BLA BLA BLA BLA BLA BLA BLA BLA BLA BLA BLA BLA BLA BLA BLA BLA BLA BLA BLA 
BLA BLA BLA BLA BLA BLA BLA BLA BLA BLA BLA BLA BLA BLA BLA BLA BLA BLA BLA BLA 
BLA BLA BLA BLA BLA BLA BLA BLA BLA BLA BLA BLA BLA BLA BLA BLA BLA BLA BLA BLA 
BLA BLA BLA BLA BLA BLA BLA BLA BLA BLA BLA BLA BLA BLA BLA BLA BLA BLA BLA BLA 
BLA BLA BLA BLA BLA BLA BLA BLA BLA BLA BLA BLA BLA BLA BLA BLA BLA BLA BLA BLA 
BLA BLA BLA BLA BLA BLA BLA BLA BLA BLA BLA BLA BLA BLA BLA BLA BLA BLA BLA BLA 
BLA BLA BLA BLA BLA BLA BLA BLA BLA BLA BLA BLA BLA BLA BLA BLA BLA BLA BLA BLA 
BLA BLA BLA BLA BLA BLA BLA BLA BLA BLA BLA BLA BLA BLA BLA BLA BLA BLA BLA BLA 
BLA BLA BLA BLA BLA BLA BLA BLA BLA BLA BLA BLA BLA BLA BLA BLA BLA BLA BLA BLA 
BLA BLA BLA BLA BLA BLA BLA BLA BLA BLA BLA BLA BLA BLA BLA BLA BLA BLA BLA BLA 
BLA BLA BLA BLA BLA BLA BLA BLA BLA BLA BLA BLA BLA BLA BLA BLA BLA BLA BLA BLA 
BLA BLA BLA BLA BLA BLA BLA BLA BLA BLA BLA BLA BLA BLA BLA BLA BLA BLA BLA BLA 
BLA BLA BLA BLA BLA BLA BLA BLA BLA BLA BLA BLA BLA BLA BLA BLA BLA BLA BLA BLA 
BLA BLA BLA BLA BLA BLA BLA BLA BLA BLA BLA BLA BLA BLA BLA BLA BLA BLA BLA BLA 
BLA BLA BLA BLA BLA BLA BLA BLA BLA BLA BLA BLA BLA BLA BLA BLA BLA BLA BLA BLA 
BLA BLA BLA BLA BLA BLA BLA BLA BLA BLA BLA BLA BLA BLA BLA BLA BLA BLA BLA BLA 
BLA BLA BLA BLA BLA BLA BLA BLA BLA BLA BLA BLA BLA BLA BLA BLA BLA BLA BLA BLA 
BLA BLA BLA BLA BLA BLA BLA BLA BLA BLA BLA BLA BLA BLA BLA BLA BLA BLA BLA BLA 
BLA BLA BLA BLA BLA BLA BLA BLA BLA BLA BLA BLA BLA BLA BLA BLA BLA BLA BLA BLA 
BLA BLA BLA BLA BLA BLA BLA BLA BLA BLA BLA BLA BLA BLA BLA BLA BLA BLA BLA BLA 
BLA BLA BLA BLA BLA BLA BLA BLA BLA BLA BLA BLA BLA BLA BLA BLA BLA BLA BLA BLA 
BLA BLA BLA BLA BLA BLA BLA BLA BLA BLA BLA BLA BLA BLA BLA BLA BLA BLA BLA BLA 
BLA BLA BLA BLA BLA BLA BLA BLA BLA BLA BLA BLA BLA BLA BLA BLA BLA BLA BLA BLA 
BLA BLA BLA BLA BLA BLA BLA BLA BLA BLA BLA BLA BLA BLA BLA BLA BLA BLA BLA BLA 
BLA BLA BLA BLA BLA BLA BLA BLA BLA BLA BLA BLA BLA BLA BLA BLA BLA BLA BLA BLA 
BLA BLA BLA BLA BLA BLA BLA BLA BLA BLA BLA BLA BLA BLA BLA BLA BLA BLA BLA BLA 
BLA BLA BLA BLA BLA BLA BLA BLA BLA BLA BLA BLA BLA BLA BLA BLA BLA BLA BLA BLA 
BLA BLA BLA BLA BLA BLA BLA BLA BLA BLA BLA BLA BLA BLA BLA BLA BLA BLA BLA BLA 
BLA BLA BLA BLA BLA BLA BLA BLA BLA BLA BLA BLA BLA BLA BLA BLA BLA BLA BLA BLA 
BLA BLA BLA BLA BLA BLA BLA BLA BLA BLA BLA BLA BLA BLA BLA BLA BLA BLA BLA BLA 
BLA BLA BLA BLA BLA BLA BLA BLA BLA BLA BLA BLA BLA BLA BLA BLA BLA BLA BLA BLA 
BLA BLA BLA BLA BLA BLA BLA BLA BLA BLA BLA BLA BLA BLA BLA BLA BLA BLA BLA BLA 
BLA BLA BLA BLA BLA BLA BLA BLA BLA BLA BLA BLA BLA BLA BLA BLA BLA BLA BLA BLA 
BLA BLA BLA BLA BLA BLA BLA BLA BLA BLA BLA BLA BLA BLA BLA BLA BLA BLA BLA BLA 
BLA BLA BLA BLA BLA BLA BLA BLA BLA BLA BLA BLA BLA BLA BLA BLA BLA BLA BLA BLA 
BLA BLA BLA BLA BLA BLA BLA BLA BLA BLA BLA BLA BLA BLA BLA BLA BLA BLA BLA BLA 
BLA BLA BLA BLA BLA BLA BLA BLA BLA BLA BLA BLA BLA BLA BLA BLA BLA BLA BLA BLA 
BLA BLA BLA BLA BLA BLA BLA BLA BLA BLA BLA BLA BLA BLA BLA BLA BLA BLA BLA BLA 
BLA BLA BLA BLA BLA BLA BLA BLA BLA BLA BLA BLA BLA BLA BLA BLA BLA BLA BLA BLA 
BLA BLA BLA BLA BLA BLA BLA BLA BLA BLA BLA BLA BLA BLA BLA BLA BLA BLA BLA BLA 
BLA BLA BLA BLA BLA BLA BLA BLA BLA BLA BLA BLA BLA BLA BLA BLA BLA BLA BLA BLA 
BLA BLA BLA BLA BLA BLA BLA BLA BLA BLA BLA BLA BLA BLA BLA BLA BLA BLA BLA BLA 
BLA BLA BLA BLA BLA BLA BLA BLA BLA BLA BLA BLA BLA BLA BLA BLA BLA BLA BLA BLA 
BLA BLA BLA BLA BLA BLA BLA BLA BLA BLA BLA BLA BLA BLA BLA BLA BLA BLA BLA BLA 
BLA BLA BLA BLA BLA BLA BLA BLA BLA BLA BLA BLA BLA BLA BLA BLA BLA BLA BLA BLA 
BLA BLA BLA BLA BLA BLA BLA BLA BLA BLA BLA BLA BLA BLA BLA BLA BLA BLA BLA BLA 
BLA BLA BLA BLA BLA BLA BLA BLA BLA BLA BLA BLA BLA BLA BLA BLA BLA BLA BLA BLA 
BLA BLA BLA BLA BLA BLA BLA BLA BLA BLA BLA BLA BLA BLA BLA BLA BLA BLA BLA BLA 
BLA BLA BLA BLA BLA BLA BLA BLA BLA BLA BLA BLA BLA BLA BLA BLA BLA BLA BLA BLA 
BLA BLA BLA BLA BLA BLA BLA BLA BLA BLA BLA BLA BLA BLA BLA BLA BLA BLA BLA BLA 
BLA BLA BLA BLA BLA BLA BLA BLA BLA BLA BLA BLA BLA BLA BLA BLA BLA BLA BLA BLA 
BLA BLA BLA BLA BLA BLA BLA BLA BLA BLA BLA BLA BLA BLA BLA BLA BLA BLA BLA BLA 
BLA BLA BLA BLA BLA BLA BLA BLA BLA BLA BLA BLA BLA BLA BLA BLA BLA BLA BLA BLA 
BLA BLA BLA BLA BLA BLA BLA BLA BLA BLA BLA BLA BLA BLA BLA BLA BLA BLA BLA BLA 
BLA BLA BLA BLA BLA BLA BLA BLA BLA BLA BLA BLA BLA BLA BLA BLA BLA BLA BLA BLA 
BLA BLA BLA BLA BLA BLA BLA BLA BLA BLA BLA BLA BLA BLA BLA BLA BLA BLA BLA BLA 
BLA BLA BLA BLA BLA BLA BLA BLA BLA BLA BLA BLA BLA BLA BLA BLA BLA BLA BLA BLA 
BLA BLA BLA BLA BLA BLA BLA BLA BLA BLA BLA BLA BLA BLA BLA BLA BLA BLA BLA BLA 
BLA BLA BLA BLA BLA BLA BLA BLA BLA BLA BLA BLA BLA BLA BLA BLA BLA BLA BLA BLA 
BLA BLA BLA BLA BLA BLA BLA BLA BLA BLA BLA BLA BLA BLA BLA BLA BLA BLA BLA BLA 
BLA BLA BLA BLA BLA BLA BLA BLA BLA BLA BLA BLA BLA BLA BLA BLA BLA BLA BLA BLA 
BLA BLA BLA BLA BLA BLA BLA BLA BLA BLA BLA BLA BLA BLA BLA BLA BLA BLA BLA BLA 
BLA BLA BLA BLA BLA BLA BLA BLA BLA BLA BLA BLA BLA BLA BLA BLA BLA BLA BLA BLA 
BLA BLA BLA BLA BLA BLA BLA BLA BLA BLA BLA BLA BLA BLA BLA BLA BLA BLA BLA BLA 
BLA BLA BLA BLA BLA BLA BLA BLA BLA BLA BLA BLA BLA BLA BLA BLA BLA BLA BLA BLA 
BLA BLA BLA BLA BLA BLA BLA BLA BLA BLA BLA BLA BLA BLA BLA BLA BLA BLA BLA BLA 
BLA BLA BLA BLA BLA BLA BLA BLA BLA BLA BLA BLA BLA BLA BLA BLA BLA BLA BLA BLA 
BLA BLA BLA BLA BLA BLA BLA BLA BLA BLA BLA BLA BLA BLA BLA BLA BLA BLA BLA BLA 
BLA BLA BLA BLA BLA BLA BLA BLA BLA BLA BLA BLA BLA BLA BLA BLA BLA BLA BLA BLA 
BLA BLA BLA BLA BLA BLA BLA BLA BLA BLA BLA BLA BLA BLA BLA BLA BLA BLA BLA BLA 
BLA BLA BLA BLA BLA BLA BLA BLA BLA BLA BLA BLA BLA BLA BLA BLA BLA BLA BLA BLA 
BLA BLA BLA BLA BLA BLA BLA BLA BLA BLA BLA BLA BLA BLA BLA BLA BLA BLA BLA BLA 
BLA BLA BLA BLA BLA BLA BLA BLA BLA BLA BLA BLA BLA BLA BLA BLA BLA BLA BLA BLA 
BLA BLA BLA BLA BLA BLA BLA BLA BLA BLA BLA BLA BLA BLA BLA BLA BLA BLA BLA BLA 
BLA BLA BLA BLA BLA BLA BLA BLA BLA BLA BLA BLA BLA BLA BLA BLA BLA BLA BLA BLA 
BLA BLA BLA BLA BLA BLA BLA BLA BLA BLA BLA BLA BLA BLA BLA BLA BLA BLA BLA BLA 
BLA BLA BLA BLA BLA BLA BLA BLA BLA BLA BLA BLA BLA BLA BLA BLA BLA BLA BLA BLA 
BLA BLA BLA BLA BLA BLA BLA BLA BLA BLA BLA BLA BLA BLA BLA BLA BLA BLA BLA BLA 
BLA BLA BLA BLA BLA BLA BLA BLA BLA BLA BLA BLA BLA BLA BLA BLA BLA BLA BLA BLA 
BLA BLA BLA BLA BLA BLA BLA BLA BLA BLA BLA BLA BLA BLA BLA BLA BLA BLA BLA BLA 
BLA BLA BLA BLA BLA BLA BLA BLA BLA BLA BLA BLA BLA BLA BLA BLA BLA BLA BLA BLA 
BLA BLA BLA BLA BLA BLA BLA BLA BLA BLA BLA BLA BLA BLA BLA BLA BLA BLA BLA BLA 
BLA BLA BLA BLA BLA BLA BLA BLA BLA BLA BLA BLA BLA BLA BLA BLA BLA BLA BLA BLA 
BLA BLA BLA BLA BLA BLA BLA BLA BLA BLA BLA BLA BLA BLA BLA BLA BLA BLA BLA BLA 
BLA BLA BLA BLA BLA BLA BLA BLA BLA BLA BLA BLA BLA BLA BLA BLA BLA BLA BLA BLA 
BLA BLA BLA BLA BLA BLA BLA BLA BLA BLA BLA BLA BLA BLA BLA BLA BLA BLA BLA BLA 
BLA BLA BLA BLA BLA BLA BLA BLA BLA BLA BLA BLA BLA BLA BLA BLA BLA BLA BLA BLA 
BLA BLA BLA BLA BLA BLA BLA BLA BLA BLA BLA BLA BLA BLA BLA BLA BLA BLA BLA BLA 
BLA BLA BLA BLA BLA BLA BLA BLA BLA BLA BLA BLA BLA BLA BLA BLA BLA BLA BLA BLA 
BLA BLA BLA BLA BLA BLA BLA BLA BLA BLA BLA BLA BLA BLA BLA BLA BLA BLA BLA BLA 
BLA BLA BLA BLA BLA BLA BLA BLA BLA BLA BLA BLA BLA BLA BLA BLA BLA BLA BLA BLA 
BLA BLA BLA BLA BLA BLA BLA BLA BLA BLA BLA BLA BLA BLA BLA BLA BLA BLA BLA BLA 
BLA BLA BLA BLA BLA BLA BLA BLA BLA BLA BLA BLA BLA BLA BLA BLA BLA BLA BLA BLA 
BLA BLA BLA BLA BLA BLA BLA BLA BLA BLA BLA BLA BLA BLA BLA BLA BLA BLA BLA BLA 
BLA BLA BLA BLA BLA BLA BLA BLA BLA BLA BLA BLA BLA BLA BLA BLA BLA BLA BLA BLA 
BLA BLA BLA BLA BLA BLA BLA BLA BLA BLA BLA BLA BLA BLA BLA BLA BLA BLA BLA BLA 
BLA BLA BLA BLA BLA BLA BLA BLA BLA BLA BLA BLA BLA BLA BLA BLA BLA BLA BLA BLA 
BLA BLA BLA BLA BLA BLA BLA BLA BLA BLA BLA BLA BLA BLA BLA BLA BLA BLA BLA BLA 
BLA BLA BLA BLA BLA BLA BLA BLA BLA BLA BLA BLA BLA BLA BLA BLA BLA BLA BLA BLA 
BLA BLA BLA BLA BLA BLA BLA BLA BLA BLA BLA BLA BLA BLA BLA BLA BLA BLA BLA BLA 
BLA BLA BLA BLA BLA BLA BLA BLA BLA BLA BLA BLA BLA BLA BLA BLA BLA BLA BLA BLA 
BLA BLA BLA BLA BLA BLA BLA BLA BLA BLA BLA BLA BLA BLA BLA BLA BLA BLA BLA BLA 
BLA BLA BLA BLA BLA BLA BLA BLA BLA BLA BLA BLA BLA BLA BLA BLA BLA BLA BLA BLA 
BLA BLA BLA BLA BLA BLA BLA BLA BLA BLA BLA BLA BLA BLA BLA BLA BLA BLA BLA BLA 
BLA BLA BLA BLA BLA BLA BLA BLA BLA BLA BLA BLA BLA BLA BLA BLA BLA BLA BLA BLA 
BLA BLA BLA BLA BLA BLA BLA BLA BLA BLA BLA BLA BLA BLA BLA BLA BLA BLA BLA BLA 
BLA BLA BLA BLA BLA BLA BLA BLA BLA BLA BLA BLA BLA BLA BLA BLA BLA BLA BLA BLA 
BLA BLA BLA BLA BLA BLA BLA BLA BLA BLA BLA BLA BLA BLA BLA BLA BLA BLA BLA BLA 
BLA BLA BLA BLA BLA BLA BLA BLA BLA BLA BLA BLA BLA BLA BLA BLA BLA BLA BLA BLA 
BLA BLA BLA BLA BLA BLA BLA BLA BLA BLA BLA BLA BLA BLA BLA BLA BLA BLA BLA BLA 
BLA BLA BLA BLA BLA BLA BLA BLA BLA BLA BLA BLA BLA BLA BLA BLA BLA BLA BLA BLA 
BLA BLA BLA BLA BLA BLA BLA BLA BLA BLA BLA BLA BLA BLA BLA BLA BLA BLA BLA BLA 
BLA BLA BLA BLA BLA BLA BLA BLA BLA BLA BLA BLA BLA BLA BLA BLA BLA BLA BLA BLA 
BLA BLA BLA BLA BLA BLA BLA BLA BLA BLA BLA BLA BLA BLA BLA BLA BLA BLA BLA BLA 
BLA BLA BLA BLA BLA BLA BLA BLA BLA BLA BLA BLA BLA BLA BLA BLA BLA BLA BLA BLA 
BLA BLA BLA BLA BLA BLA BLA BLA BLA BLA BLA BLA BLA BLA BLA BLA BLA BLA BLA BLA 
BLA BLA BLA BLA BLA BLA BLA BLA BLA BLA BLA BLA BLA BLA BLA BLA BLA BLA BLA BLA 
BLA BLA BLA BLA BLA BLA BLA BLA BLA BLA BLA BLA BLA BLA BLA BLA BLA BLA BLA BLA 
BLA BLA BLA BLA BLA BLA BLA BLA BLA BLA BLA BLA BLA BLA BLA BLA BLA BLA BLA BLA 
BLA BLA BLA BLA BLA BLA BLA BLA BLA BLA BLA BLA BLA BLA BLA BLA BLA BLA BLA BLA 
BLA BLA BLA BLA BLA BLA BLA BLA BLA BLA BLA BLA BLA BLA BLA BLA BLA BLA BLA BLA 
BLA BLA BLA BLA BLA BLA BLA BLA BLA BLA BLA BLA BLA BLA BLA BLA BLA BLA BLA BLA 
BLA BLA BLA BLA BLA BLA BLA BLA BLA BLA BLA BLA BLA BLA BLA BLA BLA BLA BLA BLA 
BLA BLA BLA BLA BLA BLA BLA BLA BLA BLA BLA BLA BLA BLA BLA BLA BLA BLA BLA BLA 
BLA BLA BLA BLA BLA BLA BLA BLA BLA BLA BLA BLA BLA BLA BLA BLA BLA BLA BLA BLA 
BLA BLA BLA BLA BLA BLA BLA BLA BLA BLA BLA BLA BLA BLA BLA BLA BLA BLA BLA BLA 
BLA BLA BLA BLA BLA BLA BLA BLA BLA BLA BLA BLA BLA BLA BLA BLA BLA BLA BLA BLA 
BLA BLA BLA BLA BLA BLA BLA BLA BLA BLA BLA BLA BLA BLA BLA BLA BLA BLA BLA BLA 
BLA BLA BLA BLA BLA BLA BLA BLA BLA BLA BLA BLA BLA BLA BLA BLA BLA BLA BLA BLA 
BLA BLA BLA BLA BLA BLA BLA BLA BLA BLA BLA BLA BLA BLA BLA BLA BLA BLA BLA BLA 
BLA BLA BLA BLA BLA BLA BLA BLA BLA BLA BLA BLA BLA BLA BLA BLA BLA BLA BLA BLA 
BLA BLA BLA BLA BLA BLA BLA BLA BLA BLA BLA BLA BLA BLA BLA BLA BLA BLA BLA BLA 
BLA BLA BLA BLA BLA BLA BLA BLA BLA BLA BLA BLA BLA BLA BLA BLA BLA BLA BLA BLA 
BLA BLA BLA BLA BLA BLA BLA BLA BLA BLA BLA BLA BLA BLA BLA BLA BLA BLA BLA BLA 
BLA BLA BLA BLA BLA BLA BLA BLA BLA BLA BLA BLA BLA BLA BLA BLA BLA BLA BLA BLA 
BLA BLA BLA BLA BLA BLA BLA BLA BLA BLA BLA BLA BLA BLA BLA BLA BLA BLA BLA BLA 
BLA BLA BLA BLA BLA BLA BLA BLA BLA BLA BLA BLA BLA BLA BLA BLA BLA BLA BLA BLA 
BLA BLA BLA BLA BLA BLA BLA BLA BLA BLA BLA BLA BLA BLA BLA BLA BLA BLA BLA BLA 
BLA BLA BLA BLA BLA BLA BLA BLA BLA BLA BLA BLA BLA BLA BLA BLA BLA BLA BLA BLA 
BLA BLA BLA BLA BLA BLA BLA BLA BLA BLA BLA BLA BLA BLA BLA BLA BLA BLA BLA BLA 
BLA BLA BLA BLA BLA BLA BLA BLA BLA BLA BLA BLA BLA BLA BLA BLA BLA BLA BLA BLA 
BLA BLA BLA BLA BLA BLA BLA BLA BLA BLA BLA BLA BLA BLA BLA BLA BLA BLA BLA BLA 
BLA BLA BLA BLA BLA BLA BLA BLA BLA BLA BLA BLA BLA BLA BLA BLA BLA BLA BLA BLA 
BLA BLA BLA BLA BLA BLA BLA BLA BLA BLA BLA BLA BLA BLA BLA BLA BLA BLA BLA BLA 
BLA BLA BLA BLA BLA BLA BLA BLA BLA BLA BLA BLA BLA BLA BLA BLA BLA BLA BLA BLA 
BLA BLA BLA BLA BLA BLA BLA BLA BLA BLA BLA BLA BLA BLA BLA BLA BLA BLA BLA BLA 
BLA BLA BLA BLA BLA BLA BLA BLA BLA BLA BLA BLA BLA BLA BLA BLA BLA BLA BLA BLA 
BLA BLA BLA BLA BLA BLA BLA BLA BLA BLA BLA BLA BLA BLA BLA BLA BLA BLA BLA BLA 
BLA BLA BLA BLA BLA BLA BLA BLA BLA BLA BLA BLA BLA BLA BLA BLA BLA BLA BLA BLA 
BLA BLA BLA BLA BLA BLA BLA BLA BLA BLA BLA BLA BLA BLA BLA BLA BLA BLA BLA BLA 
BLA BLA BLA BLA BLA BLA BLA BLA BLA BLA BLA BLA BLA BLA BLA BLA BLA BLA BLA BLA 
BLA BLA BLA BLA BLA BLA BLA BLA BLA BLA BLA BLA BLA BLA BLA BLA BLA BLA BLA BLA 
BLA BLA BLA BLA BLA BLA BLA BLA BLA BLA BLA BLA BLA BLA BLA BLA BLA BLA BLA BLA 
BLA BLA BLA BLA BLA BLA BLA BLA BLA BLA BLA BLA BLA BLA BLA BLA BLA BLA BLA BLA 
BLA BLA BLA BLA BLA BLA BLA BLA BLA BLA BLA BLA BLA BLA BLA BLA BLA BLA BLA BLA 
BLA BLA BLA BLA BLA BLA BLA BLA BLA BLA BLA BLA BLA BLA BLA BLA BLA BLA BLA BLA 
BLA BLA BLA BLA BLA BLA BLA BLA BLA BLA BLA BLA BLA BLA BLA BLA BLA BLA BLA BLA 
BLA BLA BLA BLA BLA BLA BLA BLA BLA BLA BLA BLA BLA BLA BLA BLA BLA BLA BLA BLA 
BLA BLA BLA BLA BLA BLA BLA BLA BLA BLA BLA BLA BLA BLA BLA BLA BLA BLA BLA BLA 
BLA BLA BLA BLA BLA BLA BLA BLA BLA BLA BLA BLA BLA BLA BLA BLA BLA BLA BLA BLA 
BLA BLA BLA BLA BLA BLA BLA BLA BLA BLA BLA BLA BLA BLA BLA BLA BLA BLA BLA BLA 
BLA BLA BLA BLA BLA BLA BLA BLA BLA BLA BLA BLA BLA BLA BLA BLA BLA BLA BLA BLA 
BLA BLA BLA BLA BLA BLA BLA BLA BLA BLA BLA BLA BLA BLA BLA BLA BLA BLA BLA BLA 
BLA BLA BLA BLA BLA BLA BLA BLA BLA BLA BLA BLA BLA BLA BLA BLA BLA BLA BLA BLA 
BLA BLA BLA BLA BLA BLA BLA BLA BLA BLA BLA BLA BLA BLA BLA BLA BLA BLA BLA BLA 
BLA BLA BLA BLA BLA BLA BLA BLA BLA BLA BLA BLA BLA BLA BLA BLA BLA BLA BLA BLA 
BLA BLA BLA BLA BLA BLA BLA BLA BLA BLA BLA BLA BLA BLA BLA BLA BLA BLA BLA BLA 
BLA BLA BLA BLA BLA BLA BLA BLA BLA BLA BLA BLA BLA BLA BLA BLA BLA BLA BLA BLA 
BLA BLA BLA BLA BLA BLA BLA BLA BLA BLA BLA BLA BLA BLA BLA BLA BLA BLA BLA BLA 
BLA BLA BLA BLA BLA BLA BLA BLA BLA BLA BLA BLA BLA BLA BLA BLA BLA BLA BLA BLA 
BLA BLA BLA BLA BLA BLA BLA BLA BLA BLA BLA BLA BLA BLA BLA BLA BLA BLA BLA BLA 
BLA BLA BLA BLA BLA BLA BLA BLA BLA BLA BLA BLA BLA BLA BLA BLA BLA BLA BLA BLA 
BLA BLA BLA BLA BLA BLA BLA BLA BLA BLA BLA BLA BLA BLA BLA BLA BLA BLA BLA BLA 
BLA BLA BLA BLA BLA BLA BLA BLA BLA BLA BLA BLA BLA BLA BLA BLA BLA BLA BLA BLA 
BLA BLA BLA BLA BLA BLA BLA BLA BLA BLA BLA BLA BLA BLA BLA BLA BLA BLA BLA BLA 
BLA BLA BLA BLA BLA BLA BLA BLA BLA BLA BLA BLA BLA BLA BLA BLA BLA BLA BLA BLA 
BLA BLA BLA BLA BLA BLA BLA BLA BLA BLA BLA BLA BLA BLA BLA BLA BLA BLA BLA BLA 
BLA BLA BLA BLA BLA BLA BLA BLA BLA BLA BLA BLA BLA BLA BLA BLA BLA BLA BLA BLA 
BLA BLA BLA BLA BLA BLA BLA BLA BLA BLA BLA BLA BLA BLA BLA BLA BLA BLA BLA BLA 
BLA BLA BLA BLA BLA BLA BLA BLA BLA BLA BLA BLA BLA BLA BLA BLA BLA BLA BLA BLA 
BLA BLA BLA BLA BLA BLA BLA BLA BLA BLA BLA BLA BLA BLA BLA BLA BLA BLA BLA BLA 
BLA BLA BLA BLA BLA BLA BLA BLA BLA BLA BLA BLA BLA BLA BLA BLA BLA BLA BLA BLA 
BLA BLA BLA BLA BLA BLA BLA BLA BLA BLA BLA BLA BLA BLA BLA BLA BLA BLA BLA BLA 
BLA BLA BLA BLA BLA BLA BLA BLA BLA BLA BLA BLA BLA BLA BLA BLA BLA BLA BLA BLA 
BLA BLA BLA BLA BLA BLA BLA BLA BLA BLA BLA BLA BLA BLA BLA BLA BLA BLA BLA BLA 
BLA BLA BLA BLA BLA BLA BLA BLA BLA BLA BLA BLA BLA BLA BLA BLA BLA BLA BLA BLA 
BLA BLA BLA BLA BLA BLA BLA BLA BLA BLA BLA BLA BLA BLA BLA BLA BLA BLA BLA BLA 
BLA BLA BLA BLA BLA BLA BLA BLA BLA BLA BLA BLA BLA BLA BLA BLA BLA BLA BLA BLA 
BLA BLA BLA BLA BLA BLA BLA BLA BLA BLA BLA BLA BLA BLA BLA BLA BLA BLA BLA BLA 
BLA BLA BLA BLA BLA BLA BLA BLA BLA BLA BLA BLA BLA BLA BLA BLA BLA BLA BLA BLA 
BLA BLA BLA BLA BLA BLA BLA BLA BLA BLA BLA BLA BLA BLA BLA BLA BLA BLA BLA BLA 
BLA BLA BLA BLA BLA BLA BLA BLA BLA BLA BLA BLA BLA BLA BLA BLA BLA BLA BLA BLA 
BLA BLA BLA BLA BLA BLA BLA BLA BLA BLA BLA BLA BLA BLA BLA BLA BLA BLA BLA BLA 
BLA BLA BLA BLA BLA BLA BLA BLA BLA BLA BLA BLA BLA BLA BLA BLA BLA BLA BLA BLA 
BLA BLA BLA BLA BLA BLA BLA BLA BLA BLA BLA BLA BLA BLA BLA BLA BLA BLA BLA BLA 
BLA BLA BLA BLA BLA BLA BLA BLA BLA BLA BLA BLA BLA BLA BLA BLA BLA BLA BLA BLA 
BLA BLA BLA BLA BLA BLA BLA BLA BLA BLA BLA BLA BLA BLA BLA BLA BLA BLA BLA BLA 
BLA BLA BLA BLA BLA BLA BLA BLA BLA BLA BLA BLA BLA BLA BLA BLA BLA BLA BLA BLA 
BLA BLA BLA BLA BLA BLA BLA BLA BLA BLA BLA BLA BLA BLA BLA BLA BLA BLA BLA BLA 
BLA BLA BLA BLA BLA BLA BLA BLA BLA BLA BLA BLA BLA BLA BLA BLA BLA BLA BLA BLA 
BLA BLA BLA BLA BLA BLA BLA BLA BLA BLA BLA BLA BLA BLA BLA BLA BLA BLA BLA BLA 
BLA BLA BLA BLA BLA BLA BLA BLA BLA BLA BLA BLA BLA BLA BLA BLA BLA BLA BLA BLA 
BLA BLA BLA BLA BLA BLA BLA BLA BLA BLA BLA BLA BLA BLA BLA BLA BLA BLA BLA BLA 
BLA BLA BLA BLA BLA BLA BLA BLA BLA BLA BLA BLA BLA BLA BLA BLA BLA BLA BLA BLA 
BLA BLA BLA BLA BLA BLA BLA BLA BLA BLA BLA BLA BLA BLA BLA BLA BLA BLA BLA BLA 
BLA BLA BLA BLA BLA BLA BLA BLA BLA BLA BLA BLA BLA BLA BLA BLA BLA BLA BLA BLA 
BLA BLA BLA BLA BLA BLA BLA BLA BLA BLA BLA BLA BLA BLA BLA BLA BLA BLA BLA BLA 
BLA BLA BLA BLA BLA BLA BLA BLA BLA BLA BLA BLA BLA BLA BLA BLA BLA BLA BLA BLA 
BLA BLA BLA BLA BLA BLA BLA BLA BLA BLA BLA BLA BLA BLA BLA BLA BLA BLA BLA BLA 
BLA BLA BLA BLA BLA BLA BLA BLA BLA BLA BLA BLA BLA BLA BLA BLA BLA BLA BLA BLA 
BLA BLA BLA BLA BLA BLA BLA BLA BLA BLA BLA BLA BLA BLA BLA BLA BLA BLA BLA BLA 
BLA BLA BLA BLA BLA BLA BLA BLA BLA BLA BLA BLA BLA BLA BLA BLA BLA BLA BLA BLA 
BLA BLA BLA BLA BLA BLA BLA BLA BLA BLA BLA BLA BLA BLA BLA BLA BLA BLA BLA BLA 
BLA BLA BLA BLA BLA BLA BLA BLA BLA BLA BLA BLA BLA BLA BLA BLA BLA BLA BLA BLA 
BLA BLA BLA BLA BLA BLA BLA BLA BLA BLA BLA BLA BLA BLA BLA BLA BLA BLA BLA BLA 
BLA BLA BLA BLA BLA BLA BLA BLA BLA BLA BLA BLA BLA BLA BLA BLA BLA BLA BLA BLA 
BLA BLA BLA BLA BLA BLA BLA BLA BLA BLA BLA BLA BLA BLA BLA BLA BLA BLA BLA BLA 
BLA BLA BLA BLA BLA BLA BLA BLA BLA BLA BLA BLA BLA BLA BLA BLA BLA BLA BLA BLA 
BLA BLA BLA BLA BLA BLA BLA BLA BLA BLA BLA BLA BLA BLA BLA BLA BLA BLA BLA BLA 
BLA BLA BLA BLA BLA BLA BLA BLA BLA BLA BLA BLA BLA BLA BLA BLA BLA BLA BLA BLA 
BLA BLA BLA BLA BLA BLA BLA BLA BLA BLA BLA BLA BLA BLA BLA BLA BLA BLA BLA BLA 
BLA BLA BLA BLA BLA BLA BLA BLA BLA BLA BLA BLA BLA BLA BLA BLA BLA BLA BLA BLA 
BLA BLA BLA BLA BLA BLA BLA BLA BLA BLA BLA BLA BLA BLA BLA BLA BLA BLA BLA BLA 
BLA BLA BLA BLA BLA BLA BLA BLA BLA BLA BLA BLA BLA BLA BLA BLA BLA BLA BLA BLA 
BLA BLA BLA BLA BLA BLA BLA BLA BLA BLA BLA BLA BLA BLA BLA BLA BLA BLA BLA BLA 
BLA BLA BLA BLA BLA BLA BLA BLA BLA BLA BLA BLA BLA BLA BLA BLA BLA BLA BLA BLA 
BLA BLA BLA BLA BLA BLA BLA BLA BLA BLA BLA BLA BLA BLA BLA BLA BLA BLA BLA BLA 
BLA BLA BLA BLA BLA BLA BLA BLA BLA BLA BLA BLA BLA BLA BLA BLA BLA BLA BLA BLA 
BLA BLA BLA BLA BLA BLA BLA BLA BLA BLA BLA BLA BLA BLA BLA BLA BLA BLA BLA BLA 
BLA BLA BLA BLA BLA BLA BLA BLA BLA BLA BLA BLA BLA BLA BLA BLA BLA BLA BLA BLA 
BLA BLA BLA BLA BLA BLA BLA BLA BLA BLA BLA BLA BLA BLA BLA BLA BLA BLA BLA BLA 
BLA BLA BLA BLA BLA BLA BLA BLA BLA BLA BLA BLA BLA BLA BLA BLA BLA BLA BLA BLA 
BLA BLA BLA BLA BLA BLA BLA BLA BLA BLA BLA BLA BLA BLA BLA BLA BLA BLA BLA BLA 
BLA BLA BLA BLA BLA BLA BLA BLA BLA BLA BLA BLA BLA BLA BLA BLA BLA BLA BLA BLA 
BLA BLA BLA BLA BLA BLA BLA BLA BLA BLA BLA BLA BLA BLA BLA BLA BLA BLA BLA BLA 
BLA BLA BLA BLA BLA BLA BLA BLA BLA BLA BLA BLA BLA BLA BLA BLA BLA BLA BLA BLA 
BLA BLA BLA BLA BLA BLA BLA BLA BLA BLA BLA BLA BLA BLA BLA BLA BLA BLA BLA BLA 
BLA BLA BLA BLA BLA BLA BLA BLA BLA BLA BLA BLA BLA BLA BLA BLA BLA BLA BLA BLA 
BLA BLA BLA BLA BLA BLA BLA BLA BLA BLA BLA BLA BLA BLA BLA BLA BLA BLA BLA BLA 
BLA BLA BLA BLA BLA BLA BLA BLA BLA BLA BLA BLA BLA BLA BLA BLA BLA BLA BLA BLA 
BLA BLA BLA BLA BLA BLA BLA BLA BLA BLA BLA BLA BLA BLA BLA BLA BLA BLA BLA BLA 
BLA BLA BLA BLA BLA BLA BLA BLA BLA BLA BLA BLA BLA BLA BLA BLA BLA BLA BLA BLA 
BLA BLA BLA BLA BLA BLA BLA BLA BLA BLA BLA BLA BLA BLA BLA BLA BLA BLA BLA BLA 
BLA BLA BLA BLA BLA BLA BLA BLA BLA BLA BLA BLA BLA BLA BLA BLA BLA BLA BLA BLA 
BLA BLA BLA BLA BLA BLA BLA BLA BLA BLA BLA BLA BLA BLA BLA BLA BLA BLA BLA BLA 
BLA BLA BLA BLA BLA BLA BLA BLA BLA BLA BLA BLA BLA BLA BLA BLA BLA BLA BLA BLA 
BLA BLA BLA BLA BLA BLA BLA BLA BLA BLA BLA BLA BLA BLA BLA BLA BLA BLA BLA BLA 
BLA BLA BLA BLA BLA BLA BLA BLA BLA BLA BLA BLA BLA BLA BLA BLA BLA BLA BLA BLA 
BLA BLA BLA BLA BLA BLA BLA BLA BLA BLA BLA BLA BLA BLA BLA BLA BLA BLA BLA BLA 
BLA BLA BLA BLA BLA BLA BLA BLA BLA BLA BLA BLA BLA BLA BLA BLA BLA BLA BLA BLA 
BLA BLA BLA BLA BLA BLA BLA BLA BLA BLA BLA BLA BLA BLA BLA BLA BLA BLA BLA BLA 
BLA BLA BLA BLA BLA BLA BLA BLA BLA BLA BLA BLA BLA BLA BLA BLA BLA BLA BLA BLA 
BLA BLA BLA BLA BLA BLA BLA BLA BLA BLA BLA BLA BLA BLA BLA BLA BLA BLA BLA BLA 
BLA BLA BLA BLA BLA BLA BLA BLA BLA BLA BLA BLA BLA BLA BLA BLA BLA BLA BLA BLA 
BLA BLA BLA BLA BLA BLA BLA BLA BLA BLA BLA BLA BLA BLA BLA BLA BLA BLA BLA BLA 
BLA BLA BLA BLA BLA BLA BLA BLA BLA BLA BLA BLA BLA BLA BLA BLA BLA BLA BLA BLA 
BLA BLA BLA BLA BLA BLA BLA BLA BLA BLA BLA BLA BLA BLA BLA BLA BLA BLA BLA BLA 
BLA BLA BLA BLA BLA BLA BLA BLA BLA BLA BLA BLA BLA BLA BLA BLA BLA BLA BLA BLA 
BLA BLA BLA BLA BLA BLA BLA BLA BLA BLA BLA BLA BLA BLA BLA BLA BLA BLA BLA BLA 
BLA BLA BLA BLA BLA BLA BLA BLA BLA BLA BLA BLA BLA BLA BLA BLA BLA BLA BLA BLA 
BLA BLA BLA BLA BLA BLA BLA BLA BLA BLA BLA BLA BLA BLA BLA BLA BLA BLA BLA BLA 
BLA BLA BLA BLA BLA BLA BLA BLA BLA BLA BLA BLA BLA BLA BLA BLA BLA BLA BLA BLA 
BLA BLA BLA BLA BLA BLA BLA BLA BLA BLA BLA BLA BLA BLA BLA BLA BLA BLA BLA BLA 
BLA BLA BLA BLA BLA BLA BLA BLA BLA BLA BLA BLA BLA BLA BLA BLA BLA BLA BLA BLA 
BLA BLA BLA BLA BLA BLA BLA BLA BLA BLA BLA BLA BLA BLA BLA BLA BLA BLA BLA BLA 
BLA BLA BLA BLA BLA BLA BLA BLA BLA BLA BLA BLA BLA BLA BLA BLA BLA BLA BLA BLA 
BLA BLA BLA BLA BLA BLA BLA BLA BLA BLA BLA BLA BLA BLA BLA BLA BLA BLA BLA BLA 
BLA BLA BLA BLA BLA BLA BLA BLA BLA BLA BLA BLA BLA BLA BLA BLA BLA BLA BLA BLA 
BLA BLA BLA BLA BLA BLA BLA BLA BLA BLA BLA BLA BLA BLA BLA BLA BLA BLA BLA BLA 
BLA BLA BLA BLA BLA BLA BLA BLA BLA BLA BLA BLA BLA BLA BLA BLA BLA BLA BLA BLA 
BLA BLA BLA BLA BLA BLA BLA BLA BLA BLA BLA BLA BLA BLA BLA BLA BLA BLA BLA BLA 
BLA BLA BLA BLA BLA BLA BLA BLA BLA BLA BLA BLA BLA BLA BLA BLA BLA BLA BLA BLA 
BLA BLA BLA BLA BLA BLA BLA BLA BLA BLA BLA BLA BLA BLA BLA BLA BLA BLA BLA BLA 
BLA BLA BLA BLA BLA BLA BLA BLA BLA BLA BLA BLA BLA BLA BLA BLA BLA BLA BLA BLA 
BLA BLA BLA BLA BLA BLA BLA BLA BLA BLA BLA BLA BLA BLA BLA BLA BLA BLA BLA BLA 
BLA BLA BLA BLA BLA BLA BLA BLA BLA BLA BLA BLA BLA BLA BLA BLA BLA BLA BLA BLA 
BLA BLA BLA BLA BLA BLA BLA BLA BLA BLA BLA BLA BLA BLA BLA BLA BLA BLA BLA BLA 
BLA BLA BLA BLA BLA BLA BLA BLA BLA BLA BLA BLA BLA BLA BLA BLA BLA BLA BLA BLA 
BLA BLA BLA BLA BLA BLA BLA BLA BLA BLA BLA BLA BLA BLA BLA BLA BLA BLA BLA BLA 
BLA BLA BLA BLA BLA BLA BLA BLA BLA BLA BLA BLA BLA BLA BLA BLA BLA BLA BLA BLA 
BLA BLA BLA BLA BLA BLA BLA BLA BLA BLA BLA BLA BLA BLA BLA BLA BLA BLA BLA BLA 
BLA BLA BLA BLA BLA BLA BLA BLA BLA BLA BLA BLA BLA BLA BLA BLA BLA BLA BLA BLA 
BLA BLA BLA BLA BLA BLA BLA BLA BLA BLA BLA BLA BLA BLA BLA BLA BLA BLA BLA BLA 
BLA BLA BLA BLA BLA BLA BLA BLA BLA BLA BLA BLA BLA BLA BLA BLA BLA BLA BLA BLA 
BLA BLA BLA BLA BLA BLA BLA BLA BLA BLA BLA BLA BLA BLA BLA BLA BLA BLA BLA BLA 
BLA BLA BLA BLA BLA BLA BLA BLA BLA BLA BLA BLA BLA BLA BLA BLA BLA BLA BLA BLA 
BLA BLA BLA BLA BLA BLA BLA BLA BLA BLA BLA BLA BLA BLA BLA BLA BLA BLA BLA BLA 
BLA BLA BLA BLA BLA BLA BLA BLA BLA BLA BLA BLA BLA BLA BLA BLA BLA BLA BLA BLA 
BLA BLA BLA BLA BLA BLA BLA BLA BLA BLA BLA BLA BLA BLA BLA BLA BLA BLA BLA BLA 
BLA BLA BLA BLA BLA BLA BLA BLA BLA BLA BLA BLA BLA BLA BLA BLA BLA BLA BLA BLA 
BLA BLA BLA BLA BLA BLA BLA BLA BLA BLA BLA BLA BLA BLA BLA BLA BLA BLA BLA BLA 
BLA BLA BLA BLA BLA BLA BLA BLA BLA BLA BLA BLA BLA BLA BLA BLA BLA BLA BLA BLA 
BLA BLA BLA BLA BLA BLA BLA BLA BLA BLA BLA BLA BLA BLA BLA BLA BLA BLA BLA BLA 
BLA BLA BLA BLA BLA BLA BLA BLA BLA BLA BLA BLA BLA BLA BLA BLA BLA BLA BLA BLA 
BLA BLA BLA BLA BLA BLA BLA BLA BLA BLA BLA BLA BLA BLA BLA BLA BLA BLA BLA BLA 
BLA BLA BLA BLA BLA BLA BLA BLA BLA BLA BLA BLA BLA BLA BLA BLA BLA BLA BLA BLA 
BLA BLA BLA BLA BLA BLA BLA BLA BLA BLA BLA BLA BLA BLA BLA BLA BLA BLA BLA BLA 
BLA BLA BLA BLA BLA BLA BLA BLA BLA BLA BLA BLA BLA BLA BLA BLA BLA BLA BLA BLA 
BLA BLA BLA BLA BLA BLA BLA BLA BLA BLA BLA BLA BLA BLA BLA BLA BLA BLA BLA BLA 
BLA BLA BLA BLA BLA BLA BLA BLA BLA BLA BLA BLA BLA BLA BLA BLA BLA BLA BLA BLA 
BLA BLA BLA BLA BLA BLA BLA BLA BLA BLA BLA BLA BLA BLA BLA BLA BLA BLA BLA BLA 
BLA BLA BLA BLA BLA BLA BLA BLA BLA BLA BLA BLA BLA BLA BLA BLA BLA BLA BLA BLA 
BLA BLA BLA BLA BLA BLA BLA BLA BLA BLA BLA BLA BLA BLA BLA BLA BLA BLA BLA BLA 
BLA BLA BLA BLA BLA BLA BLA BLA BLA BLA BLA BLA BLA BLA BLA BLA BLA BLA BLA BLA 
BLA BLA BLA BLA BLA BLA BLA BLA BLA BLA BLA BLA BLA BLA BLA BLA BLA BLA BLA BLA 
BLA BLA BLA BLA BLA BLA BLA BLA BLA BLA BLA BLA BLA BLA BLA BLA BLA BLA BLA BLA 
BLA BLA BLA BLA BLA BLA BLA BLA BLA BLA BLA BLA BLA BLA BLA BLA BLA BLA BLA BLA 
BLA BLA BLA BLA BLA BLA BLA BLA BLA BLA BLA BLA BLA BLA BLA BLA BLA BLA BLA BLA 
BLA BLA BLA BLA BLA BLA BLA BLA BLA BLA BLA BLA BLA BLA BLA BLA BLA BLA BLA BLA 
BLA BLA BLA BLA BLA BLA BLA BLA BLA BLA BLA BLA BLA BLA BLA BLA BLA BLA BLA BLA 
BLA BLA BLA BLA BLA BLA BLA BLA BLA BLA BLA BLA BLA BLA BLA BLA BLA BLA BLA BLA 
BLA BLA BLA BLA BLA BLA BLA BLA BLA BLA BLA BLA BLA BLA BLA BLA BLA BLA BLA BLA 
BLA BLA BLA BLA BLA BLA BLA BLA BLA BLA BLA BLA BLA BLA BLA BLA BLA BLA BLA BLA 
BLA BLA BLA BLA BLA BLA BLA BLA BLA BLA BLA BLA BLA BLA BLA BLA BLA BLA BLA BLA 
BLA BLA BLA BLA BLA BLA BLA BLA BLA BLA BLA BLA BLA BLA BLA BLA BLA BLA BLA BLA 
BLA BLA BLA BLA BLA BLA BLA BLA BLA BLA BLA BLA BLA BLA BLA BLA BLA BLA BLA BLA 
BLA BLA BLA BLA BLA BLA BLA BLA BLA BLA BLA BLA BLA BLA BLA BLA BLA BLA BLA BLA 
BLA BLA BLA BLA BLA BLA BLA BLA BLA BLA BLA BLA BLA BLA BLA BLA BLA BLA BLA BLA 
BLA BLA BLA BLA BLA BLA BLA BLA BLA BLA BLA BLA BLA BLA BLA BLA BLA BLA BLA BLA 
BLA BLA BLA BLA BLA BLA BLA BLA BLA BLA BLA BLA BLA BLA BLA BLA BLA BLA BLA BLA 
BLA BLA BLA BLA BLA BLA BLA BLA BLA BLA BLA BLA BLA BLA BLA BLA BLA BLA BLA BLA 
BLA BLA BLA BLA BLA BLA BLA BLA BLA BLA BLA BLA BLA BLA BLA BLA BLA BLA BLA BLA 
BLA BLA BLA BLA BLA BLA BLA BLA BLA BLA BLA BLA BLA BLA BLA BLA BLA BLA BLA BLA 
BLA BLA BLA BLA BLA BLA BLA BLA BLA BLA BLA BLA BLA BLA BLA BLA BLA BLA BLA BLA 
BLA BLA BLA BLA BLA BLA BLA BLA BLA BLA BLA BLA BLA BLA BLA BLA BLA BLA BLA BLA 
BLA BLA BLA BLA BLA BLA BLA BLA BLA BLA BLA BLA BLA BLA BLA BLA BLA BLA BLA BLA 
BLA BLA BLA BLA BLA BLA BLA BLA BLA BLA BLA BLA BLA BLA BLA BLA BLA BLA BLA BLA 
BLA BLA BLA BLA BLA BLA BLA BLA BLA BLA BLA BLA BLA BLA BLA BLA BLA BLA BLA BLA 
BLA BLA BLA BLA BLA BLA BLA BLA BLA BLA BLA BLA BLA BLA BLA BLA BLA BLA BLA BLA 
BLA BLA BLA BLA BLA BLA BLA BLA BLA BLA BLA BLA BLA BLA BLA BLA BLA BLA BLA BLA 
BLA BLA BLA BLA BLA BLA BLA BLA BLA BLA BLA BLA BLA BLA BLA BLA BLA BLA BLA BLA 
BLA BLA BLA BLA BLA BLA BLA BLA BLA BLA BLA BLA BLA BLA BLA BLA BLA BLA BLA BLA 
BLA BLA BLA BLA BLA BLA BLA BLA BLA BLA BLA BLA BLA BLA BLA BLA BLA BLA BLA BLA 
BLA BLA BLA BLA BLA BLA BLA BLA BLA BLA BLA BLA BLA BLA BLA BLA BLA BLA BLA BLA 
BLA BLA BLA BLA BLA BLA BLA BLA BLA BLA BLA BLA BLA BLA BLA BLA BLA BLA BLA BLA 
BLA BLA BLA BLA BLA BLA BLA BLA BLA BLA BLA BLA BLA BLA BLA BLA BLA BLA BLA BLA 
BLA BLA BLA BLA BLA BLA BLA BLA BLA BLA BLA BLA BLA BLA BLA BLA BLA BLA BLA BLA 
BLA BLA BLA BLA BLA BLA BLA BLA BLA BLA BLA BLA BLA BLA BLA BLA BLA BLA BLA BLA 
BLA BLA BLA BLA BLA BLA BLA BLA BLA BLA BLA BLA BLA BLA BLA BLA BLA BLA BLA BLA 
BLA BLA BLA BLA BLA BLA BLA BLA BLA BLA BLA BLA BLA BLA BLA BLA BLA BLA BLA BLA 
BLA BLA BLA BLA BLA BLA BLA BLA BLA BLA BLA BLA BLA BLA BLA BLA BLA BLA BLA BLA 
BLA BLA BLA BLA BLA BLA BLA BLA BLA BLA BLA BLA BLA BLA BLA BLA BLA BLA BLA BLA 
BLA BLA BLA BLA BLA BLA BLA BLA BLA BLA BLA BLA BLA BLA BLA BLA BLA BLA BLA BLA 
BLA BLA BLA BLA BLA BLA BLA BLA BLA BLA BLA BLA BLA BLA BLA BLA BLA BLA BLA BLA 
BLA BLA BLA BLA BLA BLA BLA BLA BLA BLA BLA BLA BLA BLA BLA BLA BLA BLA BLA BLA 
BLA BLA BLA BLA BLA BLA BLA BLA BLA BLA BLA BLA BLA BLA BLA BLA BLA BLA BLA BLA 
BLA BLA BLA BLA BLA BLA BLA BLA BLA BLA BLA BLA BLA BLA BLA BLA BLA BLA BLA BLA 
BLA BLA BLA BLA BLA BLA BLA BLA BLA BLA BLA BLA BLA BLA BLA BLA BLA BLA BLA BLA 
BLA BLA BLA BLA BLA BLA BLA BLA BLA BLA BLA BLA BLA BLA BLA BLA BLA BLA BLA BLA 
BLA BLA BLA BLA BLA BLA BLA BLA BLA BLA BLA BLA BLA BLA BLA BLA BLA BLA BLA BLA 
BLA BLA BLA BLA BLA BLA BLA BLA BLA BLA BLA BLA BLA BLA BLA BLA BLA BLA BLA BLA 
BLA BLA BLA BLA BLA BLA BLA BLA BLA BLA BLA BLA BLA BLA BLA BLA BLA BLA BLA BLA 
BLA BLA BLA BLA BLA BLA BLA BLA BLA BLA BLA BLA BLA BLA BLA BLA BLA BLA BLA BLA 
BLA BLA BLA BLA BLA BLA BLA BLA BLA BLA BLA BLA BLA BLA BLA BLA BLA BLA BLA BLA 
BLA BLA BLA BLA BLA BLA BLA BLA BLA BLA BLA BLA BLA BLA BLA BLA BLA BLA BLA BLA 
BLA BLA BLA BLA BLA BLA BLA BLA BLA BLA BLA BLA BLA BLA BLA BLA BLA BLA BLA BLA 
BLA BLA BLA BLA BLA BLA BLA BLA BLA BLA BLA BLA BLA BLA BLA BLA BLA BLA BLA BLA 
BLA BLA BLA BLA BLA BLA BLA BLA BLA BLA BLA BLA BLA BLA BLA BLA BLA BLA BLA BLA 
BLA BLA BLA BLA BLA BLA BLA BLA BLA BLA BLA BLA BLA BLA BLA BLA BLA BLA BLA BLA 
BLA BLA BLA BLA BLA BLA BLA BLA BLA BLA BLA BLA BLA BLA BLA BLA BLA BLA BLA BLA 
BLA BLA BLA BLA BLA BLA BLA BLA BLA BLA BLA BLA BLA BLA BLA BLA BLA BLA BLA BLA 
BLA BLA BLA BLA BLA BLA BLA BLA BLA BLA BLA BLA BLA BLA BLA BLA BLA BLA BLA BLA 
BLA BLA BLA BLA BLA BLA BLA BLA BLA BLA BLA BLA BLA BLA BLA BLA BLA BLA BLA BLA 
BLA BLA BLA BLA BLA BLA BLA BLA BLA BLA BLA BLA BLA BLA BLA BLA BLA BLA BLA BLA 
BLA BLA BLA BLA BLA BLA BLA BLA BLA BLA BLA BLA BLA BLA BLA BLA BLA BLA BLA BLA 
BLA BLA BLA BLA BLA BLA BLA BLA BLA BLA BLA BLA BLA BLA BLA BLA BLA BLA BLA BLA 
BLA BLA BLA BLA BLA BLA BLA BLA BLA BLA BLA BLA BLA BLA BLA BLA BLA BLA BLA BLA 
BLA BLA BLA BLA BLA BLA BLA BLA BLA BLA BLA BLA BLA BLA BLA BLA BLA BLA BLA BLA 
BLA BLA BLA BLA BLA BLA BLA BLA BLA BLA BLA BLA BLA BLA BLA BLA BLA BLA BLA BLA 
BLA BLA BLA BLA BLA BLA BLA BLA BLA BLA BLA BLA BLA BLA BLA BLA BLA BLA BLA BLA 
BLA BLA BLA BLA BLA BLA BLA BLA BLA BLA BLA BLA BLA BLA BLA BLA BLA BLA BLA BLA 
BLA BLA BLA BLA BLA BLA BLA BLA BLA BLA BLA BLA BLA BLA BLA BLA BLA BLA BLA BLA 
BLA BLA BLA BLA BLA BLA BLA BLA BLA BLA BLA BLA BLA BLA BLA BLA BLA BLA BLA BLA 
BLA BLA BLA BLA BLA BLA BLA BLA BLA BLA BLA BLA BLA BLA BLA BLA BLA BLA BLA BLA 
BLA BLA BLA BLA BLA BLA BLA BLA BLA BLA BLA BLA BLA BLA BLA BLA BLA BLA BLA BLA 
BLA BLA BLA BLA BLA BLA BLA BLA BLA BLA BLA BLA BLA BLA BLA BLA BLA BLA BLA BLA 
BLA BLA BLA BLA BLA BLA BLA BLA BLA BLA BLA BLA BLA BLA BLA BLA BLA BLA BLA BLA 
BLA BLA BLA BLA BLA BLA BLA BLA BLA BLA BLA BLA BLA BLA BLA BLA BLA BLA BLA BLA 
BLA BLA BLA BLA BLA BLA BLA BLA BLA BLA BLA BLA BLA BLA BLA BLA BLA BLA BLA BLA 
BLA BLA BLA BLA BLA BLA BLA BLA BLA BLA BLA BLA BLA BLA BLA BLA BLA BLA BLA BLA 
BLA BLA BLA BLA BLA BLA BLA BLA BLA BLA BLA BLA BLA BLA BLA BLA BLA BLA BLA BLA 
BLA BLA BLA BLA BLA BLA BLA BLA BLA BLA BLA BLA BLA BLA BLA BLA BLA BLA BLA BLA 
BLA BLA BLA BLA BLA BLA BLA BLA BLA BLA BLA BLA BLA BLA BLA BLA BLA BLA BLA BLA 
BLA BLA BLA BLA BLA BLA BLA BLA BLA BLA BLA BLA BLA BLA BLA BLA BLA BLA BLA BLA 
BLA BLA BLA BLA BLA BLA BLA BLA BLA BLA BLA BLA BLA BLA BLA BLA BLA BLA BLA BLA 
BLA BLA BLA BLA BLA BLA BLA BLA BLA BLA BLA BLA BLA BLA BLA BLA BLA BLA BLA BLA 
BLA BLA BLA BLA BLA BLA BLA BLA BLA BLA BLA BLA BLA BLA BLA BLA BLA BLA BLA BLA 
BLA BLA BLA BLA BLA BLA BLA BLA BLA BLA BLA BLA BLA BLA BLA BLA BLA BLA BLA BLA 
BLA BLA BLA BLA BLA BLA BLA BLA BLA BLA BLA BLA BLA BLA BLA BLA BLA BLA BLA BLA 
BLA BLA BLA BLA BLA BLA BLA BLA BLA BLA BLA BLA BLA BLA BLA BLA BLA BLA BLA BLA 
BLA BLA BLA BLA BLA BLA BLA BLA BLA BLA BLA BLA BLA BLA BLA BLA BLA BLA BLA BLA 
BLA BLA BLA BLA BLA BLA BLA BLA BLA BLA BLA BLA BLA BLA BLA BLA BLA BLA BLA BLA 
BLA BLA BLA BLA BLA BLA BLA BLA BLA BLA BLA BLA BLA BLA BLA BLA BLA BLA BLA BLA 
BLA BLA BLA BLA BLA BLA BLA BLA BLA BLA BLA BLA BLA BLA BLA BLA BLA BLA BLA BLA 
BLA BLA BLA BLA BLA BLA BLA BLA BLA BLA BLA BLA BLA BLA BLA BLA BLA BLA BLA BLA 
BLA BLA BLA BLA BLA BLA BLA BLA BLA BLA BLA BLA BLA BLA BLA BLA BLA BLA BLA BLA 
BLA BLA BLA BLA BLA BLA BLA BLA BLA BLA BLA BLA BLA BLA BLA BLA BLA BLA BLA BLA 
BLA BLA BLA BLA BLA BLA BLA BLA BLA BLA BLA BLA BLA BLA BLA BLA BLA BLA BLA BLA 
BLA BLA BLA BLA BLA BLA BLA BLA BLA BLA BLA BLA BLA BLA BLA BLA BLA BLA BLA BLA 
BLA BLA BLA BLA BLA BLA BLA BLA BLA BLA BLA BLA BLA BLA BLA BLA BLA BLA BLA BLA 
BLA BLA BLA BLA BLA BLA BLA BLA BLA BLA BLA BLA BLA BLA BLA BLA BLA BLA BLA BLA 
BLA BLA BLA BLA BLA BLA BLA BLA BLA BLA BLA BLA BLA BLA BLA BLA BLA BLA BLA BLA 
BLA BLA BLA BLA BLA BLA BLA BLA BLA BLA BLA BLA BLA BLA BLA BLA BLA BLA BLA BLA 
BLA BLA BLA BLA BLA BLA BLA BLA BLA BLA BLA BLA BLA BLA BLA BLA BLA BLA BLA BLA 
BLA BLA BLA BLA BLA BLA BLA BLA BLA BLA BLA BLA BLA BLA BLA BLA BLA BLA BLA BLA 
BLA BLA BLA BLA BLA BLA BLA BLA BLA BLA BLA BLA BLA BLA BLA BLA BLA BLA BLA BLA 
BLA BLA BLA BLA BLA BLA BLA BLA BLA BLA BLA BLA BLA BLA BLA BLA BLA BLA BLA BLA 
BLA BLA BLA BLA BLA BLA BLA BLA BLA BLA BLA BLA BLA BLA BLA BLA BLA BLA BLA BLA 
BLA BLA BLA BLA BLA BLA BLA BLA BLA BLA BLA BLA BLA BLA BLA BLA BLA BLA BLA BLA 
BLA BLA BLA BLA BLA BLA BLA BLA BLA BLA BLA BLA BLA BLA BLA BLA BLA BLA BLA BLA 
BLA BLA BLA BLA BLA BLA BLA BLA BLA BLA BLA BLA BLA BLA BLA BLA BLA BLA BLA BLA 
BLA BLA BLA BLA BLA BLA BLA BLA BLA BLA BLA BLA BLA BLA BLA BLA BLA BLA BLA BLA 
BLA BLA BLA BLA BLA BLA BLA BLA BLA BLA BLA BLA BLA BLA BLA BLA BLA BLA BLA BLA 
BLA BLA BLA BLA BLA BLA BLA BLA BLA BLA BLA BLA BLA BLA BLA BLA BLA BLA BLA BLA 
BLA BLA BLA BLA BLA BLA BLA BLA BLA BLA BLA BLA BLA BLA BLA BLA BLA BLA BLA BLA 
BLA BLA BLA BLA BLA BLA BLA BLA BLA BLA BLA BLA BLA BLA BLA BLA BLA BLA BLA BLA 
BLA BLA BLA BLA BLA BLA BLA BLA BLA BLA BLA BLA BLA BLA BLA BLA BLA BLA BLA BLA 
BLA BLA BLA BLA BLA BLA BLA BLA BLA BLA BLA BLA BLA BLA BLA BLA BLA BLA BLA BLA 
BLA BLA BLA BLA BLA BLA BLA BLA BLA BLA BLA BLA BLA BLA BLA BLA BLA BLA BLA BLA 
BLA BLA BLA BLA BLA BLA BLA BLA BLA BLA BLA BLA BLA BLA BLA BLA BLA BLA BLA BLA 
BLA BLA BLA BLA BLA BLA BLA BLA BLA BLA BLA BLA BLA BLA BLA BLA BLA BLA BLA BLA 
BLA BLA BLA BLA BLA BLA BLA BLA BLA BLA BLA BLA BLA BLA BLA BLA BLA BLA BLA BLA 
BLA BLA BLA BLA BLA BLA BLA BLA BLA BLA BLA BLA BLA BLA BLA BLA BLA BLA BLA BLA 
BLA BLA BLA BLA BLA BLA BLA BLA BLA BLA BLA BLA BLA BLA BLA BLA BLA BLA BLA BLA 
BLA BLA BLA BLA BLA BLA BLA BLA BLA BLA BLA BLA BLA BLA BLA BLA BLA BLA BLA BLA 
BLA BLA BLA BLA BLA BLA BLA BLA BLA BLA BLA BLA BLA BLA BLA BLA BLA BLA BLA BLA 
BLA BLA BLA BLA BLA BLA BLA BLA BLA BLA BLA BLA BLA BLA BLA BLA BLA BLA BLA BLA 
BLA BLA BLA BLA BLA BLA BLA BLA BLA BLA BLA BLA BLA BLA BLA BLA BLA BLA BLA BLA 
BLA BLA BLA BLA BLA BLA BLA BLA BLA BLA BLA BLA BLA BLA BLA BLA BLA BLA BLA BLA 
BLA BLA BLA BLA BLA BLA BLA BLA BLA BLA BLA BLA BLA BLA BLA BLA BLA BLA BLA BLA 
BLA BLA BLA BLA BLA BLA BLA BLA BLA BLA BLA BLA BLA BLA BLA BLA BLA BLA BLA BLA 
BLA BLA BLA BLA BLA BLA BLA BLA BLA BLA BLA BLA BLA BLA BLA BLA BLA BLA BLA BLA 
BLA BLA BLA BLA BLA BLA BLA BLA BLA BLA BLA BLA BLA BLA BLA BLA BLA BLA BLA BLA 
BLA BLA BLA BLA BLA BLA BLA BLA BLA BLA BLA BLA BLA BLA BLA BLA BLA BLA BLA BLA 
BLA BLA BLA BLA BLA BLA BLA BLA BLA BLA BLA BLA BLA BLA BLA BLA BLA BLA BLA BLA 
BLA BLA BLA BLA BLA BLA BLA BLA BLA BLA BLA BLA BLA BLA BLA BLA BLA BLA BLA BLA 
BLA BLA BLA BLA BLA BLA BLA BLA BLA BLA BLA BLA BLA BLA BLA BLA BLA BLA BLA BLA 
BLA BLA BLA BLA BLA BLA BLA BLA BLA BLA BLA BLA BLA BLA BLA BLA BLA BLA BLA BLA 
BLA BLA BLA BLA BLA BLA BLA BLA BLA BLA BLA BLA BLA BLA BLA BLA BLA BLA BLA BLA 
BLA BLA BLA BLA BLA BLA BLA BLA BLA BLA BLA BLA BLA BLA BLA BLA BLA BLA BLA BLA 
BLA BLA BLA BLA BLA BLA BLA BLA BLA BLA BLA BLA BLA BLA BLA BLA BLA BLA BLA BLA 
BLA BLA BLA BLA BLA BLA BLA BLA BLA BLA BLA BLA BLA BLA BLA BLA BLA BLA BLA BLA 
BLA BLA BLA BLA BLA BLA BLA BLA BLA BLA BLA BLA BLA BLA BLA BLA BLA BLA BLA BLA 
BLA BLA BLA BLA BLA BLA BLA BLA BLA BLA BLA BLA BLA BLA BLA BLA BLA BLA BLA BLA 
BLA BLA BLA BLA BLA BLA BLA BLA BLA BLA BLA BLA BLA BLA BLA BLA BLA BLA BLA BLA 
BLA BLA BLA BLA BLA BLA BLA BLA BLA BLA BLA BLA BLA BLA BLA BLA BLA BLA BLA BLA 
BLA BLA BLA BLA BLA BLA BLA BLA BLA BLA BLA BLA BLA BLA BLA BLA BLA BLA BLA BLA 
BLA BLA BLA BLA BLA BLA BLA BLA BLA BLA BLA BLA BLA BLA BLA BLA BLA BLA BLA BLA 
BLA BLA BLA BLA BLA BLA BLA BLA BLA BLA BLA BLA BLA BLA BLA BLA BLA BLA BLA BLA 
BLA BLA BLA BLA BLA BLA BLA BLA BLA BLA BLA BLA BLA BLA BLA BLA BLA BLA BLA BLA 
BLA BLA BLA BLA BLA BLA BLA BLA BLA BLA BLA BLA BLA BLA BLA BLA BLA BLA BLA BLA 
BLA BLA BLA BLA BLA BLA BLA BLA BLA BLA BLA BLA BLA BLA BLA BLA BLA BLA BLA BLA 
BLA BLA BLA BLA BLA BLA BLA BLA BLA BLA BLA BLA BLA BLA BLA BLA BLA BLA BLA BLA 
BLA BLA BLA BLA BLA BLA BLA BLA BLA BLA BLA BLA BLA BLA BLA BLA BLA BLA BLA BLA 
BLA BLA BLA BLA BLA BLA BLA BLA BLA BLA BLA BLA BLA BLA BLA BLA BLA BLA BLA BLA 
BLA BLA BLA BLA BLA BLA BLA BLA BLA BLA BLA BLA BLA BLA BLA BLA BLA BLA BLA BLA 
BLA BLA BLA BLA BLA BLA BLA BLA BLA BLA BLA BLA BLA BLA BLA BLA BLA BLA BLA BLA 
BLA BLA BLA BLA BLA BLA BLA BLA BLA BLA BLA BLA BLA BLA BLA BLA BLA BLA BLA BLA 
BLA BLA BLA BLA BLA BLA BLA BLA BLA BLA BLA BLA BLA BLA BLA BLA BLA BLA BLA BLA 
BLA BLA BLA BLA BLA BLA BLA BLA BLA BLA BLA BLA BLA BLA BLA BLA BLA BLA BLA BLA 
BLA BLA BLA BLA BLA BLA BLA BLA BLA BLA BLA BLA BLA BLA BLA BLA BLA BLA BLA BLA 
BLA BLA BLA BLA BLA BLA BLA BLA BLA BLA BLA BLA BLA BLA BLA BLA BLA BLA BLA BLA 
BLA BLA BLA BLA BLA BLA BLA BLA BLA BLA BLA BLA BLA BLA BLA BLA BLA BLA BLA BLA 
BLA BLA BLA BLA BLA BLA BLA BLA BLA BLA BLA BLA BLA BLA BLA BLA BLA BLA BLA BLA 
BLA BLA BLA BLA BLA BLA BLA BLA BLA BLA BLA BLA BLA BLA BLA BLA BLA BLA BLA BLA 
BLA BLA BLA BLA BLA BLA BLA BLA BLA BLA BLA BLA BLA BLA BLA BLA BLA BLA BLA BLA 
BLA BLA BLA BLA BLA BLA BLA BLA BLA BLA BLA BLA BLA BLA BLA BLA BLA BLA BLA BLA 
BLA BLA BLA BLA BLA BLA BLA BLA BLA BLA BLA BLA BLA BLA BLA BLA BLA BLA BLA BLA 
BLA BLA BLA BLA BLA BLA BLA BLA BLA BLA BLA BLA BLA BLA BLA BLA BLA BLA BLA BLA 
BLA BLA BLA BLA BLA BLA BLA BLA BLA BLA BLA BLA BLA BLA BLA BLA BLA BLA BLA BLA 
BLA BLA BLA BLA BLA BLA BLA BLA BLA BLA BLA BLA BLA BLA BLA BLA BLA BLA BLA BLA 
BLA BLA BLA BLA BLA BLA BLA BLA BLA BLA BLA BLA BLA BLA BLA BLA BLA BLA BLA BLA 
BLA BLA BLA BLA BLA BLA BLA BLA BLA BLA BLA BLA BLA BLA BLA BLA BLA BLA BLA BLA 
BLA BLA BLA BLA BLA BLA BLA BLA BLA BLA BLA BLA BLA BLA BLA BLA BLA BLA BLA BLA 
BLA BLA BLA BLA BLA BLA BLA BLA BLA BLA BLA BLA BLA BLA BLA BLA BLA BLA BLA BLA 
BLA BLA BLA BLA BLA BLA BLA BLA BLA BLA BLA BLA BLA BLA BLA BLA BLA BLA BLA BLA 
BLA BLA BLA BLA BLA BLA BLA BLA BLA BLA BLA BLA BLA BLA BLA BLA BLA BLA BLA BLA 
BLA BLA BLA BLA BLA BLA BLA BLA BLA BLA BLA BLA BLA BLA BLA BLA BLA BLA BLA BLA 
BLA BLA BLA BLA BLA BLA BLA BLA BLA BLA BLA BLA BLA BLA BLA BLA BLA BLA BLA BLA 
BLA BLA BLA BLA BLA BLA BLA BLA BLA BLA BLA BLA BLA BLA BLA BLA BLA BLA BLA BLA 
BLA BLA BLA BLA BLA BLA BLA BLA BLA BLA BLA BLA BLA BLA BLA BLA BLA BLA BLA BLA 
BLA BLA BLA BLA BLA BLA BLA BLA BLA BLA BLA BLA BLA BLA BLA BLA BLA BLA BLA BLA 
BLA BLA BLA BLA BLA BLA BLA BLA BLA BLA BLA BLA BLA BLA BLA BLA BLA BLA BLA BLA 
BLA BLA BLA BLA BLA BLA BLA BLA BLA BLA BLA BLA BLA BLA BLA BLA BLA BLA BLA BLA 
BLA BLA BLA BLA BLA BLA BLA BLA BLA BLA BLA BLA BLA BLA BLA BLA BLA BLA BLA BLA 
BLA BLA BLA BLA BLA BLA BLA BLA BLA BLA BLA BLA BLA BLA BLA BLA BLA BLA BLA BLA 
BLA BLA BLA BLA BLA BLA BLA BLA BLA BLA BLA BLA BLA BLA BLA BLA BLA BLA BLA BLA 
BLA BLA BLA BLA BLA BLA BLA BLA BLA BLA BLA BLA BLA BLA BLA BLA BLA BLA BLA BLA 
BLA BLA BLA BLA BLA BLA BLA BLA BLA BLA BLA BLA BLA BLA BLA BLA BLA BLA BLA BLA 
BLA BLA BLA BLA BLA BLA BLA BLA BLA BLA BLA BLA BLA BLA BLA BLA BLA BLA BLA BLA 
BLA BLA BLA BLA BLA BLA BLA BLA BLA BLA BLA BLA BLA BLA BLA BLA BLA BLA BLA BLA 
BLA BLA BLA BLA BLA BLA BLA BLA BLA BLA BLA BLA BLA BLA BLA BLA BLA BLA BLA BLA 
BLA BLA BLA BLA BLA BLA BLA BLA BLA BLA BLA BLA BLA BLA BLA BLA BLA BLA BLA BLA 
BLA BLA BLA BLA BLA BLA BLA BLA BLA BLA BLA BLA BLA BLA BLA BLA BLA BLA BLA BLA 
BLA BLA BLA BLA BLA BLA BLA BLA BLA BLA BLA BLA BLA BLA BLA BLA BLA BLA BLA BLA 
BLA BLA BLA BLA BLA BLA BLA BLA BLA BLA BLA BLA BLA BLA BLA BLA BLA BLA BLA BLA 
BLA BLA BLA BLA BLA BLA BLA BLA BLA BLA BLA BLA BLA BLA BLA BLA BLA BLA BLA BLA 
BLA BLA BLA BLA BLA BLA BLA BLA BLA BLA BLA BLA BLA BLA BLA BLA BLA BLA BLA BLA 
BLA BLA BLA BLA BLA BLA BLA BLA BLA BLA BLA BLA BLA BLA BLA BLA BLA BLA BLA BLA 
BLA BLA BLA BLA BLA BLA BLA BLA BLA BLA BLA BLA BLA BLA BLA BLA BLA BLA BLA BLA 
BLA BLA BLA BLA BLA BLA BLA BLA BLA BLA BLA BLA BLA BLA BLA BLA BLA BLA BLA BLA 
BLA BLA BLA BLA BLA BLA BLA BLA BLA BLA BLA BLA BLA BLA BLA BLA BLA BLA BLA BLA 
BLA BLA BLA BLA BLA BLA BLA BLA BLA BLA BLA BLA BLA BLA BLA BLA BLA BLA BLA BLA 
BLA BLA BLA BLA BLA BLA BLA BLA BLA BLA BLA BLA BLA BLA BLA BLA BLA BLA BLA BLA 
BLA BLA BLA BLA BLA BLA BLA BLA BLA BLA BLA BLA BLA BLA BLA BLA BLA BLA BLA BLA 
BLA BLA BLA BLA BLA BLA BLA BLA BLA BLA BLA BLA BLA BLA BLA BLA BLA BLA BLA BLA 
BLA BLA BLA BLA BLA BLA BLA BLA BLA BLA BLA BLA BLA BLA BLA BLA BLA BLA BLA BLA 
BLA BLA BLA BLA BLA BLA BLA BLA BLA BLA BLA BLA BLA BLA BLA BLA BLA BLA BLA BLA 
BLA BLA BLA BLA BLA BLA BLA BLA BLA BLA BLA BLA BLA BLA BLA BLA BLA BLA BLA BLA 
BLA BLA BLA BLA BLA BLA BLA BLA BLA BLA BLA BLA BLA BLA BLA BLA BLA BLA BLA BLA 
BLA BLA BLA BLA BLA BLA BLA BLA BLA BLA BLA BLA BLA BLA BLA BLA BLA BLA BLA BLA 
BLA BLA BLA BLA BLA BLA BLA BLA BLA BLA BLA BLA BLA BLA BLA BLA BLA BLA BLA BLA 
BLA BLA BLA BLA BLA BLA BLA BLA BLA BLA BLA BLA BLA BLA BLA BLA BLA BLA BLA BLA 
BLA BLA BLA BLA BLA BLA BLA BLA BLA BLA BLA BLA BLA BLA BLA BLA BLA BLA BLA BLA 
BLA BLA BLA BLA BLA BLA BLA BLA BLA BLA BLA BLA BLA BLA BLA BLA BLA BLA BLA BLA 
BLA BLA BLA BLA BLA BLA BLA BLA BLA BLA BLA BLA BLA BLA BLA BLA BLA BLA BLA BLA 
BLA BLA BLA BLA BLA BLA BLA BLA BLA BLA BLA BLA BLA BLA BLA BLA BLA BLA BLA BLA 
BLA BLA BLA BLA BLA BLA BLA BLA BLA BLA BLA BLA BLA BLA BLA BLA BLA BLA BLA BLA 
BLA BLA BLA BLA BLA BLA BLA BLA BLA BLA BLA BLA BLA BLA BLA BLA BLA BLA BLA BLA 
BLA BLA BLA BLA BLA BLA BLA BLA BLA BLA BLA BLA BLA BLA BLA BLA BLA BLA BLA BLA 
BLA BLA BLA BLA BLA BLA BLA BLA BLA BLA BLA BLA BLA BLA BLA BLA BLA BLA BLA BLA 
BLA BLA BLA BLA BLA BLA BLA BLA BLA BLA BLA BLA BLA BLA BLA BLA BLA BLA BLA BLA 
BLA BLA BLA BLA BLA BLA BLA BLA BLA BLA BLA BLA BLA BLA BLA BLA BLA BLA BLA BLA 
BLA BLA BLA BLA BLA BLA BLA BLA BLA BLA BLA BLA BLA BLA BLA BLA BLA BLA BLA BLA 
BLA BLA BLA BLA BLA BLA BLA BLA BLA BLA BLA BLA BLA BLA BLA BLA BLA BLA BLA BLA 
BLA BLA BLA BLA BLA BLA BLA BLA BLA BLA BLA BLA BLA BLA BLA BLA BLA BLA BLA BLA 
BLA BLA BLA BLA BLA BLA BLA BLA BLA BLA BLA BLA BLA BLA BLA BLA BLA BLA BLA BLA 
BLA BLA BLA BLA BLA BLA BLA BLA BLA BLA BLA BLA BLA BLA BLA BLA BLA BLA BLA BLA 
BLA BLA BLA BLA BLA BLA BLA BLA BLA BLA BLA BLA BLA BLA BLA BLA BLA BLA BLA BLA 
BLA BLA BLA BLA BLA BLA BLA BLA BLA BLA BLA BLA BLA BLA BLA BLA BLA BLA BLA BLA 
BLA BLA BLA BLA BLA BLA BLA BLA BLA BLA BLA BLA BLA BLA BLA BLA BLA BLA BLA BLA 
BLA BLA BLA BLA BLA BLA BLA BLA BLA BLA BLA BLA BLA BLA BLA BLA BLA BLA BLA BLA 
BLA BLA BLA BLA BLA BLA BLA BLA BLA BLA BLA BLA BLA BLA BLA BLA BLA BLA BLA BLA 
BLA BLA BLA BLA BLA BLA BLA BLA BLA BLA BLA BLA BLA BLA BLA BLA BLA BLA BLA BLA 
BLA BLA BLA BLA BLA BLA BLA BLA BLA BLA BLA BLA BLA BLA BLA BLA BLA BLA BLA BLA 
BLA BLA BLA BLA BLA BLA BLA BLA BLA BLA BLA BLA BLA BLA BLA BLA BLA BLA BLA BLA 
BLA BLA BLA BLA BLA BLA BLA BLA BLA BLA BLA BLA BLA BLA BLA BLA BLA BLA BLA BLA 
BLA BLA BLA BLA BLA BLA BLA BLA BLA BLA BLA BLA BLA BLA BLA BLA BLA BLA BLA BLA 
BLA BLA BLA BLA BLA BLA BLA BLA BLA BLA BLA BLA BLA BLA BLA BLA BLA BLA BLA BLA 
BLA BLA BLA BLA BLA BLA BLA BLA BLA BLA BLA BLA BLA BLA BLA BLA BLA BLA BLA BLA 
BLA BLA BLA BLA BLA BLA BLA BLA BLA BLA BLA BLA BLA BLA BLA BLA BLA BLA BLA BLA 
BLA BLA BLA BLA BLA BLA BLA BLA BLA BLA BLA BLA BLA BLA BLA BLA BLA BLA BLA BLA 
BLA BLA BLA BLA BLA BLA BLA BLA BLA BLA BLA BLA BLA BLA BLA BLA BLA BLA BLA BLA 
BLA BLA BLA BLA BLA BLA BLA BLA BLA BLA BLA BLA BLA BLA BLA BLA BLA BLA BLA BLA 
BLA BLA BLA BLA BLA BLA BLA BLA BLA BLA BLA BLA BLA BLA BLA BLA BLA BLA BLA BLA 
BLA BLA BLA BLA BLA BLA BLA BLA BLA BLA BLA BLA BLA BLA BLA BLA BLA BLA BLA BLA 
BLA BLA BLA BLA BLA BLA BLA BLA BLA BLA BLA BLA BLA BLA BLA BLA BLA BLA BLA BLA 
BLA BLA BLA BLA BLA BLA BLA BLA BLA BLA BLA BLA BLA BLA BLA BLA BLA BLA BLA BLA 
BLA BLA BLA BLA BLA BLA BLA BLA BLA BLA BLA BLA BLA BLA BLA BLA BLA BLA BLA BLA 
BLA BLA BLA BLA BLA BLA BLA BLA BLA BLA BLA BLA BLA BLA BLA BLA BLA BLA BLA BLA 
BLA BLA BLA BLA BLA BLA BLA BLA BLA BLA BLA BLA BLA BLA BLA BLA BLA BLA BLA BLA 
BLA BLA BLA BLA BLA BLA BLA BLA BLA BLA BLA BLA BLA BLA BLA BLA BLA BLA BLA BLA 
BLA BLA BLA BLA BLA BLA BLA BLA BLA BLA BLA BLA BLA BLA BLA BLA BLA BLA BLA BLA 
BLA BLA BLA BLA BLA BLA BLA BLA BLA BLA BLA BLA BLA BLA BLA BLA BLA BLA BLA BLA 
BLA BLA BLA BLA BLA BLA BLA BLA BLA BLA BLA BLA BLA BLA BLA BLA BLA BLA BLA BLA 
BLA BLA BLA BLA BLA BLA BLA BLA BLA BLA BLA BLA BLA BLA BLA BLA BLA BLA BLA BLA 
BLA BLA BLA BLA BLA BLA BLA BLA BLA BLA BLA BLA BLA BLA BLA BLA BLA BLA BLA BLA 
BLA BLA BLA BLA BLA BLA BLA BLA BLA BLA BLA BLA BLA BLA BLA BLA BLA BLA BLA BLA 
BLA BLA BLA BLA BLA BLA BLA BLA BLA BLA BLA BLA BLA BLA BLA BLA BLA BLA BLA BLA 
BLA BLA BLA BLA BLA BLA BLA BLA BLA BLA BLA BLA BLA BLA BLA BLA BLA BLA BLA BLA 
BLA BLA BLA BLA BLA BLA BLA BLA BLA BLA BLA BLA BLA BLA BLA BLA BLA BLA BLA BLA 
BLA BLA BLA BLA BLA BLA BLA BLA BLA BLA BLA BLA BLA BLA BLA BLA BLA BLA BLA BLA 
BLA BLA BLA BLA BLA BLA BLA BLA BLA BLA BLA BLA BLA BLA BLA BLA BLA BLA BLA BLA 
BLA BLA BLA BLA BLA BLA BLA BLA BLA BLA BLA BLA BLA BLA BLA BLA BLA BLA BLA BLA 
BLA BLA BLA BLA BLA BLA BLA BLA BLA BLA BLA BLA BLA BLA BLA BLA BLA BLA BLA BLA 
BLA BLA BLA BLA BLA BLA BLA BLA BLA BLA BLA BLA BLA BLA BLA BLA BLA BLA BLA BLA 
BLA BLA BLA BLA BLA BLA BLA BLA BLA BLA BLA BLA BLA BLA BLA BLA BLA BLA BLA BLA 
BLA BLA BLA BLA BLA BLA BLA BLA BLA BLA BLA BLA BLA BLA BLA BLA BLA BLA BLA BLA 
BLA BLA BLA BLA BLA BLA BLA BLA BLA BLA BLA BLA BLA BLA BLA BLA BLA BLA BLA BLA 
BLA BLA BLA BLA BLA BLA BLA BLA BLA BLA BLA BLA BLA BLA BLA BLA BLA BLA BLA BLA 
BLA BLA BLA BLA BLA BLA BLA BLA BLA BLA BLA BLA BLA BLA BLA BLA BLA BLA BLA BLA 
BLA BLA BLA BLA BLA BLA BLA BLA BLA BLA BLA BLA BLA BLA BLA BLA BLA BLA BLA BLA 
BLA BLA BLA BLA BLA BLA BLA BLA BLA BLA BLA BLA BLA BLA BLA BLA BLA BLA BLA BLA 
BLA BLA BLA BLA BLA BLA BLA BLA BLA BLA BLA BLA BLA BLA BLA BLA BLA BLA BLA BLA 
BLA BLA BLA BLA BLA BLA BLA BLA BLA BLA BLA BLA BLA BLA BLA BLA BLA BLA BLA BLA 
BLA BLA BLA BLA BLA BLA BLA BLA BLA BLA BLA BLA BLA BLA BLA BLA BLA BLA BLA BLA 
BLA BLA BLA BLA BLA BLA BLA BLA BLA BLA BLA BLA BLA BLA BLA BLA BLA BLA BLA BLA 
BLA BLA BLA BLA BLA BLA BLA BLA BLA BLA BLA BLA BLA BLA BLA BLA BLA BLA BLA BLA 
BLA BLA BLA BLA BLA BLA BLA BLA BLA BLA BLA BLA BLA BLA BLA BLA BLA BLA BLA BLA 
BLA BLA BLA BLA BLA BLA BLA BLA BLA BLA BLA BLA BLA BLA BLA BLA BLA BLA BLA BLA 
BLA BLA BLA BLA BLA BLA BLA BLA BLA BLA BLA BLA BLA BLA BLA BLA BLA BLA BLA BLA 
BLA BLA BLA BLA BLA BLA BLA BLA BLA BLA BLA BLA BLA BLA BLA BLA BLA BLA BLA BLA 
BLA BLA BLA BLA BLA BLA BLA BLA BLA BLA BLA BLA BLA BLA BLA BLA BLA BLA BLA BLA 
BLA BLA BLA BLA BLA BLA BLA BLA BLA BLA BLA BLA BLA BLA BLA BLA BLA BLA BLA BLA 
BLA BLA BLA BLA BLA BLA BLA BLA BLA BLA BLA BLA BLA BLA BLA BLA BLA BLA BLA BLA 
BLA BLA BLA BLA BLA BLA BLA BLA BLA BLA BLA BLA BLA BLA BLA BLA BLA BLA BLA BLA 
BLA BLA BLA BLA BLA BLA BLA BLA BLA BLA BLA BLA BLA BLA BLA BLA BLA BLA BLA BLA 
BLA BLA BLA BLA BLA BLA BLA BLA BLA BLA BLA BLA BLA BLA BLA BLA BLA BLA BLA BLA 
BLA BLA BLA BLA BLA BLA BLA BLA BLA BLA BLA BLA BLA BLA BLA BLA BLA BLA BLA BLA 
BLA BLA BLA BLA BLA BLA BLA BLA BLA BLA BLA BLA BLA BLA BLA BLA BLA BLA BLA BLA 
BLA BLA BLA BLA BLA BLA BLA BLA BLA BLA BLA BLA BLA BLA BLA BLA BLA BLA BLA BLA 
BLA BLA BLA BLA BLA BLA BLA BLA BLA BLA BLA BLA BLA BLA BLA BLA BLA BLA BLA BLA 
BLA BLA BLA BLA BLA BLA BLA BLA BLA BLA BLA BLA BLA BLA BLA BLA BLA BLA BLA BLA 
BLA BLA BLA BLA BLA BLA BLA BLA BLA BLA BLA BLA BLA BLA BLA BLA BLA BLA BLA BLA 
BLA BLA BLA BLA BLA BLA BLA BLA BLA BLA BLA BLA BLA BLA BLA BLA BLA BLA BLA BLA 
BLA BLA BLA BLA BLA BLA BLA BLA BLA BLA BLA BLA BLA BLA BLA BLA BLA BLA BLA BLA 
BLA BLA BLA BLA BLA BLA BLA BLA BLA BLA BLA BLA BLA BLA BLA BLA BLA BLA BLA BLA 
BLA BLA BLA BLA BLA BLA BLA BLA BLA BLA BLA BLA BLA BLA BLA BLA BLA BLA BLA BLA 
BLA BLA BLA BLA BLA BLA BLA BLA BLA BLA BLA BLA BLA BLA BLA BLA BLA BLA BLA BLA 
BLA BLA BLA BLA BLA BLA BLA BLA BLA BLA BLA BLA BLA BLA BLA BLA BLA BLA BLA BLA 
BLA BLA BLA BLA BLA BLA BLA BLA BLA BLA BLA BLA BLA BLA BLA BLA BLA BLA BLA BLA 
BLA BLA BLA BLA BLA BLA BLA BLA BLA BLA BLA BLA BLA BLA BLA BLA BLA BLA BLA BLA 
BLA BLA BLA BLA BLA BLA BLA BLA BLA BLA BLA BLA BLA BLA BLA BLA BLA BLA BLA BLA 
BLA BLA BLA BLA BLA BLA BLA BLA BLA BLA BLA BLA BLA BLA BLA BLA BLA BLA BLA BLA 
BLA BLA BLA BLA BLA BLA BLA BLA BLA BLA BLA BLA BLA BLA BLA BLA BLA BLA BLA BLA 
BLA BLA BLA BLA BLA BLA BLA BLA BLA BLA BLA BLA BLA BLA BLA BLA BLA BLA BLA BLA 
BLA BLA BLA BLA BLA BLA BLA BLA BLA BLA BLA BLA BLA BLA BLA BLA BLA BLA BLA BLA 
BLA BLA BLA BLA BLA BLA BLA BLA BLA BLA BLA BLA BLA BLA BLA BLA BLA BLA BLA BLA 
BLA BLA BLA BLA BLA BLA BLA BLA BLA BLA BLA BLA BLA BLA BLA BLA BLA BLA BLA BLA 
BLA BLA BLA BLA BLA BLA BLA BLA BLA BLA BLA BLA BLA BLA BLA BLA BLA BLA BLA BLA 
BLA BLA BLA BLA BLA BLA BLA BLA BLA BLA BLA BLA BLA BLA BLA BLA BLA BLA BLA BLA 
BLA BLA BLA BLA BLA BLA BLA BLA BLA BLA BLA BLA BLA BLA BLA BLA BLA BLA BLA BLA 
BLA BLA BLA BLA BLA BLA BLA BLA BLA BLA BLA BLA BLA BLA BLA BLA BLA BLA BLA BLA 
BLA BLA BLA BLA BLA BLA BLA BLA BLA BLA BLA BLA BLA BLA BLA BLA BLA BLA BLA BLA 
BLA BLA BLA BLA BLA BLA BLA BLA BLA BLA BLA BLA BLA BLA BLA BLA BLA BLA BLA BLA 
BLA BLA BLA BLA BLA BLA BLA BLA BLA BLA BLA BLA BLA BLA BLA BLA BLA BLA BLA BLA 
BLA BLA BLA BLA BLA BLA BLA BLA BLA BLA BLA BLA BLA BLA BLA BLA BLA BLA BLA BLA 
BLA BLA BLA BLA BLA BLA BLA BLA BLA BLA BLA BLA BLA BLA BLA BLA BLA BLA BLA BLA 
BLA BLA BLA BLA BLA BLA BLA BLA BLA BLA BLA BLA BLA BLA BLA BLA BLA BLA BLA BLA 
BLA BLA BLA BLA BLA BLA BLA BLA BLA BLA BLA BLA BLA BLA BLA BLA BLA BLA BLA BLA 
BLA BLA BLA BLA BLA BLA BLA BLA BLA BLA BLA BLA BLA BLA BLA BLA BLA BLA BLA BLA 
BLA BLA BLA BLA BLA BLA BLA BLA BLA BLA BLA BLA BLA BLA BLA BLA BLA BLA BLA BLA 
BLA BLA BLA BLA BLA BLA BLA BLA BLA BLA BLA BLA BLA BLA BLA BLA BLA BLA BLA BLA 
BLA BLA BLA BLA BLA BLA BLA BLA BLA BLA BLA BLA BLA BLA BLA BLA BLA BLA BLA BLA 
BLA BLA BLA BLA BLA BLA BLA BLA BLA BLA BLA BLA BLA BLA BLA BLA BLA BLA BLA BLA 
BLA BLA BLA BLA BLA BLA BLA BLA BLA BLA BLA BLA BLA BLA BLA BLA BLA BLA BLA BLA 
BLA BLA BLA BLA BLA BLA BLA BLA BLA BLA BLA BLA BLA BLA BLA BLA BLA BLA BLA BLA 
BLA BLA BLA BLA BLA BLA BLA BLA BLA BLA BLA BLA BLA BLA BLA BLA BLA BLA BLA BLA 
BLA BLA BLA BLA BLA BLA BLA BLA BLA BLA BLA BLA BLA BLA BLA BLA BLA BLA BLA BLA 
BLA BLA BLA BLA BLA BLA BLA BLA BLA BLA BLA BLA BLA BLA BLA BLA BLA BLA BLA BLA 
BLA BLA BLA BLA BLA BLA BLA BLA BLA BLA BLA BLA BLA BLA BLA BLA BLA BLA BLA BLA 
BLA BLA BLA BLA BLA BLA BLA BLA BLA BLA BLA BLA BLA BLA BLA BLA BLA BLA BLA BLA 
BLA BLA BLA BLA BLA BLA BLA BLA BLA BLA BLA BLA BLA BLA BLA BLA BLA BLA BLA BLA 
BLA BLA BLA BLA BLA BLA BLA BLA BLA BLA BLA BLA BLA BLA BLA BLA BLA BLA BLA BLA 
BLA BLA BLA BLA BLA BLA BLA BLA BLA BLA BLA BLA BLA BLA BLA BLA BLA BLA BLA BLA 
BLA BLA BLA BLA BLA BLA BLA BLA BLA BLA BLA BLA BLA BLA BLA BLA BLA BLA BLA BLA 
BLA BLA BLA BLA BLA BLA BLA BLA BLA BLA BLA BLA BLA BLA BLA BLA BLA BLA BLA BLA 
BLA BLA BLA BLA BLA BLA BLA BLA BLA BLA BLA BLA BLA BLA BLA BLA BLA BLA BLA BLA 
BLA BLA BLA BLA BLA BLA BLA BLA BLA BLA BLA BLA BLA BLA BLA BLA BLA BLA BLA BLA 
BLA BLA BLA BLA BLA BLA BLA BLA BLA BLA BLA BLA BLA BLA BLA BLA BLA BLA BLA BLA 
BLA BLA BLA BLA BLA BLA BLA BLA BLA BLA BLA BLA BLA BLA BLA BLA BLA BLA BLA BLA 
BLA BLA BLA BLA BLA BLA BLA BLA BLA BLA BLA BLA BLA BLA BLA BLA BLA BLA BLA BLA 
BLA BLA BLA BLA BLA BLA BLA BLA BLA BLA BLA BLA BLA BLA BLA BLA BLA BLA BLA BLA 
BLA BLA BLA BLA BLA BLA BLA BLA BLA BLA BLA BLA BLA BLA BLA BLA BLA BLA BLA BLA 
BLA BLA BLA BLA BLA BLA BLA BLA BLA BLA BLA BLA BLA BLA BLA BLA BLA BLA BLA BLA 
BLA BLA BLA BLA BLA BLA BLA BLA BLA BLA BLA BLA BLA BLA BLA BLA BLA BLA BLA BLA 
BLA BLA BLA BLA BLA BLA BLA BLA BLA BLA BLA BLA BLA BLA BLA BLA BLA BLA BLA BLA 
BLA BLA BLA BLA BLA BLA BLA BLA BLA BLA BLA BLA BLA BLA BLA BLA BLA BLA BLA BLA 
BLA BLA BLA BLA BLA BLA BLA BLA BLA BLA BLA BLA BLA BLA BLA BLA BLA BLA BLA BLA 
BLA BLA BLA BLA BLA BLA BLA BLA BLA BLA BLA BLA BLA BLA BLA BLA BLA BLA BLA BLA 
BLA BLA BLA BLA BLA BLA BLA BLA BLA BLA BLA BLA BLA BLA BLA BLA BLA BLA BLA BLA 
BLA BLA BLA BLA BLA BLA BLA BLA BLA BLA BLA BLA BLA BLA BLA BLA BLA BLA BLA BLA 
BLA BLA BLA BLA BLA BLA BLA BLA BLA BLA BLA BLA BLA BLA BLA BLA BLA BLA BLA BLA 
BLA BLA BLA BLA BLA BLA BLA BLA BLA BLA BLA BLA BLA BLA BLA BLA BLA BLA BLA BLA 
BLA BLA BLA BLA BLA BLA BLA BLA BLA BLA BLA BLA BLA BLA BLA BLA BLA BLA BLA BLA 
BLA BLA BLA BLA BLA BLA BLA BLA BLA BLA BLA BLA BLA BLA BLA BLA BLA BLA BLA BLA 
BLA BLA BLA BLA BLA BLA BLA BLA BLA BLA BLA BLA BLA BLA BLA BLA BLA BLA BLA BLA 
BLA BLA BLA BLA BLA BLA BLA BLA BLA BLA BLA BLA BLA BLA BLA BLA BLA BLA BLA BLA 
BLA BLA BLA BLA BLA BLA BLA BLA BLA BLA BLA BLA BLA BLA BLA BLA BLA BLA BLA BLA 
BLA BLA BLA BLA BLA BLA BLA BLA BLA BLA BLA BLA BLA BLA BLA BLA BLA BLA BLA BLA 
BLA BLA BLA BLA BLA BLA BLA BLA BLA BLA BLA BLA BLA BLA BLA BLA BLA BLA BLA BLA 
BLA BLA BLA BLA BLA BLA BLA BLA BLA BLA BLA BLA BLA BLA BLA BLA BLA BLA BLA BLA 
BLA BLA BLA BLA BLA BLA BLA BLA BLA BLA BLA BLA BLA BLA BLA BLA BLA BLA BLA BLA 
BLA BLA BLA BLA BLA BLA BLA BLA BLA BLA BLA BLA BLA BLA BLA BLA BLA BLA BLA BLA 
BLA BLA BLA BLA BLA BLA BLA BLA BLA BLA BLA BLA BLA BLA BLA BLA BLA BLA BLA BLA 
BLA BLA BLA BLA BLA BLA BLA BLA BLA BLA BLA BLA BLA BLA BLA BLA BLA BLA BLA BLA 
BLA BLA BLA BLA BLA BLA BLA BLA BLA BLA BLA BLA BLA BLA BLA BLA BLA BLA BLA BLA 
BLA BLA BLA BLA BLA BLA BLA BLA BLA BLA BLA BLA BLA BLA BLA BLA BLA BLA BLA BLA 
BLA BLA BLA BLA BLA BLA BLA BLA BLA BLA BLA BLA BLA BLA BLA BLA BLA BLA BLA BLA 
BLA BLA BLA BLA BLA BLA BLA BLA BLA BLA BLA BLA BLA BLA BLA BLA BLA BLA BLA BLA 
BLA BLA BLA BLA BLA BLA BLA BLA BLA BLA BLA BLA BLA BLA BLA BLA BLA BLA BLA BLA 
BLA BLA BLA BLA BLA BLA BLA BLA BLA BLA BLA BLA BLA BLA BLA BLA BLA BLA BLA BLA 
BLA BLA BLA BLA BLA BLA BLA BLA BLA BLA BLA BLA BLA BLA BLA BLA BLA BLA BLA BLA 
BLA BLA BLA BLA BLA BLA BLA BLA BLA BLA BLA BLA BLA BLA BLA BLA BLA BLA BLA BLA 
BLA BLA BLA BLA BLA BLA BLA BLA BLA BLA BLA BLA BLA BLA BLA BLA BLA BLA BLA BLA 
BLA BLA BLA BLA BLA BLA BLA BLA BLA BLA BLA BLA BLA BLA BLA BLA BLA BLA BLA BLA 
BLA BLA BLA BLA BLA BLA BLA BLA BLA BLA BLA BLA BLA BLA BLA BLA BLA BLA BLA BLA 
BLA BLA BLA BLA BLA BLA BLA BLA BLA BLA BLA BLA BLA BLA BLA BLA BLA BLA BLA BLA 
BLA BLA BLA BLA BLA BLA BLA BLA BLA BLA BLA BLA BLA BLA BLA BLA BLA BLA BLA BLA 
BLA BLA BLA BLA BLA BLA BLA BLA BLA BLA BLA BLA BLA BLA BLA BLA BLA BLA BLA BLA 
BLA BLA BLA BLA BLA BLA BLA BLA BLA BLA BLA BLA BLA BLA BLA BLA BLA BLA BLA BLA 
BLA BLA BLA BLA BLA BLA BLA BLA BLA BLA BLA BLA BLA BLA BLA BLA BLA BLA BLA BLA 
BLA BLA BLA BLA BLA BLA BLA BLA BLA BLA BLA BLA BLA BLA BLA BLA BLA BLA BLA BLA 
BLA BLA BLA BLA BLA BLA BLA BLA BLA BLA BLA BLA BLA BLA BLA BLA BLA BLA BLA BLA 
BLA BLA BLA BLA BLA BLA BLA BLA BLA BLA BLA BLA BLA BLA BLA BLA BLA BLA BLA BLA 
BLA BLA BLA BLA BLA BLA BLA BLA BLA BLA BLA BLA BLA BLA BLA BLA BLA BLA BLA BLA 
BLA BLA BLA BLA BLA BLA BLA BLA BLA BLA BLA BLA BLA BLA BLA BLA BLA BLA BLA BLA 
BLA BLA BLA BLA BLA BLA BLA BLA BLA BLA BLA BLA BLA BLA BLA BLA BLA BLA BLA BLA 
BLA BLA BLA BLA BLA BLA BLA BLA BLA BLA BLA BLA BLA BLA BLA BLA BLA BLA BLA BLA 
BLA BLA BLA BLA BLA BLA BLA BLA BLA BLA BLA BLA BLA BLA BLA BLA BLA BLA BLA BLA 
BLA BLA BLA BLA BLA BLA BLA BLA BLA BLA BLA BLA BLA BLA BLA BLA BLA BLA BLA BLA 
BLA BLA BLA BLA BLA BLA BLA BLA BLA BLA BLA BLA BLA BLA BLA BLA BLA BLA BLA BLA 
BLA BLA BLA BLA BLA BLA BLA BLA BLA BLA BLA BLA BLA BLA BLA BLA BLA BLA BLA BLA 
BLA BLA BLA BLA BLA BLA BLA BLA BLA BLA BLA BLA BLA BLA BLA BLA BLA BLA BLA BLA 
BLA BLA BLA BLA BLA BLA BLA BLA BLA BLA BLA BLA BLA BLA BLA BLA BLA BLA BLA BLA 
BLA BLA BLA BLA BLA BLA BLA BLA BLA BLA BLA BLA BLA BLA BLA BLA BLA BLA BLA BLA 
BLA BLA BLA BLA BLA BLA BLA BLA BLA BLA BLA BLA BLA BLA BLA BLA BLA BLA BLA BLA 
BLA BLA BLA BLA BLA BLA BLA BLA BLA BLA BLA BLA BLA BLA BLA BLA BLA BLA BLA BLA 
BLA BLA BLA BLA BLA BLA BLA BLA BLA BLA BLA BLA BLA BLA BLA BLA BLA BLA BLA BLA 
BLA BLA BLA BLA BLA BLA BLA BLA BLA BLA BLA BLA BLA BLA BLA BLA BLA BLA BLA BLA 
BLA BLA BLA BLA BLA BLA BLA BLA BLA BLA BLA BLA BLA BLA BLA BLA BLA BLA BLA BLA 
BLA BLA BLA BLA BLA BLA BLA BLA BLA BLA BLA BLA BLA BLA BLA BLA BLA BLA BLA BLA 
BLA BLA BLA BLA BLA BLA BLA BLA BLA BLA BLA BLA BLA BLA BLA BLA BLA BLA BLA BLA 
BLA BLA BLA BLA BLA BLA BLA BLA BLA BLA BLA BLA BLA BLA BLA BLA BLA BLA BLA BLA 
BLA BLA BLA BLA BLA BLA BLA BLA BLA BLA BLA BLA BLA BLA BLA BLA BLA BLA BLA BLA 
BLA BLA BLA BLA BLA BLA BLA BLA BLA BLA BLA BLA BLA BLA BLA BLA BLA BLA BLA BLA 
BLA BLA BLA BLA BLA BLA BLA BLA BLA BLA BLA BLA BLA BLA BLA BLA BLA BLA BLA BLA 
BLA BLA BLA BLA BLA BLA BLA BLA BLA BLA BLA BLA BLA BLA BLA BLA BLA BLA BLA BLA 
BLA BLA BLA BLA BLA BLA BLA BLA BLA BLA BLA BLA BLA BLA BLA BLA BLA BLA BLA BLA 
BLA BLA BLA BLA BLA BLA BLA BLA BLA BLA BLA BLA BLA BLA BLA BLA BLA BLA BLA BLA 
BLA BLA BLA BLA BLA BLA BLA BLA BLA BLA BLA BLA BLA BLA BLA BLA BLA BLA BLA BLA 
BLA BLA BLA BLA BLA BLA BLA BLA BLA BLA BLA BLA BLA BLA BLA BLA BLA BLA BLA BLA 
BLA BLA BLA BLA BLA BLA BLA BLA BLA BLA BLA BLA BLA BLA BLA BLA BLA BLA BLA BLA 
BLA BLA BLA BLA BLA BLA BLA BLA BLA BLA BLA BLA BLA BLA BLA BLA BLA BLA BLA BLA 
BLA BLA BLA BLA BLA BLA BLA BLA BLA BLA BLA BLA BLA BLA BLA BLA BLA BLA BLA BLA 
BLA BLA BLA BLA BLA BLA BLA BLA BLA BLA BLA BLA BLA BLA BLA BLA BLA BLA BLA BLA 
BLA BLA BLA BLA BLA BLA BLA BLA BLA BLA BLA BLA BLA BLA BLA BLA BLA BLA BLA BLA 
BLA BLA BLA BLA BLA BLA BLA BLA BLA BLA BLA BLA BLA BLA BLA BLA BLA BLA BLA BLA 
BLA BLA BLA BLA BLA BLA BLA BLA BLA BLA BLA BLA BLA BLA BLA BLA BLA BLA BLA BLA 
BLA BLA BLA BLA BLA BLA BLA BLA BLA BLA BLA BLA BLA BLA BLA BLA BLA BLA BLA BLA 
BLA BLA BLA BLA BLA BLA BLA BLA BLA BLA BLA BLA BLA BLA BLA BLA BLA BLA BLA BLA 
BLA BLA BLA BLA BLA BLA BLA BLA BLA BLA BLA BLA BLA BLA BLA BLA BLA BLA BLA BLA 
BLA BLA BLA BLA BLA BLA BLA BLA BLA BLA BLA BLA BLA BLA BLA BLA BLA BLA BLA BLA 
BLA BLA BLA BLA BLA BLA BLA BLA BLA BLA BLA BLA BLA BLA BLA BLA BLA BLA BLA BLA 
BLA BLA BLA BLA BLA BLA BLA BLA BLA BLA BLA BLA BLA BLA BLA BLA BLA BLA BLA BLA 
BLA BLA BLA BLA BLA BLA BLA BLA BLA BLA BLA BLA BLA BLA BLA BLA BLA BLA BLA BLA 
BLA BLA BLA BLA BLA BLA BLA BLA BLA BLA BLA BLA BLA BLA BLA BLA BLA BLA BLA BLA 
BLA BLA BLA BLA BLA BLA BLA BLA BLA BLA BLA BLA BLA BLA BLA BLA BLA BLA BLA BLA 
BLA BLA BLA BLA BLA BLA BLA BLA BLA BLA BLA BLA BLA BLA BLA BLA BLA BLA BLA BLA 
BLA BLA BLA BLA BLA BLA BLA BLA BLA BLA BLA BLA BLA BLA BLA BLA BLA BLA BLA BLA 
BLA BLA BLA BLA BLA BLA BLA BLA BLA BLA BLA BLA BLA BLA BLA BLA BLA BLA BLA BLA 
BLA BLA BLA BLA BLA BLA BLA BLA BLA BLA BLA BLA BLA BLA BLA BLA BLA BLA BLA BLA 
BLA BLA BLA BLA BLA BLA BLA BLA BLA BLA BLA BLA BLA BLA BLA BLA BLA BLA BLA BLA 
BLA BLA BLA BLA BLA BLA BLA BLA BLA BLA BLA BLA BLA BLA BLA BLA BLA BLA BLA BLA 
BLA BLA BLA BLA BLA BLA BLA BLA BLA BLA BLA BLA BLA BLA BLA BLA BLA BLA BLA BLA 
BLA BLA BLA BLA BLA BLA BLA BLA BLA BLA BLA BLA BLA BLA BLA BLA BLA BLA BLA BLA 
BLA BLA BLA BLA BLA BLA BLA BLA BLA BLA BLA BLA BLA BLA BLA BLA BLA BLA BLA BLA 
BLA BLA BLA BLA BLA BLA BLA BLA BLA BLA BLA BLA BLA BLA BLA BLA BLA BLA BLA BLA 
BLA BLA BLA BLA BLA BLA BLA BLA BLA BLA BLA BLA BLA BLA BLA BLA BLA BLA BLA BLA 
BLA BLA BLA BLA BLA BLA BLA BLA BLA BLA BLA BLA BLA BLA BLA BLA BLA BLA BLA BLA 
BLA BLA BLA BLA BLA BLA BLA BLA BLA BLA BLA BLA BLA BLA BLA BLA BLA BLA BLA BLA 
BLA BLA BLA BLA BLA BLA BLA BLA BLA BLA BLA BLA BLA BLA BLA BLA BLA BLA BLA BLA 
BLA BLA BLA BLA BLA BLA BLA BLA BLA BLA BLA BLA BLA BLA BLA BLA BLA BLA BLA BLA 
BLA BLA BLA BLA BLA BLA BLA BLA BLA BLA BLA BLA BLA BLA BLA BLA BLA BLA BLA BLA 
BLA BLA BLA BLA BLA BLA BLA BLA BLA BLA BLA BLA BLA BLA BLA BLA BLA BLA BLA BLA 
BLA BLA BLA BLA BLA BLA BLA BLA BLA BLA BLA BLA BLA BLA BLA BLA BLA BLA BLA BLA 
BLA BLA BLA BLA BLA BLA BLA BLA BLA BLA BLA BLA BLA BLA BLA BLA BLA BLA BLA BLA 
BLA BLA BLA BLA BLA BLA BLA BLA BLA BLA BLA BLA BLA BLA BLA BLA BLA BLA BLA BLA 
BLA BLA BLA BLA BLA BLA BLA BLA BLA BLA BLA BLA BLA BLA BLA BLA BLA BLA BLA BLA 
BLA BLA BLA BLA BLA BLA BLA BLA BLA BLA BLA BLA BLA BLA BLA BLA BLA BLA BLA BLA 
BLA BLA BLA BLA BLA BLA BLA BLA BLA BLA BLA BLA BLA BLA BLA BLA BLA BLA BLA BLA 
BLA BLA BLA BLA BLA BLA BLA BLA BLA BLA BLA BLA BLA BLA BLA BLA BLA BLA BLA BLA 
BLA BLA BLA BLA BLA BLA BLA BLA BLA BLA BLA BLA BLA BLA BLA BLA BLA BLA BLA BLA 
BLA BLA BLA BLA BLA BLA BLA BLA BLA BLA BLA BLA BLA BLA BLA BLA BLA BLA BLA BLA 
BLA BLA BLA BLA BLA BLA BLA BLA BLA BLA BLA BLA BLA BLA BLA BLA BLA BLA BLA BLA 
BLA BLA BLA BLA BLA BLA BLA BLA BLA BLA BLA BLA BLA BLA BLA BLA BLA BLA BLA BLA 
BLA BLA BLA BLA BLA BLA BLA BLA BLA BLA BLA BLA BLA BLA BLA BLA BLA BLA BLA BLA 
BLA BLA BLA BLA BLA BLA BLA BLA BLA BLA BLA BLA BLA BLA BLA BLA BLA BLA BLA BLA 
BLA BLA BLA BLA BLA BLA BLA BLA BLA BLA BLA BLA BLA BLA BLA BLA BLA BLA BLA BLA 
BLA BLA BLA BLA BLA BLA BLA BLA BLA BLA BLA BLA BLA BLA BLA BLA BLA BLA BLA BLA 
BLA BLA BLA BLA BLA BLA BLA BLA BLA BLA BLA BLA BLA BLA BLA BLA BLA BLA BLA BLA 
BLA BLA BLA BLA BLA BLA BLA BLA BLA BLA BLA BLA BLA BLA BLA BLA BLA BLA BLA BLA 
BLA BLA BLA BLA BLA BLA BLA BLA BLA BLA BLA BLA BLA BLA BLA BLA BLA BLA BLA BLA 
BLA BLA BLA BLA BLA BLA BLA BLA BLA BLA BLA BLA BLA BLA BLA BLA BLA BLA BLA BLA 
BLA BLA BLA BLA BLA BLA BLA BLA BLA BLA BLA BLA BLA BLA BLA BLA BLA BLA BLA BLA 
BLA BLA BLA BLA BLA BLA BLA BLA BLA BLA BLA BLA BLA BLA BLA BLA BLA BLA BLA BLA 
BLA BLA BLA BLA BLA BLA BLA BLA BLA BLA BLA BLA BLA BLA BLA BLA BLA BLA BLA BLA 
BLA BLA BLA BLA BLA BLA BLA BLA BLA BLA BLA BLA BLA BLA BLA BLA BLA BLA BLA BLA 
BLA BLA BLA BLA BLA BLA BLA BLA BLA BLA BLA BLA BLA BLA BLA BLA BLA BLA BLA BLA 
BLA BLA BLA BLA BLA BLA BLA BLA BLA BLA BLA BLA BLA BLA BLA BLA BLA BLA BLA BLA 
BLA BLA BLA BLA BLA BLA BLA BLA BLA BLA BLA BLA BLA BLA BLA BLA BLA BLA BLA BLA 
BLA BLA BLA BLA BLA BLA BLA BLA BLA BLA BLA BLA BLA BLA BLA BLA BLA BLA BLA BLA 
BLA BLA BLA BLA BLA BLA BLA BLA BLA BLA BLA BLA BLA BLA BLA BLA BLA BLA BLA BLA 
BLA BLA BLA BLA BLA BLA BLA BLA BLA BLA BLA BLA BLA BLA BLA BLA BLA BLA BLA BLA 
BLA BLA BLA BLA BLA BLA BLA BLA BLA BLA BLA BLA BLA BLA BLA BLA BLA BLA BLA BLA 
BLA BLA BLA BLA BLA BLA BLA BLA BLA BLA BLA BLA BLA BLA BLA BLA BLA BLA BLA BLA 
BLA BLA BLA BLA BLA BLA BLA BLA BLA BLA BLA BLA BLA BLA BLA BLA BLA BLA BLA BLA 
BLA BLA BLA BLA BLA BLA BLA BLA BLA BLA BLA BLA BLA BLA BLA BLA BLA BLA BLA BLA 
BLA BLA BLA BLA BLA BLA BLA BLA BLA BLA BLA BLA BLA BLA BLA BLA BLA BLA BLA BLA 
BLA BLA BLA BLA BLA BLA BLA BLA BLA BLA BLA BLA BLA BLA BLA BLA BLA BLA BLA BLA 
BLA BLA BLA BLA BLA BLA BLA BLA BLA BLA BLA BLA BLA BLA BLA BLA BLA BLA BLA BLA 
BLA BLA BLA BLA BLA BLA BLA BLA BLA BLA BLA BLA BLA BLA BLA BLA BLA BLA BLA BLA 
BLA BLA BLA BLA BLA BLA BLA BLA BLA BLA BLA BLA BLA BLA BLA BLA BLA BLA BLA BLA 
BLA BLA BLA BLA BLA BLA BLA BLA BLA BLA BLA BLA BLA BLA BLA BLA BLA BLA BLA BLA 
BLA BLA BLA BLA BLA BLA BLA BLA BLA BLA BLA BLA BLA BLA BLA BLA BLA BLA BLA BLA 
BLA BLA BLA BLA BLA BLA BLA BLA BLA BLA BLA BLA BLA BLA BLA BLA BLA BLA BLA BLA 
BLA BLA BLA BLA BLA BLA BLA BLA BLA BLA BLA BLA BLA BLA BLA BLA BLA BLA BLA BLA 
BLA BLA BLA BLA BLA BLA BLA BLA BLA BLA BLA BLA BLA BLA BLA BLA BLA BLA BLA BLA 
BLA BLA BLA BLA BLA BLA BLA BLA BLA BLA BLA BLA BLA BLA BLA BLA BLA BLA BLA BLA 
BLA BLA BLA BLA BLA BLA BLA BLA BLA BLA BLA BLA BLA BLA BLA BLA BLA BLA BLA BLA 
BLA BLA BLA BLA BLA BLA BLA BLA BLA BLA BLA BLA BLA BLA BLA BLA BLA BLA BLA BLA 
BLA BLA BLA BLA BLA BLA BLA BLA BLA BLA BLA BLA BLA BLA BLA BLA BLA BLA BLA BLA 
BLA BLA BLA BLA BLA BLA BLA BLA BLA BLA BLA BLA BLA BLA BLA BLA BLA BLA BLA BLA 
BLA BLA BLA BLA BLA BLA BLA BLA BLA BLA BLA BLA BLA BLA BLA BLA BLA BLA BLA BLA 
BLA BLA BLA BLA BLA BLA BLA BLA BLA BLA BLA BLA BLA BLA BLA BLA BLA BLA BLA BLA 
BLA BLA BLA BLA BLA BLA BLA BLA BLA BLA BLA BLA BLA BLA BLA BLA BLA BLA BLA BLA 
BLA BLA BLA BLA BLA BLA BLA BLA BLA BLA BLA BLA BLA BLA BLA BLA BLA BLA BLA BLA 
BLA BLA BLA BLA BLA BLA BLA BLA BLA BLA BLA BLA BLA BLA BLA BLA BLA BLA BLA BLA 
BLA BLA BLA BLA BLA BLA BLA BLA BLA BLA BLA BLA BLA BLA BLA BLA BLA BLA BLA BLA 
BLA BLA BLA BLA BLA BLA BLA BLA BLA BLA BLA BLA BLA BLA BLA BLA BLA BLA BLA BLA 
BLA BLA BLA BLA BLA BLA BLA BLA BLA BLA BLA BLA BLA BLA BLA BLA BLA BLA BLA BLA 
BLA BLA BLA BLA BLA BLA BLA BLA BLA BLA BLA BLA BLA BLA BLA BLA BLA BLA BLA BLA 
BLA BLA BLA BLA BLA BLA BLA BLA BLA BLA BLA BLA BLA BLA BLA BLA BLA BLA BLA BLA 
BLA BLA BLA BLA BLA BLA BLA BLA BLA BLA BLA BLA BLA BLA BLA BLA BLA BLA BLA BLA 
BLA BLA BLA BLA BLA BLA BLA BLA BLA BLA BLA BLA BLA BLA BLA BLA BLA BLA BLA BLA 
BLA BLA BLA BLA BLA BLA BLA BLA BLA BLA BLA BLA BLA BLA BLA BLA BLA BLA BLA BLA 
BLA BLA BLA BLA BLA BLA BLA BLA BLA BLA BLA BLA BLA BLA BLA BLA BLA BLA BLA BLA 
BLA BLA BLA BLA BLA BLA BLA BLA BLA BLA BLA BLA BLA BLA BLA BLA BLA BLA BLA BLA 
BLA BLA BLA BLA BLA BLA BLA BLA BLA BLA BLA BLA BLA BLA BLA BLA BLA BLA BLA BLA 
BLA BLA BLA BLA BLA BLA BLA BLA BLA BLA BLA BLA BLA BLA BLA BLA BLA BLA BLA BLA 
BLA BLA BLA BLA BLA BLA BLA BLA BLA BLA BLA BLA BLA BLA BLA BLA BLA BLA BLA BLA 
BLA BLA BLA BLA BLA BLA BLA BLA BLA BLA BLA BLA BLA BLA BLA BLA BLA BLA BLA BLA 
BLA BLA BLA BLA BLA BLA BLA BLA BLA BLA BLA BLA BLA BLA BLA BLA BLA BLA BLA BLA 
BLA BLA BLA BLA BLA BLA BLA BLA BLA BLA BLA BLA BLA BLA BLA BLA BLA BLA BLA BLA 
BLA BLA BLA BLA BLA BLA BLA BLA BLA BLA BLA BLA BLA BLA BLA BLA BLA BLA BLA BLA 
BLA BLA BLA BLA BLA BLA BLA BLA BLA BLA BLA BLA BLA BLA BLA BLA BLA BLA BLA BLA 
BLA BLA BLA BLA BLA BLA BLA BLA BLA BLA BLA BLA BLA BLA BLA BLA BLA BLA BLA BLA 
BLA BLA BLA BLA BLA BLA BLA BLA BLA BLA BLA BLA BLA BLA BLA BLA BLA BLA BLA BLA 
BLA BLA BLA BLA BLA BLA BLA BLA BLA BLA BLA BLA BLA BLA BLA BLA BLA BLA BLA BLA 
BLA BLA BLA BLA BLA BLA BLA BLA BLA BLA BLA BLA BLA BLA BLA BLA BLA BLA BLA BLA 
BLA BLA BLA BLA BLA BLA BLA BLA BLA BLA BLA BLA BLA BLA BLA BLA BLA BLA BLA BLA 
BLA BLA BLA BLA BLA BLA BLA BLA BLA BLA BLA BLA BLA BLA BLA BLA BLA BLA BLA BLA 
BLA BLA BLA BLA BLA BLA BLA BLA BLA BLA BLA BLA BLA BLA BLA BLA BLA BLA BLA BLA 
BLA BLA BLA BLA BLA BLA BLA BLA BLA BLA BLA BLA BLA BLA BLA BLA BLA BLA BLA BLA 
BLA BLA BLA BLA BLA BLA BLA BLA BLA BLA BLA BLA BLA BLA BLA BLA BLA BLA BLA BLA 
BLA BLA BLA BLA BLA BLA BLA BLA BLA BLA BLA BLA BLA BLA BLA BLA BLA BLA BLA BLA 
BLA BLA BLA BLA BLA BLA BLA BLA BLA BLA BLA BLA BLA BLA BLA BLA BLA BLA BLA BLA 
BLA BLA BLA BLA BLA BLA BLA BLA BLA BLA BLA BLA BLA BLA BLA BLA BLA BLA BLA BLA 
BLA BLA BLA BLA BLA BLA BLA BLA BLA BLA BLA BLA BLA BLA BLA BLA BLA BLA BLA BLA 
BLA BLA BLA BLA BLA BLA BLA BLA BLA BLA BLA BLA BLA BLA BLA BLA BLA BLA BLA BLA 
BLA BLA BLA BLA BLA BLA BLA BLA BLA BLA BLA BLA BLA BLA BLA BLA BLA BLA BLA BLA 
BLA BLA BLA BLA BLA BLA BLA BLA BLA BLA BLA BLA BLA BLA BLA BLA BLA BLA BLA BLA 
BLA BLA BLA BLA BLA BLA BLA BLA BLA BLA BLA BLA BLA BLA BLA BLA BLA BLA BLA BLA 
BLA BLA BLA BLA BLA BLA BLA BLA BLA BLA BLA BLA BLA BLA BLA BLA BLA BLA BLA BLA 
BLA BLA BLA BLA BLA BLA BLA BLA BLA BLA BLA BLA BLA BLA BLA BLA BLA BLA BLA BLA 
BLA BLA BLA BLA BLA BLA BLA BLA BLA BLA BLA BLA BLA BLA BLA BLA BLA BLA BLA BLA 
BLA BLA BLA BLA BLA BLA BLA BLA BLA BLA BLA BLA BLA BLA BLA BLA BLA BLA BLA BLA 
BLA BLA BLA BLA BLA BLA BLA BLA BLA BLA BLA BLA BLA BLA BLA BLA BLA BLA BLA BLA 
BLA BLA BLA BLA BLA BLA BLA BLA BLA BLA BLA BLA BLA BLA BLA BLA BLA BLA BLA BLA 
BLA BLA BLA BLA BLA BLA BLA BLA BLA BLA BLA BLA BLA BLA BLA BLA BLA BLA BLA BLA 
BLA BLA BLA BLA BLA BLA BLA BLA BLA BLA BLA BLA BLA BLA BLA BLA BLA BLA BLA BLA 
BLA BLA BLA BLA BLA BLA BLA BLA BLA BLA BLA BLA BLA BLA BLA BLA BLA BLA BLA BLA 
BLA BLA BLA BLA BLA BLA BLA BLA BLA BLA BLA BLA BLA BLA BLA BLA BLA BLA BLA BLA 
BLA BLA BLA BLA BLA BLA BLA BLA BLA BLA BLA BLA BLA BLA BLA BLA BLA BLA BLA BLA 
BLA BLA BLA BLA BLA BLA BLA BLA BLA BLA BLA BLA BLA BLA BLA BLA BLA BLA BLA BLA 
BLA BLA BLA BLA BLA BLA BLA BLA BLA BLA BLA BLA BLA BLA BLA BLA BLA BLA BLA BLA 
BLA BLA BLA BLA BLA BLA BLA BLA BLA BLA BLA BLA BLA BLA BLA BLA BLA BLA BLA BLA 
BLA BLA BLA BLA BLA BLA BLA BLA BLA BLA BLA BLA BLA BLA BLA BLA BLA BLA BLA BLA 
BLA BLA BLA BLA BLA BLA BLA BLA BLA BLA BLA BLA BLA BLA BLA BLA BLA BLA BLA BLA 
BLA BLA BLA BLA BLA BLA BLA BLA BLA BLA BLA BLA BLA BLA BLA BLA BLA BLA BLA BLA 
BLA BLA BLA BLA BLA BLA BLA BLA BLA BLA BLA BLA BLA BLA BLA BLA BLA BLA BLA BLA 
BLA BLA BLA BLA BLA BLA BLA BLA BLA BLA BLA BLA BLA BLA BLA BLA BLA BLA BLA BLA 
BLA BLA BLA BLA BLA BLA BLA BLA BLA BLA BLA BLA BLA BLA BLA BLA BLA BLA BLA BLA 
BLA BLA BLA BLA BLA BLA BLA BLA BLA BLA BLA BLA BLA BLA BLA BLA BLA BLA BLA BLA 
BLA BLA BLA BLA BLA BLA BLA BLA BLA BLA BLA BLA BLA BLA BLA BLA BLA BLA BLA BLA 
BLA BLA BLA BLA BLA BLA BLA BLA BLA BLA BLA BLA BLA BLA BLA BLA BLA BLA BLA BLA 
BLA BLA BLA BLA BLA BLA BLA BLA BLA BLA BLA BLA BLA BLA BLA BLA BLA BLA BLA BLA 
BLA BLA BLA BLA BLA BLA BLA BLA BLA BLA BLA BLA BLA BLA BLA BLA BLA BLA BLA BLA 
BLA BLA BLA BLA BLA BLA BLA BLA BLA BLA BLA BLA BLA BLA BLA BLA BLA BLA BLA BLA 
BLA BLA BLA BLA BLA BLA BLA BLA BLA BLA BLA BLA BLA BLA BLA BLA BLA BLA BLA BLA 
BLA BLA BLA BLA BLA BLA BLA BLA BLA BLA BLA BLA BLA BLA BLA BLA BLA BLA BLA BLA 
BLA BLA BLA BLA BLA BLA BLA BLA BLA BLA BLA BLA BLA BLA BLA BLA BLA BLA BLA BLA 
BLA BLA BLA BLA BLA BLA BLA BLA BLA BLA BLA BLA BLA BLA BLA BLA BLA BLA BLA BLA 
BLA BLA BLA BLA BLA BLA BLA BLA BLA BLA BLA BLA BLA BLA BLA BLA BLA BLA BLA BLA 
BLA BLA BLA BLA BLA BLA BLA BLA BLA BLA BLA BLA BLA BLA BLA BLA BLA BLA BLA BLA 
BLA BLA BLA BLA BLA BLA BLA BLA BLA BLA BLA BLA BLA BLA BLA BLA BLA BLA BLA BLA 
BLA BLA BLA BLA BLA BLA BLA BLA BLA BLA BLA BLA BLA BLA BLA BLA BLA BLA BLA BLA 
BLA BLA BLA BLA BLA BLA BLA BLA BLA BLA BLA BLA BLA BLA BLA BLA BLA BLA BLA BLA 
BLA BLA BLA BLA BLA BLA BLA BLA BLA BLA BLA BLA BLA BLA BLA BLA BLA BLA BLA BLA 
BLA BLA BLA BLA BLA BLA BLA BLA BLA BLA BLA BLA BLA BLA BLA BLA BLA BLA BLA BLA 
BLA BLA BLA BLA BLA BLA BLA BLA BLA BLA BLA BLA BLA BLA BLA BLA BLA BLA BLA BLA 
BLA BLA BLA BLA BLA BLA BLA BLA BLA BLA BLA BLA BLA BLA BLA BLA BLA BLA BLA BLA 
BLA BLA BLA BLA BLA BLA BLA BLA BLA BLA BLA BLA BLA BLA BLA BLA BLA BLA BLA BLA 
BLA BLA BLA BLA BLA BLA BLA BLA BLA BLA BLA BLA BLA BLA BLA BLA BLA BLA BLA BLA 
BLA BLA BLA BLA BLA BLA BLA BLA BLA BLA BLA BLA BLA BLA BLA BLA BLA BLA BLA BLA 
BLA BLA BLA BLA BLA BLA BLA BLA BLA BLA BLA BLA BLA BLA BLA BLA BLA BLA BLA BLA 
BLA BLA BLA BLA BLA BLA BLA BLA BLA BLA BLA BLA BLA BLA BLA BLA BLA BLA BLA BLA 
BLA BLA BLA BLA BLA BLA BLA BLA BLA BLA BLA BLA BLA BLA BLA BLA BLA BLA BLA BLA 
BLA BLA BLA BLA BLA BLA BLA BLA BLA BLA BLA BLA BLA BLA BLA BLA BLA BLA BLA BLA 
BLA BLA BLA BLA BLA BLA BLA BLA BLA BLA BLA BLA BLA BLA BLA BLA BLA BLA BLA BLA 
BLA BLA BLA BLA BLA BLA BLA BLA BLA BLA BLA BLA BLA BLA BLA BLA BLA BLA BLA BLA 
BLA BLA BLA BLA BLA BLA BLA BLA BLA BLA BLA BLA BLA BLA BLA BLA BLA BLA BLA BLA 
BLA BLA BLA BLA BLA BLA BLA BLA BLA BLA BLA BLA BLA BLA BLA BLA BLA BLA BLA BLA 
BLA BLA BLA BLA BLA BLA BLA BLA BLA BLA BLA BLA BLA BLA BLA BLA BLA BLA BLA BLA 
BLA BLA BLA BLA BLA BLA BLA BLA BLA BLA BLA BLA BLA BLA BLA BLA BLA BLA BLA BLA 
BLA BLA BLA BLA BLA BLA BLA BLA BLA BLA BLA BLA BLA BLA BLA BLA BLA BLA BLA BLA 
BLA BLA BLA BLA BLA BLA BLA BLA BLA BLA BLA BLA BLA BLA BLA BLA BLA BLA BLA BLA 
BLA BLA BLA BLA BLA BLA BLA BLA BLA BLA BLA BLA BLA BLA BLA BLA BLA BLA BLA BLA 
BLA BLA BLA BLA BLA BLA BLA BLA BLA BLA BLA BLA BLA BLA BLA BLA BLA BLA BLA BLA 
BLA BLA BLA BLA BLA BLA BLA BLA BLA BLA BLA BLA BLA BLA BLA BLA BLA BLA BLA BLA 
BLA BLA BLA BLA BLA BLA BLA BLA BLA BLA BLA BLA BLA BLA BLA BLA BLA BLA BLA BLA 
BLA BLA BLA BLA BLA BLA BLA BLA BLA BLA BLA BLA BLA BLA BLA BLA BLA BLA BLA BLA 
BLA BLA BLA BLA BLA BLA BLA BLA BLA BLA BLA BLA BLA BLA BLA BLA BLA BLA BLA BLA 
BLA BLA BLA BLA BLA BLA BLA BLA BLA BLA BLA BLA BLA BLA BLA BLA BLA BLA BLA BLA 
BLA BLA BLA BLA BLA BLA BLA BLA BLA BLA BLA BLA BLA BLA BLA BLA BLA BLA BLA BLA 
BLA BLA BLA BLA BLA BLA BLA BLA BLA BLA BLA BLA BLA BLA BLA BLA BLA BLA BLA BLA 
BLA BLA BLA BLA BLA BLA BLA BLA BLA BLA BLA BLA BLA BLA BLA BLA BLA BLA BLA BLA 
BLA BLA BLA BLA BLA BLA BLA BLA BLA BLA BLA BLA BLA BLA BLA BLA BLA BLA BLA BLA 
BLA BLA BLA BLA BLA BLA BLA BLA BLA BLA BLA BLA BLA BLA BLA BLA BLA BLA BLA BLA 
BLA BLA BLA BLA BLA BLA BLA BLA BLA BLA BLA BLA BLA BLA BLA BLA BLA BLA BLA BLA 
BLA BLA BLA BLA BLA BLA BLA BLA BLA BLA BLA BLA BLA BLA BLA BLA BLA BLA BLA BLA 
BLA BLA BLA BLA BLA BLA BLA BLA BLA BLA BLA BLA BLA BLA BLA BLA BLA BLA BLA BLA 
BLA BLA BLA BLA BLA BLA BLA BLA BLA BLA BLA BLA BLA BLA BLA BLA BLA BLA BLA BLA 
BLA BLA BLA BLA BLA BLA BLA BLA BLA BLA BLA BLA BLA BLA BLA BLA BLA BLA BLA BLA 
BLA BLA BLA BLA BLA BLA BLA BLA BLA BLA BLA BLA BLA BLA BLA BLA BLA BLA BLA BLA 
BLA BLA BLA BLA BLA BLA BLA BLA BLA BLA BLA BLA BLA BLA BLA BLA BLA BLA BLA BLA 
BLA BLA BLA BLA BLA BLA BLA BLA BLA BLA BLA BLA BLA BLA BLA BLA BLA BLA BLA BLA 
BLA BLA BLA BLA BLA BLA BLA BLA BLA BLA BLA BLA BLA BLA BLA BLA BLA BLA BLA BLA 
BLA BLA BLA BLA BLA BLA BLA BLA BLA BLA BLA BLA BLA BLA BLA BLA BLA BLA BLA BLA 
BLA BLA BLA BLA BLA BLA BLA BLA BLA BLA BLA BLA BLA BLA BLA BLA BLA BLA BLA BLA 
BLA BLA BLA BLA BLA BLA BLA BLA BLA BLA BLA BLA BLA BLA BLA BLA BLA BLA BLA BLA 
BLA BLA BLA BLA BLA BLA BLA BLA BLA BLA BLA BLA BLA BLA BLA BLA BLA BLA BLA BLA 
BLA BLA BLA BLA BLA BLA BLA BLA BLA BLA BLA BLA BLA BLA BLA BLA BLA BLA BLA BLA 
BLA BLA BLA BLA BLA BLA BLA BLA BLA BLA BLA BLA BLA BLA BLA BLA BLA BLA BLA BLA 
BLA BLA BLA BLA BLA BLA BLA BLA BLA BLA BLA BLA BLA BLA BLA BLA BLA BLA BLA BLA 
BLA BLA BLA BLA BLA BLA BLA BLA BLA BLA BLA BLA BLA BLA BLA BLA BLA BLA BLA BLA 
BLA BLA BLA BLA BLA BLA BLA BLA BLA BLA BLA BLA BLA BLA BLA BLA BLA BLA BLA BLA 
BLA BLA BLA BLA BLA BLA BLA BLA BLA BLA BLA BLA BLA BLA BLA BLA BLA BLA BLA BLA 
BLA BLA BLA BLA BLA BLA BLA BLA BLA BLA BLA BLA BLA BLA BLA BLA BLA BLA BLA BLA 
BLA BLA BLA BLA BLA BLA BLA BLA BLA BLA BLA BLA BLA BLA BLA BLA BLA BLA BLA BLA 
BLA BLA BLA BLA BLA BLA BLA BLA BLA BLA BLA BLA BLA BLA BLA BLA BLA BLA BLA BLA 
BLA BLA BLA BLA BLA BLA BLA BLA BLA BLA BLA BLA BLA BLA BLA BLA BLA BLA BLA BLA 
BLA BLA BLA BLA BLA BLA BLA BLA BLA BLA BLA BLA BLA BLA BLA BLA BLA BLA BLA BLA 
BLA BLA BLA BLA BLA BLA BLA BLA BLA BLA BLA BLA BLA BLA BLA BLA BLA BLA BLA BLA 
BLA BLA BLA BLA BLA BLA BLA BLA BLA BLA BLA BLA BLA BLA BLA BLA BLA BLA BLA BLA 
BLA BLA BLA BLA BLA BLA BLA BLA BLA BLA BLA BLA BLA BLA BLA BLA BLA BLA BLA BLA 
BLA BLA BLA BLA BLA BLA BLA BLA BLA BLA BLA BLA BLA BLA BLA BLA BLA BLA BLA BLA 
BLA BLA BLA BLA BLA BLA BLA BLA BLA BLA BLA BLA BLA BLA BLA BLA BLA BLA BLA BLA 
BLA BLA BLA BLA BLA BLA BLA BLA BLA BLA BLA BLA BLA BLA BLA BLA BLA BLA BLA BLA 
BLA BLA BLA BLA BLA BLA BLA BLA BLA BLA BLA BLA BLA BLA BLA BLA BLA BLA BLA BLA 
BLA BLA BLA BLA BLA BLA BLA BLA BLA BLA BLA BLA BLA BLA BLA BLA BLA BLA BLA BLA 
BLA BLA BLA BLA BLA BLA BLA BLA BLA BLA BLA BLA BLA BLA BLA BLA BLA BLA BLA BLA 
BLA BLA BLA BLA BLA BLA BLA BLA BLA BLA BLA BLA BLA BLA BLA BLA BLA BLA BLA BLA 
BLA BLA BLA BLA BLA BLA BLA BLA BLA BLA BLA BLA BLA BLA BLA BLA BLA BLA BLA BLA 
BLA BLA BLA BLA BLA BLA BLA BLA BLA BLA BLA BLA BLA BLA BLA BLA BLA BLA BLA BLA 
BLA BLA BLA BLA BLA BLA BLA BLA BLA BLA BLA BLA BLA BLA BLA BLA BLA BLA BLA BLA 
BLA BLA BLA BLA BLA BLA BLA BLA BLA BLA BLA BLA BLA BLA BLA BLA BLA BLA BLA BLA 
BLA BLA BLA BLA BLA BLA BLA BLA BLA BLA BLA BLA BLA BLA BLA BLA BLA BLA BLA BLA 
BLA BLA BLA BLA BLA BLA BLA BLA BLA BLA BLA BLA BLA BLA BLA BLA BLA BLA BLA BLA 
BLA BLA BLA BLA BLA BLA BLA BLA BLA BLA BLA BLA BLA BLA BLA BLA BLA BLA BLA BLA 
BLA BLA BLA BLA BLA BLA BLA BLA BLA BLA BLA BLA BLA BLA BLA BLA BLA BLA BLA BLA 
BLA BLA BLA BLA BLA BLA BLA BLA BLA BLA BLA BLA BLA BLA BLA BLA BLA BLA BLA BLA 
BLA BLA BLA BLA BLA BLA BLA BLA BLA BLA BLA BLA BLA BLA BLA BLA BLA BLA BLA BLA 
BLA BLA BLA BLA BLA BLA BLA BLA BLA BLA BLA BLA BLA BLA BLA BLA BLA BLA BLA BLA 
BLA BLA BLA BLA BLA BLA BLA BLA BLA BLA BLA BLA BLA BLA BLA BLA BLA BLA BLA BLA 
BLA BLA BLA BLA BLA BLA BLA BLA BLA BLA BLA BLA BLA BLA BLA BLA BLA BLA BLA BLA 
BLA BLA BLA BLA BLA BLA BLA BLA BLA BLA BLA BLA BLA BLA BLA BLA BLA BLA BLA BLA 
BLA BLA BLA BLA BLA BLA BLA BLA BLA BLA BLA BLA BLA BLA BLA BLA BLA BLA BLA BLA 
BLA BLA BLA BLA BLA BLA BLA BLA BLA BLA BLA BLA BLA BLA BLA BLA BLA BLA BLA BLA 
BLA BLA BLA BLA BLA BLA BLA BLA BLA BLA BLA BLA BLA BLA BLA BLA BLA BLA BLA BLA 
BLA BLA BLA BLA BLA BLA BLA BLA BLA BLA BLA BLA BLA BLA BLA BLA BLA BLA BLA BLA 
BLA BLA BLA BLA BLA BLA BLA BLA BLA BLA BLA BLA BLA BLA BLA BLA BLA BLA BLA BLA 
BLA BLA BLA BLA BLA BLA BLA BLA BLA BLA BLA BLA BLA BLA BLA BLA BLA BLA BLA BLA 
BLA BLA BLA BLA BLA BLA BLA BLA BLA BLA BLA BLA BLA BLA BLA BLA BLA BLA BLA BLA 
BLA BLA BLA BLA BLA BLA BLA BLA BLA BLA BLA BLA BLA BLA BLA BLA BLA BLA BLA BLA 
BLA BLA BLA BLA BLA BLA BLA BLA BLA BLA BLA BLA BLA BLA BLA BLA BLA BLA BLA BLA 
BLA BLA BLA BLA BLA BLA BLA BLA BLA BLA BLA BLA BLA BLA BLA BLA BLA BLA BLA BLA 
BLA BLA BLA BLA BLA BLA BLA BLA BLA BLA BLA BLA BLA BLA BLA BLA BLA BLA BLA BLA 
BLA BLA BLA BLA BLA BLA BLA BLA BLA BLA BLA BLA BLA BLA BLA BLA BLA BLA BLA BLA 
BLA BLA BLA BLA BLA BLA BLA BLA BLA BLA BLA BLA BLA BLA BLA BLA BLA BLA BLA BLA 
BLA BLA BLA BLA BLA BLA BLA BLA BLA BLA BLA BLA BLA BLA BLA BLA BLA BLA BLA BLA 
BLA BLA BLA BLA BLA BLA BLA BLA BLA BLA BLA BLA BLA BLA BLA BLA BLA BLA BLA BLA 
BLA BLA BLA BLA BLA BLA BLA BLA BLA BLA BLA BLA BLA BLA BLA BLA BLA BLA BLA BLA 
BLA BLA BLA BLA BLA BLA BLA BLA BLA BLA BLA BLA BLA BLA BLA BLA BLA BLA BLA BLA 
BLA BLA BLA BLA BLA BLA BLA BLA BLA BLA BLA BLA BLA BLA BLA BLA BLA BLA BLA BLA 
BLA BLA BLA BLA BLA BLA BLA BLA BLA BLA BLA BLA BLA BLA BLA BLA BLA BLA BLA BLA 
BLA BLA BLA BLA BLA BLA BLA BLA BLA BLA BLA BLA BLA BLA BLA BLA BLA BLA BLA BLA 
BLA BLA BLA BLA BLA BLA BLA BLA BLA BLA BLA BLA BLA BLA BLA BLA BLA BLA BLA BLA 
BLA BLA BLA BLA BLA BLA BLA BLA BLA BLA BLA BLA BLA BLA BLA BLA BLA BLA BLA BLA 
BLA BLA BLA BLA BLA BLA BLA BLA BLA BLA BLA BLA BLA BLA BLA BLA BLA BLA BLA BLA 
BLA BLA BLA BLA BLA BLA BLA BLA BLA BLA BLA BLA BLA BLA BLA BLA BLA BLA BLA BLA 
BLA BLA BLA BLA BLA BLA BLA BLA BLA BLA BLA BLA BLA BLA BLA BLA BLA BLA BLA BLA 
BLA BLA BLA BLA BLA BLA BLA BLA BLA BLA BLA BLA BLA BLA BLA BLA BLA BLA BLA BLA 
BLA BLA BLA BLA BLA BLA BLA BLA BLA BLA BLA BLA BLA BLA BLA BLA BLA BLA BLA BLA 
BLA BLA BLA BLA BLA BLA BLA BLA BLA BLA BLA BLA BLA BLA BLA BLA BLA BLA BLA BLA 
BLA BLA BLA BLA BLA BLA BLA BLA BLA BLA BLA BLA BLA BLA BLA BLA BLA BLA BLA BLA 
BLA BLA BLA BLA BLA BLA BLA BLA BLA BLA BLA BLA BLA BLA BLA BLA BLA BLA BLA BLA 
BLA BLA BLA BLA BLA BLA BLA BLA BLA BLA BLA BLA BLA BLA BLA BLA BLA BLA BLA BLA 
BLA BLA BLA BLA BLA BLA BLA BLA BLA BLA BLA BLA BLA BLA BLA BLA BLA BLA BLA BLA 
BLA BLA BLA BLA BLA BLA BLA BLA BLA BLA BLA BLA BLA BLA BLA BLA BLA BLA BLA BLA 
BLA BLA BLA BLA BLA BLA BLA BLA BLA BLA BLA BLA BLA BLA BLA BLA BLA BLA BLA BLA 
BLA BLA BLA BLA BLA BLA BLA BLA BLA BLA BLA BLA BLA BLA BLA BLA BLA BLA BLA BLA 
BLA BLA BLA BLA BLA BLA BLA BLA BLA BLA BLA BLA BLA BLA BLA BLA BLA BLA BLA BLA 
BLA BLA BLA BLA BLA BLA BLA BLA BLA BLA BLA BLA BLA BLA BLA BLA BLA BLA BLA BLA 
BLA BLA BLA BLA BLA BLA BLA BLA BLA BLA BLA BLA BLA BLA BLA BLA BLA BLA BLA BLA 
BLA BLA BLA BLA BLA BLA BLA BLA BLA BLA BLA BLA BLA BLA BLA BLA BLA BLA BLA BLA 
BLA BLA BLA BLA BLA BLA BLA BLA BLA BLA BLA BLA BLA BLA BLA BLA BLA BLA BLA BLA 
BLA BLA BLA BLA BLA BLA BLA BLA BLA BLA BLA BLA BLA BLA BLA BLA BLA BLA BLA BLA 
BLA BLA BLA BLA BLA BLA BLA BLA BLA BLA BLA BLA BLA BLA BLA BLA BLA BLA BLA BLA 
BLA BLA BLA BLA BLA BLA BLA BLA BLA BLA BLA BLA BLA BLA BLA BLA BLA BLA BLA BLA 
BLA BLA BLA BLA BLA BLA BLA BLA BLA BLA BLA BLA BLA BLA BLA BLA BLA BLA BLA BLA 
BLA BLA BLA BLA BLA BLA BLA BLA BLA BLA BLA BLA BLA BLA BLA BLA BLA BLA BLA BLA 
BLA BLA BLA BLA BLA BLA BLA BLA BLA BLA BLA BLA BLA BLA BLA BLA BLA BLA BLA BLA 
BLA BLA BLA BLA BLA BLA BLA BLA BLA BLA BLA BLA BLA BLA BLA BLA BLA BLA BLA BLA 
BLA BLA BLA BLA BLA BLA BLA BLA BLA BLA BLA BLA BLA BLA BLA BLA BLA BLA BLA BLA 
BLA BLA BLA BLA BLA BLA BLA BLA BLA BLA BLA BLA BLA BLA BLA BLA BLA BLA BLA BLA 
BLA BLA BLA BLA BLA BLA BLA BLA BLA BLA BLA BLA BLA BLA BLA BLA BLA BLA BLA BLA 
BLA BLA BLA BLA BLA BLA BLA BLA BLA BLA BLA BLA BLA BLA BLA BLA BLA BLA BLA BLA 
BLA BLA BLA BLA BLA BLA BLA BLA BLA BLA BLA BLA BLA BLA BLA BLA BLA BLA BLA BLA 
BLA BLA BLA BLA BLA BLA BLA BLA BLA BLA BLA BLA BLA BLA BLA BLA BLA BLA BLA BLA 
BLA BLA BLA BLA BLA BLA BLA BLA BLA BLA BLA BLA BLA BLA BLA BLA BLA BLA BLA BLA 
BLA BLA BLA BLA BLA BLA BLA BLA BLA BLA BLA BLA BLA BLA BLA BLA BLA BLA BLA BLA 
BLA BLA BLA BLA BLA BLA BLA BLA BLA BLA BLA BLA BLA BLA BLA BLA BLA BLA BLA BLA 
BLA BLA BLA BLA BLA BLA BLA BLA BLA BLA BLA BLA BLA BLA BLA BLA BLA BLA BLA BLA 
BLA BLA BLA BLA BLA BLA BLA BLA BLA BLA BLA BLA BLA BLA BLA BLA BLA BLA BLA BLA 
BLA BLA BLA BLA BLA BLA BLA BLA BLA BLA BLA BLA BLA BLA BLA BLA BLA BLA BLA BLA 
BLA BLA BLA BLA BLA BLA BLA BLA BLA BLA BLA BLA BLA BLA BLA BLA BLA BLA BLA BLA 
BLA BLA BLA BLA BLA BLA BLA BLA BLA BLA BLA BLA BLA BLA BLA BLA BLA BLA BLA BLA 
BLA BLA BLA BLA BLA BLA BLA BLA BLA BLA BLA BLA BLA BLA BLA BLA BLA BLA BLA BLA 
BLA BLA BLA BLA BLA BLA BLA BLA BLA BLA BLA BLA BLA BLA BLA BLA BLA BLA BLA BLA 
BLA BLA BLA BLA BLA BLA BLA BLA BLA BLA BLA BLA BLA BLA BLA BLA BLA BLA BLA BLA 
BLA BLA BLA BLA BLA BLA BLA BLA BLA BLA BLA BLA BLA BLA BLA BLA BLA BLA BLA BLA 
BLA BLA BLA BLA BLA BLA BLA BLA BLA BLA BLA BLA BLA BLA BLA BLA BLA BLA BLA BLA 
BLA BLA BLA BLA BLA BLA BLA BLA BLA BLA BLA BLA BLA BLA BLA BLA BLA BLA BLA BLA 
BLA BLA BLA BLA BLA BLA BLA BLA BLA BLA BLA BLA BLA BLA BLA BLA BLA BLA BLA BLA 
BLA BLA BLA BLA BLA BLA BLA BLA BLA BLA BLA BLA BLA BLA BLA BLA BLA BLA BLA BLA 
BLA BLA BLA BLA BLA BLA BLA BLA BLA BLA BLA BLA BLA BLA BLA BLA BLA BLA BLA BLA 
BLA BLA BLA BLA BLA BLA BLA BLA BLA BLA BLA BLA BLA BLA BLA BLA BLA BLA BLA BLA 
BLA BLA BLA BLA BLA BLA BLA BLA BLA BLA BLA BLA BLA BLA BLA BLA BLA BLA BLA BLA 
BLA BLA BLA BLA BLA BLA BLA BLA BLA BLA BLA BLA BLA BLA BLA BLA BLA BLA BLA BLA 
BLA BLA BLA BLA BLA BLA BLA BLA BLA BLA BLA BLA BLA BLA BLA BLA BLA BLA BLA BLA 
BLA BLA BLA BLA BLA BLA BLA BLA BLA BLA BLA BLA BLA BLA BLA BLA BLA BLA BLA BLA 
BLA BLA BLA BLA BLA BLA BLA BLA BLA BLA BLA BLA BLA BLA BLA BLA BLA BLA BLA BLA 
BLA BLA BLA BLA BLA BLA BLA BLA BLA BLA BLA BLA BLA BLA BLA BLA BLA BLA BLA BLA 
BLA BLA BLA BLA BLA BLA BLA BLA BLA BLA BLA BLA BLA BLA BLA BLA BLA BLA BLA BLA 
BLA BLA BLA BLA BLA BLA BLA BLA BLA BLA BLA BLA BLA BLA BLA BLA BLA BLA BLA BLA 
BLA BLA BLA BLA BLA BLA BLA BLA BLA BLA BLA BLA BLA BLA BLA BLA BLA BLA BLA BLA 
BLA BLA BLA BLA BLA BLA BLA BLA BLA BLA BLA BLA BLA BLA BLA BLA BLA BLA BLA BLA 
BLA BLA BLA BLA BLA BLA BLA BLA BLA BLA BLA BLA BLA BLA BLA BLA BLA BLA BLA BLA 
BLA BLA BLA BLA BLA BLA BLA BLA BLA BLA BLA BLA BLA BLA BLA BLA BLA BLA BLA BLA 
BLA BLA BLA BLA BLA BLA BLA BLA BLA BLA BLA BLA BLA BLA BLA BLA BLA BLA BLA BLA 
BLA BLA BLA BLA BLA BLA BLA BLA BLA BLA BLA BLA BLA BLA BLA BLA BLA BLA BLA BLA 
BLA BLA BLA BLA BLA BLA BLA BLA BLA BLA BLA BLA BLA BLA BLA BLA BLA BLA BLA BLA 
BLA BLA BLA BLA BLA BLA BLA BLA BLA BLA BLA BLA BLA BLA BLA BLA BLA BLA BLA BLA 
BLA BLA BLA BLA BLA BLA BLA BLA BLA BLA BLA BLA BLA BLA BLA BLA BLA BLA BLA BLA 
BLA BLA BLA BLA BLA BLA BLA BLA BLA BLA BLA BLA BLA BLA BLA BLA BLA BLA BLA BLA 
BLA BLA BLA BLA BLA BLA BLA BLA BLA BLA BLA BLA BLA BLA BLA BLA BLA BLA BLA BLA 
BLA BLA BLA BLA BLA BLA BLA BLA BLA BLA BLA BLA BLA BLA BLA BLA BLA BLA BLA BLA 
BLA BLA BLA BLA BLA BLA BLA BLA BLA BLA BLA BLA BLA BLA BLA BLA BLA BLA BLA BLA 
BLA BLA BLA BLA BLA BLA BLA BLA BLA BLA BLA BLA BLA BLA BLA BLA BLA BLA BLA BLA 
BLA BLA BLA BLA BLA BLA BLA BLA BLA BLA BLA BLA BLA BLA BLA BLA BLA BLA BLA BLA 
BLA BLA BLA BLA BLA BLA BLA BLA BLA BLA BLA BLA BLA BLA BLA BLA BLA BLA BLA BLA 
BLA BLA BLA BLA BLA BLA BLA BLA BLA BLA BLA BLA BLA BLA BLA BLA BLA BLA BLA BLA 
BLA BLA BLA BLA BLA BLA BLA BLA BLA BLA BLA BLA BLA BLA BLA BLA BLA BLA BLA BLA 
BLA BLA BLA BLA BLA BLA BLA BLA BLA BLA BLA BLA BLA BLA BLA BLA BLA BLA BLA BLA 
BLA BLA BLA BLA BLA BLA BLA BLA BLA BLA BLA BLA BLA BLA BLA BLA BLA BLA BLA BLA 
BLA BLA BLA BLA BLA BLA BLA BLA BLA BLA BLA BLA BLA BLA BLA BLA BLA BLA BLA BLA 
BLA BLA BLA BLA BLA BLA BLA BLA BLA BLA BLA BLA BLA BLA BLA BLA BLA BLA BLA BLA 
BLA BLA BLA BLA BLA BLA BLA BLA BLA BLA BLA BLA BLA BLA BLA BLA BLA BLA BLA BLA 
BLA BLA BLA BLA BLA BLA BLA BLA BLA BLA BLA BLA BLA BLA BLA BLA BLA BLA BLA BLA 
BLA BLA BLA BLA BLA BLA BLA BLA BLA BLA BLA BLA BLA BLA BLA BLA BLA BLA BLA BLA 
BLA BLA BLA BLA BLA BLA BLA BLA BLA BLA BLA BLA BLA BLA BLA BLA BLA BLA BLA BLA 
BLA BLA BLA BLA BLA BLA BLA BLA BLA BLA BLA BLA BLA BLA BLA BLA BLA BLA BLA BLA 
BLA BLA BLA BLA BLA BLA BLA BLA BLA BLA BLA BLA BLA BLA BLA BLA BLA BLA BLA BLA 
BLA BLA BLA BLA BLA BLA BLA BLA BLA BLA BLA BLA BLA BLA BLA BLA BLA BLA BLA BLA 
BLA BLA BLA BLA BLA BLA BLA BLA BLA BLA BLA BLA BLA BLA BLA BLA BLA BLA BLA BLA 
BLA BLA BLA BLA BLA BLA BLA BLA BLA BLA BLA BLA BLA BLA BLA BLA BLA BLA BLA BLA 
BLA BLA BLA BLA BLA BLA BLA BLA BLA BLA BLA BLA BLA BLA BLA BLA BLA BLA BLA BLA 
BLA BLA BLA BLA BLA BLA BLA BLA BLA BLA BLA BLA BLA BLA BLA BLA BLA BLA BLA BLA 
BLA BLA BLA BLA BLA BLA BLA BLA BLA BLA BLA BLA BLA BLA BLA BLA BLA BLA BLA BLA 
BLA BLA BLA BLA BLA BLA BLA BLA BLA BLA BLA BLA BLA BLA BLA BLA BLA BLA BLA BLA 
BLA BLA BLA BLA BLA BLA BLA BLA BLA BLA BLA BLA BLA BLA BLA BLA BLA BLA BLA BLA 
BLA BLA BLA BLA BLA BLA BLA BLA BLA BLA BLA BLA BLA BLA BLA BLA BLA BLA BLA BLA 
BLA BLA BLA BLA BLA BLA BLA BLA BLA BLA BLA BLA BLA BLA BLA BLA BLA BLA BLA BLA 
BLA BLA BLA BLA BLA BLA BLA BLA BLA BLA BLA BLA BLA BLA BLA BLA BLA BLA BLA BLA 
BLA BLA BLA BLA BLA BLA BLA BLA BLA BLA BLA BLA BLA BLA BLA BLA BLA BLA BLA BLA 
BLA BLA BLA BLA BLA BLA BLA BLA BLA BLA BLA BLA BLA BLA BLA BLA BLA BLA BLA BLA 
BLA BLA BLA BLA BLA BLA BLA BLA BLA BLA BLA BLA BLA BLA BLA BLA BLA BLA BLA BLA 
BLA BLA BLA BLA BLA BLA BLA BLA BLA BLA BLA BLA BLA BLA BLA BLA BLA BLA BLA BLA 
BLA BLA BLA BLA BLA BLA BLA BLA BLA BLA BLA BLA BLA BLA BLA BLA BLA BLA BLA BLA 
BLA BLA BLA BLA BLA BLA BLA BLA BLA BLA BLA BLA BLA BLA BLA BLA BLA BLA BLA BLA 
BLA BLA BLA BLA BLA BLA BLA BLA BLA BLA BLA BLA BLA BLA BLA BLA BLA BLA BLA BLA 
BLA BLA BLA BLA BLA BLA BLA BLA BLA BLA BLA BLA BLA BLA BLA BLA BLA BLA BLA BLA 
BLA BLA BLA BLA BLA BLA BLA BLA BLA BLA BLA BLA BLA BLA BLA BLA BLA BLA BLA BLA 
BLA BLA BLA BLA BLA BLA BLA BLA BLA BLA BLA BLA BLA BLA BLA BLA BLA BLA BLA BLA 
BLA BLA BLA BLA BLA BLA BLA BLA BLA BLA BLA BLA BLA BLA BLA BLA BLA BLA BLA BLA 
BLA BLA BLA BLA BLA BLA BLA BLA BLA BLA BLA BLA BLA BLA BLA BLA BLA BLA BLA BLA 
BLA BLA BLA BLA BLA BLA BLA BLA BLA BLA BLA BLA BLA BLA BLA BLA BLA BLA BLA BLA 
BLA BLA BLA BLA BLA BLA BLA BLA BLA BLA BLA BLA BLA BLA BLA BLA BLA BLA BLA BLA 
BLA BLA BLA BLA BLA BLA BLA BLA BLA BLA BLA BLA BLA BLA BLA BLA BLA BLA BLA BLA 
BLA BLA BLA BLA BLA BLA BLA BLA BLA BLA BLA BLA BLA BLA BLA BLA BLA BLA BLA BLA 
BLA BLA BLA BLA BLA BLA BLA BLA BLA BLA BLA BLA BLA BLA BLA BLA BLA BLA BLA BLA 
BLA BLA BLA BLA BLA BLA BLA BLA BLA BLA BLA BLA BLA BLA BLA BLA BLA BLA BLA BLA 
BLA BLA BLA BLA BLA BLA BLA BLA BLA BLA BLA BLA BLA BLA BLA BLA BLA BLA BLA BLA 
BLA BLA BLA BLA BLA BLA BLA BLA BLA BLA BLA BLA BLA BLA BLA BLA BLA BLA BLA BLA 
BLA BLA BLA BLA BLA BLA BLA BLA BLA BLA BLA BLA BLA BLA BLA BLA BLA BLA BLA BLA 
BLA BLA BLA BLA BLA BLA BLA BLA BLA BLA BLA BLA BLA BLA BLA BLA BLA BLA BLA BLA 
BLA BLA BLA BLA BLA BLA BLA BLA BLA BLA BLA BLA BLA BLA BLA BLA BLA BLA BLA BLA 
BLA BLA BLA BLA BLA BLA BLA BLA BLA BLA BLA BLA BLA BLA BLA BLA BLA BLA BLA BLA 
BLA BLA BLA BLA BLA BLA BLA BLA BLA BLA BLA BLA BLA BLA BLA BLA BLA BLA BLA BLA 
BLA BLA BLA BLA BLA BLA BLA BLA BLA BLA BLA BLA BLA BLA BLA BLA BLA BLA BLA BLA 
BLA BLA BLA BLA BLA BLA BLA BLA BLA BLA BLA BLA BLA BLA BLA BLA BLA BLA BLA BLA 
BLA BLA BLA BLA BLA BLA BLA BLA BLA BLA BLA BLA BLA BLA BLA BLA BLA BLA BLA BLA 
BLA BLA BLA BLA BLA BLA BLA BLA BLA BLA BLA BLA BLA BLA BLA BLA BLA BLA BLA BLA 
BLA BLA BLA BLA BLA BLA BLA BLA BLA BLA BLA BLA BLA BLA BLA BLA BLA BLA BLA BLA 
BLA BLA BLA BLA BLA BLA BLA BLA BLA BLA BLA BLA BLA BLA BLA BLA BLA BLA BLA BLA 
BLA BLA BLA BLA BLA BLA BLA BLA BLA BLA BLA BLA BLA BLA BLA BLA BLA BLA BLA BLA 
BLA BLA BLA BLA BLA BLA BLA BLA BLA BLA BLA BLA BLA BLA BLA BLA BLA BLA BLA BLA 
BLA BLA BLA BLA BLA BLA BLA BLA BLA BLA BLA BLA BLA BLA BLA BLA BLA BLA BLA BLA 
BLA BLA BLA BLA BLA BLA BLA BLA BLA BLA BLA BLA BLA BLA BLA BLA BLA BLA BLA BLA 
BLA BLA BLA BLA BLA BLA BLA BLA BLA BLA BLA BLA BLA BLA BLA BLA BLA BLA BLA BLA 
BLA BLA BLA BLA BLA BLA BLA BLA BLA BLA BLA BLA BLA BLA BLA BLA BLA BLA BLA BLA 
BLA BLA BLA BLA BLA BLA BLA BLA BLA BLA BLA BLA BLA BLA BLA BLA BLA BLA BLA BLA 
BLA BLA BLA BLA BLA BLA BLA BLA BLA BLA BLA BLA BLA BLA BLA BLA BLA BLA BLA BLA 
BLA BLA BLA BLA BLA BLA BLA BLA BLA BLA BLA BLA BLA BLA BLA BLA BLA BLA BLA BLA 
BLA BLA BLA BLA BLA BLA BLA BLA BLA BLA BLA BLA BLA BLA BLA BLA BLA BLA BLA BLA 
BLA BLA BLA BLA BLA BLA BLA BLA BLA BLA BLA BLA BLA BLA BLA BLA BLA BLA BLA BLA 
BLA BLA BLA BLA BLA BLA BLA BLA BLA BLA BLA BLA BLA BLA BLA BLA BLA BLA BLA BLA 
BLA BLA BLA BLA BLA BLA BLA BLA BLA BLA BLA BLA BLA BLA BLA BLA BLA BLA BLA BLA 
BLA BLA BLA BLA BLA BLA BLA BLA BLA BLA BLA BLA BLA BLA BLA BLA BLA BLA BLA BLA 
BLA BLA BLA BLA BLA BLA BLA BLA BLA BLA BLA BLA BLA BLA BLA BLA BLA BLA BLA BLA 
BLA BLA BLA BLA BLA BLA BLA BLA BLA BLA BLA BLA BLA BLA BLA BLA BLA BLA BLA BLA 
BLA BLA BLA BLA BLA BLA BLA BLA BLA BLA BLA BLA BLA BLA BLA BLA BLA BLA BLA BLA 
BLA BLA BLA BLA BLA BLA BLA BLA BLA BLA BLA BLA BLA BLA BLA BLA BLA BLA BLA BLA 
BLA BLA BLA BLA BLA BLA BLA BLA BLA BLA BLA BLA BLA BLA BLA BLA BLA BLA BLA BLA 
BLA BLA BLA BLA BLA BLA BLA BLA BLA BLA BLA BLA BLA BLA BLA BLA BLA BLA BLA BLA 
BLA BLA BLA BLA BLA BLA BLA BLA BLA BLA BLA BLA BLA BLA BLA BLA BLA BLA BLA BLA 
BLA BLA BLA BLA BLA BLA BLA BLA BLA BLA BLA BLA BLA BLA BLA BLA BLA BLA BLA BLA 
BLA BLA BLA BLA BLA BLA BLA BLA BLA BLA BLA BLA BLA BLA BLA BLA BLA BLA BLA BLA 
BLA BLA BLA BLA BLA BLA BLA BLA BLA BLA BLA BLA BLA BLA BLA BLA BLA BLA BLA BLA 
BLA BLA BLA BLA BLA BLA BLA BLA BLA BLA BLA BLA BLA BLA BLA BLA BLA BLA BLA BLA 
BLA BLA BLA BLA BLA BLA BLA BLA BLA BLA BLA BLA BLA BLA BLA BLA BLA BLA BLA BLA 
BLA BLA BLA BLA BLA BLA BLA BLA BLA BLA BLA BLA BLA BLA BLA BLA BLA BLA BLA BLA 
BLA BLA BLA BLA BLA BLA BLA BLA BLA BLA BLA BLA BLA BLA BLA BLA BLA BLA BLA BLA 
BLA BLA BLA BLA BLA BLA BLA BLA BLA BLA BLA BLA BLA BLA BLA BLA BLA BLA BLA BLA 
BLA BLA BLA BLA BLA BLA BLA BLA BLA BLA BLA BLA BLA BLA BLA BLA BLA BLA BLA BLA 
BLA BLA BLA BLA BLA BLA BLA BLA BLA BLA BLA BLA BLA BLA BLA BLA BLA BLA BLA BLA 
BLA BLA BLA BLA BLA BLA BLA BLA BLA BLA BLA BLA BLA BLA BLA BLA BLA BLA BLA BLA 
BLA BLA BLA BLA BLA BLA BLA BLA BLA BLA BLA BLA BLA BLA BLA BLA BLA BLA BLA BLA 
BLA BLA BLA BLA BLA BLA BLA BLA BLA BLA BLA BLA BLA BLA BLA BLA BLA BLA BLA BLA 
BLA BLA BLA BLA BLA BLA BLA BLA BLA BLA BLA BLA BLA BLA BLA BLA BLA BLA BLA BLA 
BLA BLA BLA BLA BLA BLA BLA BLA BLA BLA BLA BLA BLA BLA BLA BLA BLA BLA BLA BLA 
BLA BLA BLA BLA BLA BLA BLA BLA BLA BLA BLA BLA BLA BLA BLA BLA BLA BLA BLA BLA 
BLA BLA BLA BLA BLA BLA BLA BLA BLA BLA BLA BLA BLA BLA BLA BLA BLA BLA BLA BLA 
BLA BLA BLA BLA BLA BLA BLA BLA BLA BLA BLA BLA BLA BLA BLA BLA BLA BLA BLA BLA 
BLA BLA BLA BLA BLA BLA BLA BLA BLA BLA BLA BLA BLA BLA BLA BLA BLA BLA BLA BLA 
BLA BLA BLA BLA BLA BLA BLA BLA BLA BLA BLA BLA BLA BLA BLA BLA BLA BLA BLA BLA 
BLA BLA BLA BLA BLA BLA BLA BLA BLA BLA BLA BLA BLA BLA BLA BLA BLA BLA BLA BLA 
BLA BLA BLA BLA BLA BLA BLA BLA BLA BLA BLA BLA BLA BLA BLA BLA BLA BLA BLA BLA 
BLA BLA BLA BLA BLA BLA BLA BLA BLA BLA BLA BLA BLA BLA BLA BLA BLA BLA BLA BLA 
BLA BLA BLA BLA BLA BLA BLA BLA BLA BLA BLA BLA BLA BLA BLA BLA BLA BLA BLA BLA 
BLA BLA BLA BLA BLA BLA BLA BLA BLA BLA BLA BLA BLA BLA BLA BLA BLA BLA BLA BLA 
BLA BLA BLA BLA BLA BLA BLA BLA BLA BLA BLA BLA BLA BLA BLA BLA BLA BLA BLA BLA 
BLA BLA BLA BLA BLA BLA BLA BLA BLA BLA BLA BLA BLA BLA BLA BLA BLA BLA BLA BLA 
BLA BLA BLA BLA BLA BLA BLA BLA BLA BLA BLA BLA BLA BLA BLA BLA BLA BLA BLA BLA 
BLA BLA BLA BLA BLA BLA BLA BLA BLA BLA BLA BLA BLA BLA BLA BLA BLA BLA BLA BLA 
BLA BLA BLA BLA BLA BLA BLA BLA BLA BLA BLA BLA BLA BLA BLA BLA BLA BLA BLA BLA 
BLA BLA BLA BLA BLA BLA BLA BLA BLA BLA BLA BLA BLA BLA BLA BLA BLA BLA BLA BLA 
BLA BLA BLA BLA BLA BLA BLA BLA BLA BLA BLA BLA BLA BLA BLA BLA BLA BLA BLA BLA 
BLA BLA BLA BLA BLA BLA BLA BLA BLA BLA BLA BLA BLA BLA BLA BLA BLA BLA BLA BLA 
BLA BLA BLA BLA BLA BLA BLA BLA BLA BLA BLA BLA BLA BLA BLA BLA BLA BLA BLA BLA 
BLA BLA BLA BLA BLA BLA BLA BLA BLA BLA BLA BLA BLA BLA BLA BLA BLA BLA BLA BLA 
BLA BLA BLA BLA BLA BLA BLA BLA BLA BLA BLA BLA BLA BLA BLA BLA BLA BLA BLA BLA 
BLA BLA BLA BLA BLA BLA BLA BLA BLA BLA BLA BLA BLA BLA BLA BLA BLA BLA BLA BLA 
BLA BLA BLA BLA BLA BLA BLA BLA BLA BLA BLA BLA BLA BLA BLA BLA BLA BLA BLA BLA 
BLA BLA BLA BLA BLA BLA BLA BLA BLA BLA BLA BLA BLA BLA BLA BLA BLA BLA BLA BLA 
BLA BLA BLA BLA BLA BLA BLA BLA BLA BLA BLA BLA BLA BLA BLA BLA BLA BLA BLA BLA 
BLA BLA BLA BLA BLA BLA BLA BLA BLA BLA BLA BLA BLA BLA BLA BLA BLA BLA BLA BLA 
BLA BLA BLA BLA BLA BLA BLA BLA BLA BLA BLA BLA BLA BLA BLA BLA BLA BLA BLA BLA 
BLA BLA BLA BLA BLA BLA BLA BLA BLA BLA BLA BLA BLA BLA BLA BLA BLA BLA BLA BLA 
BLA BLA BLA BLA BLA BLA BLA BLA BLA BLA BLA BLA BLA BLA BLA BLA BLA BLA BLA BLA 
BLA BLA BLA BLA BLA BLA BLA BLA BLA BLA BLA BLA BLA BLA BLA BLA BLA BLA BLA BLA 
BLA BLA BLA BLA BLA BLA BLA BLA BLA BLA BLA BLA BLA BLA BLA BLA BLA BLA BLA BLA 
BLA BLA BLA BLA BLA BLA BLA BLA BLA BLA BLA BLA BLA BLA BLA BLA BLA BLA BLA BLA 
BLA BLA BLA BLA BLA BLA BLA BLA BLA BLA BLA BLA BLA BLA BLA BLA BLA BLA BLA BLA 
BLA BLA BLA BLA BLA BLA BLA BLA BLA BLA BLA BLA BLA BLA BLA BLA BLA BLA BLA BLA 
BLA BLA BLA BLA BLA BLA BLA BLA BLA BLA BLA BLA BLA BLA BLA BLA BLA BLA BLA BLA 
BLA BLA BLA BLA BLA BLA BLA BLA BLA BLA BLA BLA BLA BLA BLA BLA BLA BLA BLA BLA 
BLA BLA BLA BLA BLA BLA BLA BLA BLA BLA BLA BLA BLA BLA BLA BLA BLA BLA BLA BLA 
BLA BLA BLA BLA BLA BLA BLA BLA BLA BLA BLA BLA BLA BLA BLA BLA BLA BLA BLA BLA 
BLA BLA BLA BLA BLA BLA BLA BLA BLA BLA BLA BLA BLA BLA BLA BLA BLA BLA BLA BLA 
BLA BLA BLA BLA BLA BLA BLA BLA BLA BLA BLA BLA BLA BLA BLA BLA BLA BLA BLA BLA 
BLA BLA BLA BLA BLA BLA BLA BLA BLA BLA BLA BLA BLA BLA BLA BLA BLA BLA BLA BLA 
BLA BLA BLA BLA BLA BLA BLA BLA BLA BLA BLA BLA BLA BLA BLA BLA BLA BLA BLA BLA 
BLA BLA BLA BLA BLA BLA BLA BLA BLA BLA BLA BLA BLA BLA BLA BLA BLA BLA BLA BLA 
BLA BLA BLA BLA BLA BLA BLA BLA BLA BLA BLA BLA BLA BLA BLA BLA BLA BLA BLA BLA 
BLA BLA BLA BLA BLA BLA BLA BLA BLA BLA BLA BLA BLA BLA BLA BLA BLA BLA BLA BLA 
BLA BLA BLA BLA BLA BLA BLA BLA BLA BLA BLA BLA BLA BLA BLA BLA BLA BLA BLA BLA 
BLA BLA BLA BLA BLA BLA BLA BLA BLA BLA BLA BLA BLA BLA BLA BLA BLA BLA BLA BLA 
BLA BLA BLA BLA BLA BLA BLA BLA BLA BLA BLA BLA BLA BLA BLA BLA BLA BLA BLA BLA 
BLA BLA BLA BLA BLA BLA BLA BLA BLA BLA BLA BLA BLA BLA BLA BLA BLA BLA BLA BLA 
BLA BLA BLA BLA BLA BLA BLA BLA BLA BLA BLA BLA BLA BLA BLA BLA BLA BLA BLA BLA 
BLA BLA BLA BLA BLA BLA BLA BLA BLA BLA BLA BLA BLA BLA BLA BLA BLA BLA BLA BLA 
BLA BLA BLA BLA BLA BLA BLA BLA BLA BLA BLA BLA BLA BLA BLA BLA BLA BLA BLA BLA 
BLA BLA BLA BLA BLA BLA BLA BLA BLA BLA BLA BLA BLA BLA BLA BLA BLA BLA BLA BLA 
BLA BLA BLA BLA BLA BLA BLA BLA BLA BLA BLA BLA BLA BLA BLA BLA BLA BLA BLA BLA 
BLA BLA BLA BLA BLA BLA BLA BLA BLA BLA BLA BLA BLA BLA BLA BLA BLA BLA BLA BLA 
BLA BLA BLA BLA BLA BLA BLA BLA BLA BLA BLA BLA BLA BLA BLA BLA BLA BLA BLA BLA 
BLA BLA BLA BLA BLA BLA BLA BLA BLA BLA BLA BLA BLA BLA BLA BLA BLA BLA BLA BLA 
BLA BLA BLA BLA BLA BLA BLA BLA BLA BLA BLA BLA BLA BLA BLA BLA BLA BLA BLA BLA 
BLA BLA BLA BLA BLA BLA BLA BLA BLA BLA BLA BLA BLA BLA BLA BLA BLA BLA BLA BLA 
BLA BLA BLA BLA BLA BLA BLA BLA BLA BLA BLA BLA BLA BLA BLA BLA BLA BLA BLA BLA 
BLA BLA BLA BLA BLA BLA BLA BLA BLA BLA BLA BLA BLA BLA BLA BLA BLA BLA BLA BLA 
BLA BLA BLA BLA BLA BLA BLA BLA BLA BLA BLA BLA BLA BLA BLA BLA BLA BLA BLA BLA 
BLA BLA BLA BLA BLA BLA BLA BLA BLA BLA BLA BLA BLA BLA BLA BLA BLA BLA BLA BLA 
BLA BLA BLA BLA BLA BLA BLA BLA BLA BLA BLA BLA BLA BLA BLA BLA BLA BLA BLA BLA 
BLA BLA BLA BLA BLA BLA BLA BLA BLA BLA BLA BLA BLA BLA BLA BLA BLA BLA BLA BLA 
BLA BLA BLA BLA BLA BLA BLA BLA BLA BLA BLA BLA BLA BLA BLA BLA BLA BLA BLA BLA 
BLA BLA BLA BLA BLA BLA BLA BLA BLA BLA BLA BLA BLA BLA BLA BLA BLA BLA BLA BLA 
BLA BLA BLA BLA BLA BLA BLA BLA BLA BLA BLA BLA BLA BLA BLA BLA BLA BLA BLA BLA 
BLA BLA BLA BLA BLA BLA BLA BLA BLA BLA BLA BLA BLA BLA BLA BLA BLA BLA BLA BLA 
BLA BLA BLA BLA BLA BLA BLA BLA BLA BLA BLA BLA BLA BLA BLA BLA BLA BLA BLA BLA 
BLA BLA BLA BLA BLA BLA BLA BLA BLA BLA BLA BLA BLA BLA BLA BLA BLA BLA BLA BLA 
BLA BLA BLA BLA BLA BLA BLA BLA BLA BLA BLA BLA BLA BLA BLA BLA BLA BLA BLA BLA 
BLA BLA BLA BLA BLA BLA BLA BLA BLA BLA BLA BLA BLA BLA BLA BLA BLA BLA BLA BLA 
BLA BLA BLA BLA BLA BLA BLA BLA BLA BLA BLA BLA BLA BLA BLA BLA BLA BLA BLA BLA 
BLA BLA BLA BLA BLA BLA BLA BLA BLA BLA BLA BLA BLA BLA BLA BLA BLA BLA BLA BLA 
BLA BLA BLA BLA BLA BLA BLA BLA BLA BLA BLA BLA BLA BLA BLA BLA BLA BLA BLA BLA 
BLA BLA BLA BLA BLA BLA BLA BLA BLA BLA BLA BLA BLA BLA BLA BLA BLA BLA BLA BLA 
BLA BLA BLA BLA BLA BLA BLA BLA BLA BLA BLA BLA BLA BLA BLA BLA BLA BLA BLA BLA 
BLA BLA BLA BLA BLA BLA BLA BLA BLA BLA BLA BLA BLA BLA BLA BLA BLA BLA BLA BLA 
BLA BLA BLA BLA BLA BLA BLA BLA BLA BLA BLA BLA BLA BLA BLA BLA BLA BLA BLA BLA 
BLA BLA BLA BLA BLA BLA BLA BLA BLA BLA BLA BLA BLA BLA BLA BLA BLA BLA BLA BLA 
BLA BLA BLA BLA BLA BLA BLA BLA BLA BLA BLA BLA BLA BLA BLA BLA BLA BLA BLA BLA 
BLA BLA BLA BLA BLA BLA BLA BLA BLA BLA BLA BLA BLA BLA BLA BLA BLA BLA BLA BLA 
BLA BLA BLA BLA BLA BLA BLA BLA BLA BLA BLA BLA BLA BLA BLA BLA BLA BLA BLA BLA 
BLA BLA BLA BLA BLA BLA BLA BLA BLA BLA BLA BLA BLA BLA BLA BLA BLA BLA BLA BLA 
BLA BLA BLA BLA BLA BLA BLA BLA BLA BLA BLA BLA BLA BLA BLA BLA BLA BLA BLA BLA 
BLA BLA BLA BLA BLA BLA BLA BLA BLA BLA BLA BLA BLA BLA BLA BLA BLA BLA BLA BLA 
BLA BLA BLA BLA BLA BLA BLA BLA BLA BLA BLA BLA BLA BLA BLA BLA BLA BLA BLA BLA 
BLA BLA BLA BLA BLA BLA BLA BLA BLA BLA BLA BLA BLA BLA BLA BLA BLA BLA BLA BLA 
BLA BLA BLA BLA BLA BLA BLA BLA BLA BLA BLA BLA BLA BLA BLA BLA BLA BLA BLA BLA 
BLA BLA BLA BLA BLA BLA BLA BLA BLA BLA BLA BLA BLA BLA BLA BLA BLA BLA BLA BLA 
BLA BLA BLA BLA BLA BLA BLA BLA BLA BLA BLA BLA BLA BLA BLA BLA BLA BLA BLA BLA 
BLA BLA BLA BLA BLA BLA BLA BLA BLA BLA BLA BLA BLA BLA BLA BLA BLA BLA BLA BLA 
BLA BLA BLA BLA BLA BLA BLA BLA BLA BLA BLA BLA BLA BLA BLA BLA BLA BLA BLA BLA 
BLA BLA BLA BLA BLA BLA BLA BLA BLA BLA BLA BLA BLA BLA BLA BLA BLA BLA BLA BLA 
BLA BLA BLA BLA BLA BLA BLA BLA BLA BLA BLA BLA BLA BLA BLA BLA BLA BLA BLA BLA 
BLA BLA BLA BLA BLA BLA BLA BLA BLA BLA BLA BLA BLA BLA BLA BLA BLA BLA BLA BLA 
BLA BLA BLA BLA BLA BLA BLA BLA BLA BLA BLA BLA BLA BLA BLA BLA BLA BLA BLA BLA 
BLA BLA BLA BLA BLA BLA BLA BLA BLA BLA BLA BLA BLA BLA BLA BLA BLA BLA BLA BLA 
BLA BLA BLA BLA BLA BLA BLA BLA BLA BLA BLA BLA BLA BLA BLA BLA BLA BLA BLA BLA 
BLA BLA BLA BLA BLA BLA BLA BLA BLA BLA BLA BLA BLA BLA BLA BLA BLA BLA BLA BLA 
BLA BLA BLA BLA BLA BLA BLA BLA BLA BLA BLA BLA BLA BLA BLA BLA BLA BLA BLA BLA 
BLA BLA BLA BLA BLA BLA BLA BLA BLA BLA BLA BLA BLA BLA BLA BLA BLA BLA BLA BLA 
BLA BLA BLA BLA BLA BLA BLA BLA BLA BLA BLA BLA BLA BLA BLA BLA BLA BLA BLA BLA 
BLA BLA BLA BLA BLA BLA BLA BLA BLA BLA BLA BLA BLA BLA BLA BLA BLA BLA BLA BLA 
BLA BLA BLA BLA BLA BLA BLA BLA BLA BLA BLA BLA BLA BLA BLA BLA BLA BLA BLA BLA 
BLA BLA BLA BLA BLA BLA BLA BLA BLA BLA BLA BLA BLA BLA BLA BLA BLA BLA BLA BLA 
BLA BLA BLA BLA BLA BLA BLA BLA BLA BLA BLA BLA BLA BLA BLA BLA BLA BLA BLA BLA 
BLA BLA BLA BLA BLA BLA BLA BLA BLA BLA BLA BLA BLA BLA BLA BLA BLA BLA BLA BLA 
BLA BLA BLA BLA BLA BLA BLA BLA BLA BLA BLA BLA BLA BLA BLA BLA BLA BLA BLA BLA 
BLA BLA BLA BLA BLA BLA BLA BLA BLA BLA BLA BLA BLA BLA BLA BLA BLA BLA BLA BLA 
BLA BLA BLA BLA BLA BLA BLA BLA BLA BLA BLA BLA BLA BLA BLA BLA BLA BLA BLA BLA 
BLA BLA BLA BLA BLA BLA BLA BLA BLA BLA BLA BLA BLA BLA BLA BLA BLA BLA BLA BLA 
BLA BLA BLA BLA BLA BLA BLA BLA BLA BLA BLA BLA BLA BLA BLA BLA BLA BLA BLA BLA 
BLA BLA BLA BLA BLA BLA BLA BLA BLA BLA BLA BLA BLA BLA BLA BLA BLA BLA BLA BLA 
BLA BLA BLA BLA BLA BLA BLA BLA BLA BLA BLA BLA BLA BLA BLA BLA BLA BLA BLA BLA 
BLA BLA BLA BLA BLA BLA BLA BLA BLA BLA BLA BLA BLA BLA BLA BLA BLA BLA BLA BLA 
BLA BLA BLA BLA BLA BLA BLA BLA BLA BLA BLA BLA BLA BLA BLA BLA BLA BLA BLA BLA 
BLA BLA BLA BLA BLA BLA BLA BLA BLA BLA BLA BLA BLA BLA BLA BLA BLA BLA BLA BLA 
BLA BLA BLA BLA BLA BLA BLA BLA BLA BLA BLA BLA BLA BLA BLA BLA BLA BLA BLA BLA 
BLA BLA BLA BLA BLA BLA BLA BLA BLA BLA BLA BLA BLA BLA BLA BLA BLA BLA BLA BLA 
BLA BLA BLA BLA BLA BLA BLA BLA BLA BLA BLA BLA BLA BLA BLA BLA BLA BLA BLA BLA 
BLA BLA BLA BLA BLA BLA BLA BLA BLA BLA BLA BLA BLA BLA BLA BLA BLA BLA BLA BLA 
BLA BLA BLA BLA BLA BLA BLA BLA BLA BLA BLA BLA BLA BLA BLA BLA BLA BLA BLA BLA 
BLA BLA BLA BLA BLA BLA BLA BLA BLA BLA BLA BLA BLA BLA BLA BLA BLA BLA BLA BLA 
BLA BLA BLA BLA BLA BLA BLA BLA BLA BLA BLA BLA BLA BLA BLA BLA BLA BLA BLA BLA 
BLA BLA BLA BLA BLA BLA BLA BLA BLA BLA BLA BLA BLA BLA BLA BLA BLA BLA BLA BLA 
BLA BLA BLA BLA BLA BLA BLA BLA BLA BLA BLA BLA BLA BLA BLA BLA BLA BLA BLA BLA 
BLA BLA BLA BLA BLA BLA BLA BLA BLA BLA BLA BLA BLA BLA BLA BLA BLA BLA BLA BLA 
BLA BLA BLA BLA BLA BLA BLA BLA BLA BLA BLA BLA BLA BLA BLA BLA BLA BLA BLA BLA 
BLA BLA BLA BLA BLA BLA BLA BLA BLA BLA BLA BLA BLA BLA BLA BLA BLA BLA BLA BLA 
BLA BLA BLA BLA BLA BLA BLA BLA BLA BLA BLA BLA BLA BLA BLA BLA BLA BLA BLA BLA 
BLA BLA BLA BLA BLA BLA BLA BLA BLA BLA BLA BLA BLA BLA BLA BLA BLA BLA BLA BLA 
BLA BLA BLA BLA BLA BLA BLA BLA BLA BLA BLA BLA BLA BLA BLA BLA BLA BLA BLA BLA 
BLA BLA BLA BLA BLA BLA BLA BLA BLA BLA BLA BLA BLA BLA BLA BLA BLA BLA BLA BLA 
BLA BLA BLA BLA BLA BLA BLA BLA BLA BLA BLA BLA BLA BLA BLA BLA BLA BLA BLA BLA 
BLA BLA BLA BLA BLA BLA BLA BLA BLA BLA BLA BLA BLA BLA BLA BLA BLA BLA BLA BLA 
BLA BLA BLA BLA BLA BLA BLA BLA BLA BLA BLA BLA BLA BLA BLA BLA BLA BLA BLA BLA 
BLA BLA BLA BLA BLA BLA BLA BLA BLA BLA BLA BLA BLA BLA BLA BLA BLA BLA BLA BLA 
BLA BLA BLA BLA BLA BLA BLA BLA BLA BLA BLA BLA BLA BLA BLA BLA BLA BLA BLA BLA 
BLA BLA BLA BLA BLA BLA BLA BLA BLA BLA BLA BLA BLA BLA BLA BLA BLA BLA BLA BLA 
BLA BLA BLA BLA BLA BLA BLA BLA BLA BLA BLA BLA BLA BLA BLA BLA BLA BLA BLA BLA 
BLA BLA BLA BLA BLA BLA BLA BLA BLA BLA BLA BLA BLA BLA BLA BLA BLA BLA BLA BLA 
BLA BLA BLA BLA BLA BLA BLA BLA BLA BLA BLA BLA BLA BLA BLA BLA BLA BLA BLA BLA 
BLA BLA BLA BLA BLA BLA BLA BLA BLA BLA BLA BLA BLA BLA BLA BLA BLA BLA BLA BLA 
BLA BLA BLA BLA BLA BLA BLA BLA BLA BLA BLA BLA BLA BLA BLA BLA BLA BLA BLA BLA 
BLA BLA BLA BLA BLA BLA BLA BLA BLA BLA BLA BLA BLA BLA BLA BLA BLA BLA BLA BLA 
BLA BLA BLA BLA BLA BLA BLA BLA BLA BLA BLA BLA BLA BLA BLA BLA BLA BLA BLA BLA 
BLA BLA BLA BLA BLA BLA BLA BLA BLA BLA BLA BLA BLA BLA BLA BLA BLA BLA BLA BLA 
BLA BLA BLA BLA BLA BLA BLA BLA BLA BLA BLA BLA BLA BLA BLA BLA BLA BLA BLA BLA 
BLA BLA BLA BLA BLA BLA BLA BLA BLA BLA BLA BLA BLA BLA BLA BLA BLA BLA BLA BLA 
BLA BLA BLA BLA BLA BLA BLA BLA BLA BLA BLA BLA BLA BLA BLA BLA BLA BLA BLA BLA 
BLA BLA BLA BLA BLA BLA BLA BLA BLA BLA BLA BLA BLA BLA BLA BLA BLA BLA BLA BLA 
BLA BLA BLA BLA BLA BLA BLA BLA BLA BLA BLA BLA BLA BLA BLA BLA BLA BLA BLA BLA 
BLA BLA BLA BLA BLA BLA BLA BLA BLA BLA BLA BLA BLA BLA BLA BLA BLA BLA BLA BLA 
BLA BLA BLA BLA BLA BLA BLA BLA BLA BLA BLA BLA BLA BLA BLA BLA BLA BLA BLA BLA 
BLA BLA BLA BLA BLA BLA BLA BLA BLA BLA BLA BLA BLA BLA BLA BLA BLA BLA BLA BLA 
BLA BLA BLA BLA BLA BLA BLA BLA BLA BLA BLA BLA BLA BLA BLA BLA BLA BLA BLA BLA 
BLA BLA BLA BLA BLA BLA BLA BLA BLA BLA BLA BLA BLA BLA BLA BLA BLA BLA BLA BLA 
BLA BLA BLA BLA BLA BLA BLA BLA BLA BLA BLA BLA BLA BLA BLA BLA BLA BLA BLA BLA 
BLA BLA BLA BLA BLA BLA BLA BLA BLA BLA BLA BLA BLA BLA BLA BLA BLA BLA BLA BLA 
BLA BLA BLA BLA BLA BLA BLA BLA BLA BLA BLA BLA BLA BLA BLA BLA BLA BLA BLA BLA 
BLA BLA BLA BLA BLA BLA BLA BLA BLA BLA BLA BLA BLA BLA BLA BLA BLA BLA BLA BLA 
BLA BLA BLA BLA BLA BLA BLA BLA BLA BLA BLA BLA BLA BLA BLA BLA BLA BLA BLA BLA 
BLA BLA BLA BLA BLA BLA BLA BLA BLA BLA BLA BLA BLA BLA BLA BLA BLA BLA BLA BLA 
BLA BLA BLA BLA BLA BLA BLA BLA BLA BLA BLA BLA BLA BLA BLA BLA BLA BLA BLA BLA 
BLA BLA BLA BLA BLA BLA BLA BLA BLA BLA BLA BLA BLA BLA BLA BLA BLA BLA BLA BLA 
BLA BLA BLA BLA BLA BLA BLA BLA BLA BLA BLA BLA BLA BLA BLA BLA BLA BLA BLA BLA 
BLA BLA BLA BLA BLA BLA BLA BLA BLA BLA BLA BLA BLA BLA BLA BLA BLA BLA BLA BLA 
BLA BLA BLA BLA BLA BLA BLA BLA BLA BLA BLA BLA BLA BLA BLA BLA BLA BLA BLA BLA 
BLA BLA BLA BLA BLA BLA BLA BLA BLA BLA BLA BLA BLA BLA BLA BLA BLA BLA BLA BLA 
BLA BLA BLA BLA BLA BLA BLA BLA BLA BLA BLA BLA BLA BLA BLA BLA BLA BLA BLA BLA 
BLA BLA BLA BLA BLA BLA BLA BLA BLA BLA BLA BLA BLA BLA BLA BLA BLA BLA BLA BLA 
BLA BLA BLA BLA BLA BLA BLA BLA BLA BLA BLA BLA BLA BLA BLA BLA BLA BLA BLA BLA 
BLA BLA BLA BLA BLA BLA BLA BLA BLA BLA BLA BLA BLA BLA BLA BLA BLA BLA BLA BLA 
BLA BLA BLA BLA BLA BLA BLA BLA BLA BLA BLA BLA BLA BLA BLA BLA BLA BLA BLA BLA 
BLA BLA BLA BLA BLA BLA BLA BLA BLA BLA BLA BLA BLA BLA BLA BLA BLA BLA BLA BLA 
BLA BLA BLA BLA BLA BLA BLA BLA BLA BLA BLA BLA BLA BLA BLA BLA BLA BLA BLA BLA 
BLA BLA BLA BLA BLA BLA BLA BLA BLA BLA BLA BLA BLA BLA BLA BLA BLA BLA BLA BLA 
BLA BLA BLA BLA BLA BLA BLA BLA BLA BLA BLA BLA BLA BLA BLA BLA BLA BLA BLA BLA 
BLA BLA BLA BLA BLA BLA BLA BLA BLA BLA BLA BLA BLA BLA BLA BLA BLA BLA BLA BLA 
BLA BLA BLA BLA BLA BLA BLA BLA BLA BLA BLA BLA BLA BLA BLA BLA BLA BLA BLA BLA 
BLA BLA BLA BLA BLA BLA BLA BLA BLA BLA BLA BLA BLA BLA BLA BLA BLA BLA BLA BLA 
BLA BLA BLA BLA BLA BLA BLA BLA BLA BLA BLA BLA BLA BLA BLA BLA BLA BLA BLA BLA 
BLA BLA BLA BLA BLA BLA BLA BLA BLA BLA BLA BLA BLA BLA BLA BLA BLA BLA BLA BLA 
BLA BLA BLA BLA BLA BLA BLA BLA BLA BLA BLA BLA BLA BLA BLA BLA BLA BLA BLA BLA 
BLA BLA BLA BLA BLA BLA BLA BLA BLA BLA BLA BLA BLA BLA BLA BLA BLA BLA BLA BLA 
BLA BLA BLA BLA BLA BLA BLA BLA BLA BLA BLA BLA BLA BLA BLA BLA BLA BLA BLA BLA 
BLA BLA BLA BLA BLA BLA BLA BLA BLA BLA BLA BLA BLA BLA BLA BLA BLA BLA BLA BLA 
BLA BLA BLA BLA BLA BLA BLA BLA BLA BLA BLA BLA BLA BLA BLA BLA BLA BLA BLA BLA 
BLA BLA BLA BLA BLA BLA BLA BLA BLA BLA BLA BLA BLA BLA BLA BLA BLA BLA BLA BLA 
BLA BLA BLA BLA BLA BLA BLA BLA BLA BLA BLA BLA BLA BLA BLA BLA BLA BLA BLA BLA 
BLA BLA BLA BLA BLA BLA BLA BLA BLA BLA BLA BLA BLA BLA BLA BLA BLA BLA BLA BLA 
BLA BLA BLA BLA BLA BLA BLA BLA BLA BLA BLA BLA BLA BLA BLA BLA BLA BLA BLA BLA 
BLA BLA BLA BLA BLA BLA BLA BLA BLA BLA BLA BLA BLA BLA BLA BLA BLA BLA BLA BLA 
BLA BLA BLA BLA BLA BLA BLA BLA BLA BLA BLA BLA BLA BLA BLA BLA BLA BLA BLA BLA 
BLA BLA BLA BLA BLA BLA BLA BLA BLA BLA BLA BLA BLA BLA BLA BLA BLA BLA BLA BLA 
BLA BLA BLA BLA BLA BLA BLA BLA BLA BLA BLA BLA BLA BLA BLA BLA BLA BLA BLA BLA 
BLA BLA BLA BLA BLA BLA BLA BLA BLA BLA BLA BLA BLA BLA BLA BLA BLA BLA BLA BLA 
BLA BLA BLA BLA BLA BLA BLA BLA BLA BLA BLA BLA BLA BLA BLA BLA BLA BLA BLA BLA 
BLA BLA BLA BLA BLA BLA BLA BLA BLA BLA BLA BLA BLA BLA BLA BLA BLA BLA BLA BLA 
BLA BLA BLA BLA BLA BLA BLA BLA BLA BLA BLA BLA BLA BLA BLA BLA BLA BLA BLA BLA 
BLA BLA BLA BLA BLA BLA BLA BLA BLA BLA BLA BLA BLA BLA BLA BLA BLA BLA BLA BLA 
BLA BLA BLA BLA BLA BLA BLA BLA BLA BLA BLA BLA BLA BLA BLA BLA BLA BLA BLA BLA 
BLA BLA BLA BLA BLA BLA BLA BLA BLA BLA BLA BLA BLA BLA BLA BLA BLA BLA BLA BLA 
BLA BLA BLA BLA BLA BLA BLA BLA BLA BLA BLA BLA BLA BLA BLA BLA BLA BLA BLA BLA 
BLA BLA BLA BLA BLA BLA BLA BLA BLA BLA BLA BLA BLA BLA BLA BLA BLA BLA BLA BLA 
BLA BLA BLA BLA BLA BLA BLA BLA BLA BLA BLA BLA BLA BLA BLA BLA BLA BLA BLA BLA 
BLA BLA BLA BLA BLA BLA BLA BLA BLA BLA BLA BLA BLA BLA BLA BLA BLA BLA BLA BLA 
BLA BLA BLA BLA BLA BLA BLA BLA BLA BLA BLA BLA BLA BLA BLA BLA BLA BLA BLA BLA 
BLA BLA BLA BLA BLA BLA BLA BLA BLA BLA BLA BLA BLA BLA BLA BLA BLA BLA BLA BLA 
BLA BLA BLA BLA BLA BLA BLA BLA BLA BLA BLA BLA BLA BLA BLA BLA BLA BLA BLA BLA 
BLA BLA BLA BLA BLA BLA BLA BLA BLA BLA BLA BLA BLA BLA BLA BLA BLA BLA BLA BLA 
BLA BLA BLA BLA BLA BLA BLA BLA BLA BLA BLA BLA BLA BLA BLA BLA BLA BLA BLA BLA 
BLA BLA BLA BLA BLA BLA BLA BLA BLA BLA BLA BLA BLA BLA BLA BLA BLA BLA BLA BLA 
BLA BLA BLA BLA BLA BLA BLA BLA BLA BLA BLA BLA BLA BLA BLA BLA BLA BLA BLA BLA 
BLA BLA BLA BLA BLA BLA BLA BLA BLA BLA BLA BLA BLA BLA BLA BLA BLA BLA BLA BLA 
BLA BLA BLA BLA BLA BLA BLA BLA BLA BLA BLA BLA BLA BLA BLA BLA BLA BLA BLA BLA 
BLA BLA BLA BLA BLA BLA BLA BLA BLA BLA BLA BLA BLA BLA BLA BLA BLA BLA BLA BLA 
BLA BLA BLA BLA BLA BLA BLA BLA BLA BLA BLA BLA BLA BLA BLA BLA BLA BLA BLA BLA 
BLA BLA BLA BLA BLA BLA BLA BLA BLA BLA BLA BLA BLA BLA BLA BLA BLA BLA BLA BLA 
BLA BLA BLA BLA BLA BLA BLA BLA BLA BLA BLA BLA BLA BLA BLA BLA BLA BLA BLA BLA 
BLA BLA BLA BLA BLA BLA BLA BLA BLA BLA BLA BLA BLA BLA BLA BLA BLA BLA BLA BLA 
BLA BLA BLA BLA BLA BLA BLA BLA BLA BLA BLA BLA BLA BLA BLA BLA BLA BLA BLA BLA 
BLA BLA BLA BLA BLA BLA BLA BLA BLA BLA BLA BLA BLA BLA BLA BLA BLA BLA BLA BLA 
BLA BLA BLA BLA BLA BLA BLA BLA BLA BLA BLA BLA BLA BLA BLA BLA BLA BLA BLA BLA 
BLA BLA BLA BLA BLA BLA BLA BLA BLA BLA BLA BLA BLA BLA BLA BLA BLA BLA BLA BLA 
BLA BLA BLA BLA BLA BLA BLA BLA BLA BLA BLA BLA BLA BLA BLA BLA BLA BLA BLA BLA 
BLA BLA BLA BLA BLA BLA BLA BLA BLA BLA BLA BLA BLA BLA BLA BLA BLA BLA BLA BLA 
BLA BLA BLA BLA BLA BLA BLA BLA BLA BLA BLA BLA BLA BLA BLA BLA BLA BLA BLA BLA 
BLA BLA BLA BLA BLA BLA BLA BLA BLA BLA BLA BLA BLA BLA BLA BLA BLA BLA BLA BLA 
BLA BLA BLA BLA BLA BLA BLA BLA BLA BLA BLA BLA BLA BLA BLA BLA BLA BLA BLA BLA 
BLA BLA BLA BLA BLA BLA BLA BLA BLA BLA BLA BLA BLA BLA BLA BLA BLA BLA BLA BLA 
BLA BLA BLA BLA BLA BLA BLA BLA BLA BLA BLA BLA BLA BLA BLA BLA BLA BLA BLA BLA 
BLA BLA BLA BLA BLA BLA BLA BLA BLA BLA BLA BLA BLA BLA BLA BLA BLA BLA BLA BLA 
BLA BLA BLA BLA BLA BLA BLA BLA BLA BLA BLA BLA BLA BLA BLA BLA BLA BLA BLA BLA 
BLA BLA BLA BLA BLA BLA BLA BLA BLA BLA BLA BLA BLA BLA BLA BLA BLA BLA BLA BLA 
BLA BLA BLA BLA BLA BLA BLA BLA BLA BLA BLA BLA BLA BLA BLA BLA BLA BLA BLA BLA 
BLA BLA BLA BLA BLA BLA BLA BLA BLA BLA BLA BLA BLA BLA BLA BLA BLA BLA BLA BLA 
BLA BLA BLA BLA BLA BLA BLA BLA BLA BLA BLA BLA BLA BLA BLA BLA BLA BLA BLA BLA 
BLA BLA BLA BLA BLA BLA BLA BLA BLA BLA BLA BLA BLA BLA BLA BLA BLA BLA BLA BLA 
BLA BLA BLA BLA BLA BLA BLA BLA BLA BLA BLA BLA BLA BLA BLA BLA BLA BLA BLA BLA 
BLA BLA BLA BLA BLA BLA BLA BLA BLA BLA BLA BLA BLA BLA BLA BLA BLA BLA BLA BLA 
BLA BLA BLA BLA BLA BLA BLA BLA BLA BLA BLA BLA BLA BLA BLA BLA BLA BLA BLA BLA 
BLA BLA BLA BLA BLA BLA BLA BLA BLA BLA BLA BLA BLA BLA BLA BLA BLA BLA BLA BLA 
BLA BLA BLA BLA BLA BLA BLA BLA BLA BLA BLA BLA BLA BLA BLA BLA BLA BLA BLA BLA 
BLA BLA BLA BLA BLA BLA BLA BLA BLA BLA BLA BLA BLA BLA BLA BLA BLA BLA BLA BLA 
BLA BLA BLA BLA BLA BLA BLA BLA BLA BLA BLA BLA BLA BLA BLA BLA BLA BLA BLA BLA 
BLA BLA BLA BLA BLA BLA BLA BLA BLA BLA BLA BLA BLA BLA BLA BLA BLA BLA BLA BLA 
BLA BLA BLA BLA BLA BLA BLA BLA BLA BLA BLA BLA BLA BLA BLA BLA BLA BLA BLA BLA 
BLA BLA BLA BLA BLA BLA BLA BLA BLA BLA BLA BLA BLA BLA BLA BLA BLA BLA BLA BLA 
BLA BLA BLA BLA BLA BLA BLA BLA BLA BLA BLA BLA BLA BLA BLA BLA BLA BLA BLA BLA 
BLA BLA BLA BLA BLA BLA BLA BLA BLA BLA BLA BLA BLA BLA BLA BLA BLA BLA BLA BLA 
BLA BLA BLA BLA BLA BLA BLA BLA BLA BLA BLA BLA BLA BLA BLA BLA BLA BLA BLA BLA 
BLA BLA BLA BLA BLA BLA BLA BLA BLA BLA BLA BLA BLA BLA BLA BLA BLA BLA BLA BLA 
BLA BLA BLA BLA BLA BLA BLA BLA BLA BLA BLA BLA BLA BLA BLA BLA BLA BLA BLA BLA 
BLA BLA BLA BLA BLA BLA BLA BLA BLA BLA BLA BLA BLA BLA BLA BLA BLA BLA BLA BLA 
BLA BLA BLA BLA BLA BLA BLA BLA BLA BLA BLA BLA BLA BLA BLA BLA BLA BLA BLA BLA 
BLA BLA BLA BLA BLA BLA BLA BLA BLA BLA BLA BLA BLA BLA BLA BLA BLA BLA BLA BLA 
BLA BLA BLA BLA BLA BLA BLA BLA BLA BLA BLA BLA BLA BLA BLA BLA BLA BLA BLA BLA 
BLA BLA BLA BLA BLA BLA BLA BLA BLA BLA BLA BLA BLA BLA BLA BLA BLA BLA BLA BLA 
BLA BLA BLA BLA BLA BLA BLA BLA BLA BLA BLA BLA BLA BLA BLA BLA BLA BLA BLA BLA 
BLA BLA BLA BLA BLA BLA BLA BLA BLA BLA BLA BLA BLA BLA BLA BLA BLA BLA BLA BLA 
BLA BLA BLA BLA BLA BLA BLA BLA BLA BLA BLA BLA BLA BLA BLA BLA BLA BLA BLA BLA 
BLA BLA BLA BLA BLA BLA BLA BLA BLA BLA BLA BLA BLA BLA BLA BLA BLA BLA BLA BLA 
BLA BLA BLA BLA BLA BLA BLA BLA BLA BLA BLA BLA BLA BLA BLA BLA BLA BLA BLA BLA 
BLA BLA BLA BLA BLA BLA BLA BLA BLA BLA BLA BLA BLA BLA BLA BLA BLA BLA BLA BLA 
BLA BLA BLA BLA BLA BLA BLA BLA BLA BLA BLA BLA BLA BLA BLA BLA BLA BLA BLA BLA 
BLA BLA BLA BLA BLA BLA BLA BLA BLA BLA BLA BLA BLA BLA BLA BLA BLA BLA BLA BLA 
BLA BLA BLA BLA BLA BLA BLA BLA BLA BLA BLA BLA BLA BLA BLA BLA BLA BLA BLA BLA 
BLA BLA BLA BLA BLA BLA BLA BLA BLA BLA BLA BLA BLA BLA BLA BLA BLA BLA BLA BLA 
BLA BLA BLA BLA BLA BLA BLA BLA BLA BLA BLA BLA BLA BLA BLA BLA BLA BLA BLA BLA 
BLA BLA BLA BLA BLA BLA BLA BLA BLA BLA BLA BLA BLA BLA BLA BLA BLA BLA BLA BLA 
BLA BLA BLA BLA BLA BLA BLA BLA BLA BLA BLA BLA BLA BLA BLA BLA BLA BLA BLA BLA 
BLA BLA BLA BLA BLA BLA BLA BLA BLA BLA BLA BLA BLA BLA BLA BLA BLA BLA BLA BLA 
BLA BLA BLA BLA BLA BLA BLA BLA BLA BLA BLA BLA BLA BLA BLA BLA BLA BLA BLA BLA 
BLA BLA BLA BLA BLA BLA BLA BLA BLA BLA BLA BLA BLA BLA BLA BLA BLA BLA BLA BLA 
BLA BLA BLA BLA BLA BLA BLA BLA BLA BLA BLA BLA BLA BLA BLA BLA BLA BLA BLA BLA 
BLA BLA BLA BLA BLA BLA BLA BLA BLA BLA BLA BLA BLA BLA BLA BLA BLA BLA BLA BLA 
BLA BLA BLA BLA BLA BLA BLA BLA BLA BLA BLA BLA BLA BLA BLA BLA BLA BLA BLA BLA 
BLA BLA BLA BLA BLA BLA BLA BLA BLA BLA BLA BLA BLA BLA BLA BLA BLA BLA BLA BLA 
BLA BLA BLA BLA BLA BLA BLA BLA BLA BLA BLA BLA BLA BLA BLA BLA BLA BLA BLA BLA 
BLA BLA BLA BLA BLA BLA BLA BLA BLA BLA BLA BLA BLA BLA BLA BLA BLA BLA BLA BLA 
BLA BLA BLA BLA BLA BLA BLA BLA BLA BLA BLA BLA BLA BLA BLA BLA BLA BLA BLA BLA 
BLA BLA BLA BLA BLA BLA BLA BLA BLA BLA BLA BLA BLA BLA BLA BLA BLA BLA BLA BLA 
BLA BLA BLA BLA BLA BLA BLA BLA BLA BLA BLA BLA BLA BLA BLA BLA BLA BLA BLA BLA 
BLA BLA BLA BLA BLA BLA BLA BLA BLA BLA BLA BLA BLA BLA BLA BLA BLA BLA BLA BLA 
BLA BLA BLA BLA BLA BLA BLA BLA BLA BLA BLA BLA BLA BLA BLA BLA BLA BLA BLA BLA 
BLA BLA BLA BLA BLA BLA BLA BLA BLA BLA BLA BLA BLA BLA BLA BLA BLA BLA BLA BLA 
BLA BLA BLA BLA BLA BLA BLA BLA BLA BLA BLA BLA BLA BLA BLA BLA BLA BLA BLA BLA 
BLA BLA BLA BLA BLA BLA BLA BLA BLA BLA BLA BLA BLA BLA BLA BLA BLA BLA BLA BLA 
BLA BLA BLA BLA BLA BLA BLA BLA BLA BLA BLA BLA BLA BLA BLA BLA BLA BLA BLA BLA 
BLA BLA BLA BLA BLA BLA BLA BLA BLA BLA BLA BLA BLA BLA BLA BLA BLA BLA BLA BLA 
BLA BLA BLA BLA BLA BLA BLA BLA BLA BLA BLA BLA BLA BLA BLA BLA BLA BLA BLA BLA 
BLA BLA BLA BLA BLA BLA BLA BLA BLA BLA BLA BLA BLA BLA BLA BLA BLA BLA BLA BLA 
BLA BLA BLA BLA BLA BLA BLA BLA BLA BLA BLA BLA BLA BLA BLA BLA BLA BLA BLA BLA 
BLA BLA BLA BLA BLA BLA BLA BLA BLA BLA BLA BLA BLA BLA BLA BLA BLA BLA BLA BLA 
BLA BLA BLA BLA BLA BLA BLA BLA BLA BLA BLA BLA BLA BLA BLA BLA BLA BLA BLA BLA 
BLA BLA BLA BLA BLA BLA BLA BLA BLA BLA BLA BLA BLA BLA BLA BLA BLA BLA BLA BLA 
BLA BLA BLA BLA BLA BLA BLA BLA BLA BLA BLA BLA BLA BLA BLA BLA BLA BLA BLA BLA 
BLA BLA BLA BLA BLA BLA BLA BLA BLA BLA BLA BLA BLA BLA BLA BLA BLA BLA BLA BLA 
BLA BLA BLA BLA BLA BLA BLA BLA BLA BLA BLA BLA BLA BLA BLA BLA BLA BLA BLA BLA 
BLA BLA BLA BLA BLA BLA BLA BLA BLA BLA BLA BLA BLA BLA BLA BLA BLA BLA BLA BLA 
BLA BLA BLA BLA BLA BLA BLA BLA BLA BLA BLA BLA BLA BLA BLA BLA BLA BLA BLA BLA 
BLA BLA BLA BLA BLA BLA BLA BLA BLA BLA BLA BLA BLA BLA BLA BLA BLA BLA BLA BLA 
BLA BLA BLA BLA BLA BLA BLA BLA BLA BLA BLA BLA BLA BLA BLA BLA BLA BLA BLA BLA 
BLA BLA BLA BLA BLA BLA BLA BLA BLA BLA BLA BLA BLA BLA BLA BLA BLA BLA BLA BLA 
BLA BLA BLA BLA BLA BLA BLA BLA BLA BLA BLA BLA BLA BLA BLA BLA BLA BLA BLA BLA 
BLA BLA BLA BLA BLA BLA BLA BLA BLA BLA BLA BLA BLA BLA BLA BLA BLA BLA BLA BLA 
BLA BLA BLA BLA BLA BLA BLA BLA BLA BLA BLA BLA BLA BLA BLA BLA BLA BLA BLA BLA 
BLA BLA BLA BLA BLA BLA BLA BLA BLA BLA BLA BLA BLA BLA BLA BLA BLA BLA BLA BLA 
BLA BLA BLA BLA BLA BLA BLA BLA BLA BLA BLA BLA BLA BLA BLA BLA BLA BLA BLA BLA 
BLA BLA BLA BLA BLA BLA BLA BLA BLA BLA BLA BLA BLA BLA BLA BLA BLA BLA BLA BLA 
BLA BLA BLA BLA BLA BLA BLA BLA BLA BLA BLA BLA BLA BLA BLA BLA BLA BLA BLA BLA 
BLA BLA BLA BLA BLA BLA BLA BLA BLA BLA BLA BLA BLA BLA BLA BLA BLA BLA BLA BLA 
BLA BLA BLA BLA BLA BLA BLA BLA BLA BLA BLA BLA BLA BLA BLA BLA BLA BLA BLA BLA 
BLA BLA BLA BLA BLA BLA BLA BLA BLA BLA BLA BLA BLA BLA BLA BLA BLA BLA BLA BLA 
BLA BLA BLA BLA BLA BLA BLA BLA BLA BLA BLA BLA BLA BLA BLA BLA BLA BLA BLA BLA 
BLA BLA BLA BLA BLA BLA BLA BLA BLA BLA BLA BLA BLA BLA BLA BLA BLA BLA BLA BLA 
BLA BLA BLA BLA BLA BLA BLA BLA BLA BLA BLA BLA BLA BLA BLA BLA BLA BLA BLA BLA 
BLA BLA BLA BLA BLA BLA BLA BLA BLA BLA BLA BLA BLA BLA BLA BLA BLA BLA BLA BLA 
BLA BLA BLA BLA BLA BLA BLA BLA BLA BLA BLA BLA BLA BLA BLA BLA BLA BLA BLA BLA 
BLA BLA BLA BLA BLA BLA BLA BLA BLA BLA BLA BLA BLA BLA BLA BLA BLA BLA BLA BLA 
BLA BLA BLA BLA BLA BLA BLA BLA BLA BLA BLA BLA BLA BLA BLA BLA BLA BLA BLA BLA 
BLA BLA BLA BLA BLA BLA BLA BLA BLA BLA BLA BLA BLA BLA BLA BLA BLA BLA BLA BLA 
BLA BLA BLA BLA BLA BLA BLA BLA BLA BLA BLA BLA BLA BLA BLA BLA BLA BLA BLA BLA 
BLA BLA BLA BLA BLA BLA BLA BLA BLA BLA BLA BLA BLA BLA BLA BLA BLA BLA BLA BLA 
BLA BLA BLA BLA BLA BLA BLA BLA BLA BLA BLA BLA BLA BLA BLA BLA BLA BLA BLA BLA 
BLA BLA BLA BLA BLA BLA BLA BLA BLA BLA BLA BLA BLA BLA BLA BLA BLA BLA BLA BLA 
BLA BLA BLA BLA BLA BLA BLA BLA BLA BLA BLA BLA BLA BLA BLA BLA BLA BLA BLA BLA 
BLA BLA BLA BLA BLA BLA BLA BLA BLA BLA BLA BLA BLA BLA BLA BLA BLA BLA BLA BLA 
BLA BLA BLA BLA BLA BLA BLA BLA BLA BLA BLA BLA BLA BLA BLA BLA BLA BLA BLA BLA 
BLA BLA BLA BLA BLA BLA BLA BLA BLA BLA BLA BLA BLA BLA BLA BLA BLA BLA BLA BLA 
BLA BLA BLA BLA BLA BLA BLA BLA BLA BLA BLA BLA BLA BLA BLA BLA BLA BLA BLA BLA 
BLA BLA BLA BLA BLA BLA BLA BLA BLA BLA BLA BLA BLA BLA BLA BLA BLA BLA BLA BLA 
BLA BLA BLA BLA BLA BLA BLA BLA BLA BLA BLA BLA BLA BLA BLA BLA BLA BLA BLA BLA 
BLA BLA BLA BLA BLA BLA BLA BLA BLA BLA BLA BLA BLA BLA BLA BLA BLA BLA BLA BLA 
BLA BLA BLA BLA BLA BLA BLA BLA BLA BLA BLA BLA BLA BLA BLA BLA BLA BLA BLA BLA 
BLA BLA BLA BLA BLA BLA BLA BLA BLA BLA BLA BLA BLA BLA BLA BLA BLA BLA BLA BLA 
BLA BLA BLA BLA BLA BLA BLA BLA BLA BLA BLA BLA BLA BLA BLA BLA BLA BLA BLA BLA 
BLA BLA BLA BLA BLA BLA BLA BLA BLA BLA BLA BLA BLA BLA BLA BLA BLA BLA BLA BLA 
BLA BLA BLA BLA BLA BLA BLA BLA BLA BLA BLA BLA BLA BLA BLA BLA BLA BLA BLA BLA 
BLA BLA BLA BLA BLA BLA BLA BLA BLA BLA BLA BLA BLA BLA BLA BLA BLA BLA BLA BLA 
BLA BLA BLA BLA BLA BLA BLA BLA BLA BLA BLA BLA BLA BLA BLA BLA BLA BLA BLA BLA 
BLA BLA BLA BLA BLA BLA BLA BLA BLA BLA BLA BLA BLA BLA BLA BLA BLA BLA BLA BLA 
BLA BLA BLA BLA BLA BLA BLA BLA BLA BLA BLA BLA BLA BLA BLA BLA BLA BLA BLA BLA 
BLA BLA BLA BLA BLA BLA BLA BLA BLA BLA BLA BLA BLA BLA BLA BLA BLA BLA BLA BLA 
BLA BLA BLA BLA BLA BLA BLA BLA BLA BLA BLA BLA BLA BLA BLA BLA BLA BLA BLA BLA 
BLA BLA BLA BLA BLA BLA BLA BLA BLA BLA BLA BLA BLA BLA BLA BLA BLA BLA BLA BLA 
BLA BLA BLA BLA BLA BLA BLA BLA BLA BLA BLA BLA BLA BLA BLA BLA BLA BLA BLA BLA 
BLA BLA BLA BLA BLA BLA BLA BLA BLA BLA BLA BLA BLA BLA BLA BLA BLA BLA BLA BLA 
BLA BLA BLA BLA BLA BLA BLA BLA BLA BLA BLA BLA BLA BLA BLA BLA BLA BLA BLA BLA 
BLA BLA BLA BLA BLA BLA BLA BLA BLA BLA BLA BLA BLA BLA BLA BLA BLA BLA BLA BLA 
BLA BLA BLA BLA BLA BLA BLA BLA BLA BLA BLA BLA BLA BLA BLA BLA BLA BLA BLA BLA 
BLA BLA BLA BLA BLA BLA BLA BLA BLA BLA BLA BLA BLA BLA BLA BLA BLA BLA BLA BLA 
BLA BLA BLA BLA BLA BLA BLA BLA BLA BLA BLA BLA BLA BLA BLA BLA BLA BLA BLA BLA 
BLA BLA BLA BLA BLA BLA BLA BLA BLA BLA BLA BLA BLA BLA BLA BLA BLA BLA BLA BLA 
BLA BLA BLA BLA BLA BLA BLA BLA BLA BLA BLA BLA BLA BLA BLA BLA BLA BLA BLA BLA 
BLA BLA BLA BLA BLA BLA BLA BLA BLA BLA BLA BLA BLA BLA BLA BLA BLA BLA BLA BLA 
BLA BLA BLA BLA BLA BLA BLA BLA BLA BLA BLA BLA BLA BLA BLA BLA BLA BLA BLA BLA 
BLA BLA BLA BLA BLA BLA BLA BLA BLA BLA BLA BLA BLA BLA BLA BLA BLA BLA BLA BLA 
BLA BLA BLA BLA BLA BLA BLA BLA BLA BLA BLA BLA BLA BLA BLA BLA BLA BLA BLA BLA 
BLA BLA BLA BLA BLA BLA BLA BLA BLA BLA BLA BLA BLA BLA BLA BLA BLA BLA BLA BLA 
BLA BLA BLA BLA BLA BLA BLA BLA BLA BLA BLA BLA BLA BLA BLA BLA BLA BLA BLA BLA 
BLA BLA BLA BLA BLA BLA BLA BLA BLA BLA BLA BLA BLA BLA BLA BLA BLA BLA BLA BLA 
BLA BLA BLA BLA BLA BLA BLA BLA BLA BLA BLA BLA BLA BLA BLA BLA BLA BLA BLA BLA 
BLA BLA BLA BLA BLA BLA BLA BLA BLA BLA BLA BLA BLA BLA BLA BLA BLA BLA BLA BLA 
BLA BLA BLA BLA BLA BLA BLA BLA BLA BLA BLA BLA BLA BLA BLA BLA BLA BLA BLA BLA 
BLA BLA BLA BLA BLA BLA BLA BLA BLA BLA BLA BLA BLA BLA BLA BLA BLA BLA BLA BLA 
BLA BLA BLA BLA BLA BLA BLA BLA BLA BLA BLA BLA BLA BLA BLA BLA BLA BLA BLA BLA 
BLA BLA BLA BLA BLA BLA BLA BLA BLA BLA BLA BLA BLA BLA BLA BLA BLA BLA BLA BLA 
BLA BLA BLA BLA BLA BLA BLA BLA BLA BLA BLA BLA BLA BLA BLA BLA BLA BLA BLA BLA 
BLA BLA BLA BLA BLA BLA BLA BLA BLA BLA BLA BLA BLA BLA BLA BLA BLA BLA BLA BLA 
BLA BLA BLA BLA BLA BLA BLA BLA BLA BLA BLA BLA BLA BLA BLA BLA BLA BLA BLA BLA 
BLA BLA BLA BLA BLA BLA BLA BLA BLA BLA BLA BLA BLA BLA BLA BLA BLA BLA BLA BLA 
BLA BLA BLA BLA BLA BLA BLA BLA BLA BLA BLA BLA BLA BLA BLA BLA BLA BLA BLA BLA 
BLA BLA BLA BLA BLA BLA BLA BLA BLA BLA BLA BLA BLA BLA BLA BLA BLA BLA BLA BLA 
BLA BLA BLA BLA BLA BLA BLA BLA BLA BLA BLA BLA BLA BLA BLA BLA BLA BLA BLA BLA 
BLA BLA BLA BLA BLA BLA BLA BLA BLA BLA BLA BLA BLA BLA BLA BLA BLA BLA BLA BLA 
BLA BLA BLA BLA BLA BLA BLA BLA BLA BLA BLA BLA BLA BLA BLA BLA BLA BLA BLA BLA 
BLA BLA BLA BLA BLA BLA BLA BLA BLA BLA BLA BLA BLA BLA BLA BLA BLA BLA BLA BLA 
BLA BLA BLA BLA BLA BLA BLA BLA BLA BLA BLA BLA BLA BLA BLA BLA BLA BLA BLA BLA 
BLA BLA BLA BLA BLA BLA BLA BLA BLA BLA BLA BLA BLA BLA BLA BLA BLA BLA BLA BLA 
BLA BLA BLA BLA BLA BLA BLA BLA BLA BLA BLA BLA BLA BLA BLA BLA BLA BLA BLA BLA 
BLA BLA BLA BLA BLA BLA BLA BLA BLA BLA BLA BLA BLA BLA BLA BLA BLA BLA BLA BLA 
BLA BLA BLA BLA BLA BLA BLA BLA BLA BLA BLA BLA BLA BLA BLA BLA BLA BLA BLA BLA 
BLA BLA BLA BLA BLA BLA BLA BLA BLA BLA BLA BLA BLA BLA BLA BLA BLA BLA BLA BLA 
BLA BLA BLA BLA BLA BLA BLA BLA BLA BLA BLA BLA BLA BLA BLA BLA BLA BLA BLA BLA 
BLA BLA BLA BLA BLA BLA BLA BLA BLA BLA BLA BLA BLA BLA BLA BLA BLA BLA BLA BLA 
BLA BLA BLA BLA BLA BLA BLA BLA BLA BLA BLA BLA BLA BLA BLA BLA BLA BLA BLA BLA 
BLA BLA BLA BLA BLA BLA BLA BLA BLA BLA BLA BLA BLA BLA BLA BLA BLA BLA BLA BLA 
BLA BLA BLA BLA BLA BLA BLA BLA BLA BLA BLA BLA BLA BLA BLA BLA BLA BLA BLA BLA 
BLA BLA BLA BLA BLA BLA BLA BLA BLA BLA BLA BLA BLA BLA BLA BLA BLA BLA BLA BLA 
BLA BLA BLA BLA BLA BLA BLA BLA BLA BLA BLA BLA BLA BLA BLA BLA BLA BLA BLA BLA 
BLA BLA BLA BLA BLA BLA BLA BLA BLA BLA BLA BLA BLA BLA BLA BLA BLA BLA BLA BLA 
BLA BLA BLA BLA BLA BLA BLA BLA BLA BLA BLA BLA BLA BLA BLA BLA BLA BLA BLA BLA 
BLA BLA BLA BLA BLA BLA BLA BLA BLA BLA BLA BLA BLA BLA BLA BLA BLA BLA BLA BLA 
BLA BLA BLA BLA BLA BLA BLA BLA BLA BLA BLA BLA BLA BLA BLA BLA BLA BLA BLA BLA 
BLA BLA BLA BLA BLA BLA BLA BLA BLA BLA BLA BLA BLA BLA BLA BLA BLA BLA BLA BLA 
BLA BLA BLA BLA BLA BLA BLA BLA BLA BLA BLA BLA BLA BLA BLA BLA BLA BLA BLA BLA 
BLA BLA BLA BLA BLA BLA BLA BLA BLA BLA BLA BLA BLA BLA BLA BLA BLA BLA BLA BLA 
BLA BLA BLA BLA BLA BLA BLA BLA BLA BLA BLA BLA BLA BLA BLA BLA BLA BLA BLA BLA 
BLA BLA BLA BLA BLA BLA BLA BLA BLA BLA BLA BLA BLA BLA BLA BLA BLA BLA BLA BLA 
BLA BLA BLA BLA BLA BLA BLA BLA BLA BLA BLA BLA BLA BLA BLA BLA BLA BLA BLA BLA 
BLA BLA BLA BLA BLA BLA BLA BLA BLA BLA BLA BLA BLA BLA BLA BLA BLA BLA BLA BLA 
BLA BLA BLA BLA BLA BLA BLA BLA BLA BLA BLA BLA BLA BLA BLA BLA BLA BLA BLA BLA 
BLA BLA BLA BLA BLA BLA BLA BLA BLA BLA BLA BLA BLA BLA BLA BLA BLA BLA BLA BLA 
BLA BLA BLA BLA BLA BLA BLA BLA BLA BLA BLA BLA BLA BLA BLA BLA BLA BLA BLA BLA 
BLA BLA BLA BLA BLA BLA BLA BLA BLA BLA BLA BLA BLA BLA BLA BLA BLA BLA BLA BLA 
BLA BLA BLA BLA BLA BLA BLA BLA BLA BLA BLA BLA BLA BLA BLA BLA BLA BLA BLA BLA 
BLA BLA BLA BLA BLA BLA BLA BLA BLA BLA BLA BLA BLA BLA BLA BLA BLA BLA BLA BLA 
BLA BLA BLA BLA BLA BLA BLA BLA BLA BLA BLA BLA BLA BLA BLA BLA BLA BLA BLA BLA 
BLA BLA BLA BLA BLA BLA BLA BLA BLA BLA BLA BLA BLA BLA BLA BLA BLA BLA BLA BLA 
BLA BLA BLA BLA BLA BLA BLA BLA BLA BLA BLA BLA BLA BLA BLA BLA BLA BLA BLA BLA 
BLA BLA BLA BLA BLA BLA BLA BLA BLA BLA BLA BLA BLA BLA BLA BLA BLA BLA BLA BLA 
BLA BLA BLA BLA BLA BLA BLA BLA BLA BLA BLA BLA BLA BLA BLA BLA BLA BLA BLA BLA 
BLA BLA BLA BLA BLA BLA BLA BLA BLA BLA BLA BLA BLA BLA BLA BLA BLA BLA BLA BLA 
BLA BLA BLA BLA BLA BLA BLA BLA BLA BLA BLA BLA BLA BLA BLA BLA BLA BLA BLA BLA 
BLA BLA BLA BLA BLA BLA BLA BLA BLA BLA BLA BLA BLA BLA BLA BLA BLA BLA BLA BLA 
BLA BLA BLA BLA BLA BLA BLA BLA BLA BLA BLA BLA BLA BLA BLA BLA BLA BLA BLA BLA 
BLA BLA BLA BLA BLA BLA BLA BLA BLA BLA BLA BLA BLA BLA BLA BLA BLA BLA BLA BLA 
BLA BLA BLA BLA BLA BLA BLA BLA BLA BLA BLA BLA BLA BLA BLA BLA BLA BLA BLA BLA 
BLA BLA BLA BLA BLA BLA BLA BLA BLA BLA BLA BLA BLA BLA BLA BLA BLA BLA BLA BLA 
BLA BLA BLA BLA BLA BLA BLA BLA BLA BLA BLA BLA BLA BLA BLA BLA BLA BLA BLA BLA 
BLA BLA BLA BLA BLA BLA BLA BLA BLA BLA BLA BLA BLA BLA BLA BLA BLA BLA BLA BLA 
BLA BLA BLA BLA BLA BLA BLA BLA BLA BLA BLA BLA BLA BLA BLA BLA BLA BLA BLA BLA 
BLA BLA BLA BLA BLA BLA BLA BLA BLA BLA BLA BLA BLA BLA BLA BLA BLA BLA BLA BLA 
BLA BLA BLA BLA BLA BLA BLA BLA BLA BLA BLA BLA BLA BLA BLA BLA BLA BLA BLA BLA 
BLA BLA BLA BLA BLA BLA BLA BLA BLA BLA BLA BLA BLA BLA BLA BLA BLA BLA BLA BLA 
BLA BLA BLA BLA BLA BLA BLA BLA BLA BLA BLA BLA BLA BLA BLA BLA BLA BLA BLA BLA 
BLA BLA BLA BLA BLA BLA BLA BLA BLA BLA BLA BLA BLA BLA BLA BLA BLA BLA BLA BLA 
BLA BLA BLA BLA BLA BLA BLA BLA BLA BLA BLA BLA BLA BLA BLA BLA BLA BLA BLA BLA 
BLA BLA BLA BLA BLA BLA BLA BLA BLA BLA BLA BLA BLA BLA BLA BLA BLA BLA BLA BLA 
BLA BLA BLA BLA BLA BLA BLA BLA BLA BLA BLA BLA BLA BLA BLA BLA BLA BLA BLA BLA 
BLA BLA BLA BLA BLA BLA BLA BLA BLA BLA BLA BLA BLA BLA BLA BLA BLA BLA BLA BLA 
BLA BLA BLA BLA BLA BLA BLA BLA BLA BLA BLA BLA BLA BLA BLA BLA BLA BLA BLA BLA 
BLA BLA BLA BLA BLA BLA BLA BLA BLA BLA BLA BLA BLA BLA BLA BLA BLA BLA BLA BLA 
BLA BLA BLA BLA BLA BLA BLA BLA BLA BLA BLA BLA BLA BLA BLA BLA BLA BLA BLA BLA 
BLA BLA BLA BLA BLA BLA BLA BLA BLA BLA BLA BLA BLA BLA BLA BLA BLA BLA BLA BLA 
BLA BLA BLA BLA BLA BLA BLA BLA BLA BLA BLA BLA BLA BLA BLA BLA BLA BLA BLA BLA 
BLA BLA BLA BLA BLA BLA BLA BLA BLA BLA BLA BLA BLA BLA BLA BLA BLA BLA BLA BLA 
BLA BLA BLA BLA BLA BLA BLA BLA BLA BLA BLA BLA BLA BLA BLA BLA BLA BLA BLA BLA 
BLA BLA BLA BLA BLA BLA BLA BLA BLA BLA BLA BLA BLA BLA BLA BLA BLA BLA BLA BLA 
BLA BLA BLA BLA BLA BLA BLA BLA BLA BLA BLA BLA BLA BLA BLA BLA BLA BLA BLA BLA 
BLA BLA BLA BLA BLA BLA BLA BLA BLA BLA BLA BLA BLA BLA BLA BLA BLA BLA BLA BLA 
BLA BLA BLA BLA BLA BLA BLA BLA BLA BLA BLA BLA BLA BLA BLA BLA BLA BLA BLA BLA 
BLA BLA BLA BLA BLA BLA BLA BLA BLA BLA BLA BLA BLA BLA BLA BLA BLA BLA BLA BLA 
BLA BLA BLA BLA BLA BLA BLA BLA BLA BLA BLA BLA BLA BLA BLA BLA BLA BLA BLA BLA 
BLA BLA BLA BLA BLA BLA BLA BLA BLA BLA BLA BLA BLA BLA BLA BLA BLA BLA BLA BLA 
BLA BLA BLA BLA BLA BLA BLA BLA BLA BLA BLA BLA BLA BLA BLA BLA BLA BLA BLA BLA 
BLA BLA BLA BLA BLA BLA BLA BLA BLA BLA BLA BLA BLA BLA BLA BLA BLA BLA BLA BLA 
BLA BLA BLA BLA BLA BLA BLA BLA BLA BLA BLA BLA BLA BLA BLA BLA BLA BLA BLA BLA 
BLA BLA BLA BLA BLA BLA BLA BLA BLA BLA BLA BLA BLA BLA BLA BLA BLA BLA BLA BLA 
BLA BLA BLA BLA BLA BLA BLA BLA BLA BLA BLA BLA BLA BLA BLA BLA BLA BLA BLA BLA 
BLA BLA BLA BLA BLA BLA BLA BLA BLA BLA BLA BLA BLA BLA BLA BLA BLA BLA BLA BLA 
BLA BLA BLA BLA BLA BLA BLA BLA BLA BLA BLA BLA BLA BLA BLA BLA BLA BLA BLA BLA 
BLA BLA BLA BLA BLA BLA BLA BLA BLA BLA BLA BLA BLA BLA BLA BLA BLA BLA BLA BLA 
BLA BLA BLA BLA BLA BLA BLA BLA BLA BLA BLA BLA BLA BLA BLA BLA BLA BLA BLA BLA 
BLA BLA BLA BLA BLA BLA BLA BLA BLA BLA BLA BLA BLA BLA BLA BLA BLA BLA BLA BLA 
BLA BLA BLA BLA BLA BLA BLA BLA BLA BLA BLA BLA BLA BLA BLA BLA BLA BLA BLA BLA 
BLA BLA BLA BLA BLA BLA BLA BLA BLA BLA BLA BLA BLA BLA BLA BLA BLA BLA BLA BLA 
BLA BLA BLA BLA BLA BLA BLA BLA BLA BLA BLA BLA BLA BLA BLA BLA BLA BLA BLA BLA 
BLA BLA BLA BLA BLA BLA BLA BLA BLA BLA BLA BLA BLA BLA BLA BLA BLA BLA BLA BLA 
BLA BLA BLA BLA BLA BLA BLA BLA BLA BLA BLA BLA BLA BLA BLA BLA BLA BLA BLA BLA 
BLA BLA BLA BLA BLA BLA BLA BLA BLA BLA BLA BLA BLA BLA BLA BLA BLA BLA BLA BLA 
BLA BLA BLA BLA BLA BLA BLA BLA BLA BLA BLA BLA BLA BLA BLA BLA BLA BLA BLA BLA 
BLA BLA BLA BLA BLA BLA BLA BLA BLA BLA BLA BLA BLA BLA BLA BLA BLA BLA BLA BLA 
BLA BLA BLA BLA BLA BLA BLA BLA BLA BLA BLA BLA BLA BLA BLA BLA BLA BLA BLA BLA 
BLA BLA BLA BLA BLA BLA BLA BLA BLA BLA BLA BLA BLA BLA BLA BLA BLA BLA BLA BLA 
BLA BLA BLA BLA BLA BLA BLA BLA BLA BLA BLA BLA BLA BLA BLA BLA BLA BLA BLA BLA 
BLA BLA BLA BLA BLA BLA BLA BLA BLA BLA BLA BLA BLA BLA BLA BLA BLA BLA BLA BLA 
BLA BLA BLA BLA BLA BLA BLA BLA BLA BLA BLA BLA BLA BLA BLA BLA BLA BLA BLA BLA 
BLA BLA BLA BLA BLA BLA BLA BLA BLA BLA BLA BLA BLA BLA BLA BLA BLA BLA BLA BLA 
BLA BLA BLA BLA BLA BLA BLA BLA BLA BLA BLA BLA BLA BLA BLA BLA BLA BLA BLA BLA 
BLA BLA BLA BLA BLA BLA BLA BLA BLA BLA BLA BLA BLA BLA BLA BLA BLA BLA BLA BLA 
BLA BLA BLA BLA BLA BLA BLA BLA BLA BLA BLA BLA BLA BLA BLA BLA BLA BLA BLA BLA 
BLA BLA BLA BLA BLA BLA BLA BLA BLA BLA BLA BLA BLA BLA BLA BLA BLA BLA BLA BLA 
BLA BLA BLA BLA BLA BLA BLA BLA BLA BLA BLA BLA BLA BLA BLA BLA BLA BLA BLA BLA 
BLA BLA BLA BLA BLA BLA BLA BLA BLA BLA BLA BLA BLA BLA BLA BLA BLA BLA BLA BLA 
BLA BLA BLA BLA BLA BLA BLA BLA BLA BLA BLA BLA BLA BLA BLA BLA BLA BLA BLA BLA 
BLA BLA BLA BLA BLA BLA BLA BLA BLA BLA BLA BLA BLA BLA BLA BLA BLA BLA BLA BLA 
BLA BLA BLA BLA BLA BLA BLA BLA BLA BLA BLA BLA BLA BLA BLA BLA BLA BLA BLA BLA 
BLA BLA BLA BLA BLA BLA BLA BLA BLA BLA BLA BLA BLA BLA BLA BLA BLA BLA BLA BLA 
BLA BLA BLA BLA BLA BLA BLA BLA BLA BLA BLA BLA BLA BLA BLA BLA BLA BLA BLA BLA 
BLA BLA BLA BLA BLA BLA BLA BLA BLA BLA BLA BLA BLA BLA BLA BLA BLA BLA BLA BLA 
BLA BLA BLA BLA BLA BLA BLA BLA BLA BLA BLA BLA BLA BLA BLA BLA BLA BLA BLA BLA 
BLA BLA BLA BLA BLA BLA BLA BLA BLA BLA BLA BLA BLA BLA BLA BLA BLA BLA BLA BLA 
BLA BLA BLA BLA BLA BLA BLA BLA BLA BLA BLA BLA BLA BLA BLA BLA BLA BLA BLA BLA 
BLA BLA BLA BLA BLA BLA BLA BLA BLA BLA BLA BLA BLA BLA BLA BLA BLA BLA BLA BLA 
BLA BLA BLA BLA BLA BLA BLA BLA BLA BLA BLA BLA BLA BLA BLA BLA BLA BLA BLA BLA 
BLA BLA BLA BLA BLA BLA BLA BLA BLA BLA BLA BLA BLA BLA BLA BLA BLA BLA BLA BLA 
BLA BLA BLA BLA BLA BLA BLA BLA BLA BLA BLA BLA BLA BLA BLA BLA BLA BLA BLA BLA 
BLA BLA BLA BLA BLA BLA BLA BLA BLA BLA BLA BLA BLA BLA BLA BLA BLA BLA BLA BLA 
BLA BLA BLA BLA BLA BLA BLA BLA BLA BLA BLA BLA BLA BLA BLA BLA BLA BLA BLA BLA 
BLA BLA BLA BLA BLA BLA BLA BLA BLA BLA BLA BLA BLA BLA BLA BLA BLA BLA BLA BLA 
BLA BLA BLA BLA BLA BLA BLA BLA BLA BLA BLA BLA BLA BLA BLA BLA BLA BLA BLA BLA 
BLA BLA BLA BLA BLA BLA BLA BLA BLA BLA BLA BLA BLA BLA BLA BLA BLA BLA BLA BLA 
BLA BLA BLA BLA BLA BLA BLA BLA BLA BLA BLA BLA BLA BLA BLA BLA BLA BLA BLA BLA 
BLA BLA BLA BLA BLA BLA BLA BLA BLA BLA BLA BLA BLA BLA BLA BLA BLA BLA BLA BLA 
BLA BLA BLA BLA BLA BLA BLA BLA BLA BLA BLA BLA BLA BLA BLA BLA BLA BLA BLA BLA 
BLA BLA BLA BLA BLA BLA BLA BLA BLA BLA BLA BLA BLA BLA BLA BLA BLA BLA BLA BLA 
BLA BLA BLA BLA BLA BLA BLA BLA BLA BLA BLA BLA BLA BLA BLA BLA BLA BLA BLA BLA 
BLA BLA BLA BLA BLA BLA BLA BLA BLA BLA BLA BLA BLA BLA BLA BLA BLA BLA BLA BLA 
BLA BLA BLA BLA BLA BLA BLA BLA BLA BLA BLA BLA BLA BLA BLA BLA BLA BLA BLA BLA 
BLA BLA BLA BLA BLA BLA BLA BLA BLA BLA BLA BLA BLA BLA BLA BLA BLA BLA BLA BLA 
BLA BLA BLA BLA BLA BLA BLA BLA BLA BLA BLA BLA BLA BLA BLA BLA BLA BLA BLA BLA 
BLA BLA BLA BLA BLA BLA BLA BLA BLA BLA BLA BLA BLA BLA BLA BLA BLA BLA BLA BLA 
BLA BLA BLA BLA BLA BLA BLA BLA BLA BLA BLA BLA BLA BLA BLA BLA BLA BLA BLA BLA 
BLA BLA BLA BLA BLA BLA BLA BLA BLA BLA BLA BLA BLA BLA BLA BLA BLA BLA BLA BLA 
BLA BLA BLA BLA BLA BLA BLA BLA BLA BLA BLA BLA BLA BLA BLA BLA BLA BLA BLA BLA 
BLA BLA BLA BLA BLA BLA BLA BLA BLA BLA BLA BLA BLA BLA BLA BLA BLA BLA BLA BLA 
BLA BLA BLA BLA BLA BLA BLA BLA BLA BLA BLA BLA BLA BLA BLA BLA BLA BLA BLA BLA 
BLA BLA BLA BLA BLA BLA BLA BLA BLA BLA BLA BLA BLA BLA BLA BLA BLA BLA BLA BLA 
BLA BLA BLA BLA BLA BLA BLA BLA BLA BLA BLA BLA BLA BLA BLA BLA BLA BLA BLA BLA 
BLA BLA BLA BLA BLA BLA BLA BLA BLA BLA BLA BLA BLA BLA BLA BLA BLA BLA BLA BLA 
BLA BLA BLA BLA BLA BLA BLA BLA BLA BLA BLA BLA BLA BLA BLA BLA BLA BLA BLA BLA 
BLA BLA BLA BLA BLA BLA BLA BLA BLA BLA BLA BLA BLA BLA BLA BLA BLA BLA BLA BLA 
BLA BLA BLA BLA BLA BLA BLA BLA BLA BLA BLA BLA BLA BLA BLA BLA BLA BLA BLA BLA 
BLA BLA BLA BLA BLA BLA BLA BLA BLA BLA BLA BLA BLA BLA BLA BLA BLA BLA BLA BLA 
BLA BLA BLA BLA BLA BLA BLA BLA BLA BLA BLA BLA BLA BLA BLA BLA BLA BLA BLA BLA 
BLA BLA BLA BLA BLA BLA BLA BLA BLA BLA BLA BLA BLA BLA BLA BLA BLA BLA BLA BLA 
BLA BLA BLA BLA BLA BLA BLA BLA BLA BLA BLA BLA BLA BLA BLA BLA BLA BLA BLA BLA 
BLA BLA BLA BLA BLA BLA BLA BLA BLA BLA BLA BLA BLA BLA BLA BLA BLA BLA BLA BLA 
BLA BLA BLA BLA BLA BLA BLA BLA BLA BLA BLA BLA BLA BLA BLA BLA BLA BLA BLA BLA 
BLA BLA BLA BLA BLA BLA BLA BLA BLA BLA BLA BLA BLA BLA BLA BLA BLA BLA BLA BLA 
BLA BLA BLA BLA BLA BLA BLA BLA BLA BLA BLA BLA BLA BLA BLA BLA BLA BLA BLA BLA 
BLA BLA BLA BLA BLA BLA BLA BLA BLA BLA BLA BLA BLA BLA BLA BLA BLA BLA BLA BLA 
BLA BLA BLA BLA BLA BLA BLA BLA BLA BLA BLA BLA BLA BLA BLA BLA BLA BLA BLA BLA 
BLA BLA BLA BLA BLA BLA BLA BLA BLA BLA BLA BLA BLA BLA BLA BLA BLA BLA BLA BLA 
BLA BLA BLA BLA BLA BLA BLA BLA BLA BLA BLA BLA BLA BLA BLA BLA BLA BLA BLA BLA 
BLA BLA BLA BLA BLA BLA BLA BLA BLA BLA BLA BLA BLA BLA BLA BLA BLA BLA BLA BLA 
BLA BLA BLA BLA BLA BLA BLA BLA BLA BLA BLA BLA BLA BLA BLA BLA BLA BLA BLA BLA 
BLA BLA BLA BLA BLA BLA BLA BLA BLA BLA BLA BLA BLA BLA BLA BLA BLA BLA BLA BLA 
BLA BLA BLA BLA BLA BLA BLA BLA BLA BLA BLA BLA BLA BLA BLA BLA BLA BLA BLA BLA 
BLA BLA BLA BLA BLA BLA BLA BLA BLA BLA BLA BLA BLA BLA BLA BLA BLA BLA BLA BLA 
BLA BLA BLA BLA BLA BLA BLA BLA BLA BLA BLA BLA BLA BLA BLA BLA BLA BLA BLA BLA 
BLA BLA BLA BLA BLA BLA BLA BLA BLA BLA BLA BLA BLA BLA BLA BLA BLA BLA BLA BLA 
BLA BLA BLA BLA BLA BLA BLA BLA BLA BLA BLA BLA BLA BLA BLA BLA BLA BLA BLA BLA 
BLA BLA BLA BLA BLA BLA BLA BLA BLA BLA BLA BLA BLA BLA BLA BLA BLA BLA BLA BLA 
BLA BLA BLA BLA BLA BLA BLA BLA BLA BLA BLA BLA BLA BLA BLA BLA BLA BLA BLA BLA 
BLA BLA BLA BLA BLA BLA BLA BLA BLA BLA BLA BLA BLA BLA BLA BLA BLA BLA BLA BLA 
BLA BLA BLA BLA BLA BLA BLA BLA BLA BLA BLA BLA BLA BLA BLA BLA BLA BLA BLA BLA 
BLA BLA BLA BLA BLA BLA BLA BLA BLA BLA BLA BLA BLA BLA BLA BLA BLA BLA BLA BLA 
BLA BLA BLA BLA BLA BLA BLA BLA BLA BLA BLA BLA BLA BLA BLA BLA BLA BLA BLA BLA 
BLA BLA BLA BLA BLA BLA BLA BLA BLA BLA BLA BLA BLA BLA BLA BLA BLA BLA BLA BLA 
BLA BLA BLA BLA BLA BLA BLA BLA BLA BLA BLA BLA BLA BLA BLA BLA BLA BLA BLA BLA 
BLA BLA BLA BLA BLA BLA BLA BLA BLA BLA BLA BLA BLA BLA BLA BLA BLA BLA BLA BLA 
BLA BLA BLA BLA BLA BLA BLA BLA BLA BLA BLA BLA BLA BLA BLA BLA BLA BLA BLA BLA 
BLA BLA BLA BLA BLA BLA BLA BLA BLA BLA BLA BLA BLA BLA BLA BLA BLA BLA BLA BLA 
BLA BLA BLA BLA BLA BLA BLA BLA BLA BLA BLA BLA BLA BLA BLA BLA BLA BLA BLA BLA 
BLA BLA BLA BLA BLA BLA BLA BLA BLA BLA BLA BLA BLA BLA BLA BLA BLA BLA BLA BLA 
BLA BLA BLA BLA BLA BLA BLA BLA BLA BLA BLA BLA BLA BLA BLA BLA BLA BLA BLA BLA 
BLA BLA BLA BLA BLA BLA BLA BLA BLA BLA BLA BLA BLA BLA BLA BLA BLA BLA BLA BLA 
BLA BLA BLA BLA BLA BLA BLA BLA BLA BLA BLA BLA BLA BLA BLA BLA BLA BLA BLA BLA 
BLA BLA BLA BLA BLA BLA BLA BLA BLA BLA BLA BLA BLA BLA BLA BLA BLA BLA BLA BLA 
BLA BLA BLA BLA BLA BLA BLA BLA BLA BLA BLA BLA BLA BLA BLA BLA BLA BLA BLA BLA 
BLA BLA BLA BLA BLA BLA BLA BLA BLA BLA BLA BLA BLA BLA BLA BLA BLA BLA BLA BLA 
BLA BLA BLA BLA BLA BLA BLA BLA BLA BLA BLA BLA BLA BLA BLA BLA BLA BLA BLA BLA 
BLA BLA BLA BLA BLA BLA BLA BLA BLA BLA BLA BLA BLA BLA BLA BLA BLA BLA BLA BLA 
BLA BLA BLA BLA BLA BLA BLA BLA BLA BLA BLA BLA BLA BLA BLA BLA BLA BLA BLA BLA 
BLA BLA BLA BLA BLA BLA BLA BLA BLA BLA BLA BLA BLA BLA BLA BLA BLA BLA BLA BLA 
BLA BLA BLA BLA BLA BLA BLA BLA BLA BLA BLA BLA BLA BLA BLA BLA BLA BLA BLA BLA 
BLA BLA BLA BLA BLA BLA BLA BLA BLA BLA BLA BLA BLA BLA BLA BLA BLA BLA BLA BLA 
BLA BLA BLA BLA BLA BLA BLA BLA BLA BLA BLA BLA BLA BLA BLA BLA BLA BLA BLA BLA 
BLA BLA BLA BLA BLA BLA BLA BLA BLA BLA BLA BLA BLA BLA BLA BLA BLA BLA BLA BLA 
BLA BLA BLA BLA BLA BLA BLA BLA BLA BLA BLA BLA BLA BLA BLA BLA BLA BLA BLA BLA 
BLA BLA BLA BLA BLA BLA BLA BLA BLA BLA BLA BLA BLA BLA BLA BLA BLA BLA BLA BLA 
BLA BLA BLA BLA BLA BLA BLA BLA BLA BLA BLA BLA BLA BLA BLA BLA BLA BLA BLA BLA 
BLA BLA BLA BLA BLA BLA BLA BLA BLA BLA BLA BLA BLA BLA BLA BLA BLA BLA BLA BLA 
BLA BLA BLA BLA BLA BLA BLA BLA BLA BLA BLA BLA BLA BLA BLA BLA BLA BLA BLA BLA 
BLA BLA BLA BLA BLA BLA BLA BLA BLA BLA BLA BLA BLA BLA BLA BLA BLA BLA BLA BLA 
BLA BLA BLA BLA BLA BLA BLA BLA BLA BLA BLA BLA BLA BLA BLA BLA BLA BLA BLA BLA 
BLA BLA BLA BLA BLA BLA BLA BLA BLA BLA BLA BLA BLA BLA BLA BLA BLA BLA BLA BLA 
BLA BLA BLA BLA BLA BLA BLA BLA BLA BLA BLA BLA BLA BLA BLA BLA BLA BLA BLA BLA 
BLA BLA BLA BLA BLA BLA BLA BLA BLA BLA BLA BLA BLA BLA BLA BLA BLA BLA BLA BLA 
BLA BLA BLA BLA BLA BLA BLA BLA BLA BLA BLA BLA BLA BLA BLA BLA BLA BLA BLA BLA 
BLA BLA BLA BLA BLA BLA BLA BLA BLA BLA BLA BLA BLA BLA BLA BLA BLA BLA BLA BLA 
BLA BLA BLA BLA BLA BLA BLA BLA BLA BLA BLA BLA BLA BLA BLA BLA BLA BLA BLA BLA 
BLA BLA BLA BLA BLA BLA BLA BLA BLA BLA BLA BLA BLA BLA BLA BLA BLA BLA BLA BLA 
BLA BLA BLA BLA BLA BLA BLA BLA BLA BLA BLA BLA BLA BLA BLA BLA BLA BLA BLA BLA 
BLA BLA BLA BLA BLA BLA BLA BLA BLA BLA BLA BLA BLA BLA BLA BLA BLA BLA BLA BLA 
BLA BLA BLA BLA BLA BLA BLA BLA BLA BLA BLA BLA BLA BLA BLA BLA BLA BLA BLA BLA 
BLA BLA BLA BLA BLA BLA BLA BLA BLA BLA BLA BLA BLA BLA BLA BLA BLA BLA BLA BLA 
BLA BLA BLA BLA BLA BLA BLA BLA BLA BLA BLA BLA BLA BLA BLA BLA BLA BLA BLA BLA 
BLA BLA BLA BLA BLA BLA BLA BLA BLA BLA BLA BLA BLA BLA BLA BLA BLA BLA BLA BLA 
BLA BLA BLA BLA BLA BLA BLA BLA BLA BLA BLA BLA BLA BLA BLA BLA BLA BLA BLA BLA 
BLA BLA BLA BLA BLA BLA BLA BLA BLA BLA BLA BLA BLA BLA BLA BLA BLA BLA BLA BLA 
BLA BLA BLA BLA BLA BLA BLA BLA BLA BLA BLA BLA BLA BLA BLA BLA BLA BLA BLA BLA 
BLA BLA BLA BLA BLA BLA BLA BLA BLA BLA BLA BLA BLA BLA BLA BLA BLA BLA BLA BLA 
BLA BLA BLA BLA BLA BLA BLA BLA BLA BLA BLA BLA BLA BLA BLA BLA BLA BLA BLA BLA 
BLA BLA BLA BLA BLA BLA BLA BLA BLA BLA BLA BLA BLA BLA BLA BLA BLA BLA BLA BLA 
BLA BLA BLA BLA BLA BLA BLA BLA BLA BLA BLA BLA BLA BLA BLA BLA BLA BLA BLA BLA 
BLA BLA BLA BLA BLA BLA BLA BLA BLA BLA BLA BLA BLA BLA BLA BLA BLA BLA BLA BLA 
BLA BLA BLA BLA BLA BLA BLA BLA BLA BLA BLA BLA BLA BLA BLA BLA BLA BLA BLA BLA 
BLA BLA BLA BLA BLA BLA BLA BLA BLA BLA BLA BLA BLA BLA BLA BLA BLA BLA BLA BLA 
BLA BLA BLA BLA BLA BLA BLA BLA BLA BLA BLA BLA BLA BLA BLA BLA BLA BLA BLA BLA 
BLA BLA BLA BLA BLA BLA BLA BLA BLA BLA BLA BLA BLA BLA BLA BLA BLA BLA BLA BLA 
BLA BLA BLA BLA BLA BLA BLA BLA BLA BLA BLA BLA BLA BLA BLA BLA BLA BLA BLA BLA 
BLA BLA BLA BLA BLA BLA BLA BLA BLA BLA BLA BLA BLA BLA BLA BLA BLA BLA BLA BLA 
BLA BLA BLA BLA BLA BLA BLA BLA BLA BLA BLA BLA BLA BLA BLA BLA BLA BLA BLA BLA 
BLA BLA BLA BLA BLA BLA BLA BLA BLA BLA BLA BLA BLA BLA BLA BLA BLA BLA BLA BLA 
BLA BLA BLA BLA BLA BLA BLA BLA BLA BLA BLA BLA BLA BLA BLA BLA BLA BLA BLA BLA 
BLA BLA BLA BLA BLA BLA BLA BLA BLA BLA BLA BLA BLA BLA BLA BLA BLA BLA BLA BLA 
BLA BLA BLA BLA BLA BLA BLA BLA BLA BLA BLA BLA BLA BLA BLA BLA BLA BLA BLA BLA 
BLA BLA BLA BLA BLA BLA BLA BLA BLA BLA BLA BLA BLA BLA BLA BLA BLA BLA BLA BLA 
BLA BLA BLA BLA BLA BLA BLA BLA BLA BLA BLA BLA BLA BLA BLA BLA BLA BLA BLA BLA 
BLA BLA BLA BLA BLA BLA BLA BLA BLA BLA BLA BLA BLA BLA BLA BLA BLA BLA BLA BLA 
BLA BLA BLA BLA BLA BLA BLA BLA BLA BLA BLA BLA BLA BLA BLA BLA BLA BLA BLA BLA 
BLA BLA BLA BLA BLA BLA BLA BLA BLA BLA BLA BLA BLA BLA BLA BLA BLA BLA BLA BLA 
BLA BLA BLA BLA BLA BLA BLA BLA BLA BLA BLA BLA BLA BLA BLA BLA BLA BLA BLA BLA 
BLA BLA BLA BLA BLA BLA BLA BLA BLA BLA BLA BLA BLA BLA BLA BLA BLA BLA BLA BLA 
BLA BLA BLA BLA BLA BLA BLA BLA BLA BLA BLA BLA BLA BLA BLA BLA BLA BLA BLA BLA 
BLA BLA BLA BLA BLA BLA BLA BLA BLA BLA BLA BLA BLA BLA BLA BLA BLA BLA BLA BLA 
BLA BLA BLA BLA BLA BLA BLA BLA BLA BLA BLA BLA BLA BLA BLA BLA BLA BLA BLA BLA 
BLA BLA BLA BLA BLA BLA BLA BLA BLA BLA BLA BLA BLA BLA BLA BLA BLA BLA BLA BLA 
BLA BLA BLA BLA BLA BLA BLA BLA BLA BLA BLA BLA BLA BLA BLA BLA BLA BLA BLA BLA 
BLA BLA BLA BLA BLA BLA BLA BLA BLA BLA BLA BLA BLA BLA BLA BLA BLA BLA BLA BLA 
BLA BLA BLA BLA BLA BLA BLA BLA BLA BLA BLA BLA BLA BLA BLA BLA BLA BLA BLA BLA 
BLA BLA BLA BLA BLA BLA BLA BLA BLA BLA BLA BLA BLA BLA BLA BLA BLA BLA BLA BLA 
BLA BLA BLA BLA BLA BLA BLA BLA BLA BLA BLA BLA BLA BLA BLA BLA BLA BLA BLA BLA 
BLA BLA BLA BLA BLA BLA BLA BLA BLA BLA BLA BLA BLA BLA BLA BLA BLA BLA BLA BLA 
BLA BLA BLA BLA BLA BLA BLA BLA BLA BLA BLA BLA BLA BLA BLA BLA BLA BLA BLA BLA 
BLA BLA BLA BLA BLA BLA BLA BLA BLA BLA BLA BLA BLA BLA BLA BLA BLA BLA BLA BLA 
BLA BLA BLA BLA BLA BLA BLA BLA BLA BLA BLA BLA BLA BLA BLA BLA BLA BLA BLA BLA 
BLA BLA BLA BLA BLA BLA BLA BLA BLA BLA BLA BLA BLA BLA BLA BLA BLA BLA BLA BLA 
BLA BLA BLA BLA BLA BLA BLA BLA BLA BLA BLA BLA BLA BLA BLA BLA BLA BLA BLA BLA 
BLA BLA BLA BLA BLA BLA BLA BLA BLA BLA BLA BLA BLA BLA BLA BLA BLA BLA BLA BLA 
BLA BLA BLA BLA BLA BLA BLA BLA BLA BLA BLA BLA BLA BLA BLA BLA BLA BLA BLA BLA 
BLA BLA BLA BLA BLA BLA BLA BLA BLA BLA BLA BLA BLA BLA BLA BLA BLA BLA BLA BLA 
BLA BLA BLA BLA BLA BLA BLA BLA BLA BLA BLA BLA BLA BLA BLA BLA BLA BLA BLA BLA 
BLA BLA BLA BLA BLA BLA BLA BLA BLA BLA BLA BLA BLA BLA BLA BLA BLA BLA BLA BLA 
BLA BLA BLA BLA BLA BLA BLA BLA BLA BLA BLA BLA BLA BLA BLA BLA BLA BLA BLA BLA 
BLA BLA BLA BLA BLA BLA BLA BLA BLA BLA BLA BLA BLA BLA BLA BLA BLA BLA BLA BLA 
BLA BLA BLA BLA BLA BLA BLA BLA BLA BLA BLA BLA BLA BLA BLA BLA BLA BLA BLA BLA 
BLA BLA BLA BLA BLA BLA BLA BLA BLA BLA BLA BLA BLA BLA BLA BLA BLA BLA BLA BLA 
BLA BLA BLA BLA BLA BLA BLA BLA BLA BLA BLA BLA BLA BLA BLA BLA BLA BLA BLA BLA 
BLA BLA BLA BLA BLA BLA BLA BLA BLA BLA BLA BLA BLA BLA BLA BLA BLA BLA BLA BLA 
BLA BLA BLA BLA BLA BLA BLA BLA BLA BLA BLA BLA BLA BLA BLA BLA BLA BLA BLA BLA 
BLA BLA BLA BLA BLA BLA BLA BLA BLA BLA BLA BLA BLA BLA BLA BLA BLA BLA BLA BLA 
BLA BLA BLA BLA BLA BLA BLA BLA BLA BLA BLA BLA BLA BLA BLA BLA BLA BLA BLA BLA 
BLA BLA BLA BLA BLA BLA BLA BLA BLA BLA BLA BLA BLA BLA BLA BLA BLA BLA BLA BLA 
BLA BLA BLA BLA BLA BLA BLA BLA BLA BLA BLA BLA BLA BLA BLA BLA BLA BLA BLA BLA 
BLA BLA BLA BLA BLA BLA BLA BLA BLA BLA BLA BLA BLA BLA BLA BLA BLA BLA BLA BLA 
BLA BLA BLA BLA BLA BLA BLA BLA BLA BLA BLA BLA BLA BLA BLA BLA BLA BLA BLA BLA 
BLA BLA BLA BLA BLA BLA BLA BLA BLA BLA BLA BLA BLA BLA BLA BLA BLA BLA BLA BLA 
BLA BLA BLA BLA BLA BLA BLA BLA BLA BLA BLA BLA BLA BLA BLA BLA BLA BLA BLA BLA 
BLA BLA BLA BLA BLA BLA BLA BLA BLA BLA BLA BLA BLA BLA BLA BLA BLA BLA BLA BLA 
BLA BLA BLA BLA BLA BLA BLA BLA BLA BLA BLA BLA BLA BLA BLA BLA BLA BLA BLA BLA 
BLA BLA BLA BLA BLA BLA BLA BLA BLA BLA BLA BLA BLA BLA BLA BLA BLA BLA BLA BLA 
BLA BLA BLA BLA BLA BLA BLA BLA BLA BLA BLA BLA BLA BLA BLA BLA BLA BLA BLA BLA 
BLA BLA BLA BLA BLA BLA BLA BLA BLA BLA BLA BLA BLA BLA BLA BLA BLA BLA BLA BLA 
BLA BLA BLA BLA BLA BLA BLA BLA BLA BLA BLA BLA BLA BLA BLA BLA BLA BLA BLA BLA 
BLA BLA BLA BLA BLA BLA BLA BLA BLA BLA BLA BLA BLA BLA BLA BLA BLA BLA BLA BLA 
BLA BLA BLA BLA BLA BLA BLA BLA BLA BLA BLA BLA BLA BLA BLA BLA BLA BLA BLA BLA 
BLA BLA BLA BLA BLA BLA BLA BLA BLA BLA BLA BLA BLA BLA BLA BLA BLA BLA BLA BLA 
BLA BLA BLA BLA BLA BLA BLA BLA BLA BLA BLA BLA BLA BLA BLA BLA BLA BLA BLA BLA 
BLA BLA BLA BLA BLA BLA BLA BLA BLA BLA BLA BLA BLA BLA BLA BLA BLA BLA BLA BLA 
BLA BLA BLA BLA BLA BLA BLA BLA BLA BLA BLA BLA BLA BLA BLA BLA BLA BLA BLA BLA 
BLA BLA BLA BLA BLA BLA BLA BLA BLA BLA BLA BLA BLA BLA BLA BLA BLA BLA BLA BLA 
BLA BLA BLA BLA BLA BLA BLA BLA BLA BLA BLA BLA BLA BLA BLA BLA BLA BLA BLA BLA 
BLA BLA BLA BLA BLA BLA BLA BLA BLA BLA BLA BLA BLA BLA BLA BLA BLA BLA BLA BLA 
BLA BLA BLA BLA BLA BLA BLA BLA BLA BLA BLA BLA BLA BLA BLA BLA BLA BLA BLA BLA 
BLA BLA BLA BLA BLA BLA BLA BLA BLA BLA BLA BLA BLA BLA BLA BLA BLA BLA BLA BLA 
BLA BLA BLA BLA BLA BLA BLA BLA BLA BLA BLA BLA BLA BLA BLA BLA BLA BLA BLA BLA 
BLA BLA BLA BLA BLA BLA BLA BLA BLA BLA BLA BLA BLA BLA BLA BLA BLA BLA BLA BLA 
BLA BLA BLA BLA BLA BLA BLA BLA BLA BLA BLA BLA BLA BLA BLA BLA BLA BLA BLA BLA 
BLA BLA BLA BLA BLA BLA BLA BLA BLA BLA BLA BLA BLA BLA BLA BLA BLA BLA BLA BLA 
BLA BLA BLA BLA BLA BLA BLA BLA BLA BLA BLA BLA BLA BLA BLA BLA BLA BLA BLA BLA 
BLA BLA BLA BLA BLA BLA BLA BLA BLA BLA BLA BLA BLA BLA BLA BLA BLA BLA BLA BLA 
BLA BLA BLA BLA BLA BLA BLA BLA BLA BLA BLA BLA BLA BLA BLA BLA BLA BLA BLA BLA 
BLA BLA BLA BLA BLA BLA BLA BLA BLA BLA BLA BLA BLA BLA BLA BLA BLA BLA BLA BLA 
BLA BLA BLA BLA BLA BLA BLA BLA BLA BLA BLA BLA BLA BLA BLA BLA BLA BLA BLA BLA 
BLA BLA BLA BLA BLA BLA BLA BLA BLA BLA BLA BLA BLA BLA BLA BLA BLA BLA BLA BLA 
BLA BLA BLA BLA BLA BLA BLA BLA BLA BLA BLA BLA BLA BLA BLA BLA BLA BLA BLA BLA 
BLA BLA BLA BLA BLA BLA BLA BLA BLA BLA BLA BLA BLA BLA BLA BLA BLA BLA BLA BLA 
BLA BLA BLA BLA BLA BLA BLA BLA BLA BLA BLA BLA BLA BLA BLA BLA BLA BLA BLA BLA 
BLA BLA BLA BLA BLA BLA BLA BLA BLA BLA BLA BLA BLA BLA BLA BLA BLA BLA BLA BLA 
BLA BLA BLA BLA BLA BLA BLA BLA BLA BLA BLA BLA BLA BLA BLA BLA BLA BLA BLA BLA 
BLA BLA BLA BLA BLA BLA BLA BLA BLA BLA BLA BLA BLA BLA BLA BLA BLA BLA BLA BLA 
BLA BLA BLA BLA BLA BLA BLA BLA BLA BLA BLA BLA BLA BLA BLA BLA BLA BLA BLA BLA 
BLA BLA BLA BLA BLA BLA BLA BLA BLA BLA BLA BLA BLA BLA BLA BLA BLA BLA BLA BLA 
BLA BLA BLA BLA BLA BLA BLA BLA BLA BLA BLA BLA BLA BLA BLA BLA BLA BLA BLA BLA 
BLA BLA BLA BLA BLA BLA BLA BLA BLA BLA BLA BLA BLA BLA BLA BLA BLA BLA BLA BLA 
BLA BLA BLA BLA BLA BLA BLA BLA BLA BLA BLA BLA BLA BLA BLA BLA BLA BLA BLA BLA 
BLA BLA BLA BLA BLA BLA BLA BLA BLA BLA BLA BLA BLA BLA BLA BLA BLA BLA BLA BLA 
BLA BLA BLA BLA BLA BLA BLA BLA BLA BLA BLA BLA BLA BLA BLA BLA BLA BLA BLA BLA 
BLA BLA BLA BLA BLA BLA BLA BLA BLA BLA BLA BLA BLA BLA BLA BLA BLA BLA BLA BLA 
BLA BLA BLA BLA BLA BLA BLA BLA BLA BLA BLA BLA BLA BLA BLA BLA BLA BLA BLA BLA 
BLA BLA BLA BLA BLA BLA BLA BLA BLA BLA BLA BLA BLA BLA BLA BLA BLA BLA BLA BLA 
BLA BLA BLA BLA BLA BLA BLA BLA BLA BLA BLA BLA BLA BLA BLA BLA BLA BLA BLA BLA 
BLA BLA BLA BLA BLA BLA BLA BLA BLA BLA BLA BLA BLA BLA BLA BLA BLA BLA BLA BLA 
BLA BLA BLA BLA BLA BLA BLA BLA BLA BLA BLA BLA BLA BLA BLA BLA BLA BLA BLA BLA 
BLA BLA BLA BLA BLA BLA BLA BLA BLA BLA BLA BLA BLA BLA BLA BLA BLA BLA BLA BLA 
BLA BLA BLA BLA BLA BLA BLA BLA BLA BLA BLA BLA BLA BLA BLA BLA BLA BLA BLA BLA 
BLA BLA BLA BLA BLA BLA BLA BLA BLA BLA BLA BLA BLA BLA BLA BLA BLA BLA BLA BLA 
BLA BLA BLA BLA BLA BLA BLA BLA BLA BLA BLA BLA BLA BLA BLA BLA BLA BLA BLA BLA 
BLA BLA BLA BLA BLA BLA BLA BLA BLA BLA BLA BLA BLA BLA BLA BLA BLA BLA BLA BLA 
BLA BLA BLA BLA BLA BLA BLA BLA BLA BLA BLA BLA BLA BLA BLA BLA BLA BLA BLA BLA 
BLA BLA BLA BLA BLA BLA BLA BLA BLA BLA BLA BLA BLA BLA BLA BLA BLA BLA BLA BLA 
BLA BLA BLA BLA BLA BLA BLA BLA BLA BLA BLA BLA BLA BLA BLA BLA BLA BLA BLA BLA 
BLA BLA BLA BLA BLA BLA BLA BLA BLA BLA BLA BLA BLA BLA BLA BLA BLA BLA BLA BLA 
BLA BLA BLA BLA BLA BLA BLA BLA BLA BLA BLA BLA BLA BLA BLA BLA BLA BLA BLA BLA 
BLA BLA BLA BLA BLA BLA BLA BLA BLA BLA BLA BLA BLA BLA BLA BLA BLA BLA BLA BLA 
BLA BLA BLA BLA BLA BLA BLA BLA BLA BLA BLA BLA BLA BLA BLA BLA BLA BLA BLA BLA 
BLA BLA BLA BLA BLA BLA BLA BLA BLA BLA BLA BLA BLA BLA BLA BLA BLA BLA BLA BLA 
BLA BLA BLA BLA BLA BLA BLA BLA BLA BLA BLA BLA BLA BLA BLA BLA BLA BLA BLA BLA 
BLA BLA BLA BLA BLA BLA BLA BLA BLA BLA BLA BLA BLA BLA BLA BLA BLA BLA BLA BLA 
BLA BLA BLA BLA BLA BLA BLA BLA BLA BLA BLA BLA BLA BLA BLA BLA BLA BLA BLA BLA 
BLA BLA BLA BLA BLA BLA BLA BLA BLA BLA BLA BLA BLA BLA BLA BLA BLA BLA BLA BLA 
BLA BLA BLA BLA BLA BLA BLA BLA BLA BLA BLA BLA BLA BLA BLA BLA BLA BLA BLA BLA 
BLA BLA BLA BLA BLA BLA BLA BLA BLA BLA BLA BLA BLA BLA BLA BLA BLA BLA BLA BLA 
BLA BLA BLA BLA BLA BLA BLA BLA BLA BLA BLA BLA BLA BLA BLA BLA BLA BLA BLA BLA 
BLA BLA BLA BLA BLA BLA BLA BLA BLA BLA BLA BLA BLA BLA BLA BLA BLA BLA BLA BLA 
BLA BLA BLA BLA BLA BLA BLA BLA BLA BLA BLA BLA BLA BLA BLA BLA BLA BLA BLA BLA 
BLA BLA BLA BLA BLA BLA BLA BLA BLA BLA BLA BLA BLA BLA BLA BLA BLA BLA BLA BLA 
BLA BLA BLA BLA BLA BLA BLA BLA BLA BLA BLA BLA BLA BLA BLA BLA BLA BLA BLA BLA 
BLA BLA BLA BLA BLA BLA BLA BLA BLA BLA BLA BLA BLA BLA BLA BLA BLA BLA BLA BLA 
BLA BLA BLA BLA BLA BLA BLA BLA BLA BLA BLA BLA BLA BLA BLA BLA BLA BLA BLA BLA 
BLA BLA BLA BLA BLA BLA BLA BLA BLA BLA BLA BLA BLA BLA BLA BLA BLA BLA BLA BLA 
BLA BLA BLA BLA BLA BLA BLA BLA BLA BLA BLA BLA BLA BLA BLA BLA BLA BLA BLA BLA 
BLA BLA BLA BLA BLA BLA BLA BLA BLA BLA BLA BLA BLA BLA BLA BLA BLA BLA BLA BLA 
BLA BLA BLA BLA BLA BLA BLA BLA BLA BLA BLA BLA BLA BLA BLA BLA BLA BLA BLA BLA 
BLA BLA BLA BLA BLA BLA BLA BLA BLA BLA BLA BLA BLA BLA BLA BLA BLA BLA BLA BLA 
BLA BLA BLA BLA BLA BLA BLA BLA BLA BLA BLA BLA BLA BLA BLA BLA BLA BLA BLA BLA 
BLA BLA BLA BLA BLA BLA BLA BLA BLA BLA BLA BLA BLA BLA BLA BLA BLA BLA BLA BLA 
BLA BLA BLA BLA BLA BLA BLA BLA BLA BLA BLA BLA BLA BLA BLA BLA BLA BLA BLA BLA 
BLA BLA BLA BLA BLA BLA BLA BLA BLA BLA BLA BLA BLA BLA BLA BLA BLA BLA BLA BLA 
BLA BLA BLA BLA BLA BLA BLA BLA BLA BLA BLA BLA BLA BLA BLA BLA BLA BLA BLA BLA 
BLA BLA BLA BLA BLA BLA BLA BLA BLA BLA BLA BLA BLA BLA BLA BLA BLA BLA BLA BLA 
BLA BLA BLA BLA BLA BLA BLA BLA BLA BLA BLA BLA BLA BLA BLA BLA BLA BLA BLA BLA 
BLA BLA BLA BLA BLA BLA BLA BLA BLA BLA BLA BLA BLA BLA BLA BLA BLA BLA BLA BLA 
BLA BLA BLA BLA BLA BLA BLA BLA BLA BLA BLA BLA BLA BLA BLA BLA BLA BLA BLA BLA 
BLA BLA BLA BLA BLA BLA BLA BLA BLA BLA BLA BLA BLA BLA BLA BLA BLA BLA BLA BLA 
BLA BLA BLA BLA BLA BLA BLA BLA BLA BLA BLA BLA BLA BLA BLA BLA BLA BLA BLA BLA 
BLA BLA BLA BLA BLA BLA BLA BLA BLA BLA BLA BLA BLA BLA BLA BLA BLA BLA BLA BLA 
BLA BLA BLA BLA BLA BLA BLA BLA BLA BLA BLA BLA BLA BLA BLA BLA BLA BLA BLA BLA 
BLA BLA BLA BLA BLA BLA BLA BLA BLA BLA BLA BLA BLA BLA BLA BLA BLA BLA BLA BLA 
BLA BLA BLA BLA BLA BLA BLA BLA BLA BLA BLA BLA BLA BLA BLA BLA BLA BLA BLA BLA 
BLA BLA BLA BLA BLA BLA BLA BLA BLA BLA BLA BLA BLA BLA BLA BLA BLA BLA BLA BLA 
BLA BLA BLA BLA BLA BLA BLA BLA BLA BLA BLA BLA BLA BLA BLA BLA BLA BLA BLA BLA 
BLA BLA BLA BLA BLA BLA BLA BLA BLA BLA BLA BLA BLA BLA BLA BLA BLA BLA BLA BLA 
BLA BLA BLA BLA BLA BLA BLA BLA BLA BLA BLA BLA BLA BLA BLA BLA BLA BLA BLA BLA 
BLA BLA BLA BLA BLA BLA BLA BLA BLA BLA BLA BLA BLA BLA BLA BLA BLA BLA BLA BLA 
BLA BLA BLA BLA BLA BLA BLA BLA BLA BLA BLA BLA BLA BLA BLA BLA BLA BLA BLA BLA 
BLA BLA BLA BLA BLA BLA BLA BLA BLA BLA BLA BLA BLA BLA BLA BLA BLA BLA BLA BLA 
BLA BLA BLA BLA BLA BLA BLA BLA BLA BLA BLA BLA BLA BLA BLA BLA BLA BLA BLA BLA 
BLA BLA BLA BLA BLA BLA BLA BLA BLA BLA BLA BLA BLA BLA BLA BLA BLA BLA BLA BLA 
BLA BLA BLA BLA BLA BLA BLA BLA BLA BLA BLA BLA BLA BLA BLA BLA BLA BLA BLA BLA 
BLA BLA BLA BLA BLA BLA BLA BLA BLA BLA BLA BLA BLA BLA BLA BLA BLA BLA BLA BLA 
BLA BLA BLA BLA BLA BLA BLA BLA BLA BLA BLA BLA BLA BLA BLA BLA BLA BLA BLA BLA 
BLA BLA BLA BLA BLA BLA BLA BLA BLA BLA BLA BLA BLA BLA BLA BLA BLA BLA BLA BLA 
BLA BLA BLA BLA BLA BLA BLA BLA BLA BLA BLA BLA BLA BLA BLA BLA BLA BLA BLA BLA 
BLA BLA BLA BLA BLA BLA BLA BLA BLA BLA BLA BLA BLA BLA BLA BLA BLA BLA BLA BLA 
BLA BLA BLA BLA BLA BLA BLA BLA BLA BLA BLA BLA BLA BLA BLA BLA BLA BLA BLA BLA 
BLA BLA BLA BLA BLA BLA BLA BLA BLA BLA BLA BLA BLA BLA BLA BLA BLA BLA BLA BLA 
BLA BLA BLA BLA BLA BLA BLA BLA BLA BLA BLA BLA BLA BLA BLA BLA BLA BLA BLA BLA 
BLA BLA BLA BLA BLA BLA BLA BLA BLA BLA BLA BLA BLA BLA BLA BLA BLA BLA BLA BLA 
BLA BLA BLA BLA BLA BLA BLA BLA BLA BLA BLA BLA BLA BLA BLA BLA BLA BLA BLA BLA 
BLA BLA BLA BLA BLA BLA BLA BLA BLA BLA BLA BLA BLA BLA BLA BLA BLA BLA BLA BLA 
BLA BLA BLA BLA BLA BLA BLA BLA BLA BLA BLA BLA BLA BLA BLA BLA BLA BLA BLA BLA 
BLA BLA BLA BLA BLA BLA BLA BLA BLA BLA BLA BLA BLA BLA BLA BLA BLA BLA BLA BLA 
BLA BLA BLA BLA BLA BLA BLA BLA BLA BLA BLA BLA BLA BLA BLA BLA BLA BLA BLA BLA 
BLA BLA BLA BLA BLA BLA BLA BLA BLA BLA BLA BLA BLA BLA BLA BLA BLA BLA BLA BLA 
BLA BLA BLA BLA BLA BLA BLA BLA BLA BLA BLA BLA BLA BLA BLA BLA BLA BLA BLA BLA 
BLA BLA BLA BLA BLA BLA BLA BLA BLA BLA BLA BLA BLA BLA BLA BLA BLA BLA BLA BLA 
BLA BLA BLA BLA BLA BLA BLA BLA BLA BLA BLA BLA BLA BLA BLA BLA BLA BLA BLA BLA 
BLA BLA BLA BLA BLA BLA BLA BLA BLA BLA BLA BLA BLA BLA BLA BLA BLA BLA BLA BLA 
BLA BLA BLA BLA BLA BLA BLA BLA BLA BLA BLA BLA BLA BLA BLA BLA BLA BLA BLA BLA 
BLA BLA BLA BLA BLA BLA BLA BLA BLA BLA BLA BLA BLA BLA BLA BLA BLA BLA BLA BLA 
BLA BLA BLA BLA BLA BLA BLA BLA BLA BLA BLA BLA BLA BLA BLA BLA BLA BLA BLA BLA 
BLA BLA BLA BLA BLA BLA BLA BLA BLA BLA BLA BLA BLA BLA BLA BLA BLA BLA BLA BLA 
BLA BLA BLA BLA BLA BLA BLA BLA BLA BLA BLA BLA BLA BLA BLA BLA BLA BLA BLA BLA 
BLA BLA BLA BLA BLA BLA BLA BLA BLA BLA BLA BLA BLA BLA BLA BLA BLA BLA BLA BLA 
BLA BLA BLA BLA BLA BLA BLA BLA BLA BLA BLA BLA BLA BLA BLA BLA BLA BLA BLA BLA 
BLA BLA BLA BLA BLA BLA BLA BLA BLA BLA BLA BLA BLA BLA BLA BLA BLA BLA BLA BLA 
BLA BLA BLA BLA BLA BLA BLA BLA BLA BLA BLA BLA BLA BLA BLA BLA BLA BLA BLA BLA 
BLA BLA BLA BLA BLA BLA BLA BLA BLA BLA BLA BLA BLA BLA BLA BLA BLA BLA BLA BLA 
BLA BLA BLA BLA BLA BLA BLA BLA BLA BLA BLA BLA BLA BLA BLA BLA BLA BLA BLA BLA 
BLA BLA BLA BLA BLA BLA BLA BLA BLA BLA BLA BLA BLA BLA BLA BLA BLA BLA BLA BLA 
BLA BLA BLA BLA BLA BLA BLA BLA BLA BLA BLA BLA BLA BLA BLA BLA BLA BLA BLA BLA 
BLA BLA BLA BLA BLA BLA BLA BLA BLA BLA BLA BLA BLA BLA BLA BLA BLA BLA BLA BLA 
BLA BLA BLA BLA BLA BLA BLA BLA BLA BLA BLA BLA BLA BLA BLA BLA BLA BLA BLA BLA 
BLA BLA BLA BLA BLA BLA BLA BLA BLA BLA BLA BLA BLA BLA BLA BLA BLA BLA BLA BLA 
BLA BLA BLA BLA BLA BLA BLA BLA BLA BLA BLA BLA BLA BLA BLA BLA BLA BLA BLA BLA 
BLA BLA BLA BLA BLA BLA BLA BLA BLA BLA BLA BLA BLA BLA BLA BLA BLA BLA BLA BLA 
BLA BLA BLA BLA BLA BLA BLA BLA BLA BLA BLA BLA BLA BLA BLA BLA BLA BLA BLA BLA 
BLA BLA BLA BLA BLA BLA BLA BLA BLA BLA BLA BLA BLA BLA BLA BLA BLA BLA BLA BLA 
BLA BLA BLA BLA BLA BLA BLA BLA BLA BLA BLA BLA BLA BLA BLA BLA BLA BLA BLA BLA 
BLA BLA BLA BLA BLA BLA BLA BLA BLA BLA BLA BLA BLA BLA BLA BLA BLA BLA BLA BLA 
BLA BLA BLA BLA BLA BLA BLA BLA BLA BLA BLA BLA BLA BLA BLA BLA BLA BLA BLA BLA 
BLA BLA BLA BLA BLA BLA BLA BLA BLA BLA BLA BLA BLA BLA BLA BLA BLA BLA BLA BLA 
BLA BLA BLA BLA BLA BLA BLA BLA BLA BLA BLA BLA BLA BLA BLA BLA BLA BLA BLA BLA 
BLA BLA BLA BLA BLA BLA BLA BLA BLA BLA BLA BLA BLA BLA BLA BLA BLA BLA BLA BLA 
BLA BLA BLA BLA BLA BLA BLA BLA BLA BLA BLA BLA BLA BLA BLA BLA BLA BLA BLA BLA 
BLA BLA BLA BLA BLA BLA BLA BLA BLA BLA BLA BLA BLA BLA BLA BLA BLA BLA BLA BLA 
BLA BLA BLA BLA BLA BLA BLA BLA BLA BLA BLA BLA BLA BLA BLA BLA BLA BLA BLA BLA 
BLA BLA BLA BLA BLA BLA BLA BLA BLA BLA BLA BLA BLA BLA BLA BLA BLA BLA BLA BLA 
BLA BLA BLA BLA BLA BLA BLA BLA BLA BLA BLA BLA BLA BLA BLA BLA BLA BLA BLA BLA 
BLA BLA BLA BLA BLA BLA BLA BLA BLA BLA BLA BLA BLA BLA BLA BLA BLA BLA BLA BLA 
BLA BLA BLA BLA BLA BLA BLA BLA BLA BLA BLA BLA BLA BLA BLA BLA BLA BLA BLA BLA 
BLA BLA BLA BLA BLA BLA BLA BLA BLA BLA BLA BLA BLA BLA BLA BLA BLA BLA BLA BLA 
BLA BLA BLA BLA BLA BLA BLA BLA BLA BLA BLA BLA BLA BLA BLA BLA BLA BLA BLA BLA 
BLA BLA BLA BLA BLA BLA BLA BLA BLA BLA BLA BLA BLA BLA BLA BLA BLA BLA BLA BLA 
BLA BLA BLA BLA BLA BLA BLA BLA BLA BLA BLA BLA BLA BLA BLA BLA BLA BLA BLA BLA 
BLA BLA BLA BLA BLA BLA BLA BLA BLA BLA BLA BLA BLA BLA BLA BLA BLA BLA BLA BLA 
BLA BLA BLA BLA BLA BLA BLA BLA BLA BLA BLA BLA BLA BLA BLA BLA BLA BLA BLA BLA 
BLA BLA BLA BLA BLA BLA BLA BLA BLA BLA BLA BLA BLA BLA BLA BLA BLA BLA BLA BLA 
BLA BLA BLA BLA BLA BLA BLA BLA BLA BLA BLA BLA BLA BLA BLA BLA BLA BLA BLA BLA 
BLA BLA BLA BLA BLA BLA BLA BLA BLA BLA BLA BLA BLA BLA BLA BLA BLA BLA BLA BLA 
BLA BLA BLA BLA BLA BLA BLA BLA BLA BLA BLA BLA BLA BLA BLA BLA BLA BLA BLA BLA 
BLA BLA BLA BLA BLA BLA BLA BLA BLA BLA BLA BLA BLA BLA BLA BLA BLA BLA BLA BLA 
BLA BLA BLA BLA BLA BLA BLA BLA BLA BLA BLA BLA BLA BLA BLA BLA BLA BLA BLA BLA 
BLA BLA BLA BLA BLA BLA BLA BLA BLA BLA BLA BLA BLA BLA BLA BLA BLA BLA BLA BLA 
BLA BLA BLA BLA BLA BLA BLA BLA BLA BLA BLA BLA BLA BLA BLA BLA BLA BLA BLA BLA 
BLA BLA BLA BLA BLA BLA BLA BLA BLA BLA BLA BLA BLA BLA BLA BLA BLA BLA BLA BLA 
BLA BLA BLA BLA BLA BLA BLA BLA BLA BLA BLA BLA BLA BLA BLA BLA BLA BLA BLA BLA 
BLA BLA BLA BLA BLA BLA BLA BLA BLA BLA BLA BLA BLA BLA BLA BLA BLA BLA BLA BLA 
BLA BLA BLA BLA BLA BLA BLA BLA BLA BLA BLA BLA BLA BLA BLA BLA BLA BLA BLA BLA 
BLA BLA BLA BLA BLA BLA BLA BLA BLA BLA BLA BLA BLA BLA BLA BLA BLA BLA BLA BLA 
BLA BLA BLA BLA BLA BLA BLA BLA BLA BLA BLA BLA BLA BLA BLA BLA BLA BLA BLA BLA 
BLA BLA BLA BLA BLA BLA BLA BLA BLA BLA BLA BLA BLA BLA BLA BLA BLA BLA BLA BLA 
BLA BLA BLA BLA BLA BLA BLA BLA BLA BLA BLA BLA BLA BLA BLA BLA BLA BLA BLA BLA 
BLA BLA BLA BLA BLA BLA BLA BLA BLA BLA BLA BLA BLA BLA BLA BLA BLA BLA BLA BLA 
BLA BLA BLA BLA BLA BLA BLA BLA BLA BLA BLA BLA BLA BLA BLA BLA BLA BLA BLA BLA 
BLA BLA BLA BLA BLA BLA BLA BLA BLA BLA BLA BLA BLA BLA BLA BLA BLA BLA BLA BLA 
BLA BLA BLA BLA BLA BLA BLA BLA BLA BLA BLA BLA BLA BLA BLA BLA BLA BLA BLA BLA 
BLA BLA BLA BLA BLA BLA BLA BLA BLA BLA BLA BLA BLA BLA BLA BLA BLA BLA BLA BLA 
BLA BLA BLA BLA BLA BLA BLA BLA BLA BLA BLA BLA BLA BLA BLA BLA BLA BLA BLA BLA 
BLA BLA BLA BLA BLA BLA BLA BLA BLA BLA BLA BLA BLA BLA BLA BLA BLA BLA BLA BLA 
BLA BLA BLA BLA BLA BLA BLA BLA BLA BLA BLA BLA BLA BLA BLA BLA BLA BLA BLA BLA 
BLA BLA BLA BLA BLA BLA BLA BLA BLA BLA BLA BLA BLA BLA BLA BLA BLA BLA BLA BLA 
BLA BLA BLA BLA BLA BLA BLA BLA BLA BLA BLA BLA BLA BLA BLA BLA BLA BLA BLA BLA 
BLA BLA BLA BLA BLA BLA BLA BLA BLA BLA BLA BLA BLA BLA BLA BLA BLA BLA BLA BLA 
BLA BLA BLA BLA BLA BLA BLA BLA BLA BLA BLA BLA BLA BLA BLA BLA BLA BLA BLA BLA 
BLA BLA BLA BLA BLA BLA BLA BLA BLA BLA BLA BLA BLA BLA BLA BLA BLA BLA BLA BLA 
BLA BLA BLA BLA BLA BLA BLA BLA BLA BLA BLA BLA BLA BLA BLA BLA BLA BLA BLA BLA 
BLA BLA BLA BLA BLA BLA BLA BLA BLA BLA BLA BLA BLA BLA BLA BLA BLA BLA BLA BLA 
BLA BLA BLA BLA BLA BLA BLA BLA BLA BLA BLA BLA BLA BLA BLA BLA BLA BLA BLA BLA 
BLA BLA BLA BLA BLA BLA BLA BLA BLA BLA BLA BLA BLA BLA BLA BLA BLA BLA BLA BLA 
BLA BLA BLA BLA BLA BLA BLA BLA BLA BLA BLA BLA BLA BLA BLA BLA BLA BLA BLA BLA 
BLA BLA BLA BLA BLA BLA BLA BLA BLA BLA BLA BLA BLA BLA BLA BLA BLA BLA BLA BLA 
BLA BLA BLA BLA BLA BLA BLA BLA BLA BLA BLA BLA BLA BLA BLA BLA BLA BLA BLA BLA 
BLA BLA BLA BLA BLA BLA BLA BLA BLA BLA BLA BLA BLA BLA BLA BLA BLA BLA BLA BLA 
BLA BLA BLA BLA BLA BLA BLA BLA BLA BLA BLA BLA BLA BLA BLA BLA BLA BLA BLA BLA 
BLA BLA BLA BLA BLA BLA BLA BLA BLA BLA BLA BLA BLA BLA BLA BLA BLA BLA BLA BLA 
BLA BLA BLA BLA BLA BLA BLA BLA BLA BLA BLA BLA BLA BLA BLA BLA BLA BLA BLA BLA 
BLA BLA BLA BLA BLA BLA BLA BLA BLA BLA BLA BLA BLA BLA BLA BLA BLA BLA BLA BLA 
BLA BLA BLA BLA BLA BLA BLA BLA BLA BLA BLA BLA BLA BLA BLA BLA BLA BLA BLA BLA 
BLA BLA BLA BLA BLA BLA BLA BLA BLA BLA BLA BLA BLA BLA BLA BLA BLA BLA BLA BLA 
BLA BLA BLA BLA BLA BLA BLA BLA BLA BLA BLA BLA BLA BLA BLA BLA BLA BLA BLA BLA 
BLA BLA BLA BLA BLA BLA BLA BLA BLA BLA BLA BLA BLA BLA BLA BLA BLA BLA BLA BLA 
BLA BLA BLA BLA BLA BLA BLA BLA BLA BLA BLA BLA BLA BLA BLA BLA BLA BLA BLA BLA 
BLA BLA BLA BLA BLA BLA BLA BLA BLA BLA BLA BLA BLA BLA BLA BLA BLA BLA BLA BLA 
BLA BLA BLA BLA BLA BLA BLA BLA BLA BLA BLA BLA BLA BLA BLA BLA BLA BLA BLA BLA 
BLA BLA BLA BLA BLA BLA BLA BLA BLA BLA BLA BLA BLA BLA BLA BLA BLA BLA BLA BLA 
BLA BLA BLA BLA BLA BLA BLA BLA BLA BLA BLA BLA BLA BLA BLA BLA BLA BLA BLA BLA 
BLA BLA BLA BLA BLA BLA BLA BLA BLA BLA BLA BLA BLA BLA BLA BLA BLA BLA BLA BLA 
BLA BLA BLA BLA BLA BLA BLA BLA BLA BLA BLA BLA BLA BLA BLA BLA BLA BLA BLA BLA 
BLA BLA BLA BLA BLA BLA BLA BLA BLA BLA BLA BLA BLA BLA BLA BLA BLA BLA BLA BLA 
BLA BLA BLA BLA BLA BLA BLA BLA BLA BLA BLA BLA BLA BLA BLA BLA BLA BLA BLA BLA 
BLA BLA BLA BLA BLA BLA BLA BLA BLA BLA BLA BLA BLA BLA BLA BLA BLA BLA BLA BLA 
BLA BLA BLA BLA BLA BLA BLA BLA BLA BLA BLA BLA BLA BLA BLA BLA BLA BLA BLA BLA 
BLA BLA BLA BLA BLA BLA BLA BLA BLA BLA BLA BLA BLA BLA BLA BLA BLA BLA BLA BLA 
BLA BLA BLA BLA BLA BLA BLA BLA BLA BLA BLA BLA BLA BLA BLA BLA BLA BLA BLA BLA 
BLA BLA BLA BLA BLA BLA BLA BLA BLA BLA BLA BLA BLA BLA BLA BLA BLA BLA BLA BLA 
BLA BLA BLA BLA BLA BLA BLA BLA BLA BLA BLA BLA BLA BLA BLA BLA BLA BLA BLA BLA 
BLA BLA BLA BLA BLA BLA BLA BLA BLA BLA BLA BLA BLA BLA BLA BLA BLA BLA BLA BLA 
BLA BLA BLA BLA BLA BLA BLA BLA BLA BLA BLA BLA BLA BLA BLA BLA BLA BLA BLA BLA 
BLA BLA BLA BLA BLA BLA BLA BLA BLA BLA BLA BLA BLA BLA BLA BLA BLA BLA BLA BLA 
BLA BLA BLA BLA BLA BLA BLA BLA BLA BLA BLA BLA BLA BLA BLA BLA BLA BLA BLA BLA 
BLA BLA BLA BLA BLA BLA BLA BLA BLA BLA BLA BLA BLA BLA BLA BLA BLA BLA BLA BLA 
BLA BLA BLA BLA BLA BLA BLA BLA BLA BLA BLA BLA BLA BLA BLA BLA BLA BLA BLA BLA 
BLA BLA BLA BLA BLA BLA BLA BLA BLA BLA BLA BLA BLA BLA BLA BLA BLA BLA BLA BLA 
BLA BLA BLA BLA BLA BLA BLA BLA BLA BLA BLA BLA BLA BLA BLA BLA BLA BLA BLA BLA 
BLA BLA BLA BLA BLA BLA BLA BLA BLA BLA BLA BLA BLA BLA BLA BLA BLA BLA BLA BLA 
BLA BLA BLA BLA BLA BLA BLA BLA BLA BLA BLA BLA BLA BLA BLA BLA BLA BLA BLA BLA 
BLA BLA BLA BLA BLA BLA BLA BLA BLA BLA BLA BLA BLA BLA BLA BLA BLA BLA BLA BLA 
BLA BLA BLA BLA BLA BLA BLA BLA BLA BLA BLA BLA BLA BLA BLA BLA BLA BLA BLA BLA 
BLA BLA BLA BLA BLA BLA BLA BLA BLA BLA BLA BLA BLA BLA BLA BLA BLA BLA BLA BLA 
BLA BLA BLA BLA BLA BLA BLA BLA BLA BLA BLA BLA BLA BLA BLA BLA BLA BLA BLA BLA 
BLA BLA BLA BLA BLA BLA BLA BLA BLA BLA BLA BLA BLA BLA BLA BLA BLA BLA BLA BLA 
BLA BLA BLA BLA BLA BLA BLA BLA BLA BLA BLA BLA BLA BLA BLA BLA BLA BLA BLA BLA 
BLA BLA BLA BLA BLA BLA BLA BLA BLA BLA BLA BLA BLA BLA BLA BLA BLA BLA BLA BLA 
BLA BLA BLA BLA BLA BLA BLA BLA BLA BLA BLA BLA BLA BLA BLA BLA BLA BLA BLA BLA 
BLA BLA BLA BLA BLA BLA BLA BLA BLA BLA BLA BLA BLA BLA BLA BLA BLA BLA BLA BLA 
BLA BLA BLA BLA BLA BLA BLA BLA BLA BLA BLA BLA BLA BLA BLA BLA BLA BLA BLA BLA 
BLA BLA BLA BLA BLA BLA BLA BLA BLA BLA BLA BLA BLA BLA BLA BLA BLA BLA BLA BLA 
BLA BLA BLA BLA BLA BLA BLA BLA BLA BLA BLA BLA BLA BLA BLA BLA BLA BLA BLA BLA 
BLA BLA BLA BLA BLA BLA BLA BLA BLA BLA BLA BLA BLA BLA BLA BLA BLA BLA BLA BLA 
BLA BLA BLA BLA BLA BLA BLA BLA BLA BLA BLA BLA BLA BLA BLA BLA BLA BLA BLA BLA 
BLA BLA BLA BLA BLA BLA BLA BLA BLA BLA BLA BLA BLA BLA BLA BLA BLA BLA BLA BLA 
BLA BLA BLA BLA BLA BLA BLA BLA BLA BLA BLA BLA BLA BLA BLA BLA BLA BLA BLA BLA 
BLA BLA BLA BLA BLA BLA BLA BLA BLA BLA BLA BLA BLA BLA BLA BLA BLA BLA BLA BLA 
BLA BLA BLA BLA BLA BLA BLA BLA BLA BLA BLA BLA BLA BLA BLA BLA BLA BLA BLA BLA 
BLA BLA BLA BLA BLA BLA BLA BLA BLA BLA BLA BLA BLA BLA BLA BLA BLA BLA BLA BLA 
BLA BLA BLA BLA BLA BLA BLA BLA BLA BLA BLA BLA BLA BLA BLA BLA BLA BLA BLA BLA 
BLA BLA BLA BLA BLA BLA BLA BLA BLA BLA BLA BLA BLA BLA BLA BLA BLA BLA BLA BLA 
BLA BLA BLA BLA BLA BLA BLA BLA BLA BLA BLA BLA BLA BLA BLA BLA BLA BLA BLA BLA 
BLA BLA BLA BLA BLA BLA BLA BLA BLA BLA BLA BLA BLA BLA BLA BLA BLA BLA BLA BLA 
BLA BLA BLA BLA BLA BLA BLA BLA BLA BLA BLA BLA BLA BLA BLA BLA BLA BLA BLA BLA 
BLA BLA BLA BLA BLA BLA BLA BLA BLA BLA BLA BLA BLA BLA BLA BLA BLA BLA BLA BLA 
BLA BLA BLA BLA BLA BLA BLA BLA BLA BLA BLA BLA BLA BLA BLA BLA BLA BLA BLA BLA 
BLA BLA BLA BLA BLA BLA BLA BLA BLA BLA BLA BLA BLA BLA BLA BLA BLA BLA BLA BLA 
BLA BLA BLA BLA BLA BLA BLA BLA BLA BLA BLA BLA BLA BLA BLA BLA BLA BLA BLA BLA 
BLA BLA BLA BLA BLA BLA BLA BLA BLA BLA BLA BLA BLA BLA BLA BLA BLA BLA BLA BLA 
BLA BLA BLA BLA BLA BLA BLA BLA BLA BLA BLA BLA BLA BLA BLA BLA BLA BLA BLA BLA 
BLA BLA BLA BLA BLA BLA BLA BLA BLA BLA BLA BLA BLA BLA BLA BLA BLA BLA BLA BLA 
BLA BLA BLA BLA BLA BLA BLA BLA BLA BLA BLA BLA BLA BLA BLA BLA BLA BLA BLA BLA 
BLA BLA BLA BLA BLA BLA BLA BLA BLA BLA BLA BLA BLA BLA BLA BLA BLA BLA BLA BLA 
BLA BLA BLA BLA BLA BLA BLA BLA BLA BLA BLA BLA BLA BLA BLA BLA BLA BLA BLA BLA 
BLA BLA BLA BLA BLA BLA BLA BLA BLA BLA BLA BLA BLA BLA BLA BLA BLA BLA BLA BLA 
BLA BLA BLA BLA BLA BLA BLA BLA BLA BLA BLA BLA BLA BLA BLA BLA BLA BLA BLA BLA 
BLA BLA BLA BLA BLA BLA BLA BLA BLA BLA BLA BLA BLA BLA BLA BLA BLA BLA BLA BLA 
BLA BLA BLA BLA BLA BLA BLA BLA BLA BLA BLA BLA BLA BLA BLA BLA BLA BLA BLA BLA 
BLA BLA BLA BLA BLA BLA BLA BLA BLA BLA BLA BLA BLA BLA BLA BLA BLA BLA BLA BLA 
BLA BLA BLA BLA BLA BLA BLA BLA BLA BLA BLA BLA BLA BLA BLA BLA BLA BLA BLA BLA 
BLA BLA BLA BLA BLA BLA BLA BLA BLA BLA BLA BLA BLA BLA BLA BLA BLA BLA BLA BLA 
BLA BLA BLA BLA BLA BLA BLA BLA BLA BLA BLA BLA BLA BLA BLA BLA BLA BLA BLA BLA 
BLA BLA BLA BLA BLA BLA BLA BLA BLA BLA BLA BLA BLA BLA BLA BLA BLA BLA BLA BLA 
BLA BLA BLA BLA BLA BLA BLA BLA BLA BLA BLA BLA BLA BLA BLA BLA BLA BLA BLA BLA 
BLA BLA BLA BLA BLA BLA BLA BLA BLA BLA BLA BLA BLA BLA BLA BLA BLA BLA BLA BLA 
BLA BLA BLA BLA BLA BLA BLA BLA BLA BLA BLA BLA BLA BLA BLA BLA BLA BLA BLA BLA 
BLA BLA BLA BLA BLA BLA BLA BLA BLA BLA BLA BLA BLA BLA BLA BLA BLA BLA BLA BLA 
BLA BLA BLA BLA BLA BLA BLA BLA BLA BLA BLA BLA BLA BLA BLA BLA BLA BLA BLA BLA 
BLA BLA BLA BLA BLA BLA BLA BLA BLA BLA BLA BLA BLA BLA BLA BLA BLA BLA BLA BLA 
BLA BLA BLA BLA BLA BLA BLA BLA BLA BLA BLA BLA BLA BLA BLA BLA BLA BLA BLA BLA 
BLA BLA BLA BLA BLA BLA BLA BLA BLA BLA BLA BLA BLA BLA BLA BLA BLA BLA BLA BLA 
BLA BLA BLA BLA BLA BLA BLA BLA BLA BLA BLA BLA BLA BLA BLA BLA BLA BLA BLA BLA 
BLA BLA BLA BLA BLA BLA BLA BLA BLA BLA BLA BLA BLA BLA BLA BLA BLA BLA BLA BLA 
BLA BLA BLA BLA BLA BLA BLA BLA BLA BLA BLA BLA BLA BLA BLA BLA BLA BLA BLA BLA 
BLA BLA BLA BLA BLA BLA BLA BLA BLA BLA BLA BLA BLA BLA BLA BLA BLA BLA BLA BLA 
BLA BLA BLA BLA BLA BLA BLA BLA BLA BLA BLA BLA BLA BLA BLA BLA BLA BLA BLA BLA 
BLA BLA BLA BLA BLA BLA BLA BLA BLA BLA BLA BLA BLA BLA BLA BLA BLA BLA BLA BLA 
BLA BLA BLA BLA BLA BLA BLA BLA BLA BLA BLA BLA BLA BLA BLA BLA BLA BLA BLA BLA 
BLA BLA BLA BLA BLA BLA BLA BLA BLA BLA BLA BLA BLA BLA BLA BLA BLA BLA BLA BLA 
BLA BLA BLA BLA BLA BLA BLA BLA BLA BLA BLA BLA BLA BLA BLA BLA BLA BLA BLA BLA 
BLA BLA BLA BLA BLA BLA BLA BLA BLA BLA BLA BLA BLA BLA BLA BLA BLA BLA BLA BLA 
BLA BLA BLA BLA BLA BLA BLA BLA BLA BLA BLA BLA BLA BLA BLA BLA BLA BLA BLA BLA 
BLA BLA BLA BLA BLA BLA BLA BLA BLA BLA BLA BLA BLA BLA BLA BLA BLA BLA BLA BLA 
BLA BLA BLA BLA BLA BLA BLA BLA BLA BLA BLA BLA BLA BLA BLA BLA BLA BLA BLA BLA 
BLA BLA BLA BLA BLA BLA BLA BLA BLA BLA BLA BLA BLA BLA BLA BLA BLA BLA BLA BLA 
BLA BLA BLA BLA BLA BLA BLA BLA BLA BLA BLA BLA BLA BLA BLA BLA BLA BLA BLA BLA 
BLA BLA BLA BLA BLA BLA BLA BLA BLA BLA BLA BLA BLA BLA BLA BLA BLA BLA BLA BLA 
BLA BLA BLA BLA BLA BLA BLA BLA BLA BLA BLA BLA BLA BLA BLA BLA BLA BLA BLA BLA 
BLA BLA BLA BLA BLA BLA BLA BLA BLA BLA BLA BLA BLA BLA BLA BLA BLA BLA BLA BLA 
BLA BLA BLA BLA BLA BLA BLA BLA BLA BLA BLA BLA BLA BLA BLA BLA BLA BLA BLA BLA 
BLA BLA BLA BLA BLA BLA BLA BLA BLA BLA BLA BLA BLA BLA BLA BLA BLA BLA BLA BLA 
BLA BLA BLA BLA BLA BLA BLA BLA BLA BLA BLA BLA BLA BLA BLA BLA BLA BLA BLA BLA 
BLA BLA BLA BLA BLA BLA BLA BLA BLA BLA BLA BLA BLA BLA BLA BLA BLA BLA BLA BLA 
BLA BLA BLA BLA BLA BLA BLA BLA BLA BLA BLA BLA BLA BLA BLA BLA BLA BLA BLA BLA 
BLA BLA BLA BLA BLA BLA BLA BLA BLA BLA BLA BLA BLA BLA BLA BLA BLA BLA BLA BLA 
BLA BLA BLA BLA BLA BLA BLA BLA BLA BLA BLA BLA BLA BLA BLA BLA BLA BLA BLA BLA 
BLA BLA BLA BLA BLA BLA BLA BLA BLA BLA BLA BLA BLA BLA BLA BLA BLA BLA BLA BLA 
BLA BLA BLA BLA BLA BLA BLA BLA BLA BLA BLA BLA BLA BLA BLA BLA BLA BLA BLA BLA 
BLA BLA BLA BLA BLA BLA BLA BLA BLA BLA BLA BLA BLA BLA BLA BLA BLA BLA BLA BLA 
BLA BLA BLA BLA BLA BLA BLA BLA BLA BLA BLA BLA BLA BLA BLA BLA BLA BLA BLA BLA 
BLA BLA BLA BLA BLA BLA BLA BLA BLA BLA BLA BLA BLA BLA BLA BLA BLA BLA BLA BLA 
BLA BLA BLA BLA BLA BLA BLA BLA BLA BLA BLA BLA BLA BLA BLA BLA BLA BLA BLA BLA 
BLA BLA BLA BLA BLA BLA BLA BLA BLA BLA BLA BLA BLA BLA BLA BLA BLA BLA BLA BLA 
BLA BLA BLA BLA BLA BLA BLA BLA BLA BLA BLA BLA BLA BLA BLA BLA BLA BLA BLA BLA 
BLA BLA BLA BLA BLA BLA BLA BLA BLA BLA BLA BLA BLA BLA BLA BLA BLA BLA BLA BLA 
BLA BLA BLA BLA BLA BLA BLA BLA BLA BLA BLA BLA BLA BLA BLA BLA BLA BLA BLA BLA 
BLA BLA BLA BLA BLA BLA BLA BLA BLA BLA BLA BLA BLA BLA BLA BLA BLA BLA BLA BLA 
BLA BLA BLA BLA BLA BLA BLA BLA BLA BLA BLA BLA BLA BLA BLA BLA BLA BLA BLA BLA 
BLA BLA BLA BLA BLA BLA BLA BLA BLA BLA BLA BLA BLA BLA BLA BLA BLA BLA BLA BLA 
BLA BLA BLA BLA BLA BLA BLA BLA BLA BLA BLA BLA BLA BLA BLA BLA BLA BLA BLA BLA 
BLA BLA BLA BLA BLA BLA BLA BLA BLA BLA BLA BLA BLA BLA BLA BLA BLA BLA BLA BLA 
BLA BLA BLA BLA BLA BLA BLA BLA BLA BLA BLA BLA BLA BLA BLA BLA BLA BLA BLA BLA 
BLA BLA BLA BLA BLA BLA BLA BLA BLA BLA BLA BLA BLA BLA BLA BLA BLA BLA BLA BLA 
BLA BLA BLA BLA BLA BLA BLA BLA BLA BLA BLA BLA BLA BLA BLA BLA BLA BLA BLA BLA 
BLA BLA BLA BLA BLA BLA BLA BLA BLA BLA BLA BLA BLA BLA BLA BLA BLA BLA BLA BLA 
BLA BLA BLA BLA BLA BLA BLA BLA BLA BLA BLA BLA BLA BLA BLA BLA BLA BLA BLA BLA 
BLA BLA BLA BLA BLA BLA BLA BLA BLA BLA BLA BLA BLA BLA BLA BLA BLA BLA BLA BLA 
BLA BLA BLA BLA BLA BLA BLA BLA BLA BLA BLA BLA BLA BLA BLA BLA BLA BLA BLA BLA 
BLA BLA BLA BLA BLA BLA BLA BLA BLA BLA BLA BLA BLA BLA BLA BLA BLA BLA BLA BLA 
BLA BLA BLA BLA BLA BLA BLA BLA BLA BLA BLA BLA BLA BLA BLA BLA BLA BLA BLA BLA 
BLA BLA BLA BLA BLA BLA BLA BLA BLA BLA BLA BLA BLA BLA BLA BLA BLA BLA BLA BLA 
BLA BLA BLA BLA BLA BLA BLA BLA BLA BLA BLA BLA BLA BLA BLA BLA BLA BLA BLA BLA 
BLA BLA BLA BLA BLA BLA BLA BLA BLA BLA BLA BLA BLA BLA BLA BLA BLA BLA BLA BLA 
BLA BLA BLA BLA BLA BLA BLA BLA BLA BLA BLA BLA BLA BLA BLA BLA BLA BLA BLA BLA 
BLA BLA BLA BLA BLA BLA BLA BLA BLA BLA BLA BLA BLA BLA BLA BLA BLA BLA BLA BLA 
BLA BLA BLA BLA BLA BLA BLA BLA BLA BLA BLA BLA BLA BLA BLA BLA BLA BLA BLA BLA 
BLA BLA BLA BLA BLA BLA BLA BLA BLA BLA BLA BLA BLA BLA BLA BLA BLA BLA BLA BLA 
BLA BLA BLA BLA BLA BLA BLA BLA BLA BLA BLA BLA BLA BLA BLA BLA BLA BLA BLA BLA 
BLA BLA BLA BLA BLA BLA BLA BLA BLA BLA BLA BLA BLA BLA BLA BLA BLA BLA BLA BLA 
BLA BLA BLA BLA BLA BLA BLA BLA BLA BLA BLA BLA BLA BLA BLA BLA BLA BLA BLA BLA 
BLA BLA BLA BLA BLA BLA BLA BLA BLA BLA BLA BLA BLA BLA BLA BLA BLA BLA BLA BLA 
BLA BLA BLA BLA BLA BLA BLA BLA BLA BLA BLA BLA BLA BLA BLA BLA BLA BLA BLA BLA 
BLA BLA BLA BLA BLA BLA BLA BLA BLA BLA BLA BLA BLA BLA BLA BLA BLA BLA BLA BLA 
BLA BLA BLA BLA BLA BLA BLA BLA BLA BLA BLA BLA BLA BLA BLA BLA BLA BLA BLA BLA 
BLA BLA BLA BLA BLA BLA BLA BLA BLA BLA BLA BLA BLA BLA BLA BLA BLA BLA BLA BLA 
BLA BLA BLA BLA BLA BLA BLA BLA BLA BLA BLA BLA BLA BLA BLA BLA BLA BLA BLA BLA 
BLA BLA BLA BLA BLA BLA BLA BLA BLA BLA BLA BLA BLA BLA BLA BLA BLA BLA BLA BLA 
BLA BLA BLA BLA BLA BLA BLA BLA BLA BLA BLA BLA BLA BLA BLA BLA BLA BLA BLA BLA 
BLA BLA BLA BLA BLA BLA BLA BLA BLA BLA BLA BLA BLA BLA BLA BLA BLA BLA BLA BLA 
BLA BLA BLA BLA BLA BLA BLA BLA BLA BLA BLA BLA BLA BLA BLA BLA BLA BLA BLA BLA 
BLA BLA BLA BLA BLA BLA BLA BLA BLA BLA BLA BLA BLA BLA BLA BLA BLA BLA BLA BLA 
BLA BLA BLA BLA BLA BLA BLA BLA BLA BLA BLA BLA BLA BLA BLA BLA BLA BLA BLA BLA 
BLA BLA BLA BLA BLA BLA BLA BLA BLA BLA BLA BLA BLA BLA BLA BLA BLA BLA BLA BLA 
BLA BLA BLA BLA BLA BLA BLA BLA BLA BLA BLA BLA BLA BLA BLA BLA BLA BLA BLA BLA 
BLA BLA BLA BLA BLA BLA BLA BLA BLA BLA BLA BLA BLA BLA BLA BLA BLA BLA BLA BLA 
BLA BLA BLA BLA BLA BLA BLA BLA BLA BLA BLA BLA BLA BLA BLA BLA BLA BLA BLA BLA 
BLA BLA BLA BLA BLA BLA BLA BLA BLA BLA BLA BLA BLA BLA BLA BLA BLA BLA BLA BLA 
BLA BLA BLA BLA BLA BLA BLA BLA BLA BLA BLA BLA BLA BLA BLA BLA BLA BLA BLA BLA 
BLA BLA BLA BLA BLA BLA BLA BLA BLA BLA BLA BLA BLA BLA BLA BLA BLA BLA BLA BLA 
BLA BLA BLA BLA BLA BLA BLA BLA BLA BLA BLA BLA BLA BLA BLA BLA BLA BLA BLA BLA 
BLA BLA BLA BLA BLA BLA BLA BLA BLA BLA BLA BLA BLA BLA BLA BLA BLA BLA BLA BLA 
BLA BLA BLA BLA BLA BLA BLA BLA BLA BLA BLA BLA BLA BLA BLA BLA BLA BLA BLA BLA 
BLA BLA BLA BLA BLA BLA BLA BLA BLA BLA BLA BLA BLA BLA BLA BLA BLA BLA BLA BLA 
BLA BLA BLA BLA BLA BLA BLA BLA BLA BLA BLA BLA BLA BLA BLA BLA BLA BLA BLA BLA 
BLA BLA BLA BLA BLA BLA BLA BLA BLA BLA BLA BLA BLA BLA BLA BLA BLA BLA BLA BLA 
BLA BLA BLA BLA BLA BLA BLA BLA BLA BLA BLA BLA BLA BLA BLA BLA BLA BLA BLA BLA 
BLA BLA BLA BLA BLA BLA BLA BLA BLA BLA BLA BLA BLA BLA BLA BLA BLA BLA BLA BLA 
BLA BLA BLA BLA BLA BLA BLA BLA BLA BLA BLA BLA BLA BLA BLA BLA BLA BLA BLA BLA 
BLA BLA BLA BLA BLA BLA BLA BLA BLA BLA BLA BLA BLA BLA BLA BLA BLA BLA BLA BLA 
BLA BLA BLA BLA BLA BLA BLA BLA BLA BLA BLA BLA BLA BLA BLA BLA BLA BLA BLA BLA 
BLA BLA BLA BLA BLA BLA BLA BLA BLA BLA BLA BLA BLA BLA BLA BLA BLA BLA BLA BLA 
BLA BLA BLA BLA BLA BLA BLA BLA BLA BLA BLA BLA BLA BLA BLA BLA BLA BLA BLA BLA 
BLA BLA BLA BLA BLA BLA BLA BLA BLA BLA BLA BLA BLA BLA BLA BLA BLA BLA BLA BLA 
BLA BLA BLA BLA BLA BLA BLA BLA BLA BLA BLA BLA BLA BLA BLA BLA BLA BLA BLA BLA 
BLA BLA BLA BLA BLA BLA BLA BLA BLA BLA BLA BLA BLA BLA BLA BLA BLA BLA BLA BLA 
BLA BLA BLA BLA BLA BLA BLA BLA BLA BLA BLA BLA BLA BLA BLA BLA BLA BLA BLA BLA 
BLA BLA BLA BLA BLA BLA BLA BLA BLA BLA BLA BLA BLA BLA BLA BLA BLA BLA BLA BLA 
BLA BLA BLA BLA BLA BLA BLA BLA BLA BLA BLA BLA BLA BLA BLA BLA BLA BLA BLA BLA 
BLA BLA BLA BLA BLA BLA BLA BLA BLA BLA BLA BLA BLA BLA BLA BLA BLA BLA BLA BLA 
BLA BLA BLA BLA BLA BLA BLA BLA BLA BLA BLA BLA BLA BLA BLA BLA BLA BLA BLA BLA 
BLA BLA BLA BLA BLA BLA BLA BLA BLA BLA BLA BLA BLA BLA BLA BLA BLA BLA BLA BLA 
BLA BLA BLA BLA BLA BLA BLA BLA BLA BLA BLA BLA BLA BLA BLA BLA BLA BLA BLA BLA 
BLA BLA BLA BLA BLA BLA BLA BLA BLA BLA BLA BLA BLA BLA BLA BLA BLA BLA BLA BLA 
BLA BLA BLA BLA BLA BLA BLA BLA BLA BLA BLA BLA BLA BLA BLA BLA BLA BLA BLA BLA 
BLA BLA BLA BLA BLA BLA BLA BLA BLA BLA BLA BLA BLA BLA BLA BLA BLA BLA BLA BLA 
BLA BLA BLA BLA BLA BLA BLA BLA BLA BLA BLA BLA BLA BLA BLA BLA BLA BLA BLA BLA 
BLA BLA BLA BLA BLA BLA BLA BLA BLA BLA BLA BLA BLA BLA BLA BLA BLA BLA BLA BLA 
BLA BLA BLA BLA BLA BLA BLA BLA BLA BLA BLA BLA BLA BLA BLA BLA BLA BLA BLA BLA 
BLA BLA BLA BLA BLA BLA BLA BLA BLA BLA BLA BLA BLA BLA BLA BLA BLA BLA BLA BLA 
BLA BLA BLA BLA BLA BLA BLA BLA BLA BLA BLA BLA BLA BLA BLA BLA BLA BLA BLA BLA 
BLA BLA BLA BLA BLA BLA BLA BLA BLA BLA BLA BLA BLA BLA BLA BLA BLA BLA BLA BLA 
BLA BLA BLA BLA BLA BLA BLA BLA BLA BLA BLA BLA BLA BLA BLA BLA BLA BLA BLA BLA 
BLA BLA BLA BLA BLA BLA BLA BLA BLA BLA BLA BLA BLA BLA BLA BLA BLA BLA BLA BLA 
BLA BLA BLA BLA BLA BLA BLA BLA BLA BLA BLA BLA BLA BLA BLA BLA BLA BLA BLA BLA 
BLA BLA BLA BLA BLA BLA BLA BLA BLA BLA BLA BLA BLA BLA BLA BLA BLA BLA BLA BLA 
BLA BLA BLA BLA BLA BLA BLA BLA BLA BLA BLA BLA BLA BLA BLA BLA BLA BLA BLA BLA 
BLA BLA BLA BLA BLA BLA BLA BLA BLA BLA BLA BLA BLA BLA BLA BLA BLA BLA BLA BLA 
BLA BLA BLA BLA BLA BLA BLA BLA BLA BLA BLA BLA BLA BLA BLA BLA BLA BLA BLA BLA 
BLA BLA BLA BLA BLA BLA BLA BLA BLA BLA BLA BLA BLA BLA BLA BLA BLA BLA BLA BLA 
BLA BLA BLA BLA BLA BLA BLA BLA BLA BLA BLA BLA BLA BLA BLA BLA BLA BLA BLA BLA 
BLA BLA BLA BLA BLA BLA BLA BLA BLA BLA BLA BLA BLA BLA BLA BLA BLA BLA BLA BLA 
BLA BLA BLA BLA BLA BLA BLA BLA BLA BLA BLA BLA BLA BLA BLA BLA BLA BLA BLA BLA 
BLA BLA BLA BLA BLA BLA BLA BLA BLA BLA BLA BLA BLA BLA BLA BLA BLA BLA BLA BLA 
BLA BLA BLA BLA BLA BLA BLA BLA BLA BLA BLA BLA BLA BLA BLA BLA BLA BLA BLA BLA 
BLA BLA BLA BLA BLA BLA BLA BLA BLA BLA BLA BLA BLA BLA BLA BLA BLA BLA BLA BLA 
BLA BLA BLA BLA BLA BLA BLA BLA BLA BLA BLA BLA BLA BLA BLA BLA BLA BLA BLA BLA 
BLA BLA BLA BLA BLA BLA BLA BLA BLA BLA BLA BLA BLA BLA BLA BLA BLA BLA BLA BLA 
BLA BLA BLA BLA BLA BLA BLA BLA BLA BLA BLA BLA BLA BLA BLA BLA BLA BLA BLA BLA 
BLA BLA BLA BLA BLA BLA BLA BLA BLA BLA BLA BLA BLA BLA BLA BLA BLA BLA BLA BLA 
BLA BLA BLA BLA BLA BLA BLA BLA BLA BLA BLA BLA BLA BLA BLA BLA BLA BLA BLA BLA 
BLA BLA BLA BLA BLA BLA BLA BLA BLA BLA BLA BLA BLA BLA BLA BLA BLA BLA BLA BLA 
BLA BLA BLA BLA BLA BLA BLA BLA BLA BLA BLA BLA BLA BLA BLA BLA BLA BLA BLA BLA 
BLA BLA BLA BLA BLA BLA BLA BLA BLA BLA BLA BLA BLA BLA BLA BLA BLA BLA BLA BLA 
BLA BLA BLA BLA BLA BLA BLA BLA BLA BLA BLA BLA BLA BLA BLA BLA BLA BLA BLA BLA 
BLA BLA BLA BLA BLA BLA BLA BLA BLA BLA BLA BLA BLA BLA BLA BLA BLA BLA BLA BLA 
BLA BLA BLA BLA BLA BLA BLA BLA BLA BLA BLA BLA BLA BLA BLA BLA BLA BLA BLA BLA 
BLA BLA BLA BLA BLA BLA BLA BLA BLA BLA BLA BLA BLA BLA BLA BLA BLA BLA BLA BLA 
BLA BLA BLA BLA BLA BLA BLA BLA BLA BLA BLA BLA BLA BLA BLA BLA BLA BLA BLA BLA 
BLA BLA BLA BLA BLA BLA BLA BLA BLA BLA BLA BLA BLA BLA BLA BLA BLA BLA BLA BLA 
BLA BLA BLA BLA BLA BLA BLA BLA BLA BLA BLA BLA BLA BLA BLA BLA BLA BLA BLA BLA 
BLA BLA BLA BLA BLA BLA BLA BLA BLA BLA BLA BLA BLA BLA BLA BLA BLA BLA BLA BLA 
BLA BLA BLA BLA BLA BLA BLA BLA BLA BLA BLA BLA BLA BLA BLA BLA BLA BLA BLA BLA 
BLA BLA BLA BLA BLA BLA BLA BLA BLA BLA BLA BLA BLA BLA BLA BLA BLA BLA BLA BLA 
BLA BLA BLA BLA BLA BLA BLA BLA BLA BLA BLA BLA BLA BLA BLA BLA BLA BLA BLA BLA 
BLA BLA BLA BLA BLA BLA BLA BLA BLA BLA BLA BLA BLA BLA BLA BLA BLA BLA BLA BLA 
BLA BLA BLA BLA BLA BLA BLA BLA BLA BLA BLA BLA BLA BLA BLA BLA BLA BLA BLA BLA 
BLA BLA BLA BLA BLA BLA BLA BLA BLA BLA BLA BLA BLA BLA BLA BLA BLA BLA BLA BLA 
BLA BLA BLA BLA BLA BLA BLA BLA BLA BLA BLA BLA BLA BLA BLA BLA BLA BLA BLA BLA 
BLA BLA BLA BLA BLA BLA BLA BLA BLA BLA BLA BLA BLA BLA BLA BLA BLA BLA BLA BLA 
BLA BLA BLA BLA BLA BLA BLA BLA BLA BLA BLA BLA BLA BLA BLA BLA BLA BLA BLA BLA 
BLA BLA BLA BLA BLA BLA BLA BLA BLA BLA BLA BLA BLA BLA BLA BLA BLA BLA BLA BLA 
BLA BLA BLA BLA BLA BLA BLA BLA BLA BLA BLA BLA BLA BLA BLA BLA BLA BLA BLA BLA 
BLA BLA BLA BLA BLA BLA BLA BLA BLA BLA BLA BLA BLA BLA BLA BLA BLA BLA BLA BLA 
BLA BLA BLA BLA BLA BLA BLA BLA BLA BLA BLA BLA BLA BLA BLA BLA BLA BLA BLA BLA 
BLA BLA BLA BLA BLA BLA BLA BLA BLA BLA BLA BLA BLA BLA BLA BLA BLA BLA BLA BLA 
BLA BLA BLA BLA BLA BLA BLA BLA BLA BLA BLA BLA BLA BLA BLA BLA BLA BLA BLA BLA 
BLA BLA BLA BLA BLA BLA BLA BLA BLA BLA BLA BLA BLA BLA BLA BLA BLA BLA BLA BLA 
BLA BLA BLA BLA BLA BLA BLA BLA BLA BLA BLA BLA BLA BLA BLA BLA BLA BLA BLA BLA 
BLA BLA BLA BLA BLA BLA BLA BLA BLA BLA BLA BLA BLA BLA BLA BLA BLA BLA BLA BLA 
BLA BLA BLA BLA BLA BLA BLA BLA BLA BLA BLA BLA BLA BLA BLA BLA BLA BLA BLA BLA 
BLA BLA BLA BLA BLA BLA BLA BLA BLA BLA BLA BLA BLA BLA BLA BLA BLA BLA BLA BLA 
BLA BLA BLA BLA BLA BLA BLA BLA BLA BLA BLA BLA BLA BLA BLA BLA BLA BLA BLA BLA 
BLA BLA BLA BLA BLA BLA BLA BLA BLA BLA BLA BLA BLA BLA BLA BLA BLA BLA BLA BLA 
BLA BLA BLA BLA BLA BLA BLA BLA BLA BLA BLA BLA BLA BLA BLA BLA BLA BLA BLA BLA 
BLA BLA BLA BLA BLA BLA BLA BLA BLA BLA BLA BLA BLA BLA BLA BLA BLA BLA BLA BLA 
BLA BLA BLA BLA BLA BLA BLA BLA BLA BLA BLA BLA BLA BLA BLA BLA BLA BLA BLA BLA 
BLA BLA BLA BLA BLA BLA BLA BLA BLA BLA BLA BLA BLA BLA BLA BLA BLA BLA BLA BLA 
BLA BLA BLA BLA BLA BLA BLA BLA BLA BLA BLA BLA BLA BLA BLA BLA BLA BLA BLA BLA 
BLA BLA BLA BLA BLA BLA BLA BLA BLA BLA BLA BLA BLA BLA BLA BLA BLA BLA BLA BLA 
BLA BLA BLA BLA BLA BLA BLA BLA BLA BLA BLA BLA BLA BLA BLA BLA BLA BLA BLA BLA 
BLA BLA BLA BLA BLA BLA BLA BLA BLA BLA BLA BLA BLA BLA BLA BLA BLA BLA BLA BLA 
BLA BLA BLA BLA BLA BLA BLA BLA BLA BLA BLA BLA BLA BLA BLA BLA BLA BLA BLA BLA 
BLA BLA BLA BLA BLA BLA BLA BLA BLA BLA BLA BLA BLA BLA BLA BLA BLA BLA BLA BLA 
BLA BLA BLA BLA BLA BLA BLA BLA BLA BLA BLA BLA BLA BLA BLA BLA BLA BLA BLA BLA 
BLA BLA BLA BLA BLA BLA BLA BLA BLA BLA BLA BLA BLA BLA BLA BLA BLA BLA BLA BLA 
BLA BLA BLA BLA BLA BLA BLA BLA BLA BLA BLA BLA BLA BLA BLA BLA BLA BLA BLA BLA 
BLA BLA BLA BLA BLA BLA BLA BLA BLA BLA BLA BLA BLA BLA BLA BLA BLA BLA BLA BLA 
BLA BLA BLA BLA BLA BLA BLA BLA BLA BLA BLA BLA BLA BLA BLA BLA BLA BLA BLA BLA 
BLA BLA BLA BLA BLA BLA BLA BLA BLA BLA BLA BLA BLA BLA BLA BLA BLA BLA BLA BLA 
BLA BLA BLA BLA BLA BLA BLA BLA BLA BLA BLA BLA BLA BLA BLA BLA BLA BLA BLA BLA 
BLA BLA BLA BLA BLA BLA BLA BLA BLA BLA BLA BLA BLA BLA BLA BLA BLA BLA BLA BLA 
BLA BLA BLA BLA BLA BLA BLA BLA BLA BLA BLA BLA BLA BLA BLA BLA BLA BLA BLA BLA 
BLA BLA BLA BLA BLA BLA BLA BLA BLA BLA BLA BLA BLA BLA BLA BLA BLA BLA BLA BLA 
BLA BLA BLA BLA BLA BLA BLA BLA BLA BLA BLA BLA BLA BLA BLA BLA BLA BLA BLA BLA 
BLA BLA BLA BLA BLA BLA BLA BLA BLA BLA BLA BLA BLA BLA BLA BLA BLA BLA BLA BLA 
BLA BLA BLA BLA BLA BLA BLA BLA BLA BLA BLA BLA BLA BLA BLA BLA BLA BLA BLA BLA 
BLA BLA BLA BLA BLA BLA BLA BLA BLA BLA BLA BLA BLA BLA BLA BLA BLA BLA BLA BLA 
BLA BLA BLA BLA BLA BLA BLA BLA BLA BLA BLA BLA BLA BLA BLA BLA BLA BLA BLA BLA 
BLA BLA BLA BLA BLA BLA BLA BLA BLA BLA BLA BLA BLA BLA BLA BLA BLA BLA BLA BLA 
BLA BLA BLA BLA BLA BLA BLA BLA BLA BLA BLA BLA BLA BLA BLA BLA BLA BLA BLA BLA 
BLA BLA BLA BLA BLA BLA BLA BLA BLA BLA BLA BLA BLA BLA BLA BLA BLA BLA BLA BLA 
BLA BLA BLA BLA BLA BLA BLA BLA BLA BLA BLA BLA BLA BLA BLA BLA BLA BLA BLA BLA 
BLA BLA BLA BLA BLA BLA BLA BLA BLA BLA BLA BLA BLA BLA BLA BLA BLA BLA BLA BLA 
BLA BLA BLA BLA BLA BLA BLA BLA BLA BLA BLA BLA BLA BLA BLA BLA BLA BLA BLA BLA 
BLA BLA BLA BLA BLA BLA BLA BLA BLA BLA BLA BLA BLA BLA BLA BLA BLA BLA BLA BLA 
BLA BLA BLA BLA BLA BLA BLA BLA BLA BLA BLA BLA BLA BLA BLA BLA BLA BLA BLA BLA 
BLA BLA BLA BLA BLA BLA BLA BLA BLA BLA BLA BLA BLA BLA BLA BLA BLA BLA BLA BLA 
BLA BLA BLA BLA BLA BLA BLA BLA BLA BLA BLA BLA BLA BLA BLA BLA BLA BLA BLA BLA 
BLA BLA BLA BLA BLA BLA BLA BLA BLA BLA BLA BLA BLA BLA BLA BLA BLA BLA BLA BLA 
BLA BLA BLA BLA BLA BLA BLA BLA BLA BLA BLA BLA BLA BLA BLA BLA BLA BLA BLA BLA 
BLA BLA BLA BLA BLA BLA BLA BLA BLA BLA BLA BLA BLA BLA BLA BLA BLA BLA BLA BLA 
BLA BLA BLA BLA BLA BLA BLA BLA BLA BLA BLA BLA BLA BLA BLA BLA BLA BLA BLA BLA 
BLA BLA BLA BLA BLA BLA BLA BLA BLA BLA BLA BLA BLA BLA BLA BLA BLA BLA BLA BLA 
BLA BLA BLA BLA BLA BLA BLA BLA BLA BLA BLA BLA BLA BLA BLA BLA BLA BLA BLA BLA 
BLA BLA BLA BLA BLA BLA BLA BLA BLA BLA BLA BLA BLA BLA BLA BLA BLA BLA BLA BLA 
BLA BLA BLA BLA BLA BLA BLA BLA BLA BLA BLA BLA BLA BLA BLA BLA BLA BLA BLA BLA 
BLA BLA BLA BLA BLA BLA BLA BLA BLA BLA BLA BLA BLA BLA BLA BLA BLA BLA BLA BLA 
BLA BLA BLA BLA BLA BLA BLA BLA BLA BLA BLA BLA BLA BLA BLA BLA BLA BLA BLA BLA 
BLA BLA BLA BLA BLA BLA BLA BLA BLA BLA BLA BLA BLA BLA BLA BLA BLA BLA BLA BLA 
BLA BLA BLA BLA BLA BLA BLA BLA BLA BLA BLA BLA BLA BLA BLA BLA BLA BLA BLA BLA 
BLA BLA BLA BLA BLA BLA BLA BLA BLA BLA BLA BLA BLA BLA BLA BLA BLA BLA BLA BLA 
BLA BLA BLA BLA BLA BLA BLA BLA BLA BLA BLA BLA BLA BLA BLA BLA BLA BLA BLA BLA 
BLA BLA BLA BLA BLA BLA BLA BLA BLA BLA BLA BLA BLA BLA BLA BLA BLA BLA BLA BLA 
BLA BLA BLA BLA BLA BLA BLA BLA BLA BLA BLA BLA BLA BLA BLA BLA BLA BLA BLA BLA 
BLA BLA BLA BLA BLA BLA BLA BLA BLA BLA BLA BLA BLA BLA BLA BLA BLA BLA BLA BLA 
BLA BLA BLA BLA BLA BLA BLA BLA BLA BLA BLA BLA BLA BLA BLA BLA BLA BLA BLA BLA 
BLA BLA BLA BLA BLA BLA BLA BLA BLA BLA BLA BLA BLA BLA BLA BLA BLA BLA BLA BLA 
BLA BLA BLA BLA BLA BLA BLA BLA BLA BLA BLA BLA BLA BLA BLA BLA BLA BLA BLA BLA 
BLA BLA BLA BLA BLA BLA BLA BLA BLA BLA BLA BLA BLA BLA BLA BLA BLA BLA BLA BLA 
BLA BLA BLA BLA BLA BLA BLA BLA BLA BLA BLA BLA BLA BLA BLA BLA BLA BLA BLA BLA 
BLA BLA BLA BLA BLA BLA BLA BLA BLA BLA BLA BLA BLA BLA BLA BLA BLA BLA BLA BLA 
BLA BLA BLA BLA BLA BLA BLA BLA BLA BLA BLA BLA BLA BLA BLA BLA BLA BLA BLA BLA 
BLA BLA BLA BLA BLA BLA BLA BLA BLA BLA BLA BLA BLA BLA BLA BLA BLA BLA BLA BLA 
BLA BLA BLA BLA BLA BLA BLA BLA BLA BLA BLA BLA BLA BLA BLA BLA BLA BLA BLA BLA 
BLA BLA BLA BLA BLA BLA BLA BLA BLA BLA BLA BLA BLA BLA BLA BLA BLA BLA BLA BLA 
BLA BLA BLA BLA BLA BLA BLA BLA BLA BLA BLA BLA BLA BLA BLA BLA BLA BLA BLA BLA 
BLA BLA BLA BLA BLA BLA BLA BLA BLA BLA BLA BLA BLA BLA BLA BLA BLA BLA BLA BLA 
BLA BLA BLA BLA BLA BLA BLA BLA BLA BLA BLA BLA BLA BLA BLA BLA BLA BLA BLA BLA 
BLA BLA BLA BLA BLA BLA BLA BLA BLA BLA BLA BLA BLA BLA BLA BLA BLA BLA BLA BLA 
BLA BLA BLA BLA BLA BLA BLA BLA BLA BLA BLA BLA BLA BLA BLA BLA BLA BLA BLA BLA 
BLA BLA BLA BLA BLA BLA BLA BLA BLA BLA BLA BLA BLA BLA BLA BLA BLA BLA BLA BLA 
BLA BLA BLA BLA BLA BLA BLA BLA BLA BLA BLA BLA BLA BLA BLA BLA BLA BLA BLA BLA 
BLA BLA BLA BLA BLA BLA BLA BLA BLA BLA BLA BLA BLA BLA BLA BLA BLA BLA BLA BLA 
BLA BLA BLA BLA BLA BLA BLA BLA BLA BLA BLA BLA BLA BLA BLA BLA BLA BLA BLA BLA 
BLA BLA BLA BLA BLA BLA BLA BLA BLA BLA BLA BLA BLA BLA BLA BLA BLA BLA BLA BLA 
BLA BLA BLA BLA BLA BLA BLA BLA BLA BLA BLA BLA BLA BLA BLA BLA BLA BLA BLA BLA 
BLA BLA BLA BLA BLA BLA BLA BLA BLA BLA BLA BLA BLA BLA BLA BLA BLA BLA BLA BLA 
BLA BLA BLA BLA BLA BLA BLA BLA BLA BLA BLA BLA BLA BLA BLA BLA BLA BLA BLA BLA 
BLA BLA BLA BLA BLA BLA BLA BLA BLA BLA BLA BLA BLA BLA BLA BLA BLA BLA BLA BLA 
BLA BLA BLA BLA BLA BLA BLA BLA BLA BLA BLA BLA BLA BLA BLA BLA BLA BLA BLA BLA 
BLA BLA BLA BLA BLA BLA BLA BLA BLA BLA BLA BLA BLA BLA BLA BLA BLA BLA BLA BLA 
BLA BLA BLA BLA BLA BLA BLA BLA BLA BLA BLA BLA BLA BLA BLA BLA BLA BLA BLA BLA 
BLA BLA BLA BLA BLA BLA BLA BLA BLA BLA BLA BLA BLA BLA BLA BLA BLA BLA BLA BLA 
BLA BLA BLA BLA BLA BLA BLA BLA BLA BLA BLA BLA BLA BLA BLA BLA BLA BLA BLA BLA 
BLA BLA BLA BLA BLA BLA BLA BLA BLA BLA BLA BLA BLA BLA BLA BLA BLA BLA BLA BLA 
BLA BLA BLA BLA BLA BLA BLA BLA BLA BLA BLA BLA BLA BLA BLA BLA BLA BLA BLA BLA 
BLA BLA BLA BLA BLA BLA BLA BLA BLA BLA BLA BLA BLA BLA BLA BLA BLA BLA BLA BLA 
BLA BLA BLA BLA BLA BLA BLA BLA BLA BLA BLA BLA BLA BLA BLA BLA BLA BLA BLA BLA 
BLA BLA BLA BLA BLA BLA BLA BLA BLA BLA BLA BLA BLA BLA BLA BLA BLA BLA BLA BLA 
BLA BLA BLA BLA BLA BLA BLA BLA BLA BLA BLA BLA BLA BLA BLA BLA BLA BLA BLA BLA 
BLA BLA BLA BLA BLA BLA BLA BLA BLA BLA BLA BLA BLA BLA BLA BLA BLA BLA BLA BLA 
BLA BLA BLA BLA BLA BLA BLA BLA BLA BLA BLA BLA BLA BLA BLA BLA BLA BLA BLA BLA 
BLA BLA BLA BLA BLA BLA BLA BLA BLA BLA BLA BLA BLA BLA BLA BLA BLA BLA BLA BLA 
BLA BLA BLA BLA BLA BLA BLA BLA BLA BLA BLA BLA BLA BLA BLA BLA BLA BLA BLA BLA 
BLA BLA BLA BLA BLA BLA BLA BLA BLA BLA BLA BLA BLA BLA BLA BLA BLA BLA BLA BLA 
BLA BLA BLA BLA BLA BLA BLA BLA BLA BLA BLA BLA BLA BLA BLA BLA BLA BLA BLA BLA 
BLA BLA BLA BLA BLA BLA BLA BLA BLA BLA BLA BLA BLA BLA BLA BLA BLA BLA BLA BLA 
BLA BLA BLA BLA BLA BLA BLA BLA BLA BLA BLA BLA BLA BLA BLA BLA BLA BLA BLA BLA 
BLA BLA BLA BLA BLA BLA BLA BLA BLA BLA BLA BLA BLA BLA BLA BLA BLA BLA BLA BLA 
BLA BLA BLA BLA BLA BLA BLA BLA BLA BLA BLA BLA BLA BLA BLA BLA BLA BLA BLA BLA 
BLA BLA BLA BLA BLA BLA BLA BLA BLA BLA BLA BLA BLA BLA BLA BLA BLA BLA BLA BLA 
BLA BLA BLA BLA BLA BLA BLA BLA BLA BLA BLA BLA BLA BLA BLA BLA BLA BLA BLA BLA 
BLA BLA BLA BLA BLA BLA BLA BLA BLA BLA BLA BLA BLA BLA BLA BLA BLA BLA BLA BLA 
BLA BLA BLA BLA BLA BLA BLA BLA BLA BLA BLA BLA BLA BLA BLA BLA BLA BLA BLA BLA 
BLA BLA BLA BLA BLA BLA BLA BLA BLA BLA BLA BLA BLA BLA BLA BLA BLA BLA BLA BLA 
BLA BLA BLA BLA BLA BLA BLA BLA BLA BLA BLA BLA BLA BLA BLA BLA BLA BLA BLA BLA 
BLA BLA BLA BLA BLA BLA BLA BLA BLA BLA BLA BLA BLA BLA BLA BLA BLA BLA BLA BLA 
BLA BLA BLA BLA BLA BLA BLA BLA BLA BLA BLA BLA BLA BLA BLA BLA BLA BLA BLA BLA 
BLA BLA BLA BLA BLA BLA BLA BLA BLA BLA BLA BLA BLA BLA BLA BLA BLA BLA BLA BLA 
BLA BLA BLA BLA BLA BLA BLA BLA BLA BLA BLA BLA BLA BLA BLA BLA BLA BLA BLA BLA 
BLA BLA BLA BLA BLA BLA BLA BLA BLA BLA BLA BLA BLA BLA BLA BLA BLA BLA BLA BLA 
BLA BLA BLA BLA BLA BLA BLA BLA BLA BLA BLA BLA BLA BLA BLA BLA BLA BLA BLA BLA 
BLA BLA BLA BLA BLA BLA BLA BLA BLA BLA BLA BLA BLA BLA BLA BLA BLA BLA BLA BLA 
BLA BLA BLA BLA BLA BLA BLA BLA BLA BLA BLA BLA BLA BLA BLA BLA BLA BLA BLA BLA 
BLA BLA BLA BLA BLA BLA BLA BLA BLA BLA BLA BLA BLA BLA BLA BLA BLA BLA BLA BLA 
BLA BLA BLA BLA BLA BLA BLA BLA BLA BLA BLA BLA BLA BLA BLA BLA BLA BLA BLA BLA 
BLA BLA BLA BLA BLA BLA BLA BLA BLA BLA BLA BLA BLA BLA BLA BLA BLA BLA BLA BLA 
BLA BLA BLA BLA BLA BLA BLA BLA BLA BLA BLA BLA BLA BLA BLA BLA BLA BLA BLA BLA 
BLA BLA BLA BLA BLA BLA BLA BLA BLA BLA BLA BLA BLA BLA BLA BLA BLA BLA BLA BLA 
BLA BLA BLA BLA BLA BLA BLA BLA BLA BLA BLA BLA BLA BLA BLA BLA BLA BLA BLA BLA 
BLA BLA BLA BLA BLA BLA BLA BLA BLA BLA BLA BLA BLA BLA BLA BLA BLA BLA BLA BLA 
BLA BLA BLA BLA BLA BLA BLA BLA BLA BLA BLA BLA BLA BLA BLA BLA BLA BLA BLA BLA 
BLA BLA BLA BLA BLA BLA BLA BLA BLA BLA BLA BLA BLA BLA BLA BLA BLA BLA BLA BLA 
BLA BLA BLA BLA BLA BLA BLA BLA BLA BLA BLA BLA BLA BLA BLA BLA BLA BLA BLA BLA 
BLA BLA BLA BLA BLA BLA BLA BLA BLA BLA BLA BLA BLA BLA BLA BLA BLA BLA BLA BLA 
BLA BLA BLA BLA BLA BLA BLA BLA BLA BLA BLA BLA BLA BLA BLA BLA BLA BLA BLA BLA 
BLA BLA BLA BLA BLA BLA BLA BLA BLA BLA BLA BLA BLA BLA BLA BLA BLA BLA BLA BLA 
BLA BLA BLA BLA BLA BLA BLA BLA BLA BLA BLA BLA BLA BLA BLA BLA BLA BLA BLA BLA 
BLA BLA BLA BLA BLA BLA BLA BLA BLA BLA BLA BLA BLA BLA BLA BLA BLA BLA BLA BLA 
BLA BLA BLA BLA BLA BLA BLA BLA BLA BLA BLA BLA BLA BLA BLA BLA BLA BLA BLA BLA 
BLA BLA BLA BLA BLA BLA BLA BLA BLA BLA BLA BLA BLA BLA BLA BLA BLA BLA BLA BLA 
BLA BLA BLA BLA BLA BLA BLA BLA BLA BLA BLA BLA BLA BLA BLA BLA BLA BLA BLA BLA 
BLA BLA BLA BLA BLA BLA BLA BLA BLA BLA BLA BLA BLA BLA BLA BLA BLA BLA BLA BLA 
BLA BLA BLA BLA BLA BLA BLA BLA BLA BLA BLA BLA BLA BLA BLA BLA BLA BLA BLA BLA 
BLA BLA BLA BLA BLA BLA BLA BLA BLA BLA BLA BLA BLA BLA BLA BLA BLA BLA BLA BLA 
BLA BLA BLA BLA BLA BLA BLA BLA BLA BLA BLA BLA BLA BLA BLA BLA BLA BLA BLA BLA 
BLA BLA BLA BLA BLA BLA BLA BLA BLA BLA BLA BLA BLA BLA BLA BLA BLA BLA BLA BLA 
BLA BLA BLA BLA BLA BLA BLA BLA BLA BLA BLA BLA BLA BLA BLA BLA BLA BLA BLA BLA 
BLA BLA BLA BLA BLA BLA BLA BLA BLA BLA BLA BLA BLA BLA BLA BLA BLA BLA BLA BLA 
BLA BLA BLA BLA BLA BLA BLA BLA BLA BLA BLA BLA BLA BLA BLA BLA BLA BLA BLA BLA 
BLA BLA BLA BLA BLA BLA BLA BLA BLA BLA BLA BLA BLA BLA BLA BLA BLA BLA BLA BLA 
BLA BLA BLA BLA BLA BLA BLA BLA BLA BLA BLA BLA BLA BLA BLA BLA BLA BLA BLA BLA 
BLA BLA BLA BLA BLA BLA BLA BLA BLA BLA BLA BLA BLA BLA BLA BLA BLA BLA BLA BLA 
BLA BLA BLA BLA BLA BLA BLA BLA BLA BLA BLA BLA BLA BLA BLA BLA BLA BLA BLA BLA 
BLA BLA BLA BLA BLA BLA BLA BLA BLA BLA BLA BLA BLA BLA BLA BLA BLA BLA BLA BLA 
BLA BLA BLA BLA BLA BLA BLA BLA BLA BLA BLA BLA BLA BLA BLA BLA BLA BLA BLA BLA 
BLA BLA BLA BLA BLA BLA BLA BLA BLA BLA BLA BLA BLA BLA BLA BLA BLA BLA BLA BLA 
BLA BLA BLA BLA BLA BLA BLA BLA BLA BLA BLA BLA BLA BLA BLA BLA BLA BLA BLA BLA 
BLA BLA BLA BLA BLA BLA BLA BLA BLA BLA BLA BLA BLA BLA BLA BLA BLA BLA BLA BLA 
BLA BLA BLA BLA BLA BLA BLA BLA BLA BLA BLA BLA BLA BLA BLA BLA BLA BLA BLA BLA 
BLA BLA BLA BLA BLA BLA BLA BLA BLA BLA BLA BLA BLA BLA BLA BLA BLA BLA BLA BLA 
BLA BLA BLA BLA BLA BLA BLA BLA BLA BLA BLA BLA BLA BLA BLA BLA BLA BLA BLA BLA 
BLA BLA BLA BLA BLA BLA BLA BLA BLA BLA BLA BLA BLA BLA BLA BLA BLA BLA BLA BLA 
BLA BLA BLA BLA BLA BLA BLA BLA BLA BLA BLA BLA BLA BLA BLA BLA BLA BLA BLA BLA 
BLA BLA BLA BLA BLA BLA BLA BLA BLA BLA BLA BLA BLA BLA BLA BLA BLA BLA BLA BLA 
BLA BLA BLA BLA BLA BLA BLA BLA BLA BLA BLA BLA BLA BLA BLA BLA BLA BLA BLA BLA 
BLA BLA BLA BLA BLA BLA BLA BLA BLA BLA BLA BLA BLA BLA BLA BLA BLA BLA BLA BLA 
BLA BLA BLA BLA BLA BLA BLA BLA BLA BLA BLA BLA BLA BLA BLA BLA BLA BLA BLA BLA 
BLA BLA BLA BLA BLA BLA BLA BLA BLA BLA BLA BLA BLA BLA BLA BLA BLA BLA BLA BLA 
BLA BLA BLA BLA BLA BLA BLA BLA BLA BLA BLA BLA BLA BLA BLA BLA BLA BLA BLA BLA 
BLA BLA BLA BLA BLA BLA BLA BLA BLA BLA BLA BLA BLA BLA BLA BLA BLA BLA BLA BLA 
BLA BLA BLA BLA BLA BLA BLA BLA BLA BLA BLA BLA BLA BLA BLA BLA BLA BLA BLA BLA 
BLA BLA BLA BLA BLA BLA BLA BLA BLA BLA BLA BLA BLA BLA BLA BLA BLA BLA BLA BLA 
BLA BLA BLA BLA BLA BLA BLA BLA BLA BLA BLA BLA BLA BLA BLA BLA BLA BLA BLA BLA 
BLA BLA BLA BLA BLA BLA BLA BLA BLA BLA BLA BLA BLA BLA BLA BLA BLA BLA BLA BLA 
BLA BLA BLA BLA BLA BLA BLA BLA BLA BLA BLA BLA BLA BLA BLA BLA BLA BLA BLA BLA 
BLA BLA BLA BLA BLA BLA BLA BLA BLA BLA BLA BLA BLA BLA BLA BLA BLA BLA BLA BLA 
BLA BLA BLA BLA BLA BLA BLA BLA BLA BLA BLA BLA BLA BLA BLA BLA BLA BLA BLA BLA 
BLA BLA BLA BLA BLA BLA BLA BLA BLA BLA BLA BLA BLA BLA BLA BLA BLA BLA BLA BLA 
BLA BLA BLA BLA BLA BLA BLA BLA BLA BLA BLA BLA BLA BLA BLA BLA BLA BLA BLA BLA 
BLA BLA BLA BLA BLA BLA BLA BLA BLA BLA BLA BLA BLA BLA BLA BLA BLA BLA BLA BLA 
BLA BLA BLA BLA BLA BLA BLA BLA BLA BLA BLA BLA BLA BLA BLA BLA BLA BLA BLA BLA 
BLA BLA BLA BLA BLA BLA BLA BLA BLA BLA BLA BLA BLA BLA BLA BLA BLA BLA BLA BLA 
BLA BLA BLA BLA BLA BLA BLA BLA BLA BLA BLA BLA BLA BLA BLA BLA BLA BLA BLA BLA 
BLA BLA BLA BLA BLA BLA BLA BLA BLA BLA BLA BLA BLA BLA BLA BLA BLA BLA BLA BLA 
BLA BLA BLA BLA BLA BLA BLA BLA BLA BLA BLA BLA BLA BLA BLA BLA BLA BLA BLA BLA 
BLA BLA BLA BLA BLA BLA BLA BLA BLA BLA BLA BLA BLA BLA BLA BLA BLA BLA BLA BLA 
BLA BLA BLA BLA BLA BLA BLA BLA BLA BLA BLA BLA BLA BLA BLA BLA BLA BLA BLA BLA 
BLA BLA BLA BLA BLA BLA BLA BLA BLA BLA BLA BLA BLA BLA BLA BLA BLA BLA BLA BLA 
BLA BLA BLA BLA BLA BLA BLA BLA BLA BLA BLA BLA BLA BLA BLA BLA BLA BLA BLA BLA 
BLA BLA BLA BLA BLA BLA BLA BLA BLA BLA BLA BLA BLA BLA BLA BLA BLA BLA BLA BLA 
BLA BLA BLA BLA BLA BLA BLA BLA BLA BLA BLA BLA BLA BLA BLA BLA BLA BLA BLA BLA 
BLA BLA BLA BLA BLA BLA BLA BLA BLA BLA BLA BLA BLA BLA BLA BLA BLA BLA BLA BLA 
BLA BLA BLA BLA BLA BLA BLA BLA BLA BLA BLA BLA BLA BLA BLA BLA BLA BLA BLA BLA 
BLA BLA BLA BLA BLA BLA BLA BLA BLA BLA BLA BLA BLA BLA BLA BLA BLA BLA BLA BLA 
BLA BLA BLA BLA BLA BLA BLA BLA BLA BLA BLA BLA BLA BLA BLA BLA BLA BLA BLA BLA 
BLA BLA BLA BLA BLA BLA BLA BLA BLA BLA BLA BLA BLA BLA BLA BLA BLA BLA BLA BLA 
BLA BLA BLA BLA BLA BLA BLA BLA BLA BLA BLA BLA BLA BLA BLA BLA BLA BLA BLA BLA 
BLA BLA BLA BLA BLA BLA BLA BLA BLA BLA BLA BLA BLA BLA BLA BLA BLA BLA BLA BLA 
BLA BLA BLA BLA BLA BLA BLA BLA BLA BLA BLA BLA BLA BLA BLA BLA BLA BLA BLA BLA 
BLA BLA BLA BLA BLA BLA BLA BLA BLA BLA BLA BLA BLA BLA BLA BLA BLA BLA BLA BLA 
BLA BLA BLA BLA BLA BLA BLA BLA BLA BLA BLA BLA BLA BLA BLA BLA BLA BLA BLA BLA 
BLA BLA BLA BLA BLA BLA BLA BLA BLA BLA BLA BLA BLA BLA BLA BLA BLA BLA BLA BLA 
BLA BLA BLA BLA BLA BLA BLA BLA BLA BLA BLA BLA BLA BLA BLA BLA BLA BLA BLA BLA 
BLA BLA BLA BLA BLA BLA BLA BLA BLA BLA BLA BLA BLA BLA BLA BLA BLA BLA BLA BLA 
BLA BLA BLA BLA BLA BLA BLA BLA BLA BLA BLA BLA BLA BLA BLA BLA BLA BLA BLA BLA 
BLA BLA BLA BLA BLA BLA BLA BLA BLA BLA BLA BLA BLA BLA BLA BLA BLA BLA BLA BLA 
BLA BLA BLA BLA BLA BLA BLA BLA BLA BLA BLA BLA BLA BLA BLA BLA BLA BLA BLA BLA 
BLA BLA BLA BLA BLA BLA BLA BLA BLA BLA BLA BLA BLA BLA BLA BLA BLA BLA BLA BLA 
BLA BLA BLA BLA BLA BLA BLA BLA BLA BLA BLA BLA BLA BLA BLA BLA BLA BLA BLA BLA 
BLA BLA BLA BLA BLA BLA BLA BLA BLA BLA BLA BLA BLA BLA BLA BLA BLA BLA BLA BLA 
BLA BLA BLA BLA BLA BLA BLA BLA BLA BLA BLA BLA BLA BLA BLA BLA BLA BLA BLA BLA 
BLA BLA BLA BLA BLA BLA BLA BLA BLA BLA BLA BLA BLA BLA BLA BLA BLA BLA BLA BLA 
BLA BLA BLA BLA BLA BLA BLA BLA BLA BLA BLA BLA BLA BLA BLA BLA BLA BLA BLA BLA 
BLA BLA BLA BLA BLA BLA BLA BLA BLA BLA BLA BLA BLA BLA BLA BLA BLA BLA BLA BLA 
BLA BLA BLA BLA BLA BLA BLA BLA BLA BLA BLA BLA BLA BLA BLA BLA BLA BLA BLA BLA 
BLA BLA BLA BLA BLA BLA BLA BLA BLA BLA BLA BLA BLA BLA BLA BLA BLA BLA BLA BLA 
BLA BLA BLA BLA BLA BLA BLA BLA BLA BLA BLA BLA BLA BLA BLA BLA BLA BLA BLA BLA 
BLA BLA BLA BLA BLA BLA BLA BLA BLA BLA BLA BLA BLA BLA BLA BLA BLA BLA BLA BLA 
BLA BLA BLA BLA BLA BLA BLA BLA BLA BLA BLA BLA BLA BLA BLA BLA BLA BLA BLA BLA 
BLA BLA BLA BLA BLA BLA BLA BLA BLA BLA BLA BLA BLA BLA BLA BLA BLA BLA BLA BLA 
BLA BLA BLA BLA BLA BLA BLA BLA BLA BLA BLA BLA BLA BLA BLA BLA BLA BLA BLA BLA 
BLA BLA BLA BLA BLA BLA BLA BLA BLA BLA BLA BLA BLA BLA BLA BLA BLA BLA BLA BLA 
BLA BLA BLA BLA BLA BLA BLA BLA BLA BLA BLA BLA BLA BLA BLA BLA BLA BLA BLA BLA 
BLA BLA BLA BLA BLA BLA BLA BLA BLA BLA BLA BLA BLA BLA BLA BLA BLA BLA BLA BLA 
BLA BLA BLA BLA BLA BLA BLA BLA BLA BLA BLA BLA BLA BLA BLA BLA BLA BLA BLA BLA 
BLA BLA BLA BLA BLA BLA BLA BLA BLA BLA BLA BLA BLA BLA BLA BLA BLA BLA BLA BLA 
BLA BLA BLA BLA BLA BLA BLA BLA BLA BLA BLA BLA BLA BLA BLA BLA BLA BLA BLA BLA 
BLA BLA BLA BLA BLA BLA BLA BLA BLA BLA BLA BLA BLA BLA BLA BLA BLA BLA BLA BLA 
BLA BLA BLA BLA BLA BLA BLA BLA BLA BLA BLA BLA BLA BLA BLA BLA BLA BLA BLA BLA 
BLA BLA BLA BLA BLA BLA BLA BLA BLA BLA BLA BLA BLA BLA BLA BLA BLA BLA BLA BLA 
BLA BLA BLA BLA BLA BLA BLA BLA BLA BLA BLA BLA BLA BLA BLA BLA BLA BLA BLA BLA 
BLA BLA BLA BLA BLA BLA BLA BLA BLA BLA BLA BLA BLA BLA BLA BLA BLA BLA BLA BLA 
BLA BLA BLA BLA BLA BLA BLA BLA BLA BLA BLA BLA BLA BLA BLA BLA BLA BLA BLA BLA 
BLA BLA BLA BLA BLA BLA BLA BLA BLA BLA BLA BLA BLA BLA BLA BLA BLA BLA BLA BLA 
BLA BLA BLA BLA BLA BLA BLA BLA BLA BLA BLA BLA BLA BLA BLA BLA BLA BLA BLA BLA 
BLA BLA BLA BLA BLA BLA BLA BLA BLA BLA BLA BLA BLA BLA BLA BLA BLA BLA BLA BLA 
BLA BLA BLA BLA BLA BLA BLA BLA BLA BLA BLA BLA BLA BLA BLA BLA BLA BLA BLA BLA 
BLA BLA BLA BLA BLA BLA BLA BLA BLA BLA BLA BLA BLA BLA BLA BLA BLA BLA BLA BLA 
BLA BLA BLA BLA BLA BLA BLA BLA BLA BLA BLA BLA BLA BLA BLA BLA BLA BLA BLA BLA 
BLA BLA BLA BLA BLA BLA BLA BLA BLA BLA BLA BLA BLA BLA BLA BLA BLA BLA BLA BLA 
BLA BLA BLA BLA BLA BLA BLA BLA BLA BLA BLA BLA BLA BLA BLA BLA BLA BLA BLA BLA 
BLA BLA BLA BLA BLA BLA BLA BLA BLA BLA BLA BLA BLA BLA BLA BLA BLA BLA BLA BLA 
BLA BLA BLA BLA BLA BLA BLA BLA BLA BLA BLA BLA BLA BLA BLA BLA BLA BLA BLA BLA 
BLA BLA BLA BLA BLA BLA BLA BLA BLA BLA BLA BLA BLA BLA BLA BLA BLA BLA BLA BLA 
BLA BLA BLA BLA BLA BLA BLA BLA BLA BLA BLA BLA BLA BLA BLA BLA BLA BLA BLA BLA 
BLA BLA BLA BLA BLA BLA BLA BLA BLA BLA BLA BLA BLA BLA BLA BLA BLA BLA BLA BLA 
BLA BLA BLA BLA BLA BLA BLA BLA BLA BLA BLA BLA BLA BLA BLA BLA BLA BLA BLA BLA 
BLA BLA BLA BLA BLA BLA BLA BLA BLA BLA BLA BLA BLA BLA BLA BLA BLA BLA BLA BLA 
BLA BLA BLA BLA BLA BLA BLA BLA BLA BLA BLA BLA BLA BLA BLA BLA BLA BLA BLA BLA 
BLA BLA BLA BLA BLA BLA BLA BLA BLA BLA BLA BLA BLA BLA BLA BLA BLA BLA BLA BLA 
BLA BLA BLA BLA BLA BLA BLA BLA BLA BLA BLA BLA BLA BLA BLA BLA BLA BLA BLA BLA 
BLA BLA BLA BLA BLA BLA BLA BLA BLA BLA BLA BLA BLA BLA BLA BLA BLA BLA BLA BLA 
BLA BLA BLA BLA BLA BLA BLA BLA BLA BLA BLA BLA BLA BLA BLA BLA BLA BLA BLA BLA 
BLA BLA BLA BLA BLA BLA BLA BLA BLA BLA BLA BLA BLA BLA BLA BLA BLA BLA BLA BLA 
BLA BLA BLA BLA BLA BLA BLA BLA BLA BLA BLA BLA BLA BLA BLA BLA BLA BLA BLA BLA 
BLA BLA BLA BLA BLA BLA BLA BLA BLA BLA BLA BLA BLA BLA BLA BLA BLA BLA BLA BLA 
BLA BLA BLA BLA BLA BLA BLA BLA BLA BLA BLA BLA BLA BLA BLA BLA BLA BLA BLA BLA 
BLA BLA BLA BLA BLA BLA BLA BLA BLA BLA BLA BLA BLA BLA BLA BLA BLA BLA BLA BLA 
BLA BLA BLA BLA BLA BLA BLA BLA BLA BLA BLA BLA BLA BLA BLA BLA BLA BLA BLA BLA 
BLA BLA BLA BLA BLA BLA BLA BLA BLA BLA BLA BLA BLA BLA BLA BLA BLA BLA BLA BLA 
BLA BLA BLA BLA BLA BLA BLA BLA BLA BLA BLA BLA BLA BLA BLA BLA BLA BLA BLA BLA 
BLA BLA BLA BLA BLA BLA BLA BLA BLA BLA BLA BLA BLA BLA BLA BLA BLA BLA BLA BLA 
BLA BLA BLA BLA BLA BLA BLA BLA BLA BLA BLA BLA BLA BLA BLA BLA BLA BLA BLA BLA 
BLA BLA BLA BLA BLA BLA BLA BLA BLA BLA BLA BLA BLA BLA BLA BLA BLA BLA BLA BLA 
BLA BLA BLA BLA BLA BLA BLA BLA BLA BLA BLA BLA BLA BLA BLA BLA BLA BLA BLA BLA 
BLA BLA BLA BLA BLA BLA BLA BLA BLA BLA BLA BLA BLA BLA BLA BLA BLA BLA BLA BLA 
BLA BLA BLA BLA BLA BLA BLA BLA BLA BLA BLA BLA BLA BLA BLA BLA BLA BLA BLA BLA 
BLA BLA BLA BLA BLA BLA BLA BLA BLA BLA BLA BLA BLA BLA BLA BLA BLA BLA BLA BLA 
BLA BLA BLA BLA BLA BLA BLA BLA BLA BLA BLA BLA BLA BLA BLA BLA BLA BLA BLA BLA 
BLA BLA BLA BLA BLA BLA BLA BLA BLA BLA BLA BLA BLA BLA BLA BLA BLA BLA BLA BLA 
BLA BLA BLA BLA BLA BLA BLA BLA BLA BLA BLA BLA BLA BLA BLA BLA BLA BLA BLA BLA 
BLA BLA BLA BLA BLA BLA BLA BLA BLA BLA BLA BLA BLA BLA BLA BLA BLA BLA BLA BLA 
BLA BLA BLA BLA BLA BLA BLA BLA BLA BLA BLA BLA BLA BLA BLA BLA BLA BLA BLA BLA 
BLA BLA BLA BLA BLA BLA BLA BLA BLA BLA BLA BLA BLA BLA BLA BLA BLA BLA BLA BLA 
BLA BLA BLA BLA BLA BLA BLA BLA BLA BLA BLA BLA BLA BLA BLA BLA BLA BLA BLA BLA 
BLA BLA BLA BLA BLA BLA BLA BLA BLA BLA BLA BLA BLA BLA BLA BLA BLA BLA BLA BLA 
BLA BLA BLA BLA BLA BLA BLA BLA BLA BLA BLA BLA BLA BLA BLA BLA BLA BLA BLA BLA 
BLA BLA BLA BLA BLA BLA BLA BLA BLA BLA BLA BLA BLA BLA BLA BLA BLA BLA BLA BLA 
BLA BLA BLA BLA BLA BLA BLA BLA BLA BLA BLA BLA BLA BLA BLA BLA BLA BLA BLA BLA 
BLA BLA BLA BLA BLA BLA BLA BLA BLA BLA BLA BLA BLA BLA BLA BLA BLA BLA BLA BLA 
BLA BLA BLA BLA BLA BLA BLA BLA BLA BLA BLA BLA BLA BLA BLA BLA BLA BLA BLA BLA 
BLA BLA BLA BLA BLA BLA BLA BLA BLA BLA BLA BLA BLA BLA BLA BLA BLA BLA BLA BLA 
BLA BLA BLA BLA BLA BLA BLA BLA BLA BLA BLA BLA BLA BLA BLA BLA BLA BLA BLA BLA 
BLA BLA BLA BLA BLA BLA BLA BLA BLA BLA BLA BLA BLA BLA BLA BLA BLA BLA BLA BLA 
BLA BLA BLA BLA BLA BLA BLA BLA BLA BLA BLA BLA BLA BLA BLA BLA BLA BLA BLA BLA 
BLA BLA BLA BLA BLA BLA BLA BLA BLA BLA BLA BLA BLA BLA BLA BLA BLA BLA BLA BLA 
BLA BLA BLA BLA BLA BLA BLA BLA BLA BLA BLA BLA BLA BLA BLA BLA BLA BLA BLA BLA 
BLA BLA BLA BLA BLA BLA BLA BLA BLA BLA BLA BLA BLA BLA BLA BLA BLA BLA BLA BLA 
BLA BLA BLA BLA BLA BLA BLA BLA BLA BLA BLA BLA BLA BLA BLA BLA BLA BLA BLA BLA 
BLA BLA BLA BLA BLA BLA BLA BLA BLA BLA BLA BLA BLA BLA BLA BLA BLA BLA BLA BLA 
BLA BLA BLA BLA BLA BLA BLA BLA BLA BLA BLA BLA BLA BLA BLA BLA BLA BLA BLA BLA 
BLA BLA BLA BLA BLA BLA BLA BLA BLA BLA BLA BLA BLA BLA BLA BLA BLA BLA BLA BLA 
BLA BLA BLA BLA BLA BLA BLA BLA BLA BLA BLA BLA BLA BLA BLA BLA BLA BLA BLA BLA 
BLA BLA BLA BLA BLA BLA BLA BLA BLA BLA BLA BLA BLA BLA BLA BLA BLA BLA BLA BLA 
BLA BLA BLA BLA BLA BLA BLA BLA BLA BLA BLA BLA BLA BLA BLA BLA BLA BLA BLA BLA 
BLA BLA BLA BLA BLA BLA BLA BLA BLA BLA BLA BLA BLA BLA BLA BLA BLA BLA BLA BLA 
BLA BLA BLA BLA BLA BLA BLA BLA BLA BLA BLA BLA BLA BLA BLA BLA BLA BLA BLA BLA 
BLA BLA BLA BLA BLA BLA BLA BLA BLA BLA BLA BLA BLA BLA BLA BLA BLA BLA BLA BLA 
BLA BLA BLA BLA BLA BLA BLA BLA BLA BLA BLA BLA BLA BLA BLA BLA BLA BLA BLA BLA 
BLA BLA BLA BLA BLA BLA BLA BLA BLA BLA BLA BLA BLA BLA BLA BLA BLA BLA BLA BLA 
BLA BLA BLA BLA BLA BLA BLA BLA BLA BLA BLA BLA BLA BLA BLA BLA BLA BLA BLA BLA 
BLA BLA BLA BLA BLA BLA BLA BLA BLA BLA BLA BLA BLA BLA BLA BLA BLA BLA BLA BLA 
BLA BLA BLA BLA BLA BLA BLA BLA BLA BLA BLA BLA BLA BLA BLA BLA BLA BLA BLA BLA 
BLA BLA BLA BLA BLA BLA BLA BLA BLA BLA BLA BLA BLA BLA BLA BLA BLA BLA BLA BLA 
BLA BLA BLA BLA BLA BLA BLA BLA BLA BLA BLA BLA BLA BLA BLA BLA BLA BLA BLA BLA 
BLA BLA BLA BLA BLA BLA BLA BLA BLA BLA BLA BLA BLA BLA BLA BLA BLA BLA BLA BLA 
BLA BLA BLA BLA BLA BLA BLA BLA BLA BLA BLA BLA BLA BLA BLA BLA BLA BLA BLA BLA 
BLA BLA BLA BLA BLA BLA BLA BLA BLA BLA BLA BLA BLA BLA BLA BLA BLA BLA BLA BLA 
BLA BLA BLA BLA BLA BLA BLA BLA BLA BLA BLA BLA BLA BLA BLA BLA BLA BLA BLA BLA 
BLA BLA BLA BLA BLA BLA BLA BLA BLA BLA BLA BLA BLA BLA BLA BLA BLA BLA BLA BLA 
BLA BLA BLA BLA BLA BLA BLA BLA BLA BLA BLA BLA BLA BLA BLA BLA BLA BLA BLA BLA 
BLA BLA BLA BLA BLA BLA BLA BLA BLA BLA BLA BLA BLA BLA BLA BLA BLA BLA BLA BLA 
BLA BLA BLA BLA BLA BLA BLA BLA BLA BLA BLA BLA BLA BLA BLA BLA BLA BLA BLA BLA 
BLA BLA BLA BLA BLA BLA BLA BLA BLA BLA BLA BLA BLA BLA BLA BLA BLA BLA BLA BLA 
BLA BLA BLA BLA BLA BLA BLA BLA BLA BLA BLA BLA BLA BLA BLA BLA BLA BLA BLA BLA 
BLA BLA BLA BLA BLA BLA BLA BLA BLA BLA BLA BLA BLA BLA BLA BLA BLA BLA BLA BLA 
BLA BLA BLA BLA BLA BLA BLA BLA BLA BLA BLA BLA BLA BLA BLA BLA BLA BLA BLA BLA 
BLA BLA BLA BLA BLA BLA BLA BLA BLA BLA BLA BLA BLA BLA BLA BLA BLA BLA BLA BLA 
BLA BLA BLA BLA BLA BLA BLA BLA BLA BLA BLA BLA BLA BLA BLA BLA BLA BLA BLA BLA 
BLA BLA BLA BLA BLA BLA BLA BLA BLA BLA BLA BLA BLA BLA BLA BLA BLA BLA BLA BLA 
BLA BLA BLA BLA BLA BLA BLA BLA BLA BLA BLA BLA BLA BLA BLA BLA BLA BLA BLA BLA 
BLA BLA BLA BLA BLA BLA BLA BLA BLA BLA BLA BLA BLA BLA BLA BLA BLA BLA BLA BLA 
BLA BLA BLA BLA BLA BLA BLA BLA BLA BLA BLA BLA BLA BLA BLA BLA BLA BLA BLA BLA 
BLA BLA BLA BLA BLA BLA BLA BLA BLA BLA BLA BLA BLA BLA BLA BLA BLA BLA BLA BLA 
BLA BLA BLA BLA BLA BLA BLA BLA BLA BLA BLA BLA BLA BLA BLA BLA BLA BLA BLA BLA 
BLA BLA BLA BLA BLA BLA BLA BLA BLA BLA BLA BLA BLA BLA BLA BLA BLA BLA BLA BLA 
BLA BLA BLA BLA BLA BLA BLA BLA BLA BLA BLA BLA BLA BLA BLA BLA BLA BLA BLA BLA 
BLA BLA BLA BLA BLA BLA BLA BLA BLA BLA BLA BLA BLA BLA BLA BLA BLA BLA BLA BLA 
BLA BLA BLA BLA BLA BLA BLA BLA BLA BLA BLA BLA BLA BLA BLA BLA BLA BLA BLA BLA 
BLA BLA BLA BLA BLA BLA BLA BLA BLA BLA BLA BLA BLA BLA BLA BLA BLA BLA BLA BLA 
BLA BLA BLA BLA BLA BLA BLA BLA BLA BLA BLA BLA BLA BLA BLA BLA BLA BLA BLA BLA 
BLA BLA BLA BLA BLA BLA BLA BLA BLA BLA BLA BLA BLA BLA BLA BLA BLA BLA BLA BLA 
BLA BLA BLA BLA BLA BLA BLA BLA BLA BLA BLA BLA BLA BLA BLA BLA BLA BLA BLA BLA 
BLA BLA BLA BLA BLA BLA BLA BLA BLA BLA BLA BLA BLA BLA BLA BLA BLA BLA BLA BLA 
BLA BLA BLA BLA BLA BLA BLA BLA BLA BLA BLA BLA BLA BLA BLA BLA BLA BLA BLA BLA 
BLA BLA BLA BLA BLA BLA BLA BLA BLA BLA BLA BLA BLA BLA BLA BLA BLA BLA BLA BLA 
BLA BLA BLA BLA BLA BLA BLA BLA BLA BLA BLA BLA BLA BLA BLA BLA BLA BLA BLA BLA 
BLA BLA BLA BLA BLA BLA BLA BLA BLA BLA BLA BLA BLA BLA BLA BLA BLA BLA BLA BLA 
BLA BLA BLA BLA BLA BLA BLA BLA BLA BLA BLA BLA BLA BLA BLA BLA BLA BLA BLA BLA 
BLA BLA BLA BLA BLA BLA BLA BLA BLA BLA BLA BLA BLA BLA BLA BLA BLA BLA BLA BLA 
BLA BLA BLA BLA BLA BLA BLA BLA BLA BLA BLA BLA BLA BLA BLA BLA BLA BLA BLA BLA 
BLA BLA BLA BLA BLA BLA BLA BLA BLA BLA BLA BLA BLA BLA BLA BLA BLA BLA BLA BLA 
BLA BLA BLA BLA BLA BLA BLA BLA BLA BLA BLA BLA BLA BLA BLA BLA BLA BLA BLA BLA 
BLA BLA BLA BLA BLA BLA BLA BLA BLA BLA BLA BLA BLA BLA BLA BLA BLA BLA BLA BLA 
BLA BLA BLA BLA BLA BLA BLA BLA BLA BLA BLA BLA BLA BLA BLA BLA BLA BLA BLA BLA 
BLA BLA BLA BLA BLA BLA BLA BLA BLA BLA BLA BLA BLA BLA BLA BLA BLA BLA BLA BLA 
BLA BLA BLA BLA BLA BLA BLA BLA BLA BLA BLA BLA BLA BLA BLA BLA BLA BLA BLA BLA 
BLA BLA BLA BLA BLA BLA BLA BLA BLA BLA BLA BLA BLA BLA BLA BLA BLA BLA BLA BLA 
BLA BLA BLA BLA BLA BLA BLA BLA BLA BLA BLA BLA BLA BLA BLA BLA BLA BLA BLA BLA 
BLA BLA BLA BLA BLA BLA BLA BLA BLA BLA BLA BLA BLA BLA BLA BLA BLA BLA BLA BLA 
BLA BLA BLA BLA BLA BLA BLA BLA BLA BLA BLA BLA BLA BLA BLA BLA BLA BLA BLA BLA 
BLA BLA BLA BLA BLA BLA BLA BLA BLA BLA BLA BLA BLA BLA BLA BLA BLA BLA BLA BLA 
BLA BLA BLA BLA BLA BLA BLA BLA BLA BLA BLA BLA BLA BLA BLA BLA BLA BLA BLA BLA 
BLA BLA BLA BLA BLA BLA BLA BLA BLA BLA BLA BLA BLA BLA BLA BLA BLA BLA BLA BLA 
BLA BLA BLA BLA BLA BLA BLA BLA BLA BLA BLA BLA BLA BLA BLA BLA BLA BLA BLA BLA 
BLA BLA BLA BLA BLA BLA BLA BLA BLA BLA BLA BLA BLA BLA BLA BLA BLA BLA BLA BLA 
BLA BLA BLA BLA BLA BLA BLA BLA BLA BLA BLA BLA BLA BLA BLA BLA BLA BLA BLA BLA 
BLA BLA BLA BLA BLA BLA BLA BLA BLA BLA BLA BLA BLA BLA BLA BLA BLA BLA BLA BLA 
BLA BLA BLA BLA BLA BLA BLA BLA BLA BLA BLA BLA BLA BLA BLA BLA BLA BLA BLA BLA 
BLA BLA BLA BLA BLA BLA BLA BLA BLA BLA BLA BLA BLA BLA BLA BLA BLA BLA BLA BLA 
BLA BLA BLA BLA BLA BLA BLA BLA BLA BLA BLA BLA BLA BLA BLA BLA BLA BLA BLA BLA 
BLA BLA BLA BLA BLA BLA BLA BLA BLA BLA BLA BLA BLA BLA BLA BLA BLA BLA BLA BLA 
BLA BLA BLA BLA BLA BLA BLA BLA BLA BLA BLA BLA BLA BLA BLA BLA BLA BLA BLA BLA 
BLA BLA BLA BLA BLA BLA BLA BLA BLA BLA BLA BLA BLA BLA BLA BLA BLA BLA BLA BLA 
BLA BLA BLA BLA BLA BLA BLA BLA BLA BLA BLA BLA BLA BLA BLA BLA BLA BLA BLA BLA 
BLA BLA BLA BLA BLA BLA BLA BLA BLA BLA BLA BLA BLA BLA BLA BLA BLA BLA BLA BLA 
BLA BLA BLA BLA BLA BLA BLA BLA BLA BLA BLA BLA BLA BLA BLA BLA BLA BLA BLA BLA 
BLA BLA BLA BLA BLA BLA BLA BLA BLA BLA BLA BLA BLA BLA BLA BLA BLA BLA BLA BLA 
BLA BLA BLA BLA BLA BLA BLA BLA BLA BLA BLA BLA BLA BLA BLA BLA BLA BLA BLA BLA 
BLA BLA BLA BLA BLA BLA BLA BLA BLA BLA BLA BLA BLA BLA BLA BLA BLA BLA BLA BLA 
BLA BLA BLA BLA BLA BLA BLA BLA BLA BLA BLA BLA BLA BLA BLA BLA BLA BLA BLA BLA 
BLA BLA BLA BLA BLA BLA BLA BLA BLA BLA BLA BLA BLA BLA BLA BLA BLA BLA BLA BLA 
BLA BLA BLA BLA BLA BLA BLA BLA BLA BLA BLA BLA BLA BLA BLA BLA BLA BLA BLA BLA 
BLA BLA BLA BLA BLA BLA BLA BLA BLA BLA BLA BLA BLA BLA BLA BLA BLA BLA BLA BLA 
BLA BLA BLA BLA BLA BLA BLA BLA BLA BLA BLA BLA BLA BLA BLA BLA BLA BLA BLA BLA 
BLA BLA BLA BLA BLA BLA BLA BLA BLA BLA BLA BLA BLA BLA BLA BLA BLA BLA BLA BLA 
BLA BLA BLA BLA BLA BLA BLA BLA BLA BLA BLA BLA BLA BLA BLA BLA BLA BLA BLA BLA 
BLA BLA BLA BLA BLA BLA BLA BLA BLA BLA BLA BLA BLA BLA BLA BLA BLA BLA BLA BLA 
BLA BLA BLA BLA BLA BLA BLA BLA BLA BLA BLA BLA BLA BLA BLA BLA BLA BLA BLA BLA 
BLA BLA BLA BLA BLA BLA BLA BLA BLA BLA BLA BLA BLA BLA BLA BLA BLA BLA BLA BLA 
BLA BLA BLA BLA BLA BLA BLA BLA BLA BLA BLA BLA BLA BLA BLA BLA BLA BLA BLA BLA 
BLA BLA BLA BLA BLA BLA BLA BLA BLA BLA BLA BLA BLA BLA BLA BLA BLA BLA BLA BLA 
BLA BLA BLA BLA BLA BLA BLA BLA BLA BLA BLA BLA BLA BLA BLA BLA BLA BLA BLA BLA 
BLA BLA BLA BLA BLA BLA BLA BLA BLA BLA BLA BLA BLA BLA BLA BLA BLA BLA BLA BLA 
BLA BLA BLA BLA BLA BLA BLA BLA BLA BLA BLA BLA BLA BLA BLA BLA BLA BLA BLA BLA 
BLA BLA BLA BLA BLA BLA BLA BLA BLA BLA BLA BLA BLA BLA BLA BLA BLA BLA BLA BLA 
BLA BLA BLA BLA BLA BLA BLA BLA BLA BLA BLA BLA BLA BLA BLA BLA BLA BLA BLA BLA 
BLA BLA BLA BLA BLA BLA BLA BLA BLA BLA BLA BLA BLA BLA BLA BLA BLA BLA BLA BLA 
BLA BLA BLA BLA BLA BLA BLA BLA BLA BLA BLA BLA BLA BLA BLA BLA BLA BLA BLA BLA 
BLA BLA BLA BLA BLA BLA BLA BLA BLA BLA BLA BLA BLA BLA BLA BLA BLA BLA BLA BLA 
BLA BLA BLA BLA BLA BLA BLA BLA BLA BLA BLA BLA BLA BLA BLA BLA BLA BLA BLA BLA 
BLA BLA BLA BLA BLA BLA BLA BLA BLA BLA BLA BLA BLA BLA BLA BLA BLA BLA BLA BLA 
BLA BLA BLA BLA BLA BLA BLA BLA BLA BLA BLA BLA BLA BLA BLA BLA BLA BLA BLA BLA 
BLA BLA BLA BLA BLA BLA BLA BLA BLA BLA BLA BLA BLA BLA BLA BLA BLA BLA BLA BLA 
BLA BLA BLA BLA BLA BLA BLA BLA BLA BLA BLA BLA BLA BLA BLA BLA BLA BLA BLA BLA 
BLA BLA BLA BLA BLA BLA BLA BLA BLA BLA BLA BLA BLA BLA BLA BLA BLA BLA BLA BLA 
BLA BLA BLA BLA BLA BLA BLA BLA BLA BLA BLA BLA BLA BLA BLA BLA BLA BLA BLA BLA 
BLA BLA BLA BLA BLA BLA BLA BLA BLA BLA BLA BLA BLA BLA BLA BLA BLA BLA BLA BLA 
BLA BLA BLA BLA BLA BLA BLA BLA BLA BLA BLA BLA BLA BLA BLA BLA BLA BLA BLA BLA 
BLA BLA BLA BLA BLA BLA BLA BLA BLA BLA BLA BLA BLA BLA BLA BLA BLA BLA BLA BLA 
BLA BLA BLA BLA BLA BLA BLA BLA BLA BLA BLA BLA BLA BLA BLA BLA BLA BLA BLA BLA 
BLA BLA BLA BLA BLA BLA BLA BLA BLA BLA BLA BLA BLA BLA BLA BLA BLA BLA BLA BLA 
BLA BLA BLA BLA BLA BLA BLA BLA BLA BLA BLA BLA BLA BLA BLA BLA BLA BLA BLA BLA 
BLA BLA BLA BLA BLA BLA BLA BLA BLA BLA BLA BLA BLA BLA BLA BLA BLA BLA BLA BLA 
BLA BLA BLA BLA BLA BLA BLA BLA BLA BLA BLA BLA BLA BLA BLA BLA BLA BLA BLA BLA 
BLA BLA BLA BLA BLA BLA BLA BLA BLA BLA BLA BLA BLA BLA BLA BLA BLA BLA BLA BLA 
BLA BLA BLA BLA BLA BLA BLA BLA BLA BLA BLA BLA BLA BLA BLA BLA BLA BLA BLA BLA 
BLA BLA BLA BLA BLA BLA BLA BLA BLA BLA BLA BLA BLA BLA BLA BLA BLA BLA BLA BLA 
BLA BLA BLA BLA BLA BLA BLA BLA BLA BLA BLA BLA BLA BLA BLA BLA BLA BLA BLA BLA 
BLA BLA BLA BLA BLA BLA BLA BLA BLA BLA BLA BLA BLA BLA BLA BLA BLA BLA BLA BLA 
BLA BLA BLA BLA BLA BLA BLA BLA BLA BLA BLA BLA BLA BLA BLA BLA BLA BLA BLA BLA 
BLA BLA BLA BLA BLA BLA BLA BLA BLA BLA BLA BLA BLA BLA BLA BLA BLA BLA BLA BLA 
BLA BLA BLA BLA BLA BLA BLA BLA BLA BLA BLA BLA BLA BLA BLA BLA BLA BLA BLA BLA 
BLA BLA BLA BLA BLA BLA BLA BLA BLA BLA BLA BLA BLA BLA BLA BLA BLA BLA BLA BLA 
BLA BLA BLA BLA BLA BLA BLA BLA BLA BLA BLA BLA BLA BLA BLA BLA BLA BLA BLA BLA 
BLA BLA BLA BLA BLA BLA BLA BLA BLA BLA BLA BLA BLA BLA BLA BLA BLA BLA BLA BLA 
BLA BLA BLA BLA BLA BLA BLA BLA BLA BLA BLA BLA BLA BLA BLA BLA BLA BLA BLA BLA 
BLA BLA BLA BLA BLA BLA BLA BLA BLA BLA BLA BLA BLA BLA BLA BLA BLA BLA BLA BLA 
BLA BLA BLA BLA BLA BLA BLA BLA BLA BLA BLA BLA BLA BLA BLA BLA BLA BLA BLA BLA 
BLA BLA BLA BLA BLA BLA BLA BLA BLA BLA BLA BLA BLA BLA BLA BLA BLA BLA BLA BLA 
BLA BLA BLA BLA BLA BLA BLA BLA BLA BLA BLA BLA BLA BLA BLA BLA BLA BLA BLA BLA 
BLA BLA BLA BLA BLA BLA BLA BLA BLA BLA BLA BLA BLA BLA BLA BLA BLA BLA BLA BLA 
BLA BLA BLA BLA BLA BLA BLA BLA BLA BLA BLA BLA BLA BLA BLA BLA BLA BLA BLA BLA 
BLA BLA BLA BLA BLA BLA BLA BLA BLA BLA BLA BLA BLA BLA BLA BLA BLA BLA BLA BLA 
BLA BLA BLA BLA BLA BLA BLA BLA BLA BLA BLA BLA BLA BLA BLA BLA BLA BLA BLA BLA 
BLA BLA BLA BLA BLA BLA BLA BLA BLA BLA BLA BLA BLA BLA BLA BLA BLA BLA BLA BLA 
BLA BLA BLA BLA BLA BLA BLA BLA BLA BLA BLA BLA BLA BLA BLA BLA BLA BLA BLA BLA 
BLA BLA BLA BLA BLA BLA BLA BLA BLA BLA BLA BLA BLA BLA BLA BLA BLA BLA BLA BLA 
BLA BLA BLA BLA BLA BLA BLA BLA BLA BLA BLA BLA BLA BLA BLA BLA BLA BLA BLA BLA 
BLA BLA BLA BLA BLA BLA BLA BLA BLA BLA BLA BLA BLA BLA BLA BLA BLA BLA BLA BLA 
BLA BLA BLA BLA BLA BLA BLA BLA BLA BLA BLA BLA BLA BLA BLA BLA BLA BLA BLA BLA 
BLA BLA BLA BLA BLA BLA BLA BLA BLA BLA BLA BLA BLA BLA BLA BLA BLA BLA BLA BLA 
BLA BLA BLA BLA BLA BLA BLA BLA BLA BLA BLA BLA BLA BLA BLA BLA BLA BLA BLA BLA 
BLA BLA BLA BLA BLA BLA BLA BLA BLA BLA BLA BLA BLA BLA BLA BLA BLA BLA BLA BLA 
BLA BLA BLA BLA BLA BLA BLA BLA BLA BLA BLA BLA BLA BLA BLA BLA BLA BLA BLA BLA 
BLA BLA BLA BLA BLA BLA BLA BLA BLA BLA BLA BLA BLA BLA BLA BLA BLA BLA BLA BLA 
BLA BLA BLA BLA BLA BLA BLA BLA BLA BLA BLA BLA BLA BLA BLA BLA BLA BLA BLA BLA 
BLA BLA BLA BLA BLA BLA BLA BLA BLA BLA BLA BLA BLA BLA BLA BLA BLA BLA BLA BLA 
BLA BLA BLA BLA BLA BLA BLA BLA BLA BLA BLA BLA BLA BLA BLA BLA BLA BLA BLA BLA 
BLA BLA BLA BLA BLA BLA BLA BLA BLA BLA BLA BLA BLA BLA BLA BLA BLA BLA BLA BLA 
BLA BLA BLA BLA BLA BLA BLA BLA BLA BLA BLA BLA BLA BLA BLA BLA BLA BLA BLA BLA 
BLA BLA BLA BLA BLA BLA BLA BLA BLA BLA BLA BLA BLA BLA BLA BLA BLA BLA BLA BLA 
BLA BLA BLA BLA BLA BLA BLA BLA BLA BLA BLA BLA BLA BLA BLA BLA BLA BLA BLA BLA 
BLA BLA BLA BLA BLA BLA BLA BLA BLA BLA BLA BLA BLA BLA BLA BLA BLA BLA BLA BLA 
BLA BLA BLA BLA BLA BLA BLA BLA BLA BLA BLA BLA BLA BLA BLA BLA BLA BLA BLA BLA 
BLA BLA BLA BLA BLA BLA BLA BLA BLA BLA BLA BLA BLA BLA BLA BLA BLA BLA BLA BLA 
BLA BLA BLA BLA BLA BLA BLA BLA BLA BLA BLA BLA BLA BLA BLA BLA BLA BLA BLA BLA 
BLA BLA BLA BLA BLA BLA BLA BLA BLA BLA BLA BLA BLA BLA BLA BLA BLA BLA BLA BLA 
BLA BLA BLA BLA BLA BLA BLA BLA BLA BLA BLA BLA BLA BLA BLA BLA BLA BLA BLA BLA 
BLA BLA BLA BLA BLA BLA BLA BLA BLA BLA BLA BLA BLA BLA BLA BLA BLA BLA BLA BLA 
BLA BLA BLA BLA BLA BLA BLA BLA BLA BLA BLA BLA BLA BLA BLA BLA BLA BLA BLA BLA 
BLA BLA BLA BLA BLA BLA BLA BLA BLA BLA BLA BLA BLA BLA BLA BLA BLA BLA BLA BLA 
BLA BLA BLA BLA BLA BLA BLA BLA BLA BLA BLA BLA BLA BLA BLA BLA BLA BLA BLA BLA 
BLA BLA BLA BLA BLA BLA BLA BLA BLA BLA BLA BLA BLA BLA BLA BLA BLA BLA BLA BLA 
BLA BLA BLA BLA BLA BLA BLA BLA BLA BLA BLA BLA BLA BLA BLA BLA BLA BLA BLA BLA 
BLA BLA BLA BLA BLA BLA BLA BLA BLA BLA BLA BLA BLA BLA BLA BLA BLA BLA BLA BLA 
BLA BLA BLA BLA BLA BLA BLA BLA BLA BLA BLA BLA BLA BLA BLA BLA BLA BLA BLA BLA 
BLA BLA BLA BLA BLA BLA BLA BLA BLA BLA BLA BLA BLA BLA BLA BLA BLA BLA BLA BLA 
BLA BLA BLA BLA BLA BLA BLA BLA BLA BLA BLA BLA BLA BLA BLA BLA BLA BLA BLA BLA 
BLA BLA BLA BLA BLA BLA BLA BLA BLA BLA BLA BLA BLA BLA BLA BLA BLA BLA BLA BLA 
BLA BLA BLA BLA BLA BLA BLA BLA BLA BLA BLA BLA BLA BLA BLA BLA BLA BLA BLA BLA 
BLA BLA BLA BLA BLA BLA BLA BLA BLA BLA BLA BLA BLA BLA BLA BLA BLA BLA BLA BLA 
BLA BLA BLA BLA BLA BLA BLA BLA BLA BLA BLA BLA BLA BLA BLA BLA BLA BLA BLA BLA 
BLA BLA BLA BLA BLA BLA BLA BLA BLA BLA BLA BLA BLA BLA BLA BLA BLA BLA BLA BLA 
BLA BLA BLA BLA BLA BLA BLA BLA BLA BLA BLA BLA BLA BLA BLA BLA BLA BLA BLA BLA 
BLA BLA BLA BLA BLA BLA BLA BLA BLA BLA BLA BLA BLA BLA BLA BLA BLA BLA BLA BLA 
BLA BLA BLA BLA BLA BLA BLA BLA BLA BLA BLA BLA BLA BLA BLA BLA BLA BLA BLA BLA 
BLA BLA BLA BLA BLA BLA BLA BLA BLA BLA BLA BLA BLA BLA BLA BLA BLA BLA BLA BLA 
BLA BLA BLA BLA BLA BLA BLA BLA BLA BLA BLA BLA BLA BLA BLA BLA BLA BLA BLA BLA 
BLA BLA BLA BLA BLA BLA BLA BLA BLA BLA BLA BLA BLA BLA BLA BLA BLA BLA BLA BLA 
BLA BLA BLA BLA BLA BLA BLA BLA BLA BLA BLA BLA BLA BLA BLA BLA BLA BLA BLA BLA 
BLA BLA BLA BLA BLA BLA BLA BLA BLA BLA BLA BLA BLA BLA BLA BLA BLA BLA BLA BLA 
BLA BLA BLA BLA BLA BLA BLA BLA BLA BLA BLA BLA BLA BLA BLA BLA BLA BLA BLA BLA 
BLA BLA BLA BLA BLA BLA BLA BLA BLA BLA BLA BLA BLA BLA BLA BLA BLA BLA BLA BLA 
BLA BLA BLA BLA BLA BLA BLA BLA BLA BLA BLA BLA BLA BLA BLA BLA BLA BLA BLA BLA 
BLA BLA BLA BLA BLA BLA BLA BLA BLA BLA BLA BLA BLA BLA BLA BLA BLA BLA BLA BLA 
BLA BLA BLA BLA BLA BLA BLA BLA BLA BLA BLA BLA BLA BLA BLA BLA BLA BLA BLA BLA 
BLA BLA BLA BLA BLA BLA BLA BLA BLA BLA BLA BLA BLA BLA BLA BLA BLA BLA BLA BLA 
BLA BLA BLA BLA BLA BLA BLA BLA BLA BLA BLA BLA BLA BLA BLA BLA BLA BLA BLA BLA 
BLA BLA BLA BLA BLA BLA BLA BLA BLA BLA BLA BLA BLA BLA BLA BLA BLA BLA BLA BLA 
BLA BLA BLA BLA BLA BLA BLA BLA BLA BLA BLA BLA BLA BLA BLA BLA BLA BLA BLA BLA 
BLA BLA BLA BLA BLA BLA BLA BLA BLA BLA BLA BLA BLA BLA BLA BLA BLA BLA BLA BLA 
BLA BLA BLA BLA BLA BLA BLA BLA BLA BLA BLA BLA BLA BLA BLA BLA BLA BLA BLA BLA 
BLA BLA BLA BLA BLA BLA BLA BLA BLA BLA BLA BLA BLA BLA BLA BLA BLA BLA BLA BLA 
BLA BLA BLA BLA BLA BLA BLA BLA BLA BLA BLA BLA BLA BLA BLA BLA BLA BLA BLA BLA 
BLA BLA BLA BLA BLA BLA BLA BLA BLA BLA BLA BLA BLA BLA BLA BLA BLA BLA BLA BLA 
BLA BLA BLA BLA BLA BLA BLA BLA BLA BLA BLA BLA BLA BLA BLA BLA BLA BLA BLA BLA 
BLA BLA BLA BLA BLA BLA BLA BLA BLA BLA BLA BLA BLA BLA BLA BLA BLA BLA BLA BLA 
BLA BLA BLA BLA BLA BLA BLA BLA BLA BLA BLA BLA BLA BLA BLA BLA BLA BLA BLA BLA 
BLA BLA BLA BLA BLA BLA BLA BLA BLA BLA BLA BLA BLA BLA BLA BLA BLA BLA BLA BLA 
BLA BLA BLA BLA BLA BLA BLA BLA BLA BLA BLA BLA BLA BLA BLA BLA BLA BLA BLA BLA 
BLA BLA BLA BLA BLA BLA BLA BLA BLA BLA BLA BLA BLA BLA BLA BLA BLA BLA BLA BLA 
BLA BLA BLA BLA BLA BLA BLA BLA BLA BLA BLA BLA BLA BLA BLA BLA BLA BLA BLA BLA 
BLA BLA BLA BLA BLA BLA BLA BLA BLA BLA BLA BLA BLA BLA BLA BLA BLA BLA BLA BLA 
BLA BLA BLA BLA BLA BLA BLA BLA BLA BLA BLA BLA BLA BLA BLA BLA BLA BLA BLA BLA 
BLA BLA BLA BLA BLA BLA BLA BLA BLA BLA BLA BLA BLA BLA BLA BLA BLA BLA BLA BLA 
BLA BLA BLA BLA BLA BLA BLA BLA BLA BLA BLA BLA BLA BLA BLA BLA BLA BLA BLA BLA 
BLA BLA BLA BLA BLA BLA BLA BLA BLA BLA BLA BLA BLA BLA BLA BLA BLA BLA BLA BLA 
BLA BLA BLA BLA BLA BLA BLA BLA BLA BLA BLA BLA BLA BLA BLA BLA BLA BLA BLA BLA 
BLA BLA BLA BLA BLA BLA BLA BLA BLA BLA BLA BLA BLA BLA BLA BLA BLA BLA BLA BLA 
BLA BLA BLA BLA BLA BLA BLA BLA BLA BLA BLA BLA BLA BLA BLA BLA BLA BLA BLA BLA 
BLA BLA BLA BLA BLA BLA BLA BLA BLA BLA BLA BLA BLA BLA BLA BLA BLA BLA BLA BLA 
BLA BLA BLA BLA BLA BLA BLA BLA BLA BLA BLA BLA BLA BLA BLA BLA BLA BLA BLA BLA 
BLA BLA BLA BLA BLA BLA BLA BLA BLA BLA BLA BLA BLA BLA BLA BLA BLA BLA BLA BLA 
BLA BLA BLA BLA BLA BLA BLA BLA BLA BLA BLA BLA BLA BLA BLA BLA BLA BLA BLA BLA 
BLA BLA BLA BLA BLA BLA BLA BLA BLA BLA BLA BLA BLA BLA BLA BLA BLA BLA BLA BLA 
BLA BLA BLA BLA BLA BLA BLA BLA BLA BLA BLA BLA BLA BLA BLA BLA BLA BLA BLA BLA 
BLA BLA BLA BLA BLA BLA BLA BLA BLA BLA BLA BLA BLA BLA BLA BLA BLA BLA BLA BLA 
BLA BLA BLA BLA BLA BLA BLA BLA BLA BLA BLA BLA BLA BLA BLA BLA BLA BLA BLA BLA 
BLA BLA BLA BLA BLA BLA BLA BLA BLA BLA BLA BLA BLA BLA BLA BLA BLA BLA BLA BLA 
BLA BLA BLA BLA BLA BLA BLA BLA BLA BLA BLA BLA BLA BLA BLA BLA BLA BLA BLA BLA 
BLA BLA BLA BLA BLA BLA BLA BLA BLA BLA BLA BLA BLA BLA BLA BLA BLA BLA BLA BLA 
BLA BLA BLA BLA BLA BLA BLA BLA BLA BLA BLA BLA BLA BLA BLA BLA BLA BLA BLA BLA 
BLA BLA BLA BLA BLA BLA BLA BLA BLA BLA BLA BLA BLA BLA BLA BLA BLA BLA BLA BLA 
BLA BLA BLA BLA BLA BLA BLA BLA BLA BLA BLA BLA BLA BLA BLA BLA BLA BLA BLA BLA 
BLA BLA BLA BLA BLA BLA BLA BLA BLA BLA BLA BLA BLA BLA BLA BLA BLA BLA BLA BLA 
BLA BLA BLA BLA BLA BLA BLA BLA BLA BLA BLA BLA BLA BLA BLA BLA BLA BLA BLA BLA 
BLA BLA BLA BLA BLA BLA BLA BLA BLA BLA BLA BLA BLA BLA BLA BLA BLA BLA BLA BLA 
BLA BLA BLA BLA BLA BLA BLA BLA BLA BLA BLA BLA BLA BLA BLA BLA BLA BLA BLA BLA 
BLA BLA BLA BLA BLA BLA BLA BLA BLA BLA BLA BLA BLA BLA BLA BLA BLA BLA BLA BLA 
BLA BLA BLA BLA BLA BLA BLA BLA BLA BLA BLA BLA BLA BLA BLA BLA BLA BLA BLA BLA 
BLA BLA BLA BLA BLA BLA BLA BLA BLA BLA BLA BLA BLA BLA BLA BLA BLA BLA BLA BLA 
BLA BLA BLA BLA BLA BLA BLA BLA BLA BLA BLA BLA BLA BLA BLA BLA BLA BLA BLA BLA 
BLA BLA BLA BLA BLA BLA BLA BLA BLA BLA BLA BLA BLA BLA BLA BLA BLA BLA BLA BLA 
BLA BLA BLA BLA BLA BLA BLA BLA BLA BLA BLA BLA BLA BLA BLA BLA BLA BLA BLA BLA 
BLA BLA BLA BLA BLA BLA BLA BLA BLA BLA BLA BLA BLA BLA BLA BLA BLA BLA BLA BLA 
BLA BLA BLA BLA BLA BLA BLA BLA BLA BLA BLA BLA BLA BLA BLA BLA BLA BLA BLA BLA 
BLA BLA BLA BLA BLA BLA BLA BLA BLA BLA BLA BLA BLA BLA BLA BLA BLA BLA BLA BLA 
BLA BLA BLA BLA BLA BLA BLA BLA BLA BLA BLA BLA BLA BLA BLA BLA BLA BLA BLA BLA 
BLA BLA BLA BLA BLA BLA BLA BLA BLA BLA BLA BLA BLA BLA BLA BLA BLA BLA BLA BLA 
BLA BLA BLA BLA BLA BLA BLA BLA BLA BLA BLA BLA BLA BLA BLA BLA BLA BLA BLA BLA 
BLA BLA BLA BLA BLA BLA BLA BLA BLA BLA BLA BLA BLA BLA BLA BLA BLA BLA BLA BLA 
BLA BLA BLA BLA BLA BLA BLA BLA BLA BLA BLA BLA BLA BLA BLA BLA BLA BLA BLA BLA 
BLA BLA BLA BLA BLA BLA BLA BLA BLA BLA BLA BLA BLA BLA BLA BLA BLA BLA BLA BLA 
BLA BLA BLA BLA BLA BLA BLA BLA BLA BLA BLA BLA BLA BLA BLA BLA BLA BLA BLA BLA 
BLA BLA BLA BLA BLA BLA BLA BLA BLA BLA BLA BLA BLA BLA BLA BLA BLA BLA BLA BLA 
BLA BLA BLA BLA BLA BLA BLA BLA BLA BLA BLA BLA BLA BLA BLA BLA BLA BLA BLA BLA 
BLA BLA BLA BLA BLA BLA BLA BLA BLA BLA BLA BLA BLA BLA BLA BLA BLA BLA BLA BLA 
BLA BLA BLA BLA BLA BLA BLA BLA BLA BLA BLA BLA BLA BLA BLA BLA BLA BLA BLA BLA 
BLA BLA BLA BLA BLA BLA BLA BLA BLA BLA BLA BLA BLA BLA BLA BLA BLA BLA BLA BLA 
BLA BLA BLA BLA BLA BLA BLA BLA BLA BLA BLA BLA BLA BLA BLA BLA BLA BLA BLA BLA 
BLA BLA BLA BLA BLA BLA BLA BLA BLA BLA BLA BLA BLA BLA BLA BLA BLA BLA BLA BLA 
BLA BLA BLA BLA BLA BLA BLA BLA BLA BLA BLA BLA BLA BLA BLA BLA BLA BLA BLA BLA 
BLA BLA BLA BLA BLA BLA BLA BLA BLA BLA BLA BLA BLA BLA BLA BLA BLA BLA BLA BLA 
BLA BLA BLA BLA BLA BLA BLA BLA BLA BLA BLA BLA BLA BLA BLA BLA BLA BLA BLA BLA 
BLA BLA BLA BLA BLA BLA BLA BLA BLA BLA BLA BLA BLA BLA BLA BLA BLA BLA BLA BLA 
BLA BLA BLA BLA BLA BLA BLA BLA BLA BLA BLA BLA BLA BLA BLA BLA BLA BLA BLA BLA 
BLA BLA BLA BLA BLA BLA BLA BLA BLA BLA BLA BLA BLA BLA BLA BLA BLA BLA BLA BLA 
BLA BLA BLA BLA BLA BLA BLA BLA BLA BLA BLA BLA BLA BLA BLA BLA BLA BLA BLA BLA 
BLA BLA BLA BLA BLA BLA BLA BLA BLA BLA BLA BLA BLA BLA BLA BLA BLA BLA BLA BLA 
BLA BLA BLA BLA BLA BLA BLA BLA BLA BLA BLA BLA BLA BLA BLA BLA BLA BLA BLA BLA 
BLA BLA BLA BLA BLA BLA BLA BLA BLA BLA BLA BLA BLA BLA BLA BLA BLA BLA BLA BLA 
BLA BLA BLA BLA BLA BLA BLA BLA BLA BLA BLA BLA BLA BLA BLA BLA BLA BLA BLA BLA 
BLA BLA BLA BLA BLA BLA BLA BLA BLA BLA BLA BLA BLA BLA BLA BLA BLA BLA BLA BLA 
BLA BLA BLA BLA BLA BLA BLA BLA BLA BLA BLA BLA BLA BLA BLA BLA BLA BLA BLA BLA 
BLA BLA BLA BLA BLA BLA BLA BLA BLA BLA BLA BLA BLA BLA BLA BLA BLA BLA BLA BLA 
BLA BLA BLA BLA BLA BLA BLA BLA BLA BLA BLA BLA BLA BLA BLA BLA BLA BLA BLA BLA 
BLA BLA BLA BLA BLA BLA BLA BLA BLA BLA BLA BLA BLA BLA BLA BLA BLA BLA BLA BLA 
BLA BLA BLA BLA BLA BLA BLA BLA BLA BLA BLA BLA BLA BLA BLA BLA BLA BLA BLA BLA 
BLA BLA BLA BLA BLA BLA BLA BLA BLA BLA BLA BLA BLA BLA BLA BLA BLA BLA BLA BLA 
BLA BLA BLA BLA BLA BLA BLA BLA BLA BLA BLA BLA BLA BLA BLA BLA BLA BLA BLA BLA 
BLA BLA BLA BLA BLA BLA BLA BLA BLA BLA BLA BLA BLA BLA BLA BLA BLA BLA BLA BLA 
BLA BLA BLA BLA BLA BLA BLA BLA BLA BLA BLA BLA BLA BLA BLA BLA BLA BLA BLA BLA 
BLA BLA BLA BLA BLA BLA BLA BLA BLA BLA BLA BLA BLA BLA BLA BLA BLA BLA BLA BLA 
BLA BLA BLA BLA BLA BLA BLA BLA BLA BLA BLA BLA BLA BLA BLA BLA BLA BLA BLA BLA 
BLA BLA BLA BLA BLA BLA BLA BLA BLA BLA BLA BLA BLA BLA BLA BLA BLA BLA BLA BLA 
BLA BLA BLA BLA BLA BLA BLA BLA BLA BLA BLA BLA BLA BLA BLA BLA BLA BLA BLA BLA 
BLA BLA BLA BLA BLA BLA BLA BLA BLA BLA BLA BLA BLA BLA BLA BLA BLA BLA BLA BLA 
BLA BLA BLA BLA BLA BLA BLA BLA BLA BLA BLA BLA BLA BLA BLA BLA BLA BLA BLA BLA 
BLA BLA BLA BLA BLA BLA BLA BLA BLA BLA BLA BLA BLA BLA BLA BLA BLA BLA BLA BLA 
BLA BLA BLA BLA BLA BLA BLA BLA BLA BLA BLA BLA BLA BLA BLA BLA BLA BLA BLA BLA 
BLA BLA BLA BLA BLA BLA BLA BLA BLA BLA BLA BLA BLA BLA BLA BLA BLA BLA BLA BLA 
BLA BLA BLA BLA BLA BLA BLA BLA BLA BLA BLA BLA BLA BLA BLA BLA BLA BLA BLA BLA 
BLA BLA BLA BLA BLA BLA BLA BLA BLA BLA BLA BLA BLA BLA BLA BLA BLA BLA BLA BLA 
BLA BLA BLA BLA BLA BLA BLA BLA BLA BLA BLA BLA BLA BLA BLA BLA BLA BLA BLA BLA 
BLA BLA BLA BLA BLA BLA BLA BLA BLA BLA BLA BLA BLA BLA BLA BLA BLA BLA BLA BLA 
BLA BLA BLA BLA BLA BLA BLA BLA BLA BLA BLA BLA BLA BLA BLA BLA BLA BLA BLA BLA 
BLA BLA BLA BLA BLA BLA BLA BLA BLA BLA BLA BLA BLA BLA BLA BLA BLA BLA BLA BLA 
BLA BLA BLA BLA BLA BLA BLA BLA BLA BLA BLA BLA BLA BLA BLA BLA BLA BLA BLA BLA 
BLA BLA BLA BLA BLA BLA BLA BLA BLA BLA BLA BLA BLA BLA BLA BLA BLA BLA BLA BLA 
BLA BLA BLA BLA BLA BLA BLA BLA BLA BLA BLA BLA BLA BLA BLA BLA BLA BLA BLA BLA 
BLA BLA BLA BLA BLA BLA BLA BLA BLA BLA BLA BLA BLA BLA BLA BLA BLA BLA BLA BLA 
BLA BLA BLA BLA BLA BLA BLA BLA BLA BLA BLA BLA BLA BLA BLA BLA BLA BLA BLA BLA 
BLA BLA BLA BLA BLA BLA BLA BLA BLA BLA BLA BLA BLA BLA BLA BLA BLA BLA BLA BLA 
BLA BLA BLA BLA BLA BLA BLA BLA BLA BLA BLA BLA BLA BLA BLA BLA BLA BLA BLA BLA 
BLA BLA BLA BLA BLA BLA BLA BLA BLA BLA BLA BLA BLA BLA BLA BLA BLA BLA BLA BLA 
BLA BLA BLA BLA BLA BLA BLA BLA BLA BLA BLA BLA BLA BLA BLA BLA BLA BLA BLA BLA 
BLA BLA BLA BLA BLA BLA BLA BLA BLA BLA BLA BLA BLA BLA BLA BLA BLA BLA BLA BLA 
BLA BLA BLA BLA BLA BLA BLA BLA BLA BLA BLA BLA BLA BLA BLA BLA BLA BLA BLA BLA 
BLA BLA BLA BLA BLA BLA BLA BLA BLA BLA BLA BLA BLA BLA BLA BLA BLA BLA BLA BLA 
BLA BLA BLA BLA BLA BLA BLA BLA BLA BLA BLA BLA BLA BLA BLA BLA BLA BLA BLA BLA 
BLA BLA BLA BLA BLA BLA BLA BLA BLA BLA BLA BLA BLA BLA BLA BLA BLA BLA BLA BLA 
BLA BLA BLA BLA BLA BLA BLA BLA BLA BLA BLA BLA BLA BLA BLA BLA BLA BLA BLA BLA 
BLA BLA BLA BLA BLA BLA BLA BLA BLA BLA BLA BLA BLA BLA BLA BLA BLA BLA BLA BLA 
BLA BLA BLA BLA BLA BLA BLA BLA BLA BLA BLA BLA BLA BLA BLA BLA BLA BLA BLA BLA 
BLA BLA BLA BLA BLA BLA BLA BLA BLA BLA BLA BLA BLA BLA BLA BLA BLA BLA BLA BLA 
BLA BLA BLA BLA BLA BLA BLA BLA BLA BLA BLA BLA BLA BLA BLA BLA BLA BLA BLA BLA 
BLA BLA BLA BLA BLA BLA BLA BLA BLA BLA BLA BLA BLA BLA BLA BLA BLA BLA BLA BLA 
BLA BLA BLA BLA BLA BLA BLA BLA BLA BLA BLA BLA BLA BLA BLA BLA BLA BLA BLA BLA 
BLA BLA BLA BLA BLA BLA BLA BLA BLA BLA BLA BLA BLA BLA BLA BLA BLA BLA BLA BLA 
BLA BLA BLA BLA BLA BLA BLA BLA BLA BLA BLA BLA BLA BLA BLA BLA BLA BLA BLA BLA 
BLA BLA BLA BLA BLA BLA BLA BLA BLA BLA BLA BLA BLA BLA BLA BLA BLA BLA BLA BLA 
BLA BLA BLA BLA BLA BLA BLA BLA BLA BLA BLA BLA BLA BLA BLA BLA BLA BLA BLA BLA 
BLA BLA BLA BLA BLA BLA BLA BLA BLA BLA BLA BLA BLA BLA BLA BLA BLA BLA BLA BLA 
BLA BLA BLA BLA BLA BLA BLA BLA BLA BLA BLA BLA BLA BLA BLA BLA BLA BLA BLA BLA 
BLA BLA BLA BLA BLA BLA BLA BLA BLA BLA BLA BLA BLA BLA BLA BLA BLA BLA BLA BLA 
BLA BLA BLA BLA BLA BLA BLA BLA BLA BLA BLA BLA BLA BLA BLA BLA BLA BLA BLA BLA 
BLA BLA BLA BLA BLA BLA BLA BLA BLA BLA BLA BLA BLA BLA BLA BLA BLA BLA BLA BLA 
BLA BLA BLA BLA BLA BLA BLA BLA BLA BLA BLA BLA BLA BLA BLA BLA BLA BLA BLA BLA 
BLA BLA BLA BLA BLA BLA BLA BLA BLA BLA BLA BLA BLA BLA BLA BLA BLA BLA BLA BLA 
BLA BLA BLA BLA BLA BLA BLA BLA BLA BLA BLA BLA BLA BLA BLA BLA BLA BLA BLA BLA 
BLA BLA BLA BLA BLA BLA BLA BLA BLA BLA BLA BLA BLA BLA BLA BLA BLA BLA BLA BLA 
BLA BLA BLA BLA BLA BLA BLA BLA BLA BLA BLA BLA BLA BLA BLA BLA BLA BLA BLA BLA 
BLA BLA BLA BLA BLA BLA BLA BLA BLA BLA BLA BLA BLA BLA BLA BLA BLA BLA BLA BLA 
BLA BLA BLA BLA BLA BLA BLA BLA BLA BLA BLA BLA BLA BLA BLA BLA BLA BLA BLA BLA 
BLA BLA BLA BLA BLA BLA BLA BLA BLA BLA BLA BLA BLA BLA BLA BLA BLA BLA BLA BLA 
BLA BLA BLA BLA BLA BLA BLA BLA BLA BLA BLA BLA BLA BLA BLA BLA BLA BLA BLA BLA 
BLA BLA BLA BLA BLA BLA BLA BLA BLA BLA BLA BLA BLA BLA BLA BLA BLA BLA BLA BLA 
BLA BLA BLA BLA BLA BLA BLA BLA BLA BLA BLA BLA BLA BLA BLA BLA BLA BLA BLA BLA 
BLA BLA BLA BLA BLA BLA BLA BLA BLA BLA BLA BLA BLA BLA BLA BLA BLA BLA BLA BLA 
BLA BLA BLA BLA BLA BLA BLA BLA BLA BLA BLA BLA BLA BLA BLA BLA BLA BLA BLA BLA 
BLA BLA BLA BLA BLA BLA BLA BLA BLA BLA BLA BLA BLA BLA BLA BLA BLA BLA BLA BLA 
BLA BLA BLA BLA BLA BLA BLA BLA BLA BLA BLA BLA BLA BLA BLA BLA BLA BLA BLA BLA 
BLA BLA BLA BLA BLA BLA BLA BLA BLA BLA BLA BLA BLA BLA BLA BLA BLA BLA BLA BLA 
BLA BLA BLA BLA BLA BLA BLA BLA BLA BLA BLA BLA BLA BLA BLA BLA BLA BLA BLA BLA 
BLA BLA BLA BLA BLA BLA BLA BLA BLA BLA BLA BLA BLA BLA BLA BLA BLA BLA BLA BLA 
BLA BLA BLA BLA BLA BLA BLA BLA BLA BLA BLA BLA BLA BLA BLA BLA BLA BLA BLA BLA 
BLA BLA BLA BLA BLA BLA BLA BLA BLA BLA BLA BLA BLA BLA BLA BLA BLA BLA BLA BLA 
BLA BLA BLA BLA BLA BLA BLA BLA BLA BLA BLA BLA BLA BLA BLA BLA BLA BLA BLA BLA 
BLA BLA BLA BLA BLA BLA BLA BLA BLA BLA BLA BLA BLA BLA BLA BLA BLA BLA BLA BLA 
BLA BLA BLA BLA BLA BLA BLA BLA BLA BLA BLA BLA BLA BLA BLA BLA BLA BLA BLA BLA 
BLA BLA BLA BLA BLA BLA BLA BLA BLA BLA BLA BLA BLA BLA BLA BLA BLA BLA BLA BLA 
BLA BLA BLA BLA BLA BLA BLA BLA BLA BLA BLA BLA BLA BLA BLA BLA BLA BLA BLA BLA 
BLA BLA BLA BLA BLA BLA BLA BLA BLA BLA BLA BLA BLA BLA BLA BLA BLA BLA BLA BLA 
BLA BLA BLA BLA BLA BLA BLA BLA BLA BLA BLA BLA BLA BLA BLA BLA BLA BLA BLA BLA 
BLA BLA BLA BLA BLA BLA BLA BLA BLA BLA BLA BLA BLA BLA BLA BLA BLA BLA BLA BLA 
BLA BLA BLA BLA BLA BLA BLA BLA BLA BLA BLA BLA BLA BLA BLA BLA BLA BLA BLA BLA 
BLA BLA BLA BLA BLA BLA BLA BLA BLA BLA BLA BLA BLA BLA BLA BLA BLA BLA BLA BLA 
BLA BLA BLA BLA BLA BLA BLA BLA BLA BLA BLA BLA BLA BLA BLA BLA BLA BLA BLA BLA 
BLA BLA BLA BLA BLA BLA BLA BLA BLA BLA BLA BLA BLA BLA BLA BLA BLA BLA BLA BLA 
BLA BLA BLA BLA BLA BLA BLA BLA BLA BLA BLA BLA BLA BLA BLA BLA BLA BLA BLA BLA 
BLA BLA BLA BLA BLA BLA BLA BLA BLA BLA BLA BLA BLA BLA BLA BLA BLA BLA BLA BLA 
BLA BLA BLA BLA BLA BLA BLA BLA BLA BLA BLA BLA BLA BLA BLA BLA BLA BLA BLA BLA 
BLA BLA BLA BLA BLA BLA BLA BLA BLA BLA BLA BLA BLA BLA BLA BLA BLA BLA BLA BLA 
BLA BLA BLA BLA BLA BLA BLA BLA BLA BLA BLA BLA BLA BLA BLA BLA BLA BLA BLA BLA 
BLA BLA BLA BLA BLA BLA BLA BLA BLA BLA BLA BLA BLA BLA BLA BLA BLA BLA BLA BLA 
BLA BLA BLA BLA BLA BLA BLA BLA BLA BLA BLA BLA BLA BLA BLA BLA BLA BLA BLA BLA 
BLA BLA BLA BLA BLA BLA BLA BLA BLA BLA BLA BLA BLA BLA BLA BLA BLA BLA BLA BLA 
BLA BLA BLA BLA BLA BLA BLA BLA BLA BLA BLA BLA BLA BLA BLA BLA BLA BLA BLA BLA 
BLA BLA BLA BLA BLA BLA BLA BLA BLA BLA BLA BLA BLA BLA BLA BLA BLA BLA BLA BLA 
BLA BLA BLA BLA BLA BLA BLA BLA BLA BLA BLA BLA BLA BLA BLA BLA BLA BLA BLA BLA 
BLA BLA BLA BLA BLA BLA BLA BLA BLA BLA BLA BLA BLA BLA BLA BLA BLA BLA BLA BLA 
BLA BLA BLA BLA BLA BLA BLA BLA BLA BLA BLA BLA BLA BLA BLA BLA BLA BLA BLA BLA 
BLA BLA BLA BLA BLA BLA BLA BLA BLA BLA BLA BLA BLA BLA BLA BLA BLA BLA BLA BLA 
BLA BLA BLA BLA BLA BLA BLA BLA BLA BLA BLA BLA BLA BLA BLA BLA BLA BLA BLA BLA 
BLA BLA BLA BLA BLA BLA BLA BLA BLA BLA BLA BLA BLA BLA BLA BLA BLA BLA BLA BLA 
BLA BLA BLA BLA BLA BLA BLA BLA BLA BLA BLA BLA BLA BLA BLA BLA BLA BLA BLA BLA 
BLA BLA BLA BLA BLA BLA BLA BLA BLA BLA BLA BLA BLA BLA BLA BLA BLA BLA BLA BLA 
BLA BLA BLA BLA BLA BLA BLA BLA BLA BLA BLA BLA BLA BLA BLA BLA BLA BLA BLA BLA 
BLA BLA BLA BLA BLA BLA BLA BLA BLA BLA BLA BLA BLA BLA BLA BLA BLA BLA BLA BLA 
BLA BLA BLA BLA BLA BLA BLA BLA BLA BLA BLA BLA BLA BLA BLA BLA BLA BLA BLA BLA 
BLA BLA BLA BLA BLA BLA BLA BLA BLA BLA BLA BLA BLA BLA BLA BLA BLA BLA BLA BLA 
BLA BLA BLA BLA BLA BLA BLA BLA BLA BLA BLA BLA BLA BLA BLA BLA BLA BLA BLA BLA 
BLA BLA BLA BLA BLA BLA BLA BLA BLA BLA BLA BLA BLA BLA BLA BLA BLA BLA BLA BLA 
BLA BLA BLA BLA BLA BLA BLA BLA BLA BLA BLA BLA BLA BLA BLA BLA BLA BLA BLA BLA 
BLA BLA BLA BLA BLA BLA BLA BLA BLA BLA BLA BLA BLA BLA BLA BLA BLA BLA BLA BLA 
BLA BLA BLA BLA BLA BLA BLA BLA BLA BLA BLA BLA BLA BLA BLA BLA BLA BLA BLA BLA 
BLA BLA BLA BLA BLA BLA BLA BLA BLA BLA BLA BLA BLA BLA BLA BLA BLA BLA BLA BLA 
BLA BLA BLA BLA BLA BLA BLA BLA BLA BLA BLA BLA BLA BLA BLA BLA BLA BLA BLA BLA 
BLA BLA BLA BLA BLA BLA BLA BLA BLA BLA BLA BLA BLA BLA BLA BLA BLA BLA BLA BLA 
BLA BLA BLA BLA BLA BLA BLA BLA BLA BLA BLA BLA BLA BLA BLA BLA BLA BLA BLA BLA 
BLA BLA BLA BLA BLA BLA BLA BLA BLA BLA BLA BLA BLA BLA BLA BLA BLA BLA BLA BLA 
BLA BLA BLA BLA BLA BLA BLA BLA BLA BLA BLA BLA BLA BLA BLA BLA BLA BLA BLA BLA 
BLA BLA BLA BLA BLA BLA BLA BLA BLA BLA BLA BLA BLA BLA BLA BLA BLA BLA BLA BLA 
BLA BLA BLA BLA BLA BLA BLA BLA BLA BLA BLA BLA BLA BLA BLA BLA BLA BLA BLA BLA 
BLA BLA BLA BLA BLA BLA BLA BLA BLA BLA BLA BLA BLA BLA BLA BLA BLA BLA BLA BLA 
BLA BLA BLA BLA BLA BLA BLA BLA BLA BLA BLA BLA BLA BLA BLA BLA BLA BLA BLA BLA 
BLA BLA BLA BLA BLA BLA BLA BLA BLA BLA BLA BLA BLA BLA BLA BLA BLA BLA BLA BLA 
BLA BLA BLA BLA BLA BLA BLA BLA BLA BLA BLA BLA BLA BLA BLA BLA BLA BLA BLA BLA 
BLA BLA BLA BLA BLA BLA BLA BLA BLA BLA BLA BLA BLA BLA BLA BLA BLA BLA BLA BLA 
BLA BLA BLA BLA BLA BLA BLA BLA BLA BLA BLA BLA BLA BLA BLA BLA BLA BLA BLA BLA 
BLA BLA BLA BLA BLA BLA BLA BLA BLA BLA BLA BLA BLA BLA BLA BLA BLA BLA BLA BLA 
BLA BLA BLA BLA BLA BLA BLA BLA BLA BLA BLA BLA BLA BLA BLA BLA BLA BLA BLA BLA 
BLA BLA BLA BLA BLA BLA BLA BLA BLA BLA BLA BLA BLA BLA BLA BLA BLA BLA BLA BLA 
BLA BLA BLA BLA BLA BLA BLA BLA BLA BLA BLA BLA BLA BLA BLA BLA BLA BLA BLA BLA 
BLA BLA BLA BLA BLA BLA BLA BLA BLA BLA BLA BLA BLA BLA BLA BLA BLA BLA BLA BLA 
BLA BLA BLA BLA BLA BLA BLA BLA BLA BLA BLA BLA BLA BLA BLA BLA BLA BLA BLA BLA 
BLA BLA BLA BLA BLA BLA BLA BLA BLA BLA BLA BLA BLA BLA BLA BLA BLA BLA BLA BLA 
BLA BLA BLA BLA BLA BLA BLA BLA BLA BLA BLA BLA BLA BLA BLA BLA BLA BLA BLA BLA 
BLA BLA BLA BLA BLA BLA BLA BLA BLA BLA BLA BLA BLA BLA BLA BLA BLA BLA BLA BLA 
BLA BLA BLA BLA BLA BLA BLA BLA BLA BLA BLA BLA BLA BLA BLA BLA BLA BLA BLA BLA 
BLA BLA BLA BLA BLA BLA BLA BLA BLA BLA BLA BLA BLA BLA BLA BLA BLA BLA BLA BLA 
BLA BLA BLA BLA BLA BLA BLA BLA BLA BLA BLA BLA BLA BLA BLA BLA BLA BLA BLA BLA 
BLA BLA BLA BLA BLA BLA BLA BLA BLA BLA BLA BLA BLA BLA BLA BLA BLA BLA BLA BLA 
BLA BLA BLA BLA BLA BLA BLA BLA BLA BLA BLA BLA BLA BLA BLA BLA BLA BLA BLA BLA 
BLA BLA BLA BLA BLA BLA BLA BLA BLA BLA BLA BLA BLA BLA BLA BLA BLA BLA BLA BLA 
BLA BLA BLA BLA BLA BLA BLA BLA BLA BLA BLA BLA BLA BLA BLA BLA BLA BLA BLA BLA 
BLA BLA BLA BLA BLA BLA BLA BLA BLA BLA BLA BLA BLA BLA BLA BLA BLA BLA BLA BLA 
BLA BLA BLA BLA BLA BLA BLA BLA BLA BLA BLA BLA BLA BLA BLA BLA BLA BLA BLA BLA 
BLA BLA BLA BLA BLA BLA BLA BLA BLA BLA BLA BLA BLA BLA BLA BLA BLA BLA BLA BLA 
BLA BLA BLA BLA BLA BLA BLA BLA BLA BLA BLA BLA BLA BLA BLA BLA BLA BLA BLA BLA 
BLA BLA BLA BLA BLA BLA BLA BLA BLA BLA BLA BLA BLA BLA BLA BLA BLA BLA BLA BLA 
BLA BLA BLA BLA BLA BLA BLA BLA BLA BLA BLA BLA BLA BLA BLA BLA BLA BLA BLA BLA 
BLA BLA BLA BLA BLA BLA BLA BLA BLA BLA BLA BLA BLA BLA BLA BLA BLA BLA BLA BLA 
BLA BLA BLA BLA BLA BLA BLA BLA BLA BLA BLA BLA BLA BLA BLA BLA BLA BLA BLA BLA 
BLA BLA BLA BLA BLA BLA BLA BLA BLA BLA BLA BLA BLA BLA BLA BLA BLA BLA BLA BLA 
BLA BLA BLA BLA BLA BLA BLA BLA BLA BLA BLA BLA BLA BLA BLA BLA BLA BLA BLA BLA 
BLA BLA BLA BLA BLA BLA BLA BLA BLA BLA BLA BLA BLA BLA BLA BLA BLA BLA BLA BLA 
BLA BLA BLA BLA BLA BLA BLA BLA BLA BLA BLA BLA BLA BLA BLA BLA BLA BLA BLA BLA 
BLA BLA BLA BLA BLA BLA BLA BLA BLA BLA BLA BLA BLA BLA BLA BLA BLA BLA BLA BLA 
BLA BLA BLA BLA BLA BLA BLA BLA BLA BLA BLA BLA BLA BLA BLA BLA BLA BLA BLA BLA 
BLA BLA BLA BLA BLA BLA BLA BLA BLA BLA BLA BLA BLA BLA BLA BLA BLA BLA BLA BLA 
BLA BLA BLA BLA BLA BLA BLA BLA BLA BLA BLA BLA BLA BLA BLA BLA BLA BLA BLA BLA 
BLA BLA BLA BLA BLA BLA BLA BLA BLA BLA BLA BLA BLA BLA BLA BLA BLA BLA BLA BLA 
BLA BLA BLA BLA BLA BLA BLA BLA BLA BLA BLA BLA BLA BLA BLA BLA BLA BLA BLA BLA 
BLA BLA BLA BLA BLA BLA BLA BLA BLA BLA BLA BLA BLA BLA BLA BLA BLA BLA BLA BLA 
BLA BLA BLA BLA BLA BLA BLA BLA BLA BLA BLA BLA BLA BLA BLA BLA BLA BLA BLA BLA 
BLA BLA BLA BLA BLA BLA BLA BLA BLA BLA BLA BLA BLA BLA BLA BLA BLA BLA BLA BLA 
BLA BLA BLA BLA BLA BLA BLA BLA BLA BLA BLA BLA BLA BLA BLA BLA BLA BLA BLA BLA 
BLA BLA BLA BLA BLA BLA BLA BLA BLA BLA BLA BLA BLA BLA BLA BLA BLA BLA BLA BLA 
BLA BLA BLA BLA BLA BLA BLA BLA BLA BLA BLA BLA BLA BLA BLA BLA BLA BLA BLA BLA 
BLA BLA BLA BLA BLA BLA BLA BLA BLA BLA BLA BLA BLA BLA BLA BLA BLA BLA BLA BLA 
BLA BLA BLA BLA BLA BLA BLA BLA BLA BLA BLA BLA BLA BLA BLA BLA BLA BLA BLA BLA 
BLA BLA BLA BLA BLA BLA BLA BLA BLA BLA BLA BLA BLA BLA BLA BLA BLA BLA BLA BLA 
BLA BLA BLA BLA BLA BLA BLA BLA BLA BLA BLA BLA BLA BLA BLA BLA BLA BLA BLA BLA 
BLA BLA BLA BLA BLA BLA BLA BLA BLA BLA BLA BLA BLA BLA BLA BLA BLA BLA BLA BLA 
BLA BLA BLA BLA BLA BLA BLA BLA BLA BLA BLA BLA BLA BLA BLA BLA BLA BLA BLA BLA 
BLA BLA BLA BLA BLA BLA BLA BLA BLA BLA BLA BLA BLA BLA BLA BLA BLA BLA BLA BLA 
BLA BLA BLA BLA BLA BLA BLA BLA BLA BLA BLA BLA BLA BLA BLA BLA BLA BLA BLA BLA 
BLA BLA BLA BLA BLA BLA BLA BLA BLA BLA BLA BLA BLA BLA BLA BLA BLA BLA BLA BLA 
BLA BLA BLA BLA BLA BLA BLA BLA BLA BLA BLA BLA BLA BLA BLA BLA BLA BLA BLA BLA 
BLA BLA BLA BLA BLA BLA BLA BLA BLA BLA BLA BLA BLA BLA BLA BLA BLA BLA BLA BLA 
BLA BLA BLA BLA BLA BLA BLA BLA BLA BLA BLA BLA BLA BLA BLA BLA BLA BLA BLA BLA 
BLA BLA BLA BLA BLA BLA BLA BLA BLA BLA BLA BLA BLA BLA BLA BLA BLA BLA BLA BLA 
BLA BLA BLA BLA BLA BLA BLA BLA BLA BLA BLA BLA BLA BLA BLA BLA BLA BLA BLA BLA 
BLA BLA BLA BLA BLA BLA BLA BLA BLA BLA BLA BLA BLA BLA BLA BLA BLA BLA BLA BLA 
BLA BLA BLA BLA BLA BLA BLA BLA BLA BLA BLA BLA BLA BLA BLA BLA BLA BLA BLA BLA 
BLA BLA BLA BLA BLA BLA BLA BLA BLA BLA BLA BLA BLA BLA BLA BLA BLA BLA BLA BLA 
BLA BLA BLA BLA BLA BLA BLA BLA BLA BLA BLA BLA BLA BLA BLA BLA BLA BLA BLA BLA 
BLA BLA BLA BLA BLA BLA BLA BLA BLA BLA BLA BLA BLA BLA BLA BLA BLA BLA BLA BLA 
BLA BLA BLA BLA BLA BLA BLA BLA BLA BLA BLA BLA BLA BLA BLA BLA BLA BLA BLA BLA 
BLA BLA BLA BLA BLA BLA BLA BLA BLA BLA BLA BLA BLA BLA BLA BLA BLA BLA BLA BLA 
BLA BLA BLA BLA BLA BLA BLA BLA BLA BLA BLA BLA BLA BLA BLA BLA BLA BLA BLA BLA 
BLA BLA BLA BLA BLA BLA BLA BLA BLA BLA BLA BLA BLA BLA BLA BLA BLA BLA BLA BLA 
BLA BLA BLA BLA BLA BLA BLA BLA BLA BLA BLA BLA BLA BLA BLA BLA BLA BLA BLA BLA 
BLA BLA BLA BLA BLA BLA BLA BLA BLA BLA BLA BLA BLA BLA BLA BLA BLA BLA BLA BLA 
BLA BLA BLA BLA BLA BLA BLA BLA BLA BLA BLA BLA BLA BLA BLA BLA BLA BLA BLA BLA 
BLA BLA BLA BLA BLA BLA BLA BLA BLA BLA BLA BLA BLA BLA BLA BLA BLA BLA BLA BLA 
BLA BLA BLA BLA BLA BLA BLA BLA BLA BLA BLA BLA BLA BLA BLA BLA BLA BLA BLA BLA 
BLA BLA BLA BLA BLA BLA BLA BLA BLA BLA BLA BLA BLA BLA BLA BLA BLA BLA BLA BLA 
BLA BLA BLA BLA BLA BLA BLA BLA BLA BLA BLA BLA BLA BLA BLA BLA BLA BLA BLA BLA 
BLA BLA BLA BLA BLA BLA BLA BLA BLA BLA BLA BLA BLA BLA BLA BLA BLA BLA BLA BLA 
BLA BLA BLA BLA BLA BLA BLA BLA BLA BLA BLA BLA BLA BLA BLA BLA BLA BLA BLA BLA 
BLA BLA BLA BLA BLA BLA BLA BLA BLA BLA BLA BLA BLA BLA BLA BLA BLA BLA BLA BLA 
BLA BLA BLA BLA BLA BLA BLA BLA BLA BLA BLA BLA BLA BLA BLA BLA BLA BLA BLA BLA 
BLA BLA BLA BLA BLA BLA BLA BLA BLA BLA BLA BLA BLA BLA BLA BLA BLA BLA BLA BLA 
BLA BLA BLA BLA BLA BLA BLA BLA BLA BLA BLA BLA BLA BLA BLA BLA BLA BLA BLA BLA 
BLA BLA BLA BLA BLA BLA BLA BLA BLA BLA BLA BLA BLA BLA BLA BLA BLA BLA BLA BLA 
BLA BLA BLA BLA BLA BLA BLA BLA BLA BLA BLA BLA BLA BLA BLA BLA BLA BLA BLA BLA 
BLA BLA BLA BLA BLA BLA BLA BLA BLA BLA BLA BLA BLA BLA BLA BLA BLA BLA BLA BLA 
BLA BLA BLA BLA BLA BLA BLA BLA BLA BLA BLA BLA BLA BLA BLA BLA BLA BLA BLA BLA 
BLA BLA BLA BLA BLA BLA BLA BLA BLA BLA BLA BLA BLA BLA BLA BLA BLA BLA BLA BLA 
BLA BLA BLA BLA BLA BLA BLA BLA BLA BLA BLA BLA BLA BLA BLA BLA BLA BLA BLA BLA 
BLA BLA BLA BLA BLA BLA BLA BLA BLA BLA BLA BLA BLA BLA BLA BLA BLA BLA BLA BLA 
BLA BLA BLA BLA BLA BLA BLA BLA BLA BLA BLA BLA BLA BLA BLA BLA BLA BLA BLA BLA 
BLA BLA BLA BLA BLA BLA BLA BLA BLA BLA BLA BLA BLA BLA BLA BLA BLA BLA BLA BLA 
BLA BLA BLA BLA BLA BLA BLA BLA BLA BLA BLA BLA BLA BLA BLA BLA BLA BLA BLA BLA 
BLA BLA BLA BLA BLA BLA BLA BLA BLA BLA BLA BLA BLA BLA BLA BLA BLA BLA BLA BLA 
BLA BLA BLA BLA BLA BLA BLA BLA BLA BLA BLA BLA BLA BLA BLA BLA BLA BLA BLA BLA 
BLA BLA BLA BLA BLA BLA BLA BLA BLA BLA BLA BLA BLA BLA BLA BLA BLA BLA BLA BLA 
BLA BLA BLA BLA BLA BLA BLA BLA BLA BLA BLA BLA BLA BLA BLA BLA BLA BLA BLA BLA 
BLA BLA BLA BLA BLA BLA BLA BLA BLA BLA BLA BLA BLA BLA BLA BLA BLA BLA BLA BLA 
BLA BLA BLA BLA BLA BLA BLA BLA BLA BLA BLA BLA BLA BLA BLA BLA BLA BLA BLA BLA 
BLA BLA BLA BLA BLA BLA BLA BLA BLA BLA BLA BLA BLA BLA BLA BLA BLA BLA BLA BLA 
BLA BLA BLA BLA BLA BLA BLA BLA BLA BLA BLA BLA BLA BLA BLA BLA BLA BLA BLA BLA 
BLA BLA BLA BLA BLA BLA BLA BLA BLA BLA BLA BLA BLA BLA BLA BLA BLA BLA BLA BLA 
BLA BLA BLA BLA BLA BLA BLA BLA BLA BLA BLA BLA BLA BLA BLA BLA BLA BLA BLA BLA 
BLA BLA BLA BLA BLA BLA BLA BLA BLA BLA BLA BLA BLA BLA BLA BLA BLA BLA BLA BLA 
BLA BLA BLA BLA BLA BLA BLA BLA BLA BLA BLA BLA BLA BLA BLA BLA BLA BLA BLA BLA 
BLA BLA BLA BLA BLA BLA BLA BLA BLA BLA BLA BLA BLA BLA BLA BLA BLA BLA BLA BLA 
BLA BLA BLA BLA BLA BLA BLA BLA BLA BLA BLA BLA BLA BLA BLA BLA BLA BLA BLA BLA 
BLA BLA BLA BLA BLA BLA BLA BLA BLA BLA BLA BLA BLA BLA BLA BLA BLA BLA BLA BLA 
BLA BLA BLA BLA BLA BLA BLA BLA BLA BLA BLA BLA BLA BLA BLA BLA BLA BLA BLA BLA 
BLA BLA BLA BLA BLA BLA BLA BLA BLA BLA BLA BLA BLA BLA BLA BLA BLA BLA BLA BLA 
BLA BLA BLA BLA BLA BLA BLA BLA BLA BLA BLA BLA BLA BLA BLA BLA BLA BLA BLA BLA 
BLA BLA BLA BLA BLA BLA BLA BLA BLA BLA BLA BLA BLA BLA BLA BLA BLA BLA BLA BLA 
BLA BLA BLA BLA BLA BLA BLA BLA BLA BLA BLA BLA BLA BLA BLA BLA BLA BLA BLA BLA 
BLA BLA BLA BLA BLA BLA BLA BLA BLA BLA BLA BLA BLA BLA BLA BLA BLA BLA BLA BLA 
BLA BLA BLA BLA BLA BLA BLA BLA BLA BLA BLA BLA BLA BLA BLA BLA BLA BLA BLA BLA 
BLA BLA BLA BLA BLA BLA BLA BLA BLA BLA BLA BLA BLA BLA BLA BLA BLA BLA BLA BLA 
BLA BLA BLA BLA BLA BLA BLA BLA BLA BLA BLA BLA BLA BLA BLA BLA BLA BLA BLA BLA 
BLA BLA BLA BLA BLA BLA BLA BLA BLA BLA BLA BLA BLA BLA BLA BLA BLA BLA BLA BLA 
BLA BLA BLA BLA BLA BLA BLA BLA BLA BLA BLA BLA BLA BLA BLA BLA BLA BLA BLA BLA 
BLA BLA BLA BLA BLA BLA BLA BLA BLA BLA BLA BLA BLA BLA BLA BLA BLA BLA BLA BLA 
BLA BLA BLA BLA BLA BLA BLA BLA BLA BLA BLA BLA BLA BLA BLA BLA BLA BLA BLA BLA 
BLA BLA BLA BLA BLA BLA BLA BLA BLA BLA BLA BLA BLA BLA BLA BLA BLA BLA BLA BLA 
BLA BLA BLA BLA BLA BLA BLA BLA BLA BLA BLA BLA BLA BLA BLA BLA BLA BLA BLA BLA 
BLA BLA BLA BLA BLA BLA BLA BLA BLA BLA BLA BLA BLA BLA BLA BLA BLA BLA BLA BLA 
BLA BLA BLA BLA BLA BLA BLA BLA BLA BLA BLA BLA BLA BLA BLA BLA BLA BLA BLA BLA 
BLA BLA BLA BLA BLA BLA BLA BLA BLA BLA BLA BLA BLA BLA BLA BLA BLA BLA BLA BLA 
BLA BLA BLA BLA BLA BLA BLA BLA BLA BLA BLA BLA BLA BLA BLA BLA BLA BLA BLA BLA 
BLA BLA BLA BLA BLA BLA BLA BLA BLA BLA BLA BLA BLA BLA BLA BLA BLA BLA BLA BLA 
BLA BLA BLA BLA BLA BLA BLA BLA BLA BLA BLA BLA BLA BLA BLA BLA BLA BLA BLA BLA 
BLA BLA BLA BLA BLA BLA BLA BLA BLA BLA BLA BLA BLA BLA BLA BLA BLA BLA BLA BLA 
BLA BLA BLA BLA BLA BLA BLA BLA BLA BLA BLA BLA BLA BLA BLA BLA BLA BLA BLA BLA 
BLA BLA BLA BLA BLA BLA BLA BLA BLA BLA BLA BLA BLA BLA BLA BLA BLA BLA BLA BLA 
BLA BLA BLA BLA BLA BLA BLA BLA BLA BLA BLA BLA BLA BLA BLA BLA BLA BLA BLA BLA 
BLA BLA BLA BLA BLA BLA BLA BLA BLA BLA BLA BLA BLA BLA BLA BLA BLA BLA BLA BLA 
BLA BLA BLA BLA BLA BLA BLA BLA BLA BLA BLA BLA BLA BLA BLA BLA BLA BLA BLA BLA 
BLA BLA BLA BLA BLA BLA BLA BLA BLA BLA BLA BLA BLA BLA BLA BLA BLA BLA BLA BLA 
BLA BLA BLA BLA BLA BLA BLA BLA BLA BLA BLA BLA BLA BLA BLA BLA BLA BLA BLA BLA 
BLA BLA BLA BLA BLA BLA BLA BLA BLA BLA BLA BLA BLA BLA BLA BLA BLA BLA BLA BLA 
BLA BLA BLA BLA BLA BLA BLA BLA BLA BLA BLA BLA BLA BLA BLA BLA BLA BLA BLA BLA 
BLA BLA BLA BLA BLA BLA BLA BLA BLA BLA BLA BLA BLA BLA BLA BLA BLA BLA BLA BLA 
BLA BLA BLA BLA BLA BLA BLA BLA BLA BLA BLA BLA BLA BLA BLA BLA BLA BLA BLA BLA 
BLA BLA BLA BLA BLA BLA BLA BLA BLA BLA BLA BLA BLA BLA BLA BLA BLA BLA BLA BLA 
BLA BLA BLA BLA BLA BLA BLA BLA BLA BLA BLA BLA BLA BLA BLA BLA BLA BLA BLA BLA 
BLA BLA BLA BLA BLA BLA BLA BLA BLA BLA BLA BLA BLA BLA BLA BLA BLA BLA BLA BLA 
BLA BLA BLA BLA BLA BLA BLA BLA BLA BLA BLA BLA BLA BLA BLA BLA BLA BLA BLA BLA 
BLA BLA BLA BLA BLA BLA BLA BLA BLA BLA BLA BLA BLA BLA BLA BLA BLA BLA BLA BLA 
BLA BLA BLA BLA BLA BLA BLA BLA BLA BLA BLA BLA BLA BLA BLA BLA BLA BLA BLA BLA 
BLA BLA BLA BLA BLA BLA BLA BLA BLA BLA BLA BLA BLA BLA BLA BLA BLA BLA BLA BLA 
BLA BLA BLA BLA BLA BLA BLA BLA BLA BLA BLA BLA BLA BLA BLA BLA BLA BLA BLA BLA 
BLA BLA BLA BLA BLA BLA BLA BLA BLA BLA BLA BLA BLA BLA BLA BLA BLA BLA BLA BLA 
BLA BLA BLA BLA BLA BLA BLA BLA BLA BLA BLA BLA BLA BLA BLA BLA BLA BLA BLA BLA 
BLA BLA BLA BLA BLA BLA BLA BLA BLA BLA BLA BLA BLA BLA BLA BLA BLA BLA BLA BLA 
BLA BLA BLA BLA BLA BLA BLA BLA BLA BLA BLA BLA BLA BLA BLA BLA BLA BLA BLA BLA 
BLA BLA BLA BLA BLA BLA BLA BLA BLA BLA BLA BLA BLA BLA BLA BLA BLA BLA BLA BLA 
BLA BLA BLA BLA BLA BLA BLA BLA BLA BLA BLA BLA BLA BLA BLA BLA BLA BLA BLA BLA 
BLA BLA BLA BLA BLA BLA BLA BLA BLA BLA BLA BLA BLA BLA BLA BLA BLA BLA BLA BLA 
BLA BLA BLA BLA BLA BLA BLA BLA BLA BLA BLA BLA BLA BLA BLA BLA BLA BLA BLA BLA 
BLA BLA BLA BLA BLA BLA BLA BLA BLA BLA BLA BLA BLA BLA BLA BLA BLA BLA BLA BLA 
BLA BLA BLA BLA BLA BLA BLA BLA BLA BLA BLA BLA BLA BLA BLA BLA BLA BLA BLA BLA 
BLA BLA BLA BLA BLA BLA BLA BLA BLA BLA BLA BLA BLA BLA BLA BLA BLA BLA BLA BLA 
BLA BLA BLA BLA BLA BLA BLA BLA BLA BLA BLA BLA BLA BLA BLA BLA BLA BLA BLA BLA 
BLA BLA BLA BLA BLA BLA BLA BLA BLA BLA BLA BLA BLA BLA BLA BLA BLA BLA BLA BLA 
BLA BLA BLA BLA BLA BLA BLA BLA BLA BLA BLA BLA BLA BLA BLA BLA BLA BLA BLA BLA 
BLA BLA BLA BLA BLA BLA BLA BLA BLA BLA BLA BLA BLA BLA BLA BLA BLA BLA BLA BLA 
BLA BLA BLA BLA BLA BLA BLA BLA BLA BLA BLA BLA BLA BLA BLA BLA BLA BLA BLA BLA 
BLA BLA BLA BLA BLA BLA BLA BLA BLA BLA BLA BLA BLA BLA BLA BLA BLA BLA BLA BLA 
BLA BLA BLA BLA BLA BLA BLA BLA BLA BLA BLA BLA BLA BLA BLA BLA BLA BLA BLA BLA 
BLA BLA BLA BLA BLA BLA BLA BLA BLA BLA BLA BLA BLA BLA BLA BLA BLA BLA BLA BLA 
BLA BLA BLA BLA BLA BLA BLA BLA BLA BLA BLA BLA BLA BLA BLA BLA BLA BLA BLA BLA 
BLA BLA BLA BLA BLA BLA BLA BLA BLA BLA BLA BLA BLA BLA BLA BLA BLA BLA BLA BLA 
BLA BLA BLA BLA BLA BLA BLA BLA BLA BLA BLA BLA BLA BLA BLA BLA BLA BLA BLA BLA 
BLA BLA BLA BLA BLA BLA BLA BLA BLA BLA BLA BLA BLA BLA BLA BLA BLA BLA BLA BLA 
BLA BLA BLA BLA BLA BLA BLA BLA BLA BLA BLA BLA BLA BLA BLA BLA BLA BLA BLA BLA 
BLA BLA BLA BLA BLA BLA BLA BLA BLA BLA BLA BLA BLA BLA BLA BLA BLA BLA BLA BLA 
BLA BLA BLA BLA BLA BLA BLA BLA BLA BLA BLA BLA BLA BLA BLA BLA BLA BLA BLA BLA 
BLA BLA BLA BLA BLA BLA BLA BLA BLA BLA BLA BLA BLA BLA BLA BLA BLA BLA BLA BLA 
BLA BLA BLA BLA BLA BLA BLA BLA BLA BLA BLA BLA BLA BLA BLA BLA BLA BLA BLA BLA 
BLA BLA BLA BLA BLA BLA BLA BLA BLA BLA BLA BLA BLA BLA BLA BLA BLA BLA BLA BLA 
BLA BLA BLA BLA BLA BLA BLA BLA BLA BLA BLA BLA BLA BLA BLA BLA BLA BLA BLA BLA 
BLA BLA BLA BLA BLA BLA BLA BLA BLA BLA BLA BLA BLA BLA BLA BLA BLA BLA BLA BLA 
BLA BLA BLA BLA BLA BLA BLA BLA BLA BLA BLA BLA BLA BLA BLA BLA BLA BLA BLA BLA 
BLA BLA BLA BLA BLA BLA BLA BLA BLA BLA BLA BLA BLA BLA BLA BLA BLA BLA BLA BLA 
BLA BLA BLA BLA BLA BLA BLA BLA BLA BLA BLA BLA BLA BLA BLA BLA BLA BLA BLA BLA 
BLA BLA BLA BLA BLA BLA BLA BLA BLA BLA BLA BLA BLA BLA BLA BLA BLA BLA BLA BLA 
BLA BLA BLA BLA BLA BLA BLA BLA BLA BLA BLA BLA BLA BLA BLA BLA BLA BLA BLA BLA 
BLA BLA BLA BLA BLA BLA BLA BLA BLA BLA BLA BLA BLA BLA BLA BLA BLA BLA BLA BLA 
BLA BLA BLA BLA BLA BLA BLA BLA BLA BLA BLA BLA BLA BLA BLA BLA BLA BLA BLA BLA 
BLA BLA BLA BLA BLA BLA BLA BLA BLA BLA BLA BLA BLA BLA BLA BLA BLA BLA BLA BLA 
BLA BLA BLA BLA BLA BLA BLA BLA BLA BLA BLA BLA BLA BLA BLA BLA BLA BLA BLA BLA 
BLA BLA BLA BLA BLA BLA BLA BLA BLA BLA BLA BLA BLA BLA BLA BLA BLA BLA BLA BLA 
BLA BLA BLA BLA BLA BLA BLA BLA BLA BLA BLA BLA BLA BLA BLA BLA BLA BLA BLA BLA 
BLA BLA BLA BLA BLA BLA BLA BLA BLA BLA BLA BLA BLA BLA BLA BLA BLA BLA BLA BLA 
BLA BLA BLA BLA BLA BLA BLA BLA BLA BLA BLA BLA BLA BLA BLA BLA BLA BLA BLA BLA 
BLA BLA BLA BLA BLA BLA BLA BLA BLA BLA BLA BLA BLA BLA BLA BLA BLA BLA BLA BLA 
BLA BLA BLA BLA BLA BLA BLA BLA BLA BLA BLA BLA BLA BLA BLA BLA BLA BLA BLA BLA 
BLA BLA BLA BLA BLA BLA BLA BLA BLA BLA BLA BLA BLA BLA BLA BLA BLA BLA BLA BLA 
BLA BLA BLA BLA BLA BLA BLA BLA BLA BLA BLA BLA BLA BLA BLA BLA BLA BLA BLA BLA 
BLA BLA BLA BLA BLA BLA BLA BLA BLA BLA BLA BLA BLA BLA BLA BLA BLA BLA BLA BLA 
BLA BLA BLA BLA BLA BLA BLA BLA BLA BLA BLA BLA BLA BLA BLA BLA BLA BLA BLA BLA 
BLA BLA BLA BLA BLA BLA BLA BLA BLA BLA BLA BLA BLA BLA BLA BLA BLA BLA BLA BLA 
BLA BLA BLA BLA BLA BLA BLA BLA BLA BLA BLA BLA BLA BLA BLA BLA BLA BLA BLA BLA 
BLA BLA BLA BLA BLA BLA BLA BLA BLA BLA BLA BLA BLA BLA BLA BLA BLA BLA BLA BLA 
BLA BLA BLA BLA BLA BLA BLA BLA BLA BLA BLA BLA BLA BLA BLA BLA BLA BLA BLA BLA 
BLA BLA BLA BLA BLA BLA BLA BLA BLA BLA BLA BLA BLA BLA BLA BLA BLA BLA BLA BLA 
BLA BLA BLA BLA BLA BLA BLA BLA BLA BLA BLA BLA BLA BLA BLA BLA BLA BLA BLA BLA 
BLA BLA BLA BLA BLA BLA BLA BLA BLA BLA BLA BLA BLA BLA BLA BLA BLA BLA BLA BLA 
BLA BLA BLA BLA BLA BLA BLA BLA BLA BLA BLA BLA BLA BLA BLA BLA BLA BLA BLA BLA 
BLA BLA BLA BLA BLA BLA BLA BLA BLA BLA BLA BLA BLA BLA BLA BLA BLA BLA BLA BLA 
BLA BLA BLA BLA BLA BLA BLA BLA BLA BLA BLA BLA BLA BLA BLA BLA BLA BLA BLA BLA 
BLA BLA BLA BLA BLA BLA BLA BLA BLA BLA BLA BLA BLA BLA BLA BLA BLA BLA BLA BLA 
BLA BLA BLA BLA BLA BLA BLA BLA BLA BLA BLA BLA BLA BLA BLA BLA BLA BLA BLA BLA 
BLA BLA BLA BLA BLA BLA BLA BLA BLA BLA BLA BLA BLA BLA BLA BLA BLA BLA BLA BLA 
BLA BLA BLA BLA BLA BLA BLA BLA BLA BLA BLA BLA BLA BLA BLA BLA BLA BLA BLA BLA 
BLA BLA BLA BLA BLA BLA BLA BLA BLA BLA BLA BLA BLA BLA BLA BLA BLA BLA BLA BLA 
BLA BLA BLA BLA BLA BLA BLA BLA BLA BLA BLA BLA BLA BLA BLA BLA BLA BLA BLA BLA 
BLA BLA BLA BLA BLA BLA BLA BLA BLA BLA BLA BLA BLA BLA BLA BLA BLA BLA BLA BLA 
BLA BLA BLA BLA BLA BLA BLA BLA BLA BLA BLA BLA BLA BLA BLA BLA BLA BLA BLA BLA 
BLA BLA BLA BLA BLA BLA BLA BLA BLA BLA BLA BLA BLA BLA BLA BLA BLA BLA BLA BLA 
BLA BLA BLA BLA BLA BLA BLA BLA BLA BLA BLA BLA BLA BLA BLA BLA BLA BLA BLA BLA 
BLA BLA BLA BLA BLA BLA BLA BLA BLA BLA BLA BLA BLA BLA BLA BLA BLA BLA BLA BLA 
BLA BLA BLA BLA BLA BLA BLA BLA BLA BLA BLA BLA BLA BLA BLA BLA BLA BLA BLA BLA 
BLA BLA BLA BLA BLA BLA BLA BLA BLA BLA BLA BLA BLA BLA BLA BLA BLA BLA BLA BLA 
BLA BLA BLA BLA BLA BLA BLA BLA BLA BLA BLA BLA BLA BLA BLA BLA BLA BLA BLA BLA 
BLA BLA BLA BLA BLA BLA BLA BLA BLA BLA BLA BLA BLA BLA BLA BLA BLA BLA BLA BLA 
BLA BLA BLA BLA BLA BLA BLA BLA BLA BLA BLA BLA BLA BLA BLA BLA BLA BLA BLA BLA 
BLA BLA BLA BLA BLA BLA BLA BLA BLA BLA BLA BLA BLA BLA BLA BLA BLA BLA BLA BLA 
BLA BLA BLA BLA BLA BLA BLA BLA BLA BLA BLA BLA BLA BLA BLA BLA BLA BLA BLA BLA 
BLA BLA BLA BLA BLA BLA BLA BLA BLA BLA BLA BLA BLA BLA BLA BLA BLA BLA BLA BLA 
BLA BLA BLA BLA BLA BLA BLA BLA BLA BLA BLA BLA BLA BLA BLA BLA BLA BLA BLA BLA 
BLA BLA BLA BLA BLA BLA BLA BLA BLA BLA BLA BLA BLA BLA BLA BLA BLA BLA BLA BLA 
BLA BLA BLA BLA BLA BLA BLA BLA BLA BLA BLA BLA BLA BLA BLA BLA BLA BLA BLA BLA 
BLA BLA BLA BLA BLA BLA BLA BLA BLA BLA BLA BLA BLA BLA BLA BLA BLA BLA BLA BLA 
BLA BLA BLA BLA BLA BLA BLA BLA BLA BLA BLA BLA BLA BLA BLA BLA BLA BLA BLA BLA 
BLA BLA BLA BLA BLA BLA BLA BLA BLA BLA BLA BLA BLA BLA BLA BLA BLA BLA BLA BLA 
BLA BLA BLA BLA BLA BLA BLA BLA BLA BLA BLA BLA BLA BLA BLA BLA BLA BLA BLA BLA 
BLA BLA BLA BLA BLA BLA BLA BLA BLA BLA BLA BLA BLA BLA BLA BLA BLA BLA BLA BLA 
BLA BLA BLA BLA BLA BLA BLA BLA BLA BLA BLA BLA BLA BLA BLA BLA BLA BLA BLA BLA 
BLA BLA BLA BLA BLA BLA BLA BLA BLA BLA BLA BLA BLA BLA BLA BLA BLA BLA BLA BLA 
BLA BLA BLA BLA BLA BLA BLA BLA BLA BLA BLA BLA BLA BLA BLA BLA BLA BLA BLA BLA 
BLA BLA BLA BLA BLA BLA BLA BLA BLA BLA BLA BLA BLA BLA BLA BLA BLA BLA BLA BLA 
BLA BLA BLA BLA BLA BLA BLA BLA BLA BLA BLA BLA BLA BLA BLA BLA BLA BLA BLA BLA 
BLA BLA BLA BLA BLA BLA BLA BLA BLA BLA BLA BLA BLA BLA BLA BLA BLA BLA BLA BLA 
BLA BLA BLA BLA BLA BLA BLA BLA BLA BLA BLA BLA BLA BLA BLA BLA BLA BLA BLA BLA 
BLA BLA BLA BLA BLA BLA BLA BLA BLA BLA BLA BLA BLA BLA BLA BLA BLA BLA BLA BLA 
BLA BLA BLA BLA BLA BLA BLA BLA BLA BLA BLA BLA BLA BLA BLA BLA BLA BLA BLA BLA 
BLA BLA BLA BLA BLA BLA BLA BLA BLA BLA BLA BLA BLA BLA BLA BLA BLA BLA BLA BLA 
BLA BLA BLA BLA BLA BLA BLA BLA BLA BLA BLA BLA BLA BLA BLA BLA BLA BLA BLA BLA 
BLA BLA BLA BLA BLA BLA BLA BLA BLA BLA BLA BLA BLA BLA BLA BLA BLA BLA BLA BLA 
BLA BLA BLA BLA BLA BLA BLA BLA BLA BLA BLA BLA BLA BLA BLA BLA BLA BLA BLA BLA 
BLA BLA BLA BLA BLA BLA BLA BLA BLA BLA BLA BLA BLA BLA BLA BLA BLA BLA BLA BLA 
BLA BLA BLA BLA BLA BLA BLA BLA BLA BLA BLA BLA BLA BLA BLA BLA BLA BLA BLA BLA 
BLA BLA BLA BLA BLA BLA BLA BLA BLA BLA BLA BLA BLA BLA BLA BLA BLA BLA BLA BLA 
BLA BLA BLA BLA BLA BLA BLA BLA BLA BLA BLA BLA BLA BLA BLA BLA BLA BLA BLA BLA 
BLA BLA BLA BLA BLA BLA BLA BLA BLA BLA BLA BLA BLA BLA BLA BLA BLA BLA BLA BLA 
BLA BLA BLA BLA BLA BLA BLA BLA BLA BLA BLA BLA BLA BLA BLA BLA BLA BLA BLA BLA 
BLA BLA BLA BLA BLA BLA BLA BLA BLA BLA BLA BLA BLA BLA BLA BLA BLA BLA BLA BLA 
BLA BLA BLA BLA BLA BLA BLA BLA BLA BLA BLA BLA BLA BLA BLA BLA BLA BLA BLA BLA 
BLA BLA BLA BLA BLA BLA BLA BLA BLA BLA BLA BLA BLA BLA BLA BLA BLA BLA BLA BLA 
BLA BLA BLA BLA BLA BLA BLA BLA BLA BLA BLA BLA BLA BLA BLA BLA BLA BLA BLA BLA 
BLA BLA BLA BLA BLA BLA BLA BLA BLA BLA BLA BLA BLA BLA BLA BLA BLA BLA BLA BLA 
BLA BLA BLA BLA BLA BLA BLA BLA BLA BLA BLA BLA BLA BLA BLA BLA BLA BLA BLA BLA 
BLA BLA BLA BLA BLA BLA BLA BLA BLA BLA BLA BLA BLA BLA BLA BLA BLA BLA BLA BLA 
BLA BLA BLA BLA BLA BLA BLA BLA BLA BLA BLA BLA BLA BLA BLA BLA BLA BLA BLA BLA 
BLA BLA BLA BLA BLA BLA BLA BLA BLA BLA BLA BLA BLA BLA BLA BLA BLA BLA BLA BLA 
BLA BLA BLA BLA BLA BLA BLA BLA BLA BLA BLA BLA BLA BLA BLA BLA BLA BLA BLA BLA 
BLA BLA BLA BLA BLA BLA BLA BLA BLA BLA BLA BLA BLA BLA BLA BLA BLA BLA BLA BLA 
BLA BLA BLA BLA BLA BLA BLA BLA BLA BLA BLA BLA BLA BLA BLA BLA BLA BLA BLA BLA 
BLA BLA BLA BLA BLA BLA BLA BLA BLA BLA BLA BLA BLA BLA BLA BLA BLA BLA BLA BLA 
BLA BLA BLA BLA BLA BLA BLA BLA BLA BLA BLA BLA BLA BLA BLA BLA BLA BLA BLA BLA 
BLA BLA BLA BLA BLA BLA BLA BLA BLA BLA BLA BLA BLA BLA BLA BLA BLA BLA BLA BLA 
BLA BLA BLA BLA BLA BLA BLA BLA BLA BLA BLA BLA BLA BLA BLA BLA BLA BLA BLA BLA 
BLA BLA BLA BLA BLA BLA BLA BLA BLA BLA BLA BLA BLA BLA BLA BLA BLA BLA BLA BLA 
BLA BLA BLA BLA BLA BLA BLA BLA BLA BLA BLA BLA BLA BLA BLA BLA BLA BLA BLA BLA 
BLA BLA BLA BLA BLA BLA BLA BLA BLA BLA BLA BLA BLA BLA BLA BLA BLA BLA BLA BLA 
BLA BLA BLA BLA BLA BLA BLA BLA BLA BLA BLA BLA BLA BLA BLA BLA BLA BLA BLA BLA 
BLA BLA BLA BLA BLA BLA BLA BLA BLA BLA BLA BLA BLA BLA BLA BLA BLA BLA BLA BLA 
BLA BLA BLA BLA BLA BLA BLA BLA BLA BLA BLA BLA BLA BLA BLA BLA BLA BLA BLA BLA 
BLA BLA BLA BLA BLA BLA BLA BLA BLA BLA BLA BLA BLA BLA BLA BLA BLA BLA BLA BLA 
BLA BLA BLA BLA BLA BLA BLA BLA BLA BLA BLA BLA BLA BLA BLA BLA BLA BLA BLA BLA 
BLA BLA BLA BLA BLA BLA BLA BLA BLA BLA BLA BLA BLA BLA BLA BLA BLA BLA BLA BLA 
BLA BLA BLA BLA BLA BLA BLA BLA BLA BLA BLA BLA BLA BLA BLA BLA BLA BLA BLA BLA 
BLA BLA BLA BLA BLA BLA BLA BLA BLA BLA BLA BLA BLA BLA BLA BLA BLA BLA BLA BLA 
BLA BLA BLA BLA BLA BLA BLA BLA BLA BLA BLA BLA BLA BLA BLA BLA BLA BLA BLA BLA 
BLA BLA BLA BLA BLA BLA BLA BLA BLA BLA BLA BLA BLA BLA BLA BLA BLA BLA BLA BLA 
BLA BLA BLA BLA BLA BLA BLA BLA BLA BLA BLA BLA BLA BLA BLA BLA BLA BLA BLA BLA 
BLA BLA BLA BLA BLA BLA BLA BLA BLA BLA BLA BLA BLA BLA BLA BLA BLA BLA BLA BLA 
BLA BLA BLA BLA BLA BLA BLA BLA BLA BLA BLA BLA BLA BLA BLA BLA BLA BLA BLA BLA 
BLA BLA BLA BLA BLA BLA BLA BLA BLA BLA BLA BLA BLA BLA BLA BLA BLA BLA BLA BLA 
BLA BLA BLA BLA BLA BLA BLA BLA BLA BLA BLA BLA BLA BLA BLA BLA BLA BLA BLA BLA 
BLA BLA BLA BLA BLA BLA BLA BLA BLA BLA BLA BLA BLA BLA BLA BLA BLA BLA BLA BLA 
BLA BLA BLA BLA BLA BLA BLA BLA BLA BLA BLA BLA BLA BLA BLA BLA BLA BLA BLA BLA 
BLA BLA BLA BLA BLA BLA BLA BLA BLA BLA BLA BLA BLA BLA BLA BLA BLA BLA BLA BLA 
BLA BLA BLA BLA BLA BLA BLA BLA BLA BLA BLA BLA BLA BLA BLA BLA BLA BLA BLA BLA 
BLA BLA BLA BLA BLA BLA BLA BLA BLA BLA BLA BLA BLA BLA BLA BLA BLA BLA BLA BLA 
BLA BLA BLA BLA BLA BLA BLA BLA BLA BLA BLA BLA BLA BLA BLA BLA BLA BLA BLA BLA 
BLA BLA BLA BLA BLA BLA BLA BLA BLA BLA BLA BLA BLA BLA BLA BLA BLA BLA BLA BLA 
BLA BLA BLA BLA BLA BLA BLA BLA BLA BLA BLA BLA BLA BLA BLA BLA BLA BLA BLA BLA 
BLA BLA BLA BLA BLA BLA BLA BLA BLA BLA BLA BLA BLA BLA BLA BLA BLA BLA BLA BLA 
BLA BLA BLA BLA BLA BLA BLA BLA BLA BLA BLA BLA BLA BLA BLA BLA BLA BLA BLA BLA 
BLA BLA BLA BLA BLA BLA BLA BLA BLA BLA BLA BLA BLA BLA BLA BLA BLA BLA BLA BLA 
BLA BLA BLA BLA BLA BLA BLA BLA BLA BLA BLA BLA BLA BLA BLA BLA BLA BLA BLA BLA 
BLA BLA BLA BLA BLA BLA BLA BLA BLA BLA BLA BLA BLA BLA BLA BLA BLA BLA BLA BLA 
BLA BLA BLA BLA BLA BLA BLA BLA BLA BLA BLA BLA BLA BLA BLA BLA BLA BLA BLA BLA 
BLA BLA BLA BLA BLA BLA BLA BLA BLA BLA BLA BLA BLA BLA BLA BLA BLA BLA BLA BLA 
BLA BLA BLA BLA BLA BLA BLA BLA BLA BLA BLA BLA BLA BLA BLA BLA BLA BLA BLA BLA 
BLA BLA BLA BLA BLA BLA BLA BLA BLA BLA BLA BLA BLA BLA BLA BLA BLA BLA BLA BLA 
BLA BLA BLA BLA BLA BLA BLA BLA BLA BLA BLA BLA BLA BLA BLA BLA BLA BLA BLA BLA 
BLA BLA BLA BLA BLA BLA BLA BLA BLA BLA BLA BLA BLA BLA BLA BLA BLA BLA BLA BLA 
BLA BLA BLA BLA BLA BLA BLA BLA BLA BLA BLA BLA BLA BLA BLA BLA BLA BLA BLA BLA 
BLA BLA BLA BLA BLA BLA BLA BLA BLA BLA BLA BLA BLA BLA BLA BLA BLA BLA BLA BLA 
BLA BLA BLA BLA BLA BLA BLA BLA BLA BLA BLA BLA BLA BLA BLA BLA BLA BLA BLA BLA 
BLA BLA BLA BLA BLA BLA BLA BLA BLA BLA BLA BLA BLA BLA BLA BLA BLA BLA BLA BLA 
BLA BLA BLA BLA BLA BLA BLA BLA BLA BLA BLA BLA BLA BLA BLA BLA BLA BLA BLA BLA 
BLA BLA BLA BLA BLA BLA BLA BLA BLA BLA BLA BLA BLA BLA BLA BLA BLA BLA BLA BLA 
BLA BLA BLA BLA BLA BLA BLA BLA BLA BLA BLA BLA BLA BLA BLA BLA BLA BLA BLA BLA 
BLA BLA BLA BLA BLA BLA BLA BLA BLA BLA BLA BLA BLA BLA BLA BLA BLA BLA BLA BLA 
BLA BLA BLA BLA BLA BLA BLA BLA BLA BLA BLA BLA BLA BLA BLA BLA BLA BLA BLA BLA 
BLA BLA BLA BLA BLA BLA BLA BLA BLA BLA BLA BLA BLA BLA BLA BLA BLA BLA BLA BLA 
BLA BLA BLA BLA BLA BLA BLA BLA BLA BLA BLA BLA BLA BLA BLA BLA BLA BLA BLA BLA 
BLA BLA BLA BLA BLA BLA BLA BLA BLA BLA BLA BLA BLA BLA BLA BLA BLA BLA BLA BLA 
BLA BLA BLA BLA BLA BLA BLA BLA BLA BLA BLA BLA BLA BLA BLA BLA BLA BLA BLA BLA 
BLA BLA BLA BLA BLA BLA BLA BLA BLA BLA BLA BLA BLA BLA BLA BLA BLA BLA BLA BLA 
BLA BLA BLA BLA BLA BLA BLA BLA BLA BLA BLA BLA BLA BLA BLA BLA BLA BLA BLA BLA 
BLA BLA BLA BLA BLA BLA BLA BLA BLA BLA BLA BLA BLA BLA BLA BLA BLA BLA BLA BLA 
BLA BLA BLA BLA BLA BLA BLA BLA BLA BLA BLA BLA BLA BLA BLA BLA BLA BLA BLA BLA 
BLA BLA BLA BLA BLA BLA BLA BLA BLA BLA BLA BLA BLA BLA BLA BLA BLA BLA BLA BLA 
BLA BLA BLA BLA BLA BLA BLA BLA BLA BLA BLA BLA BLA BLA BLA BLA BLA BLA BLA BLA 
BLA BLA BLA BLA BLA BLA BLA BLA BLA BLA BLA BLA BLA BLA BLA BLA BLA BLA BLA BLA 
BLA BLA BLA BLA BLA BLA BLA BLA BLA BLA BLA BLA BLA BLA BLA BLA BLA BLA BLA BLA 
BLA BLA BLA BLA BLA BLA BLA BLA BLA BLA BLA BLA BLA BLA BLA BLA BLA BLA BLA BLA 
BLA BLA BLA BLA BLA BLA BLA BLA BLA BLA BLA BLA BLA BLA BLA BLA BLA BLA BLA BLA 
BLA BLA BLA BLA BLA BLA BLA BLA BLA BLA BLA BLA BLA BLA BLA BLA BLA BLA BLA BLA 
BLA BLA BLA BLA BLA BLA BLA BLA BLA BLA BLA BLA BLA BLA BLA BLA BLA BLA BLA BLA 
BLA BLA BLA BLA BLA BLA BLA BLA BLA BLA BLA BLA BLA BLA BLA BLA BLA BLA BLA BLA 
BLA BLA BLA BLA BLA BLA BLA BLA BLA BLA BLA BLA BLA BLA BLA BLA BLA BLA BLA BLA 
BLA BLA BLA BLA BLA BLA BLA BLA BLA BLA BLA BLA BLA BLA BLA BLA BLA BLA BLA BLA 
BLA BLA BLA BLA BLA BLA BLA BLA BLA BLA BLA BLA BLA BLA BLA BLA BLA BLA BLA BLA 
BLA BLA BLA BLA BLA BLA BLA BLA BLA BLA BLA BLA BLA BLA BLA BLA BLA BLA BLA BLA 
BLA BLA BLA BLA BLA BLA BLA BLA BLA BLA BLA BLA BLA BLA BLA BLA BLA BLA BLA BLA 
BLA BLA BLA BLA BLA BLA BLA BLA BLA BLA BLA BLA BLA BLA BLA BLA BLA BLA BLA BLA 
BLA BLA BLA BLA BLA BLA BLA BLA BLA BLA BLA BLA BLA BLA BLA BLA BLA BLA BLA BLA 
BLA BLA BLA BLA BLA BLA BLA BLA BLA BLA BLA BLA BLA BLA BLA BLA BLA BLA BLA BLA 
BLA BLA BLA BLA BLA BLA BLA BLA BLA BLA BLA BLA BLA BLA BLA BLA BLA BLA BLA BLA 
BLA BLA BLA BLA BLA BLA BLA BLA BLA BLA BLA BLA BLA BLA BLA BLA BLA BLA BLA BLA 
BLA BLA BLA BLA BLA BLA BLA BLA BLA BLA BLA BLA BLA BLA BLA BLA BLA BLA BLA BLA 
BLA BLA BLA BLA BLA BLA BLA BLA BLA BLA BLA BLA BLA BLA BLA BLA BLA BLA BLA BLA 
BLA BLA BLA BLA BLA BLA BLA BLA BLA BLA BLA BLA BLA BLA BLA BLA BLA BLA BLA BLA 
BLA BLA BLA BLA BLA BLA BLA BLA BLA BLA BLA BLA BLA BLA BLA BLA BLA BLA BLA BLA 
BLA BLA BLA BLA BLA BLA BLA BLA BLA BLA BLA BLA BLA BLA BLA BLA BLA BLA BLA BLA 
BLA BLA BLA BLA BLA BLA BLA BLA BLA BLA BLA BLA BLA BLA BLA BLA BLA BLA BLA BLA 
BLA BLA BLA BLA BLA BLA BLA BLA BLA BLA BLA BLA BLA BLA BLA BLA BLA BLA BLA BLA 
BLA BLA BLA BLA BLA BLA BLA BLA BLA BLA BLA BLA BLA BLA BLA BLA BLA BLA BLA BLA 
BLA BLA BLA BLA BLA BLA BLA BLA BLA BLA BLA BLA BLA BLA BLA BLA BLA BLA BLA BLA 
BLA BLA BLA BLA BLA BLA BLA BLA BLA BLA BLA BLA BLA BLA BLA BLA BLA BLA BLA BLA 
BLA BLA BLA BLA BLA BLA BLA BLA BLA BLA BLA BLA BLA BLA BLA BLA BLA BLA BLA BLA 
BLA BLA BLA BLA BLA BLA BLA BLA BLA BLA BLA BLA BLA BLA BLA BLA BLA BLA BLA BLA 
BLA BLA BLA BLA BLA BLA BLA BLA BLA BLA BLA BLA BLA BLA BLA BLA BLA BLA BLA BLA 
BLA BLA BLA BLA BLA BLA BLA BLA BLA BLA BLA BLA BLA BLA BLA BLA BLA BLA BLA BLA 
BLA BLA BLA BLA BLA BLA BLA BLA BLA BLA BLA BLA BLA BLA BLA BLA BLA BLA BLA BLA 
BLA BLA BLA BLA BLA BLA BLA BLA BLA BLA BLA BLA BLA BLA BLA BLA BLA BLA BLA BLA 
BLA BLA BLA BLA BLA BLA BLA BLA BLA BLA BLA BLA BLA BLA BLA BLA BLA BLA BLA BLA 
BLA BLA BLA BLA BLA BLA BLA BLA BLA BLA BLA BLA BLA BLA BLA BLA BLA BLA BLA BLA 
BLA BLA BLA BLA BLA BLA BLA BLA BLA BLA BLA BLA BLA BLA BLA BLA BLA BLA BLA BLA 
BLA BLA BLA BLA BLA BLA BLA BLA BLA BLA BLA BLA BLA BLA BLA BLA BLA BLA BLA BLA 
BLA BLA BLA BLA BLA BLA BLA BLA BLA BLA BLA BLA BLA BLA BLA BLA BLA BLA BLA BLA 
BLA BLA BLA BLA BLA BLA BLA BLA BLA BLA BLA BLA BLA BLA BLA BLA BLA BLA BLA BLA 
BLA BLA BLA BLA BLA BLA BLA BLA BLA BLA BLA BLA BLA BLA BLA BLA BLA BLA BLA BLA 
BLA BLA BLA BLA BLA BLA BLA BLA BLA BLA BLA BLA BLA BLA BLA BLA BLA BLA BLA BLA 
BLA BLA BLA BLA BLA BLA BLA BLA BLA BLA BLA BLA BLA BLA BLA BLA BLA BLA BLA BLA 
BLA BLA BLA BLA BLA BLA BLA BLA BLA BLA BLA BLA BLA BLA BLA BLA BLA BLA BLA BLA 
BLA BLA BLA BLA BLA BLA BLA BLA BLA BLA BLA BLA BLA BLA BLA BLA BLA BLA BLA BLA 
BLA BLA BLA BLA BLA BLA BLA BLA BLA BLA BLA BLA BLA BLA BLA BLA BLA BLA BLA BLA 
BLA BLA BLA BLA BLA BLA BLA BLA BLA BLA BLA BLA BLA BLA BLA BLA BLA BLA BLA BLA 
BLA BLA BLA BLA BLA BLA BLA BLA BLA BLA BLA BLA BLA BLA BLA BLA BLA BLA BLA BLA 
BLA BLA BLA BLA BLA BLA BLA BLA BLA BLA BLA BLA BLA BLA BLA BLA BLA BLA BLA BLA 
BLA BLA BLA BLA BLA BLA BLA BLA BLA BLA BLA BLA BLA BLA BLA BLA BLA BLA BLA BLA 
BLA BLA BLA BLA BLA BLA BLA BLA BLA BLA BLA BLA BLA BLA BLA BLA BLA BLA BLA BLA 
BLA BLA BLA BLA BLA BLA BLA BLA BLA BLA BLA BLA BLA BLA BLA BLA BLA BLA BLA BLA 
BLA BLA BLA BLA BLA BLA BLA BLA BLA BLA BLA BLA BLA BLA BLA BLA BLA BLA BLA BLA 
BLA BLA BLA BLA BLA BLA BLA BLA BLA BLA BLA BLA BLA BLA BLA BLA BLA BLA BLA BLA 
BLA BLA BLA BLA BLA BLA BLA BLA BLA BLA BLA BLA BLA BLA BLA BLA BLA BLA BLA BLA 
BLA BLA BLA BLA BLA BLA BLA BLA BLA BLA BLA BLA BLA BLA BLA BLA BLA BLA BLA BLA 
BLA BLA BLA BLA BLA BLA BLA BLA BLA BLA BLA BLA BLA BLA BLA BLA BLA BLA BLA BLA 
BLA BLA BLA BLA BLA BLA BLA BLA BLA BLA BLA BLA BLA BLA BLA BLA BLA BLA BLA BLA 
BLA BLA BLA BLA BLA BLA BLA BLA BLA BLA BLA BLA BLA BLA BLA BLA BLA BLA BLA BLA 
BLA BLA BLA BLA BLA BLA BLA BLA BLA BLA BLA BLA BLA BLA BLA BLA BLA BLA BLA BLA 
BLA BLA BLA BLA BLA BLA BLA BLA BLA BLA BLA BLA BLA BLA BLA BLA BLA BLA BLA BLA 
BLA BLA BLA BLA BLA BLA BLA BLA BLA BLA BLA BLA BLA BLA BLA BLA BLA BLA BLA BLA 
BLA BLA BLA BLA BLA BLA BLA BLA BLA BLA BLA BLA BLA BLA BLA BLA BLA BLA BLA BLA 
BLA BLA BLA BLA BLA BLA BLA BLA BLA BLA BLA BLA BLA BLA BLA BLA BLA BLA BLA BLA 
BLA BLA BLA BLA BLA BLA BLA BLA BLA BLA BLA BLA BLA BLA BLA BLA BLA BLA BLA BLA 
BLA BLA BLA BLA BLA BLA BLA BLA BLA BLA BLA BLA BLA BLA BLA BLA BLA BLA BLA BLA 
BLA BLA BLA BLA BLA BLA BLA BLA BLA BLA BLA BLA BLA BLA BLA BLA BLA BLA BLA BLA 
BLA BLA BLA BLA BLA BLA BLA BLA BLA BLA BLA BLA BLA BLA BLA BLA BLA BLA BLA BLA 
BLA BLA BLA BLA BLA BLA BLA BLA BLA BLA BLA BLA BLA BLA BLA BLA BLA BLA BLA BLA 
BLA BLA BLA BLA BLA BLA BLA BLA BLA BLA BLA BLA BLA BLA BLA BLA BLA BLA BLA BLA 
BLA BLA BLA BLA BLA BLA BLA BLA BLA BLA BLA BLA BLA BLA BLA BLA BLA BLA BLA BLA 
BLA BLA BLA BLA BLA BLA BLA BLA BLA BLA BLA BLA BLA BLA BLA BLA BLA BLA BLA BLA 
BLA BLA BLA BLA BLA BLA BLA BLA BLA BLA BLA BLA BLA BLA BLA BLA BLA BLA BLA BLA 
BLA BLA BLA BLA BLA BLA BLA BLA BLA BLA BLA BLA BLA BLA BLA BLA BLA BLA BLA BLA 
BLA BLA BLA BLA BLA BLA BLA BLA BLA BLA BLA BLA BLA BLA BLA BLA BLA BLA BLA BLA 
BLA BLA BLA BLA BLA BLA BLA BLA BLA BLA BLA BLA BLA BLA BLA BLA BLA BLA BLA BLA 
BLA BLA BLA BLA BLA BLA BLA BLA BLA BLA BLA BLA BLA BLA BLA BLA BLA BLA BLA BLA 
BLA BLA BLA BLA BLA BLA BLA BLA BLA BLA BLA BLA BLA BLA BLA BLA BLA BLA BLA BLA 
BLA BLA BLA BLA BLA BLA BLA BLA BLA BLA BLA BLA BLA BLA BLA BLA BLA BLA BLA BLA 
BLA BLA BLA BLA BLA BLA BLA BLA BLA BLA BLA BLA BLA BLA BLA BLA BLA BLA BLA BLA 
BLA BLA BLA BLA BLA BLA BLA BLA BLA BLA BLA BLA BLA BLA BLA BLA BLA BLA BLA BLA 
BLA BLA BLA BLA BLA BLA BLA BLA BLA BLA BLA BLA BLA BLA BLA BLA BLA BLA BLA BLA 
BLA BLA BLA BLA BLA BLA BLA BLA BLA BLA BLA BLA BLA BLA BLA BLA BLA BLA BLA BLA 
BLA BLA BLA BLA BLA BLA BLA BLA BLA BLA BLA BLA BLA BLA BLA BLA BLA BLA BLA BLA 
BLA BLA BLA BLA BLA BLA BLA BLA BLA BLA BLA BLA BLA BLA BLA BLA BLA BLA BLA BLA 
BLA BLA BLA BLA BLA BLA BLA BLA BLA BLA BLA BLA BLA BLA BLA BLA BLA BLA BLA BLA 
BLA BLA BLA BLA BLA BLA BLA BLA BLA BLA BLA BLA BLA BLA BLA BLA BLA BLA BLA BLA 
BLA BLA BLA BLA BLA BLA BLA BLA BLA BLA BLA BLA BLA BLA BLA BLA BLA BLA BLA BLA 
BLA BLA BLA BLA BLA BLA BLA BLA BLA BLA BLA BLA BLA BLA BLA BLA BLA BLA BLA BLA 
BLA BLA BLA BLA BLA BLA BLA BLA BLA BLA BLA BLA BLA BLA BLA BLA BLA BLA BLA BLA 
BLA BLA BLA BLA BLA BLA BLA BLA BLA BLA BLA BLA BLA BLA BLA BLA BLA BLA BLA BLA 
BLA BLA BLA BLA BLA BLA BLA BLA BLA BLA BLA BLA BLA BLA BLA BLA BLA BLA BLA BLA 
BLA BLA BLA BLA BLA BLA BLA BLA BLA BLA BLA BLA BLA BLA BLA BLA BLA BLA BLA BLA 
BLA BLA BLA BLA BLA BLA BLA BLA BLA BLA BLA BLA BLA BLA BLA BLA BLA BLA BLA BLA 
BLA BLA BLA BLA BLA BLA BLA BLA BLA BLA BLA BLA BLA BLA BLA BLA BLA BLA BLA BLA 
BLA BLA BLA BLA BLA BLA BLA BLA BLA BLA BLA BLA BLA BLA BLA BLA BLA BLA BLA BLA 
BLA BLA BLA BLA BLA BLA BLA BLA BLA BLA BLA BLA BLA BLA BLA BLA BLA BLA BLA BLA 
BLA BLA BLA BLA BLA BLA BLA BLA BLA BLA BLA BLA BLA BLA BLA BLA BLA BLA BLA BLA 
BLA BLA BLA BLA BLA BLA BLA BLA BLA BLA BLA BLA BLA BLA BLA BLA BLA BLA BLA BLA 
BLA BLA BLA BLA BLA BLA BLA BLA BLA BLA BLA BLA BLA BLA BLA BLA BLA BLA BLA BLA 
BLA BLA BLA BLA BLA BLA BLA BLA BLA BLA BLA BLA BLA BLA BLA BLA BLA BLA BLA BLA 
BLA BLA BLA BLA BLA BLA BLA BLA BLA BLA BLA BLA BLA BLA BLA BLA BLA BLA BLA BLA 
BLA BLA BLA BLA BLA BLA BLA BLA BLA BLA BLA BLA BLA BLA BLA BLA BLA BLA BLA BLA 
BLA BLA BLA BLA BLA BLA BLA BLA BLA BLA BLA BLA BLA BLA BLA BLA BLA BLA BLA BLA 
BLA BLA BLA BLA BLA BLA BLA BLA BLA BLA BLA BLA BLA BLA BLA BLA BLA BLA BLA BLA 
BLA BLA BLA BLA BLA BLA BLA BLA BLA BLA BLA BLA BLA BLA BLA BLA BLA BLA BLA BLA 
BLA BLA BLA BLA BLA BLA BLA BLA BLA BLA BLA BLA BLA BLA BLA BLA BLA BLA BLA BLA 
BLA BLA BLA BLA BLA BLA BLA BLA BLA BLA BLA BLA BLA BLA BLA BLA BLA BLA BLA BLA 
BLA BLA BLA BLA BLA BLA BLA BLA BLA BLA BLA BLA BLA BLA BLA BLA BLA BLA BLA BLA 
BLA BLA BLA BLA BLA BLA BLA BLA BLA BLA BLA BLA BLA BLA BLA BLA BLA BLA BLA BLA 
BLA BLA BLA BLA BLA BLA BLA BLA BLA BLA BLA BLA BLA BLA BLA BLA BLA BLA BLA BLA 
BLA BLA BLA BLA BLA BLA BLA BLA BLA BLA BLA BLA BLA BLA BLA BLA BLA BLA BLA BLA 
BLA BLA BLA BLA BLA BLA BLA BLA BLA BLA BLA BLA BLA BLA BLA BLA BLA BLA BLA BLA 
BLA BLA BLA BLA BLA BLA BLA BLA BLA BLA BLA BLA BLA BLA BLA BLA BLA BLA BLA BLA 
BLA BLA BLA BLA BLA BLA BLA BLA BLA BLA BLA BLA BLA BLA BLA BLA BLA BLA BLA BLA 
BLA BLA BLA BLA BLA BLA BLA BLA BLA BLA BLA BLA BLA BLA BLA BLA BLA BLA BLA BLA 
BLA BLA BLA BLA BLA BLA BLA BLA BLA BLA BLA BLA BLA BLA BLA BLA BLA BLA BLA BLA 
BLA BLA BLA BLA BLA BLA BLA BLA BLA BLA BLA BLA BLA BLA BLA BLA BLA BLA BLA BLA 
BLA BLA BLA BLA BLA BLA BLA BLA BLA BLA BLA BLA BLA BLA BLA BLA BLA BLA BLA BLA 
BLA BLA BLA BLA BLA BLA BLA BLA BLA BLA BLA BLA BLA BLA BLA BLA BLA BLA BLA BLA 
BLA BLA BLA BLA BLA BLA BLA BLA BLA BLA BLA BLA BLA BLA BLA BLA BLA BLA BLA BLA 
BLA BLA BLA BLA BLA BLA BLA BLA BLA BLA BLA BLA BLA BLA BLA BLA BLA BLA BLA BLA 
BLA BLA BLA BLA BLA BLA BLA BLA BLA BLA BLA BLA BLA BLA BLA BLA BLA BLA BLA BLA 
BLA BLA BLA BLA BLA BLA BLA BLA BLA BLA BLA BLA BLA BLA BLA BLA BLA BLA BLA BLA 
BLA BLA BLA BLA BLA BLA BLA BLA BLA BLA BLA BLA BLA BLA BLA BLA BLA BLA BLA BLA 
BLA BLA BLA BLA BLA BLA BLA BLA BLA BLA BLA BLA BLA BLA BLA BLA BLA BLA BLA BLA 
BLA BLA BLA BLA BLA BLA BLA BLA BLA BLA BLA BLA BLA BLA BLA BLA BLA BLA BLA BLA 
BLA BLA BLA BLA BLA BLA BLA BLA BLA BLA BLA BLA BLA BLA BLA BLA BLA BLA BLA BLA 
BLA BLA BLA BLA BLA BLA BLA BLA BLA BLA BLA BLA BLA BLA BLA BLA BLA BLA BLA BLA 
BLA BLA BLA BLA BLA BLA BLA BLA BLA BLA BLA BLA BLA BLA BLA BLA BLA BLA BLA BLA 
BLA BLA BLA BLA BLA BLA BLA BLA BLA BLA BLA BLA BLA BLA BLA BLA BLA BLA BLA BLA 
BLA BLA BLA BLA BLA BLA BLA BLA BLA BLA BLA BLA BLA BLA BLA BLA BLA BLA BLA BLA 
BLA BLA BLA BLA BLA BLA BLA BLA BLA BLA BLA BLA BLA BLA BLA BLA BLA BLA BLA BLA 
BLA BLA BLA BLA BLA BLA BLA BLA BLA BLA BLA BLA BLA BLA BLA BLA BLA BLA BLA BLA 
BLA BLA BLA BLA BLA BLA BLA BLA BLA BLA BLA BLA BLA BLA BLA BLA BLA BLA BLA BLA 
BLA BLA BLA BLA BLA BLA BLA BLA BLA BLA BLA BLA BLA BLA BLA BLA BLA BLA BLA BLA 
BLA BLA BLA BLA BLA BLA BLA BLA BLA BLA BLA BLA BLA BLA BLA BLA BLA BLA BLA BLA 
BLA BLA BLA BLA BLA BLA BLA BLA BLA BLA BLA BLA BLA BLA BLA BLA BLA BLA BLA BLA 
BLA BLA BLA BLA BLA BLA BLA BLA BLA BLA BLA BLA BLA BLA BLA BLA BLA BLA BLA BLA 
BLA BLA BLA BLA BLA BLA BLA BLA BLA BLA BLA BLA BLA BLA BLA BLA BLA BLA BLA BLA 
BLA BLA BLA BLA BLA BLA BLA BLA BLA BLA BLA BLA BLA BLA BLA BLA BLA BLA BLA BLA 
BLA BLA BLA BLA BLA BLA BLA BLA BLA BLA BLA BLA BLA BLA BLA BLA BLA BLA BLA BLA 
BLA BLA BLA BLA BLA BLA BLA BLA BLA BLA BLA BLA BLA BLA BLA BLA BLA BLA BLA BLA 
BLA BLA BLA BLA BLA BLA BLA BLA BLA BLA BLA BLA BLA BLA BLA BLA BLA BLA BLA BLA 
BLA BLA BLA BLA BLA BLA BLA BLA BLA BLA BLA BLA BLA BLA BLA BLA BLA BLA BLA BLA 
BLA BLA BLA BLA BLA BLA BLA BLA BLA BLA BLA BLA BLA BLA BLA BLA BLA BLA BLA BLA 
BLA BLA BLA BLA BLA BLA BLA BLA BLA BLA BLA BLA BLA BLA BLA BLA BLA BLA BLA BLA 
BLA BLA BLA BLA BLA BLA BLA BLA BLA BLA BLA BLA BLA BLA BLA BLA BLA BLA BLA BLA 
BLA BLA BLA BLA BLA BLA BLA BLA BLA BLA BLA BLA BLA BLA BLA BLA BLA BLA BLA BLA 
BLA BLA BLA BLA BLA BLA BLA BLA BLA BLA BLA BLA BLA BLA BLA BLA BLA BLA BLA BLA 
BLA BLA BLA BLA BLA BLA BLA BLA BLA BLA BLA BLA BLA BLA BLA BLA BLA BLA BLA BLA 
BLA BLA BLA BLA BLA BLA BLA BLA BLA BLA BLA BLA BLA BLA BLA BLA BLA BLA BLA BLA 
BLA BLA BLA BLA BLA BLA BLA BLA BLA BLA BLA BLA BLA BLA BLA BLA BLA BLA BLA BLA 
BLA BLA BLA BLA BLA BLA BLA BLA BLA BLA BLA BLA BLA BLA BLA BLA BLA BLA BLA BLA 
BLA BLA BLA BLA BLA BLA BLA BLA BLA BLA BLA BLA BLA BLA BLA BLA BLA BLA BLA BLA 
BLA BLA BLA BLA BLA BLA BLA BLA BLA BLA BLA BLA BLA BLA BLA BLA BLA BLA BLA BLA 
BLA BLA BLA BLA BLA BLA BLA BLA BLA BLA BLA BLA BLA BLA BLA BLA BLA BLA BLA BLA 
BLA BLA BLA BLA BLA BLA BLA BLA BLA BLA BLA BLA BLA BLA BLA BLA BLA BLA BLA BLA 
BLA BLA BLA BLA BLA BLA BLA BLA BLA BLA BLA BLA BLA BLA BLA BLA BLA BLA BLA BLA 
BLA BLA BLA BLA BLA BLA BLA BLA BLA BLA BLA BLA BLA BLA BLA BLA BLA BLA BLA BLA 
BLA BLA BLA BLA BLA BLA BLA BLA BLA BLA BLA BLA BLA BLA BLA BLA BLA BLA BLA BLA 
BLA BLA BLA BLA BLA BLA BLA BLA BLA BLA BLA BLA BLA BLA BLA BLA BLA BLA BLA BLA 
BLA BLA BLA BLA BLA BLA BLA BLA BLA BLA BLA BLA BLA BLA BLA BLA BLA BLA BLA BLA 
BLA BLA BLA BLA BLA BLA BLA BLA BLA BLA BLA BLA BLA BLA BLA BLA BLA BLA BLA BLA 
BLA BLA BLA BLA BLA BLA BLA BLA BLA BLA BLA BLA BLA BLA BLA BLA BLA BLA BLA BLA 
BLA BLA BLA BLA BLA BLA BLA BLA BLA BLA BLA BLA BLA BLA BLA BLA BLA BLA BLA BLA 
BLA BLA BLA BLA BLA BLA BLA BLA BLA BLA BLA BLA BLA BLA BLA BLA BLA BLA BLA BLA 
BLA BLA BLA BLA BLA BLA BLA BLA BLA BLA BLA BLA BLA BLA BLA BLA BLA BLA BLA BLA 
BLA BLA BLA BLA BLA BLA BLA BLA BLA BLA BLA BLA BLA BLA BLA BLA BLA BLA BLA BLA 
BLA BLA BLA BLA BLA BLA BLA BLA BLA BLA BLA BLA BLA BLA BLA BLA BLA BLA BLA BLA 
BLA BLA BLA BLA BLA BLA BLA BLA BLA BLA BLA BLA BLA BLA BLA BLA BLA BLA BLA BLA 
BLA BLA BLA BLA BLA BLA BLA BLA BLA BLA BLA BLA BLA BLA BLA BLA BLA BLA BLA BLA 
BLA BLA BLA BLA BLA BLA BLA BLA BLA BLA BLA BLA BLA BLA BLA BLA BLA BLA BLA BLA 
BLA BLA BLA BLA BLA BLA BLA BLA BLA BLA BLA BLA BLA BLA BLA BLA BLA BLA BLA BLA 
BLA BLA BLA BLA BLA BLA BLA BLA BLA BLA BLA BLA BLA BLA BLA BLA BLA BLA BLA BLA 
BLA BLA BLA BLA BLA BLA BLA BLA BLA BLA BLA BLA BLA BLA BLA BLA BLA BLA BLA BLA 
BLA BLA BLA BLA BLA BLA BLA BLA BLA BLA BLA BLA BLA BLA BLA BLA BLA BLA BLA BLA 
BLA BLA BLA BLA BLA BLA BLA BLA BLA BLA BLA BLA BLA BLA BLA BLA BLA BLA BLA BLA 
BLA BLA BLA BLA BLA BLA BLA BLA BLA BLA BLA BLA BLA BLA BLA BLA BLA BLA BLA BLA 
BLA BLA BLA BLA BLA BLA BLA BLA BLA BLA BLA BLA BLA BLA BLA BLA BLA BLA BLA BLA 
BLA BLA BLA BLA BLA BLA BLA BLA BLA BLA BLA BLA BLA BLA BLA BLA BLA BLA BLA BLA 
BLA BLA BLA BLA BLA BLA BLA BLA BLA BLA BLA BLA BLA BLA BLA BLA BLA BLA BLA BLA 
BLA BLA BLA BLA BLA BLA BLA BLA BLA BLA BLA BLA BLA BLA BLA BLA BLA BLA BLA BLA 
BLA BLA BLA BLA BLA BLA BLA BLA BLA BLA BLA BLA BLA BLA BLA BLA BLA BLA BLA BLA 
BLA BLA BLA BLA BLA BLA BLA BLA BLA BLA BLA BLA BLA BLA BLA BLA BLA BLA BLA BLA 
BLA BLA BLA BLA BLA BLA BLA BLA BLA BLA BLA BLA BLA BLA BLA BLA BLA BLA BLA BLA 
BLA BLA BLA BLA BLA BLA BLA BLA BLA BLA BLA BLA BLA BLA BLA BLA BLA BLA BLA BLA 
BLA BLA BLA BLA BLA BLA BLA BLA BLA BLA BLA BLA BLA BLA BLA BLA BLA BLA BLA BLA 
BLA BLA BLA BLA BLA BLA BLA BLA BLA BLA BLA BLA BLA BLA BLA BLA BLA BLA BLA BLA 
BLA BLA BLA BLA BLA BLA BLA BLA BLA BLA BLA BLA BLA BLA BLA BLA BLA BLA BLA BLA 
BLA BLA BLA BLA BLA BLA BLA BLA BLA BLA BLA BLA BLA BLA BLA BLA BLA BLA BLA BLA 
BLA BLA BLA BLA BLA BLA BLA BLA BLA BLA BLA BLA BLA BLA BLA BLA BLA BLA BLA BLA 
BLA BLA BLA BLA BLA BLA BLA BLA BLA BLA BLA BLA BLA BLA BLA BLA BLA BLA BLA BLA 
BLA BLA BLA BLA BLA BLA BLA BLA BLA BLA BLA BLA BLA BLA BLA BLA BLA BLA BLA BLA 
BLA BLA BLA BLA BLA BLA BLA BLA BLA BLA BLA BLA BLA BLA BLA BLA BLA BLA BLA BLA 
BLA BLA BLA BLA BLA BLA BLA BLA BLA BLA BLA BLA BLA BLA BLA BLA BLA BLA BLA BLA 
BLA BLA BLA BLA BLA BLA BLA BLA BLA BLA BLA BLA BLA BLA BLA BLA BLA BLA BLA BLA 
BLA BLA BLA BLA BLA BLA BLA BLA BLA BLA BLA BLA BLA BLA BLA BLA BLA BLA BLA BLA 
BLA BLA BLA BLA BLA BLA BLA BLA BLA BLA BLA BLA BLA BLA BLA BLA BLA BLA BLA BLA 
BLA BLA BLA BLA BLA BLA BLA BLA BLA BLA BLA BLA BLA BLA BLA BLA BLA BLA BLA BLA 
BLA BLA BLA BLA BLA BLA BLA BLA BLA BLA BLA BLA BLA BLA BLA BLA BLA BLA BLA BLA 
BLA BLA BLA BLA BLA BLA BLA BLA BLA BLA BLA BLA BLA BLA BLA BLA BLA BLA BLA BLA 
BLA BLA BLA BLA BLA BLA BLA BLA BLA BLA BLA BLA BLA BLA BLA BLA BLA BLA BLA BLA 
BLA BLA BLA BLA BLA BLA BLA BLA BLA BLA BLA BLA BLA BLA BLA BLA BLA BLA BLA BLA 
BLA BLA BLA BLA BLA BLA BLA BLA BLA BLA BLA BLA BLA BLA BLA BLA BLA BLA BLA BLA 
BLA BLA BLA BLA BLA BLA BLA BLA BLA BLA BLA BLA BLA BLA BLA BLA BLA BLA BLA BLA 
BLA BLA BLA BLA BLA BLA BLA BLA BLA BLA BLA BLA BLA BLA BLA BLA BLA BLA BLA BLA 
BLA BLA BLA BLA BLA BLA BLA BLA BLA BLA BLA BLA BLA BLA BLA BLA BLA BLA BLA BLA 
BLA BLA BLA BLA BLA BLA BLA BLA BLA BLA BLA BLA BLA BLA BLA BLA BLA BLA BLA BLA 
BLA BLA BLA BLA BLA BLA BLA BLA BLA BLA BLA BLA BLA BLA BLA BLA BLA BLA BLA BLA 
BLA BLA BLA BLA BLA BLA BLA BLA BLA BLA BLA BLA BLA BLA BLA BLA BLA BLA BLA BLA 
BLA BLA BLA BLA BLA BLA BLA BLA BLA BLA BLA BLA BLA BLA BLA BLA BLA BLA BLA BLA 
BLA BLA BLA BLA BLA BLA BLA BLA BLA BLA BLA BLA BLA BLA BLA BLA BLA BLA BLA BLA 
BLA BLA BLA BLA BLA BLA BLA BLA BLA BLA BLA BLA BLA BLA BLA BLA BLA BLA BLA BLA 
BLA BLA BLA BLA BLA BLA BLA BLA BLA BLA BLA BLA BLA BLA BLA BLA BLA BLA BLA BLA 
BLA BLA BLA BLA BLA BLA BLA BLA BLA BLA BLA BLA BLA BLA BLA BLA BLA BLA BLA BLA 
BLA BLA BLA BLA BLA BLA BLA BLA BLA BLA BLA BLA BLA BLA BLA BLA BLA BLA BLA BLA 
BLA BLA BLA BLA BLA BLA BLA BLA BLA BLA BLA BLA BLA BLA BLA BLA BLA BLA BLA BLA 
BLA BLA BLA BLA BLA BLA BLA BLA BLA BLA BLA BLA BLA BLA BLA BLA BLA BLA BLA BLA 
BLA BLA BLA BLA BLA BLA BLA BLA BLA BLA BLA BLA BLA BLA BLA BLA BLA BLA BLA BLA 
BLA BLA BLA BLA BLA BLA BLA BLA BLA BLA BLA BLA BLA BLA BLA BLA BLA BLA BLA BLA 
BLA BLA BLA BLA BLA BLA BLA BLA BLA BLA BLA BLA BLA BLA BLA BLA BLA BLA BLA BLA 
BLA BLA BLA BLA BLA BLA BLA BLA BLA BLA BLA BLA BLA BLA BLA BLA BLA BLA BLA BLA 
BLA BLA BLA BLA BLA BLA BLA BLA BLA BLA BLA BLA BLA BLA BLA BLA BLA BLA BLA BLA 
BLA BLA BLA BLA BLA BLA BLA BLA BLA BLA BLA BLA BLA BLA BLA BLA BLA BLA BLA BLA 
BLA BLA BLA BLA BLA BLA BLA BLA BLA BLA BLA BLA BLA BLA BLA BLA BLA BLA BLA BLA 
BLA BLA BLA BLA BLA BLA BLA BLA BLA BLA BLA BLA BLA BLA BLA BLA BLA BLA BLA BLA 
BLA BLA BLA BLA BLA BLA BLA BLA BLA BLA BLA BLA BLA BLA BLA BLA BLA BLA BLA BLA 
BLA BLA BLA BLA BLA BLA BLA BLA BLA BLA BLA BLA BLA BLA BLA BLA BLA BLA BLA BLA 
BLA BLA BLA BLA BLA BLA BLA BLA BLA BLA BLA BLA BLA BLA BLA BLA BLA BLA BLA BLA 
BLA BLA BLA BLA BLA BLA BLA BLA BLA BLA BLA BLA BLA BLA BLA BLA BLA BLA BLA BLA 
BLA BLA BLA BLA BLA BLA BLA BLA BLA BLA BLA BLA BLA BLA BLA BLA BLA BLA BLA BLA 
BLA BLA BLA BLA BLA BLA BLA BLA BLA BLA BLA BLA BLA BLA BLA BLA BLA BLA BLA BLA 
BLA BLA BLA BLA BLA BLA BLA BLA BLA BLA BLA BLA BLA BLA BLA BLA BLA BLA BLA BLA 
BLA BLA BLA BLA BLA BLA BLA BLA BLA BLA BLA BLA BLA BLA BLA BLA BLA BLA BLA BLA 
BLA BLA BLA BLA BLA BLA BLA BLA BLA BLA BLA BLA BLA BLA BLA BLA BLA BLA BLA BLA 
BLA BLA BLA BLA BLA BLA BLA BLA BLA BLA BLA BLA BLA BLA BLA BLA BLA BLA BLA BLA 
BLA BLA BLA BLA BLA BLA BLA BLA BLA BLA BLA BLA BLA BLA BLA BLA BLA BLA BLA BLA 
BLA BLA BLA BLA BLA BLA BLA BLA BLA BLA BLA BLA BLA BLA BLA BLA BLA BLA BLA BLA 
BLA BLA BLA BLA BLA BLA BLA BLA BLA BLA BLA BLA BLA BLA BLA BLA BLA BLA BLA BLA 
BLA BLA BLA BLA BLA BLA BLA BLA BLA BLA BLA BLA BLA BLA BLA BLA BLA BLA BLA BLA 
BLA BLA BLA BLA BLA BLA BLA BLA BLA BLA BLA BLA BLA BLA BLA BLA BLA BLA BLA BLA 
BLA BLA BLA BLA BLA BLA BLA BLA BLA BLA BLA BLA BLA BLA BLA BLA BLA BLA BLA BLA 
BLA BLA BLA BLA BLA BLA BLA BLA BLA BLA BLA BLA BLA BLA BLA BLA BLA BLA BLA BLA 
BLA BLA BLA BLA BLA BLA BLA BLA BLA BLA BLA BLA BLA BLA BLA BLA BLA BLA BLA BLA 
BLA BLA BLA BLA BLA BLA BLA BLA BLA BLA BLA BLA BLA BLA BLA BLA BLA BLA BLA BLA 
BLA BLA BLA BLA BLA BLA BLA BLA BLA BLA BLA BLA BLA BLA BLA BLA BLA BLA BLA BLA 
BLA BLA BLA BLA BLA BLA BLA BLA BLA BLA BLA BLA BLA BLA BLA BLA BLA BLA BLA BLA 
BLA BLA BLA BLA BLA BLA BLA BLA BLA BLA BLA BLA BLA BLA BLA BLA BLA BLA BLA BLA 
BLA BLA BLA BLA BLA BLA BLA BLA BLA BLA BLA BLA BLA BLA BLA BLA BLA BLA BLA BLA 
BLA BLA BLA BLA BLA BLA BLA BLA BLA BLA BLA BLA BLA BLA BLA BLA BLA BLA BLA BLA 
BLA BLA BLA BLA BLA BLA BLA BLA BLA BLA BLA BLA BLA BLA BLA BLA BLA BLA BLA BLA 
BLA BLA BLA BLA BLA BLA BLA BLA BLA BLA BLA BLA BLA BLA BLA BLA BLA BLA BLA BLA 
BLA BLA BLA BLA BLA BLA BLA BLA BLA BLA BLA BLA BLA BLA BLA BLA BLA BLA BLA BLA 
BLA BLA BLA BLA BLA BLA BLA BLA BLA BLA BLA BLA BLA BLA BLA BLA BLA BLA BLA BLA 
BLA BLA BLA BLA BLA BLA BLA BLA BLA BLA BLA BLA BLA BLA BLA BLA BLA BLA BLA BLA 
BLA BLA BLA BLA BLA BLA BLA BLA BLA BLA BLA BLA BLA BLA BLA BLA BLA BLA BLA BLA 
BLA BLA BLA BLA BLA BLA BLA BLA BLA BLA BLA BLA BLA BLA BLA BLA BLA BLA BLA BLA 
BLA BLA BLA BLA BLA BLA BLA BLA BLA BLA BLA BLA BLA BLA BLA BLA BLA BLA BLA BLA 
BLA BLA BLA BLA BLA BLA BLA BLA BLA BLA BLA BLA BLA BLA BLA BLA BLA BLA BLA BLA 
BLA BLA BLA BLA BLA BLA BLA BLA BLA BLA BLA BLA BLA BLA BLA BLA BLA BLA BLA BLA 
BLA BLA BLA BLA BLA BLA BLA BLA BLA BLA BLA BLA BLA BLA BLA BLA BLA BLA BLA BLA 
BLA BLA BLA BLA BLA BLA BLA BLA BLA BLA BLA BLA BLA BLA BLA BLA BLA BLA BLA BLA 
BLA BLA BLA BLA BLA BLA BLA BLA BLA BLA BLA BLA BLA BLA BLA BLA BLA BLA BLA BLA 
BLA BLA BLA BLA BLA BLA BLA BLA BLA BLA BLA BLA BLA BLA BLA BLA BLA BLA BLA BLA 
BLA BLA BLA BLA BLA BLA BLA BLA BLA BLA BLA BLA BLA BLA BLA BLA BLA BLA BLA BLA 
BLA BLA BLA BLA BLA BLA BLA BLA BLA BLA BLA BLA BLA BLA BLA BLA BLA BLA BLA BLA 
BLA BLA BLA BLA BLA BLA BLA BLA BLA BLA BLA BLA BLA BLA BLA BLA BLA BLA BLA BLA 
BLA BLA BLA BLA BLA BLA BLA BLA BLA BLA BLA BLA BLA BLA BLA BLA BLA BLA BLA BLA 
BLA BLA BLA BLA BLA BLA BLA BLA BLA BLA BLA BLA BLA BLA BLA BLA BLA BLA BLA BLA 
BLA BLA BLA BLA BLA BLA BLA BLA BLA BLA BLA BLA BLA BLA BLA BLA BLA BLA BLA BLA 
BLA BLA BLA BLA BLA BLA BLA BLA BLA BLA BLA BLA BLA BLA BLA BLA BLA BLA BLA BLA 
BLA BLA BLA BLA BLA BLA BLA BLA BLA BLA BLA BLA BLA BLA BLA BLA BLA BLA BLA BLA 
BLA BLA BLA BLA BLA BLA BLA BLA BLA BLA BLA BLA BLA BLA BLA BLA BLA BLA BLA BLA 
BLA BLA BLA BLA BLA BLA BLA BLA BLA BLA BLA BLA BLA BLA BLA BLA BLA BLA BLA BLA 
BLA BLA BLA BLA BLA BLA BLA BLA BLA BLA BLA BLA BLA BLA BLA BLA BLA BLA BLA BLA 
BLA BLA BLA BLA BLA BLA BLA BLA BLA BLA BLA BLA BLA BLA BLA BLA BLA BLA BLA BLA 
BLA BLA BLA BLA BLA BLA BLA BLA BLA BLA BLA BLA BLA BLA BLA BLA BLA BLA BLA BLA 
BLA BLA BLA BLA BLA BLA BLA BLA BLA BLA BLA BLA BLA BLA BLA BLA BLA BLA BLA BLA 
BLA BLA BLA BLA BLA BLA BLA BLA BLA BLA BLA BLA BLA BLA BLA BLA BLA BLA BLA BLA 
BLA BLA BLA BLA BLA BLA BLA BLA BLA BLA BLA BLA BLA BLA BLA BLA BLA BLA BLA BLA 
BLA BLA BLA BLA BLA BLA BLA BLA BLA BLA BLA BLA BLA BLA BLA BLA BLA BLA BLA BLA 
BLA BLA BLA BLA BLA BLA BLA BLA BLA BLA BLA BLA BLA BLA BLA BLA BLA BLA BLA BLA 
BLA BLA BLA BLA BLA BLA BLA BLA BLA BLA BLA BLA BLA BLA BLA BLA BLA BLA BLA BLA 
BLA BLA BLA BLA BLA BLA BLA BLA BLA BLA BLA BLA BLA BLA BLA BLA BLA BLA BLA BLA 
BLA BLA BLA BLA BLA BLA BLA BLA BLA BLA BLA BLA BLA BLA BLA BLA BLA BLA BLA BLA 
BLA BLA BLA BLA BLA BLA BLA BLA BLA BLA BLA BLA BLA BLA BLA BLA BLA BLA BLA BLA 
BLA BLA BLA BLA BLA BLA BLA BLA BLA BLA BLA BLA BLA BLA BLA BLA BLA BLA BLA BLA 
BLA BLA BLA BLA BLA BLA BLA BLA BLA BLA BLA BLA BLA BLA BLA BLA BLA BLA BLA BLA 
BLA BLA BLA BLA BLA BLA BLA BLA BLA BLA BLA BLA BLA BLA BLA BLA BLA BLA BLA BLA 
BLA BLA BLA BLA BLA BLA BLA BLA BLA BLA BLA BLA BLA BLA BLA BLA BLA BLA BLA BLA 
BLA BLA BLA BLA BLA BLA BLA BLA BLA BLA BLA BLA BLA BLA BLA BLA BLA BLA BLA BLA 
BLA BLA BLA BLA BLA BLA BLA BLA BLA BLA BLA BLA BLA BLA BLA BLA BLA BLA BLA BLA 
BLA BLA BLA BLA BLA BLA BLA BLA BLA BLA BLA BLA BLA BLA BLA BLA BLA BLA BLA BLA 
BLA BLA BLA BLA BLA BLA BLA BLA BLA BLA BLA BLA BLA BLA BLA BLA BLA BLA BLA BLA 
BLA BLA BLA BLA BLA BLA BLA BLA BLA BLA BLA BLA BLA BLA BLA BLA BLA BLA BLA BLA 
BLA BLA BLA BLA BLA BLA BLA BLA BLA BLA BLA BLA BLA BLA BLA BLA BLA BLA BLA BLA 
BLA BLA BLA BLA BLA BLA BLA BLA BLA BLA BLA BLA BLA BLA BLA BLA BLA BLA BLA BLA 
BLA BLA BLA BLA BLA BLA BLA BLA BLA BLA BLA BLA BLA BLA BLA BLA BLA BLA BLA BLA 
BLA BLA BLA BLA BLA BLA BLA BLA BLA BLA BLA BLA BLA BLA BLA BLA BLA BLA BLA BLA 
BLA BLA BLA BLA BLA BLA BLA BLA BLA BLA BLA BLA BLA BLA BLA BLA BLA BLA BLA BLA 
BLA BLA BLA BLA BLA BLA BLA BLA BLA BLA BLA BLA BLA BLA BLA BLA BLA BLA BLA BLA 
BLA BLA BLA BLA BLA BLA BLA BLA BLA BLA BLA BLA BLA BLA BLA BLA BLA BLA BLA BLA 
BLA BLA BLA BLA BLA BLA BLA BLA BLA BLA BLA BLA BLA BLA BLA BLA BLA BLA BLA BLA 
BLA BLA BLA BLA BLA BLA BLA BLA BLA BLA BLA BLA BLA BLA BLA BLA BLA BLA BLA BLA 
BLA BLA BLA BLA BLA BLA BLA BLA BLA BLA BLA BLA BLA BLA BLA BLA BLA BLA BLA BLA 
BLA BLA BLA BLA BLA BLA BLA BLA BLA BLA BLA BLA BLA BLA BLA BLA BLA BLA BLA BLA 
BLA BLA BLA BLA BLA BLA BLA BLA BLA BLA BLA BLA BLA BLA BLA BLA BLA BLA BLA BLA 
BLA BLA BLA BLA BLA BLA BLA BLA BLA BLA BLA BLA BLA BLA BLA BLA BLA BLA BLA BLA 
BLA BLA BLA BLA BLA BLA BLA BLA BLA BLA BLA BLA BLA BLA BLA BLA BLA BLA BLA BLA 
BLA BLA BLA BLA BLA BLA BLA BLA BLA BLA BLA BLA BLA BLA BLA BLA BLA BLA BLA BLA 
BLA BLA BLA BLA BLA BLA BLA BLA BLA BLA BLA BLA BLA BLA BLA BLA BLA BLA BLA BLA 
BLA BLA BLA BLA BLA BLA BLA BLA BLA BLA BLA BLA BLA BLA BLA BLA BLA BLA BLA BLA 
BLA BLA BLA BLA BLA BLA BLA BLA BLA BLA BLA BLA BLA BLA BLA BLA BLA BLA BLA BLA 
BLA BLA BLA BLA BLA BLA BLA BLA BLA BLA BLA BLA BLA BLA BLA BLA BLA BLA BLA BLA 
BLA BLA BLA BLA BLA BLA BLA BLA BLA BLA BLA BLA BLA BLA BLA BLA BLA BLA BLA BLA 
BLA BLA BLA BLA BLA BLA BLA BLA BLA BLA BLA BLA BLA BLA BLA BLA BLA BLA BLA BLA 
BLA BLA BLA BLA BLA BLA BLA BLA BLA BLA BLA BLA BLA BLA BLA BLA BLA BLA BLA BLA 
BLA BLA BLA BLA BLA BLA BLA BLA BLA BLA BLA BLA BLA BLA BLA BLA BLA BLA BLA BLA 
BLA BLA BLA BLA BLA BLA BLA BLA BLA BLA BLA BLA BLA BLA BLA BLA BLA BLA BLA BLA 
BLA BLA BLA BLA BLA BLA BLA BLA BLA BLA BLA BLA BLA BLA BLA BLA BLA BLA BLA BLA 
BLA BLA BLA BLA BLA BLA BLA BLA BLA BLA BLA BLA BLA BLA BLA BLA BLA BLA BLA BLA 
BLA BLA BLA BLA BLA BLA BLA BLA BLA BLA BLA BLA BLA BLA BLA BLA BLA BLA BLA BLA 
BLA BLA BLA BLA BLA BLA BLA BLA BLA BLA BLA BLA BLA BLA BLA BLA BLA BLA BLA BLA 
BLA BLA BLA BLA BLA BLA BLA BLA BLA BLA BLA BLA BLA BLA BLA BLA BLA BLA BLA BLA 
BLA BLA BLA BLA BLA BLA BLA BLA BLA BLA BLA BLA BLA BLA BLA BLA BLA BLA BLA BLA 
BLA BLA BLA BLA BLA BLA BLA BLA BLA BLA BLA BLA BLA BLA BLA BLA BLA BLA BLA BLA 
BLA BLA BLA BLA BLA BLA BLA BLA BLA BLA BLA BLA BLA BLA BLA BLA BLA BLA BLA BLA 
BLA BLA BLA BLA BLA BLA BLA BLA BLA BLA BLA BLA BLA BLA BLA BLA BLA BLA BLA BLA 
BLA BLA BLA BLA BLA BLA BLA BLA BLA BLA BLA BLA BLA BLA BLA BLA BLA BLA BLA BLA 
BLA BLA BLA BLA BLA BLA BLA BLA BLA BLA BLA BLA BLA BLA BLA BLA BLA BLA BLA BLA 
BLA BLA BLA BLA BLA BLA BLA BLA BLA BLA BLA BLA BLA BLA BLA BLA BLA BLA BLA BLA 
BLA BLA BLA BLA BLA BLA BLA BLA BLA BLA BLA BLA BLA BLA BLA BLA BLA BLA BLA BLA 
BLA BLA BLA BLA BLA BLA BLA BLA BLA BLA BLA BLA BLA BLA BLA BLA BLA BLA BLA BLA 
BLA BLA BLA BLA BLA BLA BLA BLA BLA BLA BLA BLA BLA BLA BLA BLA BLA BLA BLA BLA 
BLA BLA BLA BLA BLA BLA BLA BLA BLA BLA BLA BLA BLA BLA BLA BLA BLA BLA BLA BLA 
BLA BLA BLA BLA BLA BLA BLA BLA BLA BLA BLA BLA BLA BLA BLA BLA BLA BLA BLA BLA 
BLA BLA BLA BLA BLA BLA BLA BLA BLA BLA BLA BLA BLA BLA BLA BLA BLA BLA BLA BLA 
BLA BLA BLA BLA BLA BLA BLA BLA BLA BLA BLA BLA BLA BLA BLA BLA BLA BLA BLA BLA 
BLA BLA BLA BLA BLA BLA BLA BLA BLA BLA BLA BLA BLA BLA BLA BLA BLA BLA BLA BLA 
BLA BLA BLA BLA BLA BLA BLA BLA BLA BLA BLA BLA BLA BLA BLA BLA BLA BLA BLA BLA 
BLA BLA BLA BLA BLA BLA BLA BLA BLA BLA BLA BLA BLA BLA BLA BLA BLA BLA BLA BLA 
BLA BLA BLA BLA BLA BLA BLA BLA BLA BLA BLA BLA BLA BLA BLA BLA BLA BLA BLA BLA 
BLA BLA BLA BLA BLA BLA BLA BLA BLA BLA BLA BLA BLA BLA BLA BLA BLA BLA BLA BLA 
BLA BLA BLA BLA BLA BLA BLA BLA BLA BLA BLA BLA BLA BLA BLA BLA BLA BLA BLA BLA 
BLA BLA BLA BLA BLA BLA BLA BLA BLA BLA BLA BLA BLA BLA BLA BLA BLA BLA BLA BLA 
BLA BLA BLA BLA BLA BLA BLA BLA BLA BLA BLA BLA BLA BLA BLA BLA BLA BLA BLA BLA 
BLA BLA BLA BLA BLA BLA BLA BLA BLA BLA BLA BLA BLA BLA BLA BLA BLA BLA BLA BLA 
BLA BLA BLA BLA BLA BLA BLA BLA BLA BLA BLA BLA BLA BLA BLA BLA BLA BLA BLA BLA 
BLA BLA BLA BLA BLA BLA BLA BLA BLA BLA BLA BLA BLA BLA BLA BLA BLA BLA BLA BLA 
BLA BLA BLA BLA BLA BLA BLA BLA BLA BLA BLA BLA BLA BLA BLA BLA BLA BLA BLA BLA 
BLA BLA BLA BLA BLA BLA BLA BLA BLA BLA BLA BLA BLA BLA BLA BLA BLA BLA BLA BLA 
BLA BLA BLA BLA BLA BLA BLA BLA BLA BLA BLA BLA BLA BLA BLA BLA BLA BLA BLA BLA 
BLA BLA BLA BLA BLA BLA BLA BLA BLA BLA BLA BLA BLA BLA BLA BLA BLA BLA BLA BLA 
BLA BLA BLA BLA BLA BLA BLA BLA BLA BLA BLA BLA BLA BLA BLA BLA BLA BLA BLA BLA 
BLA BLA BLA BLA BLA BLA BLA BLA BLA BLA BLA BLA BLA BLA BLA BLA BLA BLA BLA BLA 
BLA BLA BLA BLA BLA BLA BLA BLA BLA BLA BLA BLA BLA BLA BLA BLA BLA BLA BLA BLA 
BLA BLA BLA BLA BLA BLA BLA BLA BLA BLA BLA BLA BLA BLA BLA BLA BLA BLA BLA BLA 
BLA BLA BLA BLA BLA BLA BLA BLA BLA BLA BLA BLA BLA BLA BLA BLA BLA BLA BLA BLA 
BLA BLA BLA BLA BLA BLA BLA BLA BLA BLA BLA BLA BLA BLA BLA BLA BLA BLA BLA BLA 
BLA BLA BLA BLA BLA BLA BLA BLA BLA BLA BLA BLA BLA BLA BLA BLA BLA BLA BLA BLA 
BLA BLA BLA BLA BLA BLA BLA BLA BLA BLA BLA BLA BLA BLA BLA BLA BLA BLA BLA BLA 
BLA BLA BLA BLA BLA BLA BLA BLA BLA BLA BLA BLA BLA BLA BLA BLA BLA BLA BLA BLA 
BLA BLA BLA BLA BLA BLA BLA BLA BLA BLA BLA BLA BLA BLA BLA BLA BLA BLA BLA BLA 
BLA BLA BLA BLA BLA BLA BLA BLA BLA BLA BLA BLA BLA BLA BLA BLA BLA BLA BLA BLA 
BLA BLA BLA BLA BLA BLA BLA BLA BLA BLA BLA BLA BLA BLA BLA BLA BLA BLA BLA BLA 
BLA BLA BLA BLA BLA BLA BLA BLA BLA BLA BLA BLA BLA BLA BLA BLA BLA BLA BLA BLA 
BLA BLA BLA BLA BLA BLA BLA BLA BLA BLA BLA BLA BLA BLA BLA BLA BLA BLA BLA BLA 
BLA BLA BLA BLA BLA BLA BLA BLA BLA BLA BLA BLA BLA BLA BLA BLA BLA BLA BLA BLA 
BLA BLA BLA BLA BLA BLA BLA BLA BLA BLA BLA BLA BLA BLA BLA BLA BLA BLA BLA BLA 
BLA BLA BLA BLA BLA BLA BLA BLA BLA BLA BLA BLA BLA BLA BLA BLA BLA BLA BLA BLA 
BLA BLA BLA BLA BLA BLA BLA BLA BLA BLA BLA BLA BLA BLA BLA BLA BLA BLA BLA BLA 
BLA BLA BLA BLA BLA BLA BLA BLA BLA BLA BLA BLA BLA BLA BLA BLA BLA BLA BLA BLA 
BLA BLA BLA BLA BLA BLA BLA BLA BLA BLA BLA BLA BLA BLA BLA BLA BLA BLA BLA BLA 
BLA BLA BLA BLA BLA BLA BLA BLA BLA BLA BLA BLA BLA BLA BLA BLA BLA BLA BLA BLA 
BLA BLA BLA BLA BLA BLA BLA BLA BLA BLA BLA BLA BLA BLA BLA BLA BLA BLA BLA BLA 
BLA BLA BLA BLA BLA BLA BLA BLA BLA BLA BLA BLA BLA BLA BLA BLA BLA BLA BLA BLA 
BLA BLA BLA BLA BLA BLA BLA BLA BLA BLA BLA BLA BLA BLA BLA BLA BLA BLA BLA BLA 
BLA BLA BLA BLA BLA BLA BLA BLA BLA BLA BLA BLA BLA BLA BLA BLA BLA BLA BLA BLA 
BLA BLA BLA BLA BLA BLA BLA BLA BLA BLA BLA BLA BLA BLA BLA BLA BLA BLA BLA BLA 
BLA BLA BLA BLA BLA BLA BLA BLA BLA BLA BLA BLA BLA BLA BLA BLA BLA BLA BLA BLA 
BLA BLA BLA BLA BLA BLA BLA BLA BLA BLA BLA BLA BLA BLA BLA BLA BLA BLA BLA BLA 
BLA BLA BLA BLA BLA BLA BLA BLA BLA BLA BLA BLA BLA BLA BLA BLA BLA BLA BLA BLA 
BLA BLA BLA BLA BLA BLA BLA BLA BLA BLA BLA BLA BLA BLA BLA BLA BLA BLA BLA BLA 
BLA BLA BLA BLA BLA BLA BLA BLA BLA BLA BLA BLA BLA BLA BLA BLA BLA BLA BLA BLA 
BLA BLA BLA BLA BLA BLA BLA BLA BLA BLA BLA BLA BLA BLA BLA BLA BLA BLA BLA BLA 
BLA BLA BLA BLA BLA BLA BLA BLA BLA BLA BLA BLA BLA BLA BLA BLA BLA BLA BLA BLA 
BLA BLA BLA BLA BLA BLA BLA BLA BLA BLA BLA BLA BLA BLA BLA BLA BLA BLA BLA BLA 
BLA BLA BLA BLA BLA BLA BLA BLA BLA BLA BLA BLA BLA BLA BLA BLA BLA BLA BLA BLA 
BLA BLA BLA BLA BLA BLA BLA BLA BLA BLA BLA BLA BLA BLA BLA BLA BLA BLA BLA BLA 
BLA BLA BLA BLA BLA BLA BLA BLA BLA BLA BLA BLA BLA BLA BLA BLA BLA BLA BLA BLA 
BLA BLA BLA BLA BLA BLA BLA BLA BLA BLA BLA BLA BLA BLA BLA BLA BLA BLA BLA BLA 
BLA BLA BLA BLA BLA BLA BLA BLA BLA BLA BLA BLA BLA BLA BLA BLA BLA BLA BLA BLA 
BLA BLA BLA BLA BLA BLA BLA BLA BLA BLA BLA BLA BLA BLA BLA BLA BLA BLA BLA BLA 
BLA BLA BLA BLA BLA BLA BLA BLA BLA BLA BLA BLA BLA BLA BLA BLA BLA BLA BLA BLA 
BLA BLA BLA BLA BLA BLA BLA BLA BLA BLA BLA BLA BLA BLA BLA BLA BLA BLA BLA BLA 
BLA BLA BLA BLA BLA BLA BLA BLA BLA BLA BLA BLA BLA BLA BLA BLA BLA BLA BLA BLA 
BLA BLA BLA BLA BLA BLA BLA BLA BLA BLA BLA BLA BLA BLA BLA BLA BLA BLA BLA BLA 
BLA BLA BLA BLA BLA BLA BLA BLA BLA BLA BLA BLA BLA BLA BLA BLA BLA BLA BLA BLA 
BLA BLA BLA BLA BLA BLA BLA BLA BLA BLA BLA BLA BLA BLA BLA BLA BLA BLA BLA BLA 
BLA BLA BLA BLA BLA BLA BLA BLA BLA BLA BLA BLA BLA BLA BLA BLA BLA BLA BLA BLA 
BLA BLA BLA BLA BLA BLA BLA BLA BLA BLA BLA BLA BLA BLA BLA BLA BLA BLA BLA BLA 
BLA BLA BLA BLA BLA BLA BLA BLA BLA BLA BLA BLA BLA BLA BLA BLA BLA BLA BLA BLA 
BLA BLA BLA BLA BLA BLA BLA BLA BLA BLA BLA BLA BLA BLA BLA BLA BLA BLA BLA BLA 
BLA BLA BLA BLA BLA BLA BLA BLA BLA BLA BLA BLA BLA BLA BLA BLA BLA BLA BLA BLA 
BLA BLA BLA BLA BLA BLA BLA BLA BLA BLA BLA BLA BLA BLA BLA BLA BLA BLA BLA BLA 
BLA BLA BLA BLA BLA BLA BLA BLA BLA BLA BLA BLA BLA BLA BLA BLA BLA BLA BLA BLA 
BLA BLA BLA BLA BLA BLA BLA BLA BLA BLA BLA BLA BLA BLA BLA BLA BLA BLA BLA BLA 
BLA BLA BLA BLA BLA BLA BLA BLA BLA BLA BLA BLA BLA BLA BLA BLA BLA BLA BLA BLA 
BLA BLA BLA BLA BLA BLA BLA BLA BLA BLA BLA BLA BLA BLA BLA BLA BLA BLA BLA BLA 
BLA BLA BLA BLA BLA BLA BLA BLA BLA BLA BLA BLA BLA BLA BLA BLA BLA BLA BLA BLA 
BLA BLA BLA BLA BLA BLA BLA BLA BLA BLA BLA BLA BLA BLA BLA BLA BLA BLA BLA BLA 
BLA BLA BLA BLA BLA BLA BLA BLA BLA BLA BLA BLA BLA BLA BLA BLA BLA BLA BLA BLA 
BLA BLA BLA BLA BLA BLA BLA BLA BLA BLA BLA BLA BLA BLA BLA BLA BLA BLA BLA BLA 
BLA BLA BLA BLA BLA BLA BLA BLA BLA BLA BLA BLA BLA BLA BLA BLA BLA BLA BLA BLA 
BLA BLA BLA BLA BLA BLA BLA BLA BLA BLA BLA BLA BLA BLA BLA BLA BLA BLA BLA BLA 
BLA BLA BLA BLA BLA BLA BLA BLA BLA BLA BLA BLA BLA BLA BLA BLA BLA BLA BLA BLA 
BLA BLA BLA BLA BLA BLA BLA BLA BLA BLA BLA BLA BLA BLA BLA BLA BLA BLA BLA BLA 
BLA BLA BLA BLA BLA BLA BLA BLA BLA BLA BLA BLA BLA BLA BLA BLA BLA BLA BLA BLA 
BLA BLA BLA BLA BLA BLA BLA BLA BLA BLA BLA BLA BLA BLA BLA BLA BLA BLA BLA BLA 
BLA BLA BLA BLA BLA BLA BLA BLA BLA BLA BLA BLA BLA BLA BLA BLA BLA BLA BLA BLA 
BLA BLA BLA BLA BLA BLA BLA BLA BLA BLA BLA BLA BLA BLA BLA BLA BLA BLA BLA BLA 
BLA BLA BLA BLA BLA BLA BLA BLA BLA BLA BLA BLA BLA BLA BLA BLA BLA BLA BLA BLA 
BLA BLA BLA BLA BLA BLA BLA BLA BLA BLA BLA BLA BLA BLA BLA BLA BLA BLA BLA BLA 
BLA BLA BLA BLA BLA BLA BLA BLA BLA BLA BLA BLA BLA BLA BLA BLA BLA BLA BLA BLA 
BLA BLA BLA BLA BLA BLA BLA BLA BLA BLA BLA BLA BLA BLA BLA BLA BLA BLA BLA BLA 
BLA BLA BLA BLA BLA BLA BLA BLA BLA BLA BLA BLA BLA BLA BLA BLA BLA BLA BLA BLA 
BLA BLA BLA BLA BLA BLA BLA BLA BLA BLA BLA BLA BLA BLA BLA BLA BLA BLA BLA BLA 
BLA BLA BLA BLA BLA BLA BLA BLA BLA BLA BLA BLA BLA BLA BLA BLA BLA BLA BLA BLA 
BLA BLA BLA BLA BLA BLA BLA BLA BLA BLA BLA BLA BLA BLA BLA BLA BLA BLA BLA BLA 
BLA BLA BLA BLA BLA BLA BLA BLA BLA BLA BLA BLA BLA BLA BLA BLA BLA BLA BLA BLA 
BLA BLA BLA BLA BLA BLA BLA BLA BLA BLA BLA BLA BLA BLA BLA BLA BLA BLA BLA BLA 
BLA BLA BLA BLA BLA BLA BLA BLA BLA BLA BLA BLA BLA BLA BLA BLA BLA BLA BLA BLA 
BLA BLA BLA BLA BLA BLA BLA BLA BLA BLA BLA BLA BLA BLA BLA BLA BLA BLA BLA BLA 
BLA BLA BLA BLA BLA BLA BLA BLA BLA BLA BLA BLA BLA BLA BLA BLA BLA BLA BLA BLA 
BLA BLA BLA BLA BLA BLA BLA BLA BLA BLA BLA BLA BLA BLA BLA BLA BLA BLA BLA BLA 
BLA BLA BLA BLA BLA BLA BLA BLA BLA BLA BLA BLA BLA BLA BLA BLA BLA BLA BLA BLA 
BLA BLA BLA BLA BLA BLA BLA BLA BLA BLA BLA BLA BLA BLA BLA BLA BLA BLA BLA BLA 
BLA BLA BLA BLA BLA BLA BLA BLA BLA BLA BLA BLA BLA BLA BLA BLA BLA BLA BLA BLA 
BLA BLA BLA BLA BLA BLA BLA BLA BLA BLA BLA BLA BLA BLA BLA BLA BLA BLA BLA BLA 
BLA BLA BLA BLA BLA BLA BLA BLA BLA BLA BLA BLA BLA BLA BLA BLA BLA BLA BLA BLA 
BLA BLA BLA BLA BLA BLA BLA BLA BLA BLA BLA BLA BLA BLA BLA BLA BLA BLA BLA BLA 
BLA BLA BLA BLA BLA BLA BLA BLA BLA BLA BLA BLA BLA BLA BLA BLA BLA BLA BLA BLA 
BLA BLA BLA BLA BLA BLA BLA BLA BLA BLA BLA BLA BLA BLA BLA BLA BLA BLA BLA BLA 
BLA BLA BLA BLA BLA BLA BLA BLA BLA BLA BLA BLA BLA BLA BLA BLA BLA BLA BLA BLA 
BLA BLA BLA BLA BLA BLA BLA BLA BLA BLA BLA BLA BLA BLA BLA BLA BLA BLA BLA BLA 
BLA BLA BLA BLA BLA BLA BLA BLA BLA BLA BLA BLA BLA BLA BLA BLA BLA BLA BLA BLA 
BLA BLA BLA BLA BLA BLA BLA BLA BLA BLA BLA BLA BLA BLA BLA BLA BLA BLA BLA BLA 
BLA BLA BLA BLA BLA BLA BLA BLA BLA BLA BLA BLA BLA BLA BLA BLA BLA BLA BLA BLA 
BLA BLA BLA BLA BLA BLA BLA BLA BLA BLA BLA BLA BLA BLA BLA BLA BLA BLA BLA BLA 
BLA BLA BLA BLA BLA BLA BLA BLA BLA BLA BLA BLA BLA BLA BLA BLA BLA BLA BLA BLA 
BLA BLA BLA BLA BLA BLA BLA BLA BLA BLA BLA BLA BLA BLA BLA BLA BLA BLA BLA BLA 
BLA BLA BLA BLA BLA BLA BLA BLA BLA BLA BLA BLA BLA BLA BLA BLA BLA BLA BLA BLA 
BLA BLA BLA BLA BLA BLA BLA BLA BLA BLA BLA BLA BLA BLA BLA BLA BLA BLA BLA BLA 
BLA BLA BLA BLA BLA BLA BLA BLA BLA BLA BLA BLA BLA BLA BLA BLA BLA BLA BLA BLA 
BLA BLA BLA BLA BLA BLA BLA BLA BLA BLA BLA BLA BLA BLA BLA BLA BLA BLA BLA BLA 
BLA BLA BLA BLA BLA BLA BLA BLA BLA BLA BLA BLA BLA BLA BLA BLA BLA BLA BLA BLA 
BLA BLA BLA BLA BLA BLA BLA BLA BLA BLA BLA BLA BLA BLA BLA BLA BLA BLA BLA BLA 
BLA BLA BLA BLA BLA BLA BLA BLA BLA BLA BLA BLA BLA BLA BLA BLA BLA BLA BLA BLA 
BLA BLA BLA BLA BLA BLA BLA BLA BLA BLA BLA BLA BLA BLA BLA BLA BLA BLA BLA BLA 
BLA BLA BLA BLA BLA BLA BLA BLA BLA BLA BLA BLA BLA BLA BLA BLA BLA BLA BLA BLA 
BLA BLA BLA BLA BLA BLA BLA BLA BLA BLA BLA BLA BLA BLA BLA BLA BLA BLA BLA BLA 
BLA BLA BLA BLA BLA BLA BLA BLA BLA BLA BLA BLA BLA BLA BLA BLA BLA BLA BLA BLA 
BLA BLA BLA BLA BLA BLA BLA BLA BLA BLA BLA BLA BLA BLA BLA BLA BLA BLA BLA BLA 
BLA BLA BLA BLA BLA BLA BLA BLA BLA BLA BLA BLA BLA BLA BLA BLA BLA BLA BLA BLA 
BLA BLA BLA BLA BLA BLA BLA BLA BLA BLA BLA BLA BLA BLA BLA BLA BLA BLA BLA BLA 
BLA BLA BLA BLA BLA BLA BLA BLA BLA BLA BLA BLA BLA BLA BLA BLA BLA BLA BLA BLA 
BLA BLA BLA BLA BLA BLA BLA BLA BLA BLA BLA BLA BLA BLA BLA BLA BLA BLA BLA BLA 
BLA BLA BLA BLA BLA BLA BLA BLA BLA BLA BLA BLA BLA BLA BLA BLA BLA BLA BLA BLA 
BLA BLA BLA BLA BLA BLA BLA BLA BLA BLA BLA BLA BLA BLA BLA BLA BLA BLA BLA BLA 
BLA BLA BLA BLA BLA BLA BLA BLA BLA BLA BLA BLA BLA BLA BLA BLA BLA BLA BLA BLA 
BLA BLA BLA BLA BLA BLA BLA BLA BLA BLA BLA BLA BLA BLA BLA BLA BLA BLA BLA BLA 
BLA BLA BLA BLA BLA BLA BLA BLA BLA BLA BLA BLA BLA BLA BLA BLA BLA BLA BLA BLA 
BLA BLA BLA BLA BLA BLA BLA BLA BLA BLA BLA BLA BLA BLA BLA BLA BLA BLA BLA BLA 
BLA BLA BLA BLA BLA BLA BLA BLA BLA BLA BLA BLA BLA BLA BLA BLA BLA BLA BLA BLA 
BLA BLA BLA BLA BLA BLA BLA BLA BLA BLA BLA BLA BLA BLA BLA BLA BLA BLA BLA BLA 
BLA BLA BLA BLA BLA BLA BLA BLA BLA BLA BLA BLA BLA BLA BLA BLA BLA BLA BLA BLA 
BLA BLA BLA BLA BLA BLA BLA BLA BLA BLA BLA BLA BLA BLA BLA BLA BLA BLA BLA BLA 
BLA BLA BLA BLA BLA BLA BLA BLA BLA BLA BLA BLA BLA BLA BLA BLA BLA BLA BLA BLA 
BLA BLA BLA BLA BLA BLA BLA BLA BLA BLA BLA BLA BLA BLA BLA BLA BLA BLA BLA BLA 
BLA BLA BLA BLA BLA BLA BLA BLA BLA BLA BLA BLA BLA BLA BLA BLA BLA BLA BLA BLA 
BLA BLA BLA BLA BLA BLA BLA BLA BLA BLA BLA BLA BLA BLA BLA BLA BLA BLA BLA BLA 
BLA BLA BLA BLA BLA BLA BLA BLA BLA BLA BLA BLA BLA BLA BLA BLA BLA BLA BLA BLA 
BLA BLA BLA BLA BLA BLA BLA BLA BLA BLA BLA BLA BLA BLA BLA BLA BLA BLA BLA BLA 
BLA BLA BLA BLA BLA BLA BLA BLA BLA BLA BLA BLA BLA BLA BLA BLA BLA BLA BLA BLA 
BLA BLA BLA BLA BLA BLA BLA BLA BLA BLA BLA BLA BLA BLA BLA BLA BLA BLA BLA BLA 
BLA BLA BLA BLA BLA BLA BLA BLA BLA BLA BLA BLA BLA BLA BLA BLA BLA BLA BLA BLA 
BLA BLA BLA BLA BLA BLA BLA BLA BLA BLA BLA BLA BLA BLA BLA BLA BLA BLA BLA BLA 
BLA BLA BLA BLA BLA BLA BLA BLA BLA BLA BLA BLA BLA BLA BLA BLA BLA BLA BLA BLA 
BLA BLA BLA BLA BLA BLA BLA BLA BLA BLA BLA BLA BLA BLA BLA BLA BLA BLA BLA BLA 
BLA BLA BLA BLA BLA BLA BLA BLA BLA BLA BLA BLA BLA BLA BLA BLA BLA BLA BLA BLA 
BLA BLA BLA BLA BLA BLA BLA BLA BLA BLA BLA BLA BLA BLA BLA BLA BLA BLA BLA BLA 
BLA BLA BLA BLA BLA BLA BLA BLA BLA BLA BLA BLA BLA BLA BLA BLA BLA BLA BLA BLA 
BLA BLA BLA BLA BLA BLA BLA BLA BLA BLA BLA BLA BLA BLA BLA BLA BLA BLA BLA BLA 
BLA BLA BLA BLA 
%FLAG JOIN_ARRAY                                                                
%FORMAT(10I8)                                                                   
       0       0       0       0       0       0       0       0       0       0
       0       0       0       0       0       0       0       0       0       0
       0       0       0       0       0       0       0       0       0       0
       0       0       0       0       0       0       0       0       0       0
       0       0       0       0       0       0       0       0       0       0
       0       0       0       0       0       0       0       0       0       0
       0       0       0       0       0       0       0       0       0       0
       0       0       0       0       0       0       0       0       0       0
       0       0       0       0       0       0       0       0       0       0
       0       0       0       0       0       0       0       0       0       0
       0       0       0       0       0       0       0       0       0       0
       0       0       0       0       0       0       0       0       0       0
       0       0       0       0       0       0       0       0       0       0
       0       0       0       0       0       0       0       0       0       0
       0       0       0       0       0       0       0       0       0       0
       0       0       0       0       0       0       0       0       0       0
       0       0       0       0       0       0       0       0       0       0
       0       0       0       0       0       0       0       0       0       0
       0       0       0       0       0       0       0       0       0       0
       0       0       0       0       0       0       0       0       0       0
       0       0       0       0       0       0       0       0       0       0
       0       0       0       0       0       0       0       0       0       0
       0       0       0       0       0       0       0       0       0       0
       0       0       0       0       0       0       0       0       0       0
       0       0       0       0       0       0       0       0       0       0
       0       0       0       0       0       0       0       0       0       0
       0       0       0       0       0       0       0       0       0       0
       0       0       0       0       0       0       0       0       0       0
       0       0       0       0       0       0       0       0       0       0
       0       0       0       0       0       0       0       0       0       0
       0       0       0       0       0       0       0       0       0       0
       0       0       0       0       0       0       0       0       0       0
       0       0       0       0       0       0       0       0       0       0
       0       0       0       0       0       0       0       0       0       0
       0       0       0       0       0       0       0       0       0       0
       0       0       0       0       0       0       0       0       0       0
       0       0       0       0       0       0       0       0       0       0
       0       0       0       0       0       0       0       0       0       0
       0       0       0       0       0       0       0       0       0       0
       0       0       0       0       0       0       0       0       0       0
       0       0       0       0       0       0       0       0       0       0
       0       0       0       0       0       0       0       0       0       0
       0       0       0       0       0       0       0       0       0       0
       0       0       0       0       0       0       0       0       0       0
       0       0       0       0       0       0       0       0       0       0
       0       0       0       0       0       0       0       0       0       0
       0       0       0       0       0       0       0       0       0       0
       0       0       0       0       0       0       0       0       0       0
       0       0       0       0       0       0       0       0       0       0
       0       0       0       0       0       0       0       0       0       0
       0       0       0       0       0       0       0       0       0       0
       0       0       0       0       0       0       0       0       0       0
       0       0       0       0       0       0       0       0       0       0
       0       0       0       0       0       0       0       0       0       0
       0       0       0       0       0       0       0       0       0       0
       0       0       0       0       0       0       0       0       0       0
       0       0       0       0       0       0       0       0       0       0
       0       0       0       0       0       0       0       0       0       0
       0       0       0       0       0       0       0       0       0       0
       0       0       0       0       0       0       0       0       0       0
       0       0       0       0       0       0       0       0       0       0
       0       0       0       0       0       0       0       0       0       0
       0       0       0       0       0       0       0       0       0       0
       0       0       0       0       0       0       0       0       0       0
       0       0       0       0       0       0       0       0       0       0
       0       0       0       0       0       0       0       0       0       0
       0       0       0       0       0       0       0       0       0       0
       0       0       0       0       0       0       0       0       0       0
       0       0       0       0       0       0       0       0       0       0
       0       0       0       0       0       0       0       0       0       0
       0       0       0       0       0       0       0       0       0       0
       0       0       0       0       0       0       0       0       0       0
       0       0       0       0       0       0       0       0       0       0
       0       0       0       0       0       0       0       0       0       0
       0       0       0       0       0       0       0       0       0       0
       0       0       0       0       0       0       0       0       0       0
       0       0       0       0       0       0       0       0       0       0
       0       0       0       0       0       0       0       0       0       0
       0       0       0       0       0       0       0       0       0       0
       0       0       0       0       0       0       0       0       0       0
       0       0       0       0       0       0       0       0       0       0
       0       0       0       0       0       0       0       0       0       0
       0       0       0       0       0       0       0       0       0       0
       0       0       0       0       0       0       0       0       0       0
       0       0       0       0       0       0       0       0       0       0
       0       0       0       0       0       0       0       0       0       0
       0       0       0       0       0       0       0       0       0       0
       0       0       0       0       0       0       0       0       0       0
       0       0       0       0       0       0       0       0       0       0
       0       0       0       0       0       0       0       0       0       0
       0       0       0       0       0       0       0       0       0       0
       0       0       0       0       0       0       0       0       0       0
       0       0       0       0       0       0       0       0       0       0
       0       0       0       0       0       0       0       0       0       0
       0       0       0       0       0       0       0       0       0       0
       0       0       0       0       0       0       0       0       0       0
       0       0       0       0       0       0       0       0       0       0
       0       0       0       0       0       0       0       0       0       0
       0       0       0       0       0       0       0       0       0       0
       0       0       0       0       0       0       0       0       0       0
       0       0       0       0       0       0       0       0       0       0
       0       0       0       0       0       0       0       0       0       0
       0       0       0       0       0       0       0       0       0       0
       0       0       0       0       0       0       0       0       0       0
       0       0       0       0       0       0       0       0       0       0
       0       0       0       0       0       0       0       0       0       0
       0       0       0       0       0       0       0       0       0       0
       0       0       0       0       0       0       0       0       0       0
       0       0       0       0       0       0       0       0       0       0
       0       0       0       0       0       0       0       0       0       0
       0       0       0       0       0       0       0       0       0       0
       0       0       0       0       0       0       0       0       0       0
       0       0       0       0       0       0       0       0       0       0
       0       0       0       0       0       0       0       0       0       0
       0       0       0       0       0       0       0       0       0       0
       0       0       0       0       0       0       0       0       0       0
       0       0       0       0       0       0       0       0       0       0
       0       0       0       0       0       0       0       0       0       0
       0       0       0       0       0       0       0       0       0       0
       0       0       0       0       0       0       0       0       0       0
       0       0       0       0       0       0       0       0       0       0
       0       0       0       0       0       0       0       0       0       0
       0       0       0       0       0       0       0       0       0       0
       0       0       0       0       0       0       0       0       0       0
       0       0       0       0       0       0       0       0       0       0
       0       0       0       0       0       0       0       0       0       0
       0       0       0       0       0       0       0       0       0       0
       0       0       0       0       0       0       0       0       0       0
       0       0       0       0       0       0       0       0       0       0
       0       0       0       0       0       0       0       0       0       0
       0       0       0       0       0       0       0       0       0       0
       0       0       0       0       0       0       0       0       0       0
       0       0       0       0       0       0       0       0       0       0
       0       0       0       0       0       0       0       0       0       0
       0       0       0       0       0       0       0       0       0       0
       0       0       0       0       0       0       0       0       0       0
       0       0       0       0       0       0       0       0       0       0
       0       0       0       0       0       0       0       0       0       0
       0       0       0       0       0       0       0       0       0       0
       0       0       0       0       0       0       0       0       0       0
       0       0       0       0       0       0       0       0       0       0
       0       0       0       0       0       0       0       0       0       0
       0       0       0       0       0       0       0       0       0       0
       0       0       0       0       0       0       0       0       0       0
       0       0       0       0       0       0       0       0       0       0
       0       0       0       0       0       0       0       0       0       0
       0       0       0       0       0       0       0       0       0       0
       0       0       0       0       0       0       0       0       0       0
       0       0       0       0       0       0       0       0       0       0
       0       0       0       0       0       0       0       0       0       0
       0       0       0       0       0       0       0       0       0       0
       0       0       0       0       0       0       0       0       0       0
       0       0       0       0       0       0       0       0       0       0
       0       0       0       0       0       0       0       0       0       0
       0       0       0       0       0       0       0       0       0       0
       0       0       0       0       0       0       0       0       0       0
       0       0       0       0       0       0       0       0       0       0
       0       0       0       0       0       0       0       0       0       0
       0       0       0       0       0       0       0       0       0       0
       0       0       0       0       0       0       0       0       0       0
       0       0       0       0       0       0       0       0       0       0
       0       0       0       0       0       0       0       0       0       0
       0       0       0       0       0       0       0       0       0       0
       0       0       0       0       0       0       0       0       0       0
       0       0       0       0       0       0       0       0       0       0
       0       0       0       0       0       0       0       0       0       0
       0       0       0       0       0       0       0       0       0       0
       0       0       0       0       0       0       0       0       0       0
       0       0       0       0       0       0       0       0       0       0
       0       0       0       0       0       0       0       0       0       0
       0       0       0       0       0       0       0       0       0       0
       0       0       0       0       0       0       0       0       0       0
       0       0       0       0       0       0       0       0       0       0
       0       0       0       0       0       0       0       0       0       0
       0       0       0       0       0       0       0       0       0       0
       0       0       0       0       0       0       0       0       0       0
       0       0       0       0       0       0       0       0       0       0
       0       0       0       0       0       0       0       0       0       0
       0       0       0       0       0       0       0       0       0       0
       0       0       0       0       0       0       0       0       0       0
       0       0       0       0       0       0       0       0       0       0
       0       0       0       0       0       0       0       0       0       0
       0       0       0       0       0       0       0       0       0       0
       0       0       0       0       0       0       0       0       0       0
       0       0       0       0       0       0       0       0       0       0
       0       0       0       0       0       0       0       0       0       0
       0       0       0       0       0       0       0       0       0       0
       0       0       0       0       0       0       0       0       0       0
       0       0       0       0       0       0       0       0       0       0
       0       0       0       0       0       0       0       0       0       0
       0       0       0       0       0       0       0       0       0       0
       0       0       0       0       0       0       0       0       0       0
       0       0       0       0       0       0       0       0       0       0
       0       0       0       0       0       0       0       0       0       0
       0       0       0       0       0       0       0       0       0       0
       0       0       0       0       0       0       0       0       0       0
       0       0       0       0       0       0       0       0       0       0
       0       0       0       0       0       0       0       0       0       0
       0       0       0       0       0       0       0       0       0       0
       0       0       0       0       0       0       0       0       0       0
       0       0       0       0       0       0       0       0       0       0
       0       0       0       0       0       0       0       0       0       0
       0       0       0       0       0       0       0       0       0       0
       0       0       0       0       0       0       0       0       0       0
       0       0       0       0       0       0       0       0       0       0
       0       0       0       0       0       0       0       0       0       0
       0       0       0       0       0       0       0       0       0       0
       0       0       0       0       0       0       0       0       0       0
       0       0       0       0       0       0       0       0       0       0
       0       0       0       0       0       0       0       0       0       0
       0       0       0       0       0       0       0       0       0       0
       0       0       0       0       0       0       0       0       0       0
       0       0       0       0       0       0       0       0       0       0
       0       0       0       0       0       0       0       0       0       0
       0       0       0       0       0       0       0       0       0       0
       0       0       0       0       0       0       0       0       0       0
       0       0       0       0       0       0       0       0       0       0
       0       0       0       0       0       0       0       0       0       0
       0       0       0       0       0       0       0       0       0       0
       0       0       0       0       0       0       0       0       0       0
       0       0       0       0       0       0       0       0       0       0
       0       0       0       0       0       0       0       0       0       0
       0       0       0       0       0       0       0       0       0       0
       0       0       0       0       0       0       0       0       0       0
       0       0       0       0       0       0       0       0       0       0
       0       0       0       0       0       0       0       0       0       0
       0       0       0       0       0       0       0       0       0       0
       0       0       0       0       0       0       0       0       0       0
       0       0       0       0       0       0       0       0       0       0
       0       0       0       0       0       0       0       0       0       0
       0       0       0       0       0       0       0       0       0       0
       0       0       0       0       0       0       0       0       0       0
       0       0       0       0       0       0       0       0       0       0
       0       0       0       0       0       0       0       0       0       0
       0       0       0       0       0       0       0       0       0       0
       0       0       0       0       0       0       0       0       0       0
       0       0       0       0       0       0       0       0       0       0
       0       0       0       0       0       0       0       0       0       0
       0       0       0       0       0       0       0       0       0       0
       0       0       0       0       0       0       0       0       0       0
       0       0       0       0       0       0       0       0       0       0
       0       0       0       0       0       0       0       0       0       0
       0       0       0       0       0       0       0       0       0       0
       0       0       0       0       0       0       0       0       0       0
       0       0       0       0       0       0       0       0       0       0
       0       0       0       0       0       0       0       0       0       0
       0       0       0       0       0       0       0       0       0       0
       0       0       0       0       0       0       0       0       0       0
       0       0       0       0       0       0       0       0       0       0
       0       0       0       0       0       0       0       0       0       0
       0       0       0       0       0       0       0       0       0       0
       0       0       0       0       0       0       0       0       0       0
       0       0       0       0       0       0       0       0       0       0
       0       0       0       0       0       0       0       0       0       0
       0       0       0       0       0       0       0       0       0       0
       0       0       0       0       0       0       0       0       0       0
       0       0       0       0       0       0       0       0       0       0
       0       0       0       0       0       0       0       0       0       0
       0       0       0       0       0       0       0       0       0       0
       0       0       0       0       0       0       0       0       0       0
       0       0       0       0       0       0       0       0       0       0
       0       0       0       0       0       0       0       0       0       0
       0       0       0       0       0       0       0       0       0       0
       0       0       0       0       0       0       0       0       0       0
       0       0       0       0       0       0       0       0       0       0
       0       0       0       0       0       0       0       0       0       0
       0       0       0       0       0       0       0       0       0       0
       0       0       0       0       0       0       0       0       0       0
       0       0       0       0       0       0       0       0       0       0
       0       0       0       0       0       0       0       0       0       0
       0       0       0       0       0       0       0       0       0       0
       0       0       0       0       0       0       0       0       0       0
       0       0       0       0       0       0       0       0       0       0
       0       0       0       0       0       0       0       0       0       0
       0       0       0       0       0       0       0       0       0       0
       0       0       0       0       0       0       0       0       0       0
       0       0       0       0       0       0       0       0       0       0
       0       0       0       0       0       0       0       0       0       0
       0       0       0       0       0       0       0       0       0       0
       0       0       0       0       0       0       0       0       0       0
       0       0       0       0       0       0       0       0       0       0
       0       0       0       0       0       0       0       0       0       0
       0       0       0       0       0       0       0       0       0       0
       0       0       0       0       0       0       0       0       0       0
       0       0       0       0       0       0       0       0       0       0
       0       0       0       0       0       0       0       0       0       0
       0       0       0       0       0       0       0       0       0       0
       0       0       0       0       0       0       0       0       0       0
       0       0       0       0       0       0       0       0       0       0
       0       0       0       0       0       0       0       0       0       0
       0       0       0       0       0       0       0       0       0       0
       0       0       0       0       0       0       0       0       0       0
       0       0       0       0       0       0       0       0       0       0
       0       0       0       0       0       0       0       0       0       0
       0       0       0       0       0       0       0       0       0       0
       0       0       0       0       0       0       0       0       0       0
       0       0       0       0       0       0       0       0       0       0
       0       0       0       0       0       0       0       0       0       0
       0       0       0       0       0       0       0       0       0       0
       0       0       0       0       0       0       0       0       0       0
       0       0       0       0       0       0       0       0       0       0
       0       0       0       0       0       0       0       0       0       0
       0       0       0       0       0       0       0       0       0       0
       0       0       0       0       0       0       0       0       0       0
       0       0       0       0       0       0       0       0       0       0
       0       0       0       0       0       0       0       0       0       0
       0       0       0       0       0       0       0       0       0       0
       0       0       0       0       0       0       0       0       0       0
       0       0       0       0       0       0       0       0       0       0
       0       0       0       0       0       0       0       0       0       0
       0       0       0       0       0       0       0       0       0       0
       0       0       0       0       0       0       0       0       0       0
       0       0       0       0       0       0       0       0       0       0
       0       0       0       0       0       0       0       0       0       0
       0       0       0       0       0       0       0       0       0       0
       0       0       0       0       0       0       0       0       0       0
       0       0       0       0       0       0       0       0       0       0
       0       0       0       0       0       0       0       0       0       0
       0       0       0       0       0       0       0       0       0       0
       0       0       0       0       0       0       0       0       0       0
       0       0       0       0       0       0       0       0       0       0
       0       0       0       0       0       0       0       0       0       0
       0       0       0       0       0       0       0       0       0       0
       0       0       0       0       0       0       0       0       0       0
       0       0       0       0       0       0       0       0       0       0
       0       0       0       0       0       0       0       0       0       0
       0       0       0       0       0       0       0       0       0       0
       0       0       0       0       0       0       0       0       0       0
       0       0       0       0       0       0       0       0       0       0
       0       0       0       0       0       0       0       0       0       0
       0       0       0       0       0       0       0       0       0       0
       0       0       0       0       0       0       0       0       0       0
       0       0       0       0       0       0       0       0       0       0
       0       0       0       0       0       0       0       0       0       0
       0       0       0       0       0       0       0       0       0       0
       0       0       0       0       0       0       0       0       0       0
       0       0       0       0       0       0       0       0       0       0
       0       0       0       0       0       0       0       0       0       0
       0       0       0       0       0       0       0       0       0       0
       0       0       0       0       0       0       0       0       0       0
       0       0       0       0       0       0       0       0       0       0
       0       0       0       0       0       0       0       0       0       0
       0       0       0       0       0       0       0       0       0       0
       0       0       0       0       0       0       0       0       0       0
       0       0       0       0       0       0       0       0       0       0
       0       0       0       0       0       0       0       0       0       0
       0       0       0       0       0       0       0       0       0       0
       0       0       0       0       0       0       0       0       0       0
       0       0       0       0       0       0       0       0       0       0
       0       0       0       0       0       0       0       0       0       0
       0       0       0       0       0       0       0       0       0       0
       0       0       0       0       0       0       0       0       0       0
       0       0       0       0       0       0       0       0       0       0
       0       0       0       0       0       0       0       0       0       0
       0       0       0       0       0       0       0       0       0       0
       0       0       0       0       0       0       0       0       0       0
       0       0       0       0       0       0       0       0       0       0
       0       0       0       0       0       0       0       0       0       0
       0       0       0       0       0       0       0       0       0       0
       0       0       0       0       0       0       0       0       0       0
       0       0       0       0       0       0       0       0       0       0
       0       0       0       0       0       0       0       0       0       0
       0       0       0       0       0       0       0       0       0       0
       0       0       0       0       0       0       0       0       0       0
       0       0       0       0       0       0       0       0       0       0
       0       0       0       0       0       0       0       0       0       0
       0       0       0       0       0       0       0       0       0       0
       0       0       0       0       0       0       0       0       0       0
       0       0       0       0       0       0       0       0       0       0
       0       0       0       0       0       0       0       0       0       0
       0       0       0       0       0       0       0       0       0       0
       0       0       0       0       0       0       0       0       0       0
       0       0       0       0       0       0       0       0       0       0
       0       0       0       0       0       0       0       0       0       0
       0       0       0       0       0       0       0       0       0       0
       0       0       0       0       0       0       0       0       0       0
       0       0       0       0       0       0       0       0       0       0
       0       0       0       0       0       0       0       0       0       0
       0       0       0       0       0       0       0       0       0       0
       0       0       0       0       0       0       0       0       0       0
       0       0       0       0       0       0       0       0       0       0
       0       0       0       0       0       0       0       0       0       0
       0       0       0       0       0       0       0       0       0       0
       0       0       0       0       0       0       0       0       0       0
       0       0       0       0       0       0       0       0       0       0
       0       0       0       0       0       0       0       0       0       0
       0       0       0       0       0       0       0       0       0       0
       0       0       0       0       0       0       0       0       0       0
       0       0       0       0       0       0       0       0       0       0
       0       0       0       0       0       0       0       0       0       0
       0       0       0       0       0       0       0       0       0       0
       0       0       0       0       0       0       0       0       0       0
       0       0       0       0       0       0       0       0       0       0
       0       0       0       0       0       0       0       0       0       0
       0       0       0       0       0       0       0       0       0       0
       0       0       0       0       0       0       0       0       0       0
       0       0       0       0       0       0       0       0       0       0
       0       0       0       0       0       0       0       0       0       0
       0       0       0       0       0       0       0       0       0       0
       0       0       0       0       0       0       0       0       0       0
       0       0       0       0       0       0       0       0       0       0
       0       0       0       0       0       0       0       0       0       0
       0       0       0       0       0       0       0       0       0       0
       0       0       0       0       0       0       0       0       0       0
       0       0       0       0       0       0       0       0       0       0
       0       0       0       0       0       0       0       0       0       0
       0       0       0       0       0       0       0       0       0       0
       0       0       0       0       0       0       0       0       0       0
       0       0       0       0       0       0       0       0       0       0
       0       0       0       0       0       0       0       0       0       0
       0       0       0       0       0       0       0       0       0       0
       0       0       0       0       0       0       0       0       0       0
       0       0       0       0       0       0       0       0       0       0
       0       0       0       0       0       0       0       0       0       0
       0       0       0       0       0       0       0       0       0       0
       0       0       0       0       0       0       0       0       0       0
       0       0       0       0       0       0       0       0       0       0
       0       0       0       0       0       0       0       0       0       0
       0       0       0       0       0       0       0       0       0       0
       0       0       0       0       0       0       0       0       0       0
       0       0       0       0       0       0       0       0       0       0
       0       0       0       0       0       0       0       0       0       0
       0       0       0       0       0       0       0       0       0       0
       0       0       0       0       0       0       0       0       0       0
       0       0       0       0       0       0       0       0       0       0
       0       0       0       0       0       0       0       0       0       0
       0       0       0       0       0       0       0       0       0       0
       0       0       0       0       0       0       0       0       0       0
       0       0       0       0       0       0       0       0       0       0
       0       0       0       0       0       0       0       0       0       0
       0       0       0       0       0       0       0       0       0       0
       0       0       0       0       0       0       0       0       0       0
       0       0       0       0       0       0       0       0       0       0
       0       0       0       0       0       0       0       0       0       0
       0       0       0       0       0       0       0       0       0       0
       0       0       0       0       0       0       0       0       0       0
       0       0       0       0       0       0       0       0       0       0
       0       0       0       0       0       0       0       0       0       0
       0       0       0       0       0       0       0       0       0       0
       0       0       0       0       0       0       0       0       0       0
       0       0       0       0       0       0       0       0       0       0
       0       0       0       0       0       0       0       0       0       0
       0       0       0       0       0       0       0       0       0       0
       0       0       0       0       0       0       0       0       0       0
       0       0       0       0       0       0       0       0       0       0
       0       0       0       0       0       0       0       0       0       0
       0       0       0       0       0       0       0       0       0       0
       0       0       0       0       0       0       0       0       0       0
       0       0       0       0       0       0       0       0       0       0
       0       0       0       0       0       0       0       0       0       0
       0       0       0       0       0       0       0       0       0       0
       0       0       0       0       0       0       0       0       0       0
       0       0       0       0       0       0       0       0       0       0
       0       0       0       0       0       0       0       0       0       0
       0       0       0       0       0       0       0       0       0       0
       0       0       0       0       0       0       0       0       0       0
       0       0       0       0       0       0       0       0       0       0
       0       0       0       0       0       0       0       0       0       0
       0       0       0       0       0       0       0       0       0       0
       0       0       0       0       0       0       0       0       0       0
       0       0       0       0       0       0       0       0       0       0
       0       0       0       0       0       0       0       0       0       0
       0       0       0       0       0       0       0       0       0       0
       0       0       0       0       0       0       0       0       0       0
       0       0       0       0       0       0       0       0       0       0
       0       0       0       0       0       0       0       0       0       0
       0       0       0       0       0       0       0       0       0       0
       0       0       0       0       0       0       0       0       0       0
       0       0       0       0       0       0       0       0       0       0
       0       0       0       0       0       0       0       0       0       0
       0       0       0       0       0       0       0       0       0       0
       0       0       0       0       0       0       0       0       0       0
       0       0       0       0       0       0       0       0       0       0
       0       0       0       0       0       0       0       0       0       0
       0       0       0       0       0       0       0       0       0       0
       0       0       0       0       0       0       0       0       0       0
       0       0       0       0       0       0       0       0       0       0
       0       0       0       0       0       0       0       0       0       0
       0       0       0       0       0       0       0       0       0       0
       0       0       0       0       0       0       0       0       0       0
       0       0       0       0       0       0       0       0       0       0
       0       0       0       0       0       0       0       0       0       0
       0       0       0       0       0       0       0       0       0       0
       0       0       0       0       0       0       0       0       0       0
       0       0       0       0       0       0       0       0       0       0
       0       0       0       0       0       0       0       0       0       0
       0       0       0       0       0       0       0       0       0       0
       0       0       0       0       0       0       0       0       0       0
       0       0       0       0       0       0       0       0       0       0
       0       0       0       0       0       0       0       0       0       0
       0       0       0       0       0       0       0       0       0       0
       0       0       0       0       0       0       0       0       0       0
       0       0       0       0       0       0       0       0       0       0
       0       0       0       0       0       0       0       0       0       0
       0       0       0       0       0       0       0       0       0       0
       0       0       0       0       0       0       0       0       0       0
       0       0       0       0       0       0       0       0       0       0
       0       0       0       0       0       0       0       0       0       0
       0       0       0       0       0       0       0       0       0       0
       0       0       0       0       0       0       0       0       0       0
       0       0       0       0       0       0       0       0       0       0
       0       0       0       0       0       0       0       0       0       0
       0       0       0       0       0       0       0       0       0       0
       0       0       0       0       0       0       0       0       0       0
       0       0       0       0       0       0       0       0       0       0
       0       0       0       0       0       0       0       0       0       0
       0       0       0       0       0       0       0       0       0       0
       0       0       0       0       0       0       0       0       0       0
       0       0       0       0       0       0       0       0       0       0
       0       0       0       0       0       0       0       0       0       0
       0       0       0       0       0       0       0       0       0       0
       0       0       0       0       0       0       0       0       0       0
       0       0       0       0       0       0       0       0       0       0
       0       0       0       0       0       0       0       0       0       0
       0       0       0       0       0       0       0       0       0       0
       0       0       0       0       0       0       0       0       0       0
       0       0       0       0       0       0       0       0       0       0
       0       0       0       0       0       0       0       0       0       0
       0       0       0       0       0       0       0       0       0       0
       0       0       0       0       0       0       0       0       0       0
       0       0       0       0       0       0       0       0       0       0
       0       0       0       0       0       0       0       0       0       0
       0       0       0       0       0       0       0       0       0       0
       0       0       0       0       0       0       0       0       0       0
       0       0       0       0       0       0       0       0       0       0
       0       0       0       0       0       0       0       0       0       0
       0       0       0       0       0       0       0       0       0       0
       0       0       0       0       0       0       0       0       0       0
       0       0       0       0       0       0       0       0       0       0
       0       0       0       0       0       0       0       0       0       0
       0       0       0       0       0       0       0       0       0       0
       0       0       0       0       0       0       0       0       0       0
       0       0       0       0       0       0       0       0       0       0
       0       0       0       0       0       0       0       0       0       0
       0       0       0       0       0       0       0       0       0       0
       0       0       0       0       0       0       0       0       0       0
       0       0       0       0       0       0       0       0       0       0
       0       0       0       0       0       0       0       0       0       0
       0       0       0       0       0       0       0       0       0       0
       0       0       0       0       0       0       0       0       0       0
       0       0       0       0       0       0       0       0       0       0
       0       0       0       0       0       0       0       0       0       0
       0       0       0       0       0       0       0       0       0       0
       0       0       0       0       0       0       0       0       0       0
       0       0       0       0       0       0       0       0       0       0
       0       0       0       0       0       0       0       0       0       0
       0       0       0       0       0       0       0       0       0       0
       0       0       0       0       0       0       0       0       0       0
       0       0       0       0       0       0       0       0       0       0
       0       0       0       0       0       0       0       0       0       0
       0       0       0       0       0       0       0       0       0       0
       0       0       0       0       0       0       0       0       0       0
       0       0       0       0       0       0       0       0       0       0
       0       0       0       0       0       0       0       0       0       0
       0       0       0       0       0       0       0       0       0       0
       0       0       0       0       0       0       0       0       0       0
       0       0       0       0       0       0       0       0       0       0
       0       0       0       0       0       0       0       0       0       0
       0       0       0       0       0       0       0       0       0       0
       0       0       0       0       0       0       0       0       0       0
       0       0       0       0       0       0       0       0       0       0
       0       0       0       0       0       0       0       0       0       0
       0       0       0       0       0       0       0       0       0       0
       0       0       0       0       0       0       0       0       0       0
       0       0       0       0       0       0       0       0       0       0
       0       0       0       0       0       0       0       0       0       0
       0       0       0       0       0       0       0       0       0       0
       0       0       0       0       0       0       0       0       0       0
       0       0       0       0       0       0       0       0       0       0
       0       0       0       0       0       0       0       0       0       0
       0       0       0       0       0       0       0       0       0       0
       0       0       0       0       0       0       0       0       0       0
       0       0       0       0       0       0       0       0       0       0
       0       0       0       0       0       0       0       0       0       0
       0       0       0       0       0       0       0       0       0       0
       0       0       0       0       0       0       0       0       0       0
       0       0       0       0       0       0       0       0       0       0
       0       0       0       0       0       0       0       0       0       0
       0       0       0       0       0       0       0       0       0       0
       0       0       0       0       0       0       0       0       0       0
       0       0       0       0       0       0       0       0       0       0
       0       0       0       0       0       0       0       0       0       0
       0       0       0       0       0       0       0       0       0       0
       0       0       0       0       0       0       0       0       0       0
       0       0       0       0       0       0       0       0       0       0
       0       0       0       0       0       0       0       0       0       0
       0       0       0       0       0       0       0       0       0       0
       0       0       0       0       0       0       0       0       0       0
       0       0       0       0       0       0       0       0       0       0
       0       0       0       0       0       0       0       0       0       0
       0       0       0       0       0       0       0       0       0       0
       0       0       0       0       0       0       0       0       0       0
       0       0       0       0       0       0       0       0       0       0
       0       0       0       0       0       0       0       0       0       0
       0       0       0       0       0       0       0       0       0       0
       0       0       0       0       0       0       0       0       0       0
       0       0       0       0       0       0       0       0       0       0
       0       0       0       0       0       0       0       0       0       0
       0       0       0       0       0       0       0       0       0       0
       0       0       0       0       0       0       0       0       0       0
       0       0       0       0       0       0       0       0       0       0
       0       0       0       0       0       0       0       0       0       0
       0       0       0       0       0       0       0       0       0       0
       0       0       0       0       0       0       0       0       0       0
       0       0       0       0       0       0       0       0       0       0
       0       0       0       0       0       0       0       0       0       0
       0       0       0       0       0       0       0       0       0       0
       0       0       0       0       0       0       0       0       0       0
       0       0       0       0       0       0       0       0       0       0
       0       0       0       0       0       0       0       0       0       0
       0       0       0       0       0       0       0       0       0       0
       0       0       0       0       0       0       0       0       0       0
       0       0       0       0       0       0       0       0       0       0
       0       0       0       0       0       0       0       0       0       0
       0       0       0       0       0       0       0       0       0       0
       0       0       0       0       0       0       0       0       0       0
       0       0       0       0       0       0       0       0       0       0
       0       0       0       0       0       0       0       0       0       0
       0       0       0       0       0       0       0       0       0       0
       0       0       0       0       0       0       0       0       0       0
       0       0       0       0       0       0       0       0       0       0
       0       0       0       0       0       0       0       0       0       0
       0       0       0       0       0       0       0       0       0       0
       0       0       0       0       0       0       0       0       0       0
       0       0       0       0       0       0       0       0       0       0
       0       0       0       0       0       0       0       0       0       0
       0       0       0       0       0       0       0       0       0       0
       0       0       0       0       0       0       0       0       0       0
       0       0       0       0       0       0       0       0       0       0
       0       0       0       0       0       0       0       0       0       0
       0       0       0       0       0       0       0       0       0       0
       0       0       0       0       0       0       0       0       0       0
       0       0       0       0       0       0       0       0       0       0
       0       0       0       0       0       0       0       0       0       0
       0       0       0       0       0       0       0       0       0       0
       0       0       0       0       0       0       0       0       0       0
       0       0       0       0       0       0       0       0       0       0
       0       0       0       0       0       0       0       0       0       0
       0       0       0       0       0       0       0       0       0       0
       0       0       0       0       0       0       0       0       0       0
       0       0       0       0       0       0       0       0       0       0
       0       0       0       0       0       0       0       0       0       0
       0       0       0       0       0       0       0       0       0       0
       0       0       0       0       0       0       0       0       0       0
       0       0       0       0       0       0       0       0       0       0
       0       0       0       0       0       0       0       0       0       0
       0       0       0       0       0       0       0       0       0       0
       0       0       0       0       0       0       0       0       0       0
       0       0       0       0       0       0       0       0       0       0
       0       0       0       0       0       0       0       0       0       0
       0       0       0       0       0       0       0       0       0       0
       0       0       0       0       0       0       0       0       0       0
       0       0       0       0       0       0       0       0       0       0
       0       0       0       0       0       0       0       0       0       0
       0       0       0       0       0       0       0       0       0       0
       0       0       0       0       0       0       0       0       0       0
       0       0       0       0       0       0       0       0       0       0
       0       0       0       0       0       0       0       0       0       0
       0       0       0       0       0       0       0       0       0       0
       0       0       0       0       0       0       0       0       0       0
       0       0       0       0       0       0       0       0       0       0
       0       0       0       0       0       0       0       0       0       0
       0       0       0       0       0       0       0       0       0       0
       0       0       0       0       0       0       0       0       0       0
       0       0       0       0       0       0       0       0       0       0
       0       0       0       0       0       0       0       0       0       0
       0       0       0       0       0       0       0       0       0       0
       0       0       0       0       0       0       0       0       0       0
       0       0       0       0       0       0       0       0       0       0
       0       0       0       0       0       0       0       0       0       0
       0       0       0       0       0       0       0       0       0       0
       0       0       0       0       0       0       0       0       0       0
       0       0       0       0       0       0       0       0       0       0
       0       0       0       0       0       0       0       0       0       0
       0       0       0       0       0       0       0       0       0       0
       0       0       0       0       0       0       0       0       0       0
       0       0       0       0       0       0       0       0       0       0
       0       0       0       0       0       0       0       0       0       0
       0       0       0       0       0       0       0       0       0       0
       0       0       0       0       0       0       0       0       0       0
       0       0       0       0       0       0       0       0       0       0
       0       0       0       0       0       0       0       0       0       0
       0       0       0       0       0       0       0       0       0       0
       0       0       0       0       0       0       0       0       0       0
       0       0       0       0       0       0       0       0       0       0
       0       0       0       0       0       0       0       0       0       0
       0       0       0       0       0       0       0       0       0       0
       0       0       0       0       0       0       0       0       0       0
       0       0       0       0       0       0       0       0       0       0
       0       0       0       0       0       0       0       0       0       0
       0       0       0       0       0       0       0       0       0       0
       0       0       0       0       0       0       0       0       0       0
       0       0       0       0       0       0       0       0       0       0
       0       0       0       0       0       0       0       0       0       0
       0       0       0       0       0       0       0       0       0       0
       0       0       0       0       0       0       0       0       0       0
       0       0       0       0       0       0       0       0       0       0
       0       0       0       0       0       0       0       0       0       0
       0       0       0       0       0       0       0       0       0       0
       0       0       0       0       0       0       0       0       0       0
       0       0       0       0       0       0       0       0       0       0
       0       0       0       0       0       0       0       0       0       0
       0       0       0       0       0       0       0       0       0       0
       0       0       0       0       0       0       0       0       0       0
       0       0       0       0       0       0       0       0       0       0
       0       0       0       0       0       0       0       0       0       0
       0       0       0       0       0       0       0       0       0       0
       0       0       0       0       0       0       0       0       0       0
       0       0       0       0       0       0       0       0       0       0
       0       0       0       0       0       0       0       0       0       0
       0       0       0       0       0       0       0       0       0       0
       0       0       0       0       0       0       0       0       0       0
       0       0       0       0       0       0       0       0       0       0
       0       0       0       0       0       0       0       0       0       0
       0       0       0       0       0       0       0       0       0       0
       0       0       0       0       0       0       0       0       0       0
       0       0       0       0       0       0       0       0       0       0
       0       0       0       0       0       0       0       0       0       0
       0       0       0       0       0       0       0       0       0       0
       0       0       0       0       0       0       0       0       0       0
       0       0       0       0       0       0       0       0       0       0
       0       0       0       0       0       0       0       0       0       0
       0       0       0       0       0       0       0       0       0       0
       0       0       0       0       0       0       0       0       0       0
       0       0       0       0       0       0       0       0       0       0
       0       0       0       0       0       0       0       0       0       0
       0       0       0       0       0       0       0       0       0       0
       0       0       0       0       0       0       0       0       0       0
       0       0       0       0       0       0       0       0       0       0
       0       0       0       0       0       0       0       0       0       0
       0       0       0       0       0       0       0       0       0       0
       0       0       0       0       0       0       0       0       0       0
       0       0       0       0       0       0       0       0       0       0
       0       0       0       0       0       0       0       0       0       0
       0       0       0       0       0       0       0       0       0       0
       0       0       0       0       0       0       0       0       0       0
       0       0       0       0       0       0       0       0       0       0
       0       0       0       0       0       0       0       0       0       0
       0       0       0       0       0       0       0       0       0       0
       0       0       0       0       0       0       0       0       0       0
       0       0       0       0       0       0       0       0       0       0
       0       0       0       0       0       0       0       0       0       0
       0       0       0       0       0       0       0       0       0       0
       0       0       0       0       0       0       0       0       0       0
       0       0       0       0       0       0       0       0       0       0
       0       0       0       0       0       0       0       0       0       0
       0       0       0       0       0       0       0       0       0       0
       0       0       0       0       0       0       0       0       0       0
       0       0       0       0       0       0       0       0       0       0
       0       0       0       0       0       0       0       0       0       0
       0       0       0       0       0       0       0       0       0       0
       0       0       0       0       0       0       0       0       0       0
       0       0       0       0       0       0       0       0       0       0
       0       0       0       0       0       0       0       0       0       0
       0       0       0       0       0       0       0       0       0       0
       0       0       0       0       0       0       0       0       0       0
       0       0       0       0       0       0       0       0       0       0
       0       0       0       0       0       0       0       0       0       0
       0       0       0       0       0       0       0       0       0       0
       0       0       0       0       0       0       0       0       0       0
       0       0       0       0       0       0       0       0       0       0
       0       0       0       0       0       0       0       0       0       0
       0       0       0       0       0       0       0       0       0       0
       0       0       0       0       0       0       0       0       0       0
       0       0       0       0       0       0       0       0       0       0
       0       0       0       0       0       0       0       0       0       0
       0       0       0       0       0       0       0       0       0       0
       0       0       0       0       0       0       0       0       0       0
       0       0       0       0       0       0       0       0       0       0
       0       0       0       0       0       0       0       0       0       0
       0       0       0       0       0       0       0       0       0       0
       0       0       0       0       0       0       0       0       0       0
       0       0       0       0       0       0       0       0       0       0
       0       0       0       0       0       0       0       0       0       0
       0       0       0       0       0       0       0       0       0       0
       0       0       0       0       0       0       0       0       0       0
       0       0       0       0       0       0       0       0       0       0
       0       0       0       0       0       0       0       0       0       0
       0       0       0       0       0       0       0       0       0       0
       0       0       0       0       0       0       0       0       0       0
       0       0       0       0       0       0       0       0       0       0
       0       0       0       0       0       0       0       0       0       0
       0       0       0       0       0       0       0       0       0       0
       0       0       0       0       0       0       0       0       0       0
       0       0       0       0       0       0       0       0       0       0
       0       0       0       0       0       0       0       0       0       0
       0       0       0       0       0       0       0       0       0       0
       0       0       0       0       0       0       0       0       0       0
       0       0       0       0       0       0       0       0       0       0
       0       0       0       0       0       0       0       0       0       0
       0       0       0       0       0       0       0       0       0       0
       0       0       0       0       0       0       0       0       0       0
       0       0       0       0       0       0       0       0       0       0
       0       0       0       0       0       0       0       0       0       0
       0       0       0       0       0       0       0       0       0       0
       0       0       0       0       0       0       0       0       0       0
       0       0       0       0       0       0       0       0       0       0
       0       0       0       0       0       0       0       0       0       0
       0       0       0       0       0       0       0       0       0       0
       0       0       0       0       0       0       0       0       0       0
       0       0       0       0       0       0       0       0       0       0
       0       0       0       0       0       0       0       0       0       0
       0       0       0       0       0       0       0       0       0       0
       0       0       0       0       0       0       0       0       0       0
       0       0       0       0       0       0       0       0       0       0
       0       0       0       0       0       0       0       0       0       0
       0       0       0       0       0       0       0       0       0       0
       0       0       0       0       0       0       0       0       0       0
       0       0       0       0       0       0       0       0       0       0
       0       0       0       0       0       0       0       0       0       0
       0       0       0       0       0       0       0       0       0       0
       0       0       0       0       0       0       0       0       0       0
       0       0       0       0       0       0       0       0       0       0
       0       0       0       0       0       0       0       0       0       0
       0       0       0       0       0       0       0       0       0       0
       0       0       0       0       0       0       0       0       0       0
       0       0       0       0       0       0       0       0       0       0
       0       0       0       0       0       0       0       0       0       0
       0       0       0       0       0       0       0       0       0       0
       0       0       0       0       0       0       0       0       0       0
       0       0       0       0       0       0       0       0       0       0
       0       0       0       0       0       0       0       0       0       0
       0       0       0       0       0       0       0       0       0       0
       0       0       0       0       0       0       0       0       0       0
       0       0       0       0       0       0       0       0       0       0
       0       0       0       0       0       0       0       0       0       0
       0       0       0       0       0       0       0       0       0       0
       0       0       0       0       0       0       0       0       0       0
       0       0       0       0       0       0       0       0       0       0
       0       0       0       0       0       0       0       0       0       0
       0       0       0       0       0       0       0       0       0       0
       0       0       0       0       0       0       0       0       0       0
       0       0       0       0       0       0       0       0       0       0
       0       0       0       0       0       0       0       0       0       0
       0       0       0       0       0       0       0       0       0       0
       0       0       0       0       0       0       0       0       0       0
       0       0       0       0       0       0       0       0       0       0
       0       0       0       0       0       0       0       0       0       0
       0       0       0       0       0       0       0       0       0       0
       0       0       0       0       0       0       0       0       0       0
       0       0       0       0       0       0       0       0       0       0
       0       0       0       0       0       0       0       0       0       0
       0       0       0       0       0       0       0       0       0       0
       0       0       0       0       0       0       0       0       0       0
       0       0       0       0       0       0       0       0       0       0
       0       0       0       0       0       0       0       0       0       0
       0       0       0       0       0       0       0       0       0       0
       0       0       0       0       0       0       0       0       0       0
       0       0       0       0       0       0       0       0       0       0
       0       0       0       0       0       0       0       0       0       0
       0       0       0       0       0       0       0       0       0       0
       0       0       0       0       0       0       0       0       0       0
       0       0       0       0       0       0       0       0       0       0
       0       0       0       0       0       0       0       0       0       0
       0       0       0       0       0       0       0       0       0       0
       0       0       0       0       0       0       0       0       0       0
       0       0       0       0       0       0       0       0       0       0
       0       0       0       0       0       0       0       0       0       0
       0       0       0       0       0       0       0       0       0       0
       0       0       0       0       0       0       0       0       0       0
       0       0       0       0       0       0       0       0       0       0
       0       0       0       0       0       0       0       0       0       0
       0       0       0       0       0       0       0       0       0       0
       0       0       0       0       0       0       0       0       0       0
       0       0       0       0       0       0       0       0       0       0
       0       0       0       0       0       0       0       0       0       0
       0       0       0       0       0       0       0       0       0       0
       0       0       0       0       0       0       0       0       0       0
       0       0       0       0       0       0       0       0       0       0
       0       0       0       0       0       0       0       0       0       0
       0       0       0       0       0       0       0       0       0       0
       0       0       0       0       0       0       0       0       0       0
       0       0       0       0       0       0       0       0       0       0
       0       0       0       0       0       0       0       0       0       0
       0       0       0       0       0       0       0       0       0       0
       0       0       0       0       0       0       0       0       0       0
       0       0       0       0       0       0       0       0       0       0
       0       0       0       0       0       0       0       0       0       0
       0       0       0       0       0       0       0       0       0       0
       0       0       0       0       0       0       0       0       0       0
       0       0       0       0       0       0       0       0       0       0
       0       0       0       0       0       0       0       0       0       0
       0       0       0       0       0       0       0       0       0       0
       0       0       0       0       0       0       0       0       0       0
       0       0       0       0       0       0       0       0       0       0
       0       0       0       0       0       0       0       0       0       0
       0       0       0       0       0       0       0       0       0       0
       0       0       0       0       0       0       0       0       0       0
       0       0       0       0       0       0       0       0       0       0
       0       0       0       0       0       0       0       0       0       0
       0       0       0       0       0       0       0       0       0       0
       0       0       0       0       0       0       0       0       0       0
       0       0       0       0       0       0       0       0       0       0
       0       0       0       0       0       0       0       0       0       0
       0       0       0       0       0       0       0       0       0       0
       0       0       0       0       0       0       0       0       0       0
       0       0       0       0       0       0       0       0       0       0
       0       0       0       0       0       0       0       0       0       0
       0       0       0       0       0       0       0       0       0       0
       0       0       0       0       0       0       0       0       0       0
       0       0       0       0       0       0       0       0       0       0
       0       0       0       0       0       0       0       0       0       0
       0       0       0       0       0       0       0       0       0       0
       0       0       0       0       0       0       0       0       0       0
       0       0       0       0       0       0       0       0       0       0
       0       0       0       0       0       0       0       0       0       0
       0       0       0       0       0       0       0       0       0       0
       0       0       0       0       0       0       0       0       0       0
       0       0       0       0       0       0       0       0       0       0
       0       0       0       0       0       0       0       0       0       0
       0       0       0       0       0       0       0       0       0       0
       0       0       0       0       0       0       0       0       0       0
       0       0       0       0       0       0       0       0       0       0
       0       0       0       0       0       0       0       0       0       0
       0       0       0       0       0       0       0       0       0       0
       0       0       0       0       0       0       0       0       0       0
       0       0       0       0       0       0       0       0       0       0
       0       0       0       0       0       0       0       0       0       0
       0       0       0       0       0       0       0       0       0       0
       0       0       0       0       0       0       0       0       0       0
       0       0       0       0       0       0       0       0       0       0
       0       0       0       0       0       0       0       0       0       0
       0       0       0       0       0       0       0       0       0       0
       0       0       0       0       0       0       0       0       0       0
       0       0       0       0       0       0       0       0       0       0
       0       0       0       0       0       0       0       0       0       0
       0       0       0       0       0       0       0       0       0       0
       0       0       0       0       0       0       0       0       0       0
       0       0       0       0       0       0       0       0       0       0
       0       0       0       0       0       0       0       0       0       0
       0       0       0       0       0       0       0       0       0       0
       0       0       0       0       0       0       0       0       0       0
       0       0       0       0       0       0       0       0       0       0
       0       0       0       0       0       0       0       0       0       0
       0       0       0       0       0       0       0       0       0       0
       0       0       0       0       0       0       0       0       0       0
       0       0       0       0       0       0       0       0       0       0
       0       0       0       0       0       0       0       0       0       0
       0       0       0       0       0       0       0       0       0       0
       0       0       0       0       0       0       0       0       0       0
       0       0       0       0       0       0       0       0       0       0
       0       0       0       0       0       0       0       0       0       0
       0       0       0       0       0       0       0       0       0       0
       0       0       0       0       0       0       0       0       0       0
       0       0       0       0       0       0       0       0       0       0
       0       0       0       0       0       0       0       0       0       0
       0       0       0       0       0       0       0       0       0       0
       0       0       0       0       0       0       0       0       0       0
       0       0       0       0       0       0       0       0       0       0
       0       0       0       0       0       0       0       0       0       0
       0       0       0       0       0       0       0       0       0       0
       0       0       0       0       0       0       0       0       0       0
       0       0       0       0       0       0       0       0       0       0
       0       0       0       0       0       0       0       0       0       0
       0       0       0       0       0       0       0       0       0       0
       0       0       0       0       0       0       0       0       0       0
       0       0       0       0       0       0       0       0       0       0
       0       0       0       0       0       0       0       0       0       0
       0       0       0       0       0       0       0       0       0       0
       0       0       0       0       0       0       0       0       0       0
       0       0       0       0       0       0       0       0       0       0
       0       0       0       0       0       0       0       0       0       0
       0       0       0       0       0       0       0       0       0       0
       0       0       0       0       0       0       0       0       0       0
       0       0       0       0       0       0       0       0       0       0
       0       0       0       0       0       0       0       0       0       0
       0       0       0       0       0       0       0       0       0       0
       0       0       0       0       0       0       0       0       0       0
       0       0       0       0       0       0       0       0       0       0
       0       0       0       0       0       0       0       0       0       0
       0       0       0       0       0       0       0       0       0       0
       0       0       0       0       0       0       0       0       0       0
       0       0       0       0       0       0       0       0       0       0
       0       0       0       0       0       0       0       0       0       0
       0       0       0       0       0       0       0       0       0       0
       0       0       0       0       0       0       0       0       0       0
       0       0       0       0       0       0       0       0       0       0
       0       0       0       0       0       0       0       0       0       0
       0       0       0       0       0       0       0       0       0       0
       0       0       0       0       0       0       0       0       0       0
       0       0       0       0       0       0       0       0       0       0
       0       0       0       0       0       0       0       0       0       0
       0       0       0       0       0       0       0       0       0       0
       0       0       0       0       0       0       0       0       0       0
       0       0       0       0       0       0       0       0       0       0
       0       0       0       0       0       0       0       0       0       0
       0       0       0       0       0       0       0       0       0       0
       0       0       0       0       0       0       0       0       0       0
       0       0       0       0       0       0       0       0       0       0
       0       0       0       0       0       0       0       0       0       0
       0       0       0       0       0       0       0       0       0       0
       0       0       0       0       0       0       0       0       0       0
       0       0       0       0       0       0       0       0       0       0
       0       0       0       0       0       0       0       0       0       0
       0       0       0       0       0       0       0       0       0       0
       0       0       0       0       0       0       0       0       0       0
       0       0       0       0       0       0       0       0       0       0
       0       0       0       0       0       0       0       0       0       0
       0       0       0       0       0       0       0       0       0       0
       0       0       0       0       0       0       0       0       0       0
       0       0       0       0       0       0       0       0       0       0
       0       0       0       0       0       0       0       0       0       0
       0       0       0       0       0       0       0       0       0       0
       0       0       0       0       0       0       0       0       0       0
       0       0       0       0       0       0       0       0       0       0
       0       0       0       0       0       0       0       0       0       0
       0       0       0       0       0       0       0       0       0       0
       0       0       0       0       0       0       0       0       0       0
       0       0       0       0       0       0       0       0       0       0
       0       0       0       0       0       0       0       0       0       0
       0       0       0       0       0       0       0       0       0       0
       0       0       0       0       0       0       0       0       0       0
       0       0       0       0       0       0       0       0       0       0
       0       0       0       0       0       0       0       0       0       0
       0       0       0       0       0       0       0       0       0       0
       0       0       0       0       0       0       0       0       0       0
       0       0       0       0       0       0       0       0       0       0
       0       0       0       0       0       0       0       0       0       0
       0       0       0       0       0       0       0       0       0       0
       0       0       0       0       0       0       0       0       0       0
       0       0       0       0       0       0       0       0       0       0
       0       0       0       0       0       0       0       0       0       0
       0       0       0       0       0       0       0       0       0       0
       0       0       0       0       0       0       0       0       0       0
       0       0       0       0       0       0       0       0       0       0
       0       0       0       0       0       0       0       0       0       0
       0       0       0       0       0       0       0       0       0       0
       0       0       0       0       0       0       0       0       0       0
       0       0       0       0       0       0       0       0       0       0
       0       0       0       0       0       0       0       0       0       0
       0       0       0       0       0       0       0       0       0       0
       0       0       0       0       0       0       0       0       0       0
       0       0       0       0       0       0       0       0       0       0
       0       0       0       0       0       0       0       0       0       0
       0       0       0       0       0       0       0       0       0       0
       0       0       0       0       0       0       0       0       0       0
       0       0       0       0       0       0       0       0       0       0
       0       0       0       0       0       0       0       0       0       0
       0       0       0       0       0       0       0       0       0       0
       0       0       0       0       0       0       0       0       0       0
       0       0       0       0       0       0       0       0       0       0
       0       0       0       0       0       0       0       0       0       0
       0       0       0       0       0       0       0       0       0       0
       0       0       0       0       0       0       0       0       0       0
       0       0       0       0       0       0       0       0       0       0
       0       0       0       0       0       0       0       0       0       0
       0       0       0       0       0       0       0       0       0       0
       0       0       0       0       0       0       0       0       0       0
       0       0       0       0       0       0       0       0       0       0
       0       0       0       0       0       0       0       0       0       0
       0       0       0       0       0       0       0       0       0       0
       0       0       0       0       0       0       0       0       0       0
       0       0       0       0       0       0       0       0       0       0
       0       0       0       0       0       0       0       0       0       0
       0       0       0       0       0       0       0       0       0       0
       0       0       0       0       0       0       0       0       0       0
       0       0       0       0       0       0       0       0       0       0
       0       0       0       0       0       0       0       0       0       0
       0       0       0       0       0       0       0       0       0       0
       0       0       0       0       0       0       0       0       0       0
       0       0       0       0       0       0       0       0       0       0
       0       0       0       0       0       0       0       0       0       0
       0       0       0       0       0       0       0       0       0       0
       0       0       0       0       0       0       0       0       0       0
       0       0       0       0       0       0       0       0       0       0
       0       0       0       0       0       0       0       0       0       0
       0       0       0       0       0       0       0       0       0       0
       0       0       0       0       0       0       0       0       0       0
       0       0       0       0       0       0       0       0       0       0
       0       0       0       0       0       0       0       0       0       0
       0       0       0       0       0       0       0       0       0       0
       0       0       0       0       0       0       0       0       0       0
       0       0       0       0       0       0       0       0       0       0
       0       0       0       0       0       0       0       0       0       0
       0       0       0       0       0       0       0       0       0       0
       0       0       0       0       0       0       0       0       0       0
       0       0       0       0       0       0       0       0       0       0
       0       0       0       0       0       0       0       0       0       0
       0       0       0       0       0       0       0       0       0       0
       0       0       0       0       0       0       0       0       0       0
       0       0       0       0       0       0       0       0       0       0
       0       0       0       0       0       0       0       0       0       0
       0       0       0       0       0       0       0       0       0       0
       0       0       0       0       0       0       0       0       0       0
       0       0       0       0       0       0       0       0       0       0
       0       0       0       0       0       0       0       0       0       0
       0       0       0       0       0       0       0       0       0       0
       0       0       0       0       0       0       0       0       0       0
       0       0       0       0       0       0       0       0       0       0
       0       0       0       0       0       0       0       0       0       0
       0       0       0       0       0       0       0       0       0       0
       0       0       0       0       0       0       0       0       0       0
       0       0       0       0       0       0       0       0       0       0
       0       0       0       0       0       0       0       0       0       0
       0       0       0       0       0       0       0       0       0       0
       0       0       0       0       0       0       0       0       0       0
       0       0       0       0       0       0       0       0       0       0
       0       0       0       0       0       0       0       0       0       0
       0       0       0       0       0       0       0       0       0       0
       0       0       0       0       0       0       0       0       0       0
       0       0       0       0       0       0       0       0       0       0
       0       0       0       0       0       0       0       0       0       0
       0       0       0       0       0       0       0       0       0       0
       0       0       0       0       0       0       0       0       0       0
       0       0       0       0       0       0       0       0       0       0
       0       0       0       0       0       0       0       0       0       0
       0       0       0       0       0       0       0       0       0       0
       0       0       0       0       0       0       0       0       0       0
       0       0       0       0       0       0       0       0       0       0
       0       0       0       0       0       0       0       0       0       0
       0       0       0       0       0       0       0       0       0       0
       0       0       0       0       0       0       0       0       0       0
       0       0       0       0       0       0       0       0       0       0
       0       0       0       0       0       0       0       0       0       0
       0       0       0       0       0       0       0       0       0       0
       0       0       0       0       0       0       0       0       0       0
       0       0       0       0       0       0       0       0       0       0
       0       0       0       0       0       0       0       0       0       0
       0       0       0       0       0       0       0       0       0       0
       0       0       0       0       0       0       0       0       0       0
       0       0       0       0       0       0       0       0       0       0
       0       0       0       0       0       0       0       0       0       0
       0       0       0       0       0       0       0       0       0       0
       0       0       0       0       0       0       0       0       0       0
       0       0       0       0       0       0       0       0       0       0
       0       0       0       0       0       0       0       0       0       0
       0       0       0       0       0       0       0       0       0       0
       0       0       0       0       0       0       0       0       0       0
       0       0       0       0       0       0       0       0       0       0
       0       0       0       0       0       0       0       0       0       0
       0       0       0       0       0       0       0       0       0       0
       0       0       0       0       0       0       0       0       0       0
       0       0       0       0       0       0       0       0       0       0
       0       0       0       0       0       0       0       0       0       0
       0       0       0       0       0       0       0       0       0       0
       0       0       0       0       0       0       0       0       0       0
       0       0       0       0       0       0       0       0       0       0
       0       0       0       0       0       0       0       0       0       0
       0       0       0       0       0       0       0       0       0       0
       0       0       0       0       0       0       0       0       0       0
       0       0       0       0       0       0       0       0       0       0
       0       0       0       0       0       0       0       0       0       0
       0       0       0       0       0       0       0       0       0       0
       0       0       0       0       0       0       0       0       0       0
       0       0       0       0       0       0       0       0       0       0
       0       0       0       0       0       0       0       0       0       0
       0       0       0       0       0       0       0       0       0       0
       0       0       0       0       0       0       0       0       0       0
       0       0       0       0       0       0       0       0       0       0
       0       0       0       0       0       0       0       0       0       0
       0       0       0       0       0       0       0       0       0       0
       0       0       0       0       0       0       0       0       0       0
       0       0       0       0       0       0       0       0       0       0
       0       0       0       0       0       0       0       0       0       0
       0       0       0       0       0       0       0       0       0       0
       0       0       0       0       0       0       0       0       0       0
       0       0       0       0       0       0       0       0       0       0
       0       0       0       0       0       0       0       0       0       0
       0       0       0       0       0       0       0       0       0       0
       0       0       0       0       0       0       0       0       0       0
       0       0       0       0       0       0       0       0       0       0
       0       0       0       0       0       0       0       0       0       0
       0       0       0       0       0       0       0       0       0       0
       0       0       0       0       0       0       0       0       0       0
       0       0       0       0       0       0       0       0       0       0
       0       0       0       0       0       0       0       0       0       0
       0       0       0       0       0       0       0       0       0       0
       0       0       0       0       0       0       0       0       0       0
       0       0       0       0       0       0       0       0       0       0
       0       0       0       0       0       0       0       0       0       0
       0       0       0       0       0       0       0       0       0       0
       0       0       0       0       0       0       0       0       0       0
       0       0       0       0       0       0       0       0       0       0
       0       0       0       0       0       0       0       0       0       0
       0       0       0       0       0       0       0       0       0       0
       0       0       0       0       0       0       0       0       0       0
       0       0       0       0       0       0       0       0       0       0
       0       0       0       0       0       0       0       0       0       0
       0       0       0       0       0       0       0       0       0       0
       0       0       0       0       0       0       0       0       0       0
       0       0       0       0       0       0       0       0       0       0
       0       0       0       0       0       0       0       0       0       0
       0       0       0       0       0       0       0       0       0       0
       0       0       0       0       0       0       0       0       0       0
       0       0       0       0       0       0       0       0       0       0
       0       0       0       0       0       0       0       0       0       0
       0       0       0       0       0       0       0       0       0       0
       0       0       0       0       0       0       0       0       0       0
       0       0       0       0       0       0       0       0       0       0
       0       0       0       0       0       0       0       0       0       0
       0       0       0       0       0       0       0       0       0       0
       0       0       0       0       0       0       0       0       0       0
       0       0       0       0       0       0       0       0       0       0
       0       0       0       0       0       0       0       0       0       0
       0       0       0       0       0       0       0       0       0       0
       0       0       0       0       0       0       0       0       0       0
       0       0       0       0       0       0       0       0       0       0
       0       0       0       0       0       0       0       0       0       0
       0       0       0       0       0       0       0       0       0       0
       0       0       0       0       0       0       0       0       0       0
       0       0       0       0       0       0       0       0       0       0
       0       0       0       0       0       0       0       0       0       0
       0       0       0       0       0       0       0       0       0       0
       0       0       0       0       0       0       0       0       0       0
       0       0       0       0       0       0       0       0       0       0
       0       0       0       0       0       0       0       0       0       0
       0       0       0       0       0       0       0       0       0       0
       0       0       0       0       0       0       0       0       0       0
       0       0       0       0       0       0       0       0       0       0
       0       0       0       0       0       0       0       0       0       0
       0       0       0       0       0       0       0       0       0       0
       0       0       0       0       0       0       0       0       0       0
       0       0       0       0       0       0       0       0       0       0
       0       0       0       0       0       0       0       0       0       0
       0       0       0       0       0       0       0       0       0       0
       0       0       0       0       0       0       0       0       0       0
       0       0       0       0       0       0       0       0       0       0
       0       0       0       0       0       0       0       0       0       0
       0       0       0       0       0       0       0       0       0       0
       0       0       0       0       0       0       0       0       0       0
       0       0       0       0       0       0       0       0       0       0
       0       0       0       0       0       0       0       0       0       0
       0       0       0       0       0       0       0       0       0       0
       0       0       0       0       0       0       0       0       0       0
       0       0       0       0       0       0       0       0       0       0
       0       0       0       0       0       0       0       0       0       0
       0       0       0       0       0       0       0       0       0       0
       0       0       0       0       0       0       0       0       0       0
       0       0       0       0       0       0       0       0       0       0
       0       0       0       0       0       0       0       0       0       0
       0       0       0       0       0       0       0       0       0       0
       0       0       0       0       0       0       0       0       0       0
       0       0       0       0       0       0       0       0       0       0
       0       0       0       0       0       0       0       0       0       0
       0       0       0       0       0       0       0       0       0       0
       0       0       0       0       0       0       0       0       0       0
       0       0       0       0       0       0       0       0       0       0
       0       0       0       0       0       0       0       0       0       0
       0       0       0       0       0       0       0       0       0       0
       0       0       0       0       0       0       0       0       0       0
       0       0       0       0       0       0       0       0       0       0
       0       0       0       0       0       0       0       0       0       0
       0       0       0       0       0       0       0       0       0       0
       0       0       0       0       0       0       0       0       0       0
       0       0       0       0       0       0       0       0       0       0
       0       0       0       0       0       0       0       0       0       0
       0       0       0       0       0       0       0       0       0       0
       0       0       0       0       0       0       0       0       0       0
       0       0       0       0       0       0       0       0       0       0
       0       0       0       0       0       0       0       0       0       0
       0       0       0       0       0       0       0       0       0       0
       0       0       0       0       0       0       0       0       0       0
       0       0       0       0       0       0       0       0       0       0
       0       0       0       0       0       0       0       0       0       0
       0       0       0       0       0       0       0       0       0       0
       0       0       0       0       0       0       0       0       0       0
       0       0       0       0       0       0       0       0       0       0
       0       0       0       0       0       0       0       0       0       0
       0       0       0       0       0       0       0       0       0       0
       0       0       0       0       0       0       0       0       0       0
       0       0       0       0       0       0       0       0       0       0
       0       0       0       0       0       0       0       0       0       0
       0       0       0       0       0       0       0       0       0       0
       0       0       0       0       0       0       0       0       0       0
       0       0       0       0       0       0       0       0       0       0
       0       0       0       0       0       0       0       0       0       0
       0       0       0       0       0       0       0       0       0       0
       0       0       0       0       0       0       0       0       0       0
       0       0       0       0       0       0       0       0       0       0
       0       0       0       0       0       0       0       0       0       0
       0       0       0       0       0       0       0       0       0       0
       0       0       0       0       0       0       0       0       0       0
       0       0       0       0       0       0       0       0       0       0
       0       0       0       0       0       0       0       0       0       0
       0       0       0       0       0       0       0       0       0       0
       0       0       0       0       0       0       0       0       0       0
       0       0       0       0       0       0       0       0       0       0
       0       0       0       0       0       0       0       0       0       0
       0       0       0       0       0       0       0       0       0       0
       0       0       0       0       0       0       0       0       0       0
       0       0       0       0       0       0       0       0       0       0
       0       0       0       0       0       0       0       0       0       0
       0       0       0       0       0       0       0       0       0       0
       0       0       0       0       0       0       0       0       0       0
       0       0       0       0       0       0       0       0       0       0
       0       0       0       0       0       0       0       0       0       0
       0       0       0       0       0       0       0       0       0       0
       0       0       0       0       0       0       0       0       0       0
       0       0       0       0       0       0       0       0       0       0
       0       0       0       0       0       0       0       0       0       0
       0       0       0       0       0       0       0       0       0       0
       0       0       0       0       0       0       0       0       0       0
       0       0       0       0       0       0       0       0       0       0
       0       0       0       0       0       0       0       0       0       0
       0       0       0       0       0       0       0       0       0       0
       0       0       0       0       0       0       0       0       0       0
       0       0       0       0       0       0       0       0       0       0
       0       0       0       0       0       0       0       0       0       0
       0       0       0       0       0       0       0       0       0       0
       0       0       0       0       0       0       0       0       0       0
       0       0       0       0       0       0       0       0       0       0
       0       0       0       0       0       0       0       0       0       0
       0       0       0       0       0       0       0       0       0       0
       0       0       0       0       0       0       0       0       0       0
       0       0       0       0       0       0       0       0       0       0
       0       0       0       0       0       0       0       0       0       0
       0       0       0       0       0       0       0       0       0       0
       0       0       0       0       0       0       0       0       0       0
       0       0       0       0       0       0       0       0       0       0
       0       0       0       0       0       0       0       0       0       0
       0       0       0       0       0       0       0       0       0       0
       0       0       0       0       0       0       0       0       0       0
       0       0       0       0       0       0       0       0       0       0
       0       0       0       0       0       0       0       0       0       0
       0       0       0       0       0       0       0       0       0       0
       0       0       0       0       0       0       0       0       0       0
       0       0       0       0       0       0       0       0       0       0
       0       0       0       0       0       0       0       0       0       0
       0       0       0       0       0       0       0       0       0       0
       0       0       0       0       0       0       0       0       0       0
       0       0       0       0       0       0       0       0       0       0
       0       0       0       0       0       0       0       0       0       0
       0       0       0       0       0       0       0       0       0       0
       0       0       0       0       0       0       0       0       0       0
       0       0       0       0       0       0       0       0       0       0
       0       0       0       0       0       0       0       0       0       0
       0       0       0       0       0       0       0       0       0       0
       0       0       0       0       0       0       0       0       0       0
       0       0       0       0       0       0       0       0       0       0
       0       0       0       0       0       0       0       0       0       0
       0       0       0       0       0       0       0       0       0       0
       0       0       0       0       0       0       0       0       0       0
       0       0       0       0       0       0       0       0       0       0
       0       0       0       0       0       0       0       0       0       0
       0       0       0       0       0       0       0       0       0       0
       0       0       0       0       0       0       0       0       0       0
       0       0       0       0       0       0       0       0       0       0
       0       0       0       0       0       0       0       0       0       0
       0       0       0       0       0       0       0       0       0       0
       0       0       0       0       0       0       0       0       0       0
       0       0       0       0       0       0       0       0       0       0
       0       0       0       0       0       0       0       0       0       0
       0       0       0       0       0       0       0       0       0       0
       0       0       0       0       0       0       0       0       0       0
       0       0       0       0       0       0       0       0       0       0
       0       0       0       0       0       0       0       0       0       0
       0       0       0       0       0       0       0       0       0       0
       0       0       0       0       0       0       0       0       0       0
       0       0       0       0       0       0       0       0       0       0
       0       0       0       0       0       0       0       0       0       0
       0       0       0       0       0       0       0       0       0       0
       0       0       0       0       0       0       0       0       0       0
       0       0       0       0       0       0       0       0       0       0
       0       0       0       0       0       0       0       0       0       0
       0       0       0       0       0       0       0       0       0       0
       0       0       0       0       0       0       0       0       0       0
       0       0       0       0       0       0       0       0       0       0
       0       0       0       0       0       0       0       0       0       0
       0       0       0       0       0       0       0       0       0       0
       0       0       0       0       0       0       0       0       0       0
       0       0       0       0       0       0       0       0       0       0
       0       0       0       0       0       0       0       0       0       0
       0       0       0       0       0       0       0       0       0       0
       0       0       0       0       0       0       0       0       0       0
       0       0       0       0       0       0       0       0       0       0
       0       0       0       0       0       0       0       0       0       0
       0       0       0       0       0       0       0       0       0       0
       0       0       0       0       0       0       0       0       0       0
       0       0       0       0       0       0       0       0       0       0
       0       0       0       0       0       0       0       0       0       0
       0       0       0       0       0       0       0       0       0       0
       0       0       0       0       0       0       0       0       0       0
       0       0       0       0       0       0       0       0       0       0
       0       0       0       0       0       0       0       0       0       0
       0       0       0       0       0       0       0       0       0       0
       0       0       0       0       0       0       0       0       0       0
       0       0       0       0       0       0       0       0       0       0
       0       0       0       0       0       0       0       0       0       0
       0       0       0       0       0       0       0       0       0       0
       0       0       0       0       0       0       0       0       0       0
       0       0       0       0       0       0       0       0       0       0
       0       0       0       0       0       0       0       0       0       0
       0       0       0       0       0       0       0       0       0       0
       0       0       0       0       0       0       0       0       0       0
       0       0       0       0       0       0       0       0       0       0
       0       0       0       0       0       0       0       0       0       0
       0       0       0       0       0       0       0       0       0       0
       0       0       0       0       0       0       0       0       0       0
       0       0       0       0       0       0       0       0       0       0
       0       0       0       0       0       0       0       0       0       0
       0       0       0       0       0       0       0       0       0       0
       0       0       0       0       0       0       0       0       0       0
       0       0       0       0       0       0       0       0       0       0
       0       0       0       0       0       0       0       0       0       0
       0       0       0       0       0       0       0       0       0       0
       0       0       0       0       0       0       0       0       0       0
       0       0       0       0       0       0       0       0       0       0
       0       0       0       0       0       0       0       0       0       0
       0       0       0       0       0       0       0       0       0       0
       0       0       0       0       0       0       0       0       0       0
       0       0       0       0       0       0       0       0       0       0
       0       0       0       0       0       0       0       0       0       0
       0       0       0       0       0       0       0       0       0       0
       0       0       0       0       0       0       0       0       0       0
       0       0       0       0       0       0       0       0       0       0
       0       0       0       0       0       0       0       0       0       0
       0       0       0       0       0       0       0       0       0       0
       0       0       0       0       0       0       0       0       0       0
       0       0       0       0       0       0       0       0       0       0
       0       0       0       0       0       0       0       0       0       0
       0       0       0       0       0       0       0       0       0       0
       0       0       0       0       0       0       0       0       0       0
       0       0       0       0       0       0       0       0       0       0
       0       0       0       0       0       0       0       0       0       0
       0       0       0       0       0       0       0       0       0       0
       0       0       0       0       0       0       0       0       0       0
       0       0       0       0       0       0       0       0       0       0
       0       0       0       0       0       0       0       0       0       0
       0       0       0       0       0       0       0       0       0       0
       0       0       0       0       0       0       0       0       0       0
       0       0       0       0       0       0       0       0       0       0
       0       0       0       0       0       0       0       0       0       0
       0       0       0       0       0       0       0       0       0       0
       0       0       0       0       0       0       0       0       0       0
       0       0       0       0       0       0       0       0       0       0
       0       0       0       0       0       0       0       0       0       0
       0       0       0       0       0       0       0       0       0       0
       0       0       0       0       0       0       0       0       0       0
       0       0       0       0       0       0       0       0       0       0
       0       0       0       0       0       0       0       0       0       0
       0       0       0       0       0       0       0       0       0       0
       0       0       0       0       0       0       0       0       0       0
       0       0       0       0       0       0       0       0       0       0
       0       0       0       0       0       0       0       0       0       0
       0       0       0       0       0       0       0       0       0       0
       0       0       0       0       0       0       0       0       0       0
       0       0       0       0       0       0       0       0       0       0
       0       0       0       0       0       0       0       0       0       0
       0       0       0       0       0       0       0       0       0       0
       0       0       0       0       0       0       0       0       0       0
       0       0       0       0       0       0       0       0       0       0
       0       0       0       0       0       0       0       0       0       0
       0       0       0       0       0       0       0       0       0       0
       0       0       0       0       0       0       0       0       0       0
       0       0       0       0       0       0       0       0       0       0
       0       0       0       0       0       0       0       0       0       0
       0       0       0       0       0       0       0       0       0       0
       0       0       0       0       0       0       0       0       0       0
       0       0       0       0       0       0       0       0       0       0
       0       0       0       0       0       0       0       0       0       0
       0       0       0       0       0       0       0       0       0       0
       0       0       0       0       0       0       0       0       0       0
       0       0       0       0       0       0       0       0       0       0
       0       0       0       0       0       0       0       0       0       0
       0       0       0       0       0       0       0       0       0       0
       0       0       0       0       0       0       0       0       0       0
       0       0       0       0       0       0       0       0       0       0
       0       0       0       0       0       0       0       0       0       0
       0       0       0       0       0       0       0       0       0       0
       0       0       0       0       0       0       0       0       0       0
       0       0       0       0       0       0       0       0       0       0
       0       0       0       0       0       0       0       0       0       0
       0       0       0       0       0       0       0       0       0       0
       0       0       0       0       0       0       0       0       0       0
       0       0       0       0       0       0       0       0       0       0
       0       0       0       0       0       0       0       0       0       0
       0       0       0       0       0       0       0       0       0       0
       0       0       0       0       0       0       0       0       0       0
       0       0       0       0       0       0       0       0       0       0
       0       0       0       0       0       0       0       0       0       0
       0       0       0       0       0       0       0       0       0       0
       0       0       0       0       0       0       0       0       0       0
       0       0       0       0       0       0       0       0       0       0
       0       0       0       0       0       0       0       0       0       0
       0       0       0       0       0       0       0       0       0       0
       0       0       0       0       0       0       0       0       0       0
       0       0       0       0       0       0       0       0       0       0
       0       0       0       0       0       0       0       0       0       0
       0       0       0       0       0       0       0       0       0       0
       0       0       0       0       0       0       0       0       0       0
       0       0       0       0       0       0       0       0       0       0
       0       0       0       0       0       0       0       0       0       0
       0       0       0       0       0       0       0       0       0       0
       0       0       0       0       0       0       0       0       0       0
       0       0       0       0       0       0       0       0       0       0
       0       0       0       0       0       0       0       0       0       0
       0       0       0       0       0       0       0       0       0       0
       0       0       0       0       0       0       0       0       0       0
       0       0       0       0       0       0       0       0       0       0
       0       0       0       0       0       0       0       0       0       0
       0       0       0       0       0       0       0       0       0       0
       0       0       0       0       0       0       0       0       0       0
       0       0       0       0       0       0       0       0       0       0
       0       0       0       0       0       0       0       0       0       0
       0       0       0       0       0       0       0       0       0       0
       0       0       0       0       0       0       0       0       0       0
       0       0       0       0       0       0       0       0       0       0
       0       0       0       0       0       0       0       0       0       0
       0       0       0       0       0       0       0       0       0       0
       0       0       0       0       0       0       0       0       0       0
       0       0       0       0       0       0       0       0       0       0
       0       0       0       0       0       0       0       0       0       0
       0       0       0       0       0       0       0       0       0       0
       0       0       0       0       0       0       0       0       0       0
       0       0       0       0       0       0       0       0       0       0
       0       0       0       0       0       0       0       0       0       0
       0       0       0       0       0       0       0       0       0       0
       0       0       0       0       0       0       0       0       0       0
       0       0       0       0       0       0       0       0       0       0
       0       0       0       0       0       0       0       0       0       0
       0       0       0       0       0       0       0       0       0       0
       0       0       0       0       0       0       0       0       0       0
       0       0       0       0       0       0       0       0       0       0
       0       0       0       0       0       0       0       0       0       0
       0       0       0       0       0       0       0       0       0       0
       0       0       0       0       0       0       0       0       0       0
       0       0       0       0       0       0       0       0       0       0
       0       0       0       0       0       0       0       0       0       0
       0       0       0       0       0       0       0       0       0       0
       0       0       0       0       0       0       0       0       0       0
       0       0       0       0       0       0       0       0       0       0
       0       0       0       0       0       0       0       0       0       0
       0       0       0       0       0       0       0       0       0       0
       0       0       0       0       0       0       0       0       0       0
       0       0       0       0       0       0       0       0       0       0
       0       0       0       0       0       0       0       0       0       0
       0       0       0       0       0       0       0       0       0       0
       0       0       0       0       0       0       0       0       0       0
       0       0       0       0       0       0       0       0       0       0
       0       0       0       0       0       0       0       0       0       0
       0       0       0       0       0       0       0       0       0       0
       0       0       0       0       0       0       0       0       0       0
       0       0       0       0       0       0       0       0       0       0
       0       0       0       0       0       0       0       0       0       0
       0       0       0       0       0       0       0       0       0       0
       0       0       0       0       0       0       0       0       0       0
       0       0       0       0       0       0       0       0       0       0
       0       0       0       0       0       0       0       0       0       0
       0       0       0       0       0       0       0       0       0       0
       0       0       0       0       0       0       0       0       0       0
       0       0       0       0       0       0       0       0       0       0
       0       0       0       0       0       0       0       0       0       0
       0       0       0       0       0       0       0       0       0       0
       0       0       0       0       0       0       0       0       0       0
       0       0       0       0       0       0       0       0       0       0
       0       0       0       0       0       0       0       0       0       0
       0       0       0       0       0       0       0       0       0       0
       0       0       0       0       0       0       0       0       0       0
       0       0       0       0       0       0       0       0       0       0
       0       0       0       0       0       0       0       0       0       0
       0       0       0       0       0       0       0       0       0       0
       0       0       0       0       0       0       0       0       0       0
       0       0       0       0       0       0       0       0       0       0
       0       0       0       0       0       0       0       0       0       0
       0       0       0       0       0       0       0       0       0       0
       0       0       0       0       0       0       0       0       0       0
       0       0       0       0       0       0       0       0       0       0
       0       0       0       0       0       0       0       0       0       0
       0       0       0       0       0       0       0       0       0       0
       0       0       0       0       0       0       0       0       0       0
       0       0       0       0       0       0       0       0       0       0
       0       0       0       0       0       0       0       0       0       0
       0       0       0       0       0       0       0       0       0       0
       0       0       0       0       0       0       0       0       0       0
       0       0       0       0       0       0       0       0       0       0
       0       0       0       0       0       0       0       0       0       0
       0       0       0       0       0       0       0       0       0       0
       0       0       0       0       0       0       0       0       0       0
       0       0       0       0       0       0       0       0       0       0
       0       0       0       0       0       0       0       0       0       0
       0       0       0       0       0       0       0       0       0       0
       0       0       0       0       0       0       0       0       0       0
       0       0       0       0       0       0       0       0       0       0
       0       0       0       0       0       0       0       0       0       0
       0       0       0       0       0       0       0       0       0       0
       0       0       0       0       0       0       0       0       0       0
       0       0       0       0       0       0       0       0       0       0
       0       0       0       0       0       0       0       0       0       0
       0       0       0       0       0       0       0       0       0       0
       0       0       0       0       0       0       0       0       0       0
       0       0       0       0       0       0       0       0       0       0
       0       0       0       0       0       0       0       0       0       0
       0       0       0       0       0       0       0       0       0       0
       0       0       0       0       0       0       0       0       0       0
       0       0       0       0       0       0       0       0       0       0
       0       0       0       0       0       0       0       0       0       0
       0       0       0       0       0       0       0       0       0       0
       0       0       0       0       0       0       0       0       0       0
       0       0       0       0       0       0       0       0       0       0
       0       0       0       0       0       0       0       0       0       0
       0       0       0       0       0       0       0       0       0       0
       0       0       0       0       0       0       0       0       0       0
       0       0       0       0       0       0       0       0       0       0
       0       0       0       0       0       0       0       0       0       0
       0       0       0       0       0       0       0       0       0       0
       0       0       0       0       0       0       0       0       0       0
       0       0       0       0       0       0       0       0       0       0
       0       0       0       0       0       0       0       0       0       0
       0       0       0       0       0       0       0       0       0       0
       0       0       0       0       0       0       0       0       0       0
       0       0       0       0       0       0       0       0       0       0
       0       0       0       0       0       0       0       0       0       0
       0       0       0       0       0       0       0       0       0       0
       0       0       0       0       0       0       0       0       0       0
       0       0       0       0       0       0       0       0       0       0
       0       0       0       0       0       0       0       0       0       0
       0       0       0       0       0       0       0       0       0       0
       0       0       0       0       0       0       0       0       0       0
       0       0       0       0       0       0       0       0       0       0
       0       0       0       0       0       0       0       0       0       0
       0       0       0       0       0       0       0       0       0       0
       0       0       0       0       0       0       0       0       0       0
       0       0       0       0       0       0       0       0       0       0
       0       0       0       0       0       0       0       0       0       0
       0       0       0       0       0       0       0       0       0       0
       0       0       0       0       0       0       0       0       0       0
       0       0       0       0       0       0       0       0       0       0
       0       0       0       0       0       0       0       0       0       0
       0       0       0       0       0       0       0       0       0       0
       0       0       0       0       0       0       0       0       0       0
       0       0       0       0       0       0       0       0       0       0
       0       0       0       0       0       0       0       0       0       0
       0       0       0       0       0       0       0       0       0       0
       0       0       0       0       0       0       0       0       0       0
       0       0       0       0       0       0       0       0       0       0
       0       0       0       0       0       0       0       0       0       0
       0       0       0       0       0       0       0       0       0       0
       0       0       0       0       0       0       0       0       0       0
       0       0       0       0       0       0       0       0       0       0
       0       0       0       0       0       0       0       0       0       0
       0       0       0       0       0       0       0       0       0       0
       0       0       0       0       0       0       0       0       0       0
       0       0       0       0       0       0       0       0       0       0
       0       0       0       0       0       0       0       0       0       0
       0       0       0       0       0       0       0       0       0       0
       0       0       0       0       0       0       0       0       0       0
       0       0       0       0       0       0       0       0       0       0
       0       0       0       0       0       0       0       0       0       0
       0       0       0       0       0       0       0       0       0       0
       0       0       0       0       0       0       0       0       0       0
       0       0       0       0       0       0       0       0       0       0
       0       0       0       0       0       0       0       0       0       0
       0       0       0       0       0       0       0       0       0       0
       0       0       0       0       0       0       0       0       0       0
       0       0       0       0       0       0       0       0       0       0
       0       0       0       0       0       0       0       0       0       0
       0       0       0       0       0       0       0       0       0       0
       0       0       0       0       0       0       0       0       0       0
       0       0       0       0       0       0       0       0       0       0
       0       0       0       0       0       0       0       0       0       0
       0       0       0       0       0       0       0       0       0       0
       0       0       0       0       0       0       0       0       0       0
       0       0       0       0       0       0       0       0       0       0
       0       0       0       0       0       0       0       0       0       0
       0       0       0       0       0       0       0       0       0       0
       0       0       0       0       0       0       0       0       0       0
       0       0       0       0       0       0       0       0       0       0
       0       0       0       0       0       0       0       0       0       0
       0       0       0       0       0       0       0       0       0       0
       0       0       0       0       0       0       0       0       0       0
       0       0       0       0       0       0       0       0       0       0
       0       0       0       0       0       0       0       0       0       0
       0       0       0       0       0       0       0       0       0       0
       0       0       0       0       0       0       0       0       0       0
       0       0       0       0       0       0       0       0       0       0
       0       0       0       0       0       0       0       0       0       0
       0       0       0       0       0       0       0       0       0       0
       0       0       0       0       0       0       0       0       0       0
       0       0       0       0       0       0       0       0       0       0
       0       0       0       0       0       0       0       0       0       0
       0       0       0       0       0       0       0       0       0       0
       0       0       0       0       0       0       0       0       0       0
       0       0       0       0       0       0       0       0       0       0
       0       0       0       0       0       0       0       0       0       0
       0       0       0       0       0       0       0       0       0       0
       0       0       0       0       0       0       0       0       0       0
       0       0       0       0       0       0       0       0       0       0
       0       0       0       0       0       0       0       0       0       0
       0       0       0       0       0       0       0       0       0       0
       0       0       0       0       0       0       0       0       0       0
       0       0       0       0       0       0       0       0       0       0
       0       0       0       0       0       0       0       0       0       0
       0       0       0       0       0       0       0       0       0       0
       0       0       0       0       0       0       0       0       0       0
       0       0       0       0       0       0       0       0       0       0
       0       0       0       0       0       0       0       0       0       0
       0       0       0       0       0       0       0       0       0       0
       0       0       0       0       0       0       0       0       0       0
       0       0       0       0       0       0       0       0       0       0
       0       0       0       0       0       0       0       0       0       0
       0       0       0       0       0       0       0       0       0       0
       0       0       0       0       0       0       0       0       0       0
       0       0       0       0       0       0       0       0       0       0
       0       0       0       0       0       0       0       0       0       0
       0       0       0       0       0       0       0       0       0       0
       0       0       0       0       0       0       0       0       0       0
       0       0       0       0       0       0       0       0       0       0
       0       0       0       0       0       0       0       0       0       0
       0       0       0       0       0       0       0       0       0       0
       0       0       0       0       0       0       0       0       0       0
       0       0       0       0       0       0       0       0       0       0
       0       0       0       0       0       0       0       0       0       0
       0       0       0       0       0       0       0       0       0       0
       0       0       0       0       0       0       0       0       0       0
       0       0       0       0       0       0       0       0       0       0
       0       0       0       0       0       0       0       0       0       0
       0       0       0       0       0       0       0       0       0       0
       0       0       0       0       0       0       0       0       0       0
       0       0       0       0       0       0       0       0       0       0
       0       0       0       0       0       0       0       0       0       0
       0       0       0       0       0       0       0       0       0       0
       0       0       0       0       0       0       0       0       0       0
       0       0       0       0       0       0       0       0       0       0
       0       0       0       0       0       0       0       0       0       0
       0       0       0       0       0       0       0       0       0       0
       0       0       0       0       0       0       0       0       0       0
       0       0       0       0       0       0       0       0       0       0
       0       0       0       0       0       0       0       0       0       0
       0       0       0       0       0       0       0       0       0       0
       0       0       0       0       0       0       0       0       0       0
       0       0       0       0       0       0       0       0       0       0
       0       0       0       0       0       0       0       0       0       0
       0       0       0       0       0       0       0       0       0       0
       0       0       0       0       0       0       0       0       0       0
       0       0       0       0       0       0       0       0       0       0
       0       0       0       0       0       0       0       0       0       0
       0       0       0       0       0       0       0       0       0       0
       0       0       0       0       0       0       0       0       0       0
       0       0       0       0       0       0       0       0       0       0
       0       0       0       0       0       0       0       0       0       0
       0       0       0       0       0       0       0       0       0       0
       0       0       0       0       0       0       0       0       0       0
       0       0       0       0       0       0       0       0       0       0
       0       0       0       0       0       0       0       0       0       0
       0       0       0       0       0       0       0       0       0       0
       0       0       0       0       0       0       0       0       0       0
       0       0       0       0       0       0       0       0       0       0
       0       0       0       0       0       0       0       0       0       0
       0       0       0       0       0       0       0       0       0       0
       0       0       0       0       0       0       0       0       0       0
       0       0       0       0       0       0       0       0       0       0
       0       0       0       0       0       0       0       0       0       0
       0       0       0       0       0       0       0       0       0       0
       0       0       0       0       0       0       0       0       0       0
       0       0       0       0       0       0       0       0       0       0
       0       0       0       0       0       0       0       0       0       0
       0       0       0       0       0       0       0       0       0       0
       0       0       0       0       0       0       0       0       0       0
       0       0       0       0       0       0       0       0       0       0
       0       0       0       0       0       0       0       0       0       0
       0       0       0       0       0       0       0       0       0       0
       0       0       0       0       0       0       0       0       0       0
       0       0       0       0       0       0       0       0       0       0
       0       0       0       0       0       0       0       0       0       0
       0       0       0       0       0       0       0       0       0       0
       0       0       0       0       0       0       0       0       0       0
       0       0       0       0       0       0       0       0       0       0
       0       0       0       0       0       0       0       0       0       0
       0       0       0       0       0       0       0       0       0       0
       0       0       0       0       0       0       0       0       0       0
       0       0       0       0       0       0       0       0       0       0
       0       0       0       0       0       0       0       0       0       0
       0       0       0       0       0       0       0       0       0       0
       0       0       0       0       0       0       0       0       0       0
       0       0       0       0       0       0       0       0       0       0
       0       0       0       0       0       0       0       0       0       0
       0       0       0       0       0       0       0       0       0       0
       0       0       0       0       0       0       0       0       0       0
       0       0       0       0       0       0       0       0       0       0
       0       0       0       0       0       0       0       0       0       0
       0       0       0       0       0       0       0       0       0       0
       0       0       0       0       0       0       0       0       0       0
       0       0       0       0       0       0       0       0       0       0
       0       0       0       0       0       0       0       0       0       0
       0       0       0       0       0       0       0       0       0       0
       0       0       0       0       0       0       0       0       0       0
       0       0       0       0       0       0       0       0       0       0
       0       0       0       0       0       0       0       0       0       0
       0       0       0       0       0       0       0       0       0       0
       0       0       0       0       0       0       0       0       0       0
       0       0       0       0       0       0       0       0       0       0
       0       0       0       0       0       0       0       0       0       0
       0       0       0       0       0       0       0       0       0       0
       0       0       0       0       0       0       0       0       0       0
       0       0       0       0       0       0       0       0       0       0
       0       0       0       0       0       0       0       0       0       0
       0       0       0       0       0       0       0       0       0       0
       0       0       0       0       0       0       0       0       0       0
       0       0       0       0       0       0       0       0       0       0
       0       0       0       0       0       0       0       0       0       0
       0       0       0       0       0       0       0       0       0       0
       0       0       0       0       0       0       0       0       0       0
       0       0       0       0       0       0       0       0       0       0
       0       0       0       0       0       0       0       0       0       0
       0       0       0       0       0       0       0       0       0       0
       0       0       0       0       0       0       0       0       0       0
       0       0       0       0       0       0       0       0       0       0
       0       0       0       0       0       0       0       0       0       0
       0       0       0       0       0       0       0       0       0       0
       0       0       0       0       0       0       0       0       0       0
       0       0       0       0       0       0       0       0       0       0
       0       0       0       0       0       0       0       0       0       0
       0       0       0       0       0       0       0       0       0       0
       0       0       0       0       0       0       0       0       0       0
       0       0       0       0       0       0       0       0       0       0
       0       0       0       0       0       0       0       0       0       0
       0       0       0       0       0       0       0       0       0       0
       0       0       0       0       0       0       0       0       0       0
       0       0       0       0       0       0       0       0       0       0
       0       0       0       0       0       0       0       0       0       0
       0       0       0       0       0       0       0       0       0       0
       0       0       0       0       0       0       0       0       0       0
       0       0       0       0       0       0       0       0       0       0
       0       0       0       0       0       0       0       0       0       0
       0       0       0       0       0       0       0       0       0       0
       0       0       0       0       0       0       0       0       0       0
       0       0       0       0       0       0       0       0       0       0
       0       0       0       0       0       0       0       0       0       0
       0       0       0       0       0       0       0       0       0       0
       0       0       0       0       0       0       0       0       0       0
       0       0       0       0       0       0       0       0       0       0
       0       0       0       0       0       0       0       0       0       0
       0       0       0       0       0       0       0       0       0       0
       0       0       0       0       0       0       0       0       0       0
       0       0       0       0       0       0       0       0       0       0
       0       0       0       0       0       0       0       0       0       0
       0       0       0       0       0       0       0       0       0       0
       0       0       0       0       0       0       0       0       0       0
       0       0       0       0       0       0       0       0       0       0
       0       0       0       0       0       0       0       0       0       0
       0       0       0       0       0       0       0       0       0       0
       0       0       0       0       0       0       0       0       0       0
       0       0       0       0       0       0       0       0       0       0
       0       0       0       0       0       0       0       0       0       0
       0       0       0       0       0       0       0       0       0       0
       0       0       0       0       0       0       0       0       0       0
       0       0       0       0       0       0       0       0       0       0
       0       0       0       0       0       0       0       0       0       0
       0       0       0       0       0       0       0       0       0       0
       0       0       0       0       0       0       0       0       0       0
       0       0       0       0       0       0       0       0       0       0
       0       0       0       0       0       0       0       0       0       0
       0       0       0       0       0       0       0       0       0       0
       0       0       0       0       0       0       0       0       0       0
       0       0       0       0       0       0       0       0       0       0
       0       0       0       0       0       0       0       0       0       0
       0       0       0       0       0       0       0       0       0       0
       0       0       0       0       0       0       0       0       0       0
       0       0       0       0       0       0       0       0       0       0
       0       0       0       0       0       0       0       0       0       0
       0       0       0       0       0       0       0       0       0       0
       0       0       0       0       0       0       0       0       0       0
       0       0       0       0       0       0       0       0       0       0
       0       0       0       0       0       0       0       0       0       0
       0       0       0       0       0       0       0       0       0       0
       0       0       0       0       0       0       0       0       0       0
       0       0       0       0       0       0       0       0       0       0
       0       0       0       0       0       0       0       0       0       0
       0       0       0       0       0       0       0       0       0       0
       0       0       0       0       0       0       0       0       0       0
       0       0       0       0       0       0       0       0       0       0
       0       0       0       0       0       0       0       0       0       0
       0       0       0       0       0       0       0       0       0       0
       0       0       0       0       0       0       0       0       0       0
       0       0       0       0       0       0       0       0       0       0
       0       0       0       0       0       0       0       0       0       0
       0       0       0       0       0       0       0       0       0       0
       0       0       0       0       0       0       0       0       0       0
       0       0       0       0       0       0       0       0       0       0
       0       0       0       0       0       0       0       0       0       0
       0       0       0       0       0       0       0       0       0       0
       0       0       0       0       0       0       0       0       0       0
       0       0       0       0       0       0       0       0       0       0
       0       0       0       0       0       0       0       0       0       0
       0       0       0       0       0       0       0       0       0       0
       0       0       0       0       0       0       0       0       0       0
       0       0       0       0       0       0       0       0       0       0
       0       0       0       0       0       0       0       0       0       0
       0       0       0       0       0       0       0       0       0       0
       0       0       0       0       0       0       0       0       0       0
       0       0       0       0       0       0       0       0       0       0
       0       0       0       0       0       0       0       0       0       0
       0       0       0       0       0       0       0       0       0       0
       0       0       0       0       0       0       0       0       0       0
       0       0       0       0       0       0       0       0       0       0
       0       0       0       0       0       0       0       0       0       0
       0       0       0       0       0       0       0       0       0       0
       0       0       0       0       0       0       0       0       0       0
       0       0       0       0       0       0       0       0       0       0
       0       0       0       0       0       0       0       0       0       0
       0       0       0       0       0       0       0       0       0       0
       0       0       0       0       0       0       0       0       0       0
       0       0       0       0       0       0       0       0       0       0
       0       0       0       0       0       0       0       0       0       0
       0       0       0       0       0       0       0       0       0       0
       0       0       0       0       0       0       0       0       0       0
       0       0       0       0       0       0       0       0       0       0
       0       0       0       0       0       0       0       0       0       0
       0       0       0       0       0       0       0       0       0       0
       0       0       0       0       0       0       0       0       0       0
       0       0       0       0       0       0       0       0       0       0
       0       0       0       0       0       0       0       0       0       0
       0       0       0       0       0       0       0       0       0       0
       0       0       0       0       0       0       0       0       0       0
       0       0       0       0       0       0       0       0       0       0
       0       0       0       0       0       0       0       0       0       0
       0       0       0       0       0       0       0       0       0       0
       0       0       0       0       0       0       0       0       0       0
       0       0       0       0       0       0       0       0       0       0
       0       0       0       0       0       0       0       0       0       0
       0       0       0       0       0       0       0       0       0       0
       0       0       0       0       0       0       0       0       0       0
       0       0       0       0       0       0       0       0       0       0
       0       0       0       0       0       0       0       0       0       0
       0       0       0       0       0       0       0       0       0       0
       0       0       0       0       0       0       0       0       0       0
       0       0       0       0       0       0       0       0       0       0
       0       0       0       0       0       0       0       0       0       0
       0       0       0       0       0       0       0       0       0       0
       0       0       0       0       0       0       0       0       0       0
       0       0       0       0       0       0       0       0       0       0
       0       0       0       0       0       0       0       0       0       0
       0       0       0       0       0       0       0       0       0       0
       0       0       0       0       0       0       0       0       0       0
       0       0       0       0       0       0       0       0       0       0
       0       0       0       0       0       0       0       0       0       0
       0       0       0       0       0       0       0       0       0       0
       0       0       0       0       0       0       0       0       0       0
       0       0       0       0       0       0       0       0       0       0
       0       0       0       0       0       0       0       0       0       0
       0       0       0       0       0       0       0       0       0       0
       0       0       0       0       0       0       0       0       0       0
       0       0       0       0       0       0       0       0       0       0
       0       0       0       0       0       0       0       0       0       0
       0       0       0       0       0       0       0       0       0       0
       0       0       0       0       0       0       0       0       0       0
       0       0       0       0       0       0       0       0       0       0
       0       0       0       0       0       0       0       0       0       0
       0       0       0       0       0       0       0       0       0       0
       0       0       0       0       0       0       0       0       0       0
       0       0       0       0       0       0       0       0       0       0
       0       0       0       0       0       0       0       0       0       0
       0       0       0       0       0       0       0       0       0       0
       0       0       0       0       0       0       0       0       0       0
       0       0       0       0       0       0       0       0       0       0
       0       0       0       0       0       0       0       0       0       0
       0       0       0       0       0       0       0       0       0       0
       0       0       0       0       0       0       0       0       0       0
       0       0       0       0       0       0       0       0       0       0
       0       0       0       0       0       0       0       0       0       0
       0       0       0       0       0       0       0       0       0       0
       0       0       0       0       0       0       0       0       0       0
       0       0       0       0       0       0       0       0       0       0
       0       0       0       0       0       0       0       0       0       0
       0       0       0       0       0       0       0       0       0       0
       0       0       0       0       0       0       0       0       0       0
       0       0       0       0       0       0       0       0       0       0
       0       0       0       0       0       0       0       0       0       0
       0       0       0       0       0       0       0       0       0       0
       0       0       0       0       0       0       0       0       0       0
       0       0       0       0       0       0       0       0       0       0
       0       0       0       0       0       0       0       0       0       0
       0       0       0       0       0       0       0       0       0       0
       0       0       0       0       0       0       0       0       0       0
       0       0       0       0       0       0       0       0       0       0
       0       0       0       0       0       0       0       0       0       0
       0       0       0       0       0       0       0       0       0       0
       0       0       0       0       0       0       0       0       0       0
       0       0       0       0       0       0       0       0       0       0
       0       0       0       0       0       0       0       0       0       0
       0       0       0       0       0       0       0       0       0       0
       0       0       0       0       0       0       0       0       0       0
       0       0       0       0       0       0       0       0       0       0
       0       0       0       0       0       0       0       0       0       0
       0       0       0       0       0       0       0       0       0       0
       0       0       0       0       0       0       0       0       0       0
       0       0       0       0       0       0       0       0       0       0
       0       0       0       0       0       0       0       0       0       0
       0       0       0       0       0       0       0       0       0       0
       0       0       0       0       0       0       0       0       0       0
       0       0       0       0       0       0       0       0       0       0
       0       0       0       0       0       0       0       0       0       0
       0       0       0       0       0       0       0       0       0       0
       0       0       0       0       0       0       0       0       0       0
       0       0       0       0       0       0       0       0       0       0
       0       0       0       0       0       0       0       0       0       0
       0       0       0       0       0       0       0       0       0       0
       0       0       0       0       0       0       0       0       0       0
       0       0       0       0       0       0       0       0       0       0
       0       0       0       0       0       0       0       0       0       0
       0       0       0       0       0       0       0       0       0       0
       0       0       0       0       0       0       0       0       0       0
       0       0       0       0       0       0       0       0       0       0
       0       0       0       0       0       0       0       0       0       0
       0       0       0       0       0       0       0       0       0       0
       0       0       0       0       0       0       0       0       0       0
       0       0       0       0       0       0       0       0       0       0
       0       0       0       0       0       0       0       0       0       0
       0       0       0       0       0       0       0       0       0       0
       0       0       0       0       0       0       0       0       0       0
       0       0       0       0       0       0       0       0       0       0
       0       0       0       0       0       0       0       0       0       0
       0       0       0       0       0       0       0       0       0       0
       0       0       0       0       0       0       0       0       0       0
       0       0       0       0       0       0       0       0       0       0
       0       0       0       0       0       0       0       0       0       0
       0       0       0       0       0       0       0       0       0       0
       0       0       0       0       0       0       0       0       0       0
       0       0       0       0       0       0       0       0       0       0
       0       0       0       0       0       0       0       0       0       0
       0       0       0       0       0       0       0       0       0       0
       0       0       0       0       0       0       0       0       0       0
       0       0       0       0       0       0       0       0       0       0
       0       0       0       0       0       0       0       0       0       0
       0       0       0       0       0       0       0       0       0       0
       0       0       0       0       0       0       0       0       0       0
       0       0       0       0       0       0       0       0       0       0
       0       0       0       0       0       0       0       0       0       0
       0       0       0       0       0       0       0       0       0       0
       0       0       0       0       0       0       0       0       0       0
       0       0       0       0       0       0       0       0       0       0
       0       0       0       0       0       0       0       0       0       0
       0       0       0       0       0       0       0       0       0       0
       0       0       0       0       0       0       0       0       0       0
       0       0       0       0       0       0       0       0       0       0
       0       0       0       0       0       0       0       0       0       0
       0       0       0       0       0       0       0       0       0       0
       0       0       0       0       0       0       0       0       0       0
       0       0       0       0       0       0       0       0       0       0
       0       0       0       0       0       0       0       0       0       0
       0       0       0       0       0       0       0       0       0       0
       0       0       0       0       0       0       0       0       0       0
       0       0       0       0       0       0       0       0       0       0
       0       0       0       0       0       0       0       0       0       0
       0       0       0       0       0       0       0       0       0       0
       0       0       0       0       0       0       0       0       0       0
       0       0       0       0       0       0       0       0       0       0
       0       0       0       0       0       0       0       0       0       0
       0       0       0       0       0       0       0       0       0       0
       0       0       0       0       0       0       0       0       0       0
       0       0       0       0       0       0       0       0       0       0
       0       0       0       0       0       0       0       0       0       0
       0       0       0       0       0       0       0       0       0       0
       0       0       0       0       0       0       0       0       0       0
       0       0       0       0       0       0       0       0       0       0
       0       0       0       0       0       0       0       0       0       0
       0       0       0       0       0       0       0       0       0       0
       0       0       0       0       0       0       0       0       0       0
       0       0       0       0       0       0       0       0       0       0
       0       0       0       0       0       0       0       0       0       0
       0       0       0       0       0       0       0       0       0       0
       0       0       0       0       0       0       0       0       0       0
       0       0       0       0       0       0       0       0       0       0
       0       0       0       0       0       0       0       0       0       0
       0       0       0       0       0       0       0       0       0       0
       0       0       0       0       0       0       0       0       0       0
       0       0       0       0       0       0       0       0       0       0
       0       0       0       0       0       0       0       0       0       0
       0       0       0       0       0       0       0       0       0       0
       0       0       0       0       0       0       0       0       0       0
       0       0       0       0       0       0       0       0       0       0
       0       0       0       0       0       0       0       0       0       0
       0       0       0       0       0       0       0       0       0       0
       0       0       0       0       0       0       0       0       0       0
       0       0       0       0       0       0       0       0       0       0
       0       0       0       0       0       0       0       0       0       0
       0       0       0       0       0       0       0       0       0       0
       0       0       0       0       0       0       0       0       0       0
       0       0       0       0       0       0       0       0       0       0
       0       0       0       0       0       0       0       0       0       0
       0       0       0       0       0       0       0       0       0       0
       0       0       0       0       0       0       0       0       0       0
       0       0       0       0       0       0       0       0       0       0
       0       0       0       0       0       0       0       0       0       0
       0       0       0       0       0       0       0       0       0       0
       0       0       0       0       0       0       0       0       0       0
       0       0       0       0       0       0       0       0       0       0
       0       0       0       0       0       0       0       0       0       0
       0       0       0       0       0       0       0       0       0       0
       0       0       0       0       0       0       0       0       0       0
       0       0       0       0       0       0       0       0       0       0
       0       0       0       0       0       0       0       0       0       0
       0       0       0       0       0       0       0       0       0       0
       0       0       0       0       0       0       0       0       0       0
       0       0       0       0       0       0       0       0       0       0
       0       0       0       0       0       0       0       0       0       0
       0       0       0       0       0       0       0       0       0       0
       0       0       0       0       0       0       0       0       0       0
       0       0       0       0       0       0       0       0       0       0
       0       0       0       0       0       0       0       0       0       0
       0       0       0       0       0       0       0       0       0       0
       0       0       0       0       0       0       0       0       0       0
       0       0       0       0       0       0       0       0       0       0
       0       0       0       0       0       0       0       0       0       0
       0       0       0       0       0       0       0       0       0       0
       0       0       0       0       0       0       0       0       0       0
       0       0       0       0       0       0       0       0       0       0
       0       0       0       0       0       0       0       0       0       0
       0       0       0       0       0       0       0       0       0       0
       0       0       0       0       0       0       0       0       0       0
       0       0       0       0       0       0       0       0       0       0
       0       0       0       0       0       0       0       0       0       0
       0       0       0       0       0       0       0       0       0       0
       0       0       0       0       0       0       0       0       0       0
       0       0       0       0       0       0       0       0       0       0
       0       0       0       0       0       0       0       0       0       0
       0       0       0       0       0       0       0       0       0       0
       0       0       0       0       0       0       0       0       0       0
       0       0       0       0       0       0       0       0       0       0
       0       0       0       0       0       0       0       0       0       0
       0       0       0       0       0       0       0       0       0       0
       0       0       0       0       0       0       0       0       0       0
       0       0       0       0       0       0       0       0       0       0
       0       0       0       0       0       0       0       0       0       0
       0       0       0       0       0       0       0       0       0       0
       0       0       0       0       0       0       0       0       0       0
       0       0       0       0       0       0       0       0       0       0
       0       0       0       0       0       0       0       0       0       0
       0       0       0       0       0       0       0       0       0       0
       0       0       0       0       0       0       0       0       0       0
       0       0       0       0       0       0       0       0       0       0
       0       0       0       0       0       0       0       0       0       0
       0       0       0       0       0       0       0       0       0       0
       0       0       0       0       0       0       0       0       0       0
       0       0       0       0       0       0       0       0       0       0
       0       0       0       0       0       0       0       0       0       0
       0       0       0       0       0       0       0       0       0       0
       0       0       0       0       0       0       0       0       0       0
       0       0       0       0       0       0       0       0       0       0
       0       0       0       0       0       0       0       0       0       0
       0       0       0       0       0       0       0       0       0       0
       0       0       0       0       0       0       0       0       0       0
       0       0       0       0       0       0       0       0       0       0
       0       0       0       0       0       0       0       0       0       0
       0       0       0       0       0       0       0       0       0       0
       0       0       0       0       0       0       0       0       0       0
       0       0       0       0       0       0       0       0       0       0
       0       0       0       0       0       0       0       0       0       0
       0       0       0       0       0       0       0       0       0       0
       0       0       0       0       0       0       0       0       0       0
       0       0       0       0       0       0       0       0       0       0
       0       0       0       0       0       0       0       0       0       0
       0       0       0       0       0       0       0       0       0       0
       0       0       0       0       0       0       0       0       0       0
       0       0       0       0       0       0       0       0       0       0
       0       0       0       0       0       0       0       0       0       0
       0       0       0       0       0       0       0       0       0       0
       0       0       0       0       0       0       0       0       0       0
       0       0       0       0       0       0       0       0       0       0
       0       0       0       0       0       0       0       0       0       0
       0       0       0       0       0       0       0       0       0       0
       0       0       0       0       0       0       0       0       0       0
       0       0       0       0       0       0       0       0       0       0
       0       0       0       0       0       0       0       0       0       0
       0       0       0       0       0       0       0       0       0       0
       0       0       0       0       0       0       0       0       0       0
       0       0       0       0       0       0       0       0       0       0
       0       0       0       0       0       0       0       0       0       0
       0       0       0       0       0       0       0       0       0       0
       0       0       0       0       0       0       0       0       0       0
       0       0       0       0       0       0       0       0       0       0
       0       0       0       0       0       0       0       0       0       0
       0       0       0       0       0       0       0       0       0       0
       0       0       0       0       0       0       0       0       0       0
       0       0       0       0       0       0       0       0       0       0
       0       0       0       0       0       0       0       0       0       0
       0       0       0       0       0       0       0       0       0       0
       0       0       0       0       0       0       0       0       0       0
       0       0       0       0       0       0       0       0       0       0
       0       0       0       0       0       0       0       0       0       0
       0       0       0       0       0       0       0       0       0       0
       0       0       0       0       0       0       0       0       0       0
       0       0       0       0       0       0       0       0       0       0
       0       0       0       0       0       0       0       0       0       0
       0       0       0       0       0       0       0       0       0       0
       0       0       0       0       0       0       0       0       0       0
       0       0       0       0       0       0       0       0       0       0
       0       0       0       0       0       0       0       0       0       0
       0       0       0       0       0       0       0       0       0       0
       0       0       0       0       0       0       0       0       0       0
       0       0       0       0       0       0       0       0       0       0
       0       0       0       0       0       0       0       0       0       0
       0       0       0       0       0       0       0       0       0       0
       0       0       0       0       0       0       0       0       0       0
       0       0       0       0       0       0       0       0       0       0
       0       0       0       0       0       0       0       0       0       0
       0       0       0       0       0       0       0       0       0       0
       0       0       0       0       0       0       0       0       0       0
       0       0       0       0       0       0       0       0       0       0
       0       0       0       0       0       0       0       0       0       0
       0       0       0       0       0       0       0       0       0       0
       0       0       0       0       0       0       0       0       0       0
       0       0       0       0       0       0       0       0       0       0
       0       0       0       0       0       0       0       0       0       0
       0       0       0       0       0       0       0       0       0       0
       0       0       0       0       0       0       0       0       0       0
       0       0       0       0       0       0       0       0       0       0
       0       0       0       0       0       0       0       0       0       0
       0       0       0       0       0       0       0       0       0       0
       0       0       0       0       0       0       0       0       0       0
       0       0       0       0       0       0       0       0       0       0
       0       0       0       0       0       0       0       0       0       0
       0       0       0       0       0       0       0       0       0       0
       0       0       0       0       0       0       0       0       0       0
       0       0       0       0       0       0       0       0       0       0
       0       0       0       0       0       0       0       0       0       0
       0       0       0       0       0       0       0       0       0       0
       0       0       0       0       0       0       0       0       0       0
       0       0       0       0       0       0       0       0       0       0
       0       0       0       0       0       0       0       0       0       0
       0       0       0       0       0       0       0       0       0       0
       0       0       0       0       0       0       0       0       0       0
       0       0       0       0       0       0       0       0       0       0
       0       0       0       0       0       0       0       0       0       0
       0       0       0       0       0       0       0       0       0       0
       0       0       0       0       0       0       0       0       0       0
       0       0       0       0       0       0       0       0       0       0
       0       0       0       0       0       0       0       0       0       0
       0       0       0       0       0       0       0       0       0       0
       0       0       0       0       0       0       0       0       0       0
       0       0       0       0       0       0       0       0       0       0
       0       0       0       0       0       0       0       0       0       0
       0       0       0       0       0       0       0       0       0       0
       0       0       0       0       0       0       0       0       0       0
       0       0       0       0       0       0       0       0       0       0
       0       0       0       0       0       0       0       0       0       0
       0       0       0       0       0       0       0       0       0       0
       0       0       0       0       0       0       0       0       0       0
       0       0       0       0       0       0       0       0       0       0
       0       0       0       0       0       0       0       0       0       0
       0       0       0       0       0       0       0       0       0       0
       0       0       0       0       0       0       0       0       0       0
       0       0       0       0       0       0       0       0       0       0
       0       0       0       0       0       0       0       0       0       0
       0       0       0       0       0       0       0       0       0       0
       0       0       0       0       0       0       0       0       0       0
       0       0       0       0       0       0       0       0       0       0
       0       0       0       0       0       0       0       0       0       0
       0       0       0       0       0       0       0       0       0       0
       0       0       0       0       0       0       0       0       0       0
       0       0       0       0       0       0       0       0       0       0
       0       0       0       0       0       0       0       0       0       0
       0       0       0       0       0       0       0       0       0       0
       0       0       0       0       0       0       0       0       0       0
       0       0       0       0       0       0       0       0       0       0
       0       0       0       0       0       0       0       0       0       0
       0       0       0       0       0       0       0       0       0       0
       0       0       0       0       0       0       0       0       0       0
       0       0       0       0       0       0       0       0       0       0
       0       0       0       0       0       0       0       0       0       0
       0       0       0       0       0       0       0       0       0       0
       0       0       0       0       0       0       0       0       0       0
       0       0       0       0       0       0       0       0       0       0
       0       0       0       0       0       0       0       0       0       0
       0       0       0       0       0       0       0       0       0       0
       0       0       0       0       0       0       0       0       0       0
       0       0       0       0       0       0       0       0       0       0
       0       0       0       0       0       0       0       0       0       0
       0       0       0       0       0       0       0       0       0       0
       0       0       0       0       0       0       0       0       0       0
       0       0       0       0       0       0       0       0       0       0
       0       0       0       0       0       0       0       0       0       0
       0       0       0       0       0       0       0       0       0       0
       0       0       0       0       0       0       0       0       0       0
       0       0       0       0       0       0       0       0       0       0
       0       0       0       0       0       0       0       0       0       0
       0       0       0       0       0       0       0       0       0       0
       0       0       0       0       0       0       0       0       0       0
       0       0       0       0       0       0       0       0       0       0
       0       0       0       0       0       0       0       0       0       0
       0       0       0       0       0       0       0       0       0       0
       0       0       0       0       0       0       0       0       0       0
       0       0       0       0       0       0       0       0       0       0
       0       0       0       0       0       0       0       0       0       0
       0       0       0       0       0       0       0       0       0       0
       0       0       0       0       0       0       0       0       0       0
       0       0       0       0       0       0       0       0       0       0
       0       0       0       0       0       0       0       0       0       0
       0       0       0       0       0       0       0       0       0       0
       0       0       0       0       0       0       0       0       0       0
       0       0       0       0       0       0       0       0       0       0
       0       0       0       0       0       0       0       0       0       0
       0       0       0       0       0       0       0       0       0       0
       0       0       0       0       0       0       0       0       0       0
       0       0       0       0       0       0       0       0       0       0
       0       0       0       0       0       0       0       0       0       0
       0       0       0       0       0       0       0       0       0       0
       0       0       0       0       0       0       0       0       0       0
       0       0       0       0       0       0       0       0       0       0
       0       0       0       0       0       0       0       0       0       0
       0       0       0       0       0       0       0       0       0       0
       0       0       0       0       0       0       0       0       0       0
       0       0       0       0       0       0       0       0       0       0
       0       0       0       0       0       0       0       0       0       0
       0       0       0       0       0       0       0       0       0       0
       0       0       0       0       0       0       0       0       0       0
       0       0       0       0       0       0       0       0       0       0
       0       0       0       0       0       0       0       0       0       0
       0       0       0       0       0       0       0       0       0       0
       0       0       0       0       0       0       0       0       0       0
       0       0       0       0       0       0       0       0       0       0
       0       0       0       0       0       0       0       0       0       0
       0       0       0       0       0       0       0       0       0       0
       0       0       0       0       0       0       0       0       0       0
       0       0       0       0       0       0       0       0       0       0
       0       0       0       0       0       0       0       0       0       0
       0       0       0       0       0       0       0       0       0       0
       0       0       0       0       0       0       0       0       0       0
       0       0       0       0       0       0       0       0       0       0
       0       0       0       0       0       0       0       0       0       0
       0       0       0       0       0       0       0       0       0       0
       0       0       0       0       0       0       0       0       0       0
       0       0       0       0       0       0       0       0       0       0
       0       0       0       0       0       0       0       0       0       0
       0       0       0       0       0       0       0       0       0       0
       0       0       0       0       0       0       0       0       0       0
       0       0       0       0       0       0       0       0       0       0
       0       0       0       0       0       0       0       0       0       0
       0       0       0       0       0       0       0       0       0       0
       0       0       0       0       0       0       0       0       0       0
       0       0       0       0       0       0       0       0       0       0
       0       0       0       0       0       0       0       0       0       0
       0       0       0       0       0       0       0       0       0       0
       0       0       0       0       0       0       0       0       0       0
       0       0       0       0       0       0       0       0       0       0
       0       0       0       0       0       0       0       0       0       0
       0       0       0       0       0       0       0       0       0       0
       0       0       0       0       0       0       0       0       0       0
       0       0       0       0       0       0       0       0       0       0
       0       0       0       0       0       0       0       0       0       0
       0       0       0       0       0       0       0       0       0       0
       0       0       0       0       0       0       0       0       0       0
       0       0       0       0       0       0       0       0       0       0
       0       0       0       0       0       0       0       0       0       0
       0       0       0       0       0       0       0       0       0       0
       0       0       0       0       0       0       0       0       0       0
       0       0       0       0       0       0       0       0       0       0
       0       0       0       0       0       0       0       0       0       0
       0       0       0       0       0       0       0       0       0       0
       0       0       0       0       0       0       0       0       0       0
       0       0       0       0       0       0       0       0       0       0
       0       0       0       0       0       0       0       0       0       0
       0       0       0       0       0       0       0       0       0       0
       0       0       0       0       0       0       0       0       0       0
       0       0       0       0       0       0       0       0       0       0
       0       0       0       0       0       0       0       0       0       0
       0       0       0       0       0       0       0       0       0       0
       0       0       0       0       0       0       0       0       0       0
       0       0       0       0       0       0       0       0       0       0
       0       0       0       0       0       0       0       0       0       0
       0       0       0       0       0       0       0       0       0       0
       0       0       0       0       0       0       0       0       0       0
       0       0       0       0       0       0       0       0       0       0
       0       0       0       0       0       0       0       0       0       0
       0       0       0       0       0       0       0       0       0       0
       0       0       0       0       0       0       0       0       0       0
       0       0       0       0       0       0       0       0       0       0
       0       0       0       0       0       0       0       0       0       0
       0       0       0       0       0       0       0       0       0       0
       0       0       0       0       0       0       0       0       0       0
       0       0       0       0       0       0       0       0       0       0
       0       0       0       0       0       0       0       0       0       0
       0       0       0       0       0       0       0       0       0       0
       0       0       0       0       0       0       0       0       0       0
       0       0       0       0       0       0       0       0       0       0
       0       0       0       0       0       0       0       0       0       0
       0       0       0       0       0       0       0       0       0       0
       0       0       0       0       0       0       0       0       0       0
       0       0       0       0       0       0       0       0       0       0
       0       0       0       0       0       0       0       0       0       0
       0       0       0       0       0       0       0       0       0       0
       0       0       0       0       0       0       0       0       0       0
       0       0       0       0       0       0       0       0       0       0
       0       0       0       0       0       0       0       0       0       0
       0       0       0       0       0       0       0       0       0       0
       0       0       0       0       0       0       0       0       0       0
       0       0       0       0       0       0       0       0       0       0
       0       0       0       0       0       0       0       0       0       0
       0       0       0       0       0       0       0       0       0       0
       0       0       0       0       0       0       0       0       0       0
       0       0       0       0       0       0       0       0       0       0
       0       0       0       0       0       0       0       0       0       0
       0       0       0       0       0       0       0       0       0       0
       0       0       0       0       0       0       0       0       0       0
       0       0       0       0       0       0       0       0       0       0
       0       0       0       0       0       0       0       0       0       0
       0       0       0       0       0       0       0       0       0       0
       0       0       0       0       0       0       0       0       0       0
       0       0       0       0       0       0       0       0       0       0
       0       0       0       0       0       0       0       0       0       0
       0       0       0       0       0       0       0       0       0       0
       0       0       0       0       0       0       0       0       0       0
       0       0       0       0       0       0       0       0       0       0
       0       0       0       0       0       0       0       0       0       0
       0       0       0       0       0       0       0       0       0       0
       0       0       0       0       0       0       0       0       0       0
       0       0       0       0       0       0       0       0       0       0
       0       0       0       0       0       0       0       0       0       0
       0       0       0       0       0       0       0       0       0       0
       0       0       0       0       0       0       0       0       0       0
       0       0       0       0       0       0       0       0       0       0
       0       0       0       0       0       0       0       0       0       0
       0       0       0       0       0       0       0       0       0       0
       0       0       0       0       0       0       0       0       0       0
       0       0       0       0       0       0       0       0       0       0
       0       0       0       0       0       0       0       0       0       0
       0       0       0       0       0       0       0       0       0       0
       0       0       0       0       0       0       0       0       0       0
       0       0       0       0       0       0       0       0       0       0
       0       0       0       0       0       0       0       0       0       0
       0       0       0       0       0       0       0       0       0       0
       0       0       0       0       0       0       0       0       0       0
       0       0       0       0       0       0       0       0       0       0
       0       0       0       0       0       0       0       0       0       0
       0       0       0       0       0       0       0       0       0       0
       0       0       0       0       0       0       0       0       0       0
       0       0       0       0       0       0       0       0       0       0
       0       0       0       0       0       0       0       0       0       0
       0       0       0       0       0       0       0       0       0       0
       0       0       0       0       0       0       0       0       0       0
       0       0       0       0       0       0       0       0       0       0
       0       0       0       0       0       0       0       0       0       0
       0       0       0       0       0       0       0       0       0       0
       0       0       0       0       0       0       0       0       0       0
       0       0       0       0       0       0       0       0       0       0
       0       0       0       0       0       0       0       0       0       0
       0       0       0       0       0       0       0       0       0       0
       0       0       0       0       0       0       0       0       0       0
       0       0       0       0       0       0       0       0       0       0
       0       0       0       0       0       0       0       0       0       0
       0       0       0       0       0       0       0       0       0       0
       0       0       0       0       0       0       0       0       0       0
       0       0       0       0       0       0       0       0       0       0
       0       0       0       0       0       0       0       0       0       0
       0       0       0       0       0       0       0       0       0       0
       0       0       0       0       0       0       0       0       0       0
       0       0       0       0       0       0       0       0       0       0
       0       0       0       0       0       0       0       0       0       0
       0       0       0       0       0       0       0       0       0       0
       0       0       0       0       0       0       0       0       0       0
       0       0       0       0       0       0       0       0       0       0
       0       0       0       0       0       0       0       0       0       0
       0       0       0       0       0       0       0       0       0       0
       0       0       0       0       0       0       0       0       0       0
       0       0       0       0       0       0       0       0       0       0
       0       0       0       0       0       0       0       0       0       0
       0       0       0       0       0       0       0       0       0       0
       0       0       0       0       0       0       0       0       0       0
       0       0       0       0       0       0       0       0       0       0
       0       0       0       0       0       0       0       0       0       0
       0       0       0       0       0       0       0       0       0       0
       0       0       0       0       0       0       0       0       0       0
       0       0       0       0       0       0       0       0       0       0
       0       0       0       0       0       0       0       0       0       0
       0       0       0       0       0       0       0       0       0       0
       0       0       0       0       0       0       0       0       0       0
       0       0       0       0       0       0       0       0       0       0
       0       0       0       0       0       0       0       0       0       0
       0       0       0       0       0       0       0       0       0       0
       0       0       0       0       0       0       0       0       0       0
       0       0       0       0       0       0       0       0       0       0
       0       0       0       0       0       0       0       0       0       0
       0       0       0       0       0       0       0       0       0       0
       0       0       0       0       0       0       0       0       0       0
       0       0       0       0       0       0       0       0       0       0
       0       0       0       0       0       0       0       0       0       0
       0       0       0       0       0       0       0       0       0       0
       0       0       0       0       0       0       0       0       0       0
       0       0       0       0       0       0       0       0       0       0
       0       0       0       0       0       0       0       0       0       0
       0       0       0       0       0       0       0       0       0       0
       0       0       0       0       0       0       0       0       0       0
       0       0       0       0       0       0       0       0       0       0
       0       0       0       0       0       0       0       0       0       0
       0       0       0       0       0       0       0       0       0       0
       0       0       0       0       0       0       0       0       0       0
       0       0       0       0       0       0       0       0       0       0
       0       0       0       0       0       0       0       0       0       0
       0       0       0       0       0       0       0       0       0       0
       0       0       0       0       0       0       0       0       0       0
       0       0       0       0       0       0       0       0       0       0
       0       0       0       0       0       0       0       0       0       0
       0       0       0       0       0       0       0       0       0       0
       0       0       0       0       0       0       0       0       0       0
       0       0       0       0       0       0       0       0       0       0
       0       0       0       0       0       0       0       0       0       0
       0       0       0       0       0       0       0       0       0       0
       0       0       0       0       0       0       0       0       0       0
       0       0       0       0       0       0       0       0       0       0
       0       0       0       0       0       0       0       0       0       0
       0       0       0       0       0       0       0       0       0       0
       0       0       0       0       0       0       0       0       0       0
       0       0       0       0       0       0       0       0       0       0
       0       0       0       0       0       0       0       0       0       0
       0       0       0       0       0       0       0       0       0       0
       0       0       0       0       0       0       0       0       0       0
       0       0       0       0       0       0       0       0       0       0
       0       0       0       0       0       0       0       0       0       0
       0       0       0       0       0       0       0       0       0       0
       0       0       0       0       0       0       0       0       0       0
       0       0       0       0       0       0       0       0       0       0
       0       0       0       0       0       0       0       0       0       0
       0       0       0       0       0       0       0       0       0       0
       0       0       0       0       0       0       0       0       0       0
       0       0       0       0       0       0       0       0       0       0
       0       0       0       0       0       0       0       0       0       0
       0       0       0       0       0       0       0       0       0       0
       0       0       0       0       0       0       0       0       0       0
       0       0       0       0       0       0       0       0       0       0
       0       0       0       0       0       0       0       0       0       0
       0       0       0       0       0       0       0       0       0       0
       0       0       0       0       0       0       0       0       0       0
       0       0       0       0       0       0       0       0       0       0
       0       0       0       0       0       0       0       0       0       0
       0       0       0       0       0       0       0       0       0       0
       0       0       0       0       0       0       0       0       0       0
       0       0       0       0       0       0       0       0       0       0
       0       0       0       0       0       0       0       0       0       0
       0       0       0       0       0       0       0       0       0       0
       0       0       0       0       0       0       0       0       0       0
       0       0       0       0       0       0       0       0       0       0
       0       0       0       0       0       0       0       0       0       0
       0       0       0       0       0       0       0       0       0       0
       0       0       0       0       0       0       0       0       0       0
       0       0       0       0       0       0       0       0       0       0
       0       0       0       0       0       0       0       0       0       0
       0       0       0       0       0       0       0       0       0       0
       0       0       0       0       0       0       0       0       0       0
       0       0       0       0       0       0       0       0       0       0
       0       0       0       0       0       0       0       0       0       0
       0       0       0       0       0       0       0       0       0       0
       0       0       0       0       0       0       0       0       0       0
       0       0       0       0       0       0       0       0       0       0
       0       0       0       0       0       0       0       0       0       0
       0       0       0       0       0       0       0       0       0       0
       0       0       0       0       0       0       0       0       0       0
       0       0       0       0       0       0       0       0       0       0
       0       0       0       0       0       0       0       0       0       0
       0       0       0       0       0       0       0       0       0       0
       0       0       0       0       0       0       0       0       0       0
       0       0       0       0       0       0       0       0       0       0
       0       0       0       0       0       0       0       0       0       0
       0       0       0       0       0       0       0       0       0       0
       0       0       0       0       0       0       0       0       0       0
       0       0       0       0       0       0       0       0       0       0
       0       0       0       0       0       0       0       0       0       0
       0       0       0       0       0       0       0       0       0       0
       0       0       0       0       0       0       0       0       0       0
       0       0       0       0       0       0       0       0       0       0
       0       0       0       0       0       0       0       0       0       0
       0       0       0       0       0       0       0       0       0       0
       0       0       0       0       0       0       0       0       0       0
       0       0       0       0       0       0       0       0       0       0
       0       0       0       0       0       0       0       0       0       0
       0       0       0       0       0       0       0       0       0       0
       0       0       0       0       0       0       0       0       0       0
       0       0       0       0       0       0       0       0       0       0
       0       0       0       0       0       0       0       0       0       0
       0       0       0       0       0       0       0       0       0       0
       0       0       0       0       0       0       0       0       0       0
       0       0       0       0       0       0       0       0       0       0
       0       0       0       0       0       0       0       0       0       0
       0       0       0       0       0       0       0       0       0       0
       0       0       0       0       0       0       0       0       0       0
       0       0       0       0       0       0       0       0       0       0
       0       0       0       0       0       0       0       0       0       0
       0       0       0       0       0       0       0       0       0       0
       0       0       0       0       0       0       0       0       0       0
       0       0       0       0       0       0       0       0       0       0
       0       0       0       0       0       0       0       0       0       0
       0       0       0       0       0       0       0       0       0       0
       0       0       0       0       0       0       0       0       0       0
       0       0       0       0       0       0       0       0       0       0
       0       0       0       0       0       0       0       0       0       0
       0       0       0       0       0       0       0       0       0       0
       0       0       0       0       0       0       0       0       0       0
       0       0       0       0       0       0       0       0       0       0
       0       0       0       0       0       0       0       0       0       0
       0       0       0       0       0       0       0       0       0       0
       0       0       0       0       0       0       0       0       0       0
       0       0       0       0       0       0       0       0       0       0
       0       0       0       0       0       0       0       0       0       0
       0       0       0       0       0       0       0       0       0       0
       0       0       0       0       0       0       0       0       0       0
       0       0       0       0       0       0       0       0       0       0
       0       0       0       0       0       0       0       0       0       0
       0       0       0       0       0       0       0       0       0       0
       0       0       0       0       0       0       0       0       0       0
       0       0       0       0       0       0       0       0       0       0
       0       0       0       0       0       0       0       0       0       0
       0       0       0       0       0       0       0       0       0       0
       0       0       0       0       0       0       0       0       0       0
       0       0       0       0       0       0       0       0       0       0
       0       0       0       0       0       0       0       0       0       0
       0       0       0       0       0       0       0       0       0       0
       0       0       0       0       0       0       0       0       0       0
       0       0       0       0       0       0       0       0       0       0
       0       0       0       0       0       0       0       0       0       0
       0       0       0       0       0       0       0       0       0       0
       0       0       0       0       0       0       0       0       0       0
       0       0       0       0       0       0       0       0       0       0
       0       0       0       0       0       0       0       0       0       0
       0       0       0       0       0       0       0       0       0       0
       0       0       0       0       0       0       0       0       0       0
       0       0       0       0       0       0       0       0       0       0
       0       0       0       0       0       0       0       0       0       0
       0       0       0       0       0       0       0       0       0       0
       0       0       0       0       0       0       0       0       0       0
       0       0       0       0       0       0       0       0       0       0
       0       0       0       0       0       0       0       0       0       0
       0       0       0       0       0       0       0       0       0       0
       0       0       0       0       0       0       0       0       0       0
       0       0       0       0       0       0       0       0       0       0
       0       0       0       0       0       0       0       0       0       0
       0       0       0       0       0       0       0       0       0       0
       0       0       0       0       0       0       0       0       0       0
       0       0       0       0       0       0       0       0       0       0
       0       0       0       0       0       0       0       0       0       0
       0       0       0       0       0       0       0       0       0       0
       0       0       0       0       0       0       0       0       0       0
       0       0       0       0       0       0       0       0       0       0
       0       0       0       0       0       0       0       0       0       0
       0       0       0       0       0       0       0       0       0       0
       0       0       0       0       0       0       0       0       0       0
       0       0       0       0       0       0       0       0       0       0
       0       0       0       0       0       0       0       0       0       0
       0       0       0       0       0       0       0       0       0       0
       0       0       0       0       0       0       0       0       0       0
       0       0       0       0       0       0       0       0       0       0
       0       0       0       0       0       0       0       0       0       0
       0       0       0       0       0       0       0       0       0       0
       0       0       0       0       0       0       0       0       0       0
       0       0       0       0       0       0       0       0       0       0
       0       0       0       0       0       0       0       0       0       0
       0       0       0       0       0       0       0       0       0       0
       0       0       0       0       0       0       0       0       0       0
       0       0       0       0       0       0       0       0       0       0
       0       0       0       0       0       0       0       0       0       0
       0       0       0       0       0       0       0       0       0       0
       0       0       0       0       0       0       0       0       0       0
       0       0       0       0       0       0       0       0       0       0
       0       0       0       0       0       0       0       0       0       0
       0       0       0       0       0       0       0       0       0       0
       0       0       0       0       0       0       0       0       0       0
       0       0       0       0       0       0       0       0       0       0
       0       0       0       0       0       0       0       0       0       0
       0       0       0       0       0       0       0       0       0       0
       0       0       0       0       0       0       0       0       0       0
       0       0       0       0       0       0       0       0       0       0
       0       0       0       0       0       0       0       0       0       0
       0       0       0       0       0       0       0       0       0       0
       0       0       0       0       0       0       0       0       0       0
       0       0       0       0       0       0       0       0       0       0
       0       0       0       0       0       0       0       0       0       0
       0       0       0       0       0       0       0       0       0       0
       0       0       0       0       0       0       0       0       0       0
       0       0       0       0       0       0       0       0       0       0
       0       0       0       0       0       0       0       0       0       0
       0       0       0       0       0       0       0       0       0       0
       0       0       0       0       0       0       0       0       0       0
       0       0       0       0       0       0       0       0       0       0
       0       0       0       0       0       0       0       0       0       0
       0       0       0       0       0       0       0       0       0       0
       0       0       0       0       0       0       0       0       0       0
       0       0       0       0       0       0       0       0       0       0
       0       0       0       0       0       0       0       0       0       0
       0       0       0       0       0       0       0       0       0       0
       0       0       0       0       0       0       0       0       0       0
       0       0       0       0       0       0       0       0       0       0
       0       0       0       0       0       0       0       0       0       0
       0       0       0       0       0       0       0       0       0       0
       0       0       0       0       0       0       0       0       0       0
       0       0       0       0       0       0       0       0       0       0
       0       0       0       0       0       0       0       0       0       0
       0       0       0       0       0       0       0       0       0       0
       0       0       0       0       0       0       0       0       0       0
       0       0       0       0       0       0       0       0       0       0
       0       0       0       0       0       0       0       0       0       0
       0       0       0       0       0       0       0       0       0       0
       0       0       0       0       0       0       0       0       0       0
       0       0       0       0       0       0       0       0       0       0
       0       0       0       0       0       0       0       0       0       0
       0       0       0       0       0       0       0       0       0       0
       0       0       0       0       0       0       0       0       0       0
       0       0       0       0       0       0       0       0       0       0
       0       0       0       0       0       0       0       0       0       0
       0       0       0       0       0       0       0       0       0       0
       0       0       0       0       0       0       0       0       0       0
       0       0       0       0       0       0       0       0       0       0
       0       0       0       0       0       0       0       0       0       0
       0       0       0       0       0       0       0       0       0       0
       0       0       0       0       0       0       0       0       0       0
       0       0       0       0       0       0       0       0       0       0
       0       0       0       0       0       0       0       0       0       0
       0       0       0       0       0       0       0       0       0       0
       0       0       0       0       0       0       0       0       0       0
       0       0       0       0       0       0       0       0       0       0
       0       0       0       0       0       0       0       0       0       0
       0       0       0       0       0       0       0       0       0       0
       0       0       0       0       0       0       0       0       0       0
       0       0       0       0       0       0       0       0       0       0
       0       0       0       0       0       0       0       0       0       0
       0       0       0       0       0       0       0       0       0       0
       0       0       0       0       0       0       0       0       0       0
       0       0       0       0       0       0       0       0       0       0
       0       0       0       0       0       0       0       0       0       0
       0       0       0       0       0       0       0       0       0       0
       0       0       0       0       0       0       0       0       0       0
       0       0       0       0       0       0       0       0       0       0
       0       0       0       0       0       0       0       0       0       0
       0       0       0       0       0       0       0       0       0       0
       0       0       0       0       0       0       0       0       0       0
       0       0       0       0       0       0       0       0       0       0
       0       0       0       0       0       0       0       0       0       0
       0       0       0       0       0       0       0       0       0       0
       0       0       0       0       0       0       0       0       0       0
       0       0       0       0       0       0       0       0       0       0
       0       0       0       0       0       0       0       0       0       0
       0       0       0       0       0       0       0       0       0       0
       0       0       0       0       0       0       0       0       0       0
       0       0       0       0       0       0       0       0       0       0
       0       0       0       0       0       0       0       0       0       0
       0       0       0       0       0       0       0       0       0       0
       0       0       0       0       0       0       0       0       0       0
       0       0       0       0       0       0       0       0       0       0
       0       0       0       0       0       0       0       0       0       0
       0       0       0       0       0       0       0       0       0       0
       0       0       0       0       0       0       0       0       0       0
       0       0       0       0       0       0       0       0       0       0
       0       0       0       0       0       0       0       0       0       0
       0       0       0       0       0       0       0       0       0       0
       0       0       0       0       0       0       0       0       0       0
       0       0       0       0       0       0       0       0       0       0
       0       0       0       0       0       0       0       0       0       0
       0       0       0       0       0       0       0       0       0       0
       0       0       0       0       0       0       0       0       0       0
       0       0       0       0       0       0       0       0       0       0
       0       0       0       0       0       0       0       0       0       0
       0       0       0       0       0       0       0       0       0       0
       0       0       0       0       0       0       0       0       0       0
       0       0       0       0       0       0       0       0       0       0
       0       0       0       0       0       0       0       0       0       0
       0       0       0       0       0       0       0       0       0       0
       0       0       0       0       0       0       0       0       0       0
       0       0       0       0       0       0       0       0       0       0
       0       0       0       0       0       0       0       0       0       0
       0       0       0       0       0       0       0       0       0       0
       0       0       0       0       0       0       0       0       0       0
       0       0       0       0       0       0       0       0       0       0
       0       0       0       0       0       0       0       0       0       0
       0       0       0       0       0       0       0       0       0       0
       0       0       0       0       0       0       0       0       0       0
       0       0       0       0       0       0       0       0       0       0
       0       0       0       0       0       0       0       0       0       0
       0       0       0       0       0       0       0       0       0       0
       0       0       0       0       0       0       0       0       0       0
       0       0       0       0       0       0       0       0       0       0
       0       0       0       0       0       0       0       0       0       0
       0       0       0       0       0       0       0       0       0       0
       0       0       0       0       0       0       0       0       0       0
       0       0       0       0       0       0       0       0       0       0
       0       0       0       0       0       0       0       0       0       0
       0       0       0       0       0       0       0       0       0       0
       0       0       0       0       0       0       0       0       0       0
       0       0       0       0       0       0       0       0       0       0
       0       0       0       0       0       0       0       0       0       0
       0       0       0       0       0       0       0       0       0       0
       0       0       0       0       0       0       0       0       0       0
       0       0       0       0       0       0       0       0       0       0
       0       0       0       0       0       0       0       0       0       0
       0       0       0       0       0       0       0       0       0       0
       0       0       0       0       0       0       0       0       0       0
       0       0       0       0       0       0       0       0       0       0
       0       0       0       0       0       0       0       0       0       0
       0       0       0       0       0       0       0       0       0       0
       0       0       0       0       0       0       0       0       0       0
       0       0       0       0       0       0       0       0       0       0
       0       0       0       0       0       0       0       0       0       0
       0       0       0       0       0       0       0       0       0       0
       0       0       0       0       0       0       0       0       0       0
       0       0       0       0       0       0       0       0       0       0
       0       0       0       0       0       0       0       0       0       0
       0       0       0       0       0       0       0       0       0       0
       0       0       0       0       0       0       0       0       0       0
       0       0       0       0       0       0       0       0       0       0
       0       0       0       0       0       0       0       0       0       0
       0       0       0       0       0       0       0       0       0       0
       0       0       0       0       0       0       0       0       0       0
       0       0       0       0       0       0       0       0       0       0
       0       0       0       0       0       0       0       0       0       0
       0       0       0       0       0       0       0       0       0       0
       0       0       0       0       0       0       0       0       0       0
       0       0       0       0       0       0       0       0       0       0
       0       0       0       0       0       0       0       0       0       0
       0       0       0       0       0       0       0       0       0       0
       0       0       0       0       0       0       0       0       0       0
       0       0       0       0       0       0       0       0       0       0
       0       0       0       0       0       0       0       0       0       0
       0       0       0       0       0       0       0       0       0       0
       0       0       0       0       0       0       0       0       0       0
       0       0       0       0       0       0       0       0       0       0
       0       0       0       0       0       0       0       0       0       0
       0       0       0       0       0       0       0       0       0       0
       0       0       0       0       0       0       0       0       0       0
       0       0       0       0       0       0       0       0       0       0
       0       0       0       0       0       0       0       0       0       0
       0       0       0       0       0       0       0       0       0       0
       0       0       0       0       0       0       0       0       0       0
       0       0       0       0       0       0       0       0       0       0
       0       0       0       0       0       0       0       0       0       0
       0       0       0       0       0       0       0       0       0       0
       0       0       0       0       0       0       0       0       0       0
       0       0       0       0       0       0       0       0       0       0
       0       0       0       0       0       0       0       0       0       0
       0       0       0       0       0       0       0       0       0       0
       0       0       0       0       0       0       0       0       0       0
       0       0       0       0       0       0       0       0       0       0
       0       0       0       0       0       0       0       0       0       0
       0       0       0       0       0       0       0       0       0       0
       0       0       0       0       0       0       0       0       0       0
       0       0       0       0       0       0       0       0       0       0
       0       0       0       0       0       0       0       0       0       0
       0       0       0       0       0       0       0       0       0       0
       0       0       0       0       0       0       0       0       0       0
       0       0       0       0       0       0       0       0       0       0
       0       0       0       0       0       0       0       0       0       0
       0       0       0       0       0       0       0       0       0       0
       0       0       0       0       0       0       0       0       0       0
       0       0       0       0       0       0       0       0       0       0
       0       0       0       0       0       0       0       0       0       0
       0       0       0       0       0       0       0       0       0       0
       0       0       0       0       0       0       0       0       0       0
       0       0       0       0       0       0       0       0       0       0
       0       0       0       0       0       0       0       0       0       0
       0       0       0       0       0       0       0       0       0       0
       0       0       0       0       0       0       0       0       0       0
       0       0       0       0       0       0       0       0       0       0
       0       0       0       0       0       0       0       0       0       0
       0       0       0       0       0       0       0       0       0       0
       0       0       0       0       0       0       0       0       0       0
       0       0       0       0       0       0       0       0       0       0
       0       0       0       0       0       0       0       0       0       0
       0       0       0       0       0       0       0       0       0       0
       0       0       0       0       0       0       0       0       0       0
       0       0       0       0       0       0       0       0       0       0
       0       0       0       0       0       0       0       0       0       0
       0       0       0       0       0       0       0       0       0       0
       0       0       0       0       0       0       0       0       0       0
       0       0       0       0       0       0       0       0       0       0
       0       0       0       0       0       0       0       0       0       0
       0       0       0       0       0       0       0       0       0       0
       0       0       0       0       0       0       0       0       0       0
       0       0       0       0       0       0       0       0       0       0
       0       0       0       0       0       0       0       0       0       0
       0       0       0       0       0       0       0       0       0       0
       0       0       0       0       0       0       0       0       0       0
       0       0       0       0       0       0       0       0       0       0
       0       0       0       0       0       0       0       0       0       0
       0       0       0       0       0       0       0       0       0       0
       0       0       0       0       0       0       0       0       0       0
       0       0       0       0       0       0       0       0       0       0
       0       0       0       0       0       0       0       0       0       0
       0       0       0       0       0       0       0       0       0       0
       0       0       0       0       0       0       0       0       0       0
       0       0       0       0       0       0       0       0       0       0
       0       0       0       0       0       0       0       0       0       0
       0       0       0       0       0       0       0       0       0       0
       0       0       0       0       0       0       0       0       0       0
       0       0       0       0       0       0       0       0       0       0
       0       0       0       0       0       0       0       0       0       0
       0       0       0       0       0       0       0       0       0       0
       0       0       0       0       0       0       0       0       0       0
       0       0       0       0       0       0       0       0       0       0
       0       0       0       0       0       0       0       0       0       0
       0       0       0       0       0       0       0       0       0       0
       0       0       0       0       0       0       0       0       0       0
       0       0       0       0       0       0       0       0       0       0
       0       0       0       0       0       0       0       0       0       0
       0       0       0       0       0       0       0       0       0       0
       0       0       0       0       0       0       0       0       0       0
       0       0       0       0       0       0       0       0       0       0
       0       0       0       0       0       0       0       0       0       0
       0       0       0       0       0       0       0       0       0       0
       0       0       0       0       0       0       0       0       0       0
       0       0       0       0       0       0       0       0       0       0
       0       0       0       0       0       0       0       0       0       0
       0       0       0       0       0       0       0       0       0       0
       0       0       0       0       0       0       0       0       0       0
       0       0       0       0       0       0       0       0       0       0
       0       0       0       0       0       0       0       0       0       0
       0       0       0       0       0       0       0       0       0       0
       0       0       0       0       0       0       0       0       0       0
       0       0       0       0       0       0       0       0       0       0
       0       0       0       0       0       0       0       0       0       0
       0       0       0       0       0       0       0       0       0       0
       0       0       0       0       0       0       0       0       0       0
       0       0       0       0       0       0       0       0       0       0
       0       0       0       0       0       0       0       0       0       0
       0       0       0       0       0       0       0       0       0       0
       0       0       0       0       0       0       0       0       0       0
       0       0       0       0       0       0       0       0       0       0
       0       0       0       0       0       0       0       0       0       0
       0       0       0       0       0       0       0       0       0       0
       0       0       0       0       0       0       0       0       0       0
       0       0       0       0       0       0       0       0       0       0
       0       0       0       0       0       0       0       0       0       0
       0       0       0       0       0       0       0       0       0       0
       0       0       0       0       0       0       0       0       0       0
       0       0       0       0       0       0       0       0       0       0
       0       0       0       0       0       0       0       0       0       0
       0       0       0       0       0       0       0       0       0       0
       0       0       0       0       0       0       0       0       0       0
       0       0       0       0       0       0       0       0       0       0
       0       0       0       0       0       0       0       0       0       0
       0       0       0       0       0       0       0       0       0       0
       0       0       0       0       0       0       0       0       0       0
       0       0       0       0       0       0       0       0       0       0
       0       0       0       0       0       0       0       0       0       0
       0       0       0       0       0       0       0       0       0       0
       0       0       0       0       0       0       0       0       0       0
       0       0       0       0       0       0       0       0       0       0
       0       0       0       0       0       0       0       0       0       0
       0       0       0       0       0       0       0       0       0       0
       0       0       0       0       0       0       0       0       0       0
       0       0       0       0       0       0       0       0       0       0
       0       0       0       0       0       0       0       0       0       0
       0       0       0       0       0       0       0       0       0       0
       0       0       0       0       0       0       0       0       0       0
       0       0       0       0       0       0       0       0       0       0
       0       0       0       0       0       0       0       0       0       0
       0       0       0       0       0       0       0       0       0       0
       0       0       0       0       0       0       0       0       0       0
       0       0       0       0       0       0       0       0       0       0
       0       0       0       0       0       0       0       0       0       0
       0       0       0       0       0       0       0       0       0       0
       0       0       0       0       0       0       0       0       0       0
       0       0       0       0       0       0       0       0       0       0
       0       0       0       0       0       0       0       0       0       0
       0       0       0       0       0       0       0       0       0       0
       0       0       0       0       0       0       0       0       0       0
       0       0       0       0       0       0       0       0       0       0
       0       0       0       0       0       0       0       0       0       0
       0       0       0       0       0       0       0       0       0       0
       0       0       0       0       0       0       0       0       0       0
       0       0       0       0       0       0       0       0       0       0
       0       0       0       0       0       0       0       0       0       0
       0       0       0       0       0       0       0       0       0       0
       0       0       0       0       0       0       0       0       0       0
       0       0       0       0       0       0       0       0       0       0
       0       0       0       0       0       0       0       0       0       0
       0       0       0       0       0       0       0       0       0       0
       0       0       0       0       0       0       0       0       0       0
       0       0       0       0       0       0       0       0       0       0
       0       0       0       0       0       0       0       0       0       0
       0       0       0       0       0       0       0       0       0       0
       0       0       0       0       0       0       0       0       0       0
       0       0       0       0       0       0       0       0       0       0
       0       0       0       0       0       0       0       0       0       0
       0       0       0       0       0       0       0       0       0       0
       0       0       0       0       0       0       0       0       0       0
       0       0       0       0       0       0       0       0       0       0
       0       0       0       0       0       0       0       0       0       0
       0       0       0       0       0       0       0       0       0       0
       0       0       0       0       0       0       0       0       0       0
       0       0       0       0       0       0       0       0       0       0
       0       0       0       0       0       0       0       0       0       0
       0       0       0       0       0       0       0       0       0       0
       0       0       0       0       0       0       0       0       0       0
       0       0       0       0       0       0       0       0       0       0
       0       0       0       0       0       0       0       0       0       0
       0       0       0       0       0       0       0       0       0       0
       0       0       0       0       0       0       0       0       0       0
       0       0       0       0       0       0       0       0       0       0
       0       0       0       0       0       0       0       0       0       0
       0       0       0       0       0       0       0       0       0       0
       0       0       0       0       0       0       0       0       0       0
       0       0       0       0       0       0       0       0       0       0
       0       0       0       0       0       0       0       0       0       0
       0       0       0       0       0       0       0       0       0       0
       0       0       0       0       0       0       0       0       0       0
       0       0       0       0       0       0       0       0       0       0
       0       0       0       0       0       0       0       0       0       0
       0       0       0       0       0       0       0       0       0       0
       0       0       0       0       0       0       0       0       0       0
       0       0       0       0       0       0       0       0       0       0
       0       0       0       0       0       0       0       0       0       0
       0       0       0       0       0       0       0       0       0       0
       0       0       0       0       0       0       0       0       0       0
       0       0       0       0       0       0       0       0       0       0
       0       0       0       0       0       0       0       0       0       0
       0       0       0       0       0       0       0       0       0       0
       0       0       0       0       0       0       0       0       0       0
       0       0       0       0       0       0       0       0       0       0
       0       0       0       0       0       0       0       0       0       0
       0       0       0       0       0       0       0       0       0       0
       0       0       0       0       0       0       0       0       0       0
       0       0       0       0       0       0       0       0       0       0
       0       0       0       0       0       0       0       0       0       0
       0       0       0       0       0       0       0       0       0       0
       0       0       0       0       0       0       0       0       0       0
       0       0       0       0       0       0       0       0       0       0
       0       0       0       0       0       0       0       0       0       0
       0       0       0       0       0       0       0       0       0       0
       0       0       0       0       0       0       0       0       0       0
       0       0       0       0       0       0       0       0       0       0
       0       0       0       0       0       0       0       0       0       0
       0       0       0       0       0       0       0       0       0       0
       0       0       0       0       0       0       0       0       0       0
       0       0       0       0       0       0       0       0       0       0
       0       0       0       0       0       0       0       0       0       0
       0       0       0       0       0       0       0       0       0       0
       0       0       0       0       0       0       0       0       0       0
       0       0       0       0       0       0       0       0       0       0
       0       0       0       0       0       0       0       0       0       0
       0       0       0       0       0       0       0       0       0       0
       0       0       0       0       0       0       0       0       0       0
       0       0       0       0       0       0       0       0       0       0
       0       0       0       0       0       0       0       0       0       0
       0       0       0       0       0       0       0       0       0       0
       0       0       0       0       0       0       0       0       0       0
       0       0       0       0       0       0       0       0       0       0
       0       0       0       0       0       0       0       0       0       0
       0       0       0       0       0       0       0       0       0       0
       0       0       0       0       0       0       0       0       0       0
       0       0       0       0       0       0       0       0       0       0
       0       0       0       0       0       0       0       0       0       0
       0       0       0       0       0       0       0       0       0       0
       0       0       0       0       0       0       0       0       0       0
       0       0       0       0       0       0       0       0       0       0
       0       0       0       0       0       0       0       0       0       0
       0       0       0       0       0       0       0       0       0       0
       0       0       0       0       0       0       0       0       0       0
       0       0       0       0       0       0       0       0       0       0
       0       0       0       0       0       0       0       0       0       0
       0       0       0       0       0       0       0       0       0       0
       0       0       0       0       0       0       0       0       0       0
       0       0       0       0       0       0       0       0       0       0
       0       0       0       0       0       0       0       0       0       0
       0       0       0       0       0       0       0       0       0       0
       0       0       0       0       0       0       0       0       0       0
       0       0       0       0       0       0       0       0       0       0
       0       0       0       0       0       0       0       0       0       0
       0       0       0       0       0       0       0       0       0       0
       0       0       0       0       0       0       0       0       0       0
       0       0       0       0       0       0       0       0       0       0
       0       0       0       0       0       0       0       0       0       0
       0       0       0       0       0       0       0       0       0       0
       0       0       0       0       0       0       0       0       0       0
       0       0       0       0       0       0       0       0       0       0
       0       0       0       0       0       0       0       0       0       0
       0       0       0       0       0       0       0       0       0       0
       0       0       0       0       0       0       0       0       0       0
       0       0       0       0       0       0       0       0       0       0
       0       0       0       0       0       0       0       0       0       0
       0       0       0       0       0       0       0       0       0       0
       0       0       0       0       0       0       0       0       0       0
       0       0       0       0       0       0       0       0       0       0
       0       0       0       0       0       0       0       0       0       0
       0       0       0       0       0       0       0       0       0       0
       0       0       0       0       0       0       0       0       0       0
       0       0       0       0       0       0       0       0       0       0
       0       0       0       0       0       0       0       0       0       0
       0       0       0       0       0       0       0       0       0       0
       0       0       0       0       0       0       0       0       0       0
       0       0       0       0       0       0       0       0       0       0
       0       0       0       0       0       0       0       0       0       0
       0       0       0       0       0       0       0       0       0       0
       0       0       0       0       0       0       0       0       0       0
       0       0       0       0       0       0       0       0       0       0
       0       0       0       0       0       0       0       0       0       0
       0       0       0       0       0       0       0       0       0       0
       0       0       0       0       0       0       0       0       0       0
       0       0       0       0       0       0       0       0       0       0
       0       0       0       0       0       0       0       0       0       0
       0       0       0       0       0       0       0       0       0       0
       0       0       0       0       0       0       0       0       0       0
       0       0       0       0       0       0       0       0       0       0
       0       0       0       0       0       0       0       0       0       0
       0       0       0       0       0       0       0       0       0       0
       0       0       0       0       0       0       0       0       0       0
       0       0       0       0       0       0       0       0       0       0
       0       0       0       0       0       0       0       0       0       0
       0       0       0       0       0       0       0       0       0       0
       0       0       0       0       0       0       0       0       0       0
       0       0       0       0       0       0       0       0       0       0
       0       0       0       0       0       0       0       0       0       0
       0       0       0       0       0       0       0       0       0       0
       0       0       0       0       0       0       0       0       0       0
       0       0       0       0       0       0       0       0       0       0
       0       0       0       0       0       0       0       0       0       0
       0       0       0       0       0       0       0       0       0       0
       0       0       0       0       0       0       0       0       0       0
       0       0       0       0       0       0       0       0       0       0
       0       0       0       0       0       0       0       0       0       0
       0       0       0       0       0       0       0       0       0       0
       0       0       0       0       0       0       0       0       0       0
       0       0       0       0       0       0       0       0       0       0
       0       0       0       0       0       0       0       0       0       0
       0       0       0       0       0       0       0       0       0       0
       0       0       0       0       0       0       0       0       0       0
       0       0       0       0       0       0       0       0       0       0
       0       0       0       0       0       0       0       0       0       0
       0       0       0       0       0       0       0       0       0       0
       0       0       0       0       0       0       0       0       0       0
       0       0       0       0       0       0       0       0       0       0
       0       0       0       0       0       0       0       0       0       0
       0       0       0       0       0       0       0       0       0       0
       0       0       0       0       0       0       0       0       0       0
       0       0       0       0       0       0       0       0       0       0
       0       0       0       0       0       0       0       0       0       0
       0       0       0       0       0       0       0       0       0       0
       0       0       0       0       0       0       0       0       0       0
       0       0       0       0       0       0       0       0       0       0
       0       0       0       0       0       0       0       0       0       0
       0       0       0       0       0       0       0       0       0       0
       0       0       0       0       0       0       0       0       0       0
       0       0       0       0       0       0       0       0       0       0
       0       0       0       0       0       0       0       0       0       0
       0       0       0       0       0       0       0       0       0       0
       0       0       0       0       0       0       0       0       0       0
       0       0       0       0       0       0       0       0       0       0
       0       0       0       0       0       0       0       0       0       0
       0       0       0       0       0       0       0       0       0       0
       0       0       0       0       0       0       0       0       0       0
       0       0       0       0       0       0       0       0       0       0
       0       0       0       0       0       0       0       0       0       0
       0       0       0       0       0       0       0       0       0       0
       0       0       0       0       0       0       0       0       0       0
       0       0       0       0       0       0       0       0       0       0
       0       0       0       0       0       0       0       0       0       0
       0       0       0       0       0       0       0       0       0       0
       0       0       0       0       0       0       0       0       0       0
       0       0       0       0       0       0       0       0       0       0
       0       0       0       0       0       0       0       0       0       0
       0       0       0       0       0       0       0       0       0       0
       0       0       0       0       0       0       0       0       0       0
       0       0       0       0       0       0       0       0       0       0
       0       0       0       0       0       0       0       0       0       0
       0       0       0       0       0       0       0       0       0       0
       0       0       0       0       0       0       0       0       0       0
       0       0       0       0       0       0       0       0       0       0
       0       0       0       0       0       0       0       0       0       0
       0       0       0       0       0       0       0       0       0       0
       0       0       0       0       0       0       0       0       0       0
       0       0       0       0       0       0       0       0       0       0
       0       0       0       0       0       0       0       0       0       0
       0       0       0       0       0       0       0       0       0       0
       0       0       0       0       0       0       0       0       0       0
       0       0       0       0       0       0       0       0       0       0
       0       0       0       0       0       0       0       0       0       0
       0       0       0       0       0       0       0       0       0       0
       0       0       0       0       0       0       0       0       0       0
       0       0       0       0       0       0       0       0       0       0
       0       0       0       0       0       0       0       0       0       0
       0       0       0       0       0       0       0       0       0       0
       0       0       0       0       0       0       0       0       0       0
       0       0       0       0       0       0       0       0       0       0
       0       0       0       0       0       0       0       0       0       0
       0       0       0       0       0       0       0       0       0       0
       0       0       0       0       0       0       0       0       0       0
       0       0       0       0       0       0       0       0       0       0
       0       0       0       0       0       0       0       0       0       0
       0       0       0       0       0       0       0       0       0       0
       0       0       0       0       0       0       0       0       0       0
       0       0       0       0       0       0       0       0       0       0
       0       0       0       0       0       0       0       0       0       0
       0       0       0       0       0       0       0       0       0       0
       0       0       0       0       0       0       0       0       0       0
       0       0       0       0       0       0       0       0       0       0
       0       0       0       0       0       0       0       0       0       0
       0       0       0       0       0       0       0       0       0       0
       0       0       0       0       0       0       0       0       0       0
       0       0       0       0       0       0       0       0       0       0
       0       0       0       0       0       0       0       0       0       0
       0       0       0       0       0       0       0       0       0       0
       0       0       0       0       0       0       0       0       0       0
       0       0       0       0       0       0       0       0       0       0
       0       0       0       0       0       0       0       0       0       0
       0       0       0       0       0       0       0       0       0       0
       0       0       0       0       0       0       0       0       0       0
       0       0       0       0       0       0       0       0       0       0
       0       0       0       0       0       0       0       0       0       0
       0       0       0       0       0       0       0       0       0       0
       0       0       0       0       0       0       0       0       0       0
       0       0       0       0       0       0       0       0       0       0
       0       0       0       0       0       0       0       0       0       0
       0       0       0       0       0       0       0       0       0       0
       0       0       0       0       0       0       0       0       0       0
       0       0       0       0       0       0       0       0       0       0
       0       0       0       0       0       0       0       0       0       0
       0       0       0       0       0       0       0       0       0       0
       0       0       0       0       0       0       0       0       0       0
       0       0       0       0       0       0       0       0       0       0
       0       0       0       0       0       0       0       0       0       0
       0       0       0       0       0       0       0       0       0       0
       0       0       0       0       0       0       0       0       0       0
       0       0       0       0       0       0       0       0       0       0
       0       0       0       0       0       0       0       0       0       0
       0       0       0       0       0       0       0       0       0       0
       0       0       0       0       0       0       0       0       0       0
       0       0       0       0       0       0       0       0       0       0
       0       0       0       0       0       0       0       0       0       0
       0       0       0       0       0       0       0       0       0       0
       0       0       0       0       0       0       0       0       0       0
       0       0       0       0       0       0       0       0       0       0
       0       0       0       0       0       0       0       0       0       0
       0       0       0       0       0       0       0       0       0       0
       0       0       0       0       0       0       0       0       0       0
       0       0       0       0       0       0       0       0       0       0
       0       0       0       0       0       0       0       0       0       0
       0       0       0       0       0       0       0       0       0       0
       0       0       0       0       0       0       0       0       0       0
       0       0       0       0       0       0       0       0       0       0
       0       0       0       0       0       0       0       0       0       0
       0       0       0       0       0       0       0       0       0       0
       0       0       0       0       0       0       0       0       0       0
       0       0       0       0       0       0       0       0       0       0
       0       0       0       0       0       0       0       0       0       0
       0       0       0       0       0       0       0       0       0       0
       0       0       0       0       0       0       0       0       0       0
       0       0       0       0       0       0       0       0       0       0
       0       0       0       0       0       0       0       0       0       0
       0       0       0       0       0       0       0       0       0       0
       0       0       0       0       0       0       0       0       0       0
       0       0       0       0       0       0       0       0       0       0
       0       0       0       0       0       0       0       0       0       0
       0       0       0       0       0       0       0       0       0       0
       0       0       0       0       0       0       0       0       0       0
       0       0       0       0       0       0       0       0       0       0
       0       0       0       0       0       0       0       0       0       0
       0       0       0       0       0       0       0       0       0       0
       0       0       0       0       0       0       0       0       0       0
       0       0       0       0       0       0       0       0       0       0
       0       0       0       0       0       0       0       0       0       0
       0       0       0       0       0       0       0       0       0       0
       0       0       0       0       0       0       0       0       0       0
       0       0       0       0       0       0       0       0       0       0
       0       0       0       0       0       0       0       0       0       0
       0       0       0       0       0       0       0       0       0       0
       0       0       0       0       0       0       0       0       0       0
       0       0       0       0       0       0       0       0       0       0
       0       0       0       0       0       0       0       0       0       0
       0       0       0       0       0       0       0       0       0       0
       0       0       0       0       0       0       0       0       0       0
       0       0       0       0       0       0       0       0       0       0
       0       0       0       0       0       0       0       0       0       0
       0       0       0       0       0       0       0       0       0       0
       0       0       0       0       0       0       0       0       0       0
       0       0       0       0       0       0       0       0       0       0
       0       0       0       0       0       0       0       0       0       0
       0       0       0       0       0       0       0       0       0       0
       0       0       0       0       0       0       0       0       0       0
       0       0       0       0       0       0       0       0       0       0
       0       0       0       0       0       0       0       0       0       0
       0       0       0       0       0       0       0       0       0       0
       0       0       0       0       0       0       0       0       0       0
       0       0       0       0       0       0       0       0       0       0
       0       0       0       0       0       0       0       0       0       0
       0       0       0       0       0       0       0       0       0       0
       0       0       0       0       0       0       0       0       0       0
       0       0       0       0       0       0       0       0       0       0
       0       0       0       0       0       0       0       0       0       0
       0       0       0       0       0       0       0       0       0       0
       0       0       0       0       0       0       0       0       0       0
       0       0       0       0       0       0       0       0       0       0
       0       0       0       0       0       0       0       0       0       0
       0       0       0       0       0       0       0       0       0       0
       0       0       0       0       0       0       0       0       0       0
       0       0       0       0       0       0       0       0       0       0
       0       0       0       0       0       0       0       0       0       0
       0       0       0       0       0       0       0       0       0       0
       0       0       0       0       0       0       0       0       0       0
       0       0       0       0       0       0       0       0       0       0
       0       0       0       0       0       0       0       0       0       0
       0       0       0       0       0       0       0       0       0       0
       0       0       0       0       0       0       0       0       0       0
       0       0       0       0       0       0       0       0       0       0
       0       0       0       0       0       0       0       0       0       0
       0       0       0       0       0       0       0       0       0       0
       0       0       0       0       0       0       0       0       0       0
       0       0       0       0       0       0       0       0       0       0
       0       0       0       0       0       0       0       0       0       0
       0       0       0       0       0       0       0       0       0       0
       0       0       0       0       0       0       0       0       0       0
       0       0       0       0       0       0       0       0       0       0
       0       0       0       0       0       0       0       0       0       0
       0       0       0       0       0       0       0       0       0       0
       0       0       0       0       0       0       0       0       0       0
       0       0       0       0       0       0       0       0       0       0
       0       0       0       0       0       0       0       0       0       0
       0       0       0       0       0       0       0       0       0       0
       0       0       0       0       0       0       0       0       0       0
       0       0       0       0       0       0       0       0       0       0
       0       0       0       0       0       0       0       0       0       0
       0       0       0       0       0       0       0       0       0       0
       0       0       0       0       0       0       0       0       0       0
       0       0       0       0       0       0       0       0       0       0
       0       0       0       0       0       0       0       0       0       0
       0       0       0       0       0       0       0       0       0       0
       0       0       0       0       0       0       0       0       0       0
       0       0       0       0       0       0       0       0       0       0
       0       0       0       0       0       0       0       0       0       0
       0       0       0       0       0       0       0       0       0       0
       0       0       0       0       0       0       0       0       0       0
       0       0       0       0       0       0       0       0       0       0
       0       0       0       0       0       0       0       0       0       0
       0       0       0       0       0       0       0       0       0       0
       0       0       0       0       0       0       0       0       0       0
       0       0       0       0       0       0       0       0       0       0
       0       0       0       0       0       0       0       0       0       0
       0       0       0       0       0       0       0       0       0       0
       0       0       0       0       0       0       0       0       0       0
       0       0       0       0       0       0       0       0       0       0
       0       0       0       0       0       0       0       0       0       0
       0       0       0       0       0       0       0       0       0       0
       0       0       0       0       0       0       0       0       0       0
       0       0       0       0       0       0       0       0       0       0
       0       0       0       0       0       0       0       0       0       0
       0       0       0       0       0       0       0       0       0       0
       0       0       0       0       0       0       0       0       0       0
       0       0       0       0       0       0       0       0       0       0
       0       0       0       0       0       0       0       0       0       0
       0       0       0       0       0       0       0       0       0       0
       0       0       0       0       0       0       0       0       0       0
       0       0       0       0       0       0       0       0       0       0
       0       0       0       0       0       0       0       0       0       0
       0       0       0       0       0       0       0       0       0       0
       0       0       0       0       0       0       0       0       0       0
       0       0       0       0       0       0       0       0       0       0
       0       0       0       0       0       0       0       0       0       0
       0       0       0       0       0       0       0       0       0       0
       0       0       0       0       0       0       0       0       0       0
       0       0       0       0       0       0       0       0       0       0
       0       0       0       0       0       0       0       0       0       0
       0       0       0       0       0       0       0       0       0       0
       0       0       0       0       0       0       0       0       0       0
       0       0       0       0       0       0       0       0       0       0
       0       0       0       0       0       0       0       0       0       0
       0       0       0       0       0       0       0       0       0       0
       0       0       0       0       0       0       0       0       0       0
       0       0       0       0       0       0       0       0       0       0
       0       0       0       0       0       0       0       0       0       0
       0       0       0       0       0       0       0       0       0       0
       0       0       0       0       0       0       0       0       0       0
       0       0       0       0       0       0       0       0       0       0
       0       0       0       0       0       0       0       0       0       0
       0       0       0       0       0       0       0       0       0       0
       0       0       0       0       0       0       0       0       0       0
       0       0       0       0       0       0       0       0       0       0
       0       0       0       0       0       0       0       0       0       0
       0       0       0       0       0       0       0       0       0       0
       0       0       0       0       0       0       0       0       0       0
       0       0       0       0       0       0       0       0       0       0
       0       0       0       0       0       0       0       0       0       0
       0       0       0       0       0       0       0       0       0       0
       0       0       0       0       0       0       0       0       0       0
       0       0       0       0       0       0       0       0       0       0
       0       0       0       0       0       0       0       0       0       0
       0       0       0       0       0       0       0       0       0       0
       0       0       0       0       0       0       0       0       0       0
       0       0       0       0       0       0       0       0       0       0
       0       0       0       0       0       0       0       0       0       0
       0       0       0       0       0       0       0       0       0       0
       0       0       0       0       0       0       0       0       0       0
       0       0       0       0       0       0       0       0       0       0
       0       0       0       0       0       0       0       0       0       0
       0       0       0       0       0       0       0       0       0       0
       0       0       0       0       0       0       0       0       0       0
       0       0       0       0       0       0       0       0       0       0
       0       0       0       0       0       0       0       0       0       0
       0       0       0       0       0       0       0       0       0       0
       0       0       0       0       0       0       0       0       0       0
       0       0       0       0       0       0       0       0       0       0
       0       0       0       0       0       0       0       0       0       0
       0       0       0       0       0       0       0       0       0       0
       0       0       0       0       0       0       0       0       0       0
       0       0       0       0       0       0       0       0       0       0
       0       0       0       0       0       0       0       0       0       0
       0       0       0       0       0       0       0       0       0       0
       0       0       0       0       0       0       0       0       0       0
       0       0       0       0       0       0       0       0       0       0
       0       0       0       0       0       0       0       0       0       0
       0       0       0       0       0       0       0       0       0       0
       0       0       0       0       0       0       0       0       0       0
       0       0       0       0       0       0       0       0       0       0
       0       0       0       0       0       0       0       0       0       0
       0       0       0       0       0       0       0       0       0       0
       0       0       0       0       0       0       0       0       0       0
       0       0       0       0       0       0       0       0       0       0
       0       0       0       0       0       0       0       0       0       0
       0       0       0       0       0       0       0       0       0       0
       0       0       0       0       0       0       0       0       0       0
       0       0       0       0       0       0       0       0       0       0
       0       0       0       0       0       0       0       0       0       0
       0       0       0       0       0       0       0       0       0       0
       0       0       0       0       0       0       0       0       0       0
       0       0       0       0       0       0       0       0       0       0
       0       0       0       0       0       0       0       0       0       0
       0       0       0       0       0       0       0       0       0       0
       0       0       0       0       0       0       0       0       0       0
       0       0       0       0       0       0       0       0       0       0
       0       0       0       0       0       0       0       0       0       0
       0       0       0       0       0       0       0       0       0       0
       0       0       0       0       0       0       0       0       0       0
       0       0       0       0       0       0       0       0       0       0
       0       0       0       0       0       0       0       0       0       0
       0       0       0       0       0       0       0       0       0       0
       0       0       0       0       0       0       0       0       0       0
       0       0       0       0       0       0       0       0       0       0
       0       0       0       0       0       0       0       0       0       0
       0       0       0       0       0       0       0       0       0       0
       0       0       0       0       0       0       0       0       0       0
       0       0       0       0       0       0       0       0       0       0
       0       0       0       0       0       0       0       0       0       0
       0       0       0       0       0       0       0       0       0       0
       0       0       0       0       0       0       0       0       0       0
       0       0       0       0       0       0       0       0       0       0
       0       0       0       0       0       0       0       0       0       0
       0       0       0       0       0       0       0       0       0       0
       0       0       0       0       0       0       0       0       0       0
       0       0       0       0       0       0       0       0       0       0
       0       0       0       0       0       0       0       0       0       0
       0       0       0       0       0       0       0       0       0       0
       0       0       0       0       0       0       0       0       0       0
       0       0       0       0       0       0       0       0       0       0
       0       0       0       0       0       0       0       0       0       0
       0       0       0       0       0       0       0       0       0       0
       0       0       0       0       0       0       0       0       0       0
       0       0       0       0       0       0       0       0       0       0
       0       0       0       0       0       0       0       0       0       0
       0       0       0       0       0       0       0       0       0       0
       0       0       0       0       0       0       0       0       0       0
       0       0       0       0       0       0       0       0       0       0
       0       0       0       0       0       0       0       0       0       0
       0       0       0       0       0       0       0       0       0       0
       0       0       0       0       0       0       0       0       0       0
       0       0       0       0       0       0       0       0       0       0
       0       0       0       0       0       0       0       0       0       0
       0       0       0       0       0       0       0       0       0       0
       0       0       0       0       0       0       0       0       0       0
       0       0       0       0       0       0       0       0       0       0
       0       0       0       0       0       0       0       0       0       0
       0       0       0       0       0       0       0       0       0       0
       0       0       0       0       0       0       0       0       0       0
       0       0       0       0       0       0       0       0       0       0
       0       0       0       0       0       0       0       0       0       0
       0       0       0       0       0       0       0       0       0       0
       0       0       0       0       0       0       0       0       0       0
       0       0       0       0       0       0       0       0       0       0
       0       0       0       0       0       0       0       0       0       0
       0       0       0       0       0       0       0       0       0       0
       0       0       0       0       0       0       0       0       0       0
       0       0       0       0       0       0       0       0       0       0
       0       0       0       0       0       0       0       0       0       0
       0       0       0       0       0       0       0       0       0       0
       0       0       0       0       0       0       0       0       0       0
       0       0       0       0       0       0       0       0       0       0
       0       0       0       0       0       0       0       0       0       0
       0       0       0       0       0       0       0       0       0       0
       0       0       0       0       0       0       0       0       0       0
       0       0       0       0       0       0       0       0       0       0
       0       0       0       0       0       0       0       0       0       0
       0       0       0       0       0       0       0       0       0       0
       0       0       0       0       0       0       0       0       0       0
       0       0       0       0       0       0       0       0       0       0
       0       0       0       0       0       0       0       0       0       0
       0       0       0       0       0       0       0       0       0       0
       0       0       0       0       0       0       0       0       0       0
       0       0       0       0       0       0       0       0       0       0
       0       0       0       0       0       0       0       0       0       0
       0       0       0       0       0       0       0       0       0       0
       0       0       0       0       0       0       0       0       0       0
       0       0       0       0       0       0       0       0       0       0
       0       0       0       0       0       0       0       0       0       0
       0       0       0       0       0       0       0       0       0       0
       0       0       0       0       0       0       0       0       0       0
       0       0       0       0       0       0       0       0       0       0
       0       0       0       0       0       0       0       0       0       0
       0       0       0       0       0       0       0       0       0       0
       0       0       0       0       0       0       0       0       0       0
       0       0       0       0       0       0       0       0       0       0
       0       0       0       0       0       0       0       0       0       0
       0       0       0       0       0       0       0       0       0       0
       0       0       0       0       0       0       0       0       0       0
       0       0       0       0       0       0       0       0       0       0
       0       0       0       0       0       0       0       0       0       0
       0       0       0       0       0       0       0       0       0       0
       0       0       0       0       0       0       0       0       0       0
       0       0       0       0       0       0       0       0       0       0
       0       0       0       0       0       0       0       0       0       0
       0       0       0       0       0       0       0       0       0       0
       0       0       0       0       0       0       0       0       0       0
       0       0       0       0       0       0       0       0       0       0
       0       0       0       0       0       0       0       0       0       0
       0       0       0       0       0       0       0       0       0       0
       0       0       0       0       0       0       0       0       0       0
       0       0       0       0       0       0       0       0       0       0
       0       0       0       0       0       0       0       0       0       0
       0       0       0       0       0       0       0       0       0       0
       0       0       0       0       0       0       0       0       0       0
       0       0       0       0       0       0       0       0       0       0
       0       0       0       0       0       0       0       0       0       0
       0       0       0       0       0       0       0       0       0       0
       0       0       0       0       0       0       0       0       0       0
       0       0       0       0       0       0       0       0       0       0
       0       0       0       0       0       0       0       0       0       0
       0       0       0       0       0       0       0       0       0       0
       0       0       0       0       0       0       0       0       0       0
       0       0       0       0       0       0       0       0       0       0
       0       0       0       0       0       0       0       0       0       0
       0       0       0       0       0       0       0       0       0       0
       0       0       0       0       0       0       0       0       0       0
       0       0       0       0       0       0       0       0       0       0
       0       0       0       0       0       0       0       0       0       0
       0       0       0       0       0       0       0       0       0       0
       0       0       0       0       0       0       0       0       0       0
       0       0       0       0       0       0       0       0       0       0
       0       0       0       0       0       0       0       0       0       0
       0       0       0       0       0       0       0       0       0       0
       0       0       0       0       0       0       0       0       0       0
       0       0       0       0       0       0       0       0       0       0
       0       0       0       0       0       0       0       0       0       0
       0       0       0       0       0       0       0       0       0       0
       0       0       0       0       0       0       0       0       0       0
       0       0       0       0       0       0       0       0       0       0
       0       0       0       0       0       0       0       0       0       0
       0       0       0       0       0       0       0       0       0       0
       0       0       0       0       0       0       0       0       0       0
       0       0       0       0       0       0       0       0       0       0
       0       0       0       0       0       0       0       0       0       0
       0       0       0       0       0       0       0       0       0       0
       0       0       0       0       0       0       0       0       0       0
       0       0       0       0       0       0       0       0       0       0
       0       0       0       0       0       0       0       0       0       0
       0       0       0       0       0       0       0       0       0       0
       0       0       0       0       0       0       0       0       0       0
       0       0       0       0       0       0       0       0       0       0
       0       0       0       0       0       0       0       0       0       0
       0       0       0       0       0       0       0       0       0       0
       0       0       0       0       0       0       0       0       0       0
       0       0       0       0       0       0       0       0       0       0
       0       0       0       0       0       0       0       0       0       0
       0       0       0       0       0       0       0       0       0       0
       0       0       0       0       0       0       0       0       0       0
       0       0       0       0       0       0       0       0       0       0
       0       0       0       0       0       0       0       0       0       0
       0       0       0       0       0       0       0       0       0       0
       0       0       0       0       0       0       0       0       0       0
       0       0       0       0       0       0       0       0       0       0
       0       0       0       0       0       0       0       0       0       0
       0       0       0       0       0       0       0       0       0       0
       0       0       0       0       0       0       0       0       0       0
       0       0       0       0       0       0       0       0       0       0
       0       0       0       0       0       0       0       0       0       0
       0       0       0       0       0       0       0       0       0       0
       0       0       0       0       0       0       0       0       0       0
       0       0       0       0       0       0       0       0       0       0
       0       0       0       0       0       0       0       0       0       0
       0       0       0       0       0       0       0       0       0       0
       0       0       0       0       0       0       0       0       0       0
       0       0       0       0       0       0       0       0       0       0
       0       0       0       0       0       0       0       0       0       0
       0       0       0       0       0       0       0       0       0       0
       0       0       0       0       0       0       0       0       0       0
       0       0       0       0       0       0       0       0       0       0
       0       0       0       0       0       0       0       0       0       0
       0       0       0       0       0       0       0       0       0       0
       0       0       0       0       0       0       0       0       0       0
       0       0       0       0       0       0       0       0       0       0
       0       0       0       0       0       0       0       0       0       0
       0       0       0       0       0       0       0       0       0       0
       0       0       0       0       0       0       0       0       0       0
       0       0       0       0       0       0       0       0       0       0
       0       0       0       0       0       0       0       0       0       0
       0       0       0       0       0       0       0       0       0       0
       0       0       0       0       0       0       0       0       0       0
       0       0       0       0       0       0       0       0       0       0
       0       0       0       0       0       0       0       0       0       0
       0       0       0       0       0       0       0       0       0       0
       0       0       0       0       0       0       0       0       0       0
       0       0       0       0       0       0       0       0       0       0
       0       0       0       0       0       0       0       0       0       0
       0       0       0       0       0       0       0       0       0       0
       0       0       0       0       0       0       0       0       0       0
       0       0       0       0       0       0       0       0       0       0
       0       0       0       0       0       0       0       0       0       0
       0       0       0       0       0       0       0       0       0       0
       0       0       0       0       0       0       0       0       0       0
       0       0       0       0       0       0       0       0       0       0
       0       0       0       0       0       0       0       0       0       0
       0       0       0       0       0       0       0       0       0       0
       0       0       0       0       0       0       0       0       0       0
       0       0       0       0       0       0       0       0       0       0
       0       0       0       0       0       0       0       0       0       0
       0       0       0       0       0       0       0       0       0       0
       0       0       0       0       0       0       0       0       0       0
       0       0       0       0       0       0       0       0       0       0
       0       0       0       0       0       0       0       0       0       0
       0       0       0       0       0       0       0       0       0       0
       0       0       0       0       0       0       0       0       0       0
       0       0       0       0       0       0       0       0       0       0
       0       0       0       0       0       0       0       0       0       0
       0       0       0       0       0       0       0       0       0       0
       0       0       0       0       0       0       0       0       0       0
       0       0       0       0       0       0       0       0       0       0
       0       0       0       0       0       0       0       0       0       0
       0       0       0       0       0       0       0       0       0       0
       0       0       0       0       0       0       0       0       0       0
       0       0       0       0       0       0       0       0       0       0
       0       0       0       0       0       0       0       0       0       0
       0       0       0       0       0       0       0       0       0       0
       0       0       0       0       0       0       0       0       0       0
       0       0       0       0       0       0       0       0       0       0
       0       0       0       0       0       0       0       0       0       0
       0       0       0       0       0       0       0       0       0       0
       0       0       0       0       0       0       0       0       0       0
       0       0       0       0       0       0       0       0       0       0
       0       0       0       0       0       0       0       0       0       0
       0       0       0       0       0       0       0       0       0       0
       0       0       0       0       0       0       0       0       0       0
       0       0       0       0       0       0       0       0       0       0
       0       0       0       0       0       0       0       0       0       0
       0       0       0       0       0       0       0       0       0       0
       0       0       0       0       0       0       0       0       0       0
       0       0       0       0       0       0       0       0       0       0
       0       0       0       0       0       0       0       0       0       0
       0       0       0       0       0       0       0       0       0       0
       0       0       0       0       0       0       0       0       0       0
       0       0       0       0       0       0       0       0       0       0
       0       0       0       0       0       0       0       0       0       0
       0       0       0       0       0       0       0       0       0       0
       0       0       0       0       0       0       0       0       0       0
       0       0       0       0       0       0       0       0       0       0
       0       0       0       0       0       0       0       0       0       0
       0       0       0       0       0       0       0       0       0       0
       0       0       0       0       0       0       0       0       0       0
       0       0       0       0       0       0       0       0       0       0
       0       0       0       0       0       0       0       0       0       0
       0       0       0       0       0       0       0       0       0       0
       0       0       0       0       0       0       0       0       0       0
       0       0       0       0       0       0       0       0       0       0
       0       0       0       0       0       0       0       0       0       0
       0       0       0       0       0       0       0       0       0       0
       0       0       0       0       0       0       0       0       0       0
       0       0       0       0       0       0       0       0       0       0
       0       0       0       0       0       0       0       0       0       0
       0       0       0       0       0       0       0       0       0       0
       0       0       0       0       0       0       0       0       0       0
       0       0       0       0       0       0       0       0       0       0
       0       0       0       0       0       0       0       0       0       0
       0       0       0       0       0       0       0       0       0       0
       0       0       0       0       0       0       0       0       0       0
       0       0       0       0       0       0       0       0       0       0
       0       0       0       0       0       0       0       0       0       0
       0       0       0       0       0       0       0       0       0       0
       0       0       0       0       0       0       0       0       0       0
       0       0       0       0       0       0       0       0       0       0
       0       0       0       0       0       0       0       0       0       0
       0       0       0       0       0       0       0       0       0       0
       0       0       0       0       0       0       0       0       0       0
       0       0       0       0       0       0       0       0       0       0
       0       0       0       0       0       0       0       0       0       0
       0       0       0       0       0       0       0       0       0       0
       0       0       0       0       0       0       0       0       0       0
       0       0       0       0       0       0       0       0       0       0
       0       0       0       0       0       0       0       0       0       0
       0       0       0       0       0       0       0       0       0       0
       0       0       0       0       0       0       0       0       0       0
       0       0       0       0       0       0       0       0       0       0
       0       0       0       0       0       0       0       0       0       0
       0       0       0       0       0       0       0       0       0       0
       0       0       0       0       0       0       0       0       0       0
       0       0       0       0       0       0       0       0       0       0
       0       0       0       0       0       0       0       0       0       0
       0       0       0       0       0       0       0       0       0       0
       0       0       0       0       0       0       0       0       0       0
       0       0       0       0       0       0       0       0       0       0
       0       0       0       0       0       0       0       0       0       0
       0       0       0       0       0       0       0       0       0       0
       0       0       0       0       0       0       0       0       0       0
       0       0       0       0       0       0       0       0       0       0
       0       0       0       0       0       0       0       0       0       0
       0       0       0       0       0       0       0       0       0       0
       0       0       0       0       0       0       0       0       0       0
       0       0       0       0       0       0       0       0       0       0
       0       0       0       0       0       0       0       0       0       0
       0       0       0       0       0       0       0       0       0       0
       0       0       0       0       0       0       0       0       0       0
       0       0       0       0       0       0       0       0       0       0
       0       0       0       0       0       0       0       0       0       0
       0       0       0       0       0       0       0       0       0       0
       0       0       0       0       0       0       0       0       0       0
       0       0       0       0       0       0       0       0       0       0
       0       0       0       0       0       0       0       0       0       0
       0       0       0       0       0       0       0       0       0       0
       0       0       0       0       0       0       0       0       0       0
       0       0       0       0       0       0       0       0       0       0
       0       0       0       0       0       0       0       0       0       0
       0       0       0       0       0       0       0       0       0       0
       0       0       0       0       0       0       0       0       0       0
       0       0       0       0       0       0       0       0       0       0
       0       0       0       0       0       0       0       0       0       0
       0       0       0       0       0       0       0       0       0       0
       0       0       0       0       0       0       0       0       0       0
       0       0       0       0       0       0       0       0       0       0
       0       0       0       0       0       0       0       0       0       0
       0       0       0       0       0       0       0       0       0       0
       0       0       0       0       0       0       0       0       0       0
       0       0       0       0       0       0       0       0       0       0
       0       0       0       0       0       0       0       0       0       0
       0       0       0       0       0       0       0       0       0       0
       0       0       0       0       0       0       0       0       0       0
       0       0       0       0       0       0       0       0       0       0
       0       0       0       0       0       0       0       0       0       0
       0       0       0       0       0       0       0       0       0       0
       0       0       0       0       0       0       0       0       0       0
       0       0       0       0       0       0       0       0       0       0
       0       0       0       0       0       0       0       0       0       0
       0       0       0       0       0       0       0       0       0       0
       0       0       0       0       0       0       0       0       0       0
       0       0       0       0       0       0       0       0       0       0
       0       0       0       0       0       0       0       0       0       0
       0       0       0       0       0       0       0       0       0       0
       0       0       0       0       0       0       0       0       0       0
       0       0       0       0       0       0       0       0       0       0
       0       0       0       0       0       0       0       0       0       0
       0       0       0       0       0       0       0       0       0       0
       0       0       0       0       0       0       0       0       0       0
       0       0       0       0       0       0       0       0       0       0
       0       0       0       0       0       0       0       0       0       0
       0       0       0       0       0       0       0       0       0       0
       0       0       0       0       0       0       0       0       0       0
       0       0       0       0       0       0       0       0       0       0
       0       0       0       0       0       0       0       0       0       0
       0       0       0       0       0       0       0       0       0       0
       0       0       0       0       0       0       0       0       0       0
       0       0       0       0       0       0       0       0       0       0
       0       0       0       0       0       0       0       0       0       0
       0       0       0       0       0       0       0       0       0       0
       0       0       0       0       0       0       0       0       0       0
       0       0       0       0       0       0       0       0       0       0
       0       0       0       0       0       0       0       0       0       0
       0       0       0       0       0       0       0       0       0       0
       0       0       0       0       0       0       0       0       0       0
       0       0       0       0       0       0       0       0       0       0
       0       0       0       0       0       0       0       0       0       0
       0       0       0       0       0       0       0       0       0       0
       0       0       0       0       0       0       0       0       0       0
       0       0       0       0       0       0       0       0       0       0
       0       0       0       0       0       0       0       0       0       0
       0       0       0       0       0       0       0       0       0       0
       0       0       0       0       0       0       0       0       0       0
       0       0       0       0       0       0       0       0       0       0
       0       0       0       0       0       0       0       0       0       0
       0       0       0       0       0       0       0       0       0       0
       0       0       0       0       0       0       0       0       0       0
       0       0       0       0       0       0       0       0       0       0
       0       0       0       0       0       0       0       0       0       0
       0       0       0       0       0       0       0       0       0       0
       0       0       0       0       0       0       0       0       0       0
       0       0       0       0       0       0       0       0       0       0
       0       0       0       0       0       0       0       0       0       0
       0       0       0       0       0       0       0       0       0       0
       0       0       0       0       0       0       0       0       0       0
       0       0       0       0       0       0       0       0       0       0
       0       0       0       0       0       0       0       0       0       0
       0       0       0       0       0       0       0       0       0       0
       0       0       0       0       0       0       0       0       0       0
       0       0       0       0       0       0       0       0       0       0
       0       0       0       0       0       0       0       0       0       0
       0       0       0       0       0       0       0       0       0       0
       0       0       0       0       0       0       0       0       0       0
       0       0       0       0       0       0       0       0       0       0
       0       0       0       0       0       0       0       0       0       0
       0       0       0       0       0       0       0       0       0       0
       0       0       0       0       0       0       0       0       0       0
       0       0       0       0       0       0       0       0       0       0
       0       0       0       0       0       0       0       0       0       0
       0       0       0       0       0       0       0       0       0       0
       0       0       0       0       0       0       0       0       0       0
       0       0       0       0       0       0       0       0       0       0
       0       0       0       0       0       0       0       0       0       0
       0       0       0       0       0       0       0       0       0       0
       0       0       0       0       0       0       0       0       0       0
       0       0       0       0       0       0       0       0       0       0
       0       0       0       0       0       0       0       0       0       0
       0       0       0       0       0       0       0       0       0       0
       0       0       0       0       0       0       0       0       0       0
       0       0       0       0       0       0       0       0       0       0
       0       0       0       0       0       0       0       0       0       0
       0       0       0       0       0       0       0       0       0       0
       0       0       0       0       0       0       0       0       0       0
       0       0       0       0       0       0       0       0       0       0
       0       0       0       0       0       0       0       0       0       0
       0       0       0       0       0       0       0       0       0       0
       0       0       0       0       0       0       0       0       0       0
       0       0       0       0       0       0       0       0       0       0
       0       0       0       0       0       0       0       0       0       0
       0       0       0       0       0       0       0       0       0       0
       0       0       0       0       0       0       0       0       0       0
       0       0       0       0       0       0       0       0       0       0
       0       0       0       0       0       0       0       0       0       0
       0       0       0       0       0       0       0       0       0       0
       0       0       0       0       0       0       0       0       0       0
       0       0       0       0       0       0       0       0       0       0
       0       0       0       0       0       0       0       0       0       0
       0       0       0       0       0       0       0       0       0       0
       0       0       0       0       0       0       0       0       0       0
       0       0       0       0       0       0       0       0       0       0
       0       0       0       0       0       0       0       0       0       0
       0       0       0       0       0       0       0       0       0       0
       0       0       0       0       0       0       0       0       0       0
       0       0       0       0       0       0       0       0       0       0
       0       0       0       0       0       0       0       0       0       0
       0       0       0       0       0       0       0       0       0       0
       0       0       0       0       0       0       0       0       0       0
       0       0       0       0       0       0       0       0       0       0
       0       0       0       0       0       0       0       0       0       0
       0       0       0       0       0       0       0       0       0       0
       0       0       0       0       0       0       0       0       0       0
       0       0       0       0       0       0       0       0       0       0
       0       0       0       0       0       0       0       0       0       0
       0       0       0       0       0       0       0       0       0       0
       0       0       0       0       0       0       0       0       0       0
       0       0       0       0       0       0       0       0       0       0
       0       0       0       0       0       0       0       0       0       0
       0       0       0       0       0       0       0       0       0       0
       0       0       0       0       0       0       0       0       0       0
       0       0       0       0       0       0       0       0       0       0
       0       0       0       0       0       0       0       0       0       0
       0       0       0       0       0       0       0       0       0       0
       0       0       0       0       0       0       0       0       0       0
       0       0       0       0       0       0       0       0       0       0
       0       0       0       0       0       0       0       0       0       0
       0       0       0       0       0       0       0       0       0       0
       0       0       0       0       0       0       0       0       0       0
       0       0       0       0       0       0       0       0       0       0
       0       0       0       0       0       0       0       0       0       0
       0       0       0       0       0       0       0       0       0       0
       0       0       0       0       0       0       0       0       0       0
       0       0       0       0       0       0       0       0       0       0
       0       0       0       0       0       0       0       0       0       0
       0       0       0       0       0       0       0       0       0       0
       0       0       0       0       0       0       0       0       0       0
       0       0       0       0       0       0       0       0       0       0
       0       0       0       0       0       0       0       0       0       0
       0       0       0       0       0       0       0       0       0       0
       0       0       0       0       0       0       0       0       0       0
       0       0       0       0       0       0       0       0       0       0
       0       0       0       0       0       0       0       0       0       0
       0       0       0       0       0       0       0       0       0       0
       0       0       0       0       0       0       0       0       0       0
       0       0       0       0       0       0       0       0       0       0
       0       0       0       0       0       0       0       0       0       0
       0       0       0       0       0       0       0       0       0       0
       0       0       0       0       0       0       0       0       0       0
       0       0       0       0       0       0       0       0       0       0
       0       0       0       0       0       0       0       0       0       0
       0       0       0       0       0       0       0       0       0       0
       0       0       0       0       0       0       0       0       0       0
       0       0       0       0       0       0       0       0       0       0
       0       0       0       0       0       0       0       0       0       0
       0       0       0       0       0       0       0       0       0       0
       0       0       0       0       0       0       0       0       0       0
       0       0       0       0       0       0       0       0       0       0
       0       0       0       0       0       0       0       0       0       0
       0       0       0       0       0       0       0       0       0       0
       0       0       0       0       0       0       0       0       0       0
       0       0       0       0       0       0       0       0       0       0
       0       0       0       0       0       0       0       0       0       0
       0       0       0       0       0       0       0       0       0       0
       0       0       0       0       0       0       0       0       0       0
       0       0       0       0       0       0       0       0       0       0
       0       0       0       0       0       0       0       0       0       0
       0       0       0       0       0       0       0       0       0       0
       0       0       0       0       0       0       0       0       0       0
       0       0       0       0       0       0       0       0       0       0
       0       0       0       0       0       0       0       0       0       0
       0       0       0       0       0       0       0       0       0       0
       0       0       0       0       0       0       0       0       0       0
       0       0       0       0       0       0       0       0       0       0
       0       0       0       0       0       0       0       0       0       0
       0       0       0       0       0       0       0       0       0       0
       0       0       0       0       0       0       0       0       0       0
       0       0       0       0       0       0       0       0       0       0
       0       0       0       0       0       0       0       0       0       0
       0       0       0       0       0       0       0       0       0       0
       0       0       0       0       0       0       0       0       0       0
       0       0       0       0       0       0       0       0       0       0
       0       0       0       0       0       0       0       0       0       0
       0       0       0       0       0       0       0       0       0       0
       0       0       0       0       0       0       0       0       0       0
       0       0       0       0       0       0       0       0       0       0
       0       0       0       0       0       0       0       0       0       0
       0       0       0       0       0       0       0       0       0       0
       0       0       0       0       0       0       0       0       0       0
       0       0       0       0       0       0       0       0       0       0
       0       0       0       0       0       0       0       0       0       0
       0       0       0       0       0       0       0       0       0       0
       0       0       0       0       0       0       0       0       0       0
       0       0       0       0       0       0       0       0       0       0
       0       0       0       0       0       0       0       0       0       0
       0       0       0       0       0       0       0       0       0       0
       0       0       0       0       0       0       0       0       0       0
       0       0       0       0       0       0       0       0       0       0
       0       0       0       0       0       0       0       0       0       0
       0       0       0       0       0       0       0       0       0       0
       0       0       0       0       0       0       0       0       0       0
       0       0       0       0       0       0       0       0       0       0
       0       0       0       0       0       0       0       0       0       0
       0       0       0       0       0       0       0       0       0       0
       0       0       0       0       0       0       0       0       0       0
       0       0       0       0       0       0       0       0       0       0
       0       0       0       0       0       0       0       0       0       0
       0       0       0       0       0       0       0       0       0       0
       0       0       0       0       0       0       0       0       0       0
       0       0       0       0       0       0       0       0       0       0
       0       0       0       0       0       0       0       0       0       0
       0       0       0       0       0       0       0       0       0       0
       0       0       0       0       0       0       0       0       0       0
       0       0       0       0       0       0       0       0       0       0
       0       0       0       0       0       0       0       0       0       0
       0       0       0       0       0       0       0       0       0       0
       0       0       0       0       0       0       0       0       0       0
       0       0       0       0       0       0       0       0       0       0
       0       0       0       0       0       0       0       0       0       0
       0       0       0       0       0       0       0       0       0       0
       0       0       0       0       0       0       0       0       0       0
       0       0       0       0       0       0       0       0       0       0
       0       0       0       0       0       0       0       0       0       0
       0       0       0       0       0       0       0       0       0       0
       0       0       0       0       0       0       0       0       0       0
       0       0       0       0       0       0       0       0       0       0
       0       0       0       0       0       0       0       0       0       0
       0       0       0       0       0       0       0       0       0       0
       0       0       0       0       0       0       0       0       0       0
       0       0       0       0       0       0       0       0       0       0
       0       0       0       0       0       0       0       0       0       0
       0       0       0       0       0       0       0       0       0       0
       0       0       0       0       0       0       0       0       0       0
       0       0       0       0       0       0       0       0       0       0
       0       0       0       0       0       0       0       0       0       0
       0       0       0       0       0       0       0       0       0       0
       0       0       0       0       0       0       0       0       0       0
       0       0       0       0       0       0       0       0       0       0
       0       0       0       0       0       0       0       0       0       0
       0       0       0       0       0       0       0       0       0       0
       0       0       0       0       0       0       0       0       0       0
       0       0       0       0       0       0       0       0       0       0
       0       0       0       0       0       0       0       0       0       0
       0       0       0       0       0       0       0       0       0       0
       0       0       0       0       0       0       0       0       0       0
       0       0       0       0       0       0       0       0       0       0
       0       0       0       0       0       0       0       0       0       0
       0       0       0       0       0       0       0       0       0       0
       0       0       0       0       0       0       0       0       0       0
       0       0       0       0       0       0       0       0       0       0
       0       0       0       0       0       0       0       0       0       0
       0       0       0       0       0       0       0       0       0       0
       0       0       0       0       0       0       0       0       0       0
       0       0       0       0       0       0       0       0       0       0
       0       0       0       0       0       0       0       0       0       0
       0       0       0       0       0       0       0       0       0       0
       0       0       0       0       0       0       0       0       0       0
       0       0       0       0       0       0       0       0       0       0
       0       0       0       0       0       0       0       0       0       0
       0       0       0       0       0       0       0       0       0       0
       0       0       0       0       0       0       0       0       0       0
       0       0       0       0       0       0       0       0       0       0
       0       0       0       0       0       0       0       0       0       0
       0       0       0       0       0       0       0       0       0       0
       0       0       0       0       0       0       0       0       0       0
       0       0       0       0       0       0       0       0       0       0
       0       0       0       0       0       0       0       0       0       0
       0       0       0       0       0       0       0       0       0       0
       0       0       0       0       0       0       0       0       0       0
       0       0       0       0       0       0       0       0       0       0
       0       0       0       0       0       0       0       0       0       0
       0       0       0       0       0       0       0       0       0       0
       0       0       0       0       0       0       0       0       0       0
       0       0       0       0       0       0       0       0       0       0
       0       0       0       0       0       0       0       0       0       0
       0       0       0       0       0       0       0       0       0       0
       0       0       0       0       0       0       0       0       0       0
       0       0       0       0       0       0       0       0       0       0
       0       0       0       0       0       0       0       0       0       0
       0       0       0       0       0       0       0       0       0       0
       0       0       0       0       0       0       0       0       0       0
       0       0       0       0       0       0       0       0       0       0
       0       0       0       0       0       0       0       0       0       0
       0       0       0       0       0       0       0       0       0       0
       0       0       0       0       0       0       0       0       0       0
       0       0       0       0       0       0       0       0       0       0
       0       0       0       0       0       0       0       0       0       0
       0       0       0       0       0       0       0       0       0       0
       0       0       0       0       0       0       0       0       0       0
       0       0       0       0       0       0       0       0       0       0
       0       0       0       0       0       0       0       0       0       0
       0       0       0       0       0       0       0       0       0       0
       0       0       0       0       0       0       0       0       0       0
       0       0       0       0       0       0       0       0       0       0
       0       0       0       0       0       0       0       0       0       0
       0       0       0       0       0       0       0       0       0       0
       0       0       0       0       0       0       0       0       0       0
       0       0       0       0       0       0       0       0       0       0
       0       0       0       0       0       0       0       0       0       0
       0       0       0       0       0       0       0       0       0       0
       0       0       0       0       0       0       0       0       0       0
       0       0       0       0       0       0       0       0       0       0
       0       0       0       0       0       0       0       0       0       0
       0       0       0       0       0       0       0       0       0       0
       0       0       0       0       0       0       0       0       0       0
       0       0       0       0       0       0       0       0       0       0
       0       0       0       0       0       0       0       0       0       0
       0       0       0       0       0       0       0       0       0       0
       0       0       0       0       0       0       0       0       0       0
       0       0       0       0       0       0       0       0       0       0
       0       0       0       0       0       0       0       0       0       0
       0       0       0       0       0       0       0       0       0       0
       0       0       0       0       0       0       0       0       0       0
       0       0       0       0       0       0       0       0       0       0
       0       0       0       0       0       0       0       0       0       0
       0       0       0       0       0       0       0       0       0       0
       0       0       0       0       0       0       0       0       0       0
       0       0       0       0       0       0       0       0       0       0
       0       0       0       0       0       0       0       0       0       0
       0       0       0       0       0       0       0       0       0       0
       0       0       0       0       0       0       0       0       0       0
       0       0       0       0       0       0       0       0       0       0
       0       0       0       0       0       0       0       0       0       0
       0       0       0       0       0       0       0       0       0       0
       0       0       0       0       0       0       0       0       0       0
       0       0       0       0       0       0       0       0       0       0
       0       0       0       0       0       0       0       0       0       0
       0       0       0       0       0       0       0       0       0       0
       0       0       0       0       0       0       0       0       0       0
       0       0       0       0       0       0       0       0       0       0
       0       0       0       0       0       0       0       0       0       0
       0       0       0       0       0       0       0       0       0       0
       0       0       0       0       0       0       0       0       0       0
       0       0       0       0       0       0       0       0       0       0
       0       0       0       0       0       0       0       0       0       0
       0       0       0       0       0       0       0       0       0       0
       0       0       0       0       0       0       0       0       0       0
       0       0       0       0       0       0       0       0       0       0
       0       0       0       0       0       0       0       0       0       0
       0       0       0       0       0       0       0       0       0       0
       0       0       0       0       0       0       0       0       0       0
       0       0       0       0       0       0       0       0       0       0
       0       0       0       0       0       0       0       0       0       0
       0       0       0       0       0       0       0       0       0       0
       0       0       0       0       0       0       0       0       0       0
       0       0       0       0       0       0       0       0       0       0
       0       0       0       0       0       0       0       0       0       0
       0       0       0       0       0       0       0       0       0       0
       0       0       0       0       0       0       0       0       0       0
       0       0       0       0       0       0       0       0       0       0
       0       0       0       0       0       0       0       0       0       0
       0       0       0       0       0       0       0       0       0       0
       0       0       0       0       0       0       0       0       0       0
       0       0       0       0       0       0       0       0       0       0
       0       0       0       0       0       0       0       0       0       0
       0       0       0       0       0       0       0       0       0       0
       0       0       0       0       0       0       0       0       0       0
       0       0       0       0       0       0       0       0       0       0
       0       0       0       0       0       0       0       0       0       0
       0       0       0       0       0       0       0       0       0       0
       0       0       0       0       0       0       0       0       0       0
       0       0       0       0       0       0       0       0       0       0
       0       0       0       0       0       0       0       0       0       0
       0       0       0       0       0       0       0       0       0       0
       0       0       0       0       0       0       0       0       0       0
       0       0       0       0       0       0       0       0       0       0
       0       0       0       0       0       0       0       0       0       0
       0       0       0       0       0       0       0       0       0       0
       0       0       0       0       0       0       0       0       0       0
       0       0       0       0       0       0       0       0       0       0
       0       0       0       0       0       0       0       0       0       0
       0       0       0       0       0       0       0       0       0       0
       0       0       0       0       0       0       0       0       0       0
       0       0       0       0       0       0       0       0       0       0
       0       0       0       0       0       0       0       0       0       0
       0       0       0       0       0       0       0       0       0       0
       0       0       0       0       0       0       0       0       0       0
       0       0       0       0       0       0       0       0       0       0
       0       0       0       0       0       0       0       0       0       0
       0       0       0       0       0       0       0       0       0       0
       0       0       0       0       0       0       0       0       0       0
       0       0       0       0       0       0       0       0       0       0
       0       0       0       0       0       0       0       0       0       0
       0       0       0       0       0       0       0       0       0       0
       0       0       0       0       0       0       0       0       0       0
       0       0       0       0       0       0       0       0       0       0
       0       0       0       0       0       0       0       0       0       0
       0       0       0       0       0       0       0       0       0       0
       0       0       0       0       0       0       0       0       0       0
       0       0       0       0       0       0       0       0       0       0
       0       0       0       0       0       0       0       0       0       0
       0       0       0       0       0       0       0       0       0       0
       0       0       0       0       0       0       0       0       0       0
       0       0       0       0       0       0       0       0       0       0
       0       0       0       0       0       0       0       0       0       0
       0       0       0       0       0       0       0       0       0       0
       0       0       0       0       0       0       0       0       0       0
       0       0       0       0       0       0       0       0       0       0
       0       0       0       0       0       0       0       0       0       0
       0       0       0       0       0       0       0       0       0       0
       0       0       0       0       0       0       0       0       0       0
       0       0       0       0       0       0       0       0       0       0
       0       0       0       0       0       0       0       0       0       0
       0       0       0       0       0       0       0       0       0       0
       0       0       0       0       0       0       0       0       0       0
       0       0       0       0       0       0       0       0       0       0
       0       0       0       0       0       0       0       0       0       0
       0       0       0       0       0       0       0       0       0       0
       0       0       0       0       0       0       0       0       0       0
       0       0       0       0       0       0       0       0       0       0
       0       0       0       0       0       0       0       0       0       0
       0       0       0       0       0       0       0       0       0       0
       0       0       0       0       0       0       0       0       0       0
       0       0       0       0       0       0       0       0       0       0
       0       0       0       0       0       0       0       0       0       0
       0       0       0       0       0       0       0       0       0       0
       0       0       0       0       0       0       0       0       0       0
       0       0       0       0       0       0       0       0       0       0
       0       0       0       0       0       0       0       0       0       0
       0       0       0       0       0       0       0       0       0       0
       0       0       0       0       0       0       0       0       0       0
       0       0       0       0       0       0       0       0       0       0
       0       0       0       0       0       0       0       0       0       0
       0       0       0       0       0       0       0       0       0       0
       0       0       0       0       0       0       0       0       0       0
       0       0       0       0       0       0       0       0       0       0
       0       0       0       0       0       0       0       0       0       0
       0       0       0       0       0       0       0       0       0       0
       0       0       0       0       0       0       0       0       0       0
       0       0       0       0       0       0       0       0       0       0
       0       0       0       0       0       0       0       0       0       0
       0       0       0       0       0       0       0       0       0       0
       0       0       0       0       0       0       0       0       0       0
       0       0       0       0       0       0       0       0       0       0
       0       0       0       0       0       0       0       0       0       0
       0       0       0       0       0       0       0       0       0       0
       0       0       0       0       0       0       0       0       0       0
       0       0       0       0       0       0       0       0       0       0
       0       0       0       0       0       0       0       0       0       0
       0       0       0       0       0       0       0       0       0       0
       0       0       0       0       0       0       0       0       0       0
       0       0       0       0       0       0       0       0       0       0
       0       0       0       0       0       0       0       0       0       0
       0       0       0       0       0       0       0       0       0       0
       0       0       0       0       0       0       0       0       0       0
       0       0       0       0       0       0       0       0       0       0
       0       0       0       0       0       0       0       0       0       0
       0       0       0       0       0       0       0       0       0       0
       0       0       0       0       0       0       0       0       0       0
       0       0       0       0       0       0       0       0       0       0
       0       0       0       0       0       0       0       0       0       0
       0       0       0       0       0       0       0       0       0       0
       0       0       0       0       0       0       0       0       0       0
       0       0       0       0       0       0       0       0       0       0
       0       0       0       0       0       0       0       0       0       0
       0       0       0       0       0       0       0       0       0       0
       0       0       0       0       0       0       0       0       0       0
       0       0       0       0       0       0       0       0       0       0
       0       0       0       0       0       0       0       0       0       0
       0       0       0       0       0       0       0       0       0       0
       0       0       0       0       0       0       0       0       0       0
       0       0       0       0       0       0       0       0       0       0
       0       0       0       0       0       0       0       0       0       0
       0       0       0       0       0       0       0       0       0       0
       0       0       0       0       0       0       0       0       0       0
       0       0       0       0       0       0       0       0       0       0
       0       0       0       0       0       0       0       0       0       0
       0       0       0       0       0       0       0       0       0       0
       0       0       0       0       0       0       0       0       0       0
       0       0       0       0       0       0       0       0       0       0
       0       0       0       0       0       0       0       0       0       0
       0       0       0       0       0       0       0       0       0       0
       0       0       0       0       0       0       0       0       0       0
       0       0       0       0       0       0       0       0       0       0
       0       0       0       0       0       0       0       0       0       0
       0       0       0       0       0       0       0       0       0       0
       0       0       0       0       0       0       0       0       0       0
       0       0       0       0       0       0       0       0       0       0
       0       0       0       0       0       0       0       0       0       0
       0       0       0       0       0       0       0       0       0       0
       0       0       0       0       0       0       0       0       0       0
       0       0       0       0       0       0       0       0       0       0
       0       0       0       0       0       0       0       0       0       0
       0       0       0       0       0       0       0       0       0       0
       0       0       0       0       0       0       0       0       0       0
       0       0       0       0       0       0       0       0       0       0
       0       0       0       0       0       0       0       0       0       0
       0       0       0       0       0       0       0       0       0       0
       0       0       0       0       0       0       0       0       0       0
       0       0       0       0       0       0       0       0       0       0
       0       0       0       0       0       0       0       0       0       0
       0       0       0       0       0       0       0       0       0       0
       0       0       0       0       0       0       0       0       0       0
       0       0       0       0       0       0       0       0       0       0
       0       0       0       0       0       0       0       0       0       0
       0       0       0       0       0       0       0       0       0       0
       0       0       0       0       0       0       0       0       0       0
       0       0       0       0       0       0       0       0       0       0
       0       0       0       0       0       0       0       0       0       0
       0       0       0       0       0       0       0       0       0       0
       0       0       0       0       0       0       0       0       0       0
       0       0       0       0       0       0       0       0       0       0
       0       0       0       0       0       0       0       0       0       0
       0       0       0       0       0       0       0       0       0       0
       0       0       0       0       0       0       0       0       0       0
       0       0       0       0       0       0       0       0       0       0
       0       0       0       0       0       0       0       0       0       0
       0       0       0       0       0       0       0       0       0       0
       0       0       0       0       0       0       0       0       0       0
       0       0       0       0       0       0       0       0       0       0
       0       0       0       0       0       0       0       0       0       0
       0       0       0       0       0       0       0       0       0       0
       0       0       0       0       0       0       0       0       0       0
       0       0       0       0       0       0       0       0       0       0
       0       0       0       0       0       0       0       0       0       0
       0       0       0       0       0       0       0       0       0       0
       0       0       0       0       0       0       0       0       0       0
       0       0       0       0       0       0       0       0       0       0
       0       0       0       0       0       0       0       0       0       0
       0       0       0       0       0       0       0       0       0       0
       0       0       0       0       0       0       0       0       0       0
       0       0       0       0       0       0       0       0       0       0
       0       0       0       0       0       0       0       0       0       0
       0       0       0       0       0       0       0       0       0       0
       0       0       0       0       0       0       0       0       0       0
       0       0       0       0       0       0       0       0       0       0
       0       0       0       0       0       0       0       0       0       0
       0       0       0       0       0       0       0       0       0       0
       0       0       0       0       0       0       0       0       0       0
       0       0       0       0       0       0       0       0       0       0
       0       0       0       0       0       0       0       0       0       0
       0       0       0       0       0       0       0       0       0       0
       0       0       0       0       0       0       0       0       0       0
       0       0       0       0       0       0       0       0       0       0
       0       0       0       0       0       0       0       0       0       0
       0       0       0       0       0       0       0       0       0       0
       0       0       0       0       0       0       0       0       0       0
       0       0       0       0       0       0       0       0       0       0
       0       0       0       0       0       0       0       0       0       0
       0       0       0       0       0       0       0       0       0       0
       0       0       0       0       0       0       0       0       0       0
       0       0       0       0       0       0       0       0       0       0
       0       0       0       0       0       0       0       0       0       0
       0       0       0       0       0       0       0       0       0       0
       0       0       0       0       0       0       0       0       0       0
       0       0       0       0       0       0       0       0       0       0
       0       0       0       0       0       0       0       0       0       0
       0       0       0       0       0       0       0       0       0       0
       0       0       0       0       0       0       0       0       0       0
       0       0       0       0       0       0       0       0       0       0
       0       0       0       0       0       0       0       0       0       0
       0       0       0       0       0       0       0       0       0       0
       0       0       0       0       0       0       0       0       0       0
       0       0       0       0       0       0       0       0       0       0
       0       0       0       0       0       0       0       0       0       0
       0       0       0       0       0       0       0       0       0       0
       0       0       0       0       0       0       0       0       0       0
       0       0       0       0       0       0       0       0       0       0
       0       0       0       0       0       0       0       0       0       0
       0       0       0       0       0       0       0       0       0       0
       0       0       0       0       0       0       0       0       0       0
       0       0       0       0       0       0       0       0       0       0
       0       0       0       0       0       0       0       0       0       0
       0       0       0       0       0       0       0       0       0       0
       0       0       0       0       0       0       0       0       0       0
       0       0       0       0       0       0       0       0       0       0
       0       0       0       0       0       0       0       0       0       0
       0       0       0       0       0       0       0       0       0       0
       0       0       0       0       0       0       0       0       0       0
       0       0       0       0       0       0       0       0       0       0
       0       0       0       0       0       0       0       0       0       0
       0       0       0       0       0       0       0       0       0       0
       0       0       0       0       0       0       0       0       0       0
       0       0       0       0       0       0       0       0       0       0
       0       0       0       0       0       0       0       0       0       0
       0       0       0       0       0       0       0       0       0       0
       0       0       0       0       0       0       0       0       0       0
       0       0       0       0       0       0       0       0       0       0
       0       0       0       0       0       0       0       0       0       0
       0       0       0       0       0       0       0       0       0       0
       0       0       0       0       0       0       0       0       0       0
       0       0       0       0       0       0       0       0       0       0
       0       0       0       0       0       0       0       0       0       0
       0       0       0       0       0       0       0       0       0       0
       0       0       0       0       0       0       0       0       0       0
       0       0       0       0       0       0       0       0       0       0
       0       0       0       0       0       0       0       0       0       0
       0       0       0       0       0       0       0       0       0       0
       0       0       0       0       0       0       0       0       0       0
       0       0       0       0       0       0       0       0       0       0
       0       0       0       0       0       0       0       0       0       0
       0       0       0       0       0       0       0       0       0       0
       0       0       0       0       0       0       0       0       0       0
       0       0       0       0       0       0       0       0       0       0
       0       0       0       0       0       0       0       0       0       0
       0       0       0       0       0       0       0       0       0       0
       0       0       0       0       0       0       0       0       0       0
       0       0       0       0       0       0       0       0       0       0
       0       0       0       0       0       0       0       0       0       0
       0       0       0       0       0       0       0       0       0       0
       0       0       0       0       0       0       0       0       0       0
       0       0       0       0       0       0       0       0       0       0
       0       0       0       0       0       0       0       0       0       0
       0       0       0       0       0       0       0       0       0       0
       0       0       0       0       0       0       0       0       0       0
       0       0       0       0       0       0       0       0       0       0
       0       0       0       0       0       0       0       0       0       0
       0       0       0       0       0       0       0       0       0       0
       0       0       0       0       0       0       0       0       0       0
       0       0       0       0       0       0       0       0       0       0
       0       0       0       0       0       0       0       0       0       0
       0       0       0       0       0       0       0       0       0       0
       0       0       0       0       0       0       0       0       0       0
       0       0       0       0       0       0       0       0       0       0
       0       0       0       0       0       0       0       0       0       0
       0       0       0       0       0       0       0       0       0       0
       0       0       0       0       0       0       0       0       0       0
       0       0       0       0       0       0       0       0       0       0
       0       0       0       0       0       0       0       0       0       0
       0       0       0       0       0       0       0       0       0       0
       0       0       0       0       0       0       0       0       0       0
       0       0       0       0       0       0       0       0       0       0
       0       0       0       0       0       0       0       0       0       0
       0       0       0       0       0       0       0       0       0       0
       0       0       0       0       0       0       0       0       0       0
       0       0       0       0       0       0       0       0       0       0
       0       0       0       0       0       0       0       0       0       0
       0       0       0       0       0       0       0       0       0       0
       0       0       0       0       0       0       0       0       0       0
       0       0       0       0       0       0       0       0       0       0
       0       0       0       0       0       0       0       0       0       0
       0       0       0       0       0       0       0       0       0       0
       0       0       0       0       0       0       0       0       0       0
       0       0       0       0       0       0       0       0       0       0
       0       0       0       0       0       0       0       0       0       0
       0       0       0       0       0       0       0       0       0       0
       0       0       0       0       0       0       0       0       0       0
       0       0       0       0       0       0       0       0       0       0
       0       0       0       0       0       0       0       0       0       0
       0       0       0       0       0       0       0       0       0       0
       0       0       0       0       0       0       0       0       0       0
       0       0       0       0       0       0       0       0       0       0
       0       0       0       0       0       0       0       0       0       0
       0       0       0       0       0       0       0       0       0       0
       0       0       0       0       0       0       0       0       0       0
       0       0       0       0       0       0       0       0       0       0
       0       0       0       0       0       0       0       0       0       0
       0       0       0       0       0       0       0       0       0       0
       0       0       0       0       0       0       0       0       0       0
       0       0       0       0       0       0       0       0       0       0
       0       0       0       0       0       0       0       0       0       0
       0       0       0       0       0       0       0       0       0       0
       0       0       0       0       0       0       0       0       0       0
       0       0       0       0       0       0       0       0       0       0
       0       0       0       0       0       0       0       0       0       0
       0       0       0       0       0       0       0       0       0       0
       0       0       0       0       0       0       0       0       0       0
       0       0       0       0       0       0       0       0       0       0
       0       0       0       0       0       0       0       0       0       0
       0       0       0       0       0       0       0       0       0       0
       0       0       0       0       0       0       0       0       0       0
       0       0       0       0       0       0       0       0       0       0
       0       0       0       0       0       0       0       0       0       0
       0       0       0       0       0       0       0       0       0       0
       0       0       0       0       0       0       0       0       0       0
       0       0       0       0       0       0       0       0       0       0
       0       0       0       0       0       0       0       0       0       0
       0       0       0       0       0       0       0       0       0       0
       0       0       0       0       0       0       0       0       0       0
       0       0       0       0       0       0       0       0       0       0
       0       0       0       0       0       0       0       0       0       0
       0       0       0       0       0       0       0       0       0       0
       0       0       0       0       0       0       0       0       0       0
       0       0       0       0       0       0       0       0       0       0
       0       0       0       0       0       0       0       0       0       0
       0       0       0       0       0       0       0       0       0       0
       0       0       0       0       0       0       0       0       0       0
       0       0       0       0       0       0       0       0       0       0
       0       0       0       0       0       0       0       0       0       0
       0       0       0       0       0       0       0       0       0       0
       0       0       0       0       0       0       0       0       0       0
       0       0       0       0       0       0       0       0       0       0
       0       0       0       0       0       0       0       0       0       0
       0       0       0       0       0       0       0       0       0       0
       0       0       0       0       0       0       0       0       0       0
       0       0       0       0       0       0       0       0       0       0
       0       0       0       0       0       0       0       0       0       0
       0       0       0       0       0       0       0       0       0       0
       0       0       0       0       0       0       0       0       0       0
       0       0       0       0       0       0       0       0       0       0
       0       0       0       0       0       0       0       0       0       0
       0       0       0       0       0       0       0       0       0       0
       0       0       0       0       0       0       0       0       0       0
       0       0       0       0       0       0       0       0       0       0
       0       0       0       0       0       0       0       0       0       0
       0       0       0       0       0       0       0       0       0       0
       0       0       0       0       0       0       0       0       0       0
       0       0       0       0       0       0       0       0       0       0
       0       0       0       0       0       0       0       0       0       0
       0       0       0       0       0       0       0       0       0       0
       0       0       0       0       0       0       0       0       0       0
       0       0       0       0       0       0       0       0       0       0
       0       0       0       0       0       0       0       0       0       0
       0       0       0       0       0       0       0       0       0       0
       0       0       0       0       0       0       0       0       0       0
       0       0       0       0       0       0       0       0       0       0
       0       0       0       0       0       0       0       0       0       0
       0       0       0       0       0       0       0       0       0       0
       0       0       0       0       0       0       0       0       0       0
       0       0       0       0       0       0       0       0       0       0
       0       0       0       0       0       0       0       0       0       0
       0       0       0       0       0       0       0       0       0       0
       0       0       0       0       0       0       0       0       0       0
       0       0       0       0       0       0       0       0       0       0
       0       0       0       0       0       0       0       0       0       0
       0       0       0       0       0       0       0       0       0       0
       0       0       0       0       0       0       0       0       0       0
       0       0       0       0       0       0       0       0       0       0
       0       0       0       0       0       0       0       0       0       0
       0       0       0       0       0       0       0       0       0       0
       0       0       0       0       0       0       0       0       0       0
       0       0       0       0       0       0       0       0       0       0
       0       0       0       0       0       0       0       0       0       0
       0       0       0       0       0       0       0       0       0       0
       0       0       0       0       0       0       0       0       0       0
       0       0       0       0       0       0       0       0       0       0
       0       0       0       0       0       0       0       0       0       0
       0       0       0       0       0       0       0       0       0       0
       0       0       0       0       0       0       0       0       0       0
       0       0       0       0       0       0       0       0       0       0
       0       0       0       0       0       0       0       0       0       0
       0       0       0       0       0       0       0       0       0       0
       0       0       0       0       0       0       0       0       0       0
       0       0       0       0       0       0       0       0       0       0
       0       0       0       0       0       0       0       0       0       0
       0       0       0       0       0       0       0       0       0       0
       0       0       0       0       0       0       0       0       0       0
       0       0       0       0       0       0       0       0       0       0
       0       0       0       0       0       0       0       0       0       0
       0       0       0       0       0       0       0       0       0       0
       0       0       0       0       0       0       0       0       0       0
       0       0       0       0       0       0       0       0       0       0
       0       0       0       0       0       0       0       0       0       0
       0       0       0       0       0       0       0       0       0       0
       0       0       0       0       0       0       0       0       0       0
       0       0       0       0       0       0       0       0       0       0
       0       0       0       0       0       0       0       0       0       0
       0       0       0       0       0       0       0       0       0       0
       0       0       0       0       0       0       0       0       0       0
       0       0       0       0       0       0       0       0       0       0
       0       0       0       0       0       0       0       0       0       0
       0       0       0       0       0       0       0       0       0       0
       0       0       0       0       0       0       0       0       0       0
       0       0       0       0       0       0       0       0       0       0
       0       0       0       0       0       0       0       0       0       0
       0       0       0       0       0       0       0       0       0       0
       0       0       0       0       0       0       0       0       0       0
       0       0       0       0       0       0       0       0       0       0
       0       0       0       0       0       0       0       0       0       0
       0       0       0       0       0       0       0       0       0       0
       0       0       0       0       0       0       0       0       0       0
       0       0       0       0       0       0       0       0       0       0
       0       0       0       0       0       0       0       0       0       0
       0       0       0       0       0       0       0       0       0       0
       0       0       0       0       0       0       0       0       0       0
       0       0       0       0       0       0       0       0       0       0
       0       0       0       0       0       0       0       0       0       0
       0       0       0       0       0       0       0       0       0       0
       0       0       0       0       0       0       0       0       0       0
       0       0       0       0       0       0       0       0       0       0
       0       0       0       0       0       0       0       0       0       0
       0       0       0       0       0       0       0       0       0       0
       0       0       0       0       0       0       0       0       0       0
       0       0       0       0       0       0       0       0       0       0
       0       0       0       0       0       0       0       0       0       0
       0       0       0       0       0       0       0       0       0       0
       0       0       0       0       0       0       0       0       0       0
       0       0       0       0       0       0       0       0       0       0
       0       0       0       0       0       0       0       0       0       0
       0       0       0       0       0       0       0       0       0       0
       0       0       0       0       0       0       0       0       0       0
       0       0       0       0       0       0       0       0       0       0
       0       0       0       0       0       0       0       0       0       0
       0       0       0       0       0       0       0       0       0       0
       0       0       0       0       0       0       0       0       0       0
       0       0       0       0       0       0       0       0       0       0
       0       0       0       0       0       0       0       0       0       0
       0       0       0       0       0       0       0       0       0       0
       0       0       0       0       0       0       0       0       0       0
       0       0       0       0       0       0       0       0       0       0
       0       0       0       0       0       0       0       0       0       0
       0       0       0       0       0       0       0       0       0       0
       0       0       0       0       0       0       0       0       0       0
       0       0       0       0       0       0       0       0       0       0
       0       0       0       0       0       0       0       0       0       0
       0       0       0       0       0       0       0       0       0       0
       0       0       0       0       0       0       0       0       0       0
       0       0       0       0       0       0       0       0       0       0
       0       0       0       0       0       0       0       0       0       0
       0       0       0       0       0       0       0       0       0       0
       0       0       0       0       0       0       0       0       0       0
       0       0       0       0       0       0       0       0       0       0
       0       0       0       0       0       0       0       0       0       0
       0       0       0       0       0       0       0       0       0       0
       0       0       0       0       0       0       0       0       0       0
       0       0       0       0       0       0       0       0       0       0
       0       0       0       0       0       0       0       0       0       0
       0       0       0       0       0       0       0       0       0       0
       0       0       0       0       0       0       0       0       0       0
       0       0       0       0       0       0       0       0       0       0
       0       0       0       0       0       0       0       0       0       0
       0       0       0       0       0       0       0       0       0       0
       0       0       0       0       0       0       0       0       0       0
       0       0       0       0       0       0       0       0       0       0
       0       0       0       0       0       0       0       0       0       0
       0       0       0       0       0       0       0       0       0       0
       0       0       0       0       0       0       0       0       0       0
       0       0       0       0       0       0       0       0       0       0
       0       0       0       0       0       0       0       0       0       0
       0       0       0       0       0       0       0       0       0       0
       0       0       0       0       0       0       0       0       0       0
       0       0       0       0       0       0       0       0       0       0
       0       0       0       0       0       0       0       0       0       0
       0       0       0       0       0       0       0       0       0       0
       0       0       0       0       0       0       0       0       0       0
       0       0       0       0       0       0       0       0       0       0
       0       0       0       0       0       0       0       0       0       0
       0       0       0       0       0       0       0       0       0       0
       0       0       0       0       0       0       0       0       0       0
       0       0       0       0       0       0       0       0       0       0
       0       0       0       0       0       0       0       0       0       0
       0       0       0       0       0       0       0       0       0       0
       0       0       0       0       0       0       0       0       0       0
       0       0       0       0       0       0       0       0       0       0
       0       0       0       0       0       0       0       0       0       0
       0       0       0       0       0       0       0       0       0       0
       0       0       0       0       0       0       0       0       0       0
       0       0       0       0       0       0       0       0       0       0
       0       0       0       0       0       0       0       0       0       0
       0       0       0       0       0       0       0       0       0       0
       0       0       0       0       0       0       0       0       0       0
       0       0       0       0       0       0       0       0       0       0
       0       0       0       0       0       0       0       0       0       0
       0       0       0       0       0       0       0       0       0       0
       0       0       0       0       0       0       0       0       0       0
       0       0       0       0       0       0       0       0       0       0
       0       0       0       0       0       0       0       0       0       0
       0       0       0       0       0       0       0       0       0       0
       0       0       0       0       0       0       0       0       0       0
       0       0       0       0       0       0       0       0       0       0
       0       0       0       0       0       0       0       0       0       0
       0       0       0       0       0       0       0       0       0       0
       0       0       0       0       0       0       0       0       0       0
       0       0       0       0       0       0       0       0       0       0
       0       0       0       0       0       0       0       0       0       0
       0       0       0       0       0       0       0       0       0       0
       0       0       0       0       0       0       0       0       0       0
       0       0       0       0       0       0       0       0       0       0
       0       0       0       0       0       0       0       0       0       0
       0       0       0       0       0       0       0       0       0       0
       0       0       0       0       0       0       0       0       0       0
       0       0       0       0       0       0       0       0       0       0
       0       0       0       0       0       0       0       0       0       0
       0       0       0       0       0       0       0       0       0       0
       0       0       0       0       0       0       0       0       0       0
       0       0       0       0       0       0       0       0       0       0
       0       0       0       0       0       0       0       0       0       0
       0       0       0       0       0       0       0       0       0       0
       0       0       0       0       0       0       0       0       0       0
       0       0       0       0       0       0       0       0       0       0
       0       0       0       0       0       0       0       0       0       0
       0       0       0       0       0       0       0       0       0       0
       0       0       0       0       0       0       0       0       0       0
       0       0       0       0       0       0       0       0       0       0
       0       0       0       0       0       0       0       0       0       0
       0       0       0       0       0       0       0       0       0       0
       0       0       0       0       0       0       0       0       0       0
       0       0       0       0       0       0       0       0       0       0
       0       0       0       0       0       0       0       0       0       0
       0       0       0       0       0       0       0       0       0       0
       0       0       0       0       0       0       0       0       0       0
       0       0       0       0       0       0       0       0       0       0
       0       0       0       0       0       0       0       0       0       0
       0       0       0       0       0       0       0       0       0       0
       0       0       0       0       0       0       0       0       0       0
       0       0       0       0       0       0       0       0       0       0
       0       0       0       0       0       0       0       0       0       0
       0       0       0       0       0       0       0       0       0       0
       0       0       0       0       0       0       0       0       0       0
       0       0       0       0       0       0       0       0       0       0
       0       0       0       0       0       0       0       0       0       0
       0       0       0       0       0       0       0       0       0       0
       0       0       0       0       0       0       0       0       0       0
       0       0       0       0       0       0       0       0       0       0
       0       0       0       0       0       0       0       0       0       0
       0       0       0       0       0       0       0       0       0       0
       0       0       0       0       0       0       0       0       0       0
       0       0       0       0       0       0       0       0       0       0
       0       0       0       0       0       0       0       0       0       0
       0       0       0       0       0       0       0       0       0       0
       0       0       0       0       0       0       0       0       0       0
       0       0       0       0       0       0       0       0       0       0
       0       0       0       0       0       0       0       0       0       0
       0       0       0       0       0       0       0       0       0       0
       0       0       0       0       0       0       0       0       0       0
       0       0       0       0       0       0       0       0       0       0
       0       0       0       0       0       0       0       0       0       0
       0       0       0       0       0       0       0       0       0       0
       0       0       0       0       0       0       0       0       0       0
       0       0       0       0       0       0       0       0       0       0
       0       0       0       0       0       0       0       0       0       0
       0       0       0       0       0       0       0       0       0       0
       0       0       0       0       0       0       0       0       0       0
       0       0       0       0       0       0       0       0       0       0
       0       0       0       0       0       0       0       0       0       0
       0       0       0       0       0       0       0       0       0       0
       0       0       0       0       0       0       0       0       0       0
       0       0       0       0       0       0       0       0       0       0
       0       0       0       0       0       0       0       0       0       0
       0       0       0       0       0       0       0       0       0       0
       0       0       0       0       0       0       0       0       0       0
       0       0       0       0       0       0       0       0       0       0
       0       0       0       0       0       0       0       0       0       0
       0       0       0       0       0       0       0       0       0       0
       0       0       0       0       0       0       0       0       0       0
       0       0       0       0       0       0       0       0       0       0
       0       0       0       0       0       0       0       0       0       0
       0       0       0       0       0       0       0       0       0       0
       0       0       0       0       0       0       0       0       0       0
       0       0       0       0       0       0       0       0       0       0
       0       0       0       0       0       0       0       0       0       0
       0       0       0       0       0       0       0       0       0       0
       0       0       0       0       0       0       0       0       0       0
       0       0       0       0       0       0       0       0       0       0
       0       0       0       0       0       0       0       0       0       0
       0       0       0       0       0       0       0       0       0       0
       0       0       0       0       0       0       0       0       0       0
       0       0       0       0       0       0       0       0       0       0
       0       0       0       0       0       0       0       0       0       0
       0       0       0       0       0       0       0       0       0       0
       0       0       0       0       0       0       0       0       0       0
       0       0       0       0       0       0       0       0       0       0
       0       0       0       0       0       0       0       0       0       0
       0       0       0       0       0       0       0       0       0       0
       0       0       0       0       0       0       0       0       0       0
       0       0       0       0       0       0       0       0       0       0
       0       0       0       0       0       0       0       0       0       0
       0       0       0       0       0       0       0       0       0       0
       0       0       0       0       0       0       0       0       0       0
       0       0       0       0       0       0       0       0       0       0
       0       0       0       0       0       0       0       0       0       0
       0       0       0       0       0       0       0       0       0       0
       0       0       0       0       0       0       0       0       0       0
       0       0       0       0       0       0       0       0       0       0
       0       0       0       0       0       0       0       0       0       0
       0       0       0       0       0       0       0       0       0       0
       0       0       0       0       0       0       0       0       0       0
       0       0       0       0       0       0       0       0       0       0
       0       0       0       0       0       0       0       0       0       0
       0       0       0       0       0       0       0       0       0       0
       0       0       0       0       0       0       0       0       0       0
       0       0       0       0       0       0       0       0       0       0
       0       0       0       0       0       0       0       0       0       0
       0       0       0       0       0       0       0       0       0       0
       0       0       0       0       0       0       0       0       0       0
       0       0       0       0       0       0       0       0       0       0
       0       0       0       0       0       0       0       0       0       0
       0       0       0       0       0       0       0       0       0       0
       0       0       0       0       0       0       0       0       0       0
       0       0       0       0       0       0       0       0       0       0
       0       0       0       0       0       0       0       0       0       0
       0       0       0       0       0       0       0       0       0       0
       0       0       0       0       0       0       0       0       0       0
       0       0       0       0       0       0       0       0       0       0
       0       0       0       0       0       0       0       0       0       0
       0       0       0       0       0       0       0       0       0       0
       0       0       0       0       0       0       0       0       0       0
       0       0       0       0       0       0       0       0       0       0
       0       0       0       0       0       0       0       0       0       0
       0       0       0       0       0       0       0       0       0       0
       0       0       0       0       0       0       0       0       0       0
       0       0       0       0       0       0       0       0       0       0
       0       0       0       0       0       0       0       0       0       0
       0       0       0       0       0       0       0       0       0       0
       0       0       0       0       0       0       0       0       0       0
       0       0       0       0       0       0       0       0       0       0
       0       0       0       0       0       0       0       0       0       0
       0       0       0       0       0       0       0       0       0       0
       0       0       0       0       0       0       0       0       0       0
       0       0       0       0       0       0       0       0       0       0
       0       0       0       0       0       0       0       0       0       0
       0       0       0       0       0       0       0       0       0       0
       0       0       0       0       0       0       0       0       0       0
       0       0       0       0       0       0       0       0       0       0
       0       0       0       0       0       0       0       0       0       0
       0       0       0       0       0       0       0       0       0       0
       0       0       0       0       0       0       0       0       0       0
       0       0       0       0       0       0       0       0       0       0
       0       0       0       0       0       0       0       0       0       0
       0       0       0       0       0       0       0       0       0       0
       0       0       0       0       0       0       0       0       0       0
       0       0       0       0       0       0       0       0       0       0
       0       0       0       0       0       0       0       0       0       0
       0       0       0       0       0       0       0       0       0       0
       0       0       0       0       0       0       0       0       0       0
       0       0       0       0       0       0       0       0       0       0
       0       0       0       0       0       0       0       0       0       0
       0       0       0       0       0       0       0       0       0       0
       0       0       0       0       0       0       0       0       0       0
       0       0       0       0       0       0       0       0       0       0
       0       0       0       0       0       0       0       0       0       0
       0       0       0       0       0       0       0       0       0       0
       0       0       0       0       0       0       0       0       0       0
       0       0       0       0       0       0       0       0       0       0
       0       0       0       0       0       0       0       0       0       0
       0       0       0       0       0       0       0       0       0       0
       0       0       0       0       0       0       0       0       0       0
       0       0       0       0       0       0       0       0       0       0
       0       0       0       0       0       0       0       0       0       0
       0       0       0       0       0       0       0       0       0       0
       0       0       0       0       0       0       0       0       0       0
       0       0       0       0       0       0       0       0       0       0
       0       0       0       0       0       0       0       0       0       0
       0       0       0       0       0       0       0       0       0       0
       0       0       0       0       0       0       0       0       0       0
       0       0       0       0       0       0       0       0       0       0
       0       0       0       0       0       0       0       0       0       0
       0       0       0       0       0       0       0       0       0       0
       0       0       0       0       0       0       0       0       0       0
       0       0       0       0       0       0       0       0       0       0
       0       0       0       0       0       0       0       0       0       0
       0       0       0       0       0       0       0       0       0       0
       0       0       0       0       0       0       0       0       0       0
       0       0       0       0       0       0       0       0       0       0
       0       0       0       0       0       0       0       0       0       0
       0       0       0       0       0       0       0       0       0       0
       0       0       0       0       0       0       0       0       0       0
       0       0       0       0       0       0       0       0       0       0
       0       0       0       0       0       0       0       0       0       0
       0       0       0       0       0       0       0       0       0       0
       0       0       0       0       0       0       0       0       0       0
       0       0       0       0       0       0       0       0       0       0
       0       0       0       0       0       0       0       0       0       0
       0       0       0       0       0       0       0       0       0       0
       0       0       0       0       0       0       0       0       0       0
       0       0       0       0       0       0       0       0       0       0
       0       0       0       0       0       0       0       0       0       0
       0       0       0       0       0       0       0       0       0       0
       0       0       0       0       0       0       0       0       0       0
       0       0       0       0       0       0       0       0       0       0
       0       0       0       0       0       0       0       0       0       0
       0       0       0       0       0       0       0       0       0       0
       0       0       0       0       0       0       0       0       0       0
       0       0       0       0       0       0       0       0       0       0
       0       0       0       0       0       0       0       0       0       0
       0       0       0       0       0       0       0       0       0       0
       0       0       0       0       0       0       0       0       0       0
       0       0       0       0       0       0       0       0       0       0
       0       0       0       0       0       0       0       0       0       0
       0       0       0       0       0       0       0       0       0       0
       0       0       0       0       0       0       0       0       0       0
       0       0       0       0       0       0       0       0       0       0
       0       0       0       0       0       0       0       0       0       0
       0       0       0       0       0       0       0       0       0       0
       0       0       0       0       0       0       0       0       0       0
       0       0       0       0       0       0       0       0       0       0
       0       0       0       0       0       0       0       0       0       0
       0       0       0       0       0       0       0       0       0       0
       0       0       0       0       0       0       0       0       0       0
       0       0       0       0       0       0       0       0       0       0
       0       0       0       0       0       0       0       0       0       0
       0       0       0       0       0       0       0       0       0       0
       0       0       0       0       0       0       0       0       0       0
       0       0       0       0       0       0       0       0       0       0
       0       0       0       0       0       0       0       0       0       0
       0       0       0       0       0       0       0       0       0       0
       0       0       0       0       0       0       0       0       0       0
       0       0       0       0       0       0       0       0       0       0
       0       0       0       0       0       0       0       0       0       0
       0       0       0       0       0       0       0       0       0       0
       0       0       0       0       0       0       0       0       0       0
       0       0       0       0       0       0       0       0       0       0
       0       0       0       0       0       0       0       0       0       0
       0       0       0       0       0       0       0       0       0       0
       0       0       0       0       0       0       0       0       0       0
       0       0       0       0       0       0       0       0       0       0
       0       0       0       0       0       0       0       0       0       0
       0       0       0       0       0       0       0       0       0       0
       0       0       0       0       0       0       0       0       0       0
       0       0       0       0       0       0       0       0       0       0
       0       0       0       0       0       0       0       0       0       0
       0       0       0       0       0       0       0       0       0       0
       0       0       0       0       0       0       0       0       0       0
       0       0       0       0       0       0       0       0       0       0
       0       0       0       0       0       0       0       0       0       0
       0       0       0       0       0       0       0       0       0       0
       0       0       0       0       0       0       0       0       0       0
       0       0       0       0       0       0       0       0       0       0
       0       0       0       0       0       0       0       0       0       0
       0       0       0       0       0       0       0       0       0       0
       0       0       0       0       0       0       0       0       0       0
       0       0       0       0       0       0       0       0       0       0
       0       0       0       0       0       0       0       0       0       0
       0       0       0       0       0       0       0       0       0       0
       0       0       0       0       0       0       0       0       0       0
       0       0       0       0       0       0       0       0       0       0
       0       0       0       0       0       0       0       0       0       0
       0       0       0       0       0       0       0       0       0       0
       0       0       0       0       0       0       0       0       0       0
       0       0       0       0       0       0       0       0       0       0
       0       0       0       0       0       0       0       0       0       0
       0       0       0       0       0       0       0       0       0       0
       0       0       0       0       0       0       0       0       0       0
       0       0       0       0       0       0       0       0       0       0
       0       0       0       0       0       0       0       0       0       0
       0       0       0       0       0       0       0       0       0       0
       0       0       0       0       0       0       0       0       0       0
       0       0       0       0       0       0       0       0       0       0
       0       0       0       0       0       0       0       0       0       0
       0       0       0       0       0       0       0       0       0       0
       0       0       0       0       0       0       0       0       0       0
       0       0       0       0       0       0       0       0       0       0
       0       0       0       0       0       0       0       0       0       0
       0       0       0       0       0       0       0       0       0       0
       0       0       0       0       0       0       0       0       0       0
       0       0       0       0       0       0       0       0       0       0
       0       0       0       0       0       0       0       0       0       0
       0       0       0       0       0       0       0       0       0       0
       0       0       0       0       0       0       0       0       0       0
       0       0       0       0       0       0       0       0       0       0
       0       0       0       0       0       0       0       0       0       0
       0       0       0       0       0       0       0       0       0       0
       0       0       0       0       0       0       0       0       0       0
       0       0       0       0       0       0       0       0       0       0
       0       0       0       0       0       0       0       0       0       0
       0       0       0       0       0       0       0       0       0       0
       0       0       0       0       0       0       0       0       0       0
       0       0       0       0       0       0       0       0       0       0
       0       0       0       0       0       0       0       0       0       0
       0       0       0       0       0       0       0       0       0       0
       0       0       0       0       0       0       0       0       0       0
       0       0       0       0       0       0       0       0       0       0
       0       0       0       0       0       0       0       0       0       0
       0       0       0       0       0       0       0       0       0       0
       0       0       0       0       0       0       0       0       0       0
       0       0       0       0       0       0       0       0       0       0
       0       0       0       0       0       0       0       0       0       0
       0       0       0       0       0       0       0       0       0       0
       0       0       0       0       0       0       0       0       0       0
       0       0       0       0       0       0       0       0       0       0
       0       0       0       0       0       0       0       0       0       0
       0       0       0       0       0       0       0       0       0       0
       0       0       0       0       0       0       0       0       0       0
       0       0       0       0       0       0       0       0       0       0
       0       0       0       0       0       0       0       0       0       0
       0       0       0       0       0       0       0       0       0       0
       0       0       0       0       0       0       0       0       0       0
       0       0       0       0       0       0       0       0       0       0
       0       0       0       0       0       0       0       0       0       0
       0       0       0       0       0       0       0       0       0       0
       0       0       0       0       0       0       0       0       0       0
       0       0       0       0       0       0       0       0       0       0
       0       0       0       0       0       0       0       0       0       0
       0       0       0       0       0       0       0       0       0       0
       0       0       0       0       0       0       0       0       0       0
       0       0       0       0       0       0       0       0       0       0
       0       0       0       0       0       0       0       0       0       0
       0       0       0       0       0       0       0       0       0       0
       0       0       0       0       0       0       0       0       0       0
       0       0       0       0       0       0       0       0       0       0
       0       0       0       0       0       0       0       0       0       0
       0       0       0       0       0       0       0       0       0       0
       0       0       0       0       0       0       0       0       0       0
       0       0       0       0       0       0       0       0       0       0
       0       0       0       0       0       0       0       0       0       0
       0       0       0       0       0       0       0       0       0       0
       0       0       0       0       0       0       0       0       0       0
       0       0       0       0       0       0       0       0       0       0
       0       0       0       0       0       0       0       0       0       0
       0       0       0       0       0       0       0       0       0       0
       0       0       0       0       0       0       0       0       0       0
       0       0       0       0       0       0       0       0       0       0
       0       0       0       0       0       0       0       0       0       0
       0       0       0       0       0       0       0       0       0       0
       0       0       0       0       0       0       0       0       0       0
       0       0       0       0       0       0       0       0       0       0
       0       0       0       0       0       0       0       0       0       0
       0       0       0       0       0       0       0       0       0       0
       0       0       0       0       0       0       0       0       0       0
       0       0       0       0       0       0       0       0       0       0
       0       0       0       0       0       0       0       0       0       0
       0       0       0       0       0       0       0       0       0       0
       0       0       0       0       0       0       0       0       0       0
       0       0       0       0       0       0       0       0       0       0
       0       0       0       0       0       0       0       0       0       0
       0       0       0       0       0       0       0       0       0       0
       0       0       0       0       0       0       0       0       0       0
       0       0       0       0       0       0       0       0       0       0
       0       0       0       0       0       0       0       0       0       0
       0       0       0       0       0       0       0       0       0       0
       0       0       0       0       0       0       0       0       0       0
       0       0       0       0       0       0       0       0       0       0
       0       0       0       0       0       0       0       0       0       0
       0       0       0       0       0       0       0       0       0       0
       0       0       0       0       0       0       0       0       0       0
       0       0       0       0       0       0       0       0       0       0
       0       0       0       0       0       0       0       0       0       0
       0       0       0       0       0       0       0       0       0       0
       0       0       0       0       0       0       0       0       0       0
       0       0       0       0       0       0       0       0       0       0
       0       0       0       0       0       0       0       0       0       0
       0       0       0       0       0       0       0       0       0       0
       0       0       0       0       0       0       0       0       0       0
       0       0       0       0       0       0       0       0       0       0
       0       0       0       0       0       0       0       0       0       0
       0       0       0       0       0       0       0       0       0       0
       0       0       0       0       0       0       0       0       0       0
       0       0       0       0       0       0       0       0       0       0
       0       0       0       0       0       0       0       0       0       0
       0       0       0       0       0       0       0       0       0       0
       0       0       0       0       0       0       0       0       0       0
       0       0       0       0       0       0       0       0       0       0
       0       0       0       0       0       0       0       0       0       0
       0       0       0       0       0       0       0       0       0       0
       0       0       0       0       0       0       0       0       0       0
       0       0       0       0       0       0       0       0       0       0
       0       0       0       0       0       0       0       0       0       0
       0       0       0       0       0       0       0       0       0       0
       0       0       0       0       0       0       0       0       0       0
       0       0       0       0       0       0       0       0       0       0
       0       0       0       0       0       0       0       0       0       0
       0       0       0       0       0       0       0       0       0       0
       0       0       0       0       0       0       0       0       0       0
       0       0       0       0       0       0       0       0       0       0
       0       0       0       0       0       0       0       0       0       0
       0       0       0       0       0       0       0       0       0       0
       0       0       0       0       0       0       0       0       0       0
       0       0       0       0       0       0       0       0       0       0
       0       0       0       0       0       0       0       0       0       0
       0       0       0       0       0       0       0       0       0       0
       0       0       0       0       0       0       0       0       0       0
       0       0       0       0       0       0       0       0       0       0
       0       0       0       0       0       0       0       0       0       0
       0       0       0       0       0       0       0       0       0       0
       0       0       0       0       0       0       0       0       0       0
       0       0       0       0       0       0       0       0       0       0
       0       0       0       0       0       0       0       0       0       0
       0       0       0       0       0       0       0       0       0       0
       0       0       0       0       0       0       0       0       0       0
       0       0       0       0       0       0       0       0       0       0
       0       0       0       0       0       0       0       0       0       0
       0       0       0       0       0       0       0       0       0       0
       0       0       0       0       0       0       0       0       0       0
       0       0       0       0       0       0       0       0       0       0
       0       0       0       0       0       0       0       0       0       0
       0       0       0       0       0       0       0       0       0       0
       0       0       0       0       0       0       0       0       0       0
       0       0       0       0       0       0       0       0       0       0
       0       0       0       0       0       0       0       0       0       0
       0       0       0       0       0       0       0       0       0       0
       0       0       0       0       0       0       0       0       0       0
       0       0       0       0       0       0       0       0       0       0
       0       0       0       0       0       0       0       0       0       0
       0       0       0       0       0       0       0       0       0       0
       0       0       0       0       0       0       0       0       0       0
       0       0       0       0       0       0       0       0       0       0
       0       0       0       0       0       0       0       0       0       0
       0       0       0       0       0       0       0       0       0       0
       0       0       0       0       0       0       0       0       0       0
       0       0       0       0       0       0       0       0       0       0
       0       0       0       0       0       0       0       0       0       0
       0       0       0       0       0       0       0       0       0       0
       0       0       0       0       0       0       0       0       0       0
       0       0       0       0       0       0       0       0       0       0
       0       0       0       0       0       0       0       0       0       0
       0       0       0       0       0       0       0       0       0       0
       0       0       0       0       0       0       0       0       0       0
       0       0       0       0       0       0       0       0       0       0
       0       0       0       0       0       0       0       0       0       0
       0       0       0       0       0       0       0       0       0       0
       0       0       0       0       0       0       0       0       0       0
       0       0       0       0       0       0       0       0       0       0
       0       0       0       0       0       0       0       0       0       0
       0       0       0       0       0       0       0       0       0       0
       0       0       0       0       0       0       0       0       0       0
       0       0       0       0       0       0       0       0       0       0
       0       0       0       0       0       0       0       0       0       0
       0       0       0       0       0       0       0       0       0       0
       0       0       0       0       0       0       0       0       0       0
       0       0       0       0       0       0       0       0       0       0
       0       0       0       0       0       0       0       0       0       0
       0       0       0       0       0       0       0       0       0       0
       0       0       0       0       0       0       0       0       0       0
       0       0       0       0       0       0       0       0       0       0
       0       0       0       0       0       0       0       0       0       0
       0       0       0       0       0       0       0       0       0       0
       0       0       0       0       0       0       0       0       0       0
       0       0       0       0       0       0       0       0       0       0
       0       0       0       0       0       0       0       0       0       0
       0       0       0       0       0       0       0       0       0       0
       0       0       0       0       0       0       0       0       0       0
       0       0       0       0       0       0       0       0       0       0
       0       0       0       0       0       0       0       0       0       0
       0       0       0       0       0       0       0       0       0       0
       0       0       0       0       0       0       0       0       0       0
       0       0       0       0       0       0       0       0       0       0
       0       0       0       0       0       0       0       0       0       0
       0       0       0       0       0       0       0       0       0       0
       0       0       0       0       0       0       0       0       0       0
       0       0       0       0       0       0       0       0       0       0
       0       0       0       0       0       0       0       0       0       0
       0       0       0       0       0       0       0       0       0       0
       0       0       0       0       0       0       0       0       0       0
       0       0       0       0       0       0       0       0       0       0
       0       0       0       0       0       0       0       0       0       0
       0       0       0       0       0       0       0       0       0       0
       0       0       0       0       0       0       0       0       0       0
       0       0       0       0       0       0       0       0       0       0
       0       0       0       0       0       0       0       0       0       0
       0       0       0       0       0       0       0       0       0       0
       0       0       0       0       0       0       0       0       0       0
       0       0       0       0       0       0       0       0       0       0
       0       0       0       0       0       0       0       0       0       0
       0       0       0       0       0       0       0       0       0       0
       0       0       0       0       0       0       0       0       0       0
       0       0       0       0       0       0       0       0       0       0
       0       0       0       0       0       0       0       0       0       0
       0       0       0       0       0       0       0       0       0       0
       0       0       0       0       0       0       0       0       0       0
       0       0       0       0       0       0       0       0       0       0
       0       0       0       0       0       0       0       0       0       0
       0       0       0       0       0       0       0       0       0       0
       0       0       0       0       0       0       0       0       0       0
       0       0       0       0       0       0       0       0       0       0
       0       0       0       0       0       0       0       0       0       0
       0       0       0       0       0       0       0       0       0       0
       0       0       0       0       0       0       0       0       0       0
       0       0       0       0       0       0       0       0       0       0
       0       0       0       0       0       0       0       0       0       0
       0       0       0       0       0       0       0       0       0       0
       0       0       0       0       0       0       0       0       0       0
       0       0       0       0       0       0       0       0       0       0
       0       0       0       0       0       0       0       0       0       0
       0       0       0       0       0       0       0       0       0       0
       0       0       0       0       0       0       0       0       0       0
       0       0       0       0       0       0       0       0       0       0
       0       0       0       0       0       0       0       0       0       0
       0       0       0       0       0       0       0       0       0       0
       0       0       0       0       0       0       0       0       0       0
       0       0       0       0       0       0       0       0       0       0
       0       0       0       0       0       0       0       0       0       0
       0       0       0       0       0       0       0       0       0       0
       0       0       0       0       0       0       0       0       0       0
       0       0       0       0       0       0       0       0       0       0
       0       0       0       0       0       0       0       0       0       0
       0       0       0       0       0       0       0       0       0       0
       0       0       0       0       0       0       0       0       0       0
       0       0       0       0       0       0       0       0       0       0
       0       0       0       0       0       0       0       0       0       0
       0       0       0       0       0       0       0       0       0       0
       0       0       0       0       0       0       0       0       0       0
       0       0       0       0       0       0       0       0       0       0
       0       0       0       0       0       0       0       0       0       0
       0       0       0       0       0       0       0       0       0       0
       0       0       0       0       0       0       0       0       0       0
       0       0       0       0       0       0       0       0       0       0
       0       0       0       0       0       0       0       0       0       0
       0       0       0       0       0       0       0       0       0       0
       0       0       0       0       0       0       0       0       0       0
       0       0       0       0       0       0       0       0       0       0
       0       0       0       0       0       0       0       0       0       0
       0       0       0       0       0       0       0       0       0       0
       0       0       0       0       0       0       0       0       0       0
       0       0       0       0       0       0       0       0       0       0
       0       0       0       0       0       0       0       0       0       0
       0       0       0       0       0       0       0       0       0       0
       0       0       0       0       0       0       0       0       0       0
       0       0       0       0       0       0       0       0       0       0
       0       0       0       0       0       0       0       0       0       0
       0       0       0       0       0       0       0       0       0       0
       0       0       0       0       0       0       0       0       0       0
       0       0       0       0       0       0       0       0       0       0
       0       0       0       0       0       0       0       0       0       0
       0       0       0       0       0       0       0       0       0       0
       0       0       0       0       0       0       0       0       0       0
       0       0       0       0       0       0       0       0       0       0
       0       0       0       0       0       0       0       0       0       0
       0       0       0       0       0       0       0       0       0       0
       0       0       0       0       0       0       0       0       0       0
       0       0       0       0       0       0       0       0       0       0
       0       0       0       0       0       0       0       0       0       0
       0       0       0       0       0       0       0       0       0       0
       0       0       0       0       0       0       0       0       0       0
       0       0       0       0       0       0       0       0       0       0
       0       0       0       0       0       0       0       0       0       0
       0       0       0       0       0       0       0       0       0       0
       0       0       0       0       0       0       0       0       0       0
       0       0       0       0       0       0       0       0       0       0
       0       0       0       0       0       0       0       0       0       0
       0       0       0       0       0       0       0       0       0       0
       0       0       0       0       0       0       0       0       0       0
       0       0       0       0       0       0       0       0       0       0
       0       0       0       0       0       0       0       0       0       0
       0       0       0       0       0       0       0       0       0       0
       0       0       0       0       0       0       0       0       0       0
       0       0       0       0       0       0       0       0       0       0
       0       0       0       0       0       0       0       0       0       0
       0       0       0       0       0       0       0       0       0       0
       0       0       0       0       0       0       0       0       0       0
       0       0       0       0       0       0       0       0       0       0
       0       0       0       0       0       0       0       0       0       0
       0       0       0       0       0       0       0       0       0       0
       0       0       0       0       0       0       0       0       0       0
       0       0       0       0       0       0       0       0       0       0
       0       0       0       0       0       0       0       0       0       0
       0       0       0       0       0       0       0       0       0       0
       0       0       0       0       0       0       0       0       0       0
       0       0       0       0       0       0       0       0       0       0
       0       0       0       0       0       0       0       0       0       0
       0       0       0       0       0       0       0       0       0       0
       0       0       0       0       0       0       0       0       0       0
       0       0       0       0       0       0       0       0       0       0
       0       0       0       0       0       0       0       0       0       0
       0       0       0       0       0       0       0       0       0       0
       0       0       0       0       0       0       0       0       0       0
       0       0       0       0       0       0       0       0       0       0
       0       0       0       0       0       0       0       0       0       0
       0       0       0       0       0       0       0       0       0       0
       0       0       0       0       0       0       0       0       0       0
       0       0       0       0       0       0       0       0       0       0
       0       0       0       0       0       0       0       0       0       0
       0       0       0       0       0       0       0       0       0       0
       0       0       0       0       0       0       0       0       0       0
       0       0       0       0       0       0       0       0       0       0
       0       0       0       0       0       0       0       0       0       0
       0       0       0       0       0       0       0       0       0       0
       0       0       0       0       0       0       0       0       0       0
       0       0       0       0       0       0       0       0       0       0
       0       0       0       0       0       0       0       0       0       0
       0       0       0       0       0       0       0       0       0       0
       0       0       0       0       0       0       0       0       0       0
       0       0       0       0       0       0       0       0       0       0
       0       0       0       0       0       0       0       0       0       0
       0       0       0       0       0       0       0       0       0       0
       0       0       0       0       0       0       0       0       0       0
       0       0       0       0       0       0       0       0       0       0
       0       0       0       0       0       0       0       0       0       0
       0       0       0       0       0       0       0       0       0       0
       0       0       0       0       0       0       0       0       0       0
       0       0       0       0       0       0       0       0       0       0
       0       0       0       0       0       0       0       0       0       0
       0       0       0       0       0       0       0       0       0       0
       0       0       0       0       0       0       0       0       0       0
       0       0       0       0       0       0       0       0       0       0
       0       0       0       0       0       0       0       0       0       0
       0       0       0       0       0       0       0       0       0       0
       0       0       0       0       0       0       0       0       0       0
       0       0       0       0       0       0       0       0       0       0
       0       0       0       0       0       0       0       0       0       0
       0       0       0       0       0       0       0       0       0       0
       0       0       0       0       0       0       0       0       0       0
       0       0       0       0       0       0       0       0       0       0
       0       0       0       0       0       0       0       0       0       0
       0       0       0       0       0       0       0       0       0       0
       0       0       0       0       0       0       0       0       0       0
       0       0       0       0       0       0       0       0       0       0
       0       0       0       0       0       0       0       0       0       0
       0       0       0       0       0       0       0       0       0       0
       0       0       0       0       0       0       0       0       0       0
       0       0       0       0       0       0       0       0       0       0
       0       0       0       0       0       0       0       0       0       0
       0       0       0       0       0       0       0       0       0       0
       0       0       0       0       0       0       0       0       0       0
       0       0       0       0       0       0       0       0       0       0
       0       0       0       0       0       0       0       0       0       0
       0       0       0       0       0       0       0       0       0       0
       0       0       0       0       0       0       0       0       0       0
       0       0       0       0       0       0       0       0       0       0
       0       0       0       0       0       0       0       0       0       0
       0       0       0       0       0       0       0       0       0       0
       0       0       0       0       0       0       0       0       0       0
       0       0       0       0       0       0       0       0       0       0
       0       0       0       0       0       0       0       0       0       0
       0       0       0       0       0       0       0       0       0       0
       0       0       0       0       0       0       0       0       0       0
       0       0       0       0       0       0       0       0       0       0
       0       0       0       0       0       0       0       0       0       0
       0       0       0       0       0       0       0       0       0       0
       0       0       0       0       0       0       0       0       0       0
       0       0       0       0       0       0       0       0       0       0
       0       0       0       0       0       0       0       0       0       0
       0       0       0       0       0       0       0       0       0       0
       0       0       0       0       0       0       0       0       0       0
       0       0       0       0       0       0       0       0       0       0
       0       0       0       0       0       0       0       0       0       0
       0       0       0       0       0       0       0       0       0       0
       0       0       0       0       0       0       0       0       0       0
       0       0       0       0       0       0       0       0       0       0
       0       0       0       0       0       0       0       0       0       0
       0       0       0       0       0       0       0       0       0       0
       0       0       0       0       0       0       0       0       0       0
       0       0       0       0       0       0       0       0       0       0
       0       0       0       0       0       0       0       0       0       0
       0       0       0       0       0       0       0       0       0       0
       0       0       0       0       0       0       0       0       0       0
       0       0       0       0       0       0       0       0       0       0
       0       0       0       0       0       0       0       0       0       0
       0       0       0       0       0       0       0       0       0       0
       0       0       0       0       0       0       0       0       0       0
       0       0       0       0       0       0       0       0       0       0
       0       0       0       0       0       0       0       0       0       0
       0       0       0       0       0       0       0       0       0       0
       0       0       0       0       0       0       0       0       0       0
       0       0       0       0       0       0       0       0       0       0
       0       0       0       0       0       0       0       0       0       0
       0       0       0       0       0       0       0       0       0       0
       0       0       0       0       0       0       0       0       0       0
       0       0       0       0       0       0       0       0       0       0
       0       0       0       0       0       0       0       0       0       0
       0       0       0       0       0       0       0       0       0       0
       0       0       0       0       0       0       0       0       0       0
       0       0       0       0       0       0       0       0       0       0
       0       0       0       0       0       0       0       0       0       0
       0       0       0       0       0       0       0       0       0       0
       0       0       0       0       0       0       0       0       0       0
       0       0       0       0       0       0       0       0       0       0
       0       0       0       0       0       0       0       0       0       0
       0       0       0       0       0       0       0       0       0       0
       0       0       0       0       0       0       0       0       0       0
       0       0       0       0       0       0       0       0       0       0
       0       0       0       0       0       0       0       0       0       0
       0       0       0       0       0       0       0       0       0       0
       0       0       0       0       0       0       0       0       0       0
       0       0       0       0       0       0       0       0       0       0
       0       0       0       0       0       0       0       0       0       0
       0       0       0       0       0       0       0       0       0       0
       0       0       0       0       0       0       0       0       0       0
       0       0       0       0       0       0       0       0       0       0
       0       0       0       0       0       0       0       0       0       0
       0       0       0       0       0       0       0       0       0       0
       0       0       0       0       0       0       0       0       0       0
       0       0       0       0       0       0       0       0       0       0
       0       0       0       0       0       0       0       0       0       0
       0       0       0       0       0       0       0       0       0       0
       0       0       0       0       0       0       0       0       0       0
       0       0       0       0       0       0       0       0       0       0
       0       0       0       0       0       0       0       0       0       0
       0       0       0       0       0       0       0       0       0       0
       0       0       0       0       0       0       0       0       0       0
       0       0       0       0       0       0       0       0       0       0
       0       0       0       0       0       0       0       0       0       0
       0       0       0       0       0       0       0       0       0       0
       0       0       0       0       0       0       0       0       0       0
       0       0       0       0       0       0       0       0       0       0
       0       0       0       0       0       0       0       0       0       0
       0       0       0       0       0       0       0       0       0       0
       0       0       0       0       0       0       0       0       0       0
       0       0       0       0       0       0       0       0       0       0
       0       0       0       0       0       0       0       0       0       0
       0       0       0       0       0       0       0       0       0       0
       0       0       0       0       0       0       0       0       0       0
       0       0       0       0       0       0       0       0       0       0
       0       0       0       0       0       0       0       0       0       0
       0       0       0       0       0       0       0       0       0       0
       0       0       0       0       0       0       0       0       0       0
       0       0       0       0       0       0       0       0       0       0
       0       0       0       0       0       0       0       0       0       0
       0       0       0       0       0       0       0       0       0       0
       0       0       0       0       0       0       0       0       0       0
       0       0       0       0       0       0       0       0       0       0
       0       0       0       0       0       0       0       0       0       0
       0       0       0       0       0       0       0       0       0       0
       0       0       0       0       0       0       0       0       0       0
       0       0       0       0       0       0       0       0       0       0
       0       0       0       0       0       0       0       0       0       0
       0       0       0       0       0       0       0       0       0       0
       0       0       0       0       0       0       0       0       0       0
       0       0       0       0       0       0       0       0       0       0
       0       0       0       0       0       0       0       0       0       0
       0       0       0       0       0       0       0       0       0       0
       0       0       0       0       0       0       0       0       0       0
       0       0       0       0       0       0       0       0       0       0
       0       0       0       0       0       0       0       0       0       0
       0       0       0       0       0       0       0       0       0       0
       0       0       0       0       0       0       0       0       0       0
       0       0       0       0       0       0       0       0       0       0
       0       0       0       0       0       0       0       0       0       0
       0       0       0       0       0       0       0       0       0       0
       0       0       0       0       0       0       0       0       0       0
       0       0       0       0       0       0       0       0       0       0
       0       0       0       0       0       0       0       0       0       0
       0       0       0       0       0       0       0       0       0       0
       0       0       0       0       0       0       0       0       0       0
       0       0       0       0       0       0       0       0       0       0
       0       0       0       0       0       0       0       0       0       0
       0       0       0       0       0       0       0       0       0       0
       0       0       0       0       0       0       0       0       0       0
       0       0       0       0       0       0       0       0       0       0
       0       0       0       0       0       0       0       0       0       0
       0       0       0       0       0       0       0       0       0       0
       0       0       0       0       0       0       0       0       0       0
       0       0       0       0       0       0       0       0       0       0
       0       0       0       0       0       0       0       0       0       0
       0       0       0       0       0       0       0       0       0       0
       0       0       0       0       0       0       0       0       0       0
       0       0       0       0       0       0       0       0       0       0
       0       0       0       0       0       0       0       0       0       0
       0       0       0       0       0       0       0       0       0       0
       0       0       0       0       0       0       0       0       0       0
       0       0       0       0       0       0       0       0       0       0
       0       0       0       0       0       0       0       0       0       0
       0       0       0       0       0       0       0       0       0       0
       0       0       0       0       0       0       0       0       0       0
       0       0       0       0       0       0       0       0       0       0
       0       0       0       0       0       0       0       0       0       0
       0       0       0       0       0       0       0       0       0       0
       0       0       0       0       0       0       0       0       0       0
       0       0       0       0       0       0       0       0       0       0
       0       0       0       0       0       0       0       0       0       0
       0       0       0       0       0       0       0       0       0       0
       0       0       0       0       0       0       0       0       0       0
       0       0       0       0       0       0       0       0       0       0
       0       0       0       0       0       0       0       0       0       0
       0       0       0       0       0       0       0       0       0       0
       0       0       0       0       0       0       0       0       0       0
       0       0       0       0       0       0       0       0       0       0
       0       0       0       0       0       0       0       0       0       0
       0       0       0       0       0       0       0       0       0       0
       0       0       0       0       0       0       0       0       0       0
       0       0       0       0       0       0       0       0       0       0
       0       0       0       0       0       0       0       0       0       0
       0       0       0       0       0       0       0       0       0       0
       0       0       0       0       0       0       0       0       0       0
       0       0       0       0       0       0       0       0       0       0
       0       0       0       0       0       0       0       0       0       0
       0       0       0       0       0       0       0       0       0       0
       0       0       0       0       0       0       0       0       0       0
       0       0       0       0       0       0       0       0       0       0
       0       0       0       0       0       0       0       0       0       0
       0       0       0       0       0       0       0       0       0       0
       0       0       0       0       0       0       0       0       0       0
       0       0       0       0       0       0       0       0       0       0
       0       0       0       0       0       0       0       0       0       0
       0       0       0       0       0       0       0       0       0       0
       0       0       0       0       0       0       0       0       0       0
       0       0       0       0       0       0       0       0       0       0
       0       0       0       0       0       0       0       0       0       0
       0       0       0       0       0       0       0       0       0       0
       0       0       0       0       0       0       0       0       0       0
       0       0       0       0       0       0       0       0       0       0
       0       0       0       0       0       0       0       0       0       0
       0       0       0       0       0       0       0       0       0       0
       0       0       0       0       0       0       0       0       0       0
       0       0       0       0       0       0       0       0       0       0
       0       0       0       0       0       0       0       0       0       0
       0       0       0       0       0       0       0       0       0       0
       0       0       0       0       0       0       0       0       0       0
       0       0       0       0       0       0       0       0       0       0
       0       0       0       0       0       0       0       0       0       0
       0       0       0       0       0       0       0       0       0       0
       0       0       0       0       0       0       0       0       0       0
       0       0       0       0       0       0       0       0       0       0
       0       0       0       0       0       0       0       0       0       0
       0       0       0       0       0       0       0       0       0       0
       0       0       0       0       0       0       0       0       0       0
       0       0       0       0       0       0       0       0       0       0
       0       0       0       0       0       0       0       0       0       0
       0       0       0       0       0       0       0       0       0       0
       0       0       0       0       0       0       0       0       0       0
       0       0       0       0       0       0       0       0       0       0
       0       0       0       0       0       0       0       0       0       0
       0       0       0       0       0       0       0       0       0       0
       0       0       0       0       0       0       0       0       0       0
       0       0       0       0       0       0       0       0       0       0
       0       0       0       0       0       0       0       0       0       0
       0       0       0       0       0       0       0       0       0       0
       0       0       0       0       0       0       0       0       0       0
       0       0       0       0       0       0       0       0       0       0
       0       0       0       0       0       0       0       0       0       0
       0       0       0       0       0       0       0       0       0       0
       0       0       0       0       0       0       0       0       0       0
       0       0       0       0       0       0       0       0       0       0
       0       0       0       0       0       0       0       0       0       0
       0       0       0       0       0       0       0       0       0       0
       0       0       0       0       0       0       0       0       0       0
       0       0       0       0       0       0       0       0       0       0
       0       0       0       0       0       0       0       0       0       0
       0       0       0       0       0       0       0       0       0       0
       0       0       0       0       0       0       0       0       0       0
       0       0       0       0       0       0       0       0       0       0
       0       0       0       0       0       0       0       0       0       0
       0       0       0       0       0       0       0       0       0       0
       0       0       0       0       0       0       0       0       0       0
       0       0       0       0       0       0       0       0       0       0
       0       0       0       0       0       0       0       0       0       0
       0       0       0       0       0       0       0       0       0       0
       0       0       0       0       0       0       0       0       0       0
       0       0       0       0       0       0       0       0       0       0
       0       0       0       0       0       0       0       0       0       0
       0       0       0       0       0       0       0       0       0       0
       0       0       0       0       0       0       0       0       0       0
       0       0       0       0       0       0       0       0       0       0
       0       0       0       0       0       0       0       0       0       0
       0       0       0       0       0       0       0       0       0       0
       0       0       0       0       0       0       0       0       0       0
       0       0       0       0       0       0       0       0       0       0
       0       0       0       0       0       0       0       0       0       0
       0       0       0       0       0       0       0       0       0       0
       0       0       0       0       0       0       0       0       0       0
       0       0       0       0       0       0       0       0       0       0
       0       0       0       0       0       0       0       0       0       0
       0       0       0       0       0       0       0       0       0       0
       0       0       0       0       0       0       0       0       0       0
       0       0       0       0       0       0       0       0       0       0
       0       0       0       0       0       0       0       0       0       0
       0       0       0       0       0       0       0       0       0       0
       0       0       0       0       0       0       0       0       0       0
       0       0       0       0       0       0       0       0       0       0
       0       0       0       0       0       0       0       0       0       0
       0       0       0       0       0       0       0       0       0       0
       0       0       0       0       0       0       0       0       0       0
       0       0       0       0       0       0       0       0       0       0
       0       0       0       0       0       0       0       0       0       0
       0       0       0       0       0       0       0       0       0       0
       0       0       0       0       0       0       0       0       0       0
       0       0       0       0       0       0       0       0       0       0
       0       0       0       0       0       0       0       0       0       0
       0       0       0       0       0       0       0       0       0       0
       0       0       0       0       0       0       0       0       0       0
       0       0       0       0       0       0       0       0       0       0
       0       0       0       0       0       0       0       0       0       0
       0       0       0       0       0       0       0       0       0       0
       0       0       0       0       0       0       0       0       0       0
       0       0       0       0       0       0       0       0       0       0
       0       0       0       0       0       0       0       0       0       0
       0       0       0       0       0       0       0       0       0       0
       0       0       0       0       0       0       0       0       0       0
       0       0       0       0       0       0       0       0       0       0
       0       0       0       0       0       0       0       0       0       0
       0       0       0       0       0       0       0       0       0       0
       0       0       0       0       0       0       0       0       0       0
       0       0       0       0       0       0       0       0       0       0
       0       0       0       0       0       0       0       0       0       0
       0       0       0       0       0       0       0       0       0       0
       0       0       0       0       0       0       0       0       0       0
       0       0       0       0       0       0       0       0       0       0
       0       0       0       0       0       0       0       0       0       0
       0       0       0       0       0       0       0       0       0       0
       0       0       0       0       0       0       0       0       0       0
       0       0       0       0       0       0       0       0       0       0
       0       0       0       0       0       0       0       0       0       0
       0       0       0       0       0       0       0       0       0       0
       0       0       0       0       0       0       0       0       0       0
       0       0       0       0       0       0       0       0       0       0
       0       0       0       0       0       0       0       0       0       0
       0       0       0       0       0       0       0       0       0       0
       0       0       0       0       0       0       0       0       0       0
       0       0       0       0       0       0       0       0       0       0
       0       0       0       0       0       0       0       0       0       0
       0       0       0       0       0       0       0       0       0       0
       0       0       0       0       0       0       0       0       0       0
       0       0       0       0       0       0       0       0       0       0
       0       0       0       0       0       0       0       0       0       0
       0       0       0       0       0       0       0       0       0       0
       0       0       0       0       0       0       0       0       0       0
       0       0       0       0       0       0       0       0       0       0
       0       0       0       0       0       0       0       0       0       0
       0       0       0       0       0       0       0       0       0       0
       0       0       0       0       0       0       0       0       0       0
       0       0       0       0       0       0       0       0       0       0
       0       0       0       0       0       0       0       0       0       0
       0       0       0       0       0       0       0       0       0       0
       0       0       0       0       0       0       0       0       0       0
       0       0       0       0       0       0       0       0       0       0
       0       0       0       0       0       0       0       0       0       0
       0       0       0       0       0       0       0       0       0       0
       0       0       0       0       0       0       0       0       0       0
       0       0       0       0       0       0       0       0       0       0
       0       0       0       0       0       0       0       0       0       0
       0       0       0       0       0       0       0       0       0       0
       0       0       0       0       0       0       0       0       0       0
       0       0       0       0       0       0       0       0       0       0
       0       0       0       0       0       0       0       0       0       0
       0       0       0       0       0       0       0       0       0       0
       0       0       0       0       0       0       0       0       0       0
       0       0       0       0       0       0       0       0       0       0
       0       0       0       0       0       0       0       0       0       0
       0       0       0       0       0       0       0       0       0       0
       0       0       0       0       0       0       0       0       0       0
       0       0       0       0       0       0       0       0       0       0
       0       0       0       0       0       0       0       0       0       0
       0       0       0       0       0       0       0       0       0       0
       0       0       0       0       0       0       0       0       0       0
       0       0       0       0       0       0       0       0       0       0
       0       0       0       0       0       0       0       0       0       0
       0       0       0       0       0       0       0       0       0       0
       0       0       0       0       0       0       0       0       0       0
       0       0       0       0       0       0       0       0       0       0
       0       0       0       0       0       0       0       0       0       0
       0       0       0       0       0       0       0       0       0       0
       0       0       0       0       0       0       0       0       0       0
       0       0       0       0       0       0       0       0       0       0
       0       0       0       0       0       0       0       0       0       0
       0       0       0       0       0       0       0       0       0       0
       0       0       0       0       0       0       0       0       0       0
       0       0       0       0       0       0       0       0       0       0
       0       0       0       0       0       0       0       0       0       0
       0       0       0       0       0       0       0       0       0       0
       0       0       0       0       0       0       0       0       0       0
       0       0       0       0       0       0       0       0       0       0
       0       0       0       0       0       0       0       0       0       0
       0       0       0       0       0       0       0       0       0       0
       0       0       0       0       0       0       0       0       0       0
       0       0       0       0       0       0       0       0       0       0
       0       0       0       0       0       0       0       0       0       0
       0       0       0       0       0       0       0       0       0       0
       0       0       0       0       0       0       0       0       0       0
       0       0       0       0       0       0       0       0       0       0
       0       0       0       0       0       0       0       0       0       0
       0       0       0       0       0       0       0       0       0       0
       0       0       0       0       0       0       0       0       0       0
       0       0       0       0       0       0       0       0       0       0
       0       0       0       0       0       0       0       0       0       0
       0       0       0       0       0       0       0       0       0       0
       0       0       0       0       0       0       0       0       0       0
       0       0       0       0       0       0       0       0       0       0
       0       0       0       0       0       0       0       0       0       0
       0       0       0       0       0       0       0       0       0       0
       0       0       0       0       0       0       0       0       0       0
       0       0       0       0       0       0       0       0       0       0
       0       0       0       0       0       0       0       0       0       0
       0       0       0       0       0       0       0       0       0       0
       0       0       0       0       0       0       0       0       0       0
       0       0       0       0       0       0       0       0       0       0
       0       0       0       0       0       0       0       0       0       0
       0       0       0       0       0       0       0       0       0       0
       0       0       0       0       0       0       0       0       0       0
       0       0       0       0       0       0       0       0       0       0
       0       0       0       0       0       0       0       0       0       0
       0       0       0       0       0       0       0       0       0       0
       0       0       0       0       0       0       0       0       0       0
       0       0       0       0       0       0       0       0       0       0
       0       0       0       0       0       0       0       0       0       0
       0       0       0       0       0       0       0       0       0       0
       0       0       0       0       0       0       0       0       0       0
       0       0       0       0       0       0       0       0       0       0
       0       0       0       0       0       0       0       0       0       0
       0       0       0       0       0       0       0       0       0       0
       0       0       0       0       0       0       0       0       0       0
       0       0       0       0       0       0       0       0       0       0
       0       0       0       0       0       0       0       0       0       0
       0       0       0       0       0       0       0       0       0       0
       0       0       0       0       0       0       0       0       0       0
       0       0       0       0       0       0       0       0       0       0
       0       0       0       0       0       0       0       0       0       0
       0       0       0       0       0       0       0       0       0       0
       0       0       0       0       0       0       0       0       0       0
       0       0       0       0       0       0       0       0       0       0
       0       0       0       0       0       0       0       0       0       0
       0       0       0       0       0       0       0       0       0       0
       0       0       0       0       0       0       0       0       0       0
       0       0       0       0       0       0       0       0       0       0
       0       0       0       0       0       0       0       0       0       0
       0       0       0       0       0       0       0       0       0       0
       0       0       0       0       0       0       0       0       0       0
       0       0       0       0       0       0       0       0       0       0
       0       0       0       0       0       0       0       0       0       0
       0       0       0       0       0       0       0       0       0       0
       0       0       0       0       0       0       0       0       0       0
       0       0       0       0       0       0       0       0       0       0
       0       0       0       0       0       0       0       0       0       0
       0       0       0       0       0       0       0       0       0       0
       0       0       0       0       0       0       0       0       0       0
       0       0       0       0       0       0       0       0       0       0
       0       0       0       0       0       0       0       0       0       0
       0       0       0       0       0       0       0       0       0       0
       0       0       0       0       0       0       0       0       0       0
       0       0       0       0       0       0       0       0       0       0
       0       0       0       0       0       0       0       0       0       0
       0       0       0       0       0       0       0       0       0       0
       0       0       0       0       0       0       0       0       0       0
       0       0       0       0       0       0       0       0       0       0
       0       0       0       0       0       0       0       0       0       0
       0       0       0       0       0       0       0       0       0       0
       0       0       0       0       0       0       0       0       0       0
       0       0       0       0       0       0       0       0       0       0
       0       0       0       0       0       0       0       0       0       0
       0       0       0       0       0       0       0       0       0       0
       0       0       0       0       0       0       0       0       0       0
       0       0       0       0       0       0       0       0       0       0
       0       0       0       0       0       0       0       0       0       0
       0       0       0       0       0       0       0       0       0       0
       0       0       0       0       0       0       0       0       0       0
       0       0       0       0       0       0       0       0       0       0
       0       0       0       0       0       0       0       0       0       0
       0       0       0       0       0       0       0       0       0       0
       0       0       0       0       0       0       0       0       0       0
       0       0       0       0       0       0       0       0       0       0
       0       0       0       0       0       0       0       0       0       0
       0       0       0       0       0       0       0       0       0       0
       0       0       0       0       0       0       0       0       0       0
       0       0       0       0       0       0       0       0       0       0
       0       0       0       0       0       0       0       0       0       0
       0       0       0       0       0       0       0       0       0       0
       0       0       0       0       0       0       0       0       0       0
       0       0       0       0       0       0       0       0       0       0
       0       0       0       0       0       0       0       0       0       0
       0       0       0       0       0       0       0       0       0       0
       0       0       0       0       0       0       0       0       0       0
       0       0       0       0       0       0       0       0       0       0
       0       0       0       0       0       0       0       0       0       0
       0       0       0       0       0       0       0       0       0       0
       0       0       0       0       0       0       0       0       0       0
       0       0       0       0       0       0       0       0       0       0
       0       0       0       0       0       0       0       0       0       0
       0       0       0       0       0       0       0       0       0       0
       0       0       0       0       0       0       0       0       0       0
       0       0       0       0       0       0       0       0       0       0
       0       0       0       0       0       0       0       0       0       0
       0       0       0       0       0       0       0       0       0       0
       0       0       0       0       0       0       0       0       0       0
       0       0       0       0       0       0       0       0       0       0
       0       0       0       0       0       0       0       0       0       0
       0       0       0       0       0       0       0       0       0       0
       0       0       0       0       0       0       0       0       0       0
       0       0       0       0       0       0       0       0       0       0
       0       0       0       0       0       0       0       0       0       0
       0       0       0       0       0       0       0       0       0       0
       0       0       0       0       0       0       0       0       0       0
       0       0       0       0       0       0       0       0       0       0
       0       0       0       0       0       0       0       0       0       0
       0       0       0       0       0       0       0       0       0       0
       0       0       0       0       0       0       0       0       0       0
       0       0       0       0       0       0       0       0       0       0
       0       0       0       0       0       0       0       0       0       0
       0       0       0       0       0       0       0       0       0       0
       0       0       0       0       0       0       0       0       0       0
       0       0       0       0       0       0       0       0       0       0
       0       0       0       0       0       0       0       0       0       0
       0       0       0       0       0       0       0       0       0       0
       0       0       0       0       0       0       0       0       0       0
       0       0       0       0       0       0       0       0       0       0
       0       0       0       0       0       0       0       0       0       0
       0       0       0       0       0       0       0       0       0       0
       0       0       0       0       0       0       0       0       0       0
       0       0       0       0       0       0       0       0       0       0
       0       0       0       0       0       0       0       0       0       0
       0       0       0       0       0       0       0       0       0       0
       0       0       0       0       0       0       0       0       0       0
       0       0       0       0       0       0       0       0       0       0
       0       0       0       0       0       0       0       0       0       0
       0       0       0       0       0       0       0       0       0       0
       0       0       0       0       0       0       0       0       0       0
       0       0       0       0       0       0       0       0       0       0
       0       0       0       0       0       0       0       0       0       0
       0       0       0       0       0       0       0       0       0       0
       0       0       0       0       0       0       0       0       0       0
       0       0       0       0       0       0       0       0       0       0
       0       0       0       0       0       0       0       0       0       0
       0       0       0       0       0       0       0       0       0       0
       0       0       0       0       0       0       0       0       0       0
       0       0       0       0       0       0       0       0       0       0
       0       0       0       0       0       0       0       0       0       0
       0       0       0       0       0       0       0       0       0       0
       0       0       0       0       0       0       0       0       0       0
       0       0       0       0       0       0       0       0       0       0
       0       0       0       0       0       0       0       0       0       0
       0       0       0       0       0       0       0       0       0       0
       0       0       0       0       0       0       0       0       0       0
       0       0       0       0       0       0       0       0       0       0
       0       0       0       0       0       0       0       0       0       0
       0       0       0       0       0       0       0       0       0       0
       0       0       0       0       0       0       0       0       0       0
       0       0       0       0       0       0       0       0       0       0
       0       0       0       0       0       0       0       0       0       0
       0       0       0       0       0       0       0       0       0       0
       0       0       0       0       0       0       0       0       0       0
       0       0       0       0       0       0       0       0       0       0
       0       0       0       0       0       0       0       0       0       0
       0       0       0       0       0       0       0       0       0       0
       0       0       0       0       0       0       0       0       0       0
       0       0       0       0       0       0       0       0       0       0
       0       0       0       0       0       0       0       0       0       0
       0       0       0       0       0       0       0       0       0       0
       0       0       0       0       0       0       0       0       0       0
       0       0       0       0       0       0       0       0       0       0
       0       0       0       0       0       0       0       0       0       0
       0       0       0       0       0       0       0       0       0       0
       0       0       0       0       0       0       0       0       0       0
       0       0       0       0       0       0       0       0       0       0
       0       0       0       0       0       0       0       0       0       0
       0       0       0       0       0       0       0       0       0       0
       0       0       0       0       0       0       0       0       0       0
       0       0       0       0       0       0       0       0       0       0
       0       0       0       0       0       0       0       0       0       0
       0       0       0       0       0       0       0       0       0       0
       0       0       0       0       0       0       0       0       0       0
       0       0       0       0       0       0       0       0       0       0
       0       0       0       0       0       0       0       0       0       0
       0       0       0       0       0       0       0       0       0       0
       0       0       0       0       0       0       0       0       0       0
       0       0       0       0       0       0       0       0       0       0
       0       0       0       0       0       0       0       0       0       0
       0       0       0       0       0       0       0       0       0       0
       0       0       0       0       0       0       0       0       0       0
       0       0       0       0       0       0       0       0       0       0
       0       0       0       0       0       0       0       0       0       0
       0       0       0       0       0       0       0       0       0       0
       0       0       0       0       0       0       0       0       0       0
       0       0       0       0       0       0       0       0       0       0
       0       0       0       0       0       0       0       0       0       0
       0       0       0       0       0       0       0       0       0       0
       0       0       0       0       0       0       0       0       0       0
       0       0       0       0       0       0       0       0       0       0
       0       0       0       0       0       0       0       0       0       0
       0       0       0       0       0       0       0       0       0       0
       0       0       0       0       0       0       0       0       0       0
       0       0       0       0       0       0       0       0       0       0
       0       0       0       0       0       0       0       0       0       0
       0       0       0       0       0       0       0       0       0       0
       0       0       0       0       0       0       0       0       0       0
       0       0       0       0       0       0       0       0       0       0
       0       0       0       0       0       0       0       0       0       0
       0       0       0       0       0       0       0       0       0       0
       0       0       0       0       0       0       0       0       0       0
       0       0       0       0       0       0       0       0       0       0
       0       0       0       0       0       0       0       0       0       0
       0       0       0       0       0       0       0       0       0       0
       0       0       0       0       0       0       0       0       0       0
       0       0       0       0       0       0       0       0       0       0
       0       0       0       0       0       0       0       0       0       0
       0       0       0       0       0       0       0       0       0       0
       0       0       0       0       0       0       0       0       0       0
       0       0       0       0       0       0       0       0       0       0
       0       0       0       0       0       0       0       0       0       0
       0       0       0       0       0       0       0       0       0       0
       0       0       0       0       0       0       0       0       0       0
       0       0       0       0       0       0       0       0       0       0
       0       0       0       0       0       0       0       0       0       0
       0       0       0       0       0       0       0       0       0       0
       0       0       0       0       0       0       0       0       0       0
       0       0       0       0       0       0       0       0       0       0
       0       0       0       0       0       0       0       0       0       0
       0       0       0       0       0       0       0       0       0       0
       0       0       0       0       0       0       0       0       0       0
       0       0       0       0       0       0       0       0       0       0
       0       0       0       0       0       0       0       0       0       0
       0       0       0       0       0       0       0       0       0       0
       0       0       0       0       0       0       0       0       0       0
       0       0       0       0       0       0       0       0       0       0
       0       0       0       0       0       0       0       0       0       0
       0       0       0       0       0       0       0       0       0       0
       0       0       0       0       0       0       0       0       0       0
       0       0       0       0       0       0       0       0       0       0
       0       0       0       0       0       0       0       0       0       0
       0       0       0       0       0       0       0       0       0       0
       0       0       0       0       0       0       0       0       0       0
       0       0       0       0       0       0       0       0       0       0
       0       0       0       0       0       0       0       0       0       0
       0       0       0       0       0       0       0       0       0       0
       0       0       0       0       0       0       0       0       0       0
       0       0       0       0       0       0       0       0       0       0
       0       0       0       0       0       0       0       0       0       0
       0       0       0       0       0       0       0       0       0       0
       0       0       0       0       0       0       0       0       0       0
       0       0       0       0       0       0       0       0       0       0
       0       0       0       0       0       0       0       0       0       0
       0       0       0       0       0       0       0       0       0       0
       0       0       0       0       0       0       0       0       0       0
       0       0       0       0       0       0       0       0       0       0
       0       0       0       0       0       0       0       0       0       0
       0       0       0       0       0       0       0       0       0       0
       0       0       0       0       0       0       0       0       0       0
       0       0       0       0       0       0       0       0       0       0
       0       0       0       0       0       0       0       0       0       0
       0       0       0       0       0       0       0       0       0       0
       0       0       0       0       0       0       0       0       0       0
       0       0       0       0       0       0       0       0       0       0
       0       0       0       0       0       0       0       0       0       0
       0       0       0       0       0       0       0       0       0       0
       0       0       0       0       0       0       0       0       0       0
       0       0       0       0       0       0       0       0       0       0
       0       0       0       0       0       0       0       0       0       0
       0       0       0       0       0       0       0       0       0       0
       0       0       0       0       0       0       0       0       0       0
       0       0       0       0       0       0       0       0       0       0
       0       0       0       0       0       0       0       0       0       0
       0       0       0       0       0       0       0       0       0       0
       0       0       0       0       0       0       0       0       0       0
       0       0       0       0       0       0       0       0       0       0
       0       0       0       0       0       0       0       0       0       0
       0       0       0       0       0       0       0       0       0       0
       0       0       0       0       0       0       0       0       0       0
       0       0       0       0       0       0       0       0       0       0
       0       0       0       0       0       0       0       0       0       0
       0       0       0       0       0       0       0       0       0       0
       0       0       0       0       0       0       0       0       0       0
       0       0       0       0       0       0       0       0       0       0
       0       0       0       0       0       0       0       0       0       0
       0       0       0       0       0       0       0       0       0       0
       0       0       0       0       0       0       0       0       0       0
       0       0       0       0       0       0       0       0       0       0
       0       0       0       0       0       0       0       0       0       0
       0       0       0       0       0       0       0       0       0       0
       0       0       0       0       0       0       0       0       0       0
       0       0       0       0       0       0       0       0       0       0
       0       0       0       0       0       0       0       0       0       0
       0       0       0       0       0       0       0       0       0       0
       0       0       0       0       0       0       0       0       0       0
       0       0       0       0       0       0       0       0       0       0
       0       0       0       0       0       0       0       0       0       0
       0       0       0       0       0       0       0       0       0       0
       0       0       0       0       0       0       0       0       0       0
       0       0       0       0       0       0       0       0       0       0
       0       0       0       0       0       0       0       0       0       0
       0       0       0       0       0       0       0       0       0       0
       0       0       0       0       0       0       0       0       0       0
       0       0       0       0       0       0       0       0       0       0
       0       0       0       0       0       0       0       0       0       0
       0       0       0       0       0       0       0       0       0       0
       0       0       0       0       0       0       0       0       0       0
       0       0       0       0       0       0       0       0       0       0
       0       0       0       0       0       0       0       0       0       0
       0       0       0       0       0       0       0       0       0       0
       0       0       0       0       0       0       0       0       0       0
       0       0       0       0       0       0       0       0       0       0
       0       0       0       0       0       0       0       0       0       0
       0       0       0       0       0       0       0       0       0       0
       0       0       0       0       0       0       0       0       0       0
       0       0       0       0       0       0       0       0       0       0
       0       0       0       0       0       0       0       0       0       0
       0       0       0       0       0       0       0       0       0       0
       0       0       0       0       0       0       0       0       0       0
       0       0       0       0       0       0       0       0       0       0
       0       0       0       0       0       0       0       0       0       0
       0       0       0       0       0       0       0       0       0       0
       0       0       0       0       0       0       0       0       0       0
       0       0       0       0       0       0       0       0       0       0
       0       0       0       0       0       0       0       0       0       0
       0       0       0       0       0       0       0       0       0       0
       0       0       0       0       0       0       0       0       0       0
       0       0       0       0       0       0       0       0       0       0
       0       0       0       0       0       0       0       0       0       0
       0       0       0       0       0       0       0       0       0       0
       0       0       0       0       0       0       0       0       0       0
       0       0       0       0       0       0       0       0       0       0
       0       0       0       0       0       0       0       0       0       0
       0       0       0       0       0       0       0       0       0       0
       0       0       0       0       0       0       0       0       0       0
       0       0       0       0       0       0       0       0       0       0
       0       0       0       0       0       0       0       0       0       0
       0       0       0       0       0       0       0       0       0       0
       0       0       0       0       0       0       0       0       0       0
       0       0       0       0       0       0       0       0       0       0
       0       0       0       0       0       0       0       0       0       0
       0       0       0       0       0       0       0       0       0       0
       0       0       0       0       0       0       0       0       0       0
       0       0       0       0       0       0       0       0       0       0
       0       0       0       0       0       0       0       0       0       0
       0       0       0       0       0       0       0       0       0       0
       0       0       0       0       0       0       0       0       0       0
       0       0       0       0       0       0       0       0       0       0
       0       0       0       0       0       0       0       0       0       0
       0       0       0       0       0       0       0       0       0       0
       0       0       0       0       0       0       0       0       0       0
       0       0       0       0       0       0       0       0       0       0
       0       0       0       0       0       0       0       0       0       0
       0       0       0       0       0       0       0       0       0       0
       0       0       0       0       0       0       0       0       0       0
       0       0       0       0       0       0       0       0       0       0
       0       0       0       0       0       0       0       0       0       0
       0       0       0       0       0       0       0       0       0       0
       0       0       0       0       0       0       0       0       0       0
       0       0       0       0       0       0       0       0       0       0
       0       0       0       0       0       0       0       0       0       0
       0       0       0       0       0       0       0       0       0       0
       0       0       0       0       0       0       0       0       0       0
       0       0       0       0       0       0       0       0       0       0
       0       0       0       0       0       0       0       0       0       0
       0       0       0       0       0       0       0       0       0       0
       0       0       0       0       0       0       0       0       0       0
       0       0       0       0       0       0       0       0       0       0
       0       0       0       0       0       0       0       0       0       0
       0       0       0       0       0       0       0       0       0       0
       0       0       0       0       0       0       0       0       0       0
       0       0       0       0       0       0       0       0       0       0
       0       0       0       0       0       0       0       0       0       0
       0       0       0       0       0       0       0       0       0       0
       0       0       0       0       0       0       0       0       0       0
       0       0       0       0       0       0       0       0       0       0
       0       0       0       0       0       0       0       0       0       0
       0       0       0       0       0       0       0       0       0       0
       0       0       0       0       0       0       0       0       0       0
       0       0       0       0       0       0       0       0       0       0
       0       0       0       0       0       0       0       0       0       0
       0       0       0       0       0       0       0       0       0       0
       0       0       0       0       0       0       0       0       0       0
       0       0       0       0       0       0       0       0       0       0
       0       0       0       0       0       0       0       0       0       0
       0       0       0       0       0       0       0       0       0       0
       0       0       0       0       0       0       0       0       0       0
       0       0       0       0       0       0       0       0       0       0
       0       0       0       0       0       0       0       0       0       0
       0       0       0       0       0       0       0       0       0       0
       0       0       0       0       0       0       0       0       0       0
       0       0       0       0       0       0       0       0       0       0
       0       0       0       0       0       0       0       0       0       0
       0       0       0       0       0       0       0       0       0       0
       0       0       0       0       0       0       0       0       0       0
       0       0       0       0       0       0       0       0       0       0
       0       0       0       0       0       0       0       0       0       0
       0       0       0       0       0       0       0       0       0       0
       0       0       0       0       0       0       0       0       0       0
       0       0       0       0       0       0       0       0       0       0
       0       0       0       0       0       0       0       0       0       0
       0       0       0       0       0       0       0       0       0       0
       0       0       0       0       0       0       0       0       0       0
       0       0       0       0       0       0       0       0       0       0
       0       0       0       0       0       0       0       0       0       0
       0       0       0       0       0       0       0       0       0       0
       0       0       0       0       0       0       0       0       0       0
       0       0       0       0       0       0       0       0       0       0
       0       0       0       0       0       0       0       0       0       0
       0       0       0       0       0       0       0       0       0       0
       0       0       0       0       0       0       0       0       0       0
       0       0       0       0       0       0       0       0       0       0
       0       0       0       0       0       0       0       0       0       0
       0       0       0       0       0       0       0       0       0       0
       0       0       0       0       0       0       0       0       0       0
       0       0       0       0       0       0       0       0       0       0
       0       0       0       0       0       0       0       0       0       0
       0       0       0       0       0       0       0       0       0       0
       0       0       0       0       0       0       0       0       0       0
       0       0       0       0       0       0       0       0       0       0
       0       0       0       0       0       0       0       0       0       0
       0       0       0       0       0       0       0       0       0       0
       0       0       0       0       0       0       0       0       0       0
       0       0       0       0       0       0       0       0       0       0
       0       0       0       0       0       0       0       0       0       0
       0       0       0       0       0       0       0       0       0       0
       0       0       0       0       0       0       0       0       0       0
       0       0       0       0       0       0       0       0       0       0
       0       0       0       0       0       0       0       0       0       0
       0       0       0       0       0       0       0       0       0       0
       0       0       0       0       0       0       0       0       0       0
       0       0       0       0       0       0       0       0       0       0
       0       0       0       0       0       0       0       0       0       0
       0       0       0       0       0       0       0       0       0       0
       0       0       0       0       0       0       0       0       0       0
       0       0       0       0       0       0       0       0       0       0
       0       0       0       0       0       0       0       0       0       0
       0       0       0       0       0       0       0       0       0       0
       0       0       0       0       0       0       0       0       0       0
       0       0       0       0       0       0       0       0       0       0
       0       0       0       0       0       0       0       0       0       0
       0       0       0       0       0       0       0       0       0       0
       0       0       0       0       0       0       0       0       0       0
       0       0       0       0       0       0       0       0       0       0
       0       0       0       0       0       0       0       0       0       0
       0       0       0       0       0       0       0       0       0       0
       0       0       0       0       0       0       0       0       0       0
       0       0       0       0       0       0       0       0       0       0
       0       0       0       0       0       0       0       0       0       0
       0       0       0       0       0       0       0       0       0       0
       0       0       0       0       0       0       0       0       0       0
       0       0       0       0       0       0       0       0       0       0
       0       0       0       0       0       0       0       0       0       0
       0       0       0       0       0       0       0       0       0       0
       0       0       0       0       0       0       0       0       0       0
       0       0       0       0       0       0       0       0       0       0
       0       0       0       0       0       0       0       0       0       0
       0       0       0       0       0       0       0       0       0       0
       0       0       0       0       0       0       0       0       0       0
       0       0       0       0       0       0       0       0       0       0
       0       0       0       0       0       0       0       0       0       0
       0       0       0       0       0       0       0       0       0       0
       0       0       0       0       0       0       0       0       0       0
       0       0       0       0       0       0       0       0       0       0
       0       0       0       0       0       0       0       0       0       0
       0       0       0       0       0       0       0       0       0       0
       0       0       0       0       0       0       0       0       0       0
       0       0       0       0       0       0       0       0       0       0
       0       0       0       0       0       0       0       0       0       0
       0       0       0       0       0       0       0       0       0       0
       0       0       0       0       0       0       0       0       0       0
       0       0       0       0       0       0       0       0       0       0
       0       0       0       0       0       0       0       0       0       0
       0       0       0       0       0       0       0       0       0       0
       0       0       0       0       0       0       0       0       0       0
       0       0       0       0       0       0       0       0       0       0
       0       0       0       0       0       0       0       0       0       0
       0       0       0       0       0       0       0       0       0       0
       0       0       0       0       0       0       0       0       0       0
       0       0       0       0       0       0       0       0       0       0
       0       0       0       0       0       0       0       0       0       0
       0       0       0       0       0       0       0       0       0       0
       0       0       0       0       0       0       0       0       0       0
       0       0       0       0       0       0       0       0       0       0
       0       0       0       0       0       0       0       0       0       0
       0       0       0       0       0       0       0       0       0       0
       0       0       0       0       0       0       0       0       0       0
       0       0       0       0       0       0       0       0       0       0
       0       0       0       0       0       0       0       0       0       0
       0       0       0       0       0       0       0       0       0       0
       0       0       0       0       0       0       0       0       0       0
       0       0       0       0       0       0       0       0       0       0
       0       0       0       0       0       0       0       0       0       0
       0       0       0       0       0       0       0       0       0       0
       0       0       0       0       0       0       0       0       0       0
       0       0       0       0       0       0       0       0       0       0
       0       0       0       0       0       0       0       0       0       0
       0       0       0       0       0       0       0       0       0       0
       0       0       0       0       0       0       0       0       0       0
       0       0       0       0       0       0       0       0       0       0
       0       0       0       0       0       0       0       0       0       0
       0       0       0       0       0       0       0       0       0       0
       0       0       0       0       0       0       0       0       0       0
       0       0       0       0       0       0       0       0       0       0
       0       0       0       0       0       0       0       0       0       0
       0       0       0       0       0       0       0       0       0       0
       0       0       0       0       0       0       0       0       0       0
       0       0       0       0       0       0       0       0       0       0
       0       0       0       0       0       0       0       0       0       0
       0       0       0       0       0       0       0       0       0       0
       0       0       0       0       0       0       0       0       0       0
       0       0       0       0       0       0       0       0       0       0
       0       0       0       0       0       0       0       0       0       0
       0       0       0       0       0       0       0       0       0       0
       0       0       0       0       0       0       0       0       0       0
       0       0       0       0       0       0       0       0       0       0
       0       0       0       0       0       0       0       0       0       0
       0       0       0       0       0       0       0       0       0       0
       0       0       0       0       0       0       0       0       0       0
       0       0       0       0       0       0       0       0       0       0
       0       0       0       0       0       0       0       0       0       0
       0       0       0       0       0       0       0       0       0       0
       0       0       0       0       0       0       0       0       0       0
       0       0       0       0       0       0       0       0       0       0
       0       0       0       0       0       0       0       0       0       0
       0       0       0       0       0       0       0       0       0       0
       0       0       0       0       0       0       0       0       0       0
       0       0       0       0       0       0       0       0       0       0
       0       0       0       0       0       0       0       0       0       0
       0       0       0       0       0       0       0       0       0       0
       0       0       0       0       0       0       0       0       0       0
       0       0       0       0       0       0       0       0       0       0
       0       0       0       0       0       0       0       0       0       0
       0       0       0       0       0       0       0       0       0       0
       0       0       0       0       0       0       0       0       0       0
       0       0       0       0       0       0       0       0       0       0
       0       0       0       0       0       0       0       0       0       0
       0       0       0       0       0       0       0       0       0       0
       0       0       0       0       0       0       0       0       0       0
       0       0       0       0       0       0       0       0       0       0
       0       0       0       0       0       0       0       0       0       0
       0       0       0       0       0       0       0       0       0       0
       0       0       0       0       0       0       0       0       0       0
       0       0       0       0       0       0       0       0       0       0
       0       0       0       0       0       0       0       0       0       0
       0       0       0       0       0       0       0       0       0       0
       0       0       0       0       0       0       0       0       0       0
       0       0       0       0       0       0       0       0       0       0
       0       0       0       0       0       0       0       0       0       0
       0       0       0       0       0       0       0       0       0       0
       0       0       0       0       0       0       0       0       0       0
       0       0       0       0       0       0       0       0       0       0
       0       0       0       0       0       0       0       0       0       0
       0       0       0       0       0       0       0       0       0       0
       0       0       0       0       0       0       0       0       0       0
       0       0       0       0       0       0       0       0       0       0
       0       0       0       0       0       0       0       0       0       0
       0       0       0       0       0       0       0       0       0       0
       0       0       0       0       0       0       0       0       0       0
       0       0       0       0       0       0       0       0       0       0
       0       0       0       0       0       0       0       0       0       0
       0       0       0       0       0       0       0       0       0       0
       0       0       0       0       0       0       0       0       0       0
       0       0       0       0       0       0       0       0       0       0
       0       0       0       0       0       0       0       0       0       0
       0       0       0       0       0       0       0       0       0       0
       0       0       0       0       0       0       0       0       0       0
       0       0       0       0       0       0       0       0       0       0
       0       0       0       0       0       0       0       0       0       0
       0       0       0       0       0       0       0       0       0       0
       0       0       0       0       0       0       0       0       0       0
       0       0       0       0       0       0       0       0       0       0
       0       0       0       0       0       0       0       0       0       0
       0       0       0       0       0       0       0       0       0       0
       0       0       0       0       0       0       0       0       0       0
       0       0       0       0       0       0       0       0       0       0
       0       0       0       0       0       0       0       0       0       0
       0       0       0       0       0       0       0       0       0       0
       0       0       0       0       0       0       0       0       0       0
       0       0       0       0       0       0       0       0       0       0
       0       0       0       0       0       0       0       0       0       0
       0       0       0       0       0       0       0       0       0       0
       0       0       0       0       0       0       0       0       0       0
       0       0       0       0       0       0       0       0       0       0
       0       0       0       0       0       0       0       0       0       0
       0       0       0       0       0       0       0       0       0       0
       0       0       0       0       0       0       0       0       0       0
       0       0       0       0       0       0       0       0       0       0
       0       0       0       0       0       0       0       0       0       0
       0       0       0       0       0       0       0       0       0       0
       0       0       0       0       0       0       0       0       0       0
       0       0       0       0       0       0       0       0       0       0
       0       0       0       0       0       0       0       0       0       0
       0       0       0       0       0       0       0       0       0       0
       0       0       0       0       0       0       0       0       0       0
       0       0       0       0       0       0       0       0       0       0
       0       0       0       0       0       0       0       0       0       0
       0       0       0       0       0       0       0       0       0       0
       0       0       0       0       0       0       0       0       0       0
       0       0       0       0       0       0       0       0       0       0
       0       0       0       0       0       0       0       0       0       0
       0       0       0       0       0       0       0       0       0       0
       0       0       0       0       0       0       0       0       0       0
       0       0       0       0       0       0       0       0       0       0
       0       0       0       0       0       0       0       0       0       0
       0       0       0       0       0       0       0       0       0       0
       0       0       0       0       0       0       0       0       0       0
       0       0       0       0       0       0       0       0       0       0
       0       0       0       0       0       0       0       0       0       0
       0       0       0       0       0       0       0       0       0       0
       0       0       0       0       0       0       0       0       0       0
       0       0       0       0       0       0       0       0       0       0
       0       0       0       0       0       0       0       0       0       0
       0       0       0       0       0       0       0       0       0       0
       0       0       0       0       0       0       0       0       0       0
       0       0       0       0       0       0       0       0       0       0
       0       0       0       0       0       0       0       0       0       0
       0       0       0       0       0       0       0       0       0       0
       0       0       0       0       0       0       0       0       0       0
       0       0       0       0       0       0       0       0       0       0
       0       0       0       0       0       0       0       0       0       0
       0       0       0       0       0       0       0       0       0       0
       0       0       0       0       0       0       0       0       0       0
       0       0       0       0       0       0       0       0       0       0
       0       0       0       0       0       0       0       0       0       0
       0       0       0       0       0       0       0       0       0       0
       0       0       0       0       0       0       0       0       0       0
       0       0       0       0       0       0       0       0       0       0
       0       0       0       0       0       0       0       0       0       0
       0       0       0       0       0       0       0       0       0       0
       0       0       0       0       0       0       0       0       0       0
       0       0       0       0       0       0       0       0       0       0
       0       0       0       0       0       0       0       0       0       0
       0       0       0       0       0       0       0       0       0       0
       0       0       0       0       0       0       0       0       0       0
       0       0       0       0       0       0       0       0       0       0
       0       0       0       0       0       0       0       0       0       0
       0       0       0       0       0       0       0       0       0       0
       0       0       0       0       0       0       0       0       0       0
       0       0       0       0       0       0       0       0       0       0
       0       0       0       0       0       0       0       0       0       0
       0       0       0       0       0       0       0       0       0       0
       0       0       0       0       0       0       0       0       0       0
       0       0       0       0       0       0       0       0       0       0
       0       0       0       0       0       0       0       0       0       0
       0       0       0       0       0       0       0       0       0       0
       0       0       0       0       0       0       0       0       0       0
       0       0       0       0       0       0       0       0       0       0
       0       0       0       0       0       0       0       0       0       0
       0       0       0       0       0       0       0       0       0       0
       0       0       0       0       0       0       0       0       0       0
       0       0       0       0       0       0       0       0       0       0
       0       0       0       0       0       0       0       0       0       0
       0       0       0       0       0       0       0       0       0       0
       0       0       0       0       0       0       0       0       0       0
       0       0       0       0       0       0       0       0       0       0
       0       0       0       0       0       0       0       0       0       0
       0       0       0       0       0       0       0       0       0       0
       0       0       0       0       0       0       0       0       0       0
       0       0       0       0       0       0       0       0       0       0
       0       0       0       0       0       0       0       0       0       0
       0       0       0       0       0       0       0       0       0       0
       0       0       0       0       0       0       0       0       0       0
       0       0       0       0       0       0       0       0       0       0
       0       0       0       0       0       0       0       0       0       0
       0       0       0       0       0       0       0       0       0       0
       0       0       0       0       0       0       0       0       0       0
       0       0       0       0       0       0       0       0       0       0
       0       0       0       0       0       0       0       0       0       0
       0       0       0       0       0       0       0       0       0       0
       0       0       0       0       0       0       0       0       0       0
       0       0       0       0       0       0       0       0       0       0
       0       0       0       0       0       0       0       0       0       0
       0       0       0       0       0       0       0       0       0       0
       0       0       0       0       0       0       0       0       0       0
       0       0       0       0       0       0       0       0       0       0
       0       0       0       0       0       0       0       0       0       0
       0       0       0       0       0       0       0       0       0       0
       0       0       0       0       0       0       0       0       0       0
       0       0       0       0       0       0       0       0       0       0
       0       0       0       0       0       0       0       0       0       0
       0       0       0       0       0       0       0       0       0       0
       0       0       0       0       0       0       0       0       0       0
       0       0       0       0       0       0       0       0       0       0
       0       0       0       0       0       0       0       0       0       0
       0       0       0       0       0       0       0       0       0       0
       0       0       0       0       0       0       0       0       0       0
       0       0       0       0       0       0       0       0       0       0
       0       0       0       0       0       0       0       0       0       0
       0       0       0       0       0       0       0       0       0       0
       0       0       0       0       0       0       0       0       0       0
       0       0       0       0       0       0       0       0       0       0
       0       0       0       0       0       0       0       0       0       0
       0       0       0       0       0       0       0       0       0       0
       0       0       0       0       0       0       0       0       0       0
       0       0       0       0       0       0       0       0       0       0
       0       0       0       0       0       0       0       0       0       0
       0       0       0       0       0       0       0       0       0       0
       0       0       0       0       0       0       0       0       0       0
       0       0       0       0       0       0       0       0       0       0
       0       0       0       0       0       0       0       0       0       0
       0       0       0       0       0       0       0       0       0       0
       0       0       0       0       0       0       0       0       0       0
       0       0       0       0       0       0       0       0       0       0
       0       0       0       0       0       0       0       0       0       0
       0       0       0       0       0       0       0       0       0       0
       0       0       0       0       0       0       0       0       0       0
       0       0       0       0       0       0       0       0       0       0
       0       0       0       0       0       0       0       0       0       0
       0       0       0       0       0       0       0       0       0       0
       0       0       0       0       0       0       0       0       0       0
       0       0       0       0       0       0       0       0       0       0
       0       0       0       0       0       0       0       0       0       0
       0       0       0       0       0       0       0       0       0       0
       0       0       0       0       0       0       0       0       0       0
       0       0       0       0       0       0       0       0       0       0
       0       0       0       0       0       0       0       0       0       0
       0       0       0       0       0       0       0       0       0       0
       0       0       0       0       0       0       0       0       0       0
       0       0       0       0       0       0       0       0       0       0
       0       0       0       0       0       0       0       0       0       0
       0       0       0       0       0       0       0       0       0       0
       0       0       0       0       0       0       0       0       0       0
       0       0       0       0       0       0       0       0       0       0
       0       0       0       0       0       0       0       0       0       0
       0       0       0       0       0       0       0       0       0       0
       0       0       0       0       0       0       0       0       0       0
       0       0       0       0       0       0       0       0       0       0
       0       0       0       0       0       0       0       0       0       0
       0       0       0       0       0       0       0       0       0       0
       0       0       0       0       0       0       0       0       0       0
       0       0       0       0       0       0       0       0       0       0
       0       0       0       0       0       0       0       0       0       0
       0       0       0       0       0       0       0       0       0       0
       0       0       0       0       0       0       0       0       0       0
       0       0       0       0       0       0       0       0       0       0
       0       0       0       0       0       0       0       0       0       0
       0       0       0       0       0       0       0       0       0       0
       0       0       0       0       0       0       0       0       0       0
       0       0       0       0       0       0       0       0       0       0
       0       0       0       0       0       0       0       0       0       0
       0       0       0       0       0       0       0       0       0       0
       0       0       0       0       0       0       0       0       0       0
       0       0       0       0       0       0       0       0       0       0
       0       0       0       0       0       0       0       0       0       0
       0       0       0       0       0       0       0       0       0       0
       0       0       0       0       0       0       0       0       0       0
       0       0       0       0       0       0       0       0       0       0
       0       0       0       0       0       0       0       0       0       0
       0       0       0       0       0       0       0       0       0       0
       0       0       0       0       0       0       0       0       0       0
       0       0       0       0       0       0       0       0       0       0
       0       0       0       0       0       0       0       0       0       0
       0       0       0       0       0       0       0       0       0       0
       0       0       0       0       0       0       0       0       0       0
       0       0       0       0       0       0       0       0       0       0
       0       0       0       0       0       0       0       0       0       0
       0       0       0       0       0       0       0       0       0       0
       0       0       0       0       0       0       0       0       0       0
       0       0       0       0       0       0       0       0       0       0
       0       0       0       0       0       0       0       0       0       0
       0       0       0       0       0       0       0       0       0       0
       0       0       0       0       0       0       0       0       0       0
       0       0       0       0       0       0       0       0       0       0
       0       0       0       0       0       0       0       0       0       0
       0       0       0       0       0       0       0       0       0       0
       0       0       0       0       0       0       0       0       0       0
       0       0       0       0       0       0       0       0       0       0
       0       0       0       0       0       0       0       0       0       0
       0       0       0       0       0       0       0       0       0       0
       0       0       0       0       0       0       0       0       0       0
       0       0       0       0       0       0       0       0       0       0
       0       0       0       0       0       0       0       0       0       0
       0       0       0       0       0       0       0       0       0       0
       0       0       0       0       0       0       0       0       0       0
       0       0       0       0       0       0       0       0       0       0
       0       0       0       0       0       0       0       0       0       0
       0       0       0       0       0       0       0       0       0       0
       0       0       0       0       0       0       0       0       0       0
       0       0       0       0       0       0       0       0       0       0
       0       0       0       0       0       0       0       0       0       0
       0       0       0       0       0       0       0       0       0       0
       0       0       0       0       0       0       0       0       0       0
       0       0       0       0       0       0       0       0       0       0
       0       0       0       0       0       0       0       0       0       0
       0       0       0       0       0       0       0       0       0       0
       0       0       0       0       0       0       0       0       0       0
       0       0       0       0       0       0       0       0       0       0
       0       0       0       0       0       0       0       0       0       0
       0       0       0       0       0       0       0       0       0       0
       0       0       0       0       0       0       0       0       0       0
       0       0       0       0       0       0       0       0       0       0
       0       0       0       0       0       0       0       0       0       0
       0       0       0       0       0       0       0       0       0       0
       0       0       0       0       0       0       0       0       0       0
       0       0       0       0       0       0       0       0       0       0
       0       0       0       0       0       0       0       0       0       0
       0       0       0       0       0       0       0       0       0       0
       0       0       0       0       0       0       0       0       0       0
       0       0       0       0       0       0       0       0       0       0
       0       0       0       0       0       0       0       0       0       0
       0       0       0       0       0       0       0       0       0       0
       0       0       0       0       0       0       0       0       0       0
       0       0       0       0       0       0       0       0       0       0
       0       0       0       0       0       0       0       0       0       0
       0       0       0       0       0       0       0       0       0       0
       0       0       0       0       0       0       0       0       0       0
       0       0       0       0       0       0       0       0       0       0
       0       0       0       0       0       0       0       0       0       0
       0       0       0       0       0       0       0       0       0       0
       0       0       0       0       0       0       0       0       0       0
       0       0       0       0       0       0       0       0       0       0
       0       0       0       0       0       0       0       0       0       0
       0       0       0       0       0       0       0       0       0       0
       0       0       0       0       0       0       0       0       0       0
       0       0       0       0       0       0       0       0       0       0
       0       0       0       0       0       0       0       0       0       0
       0       0       0       0       0       0       0       0       0       0
       0       0       0       0       0       0       0       0       0       0
       0       0       0       0       0       0       0       0       0       0
       0       0       0       0       0       0       0       0       0       0
       0       0       0       0       0       0       0       0       0       0
       0       0       0       0       0       0       0       0       0       0
       0       0       0       0       0       0       0       0       0       0
       0       0       0       0       0       0       0       0       0       0
       0       0       0       0       0       0       0       0       0       0
       0       0       0       0       0       0       0       0       0       0
       0       0       0       0       0       0       0       0       0       0
       0       0       0       0       0       0       0       0       0       0
       0       0       0       0       0       0       0       0       0       0
       0       0       0       0       0       0       0       0       0       0
       0       0       0       0       0       0       0       0       0       0
       0       0       0       0       0       0       0       0       0       0
       0       0       0       0       0       0       0       0       0       0
       0       0       0       0       0       0       0       0       0       0
       0       0       0       0       0       0       0       0       0       0
       0       0       0       0       0       0       0       0       0       0
       0       0       0       0       0       0       0       0       0       0
       0       0       0       0       0       0       0       0       0       0
       0       0       0       0       0       0       0       0       0       0
       0       0       0       0       0       0       0       0       0       0
       0       0       0       0       0       0       0       0       0       0
       0       0       0       0       0       0       0       0       0       0
       0       0       0       0       0       0       0       0       0       0
       0       0       0       0       0       0       0       0       0       0
       0       0       0       0       0       0       0       0       0       0
       0       0       0       0       0       0       0       0       0       0
       0       0       0       0       0       0       0       0       0       0
       0       0       0       0       0       0       0       0       0       0
       0       0       0       0       0       0       0       0       0       0
       0       0       0       0       0       0       0       0       0       0
       0       0       0       0       0       0       0       0       0       0
       0       0       0       0       0       0       0       0       0       0
       0       0       0       0       0       0       0       0       0       0
       0       0       0       0       0       0       0       0       0       0
       0       0       0       0       0       0       0       0       0       0
       0       0       0       0       0       0       0       0       0       0
       0       0       0       0       0       0       0       0       0       0
       0       0       0       0       0       0       0       0       0       0
       0       0       0       0       0       0       0       0       0       0
       0       0       0       0       0       0       0       0       0       0
       0       0       0       0       0       0       0       0       0       0
       0       0       0       0       0       0       0       0       0       0
       0       0       0       0       0       0       0       0       0       0
       0       0       0       0       0       0       0       0       0       0
       0       0       0       0       0       0       0       0       0       0
       0       0       0       0       0       0       0       0       0       0
       0       0       0       0       0       0       0       0       0       0
       0       0       0       0       0       0       0       0       0       0
       0       0       0       0       0       0       0       0       0       0
       0       0       0       0       0       0       0       0       0       0
       0       0       0       0       0       0       0       0       0       0
       0       0       0       0       0       0       0       0       0       0
       0       0       0       0       0       0       0       0       0       0
       0       0       0       0       0       0       0       0       0       0
       0       0       0       0       0       0       0       0       0       0
       0       0       0       0       0       0       0       0       0       0
       0       0       0       0       0       0       0       0       0       0
       0       0       0       0       0       0       0       0       0       0
       0       0       0       0       0       0       0       0       0       0
       0       0       0       0       0       0       0       0       0       0
       0       0       0       0       0       0       0       0       0       0
       0       0       0       0       0       0       0       0       0       0
       0       0       0       0       0       0       0       0       0       0
       0       0       0       0       0       0       0       0       0       0
       0       0       0       0       0       0       0       0       0       0
       0       0       0       0       0       0       0       0       0       0
       0       0       0       0       0       0       0       0       0       0
       0       0       0       0       0       0       0       0       0       0
       0       0       0       0       0       0       0       0       0       0
       0       0       0       0       0       0       0       0       0       0
       0       0       0       0       0       0       0       0       0       0
       0       0       0       0       0       0       0       0       0       0
       0       0       0       0       0       0       0       0       0       0
       0       0       0       0       0       0       0       0       0       0
       0       0       0       0       0       0       0       0       0       0
       0       0       0       0       0       0       0       0       0       0
       0       0       0       0       0       0       0       0       0       0
       0       0       0       0       0       0       0       0       0       0
       0       0       0       0       0       0       0       0       0       0
       0       0       0       0       0       0       0       0       0       0
       0       0       0       0       0       0       0       0       0       0
       0       0       0       0       0       0       0       0       0       0
       0       0       0       0       0       0       0       0       0       0
       0       0       0       0       0       0       0       0       0       0
       0       0       0       0       0       0       0       0       0       0
       0       0       0       0       0       0       0       0       0       0
       0       0       0       0       0       0       0       0       0       0
       0       0       0       0       0       0       0       0       0       0
       0       0       0       0       0       0       0       0       0       0
       0       0       0       0       0       0       0       0       0       0
       0       0       0       0       0       0       0       0       0       0
       0       0       0       0       0       0       0       0       0       0
       0       0       0       0       0       0       0       0       0       0
       0       0       0       0       0       0       0       0       0       0
       0       0       0       0       0       0       0       0       0       0
       0       0       0       0       0       0       0       0       0       0
       0       0       0       0       0       0       0       0       0       0
       0       0       0       0       0       0       0       0       0       0
       0       0       0       0       0       0       0       0       0       0
       0       0       0       0       0       0       0       0       0       0
       0       0       0       0       0       0       0       0       0       0
       0       0       0       0       0       0       0       0       0       0
       0       0       0       0       0       0       0       0       0       0
       0       0       0       0       0       0       0       0       0       0
       0       0       0       0       0       0       0       0       0       0
       0       0       0       0       0       0       0       0       0       0
       0       0       0       0       0       0       0       0       0       0
       0       0       0       0       0       0       0       0       0       0
       0       0       0       0       0       0       0       0       0       0
       0       0       0       0       0       0       0       0       0       0
       0       0       0       0       0       0       0       0       0       0
       0       0       0       0       0       0       0       0       0       0
       0       0       0       0       0       0       0       0       0       0
       0       0       0       0       0       0       0       0       0       0
       0       0       0       0       0       0       0       0       0       0
       0       0       0       0       0       0       0       0       0       0
       0       0       0       0       0       0       0       0       0       0
       0       0       0       0       0       0       0       0       0       0
       0       0       0       0       0       0       0       0       0       0
       0       0       0       0       0       0       0       0       0       0
       0       0       0       0       0       0       0       0       0       0
       0       0       0       0       0       0       0       0       0       0
       0       0       0       0       0       0       0       0       0       0
       0       0       0       0       0       0       0       0       0       0
       0       0       0       0       0       0       0       0       0       0
       0       0       0       0       0       0       0       0       0       0
       0       0       0       0       0       0       0       0       0       0
       0       0       0       0       0       0       0       0       0       0
       0       0       0       0       0       0       0       0       0       0
       0       0       0       0       0       0       0       0       0       0
       0       0       0       0       0       0       0       0       0       0
       0       0       0       0       0       0       0       0       0       0
       0       0       0       0       0       0       0       0       0       0
       0       0       0       0       0       0       0       0       0       0
       0       0       0       0       0       0       0       0       0       0
       0       0       0       0       0       0       0       0       0       0
       0       0       0       0       0       0       0       0       0       0
       0       0       0       0       0       0       0       0       0       0
       0       0       0       0       0       0       0       0       0       0
       0       0       0       0       0       0       0       0       0       0
       0       0       0       0       0       0       0       0       0       0
       0       0       0       0       0       0       0       0       0       0
       0       0       0       0       0       0       0       0       0       0
       0       0       0       0       0       0       0       0       0       0
       0       0       0       0       0       0       0       0       0       0
       0       0       0       0       0       0       0       0       0       0
       0       0       0       0       0       0       0       0       0       0
       0       0       0       0       0       0       0       0       0       0
       0       0       0       0       0       0       0       0       0       0
       0       0       0       0       0       0       0       0       0       0
       0       0       0       0       0       0       0       0       0       0
       0       0       0       0       0       0       0       0       0       0
       0       0       0       0       0       0       0       0       0       0
       0       0       0       0       0       0       0       0       0       0
       0       0       0       0       0       0       0       0       0       0
       0       0       0       0       0       0       0       0       0       0
       0       0       0       0       0       0       0       0       0       0
       0       0       0       0       0       0       0       0       0       0
       0       0       0       0       0       0       0       0       0       0
       0       0       0       0       0       0       0       0       0       0
       0       0       0       0       0       0       0       0       0       0
       0       0       0       0       0       0       0       0       0       0
       0       0       0       0       0       0       0       0       0       0
       0       0       0       0       0       0       0       0       0       0
       0       0       0       0       0       0       0       0       0       0
       0       0       0       0       0       0       0       0       0       0
       0       0       0       0       0       0       0       0       0       0
       0       0       0       0       0       0       0       0       0       0
       0       0       0       0       0       0       0       0       0       0
       0       0       0       0       0       0       0       0       0       0
       0       0       0       0       0       0       0       0       0       0
       0       0       0       0       0       0       0       0       0       0
       0       0       0       0       0       0       0       0       0       0
       0       0       0       0       0       0       0       0       0       0
       0       0       0       0       0       0       0       0       0       0
       0       0       0       0       0       0       0       0       0       0
       0       0       0       0       0       0       0       0       0       0
       0       0       0       0       0       0       0       0       0       0
       0       0       0       0       0       0       0       0       0       0
       0       0       0       0       0       0       0       0       0       0
       0       0       0       0       0       0       0       0       0       0
       0       0       0       0       0       0       0       0       0       0
       0       0       0       0       0       0       0       0       0       0
       0       0       0       0       0       0       0       0       0       0
       0       0       0       0       0       0       0       0       0       0
       0       0       0       0       0       0       0       0       0       0
       0       0       0       0       0       0       0       0       0       0
       0       0       0       0       0       0       0       0       0       0
       0       0       0       0       0       0       0       0       0       0
       0       0       0       0       0       0       0       0       0       0
       0       0       0       0       0       0       0       0       0       0
       0       0       0       0       0       0       0       0       0       0
       0       0       0       0       0       0       0       0       0       0
       0       0       0       0       0       0       0       0       0       0
       0       0       0       0       0       0       0       0       0       0
       0       0       0       0       0       0       0       0       0       0
       0       0       0       0       0       0       0       0       0       0
       0       0       0       0       0       0       0       0       0       0
       0       0       0       0       0       0       0       0       0       0
       0       0       0       0       0       0       0       0       0       0
       0       0       0       0       0       0       0       0       0       0
       0       0       0       0       0       0       0       0       0       0
       0       0       0       0       0       0       0       0       0       0
       0       0       0       0       0       0       0       0       0       0
       0       0       0       0       0       0       0       0       0       0
       0       0       0       0       0       0       0       0       0       0
       0       0       0       0       0       0       0       0       0       0
       0       0       0       0       0       0       0       0       0       0
       0       0       0       0       0       0       0       0       0       0
       0       0       0       0       0       0       0       0       0       0
       0       0       0       0       0       0       0       0       0       0
       0       0       0       0       0       0       0       0       0       0
       0       0       0       0       0       0       0       0       0       0
       0       0       0       0       0       0       0       0       0       0
       0       0       0       0       0       0       0       0       0       0
       0       0       0       0       0       0       0       0       0       0
       0       0       0       0       0       0       0       0       0       0
       0       0       0       0       0       0       0       0       0       0
       0       0       0       0       0       0       0       0       0       0
       0       0       0       0       0       0       0       0       0       0
       0       0       0       0       0       0       0       0       0       0
       0       0       0       0       0       0       0       0       0       0
       0       0       0       0       0       0       0       0       0       0
       0       0       0       0       0       0       0       0       0       0
       0       0       0       0       0       0       0       0       0       0
       0       0       0       0       0       0       0       0       0       0
       0       0       0       0       0       0       0       0       0       0
       0       0       0       0       0       0       0       0       0       0
       0       0       0       0       0       0       0       0       0       0
       0       0       0       0       0       0       0       0       0       0
       0       0       0       0       0       0       0       0       0       0
       0       0       0       0       0       0       0       0       0       0
       0       0       0       0       0       0       0       0       0       0
       0       0       0       0       0       0       0       0       0       0
       0       0       0       0       0       0       0       0       0       0
       0       0       0       0       0       0       0       0       0       0
       0       0       0       0       0       0       0       0       0       0
       0       0       0       0       0       0       0       0       0       0
       0       0       0       0       0       0       0       0       0       0
       0       0       0       0       0       0       0       0       0       0
       0       0       0       0       0       0       0       0       0       0
       0       0       0       0       0       0       0       0       0       0
       0       0       0       0       0       0       0       0       0       0
       0       0       0       0       0       0       0       0       0       0
       0       0       0       0       0       0       0       0       0       0
       0       0       0       0       0       0       0       0       0       0
       0       0       0       0       0       0       0       0       0       0
       0       0       0       0       0       0       0       0       0       0
       0       0       0       0       0       0       0       0       0       0
       0       0       0       0       0       0       0       0       0       0
       0       0       0       0       0       0       0       0       0       0
       0       0       0       0       0       0       0       0       0       0
       0       0       0       0       0       0       0       0       0       0
       0       0       0       0       0       0       0       0       0       0
       0       0       0       0       0       0       0       0       0       0
       0       0       0       0       0       0       0       0       0       0
       0       0       0       0       0       0       0       0       0       0
       0       0       0       0       0       0       0       0       0       0
       0       0       0       0       0       0       0       0       0       0
       0       0       0       0       0       0       0       0       0       0
       0       0       0       0       0       0       0       0       0       0
       0       0       0       0       0       0       0       0       0       0
       0       0       0       0       0       0       0       0       0       0
       0       0       0       0       0       0       0       0       0       0
       0       0       0       0       0       0       0       0       0       0
       0       0       0       0       0       0       0       0       0       0
       0       0       0       0       0       0       0       0       0       0
       0       0       0       0       0       0       0       0       0       0
       0       0       0       0       0       0       0       0       0       0
       0       0       0       0       0       0       0       0       0       0
       0       0       0       0       0       0       0       0       0       0
       0       0       0       0       0       0       0       0       0       0
       0       0       0       0       0       0       0       0       0       0
       0       0       0       0       0       0       0       0       0       0
       0       0       0       0       0       0       0       0       0       0
       0       0       0       0       0       0       0       0       0       0
       0       0       0       0       0       0       0       0       0       0
       0       0       0       0       0       0       0       0       0       0
       0       0       0       0       0       0       0       0       0       0
       0       0       0       0       0       0       0       0       0       0
       0       0       0       0       0       0       0       0       0       0
       0       0       0       0       0       0       0       0       0       0
       0       0       0       0       0       0       0       0       0       0
       0       0       0       0       0       0       0       0       0       0
       0       0       0       0       0       0       0       0       0       0
       0       0       0       0       0       0       0       0       0       0
       0       0       0       0       0       0       0       0       0       0
       0       0       0       0       0       0       0       0       0       0
       0       0       0       0       0       0       0       0       0       0
       0       0       0       0       0       0       0       0       0       0
       0       0       0       0       0       0       0       0       0       0
       0       0       0       0       0       0       0       0       0       0
       0       0       0       0       0       0       0       0       0       0
       0       0       0       0       0       0       0       0       0       0
       0       0       0       0       0       0       0       0       0       0
       0       0       0       0       0       0       0       0       0       0
       0       0       0       0       0       0       0       0       0       0
       0       0       0       0       0       0       0       0       0       0
       0       0       0       0       0       0       0       0       0       0
       0       0       0       0       0       0       0       0       0       0
       0       0       0       0       0       0       0       0       0       0
       0       0       0       0       0       0       0       0       0       0
       0       0       0       0       0       0       0       0       0       0
       0       0       0       0       0       0       0       0       0       0
       0       0       0       0       0       0       0       0       0       0
       0       0       0       0       0       0       0       0       0       0
       0       0       0       0       0       0       0       0       0       0
       0       0       0       0       0       0       0       0       0       0
       0       0       0       0       0       0       0       0       0       0
       0       0       0       0       0       0       0       0       0       0
       0       0       0       0       0       0       0       0       0       0
       0       0       0       0       0       0       0       0       0       0
       0       0       0       0       0       0       0       0       0       0
       0       0       0       0       0       0       0       0       0       0
       0       0       0       0       0       0       0       0       0       0
       0       0       0       0       0       0       0       0       0       0
       0       0       0       0       0       0       0       0       0       0
       0       0       0       0       0       0       0       0       0       0
       0       0       0       0       0       0       0       0       0       0
       0       0       0       0       0       0       0       0       0       0
       0       0       0       0       0       0       0       0       0       0
       0       0       0       0       0       0       0       0       0       0
       0       0       0       0       0       0       0       0       0       0
       0       0       0       0       0       0       0       0       0       0
       0       0       0       0       0       0       0       0       0       0
       0       0       0       0       0       0       0       0       0       0
       0       0       0       0       0       0       0       0       0       0
       0       0       0       0       0       0       0       0       0       0
       0       0       0       0       0       0       0       0       0       0
       0       0       0       0       0       0       0       0       0       0
       0       0       0       0       0       0       0       0       0       0
       0       0       0       0       0       0       0       0       0       0
       0       0       0       0       0       0       0       0       0       0
       0       0       0       0       0       0       0       0       0       0
       0       0       0       0       0       0       0       0       0       0
       0       0       0       0       0       0       0       0       0       0
       0       0       0       0       0       0       0       0       0       0
       0       0       0       0       0       0       0       0       0       0
       0       0       0       0       0       0       0       0       0       0
       0       0       0       0       0       0       0       0       0       0
       0       0       0       0       0       0       0       0       0       0
       0       0       0       0       0       0       0       0       0       0
       0       0       0       0       0       0       0       0       0       0
       0       0       0       0       0       0       0       0       0       0
       0       0       0       0       0       0       0       0       0       0
       0       0       0       0       0       0       0       0       0       0
       0       0       0       0       0       0       0       0       0       0
       0       0       0       0       0       0       0       0       0       0
       0       0       0       0       0       0       0       0       0       0
       0       0       0       0       0       0       0       0       0       0
       0       0       0       0       0       0       0       0       0       0
       0       0       0       0       0       0       0       0       0       0
       0       0       0       0       0       0       0       0       0       0
       0       0       0       0       0       0       0       0       0       0
       0       0       0       0       0       0       0       0       0       0
       0       0       0       0       0       0       0       0       0       0
       0       0       0       0       0       0       0       0       0       0
       0       0       0       0       0       0       0       0       0       0
       0       0       0       0       0       0       0       0       0       0
       0       0       0       0       0       0       0       0       0       0
       0       0       0       0       0       0       0       0       0       0
       0       0       0       0       0       0       0       0       0       0
       0       0       0       0       0       0       0       0       0       0
       0       0       0       0       0       0       0       0       0       0
       0       0       0       0       0       0       0       0       0       0
       0       0       0       0       0       0       0       0       0       0
       0       0       0       0       0       0       0       0       0       0
       0       0       0       0       0       0       0       0       0       0
       0       0       0       0       0       0       0       0       0       0
       0       0       0       0       0       0       0       0       0       0
       0       0       0       0       0       0       0       0       0       0
       0       0       0       0       0       0       0       0       0       0
       0       0       0       0       0       0       0       0       0       0
       0       0       0       0       0       0       0       0       0       0
       0       0       0       0       0       0       0       0       0       0
       0       0       0       0       0       0       0       0       0       0
       0       0       0       0       0       0       0       0       0       0
       0       0       0       0       0       0       0       0       0       0
       0       0       0       0       0       0       0       0       0       0
       0       0       0       0       0       0       0       0       0       0
       0       0       0       0       0       0       0       0       0       0
       0       0       0       0       0       0       0       0       0       0
       0       0       0       0       0       0       0       0       0       0
       0       0       0       0       0       0       0       0       0       0
       0       0       0       0       0       0       0       0       0       0
       0       0       0       0       0       0       0       0       0       0
       0       0       0       0       0       0       0       0       0       0
       0       0       0       0       0       0       0       0       0       0
       0       0       0       0       0       0       0       0       0       0
       0       0       0       0       0       0       0       0       0       0
       0       0       0       0       0       0       0       0       0       0
       0       0       0       0       0       0       0       0       0       0
       0       0       0       0       0       0       0       0       0       0
       0       0       0       0       0       0       0       0       0       0
       0       0       0       0       0       0       0       0       0       0
       0       0       0       0       0       0       0       0       0       0
       0       0       0       0       0       0       0       0       0       0
       0       0       0       0       0       0       0       0       0       0
       0       0       0       0       0       0       0       0       0       0
       0       0       0       0       0       0       0       0       0       0
       0       0       0       0       0       0       0       0       0       0
       0       0       0       0       0       0       0       0       0       0
       0       0       0       0       0       0       0       0       0       0
       0       0       0       0       0       0       0       0       0       0
       0       0       0       0       0       0       0       0       0       0
       0       0       0       0       0       0       0       0       0       0
       0       0       0       0       0       0       0       0       0       0
       0       0       0       0       0       0       0       0       0       0
       0       0       0       0       0       0       0       0       0       0
       0       0       0       0       0       0       0       0       0       0
       0       0       0       0       0       0       0       0       0       0
       0       0       0       0       0       0       0       0       0       0
       0       0       0       0       0       0       0       0       0       0
       0       0       0       0       0       0       0       0       0       0
       0       0       0       0       0       0       0       0       0       0
       0       0       0       0       0       0       0       0       0       0
       0       0       0       0       0       0       0       0       0       0
       0       0       0       0       0       0       0       0       0       0
       0       0       0       0       0       0       0       0       0       0
       0       0       0       0       0       0       0       0       0       0
       0       0       0       0       0       0       0       0       0       0
       0       0       0       0       0       0       0       0       0       0
       0       0       0       0       0       0       0       0       0       0
       0       0       0       0       0       0       0       0       0       0
       0       0       0       0       0       0       0       0       0       0
       0       0       0       0       0       0       0       0       0       0
       0       0       0       0       0       0       0       0       0       0
       0       0       0       0       0       0       0       0       0       0
       0       0       0       0       0       0       0       0       0       0
       0       0       0       0       0       0       0       0       0       0
       0       0       0       0       0       0       0       0       0       0
       0       0       0       0       0       0       0       0       0       0
       0       0       0       0       0       0       0       0       0       0
       0       0       0       0       0       0       0       0       0       0
       0       0       0       0       0       0       0       0       0       0
       0       0       0       0       0       0       0       0       0       0
       0       0       0       0       0       0       0       0       0       0
       0       0       0       0       0       0       0       0       0       0
       0       0       0       0       0       0       0       0       0       0
       0       0       0       0       0       0       0       0       0       0
       0       0       0       0       0       0       0       0       0       0
       0       0       0       0       0       0       0       0       0       0
       0       0       0       0       0       0       0       0       0       0
       0       0       0       0       0       0       0       0       0       0
       0       0       0       0       0       0       0       0       0       0
       0       0       0       0       0       0       0       0       0       0
       0       0       0       0       0       0       0       0       0       0
       0       0       0       0       0       0       0       0       0       0
       0       0       0       0       0       0       0       0       0       0
       0       0       0       0       0       0       0       0       0       0
       0       0       0       0       0       0       0       0       0       0
       0       0       0       0       0       0       0       0       0       0
       0       0       0       0       0       0       0       0       0       0
       0       0       0       0       0       0       0       0       0       0
       0       0       0       0       0       0       0       0       0       0
       0       0       0       0       0       0       0       0       0       0
       0       0       0       0       0       0       0       0       0       0
       0       0       0       0       0       0       0       0       0       0
       0       0       0       0       0       0       0       0       0       0
       0       0       0       0       0       0       0       0       0       0
       0       0       0       0       0       0       0       0       0       0
       0       0       0       0       0       0       0       0       0       0
       0       0       0       0       0       0       0       0       0       0
       0       0       0       0       0       0       0       0       0       0
       0       0       0       0       0       0       0       0       0       0
       0       0       0       0       0       0       0       0       0       0
       0       0       0       0       0       0       0       0       0       0
       0       0       0       0       0       0       0       0       0       0
       0       0       0       0       0       0       0       0       0       0
       0       0       0       0       0       0       0       0       0       0
       0       0       0       0       0       0       0       0       0       0
       0       0       0       0       0       0       0       0       0       0
       0       0       0       0       0       0       0       0       0       0
       0       0       0       0       0       0       0       0       0       0
       0       0       0       0       0       0       0       0       0       0
       0       0       0       0       0       0       0       0       0       0
       0       0       0       0       0       0       0       0       0       0
       0       0       0       0       0       0       0       0       0       0
       0       0       0       0       0       0       0       0       0       0
       0       0       0       0       0       0       0       0       0       0
       0       0       0       0       0       0       0       0       0       0
       0       0       0       0       0       0       0       0       0       0
       0       0       0       0       0       0       0       0       0       0
       0       0       0       0       0       0       0       0       0       0
       0       0       0       0       0       0       0       0       0       0
       0       0       0       0       0       0       0       0       0       0
       0       0       0       0       0       0       0       0       0       0
       0       0       0       0       0       0       0       0       0       0
       0       0       0       0       0       0       0       0       0       0
       0       0       0       0       0       0       0       0       0       0
       0       0       0       0       0       0       0       0       0       0
       0       0       0       0       0       0       0       0       0       0
       0       0       0       0       0       0       0       0       0       0
       0       0       0       0       0       0       0       0       0       0
       0       0       0       0       0       0       0       0       0       0
       0       0       0       0       0       0       0       0       0       0
       0       0       0       0       0       0       0       0       0       0
       0       0       0       0       0       0       0       0       0       0
       0       0       0       0       0       0       0       0       0       0
       0       0       0       0       0       0       0       0       0       0
       0       0       0       0       0       0       0       0       0       0
       0       0       0       0       0       0       0       0       0       0
       0       0       0       0       0       0       0       0       0       0
       0       0       0       0       0       0       0       0       0       0
       0       0       0       0       0       0       0       0       0       0
       0       0       0       0       0       0       0       0       0       0
       0       0       0       0       0       0       0       0       0       0
       0       0       0       0       0       0       0       0       0       0
       0       0       0       0       0       0       0       0       0       0
       0       0       0       0       0       0       0       0       0       0
       0       0       0       0       0       0       0       0       0       0
       0       0       0       0       0       0       0       0       0       0
       0       0       0       0       0       0       0       0       0       0
       0       0       0       0       0       0       0       0       0       0
       0       0       0       0       0       0       0       0       0       0
       0       0       0       0       0       0       0       0       0       0
       0       0       0       0       0       0       0       0       0       0
       0       0       0       0       0       0       0       0       0       0
       0       0       0       0       0       0       0       0       0       0
       0       0       0       0       0       0       0       0       0       0
       0       0       0       0       0       0       0       0       0       0
       0       0       0       0       0       0       0       0       0       0
       0       0       0       0       0       0       0       0       0       0
       0       0       0       0       0       0       0       0       0       0
       0       0       0       0       0       0       0       0       0       0
       0       0       0       0       0       0       0       0       0       0
       0       0       0       0       0       0       0       0       0       0
       0       0       0       0       0       0       0       0       0       0
       0       0       0       0       0       0       0       0       0       0
       0       0       0       0       0       0       0       0       0       0
       0       0       0       0       0       0       0       0       0       0
       0       0       0       0       0       0       0       0       0       0
       0       0       0       0       0       0       0       0       0       0
       0       0       0       0       0       0       0       0       0       0
       0       0       0       0       0       0       0       0       0       0
       0       0       0       0       0       0       0       0       0       0
       0       0       0       0       0       0       0       0       0       0
       0       0       0       0       0       0       0       0       0       0
       0       0       0       0       0       0       0       0       0       0
       0       0       0       0       0       0       0       0       0       0
       0       0       0       0       0       0       0       0       0       0
       0       0       0       0       0       0       0       0       0       0
       0       0       0       0       0       0       0       0       0       0
       0       0       0       0       0       0       0       0       0       0
       0       0       0       0       0       0       0       0       0       0
       0       0       0       0       0       0       0       0       0       0
       0       0       0       0       0       0       0       0       0       0
       0       0       0       0       0       0       0       0       0       0
       0       0       0       0       0       0       0       0       0       0
       0       0       0       0       0       0       0       0       0       0
       0       0       0       0       0       0       0       0       0       0
       0       0       0       0       0       0       0       0       0       0
       0       0       0       0       0       0       0       0       0       0
       0       0       0       0       0       0       0       0       0       0
       0       0       0       0       0       0       0       0       0       0
       0       0       0       0       0       0       0       0       0       0
       0       0       0       0       0       0       0       0       0       0
       0       0       0       0       0       0       0       0       0       0
       0       0       0       0       0       0       0       0       0       0
       0       0       0       0       0       0       0       0       0       0
       0       0       0       0       0       0       0       0       0       0
       0       0       0       0       0       0       0       0       0       0
       0       0       0       0       0       0       0       0       0       0
       0       0       0       0       0       0       0       0       0       0
       0       0       0       0       0       0       0       0       0       0
       0       0       0       0       0       0       0       0       0       0
       0       0       0       0       0       0       0       0       0       0
       0       0       0       0       0       0       0       0       0       0
       0       0       0       0       0       0       0       0       0       0
       0       0       0       0       0       0       0       0       0       0
       0       0       0       0       0       0       0       0       0       0
       0       0       0       0       0       0       0       0       0       0
       0       0       0       0       0       0       0       0       0       0
       0       0       0       0       0       0       0       0       0       0
       0       0       0       0       0       0       0       0       0       0
       0       0       0       0       0       0       0       0       0       0
       0       0       0       0       0       0       0       0       0       0
       0       0       0       0       0       0       0       0       0       0
       0       0       0       0       0       0       0       0       0       0
       0       0       0       0       0       0       0       0       0       0
       0       0       0       0       0       0       0       0       0       0
       0       0       0       0       0       0       0       0       0       0
       0       0       0       0       0       0       0       0       0       0
       0       0       0       0       0       0       0       0       0       0
       0       0       0       0       0       0       0       0       0       0
       0       0       0       0       0       0       0       0       0       0
       0       0       0       0       0       0       0       0       0       0
       0       0       0       0       0       0       0       0       0       0
       0       0       0       0       0       0       0       0       0       0
       0       0       0       0       0       0       0       0       0       0
       0       0       0       0       0       0       0       0       0       0
       0       0       0       0       0       0       0       0       0       0
       0       0       0       0       0       0       0       0       0       0
       0       0       0       0       0       0       0       0       0       0
       0       0       0       0       0       0       0       0       0       0
       0       0       0       0       0       0       0       0       0       0
       0       0       0       0       0       0       0       0       0       0
       0       0       0       0       0       0       0       0       0       0
       0       0       0       0       0       0       0       0       0       0
       0       0       0       0       0       0       0       0       0       0
       0       0       0       0       0       0       0       0       0       0
       0       0       0       0       0       0       0       0       0       0
       0       0       0       0       0       0       0       0       0       0
       0       0       0       0       0       0       0       0       0       0
       0       0       0       0       0       0       0       0       0       0
       0       0       0       0       0       0       0       0       0       0
       0       0       0       0       0       0       0       0       0       0
       0       0       0       0       0       0       0       0       0       0
       0       0       0       0       0       0       0       0       0       0
       0       0       0       0       0       0       0       0       0       0
       0       0       0       0       0       0       0       0       0       0
       0       0       0       0       0       0       0       0       0       0
       0       0       0       0       0       0       0       0       0       0
       0       0       0       0       0       0       0       0       0       0
       0       0       0       0       0       0       0       0       0       0
       0       0       0       0       0       0       0       0       0       0
       0       0       0       0       0       0       0       0       0       0
       0       0       0       0       0       0       0       0       0       0
       0       0       0       0       0       0       0       0       0       0
       0       0       0       0       0       0       0       0       0       0
       0       0       0       0       0       0       0       0       0       0
       0       0       0       0       0       0       0       0       0       0
       0       0       0       0       0       0       0       0       0       0
       0       0       0       0       0       0       0       0       0       0
       0       0       0       0       0       0       0       0       0       0
       0       0       0       0       0       0       0       0       0       0
       0       0       0       0       0       0       0       0       0       0
       0       0       0       0       0       0       0       0       0       0
       0       0       0       0       0       0       0       0       0       0
       0       0       0       0       0       0       0       0       0       0
       0       0       0       0       0       0       0       0       0       0
       0       0       0       0       0       0       0       0       0       0
       0       0       0       0       0       0       0       0       0       0
       0       0       0       0       0       0       0       0       0       0
       0       0       0       0       0       0       0       0       0       0
       0       0       0       0       0       0       0       0       0       0
       0       0       0       0       0       0       0       0       0       0
       0       0       0       0       0       0       0       0       0       0
       0       0       0       0       0       0       0       0       0       0
       0       0       0       0       0       0       0       0       0       0
       0       0       0       0       0       0       0       0       0       0
       0       0       0       0       0       0       0       0       0       0
       0       0       0       0       0       0       0       0       0       0
       0       0       0       0       0       0       0       0       0       0
       0       0       0       0       0       0       0       0       0       0
       0       0       0       0       0       0       0       0       0       0
       0       0       0       0       0       0       0       0       0       0
       0       0       0       0       0       0       0       0       0       0
       0       0       0       0       0       0       0       0       0       0
       0       0       0       0       0       0       0       0       0       0
       0       0       0       0       0       0       0       0       0       0
       0       0       0       0       0       0       0       0       0       0
       0       0       0       0       0       0       0       0       0       0
       0       0       0       0       0       0       0       0       0       0
       0       0       0       0       0       0       0       0       0       0
       0       0       0       0       0       0       0       0       0       0
       0       0       0       0       0       0       0       0       0       0
       0       0       0       0       0       0       0       0       0       0
       0       0       0       0       0       0       0       0       0       0
       0       0       0       0       0       0       0       0       0       0
       0       0       0       0       0       0       0       0       0       0
       0       0       0       0       0       0       0       0       0       0
       0       0       0       0       0       0       0       0       0       0
       0       0       0       0       0       0       0       0       0       0
       0       0       0       0       0       0       0       0       0       0
       0       0       0       0       0       0       0       0       0       0
       0       0       0       0       0       0       0       0       0       0
       0       0       0       0       0       0       0       0       0       0
       0       0       0       0       0       0       0       0       0       0
       0       0       0       0       0       0       0       0       0       0
       0       0       0       0       0       0       0       0       0       0
       0       0       0       0       0       0       0       0       0       0
       0       0       0       0       0       0       0       0       0       0
       0       0       0       0       0       0       0       0       0       0
       0       0       0       0       0       0       0       0       0       0
       0       0       0       0       0       0       0       0       0       0
       0       0       0       0       0       0       0       0       0       0
       0       0       0       0       0       0       0       0       0       0
       0       0       0       0       0       0       0       0       0       0
       0       0       0       0       0       0       0       0       0       0
       0       0       0       0       0       0       0       0       0       0
       0       0       0       0       0       0       0       0       0       0
       0       0       0       0       0       0       0       0       0       0
       0       0       0       0       0       0       0       0       0       0
       0       0       0       0       0       0       0       0       0       0
       0       0       0       0       0       0       0       0       0       0
       0       0       0       0       0       0       0       0       0       0
       0       0       0       0       0       0       0       0       0       0
       0       0       0       0       0       0       0       0       0       0
       0       0       0       0       0       0       0       0       0       0
       0       0       0       0       0       0       0       0       0       0
       0       0       0       0       0       0       0       0       0       0
       0       0       0       0       0       0       0       0       0       0
       0       0       0       0       0       0       0       0       0       0
       0       0       0       0       0       0       0       0       0       0
       0       0       0       0       0       0       0       0       0       0
       0       0       0       0       0       0       0       0       0       0
       0       0       0       0       0       0       0       0       0       0
       0       0       0       0       0       0       0       0       0       0
       0       0       0       0       0       0       0       0       0       0
       0       0       0       0       0       0       0       0       0       0
       0       0       0       0       0       0       0       0       0       0
       0       0       0       0       0       0       0       0       0       0
       0       0       0       0       0       0       0       0       0       0
       0       0       0       0       0       0       0       0       0       0
       0       0       0       0       0       0       0       0       0       0
       0       0       0       0       0       0       0       0       0       0
       0       0       0       0       0       0       0       0       0       0
       0       0       0       0       0       0       0       0       0       0
       0       0       0       0       0       0       0       0       0       0
       0       0       0       0       0       0       0       0       0       0
       0       0       0       0       0       0       0       0       0       0
       0       0       0       0       0       0       0       0       0       0
       0       0       0       0       0       0       0       0       0       0
       0       0       0       0       0       0       0       0       0       0
       0       0       0       0       0       0       0       0       0       0
       0       0       0       0       0       0       0       0       0       0
       0       0       0       0       0       0       0       0       0       0
       0       0       0       0       0       0       0       0       0       0
       0       0       0       0       0       0       0       0       0       0
       0       0       0       0       0       0       0       0       0       0
       0       0       0       0       0       0       0       0       0       0
       0       0       0       0       0       0       0       0       0       0
       0       0       0       0       0       0       0       0       0       0
       0       0       0       0       0       0       0       0       0       0
       0       0       0       0       0       0       0       0       0       0
       0       0       0       0       0       0       0       0       0       0
       0       0       0       0       0       0       0       0       0       0
       0       0       0       0       0       0       0       0       0       0
       0       0       0       0       0       0       0       0       0       0
       0       0       0       0       0       0       0       0       0       0
       0       0       0       0       0       0       0       0       0       0
       0       0       0       0       0       0       0       0       0       0
       0       0       0       0       0       0       0       0       0       0
       0       0       0       0       0       0       0       0       0       0
       0       0       0       0       0       0       0       0       0       0
       0       0       0       0       0       0       0       0       0       0
       0       0       0       0       0       0       0       0       0       0
       0       0       0       0       0       0       0       0       0       0
       0       0       0       0       0       0       0       0       0       0
       0       0       0       0       0       0       0       0       0       0
       0       0       0       0       0       0       0       0       0       0
       0       0       0       0       0       0       0       0       0       0
       0       0       0       0       0       0       0       0       0       0
       0       0       0       0       0       0       0       0       0       0
       0       0       0       0       0       0       0       0       0       0
       0       0       0       0       0       0       0       0       0       0
       0       0       0       0       0       0       0       0       0       0
       0       0       0       0       0       0       0       0       0       0
       0       0       0       0       0       0       0       0       0       0
       0       0       0       0       0       0       0       0       0       0
       0       0       0       0       0       0       0       0       0       0
       0       0       0       0       0       0       0       0       0       0
       0       0       0       0       0       0       0       0       0       0
       0       0       0       0       0       0       0       0       0       0
       0       0       0       0       0       0       0       0       0       0
       0       0       0       0       0       0       0       0       0       0
       0       0       0       0       0       0       0       0       0       0
       0       0       0       0       0       0       0       0       0       0
       0       0       0       0       0       0       0       0       0       0
       0       0       0       0       0       0       0       0       0       0
       0       0       0       0       0       0       0       0       0       0
       0       0       0       0       0       0       0       0       0       0
       0       0       0       0       0       0       0       0       0       0
       0       0       0       0       0       0       0       0       0       0
       0       0       0       0       0       0       0       0       0       0
       0       0       0       0       0       0       0       0       0       0
       0       0       0       0       0       0       0       0       0       0
       0       0       0       0       0       0       0       0       0       0
       0       0       0       0       0       0       0       0       0       0
       0       0       0       0       0       0       0       0       0       0
       0       0       0       0       0       0       0       0       0       0
       0       0       0       0       0       0       0       0       0       0
       0       0       0       0       0       0       0       0       0       0
       0       0       0       0       0       0       0       0       0       0
       0       0       0       0       0       0       0       0       0       0
       0       0       0       0       0       0       0       0       0       0
       0       0       0       0       0       0       0       0       0       0
       0       0       0       0       0       0       0       0       0       0
       0       0       0       0       0       0       0       0       0       0
       0       0       0       0       0       0       0       0       0       0
       0       0       0       0       0       0       0       0       0       0
       0       0       0       0       0       0       0       0       0       0
       0       0       0       0       0       0       0       0       0       0
       0       0       0       0       0       0       0       0       0       0
       0       0       0       0       0       0       0       0       0       0
       0       0       0       0       0       0       0       0       0       0
       0       0       0       0       0       0       0       0       0       0
       0       0       0       0       0       0       0       0       0       0
       0       0       0       0       0       0       0       0       0       0
       0       0       0       0       0       0       0       0       0       0
       0       0       0       0       0       0       0       0       0       0
       0       0       0       0       0       0       0       0       0       0
       0       0       0       0       0       0       0       0       0       0
       0       0       0       0       0       0       0       0       0       0
       0       0       0       0       0       0       0       0       0       0
       0       0       0       0       0       0       0       0       0       0
       0       0       0       0       0       0       0       0       0       0
       0       0       0       0       0       0       0       0       0       0
       0       0       0       0       0       0       0       0       0       0
       0       0       0       0       0       0       0       0       0       0
       0       0       0       0       0       0       0       0       0       0
       0       0       0       0       0       0       0       0       0       0
       0       0       0       0       0       0       0       0       0       0
       0       0       0       0       0       0       0       0       0       0
       0       0       0       0       0       0       0       0       0       0
       0       0       0       0       0       0       0       0       0       0
       0       0       0       0       0       0       0       0       0       0
       0       0       0       0       0       0       0       0       0       0
       0       0       0       0       0       0       0       0       0       0
       0       0       0       0       0       0       0       0       0       0
       0       0       0       0       0       0       0       0       0       0
       0       0       0       0       0       0       0       0       0       0
       0       0       0       0       0       0       0       0       0       0
       0       0       0       0       0       0       0       0       0       0
       0       0       0       0       0       0       0       0       0       0
       0       0       0       0       0       0       0       0       0       0
       0       0       0       0       0       0       0       0       0       0
       0       0       0       0       0       0       0       0       0       0
       0       0       0       0       0       0       0       0       0       0
       0       0       0       0       0       0       0       0       0       0
       0       0       0       0       0       0       0       0       0       0
       0       0       0       0       0       0       0       0       0       0
       0       0       0       0       0       0       0       0       0       0
       0       0       0       0       0       0       0       0       0       0
       0       0       0       0       0       0       0       0       0       0
       0       0       0       0       0       0       0       0       0       0
       0       0       0       0       0       0       0       0       0       0
       0       0       0       0       0       0       0       0       0       0
       0       0       0       0       0       0       0       0       0       0
       0       0       0       0       0       0       0       0       0       0
       0       0       0       0       0       0       0       0       0       0
       0       0       0       0       0       0       0       0       0       0
       0       0       0       0       0       0       0       0       0       0
       0       0       0       0       0       0       0       0       0       0
       0       0       0       0       0       0       0       0       0       0
       0       0       0       0       0       0       0       0       0       0
       0       0       0       0       0       0       0       0       0       0
       0       0       0       0       0       0       0       0       0       0
       0       0       0       0       0       0       0       0       0       0
       0       0       0       0       0       0       0       0       0       0
       0       0       0       0       0       0       0       0       0       0
       0       0       0       0       0       0       0       0       0       0
       0       0       0       0       0       0       0       0       0       0
       0       0       0       0       0       0       0       0       0       0
       0       0       0       0       0       0       0       0       0       0
       0       0       0       0       0       0       0       0       0       0
       0       0       0       0       0       0       0       0       0       0
       0       0       0       0       0       0       0       0       0       0
       0       0       0       0       0       0       0       0       0       0
       0       0       0       0       0       0       0       0       0       0
       0       0       0       0       0       0       0       0       0       0
       0       0       0       0       0       0       0       0       0       0
       0       0       0       0       0       0       0       0       0       0
       0       0       0       0       0       0       0       0       0       0
       0       0       0       0       0       0       0       0       0       0
       0       0       0       0       0       0       0       0       0       0
       0       0       0       0       0       0       0       0       0       0
       0       0       0       0       0       0       0       0       0       0
       0       0       0       0       0       0       0       0       0       0
       0       0       0       0       0       0       0       0       0       0
       0       0       0       0       0       0       0       0       0       0
       0       0       0       0       0       0       0       0       0       0
       0       0       0       0       0       0       0       0       0       0
       0       0       0       0       0       0       0       0       0       0
       0       0       0       0       0       0       0       0       0       0
       0       0       0       0       0       0       0       0       0       0
       0       0       0       0       0       0       0       0       0       0
       0       0       0       0       0       0       0       0       0       0
       0       0       0       0       0       0       0       0       0       0
       0       0       0       0       0       0       0       0       0       0
       0       0       0       0       0       0       0       0       0       0
       0       0       0       0       0       0       0       0       0       0
       0       0       0       0       0       0       0       0       0       0
       0       0       0       0       0       0       0       0       0       0
       0       0       0       0       0       0       0       0       0       0
       0       0       0       0       0       0       0       0       0       0
       0       0       0       0       0       0       0       0       0       0
       0       0       0       0       0       0       0       0       0       0
       0       0       0       0       0       0       0       0       0       0
       0       0       0       0       0       0       0       0       0       0
       0       0       0       0       0       0       0       0       0       0
       0       0       0       0       0       0       0       0       0       0
       0       0       0       0       0       0       0       0       0       0
       0       0       0       0       0       0       0       0       0       0
       0       0       0       0       0       0       0       0       0       0
       0       0       0       0       0       0       0       0       0       0
       0       0       0       0       0       0       0       0       0       0
       0       0       0       0       0       0       0       0       0       0
       0       0       0       0       0       0       0       0       0       0
       0       0       0       0       0       0       0       0       0       0
       0       0       0       0       0       0       0       0       0       0
       0       0       0       0       0       0       0       0       0       0
       0       0       0       0       0       0       0       0       0       0
       0       0       0       0       0       0       0       0       0       0
       0       0       0       0       0       0       0       0       0       0
       0       0       0       0       0       0       0       0       0       0
       0       0       0       0       0       0       0       0       0       0
       0       0       0       0       0       0       0       0       0       0
       0       0       0       0       0       0       0       0       0       0
       0       0       0       0       0       0       0       0       0       0
       0       0       0       0       0       0       0       0       0       0
       0       0       0       0       0       0       0       0       0       0
       0       0       0       0       0       0       0       0       0       0
       0       0       0       0       0       0       0       0       0       0
       0       0       0       0       0       0       0       0       0       0
       0       0       0       0       0       0       0       0       0       0
       0       0       0       0       0       0       0       0       0       0
       0       0       0       0       0       0       0       0       0       0
       0       0       0       0       0       0       0       0       0       0
       0       0       0       0       0       0       0       0       0       0
       0       0       0       0       0       0       0       0       0       0
       0       0       0       0       0       0       0       0       0       0
       0       0       0       0       0       0       0       0       0       0
       0       0       0       0       0       0       0       0       0       0
       0       0       0       0       0       0       0       0       0       0
       0       0       0       0       0       0       0       0       0       0
       0       0       0       0       0       0       0       0       0       0
       0       0       0       0       0       0       0       0       0       0
       0       0       0       0       0       0       0       0       0       0
       0       0       0       0       0       0       0       0       0       0
       0       0       0       0       0       0       0       0       0       0
       0       0       0       0       0       0       0       0       0       0
       0       0       0       0       0       0       0       0       0       0
       0       0       0       0       0       0       0       0       0       0
       0       0       0       0       0       0       0       0       0       0
       0       0       0       0       0       0       0       0       0       0
       0       0       0       0       0       0       0       0       0       0
       0       0       0       0       0       0       0       0       0       0
       0       0       0       0       0       0       0       0       0       0
       0       0       0       0       0       0       0       0       0       0
       0       0       0       0       0       0       0       0       0       0
       0       0       0       0       0       0       0       0       0       0
       0       0       0       0       0       0       0       0       0       0
       0       0       0       0       0       0       0       0       0       0
       0       0       0       0       0       0       0       0       0       0
       0       0       0       0       0       0       0       0       0       0
       0       0       0       0       0       0       0       0       0       0
       0       0       0       0       0       0       0       0       0       0
       0       0       0       0       0       0       0       0       0       0
       0       0       0       0       0       0       0       0       0       0
       0       0       0       0       0       0       0       0       0       0
       0       0       0       0       0       0       0       0       0       0
       0       0       0       0       0       0       0       0       0       0
       0       0       0       0       0       0       0       0       0       0
       0       0       0       0       0       0       0       0       0       0
       0       0       0       0       0       0       0       0       0       0
       0       0       0       0       0       0       0       0       0       0
       0       0       0       0       0       0       0       0       0       0
       0       0       0       0       0       0       0       0       0       0
       0       0       0       0       0       0       0       0       0       0
       0       0       0       0       0       0       0       0       0       0
       0       0       0       0       0       0       0       0       0       0
       0       0       0       0       0       0       0       0       0       0
       0       0       0       0       0       0       0       0       0       0
       0       0       0       0       0       0       0       0       0       0
       0       0       0       0       0       0       0       0       0       0
       0       0       0       0       0       0       0       0       0       0
       0       0       0       0       0       0       0       0       0       0
       0       0       0       0       0       0       0       0       0       0
       0       0       0       0       0       0       0       0       0       0
       0       0       0       0       0       0       0       0       0       0
       0       0       0       0       0       0       0       0       0       0
       0       0       0       0       0       0       0       0       0       0
       0       0       0       0       0       0       0       0       0       0
       0       0       0       0       0       0       0       0       0       0
       0       0       0       0       0       0       0       0       0       0
       0       0       0       0       0       0       0       0       0       0
       0       0       0       0       0       0       0       0       0       0
       0       0       0       0       0       0       0       0       0       0
       0       0       0       0       0       0       0       0       0       0
       0       0       0       0       0       0       0       0       0       0
       0       0       0       0       0       0       0       0       0       0
       0       0       0       0       0       0       0       0       0       0
       0       0       0       0       0       0       0       0       0       0
       0       0       0       0       0       0       0       0       0       0
       0       0       0       0       0       0       0       0       0       0
       0       0       0       0       0       0       0       0       0       0
       0       0       0       0       0       0       0       0       0       0
       0       0       0       0       0       0       0       0       0       0
       0       0       0       0       0       0       0       0       0       0
       0       0       0       0       0       0       0       0       0       0
       0       0       0       0       0       0       0       0       0       0
       0       0       0       0       0       0       0       0       0       0
       0       0       0       0       0       0       0       0       0       0
       0       0       0       0       0       0       0       0       0       0
       0       0       0       0       0       0       0       0       0       0
       0       0       0       0       0       0       0       0       0       0
       0       0       0       0       0       0       0       0       0       0
       0       0       0       0       0       0       0       0       0       0
       0       0       0       0       0       0       0       0       0       0
       0       0       0       0       0       0       0       0       0       0
       0       0       0       0       0       0       0       0       0       0
       0       0       0       0       0       0       0       0       0       0
       0       0       0       0       0       0       0       0       0       0
       0       0       0       0       0       0       0       0       0       0
       0       0       0       0       0       0       0       0       0       0
       0       0       0       0       0       0       0       0       0       0
       0       0       0       0       0       0       0       0       0       0
       0       0       0       0       0       0       0       0       0       0
       0       0       0       0       0       0       0       0       0       0
       0       0       0       0       0       0       0       0       0       0
       0       0       0       0       0       0       0       0       0       0
       0       0       0       0       0       0       0       0       0       0
       0       0       0       0       0       0       0       0       0       0
       0       0       0       0       0       0       0       0       0       0
       0       0       0       0       0       0       0       0       0       0
       0       0       0       0       0       0       0       0       0       0
       0       0       0       0       0       0       0       0       0       0
       0       0       0       0       0       0       0       0       0       0
       0       0       0       0       0       0       0       0       0       0
       0       0       0       0       0       0       0       0       0       0
       0       0       0       0       0       0       0       0       0       0
       0       0       0       0       0       0       0       0       0       0
       0       0       0       0       0       0       0       0       0       0
       0       0       0       0       0       0       0       0       0       0
       0       0       0       0       0       0       0       0       0       0
       0       0       0       0       0       0       0       0       0       0
       0       0       0       0       0       0       0       0       0       0
       0       0       0       0       0       0       0       0       0       0
       0       0       0       0       0       0       0       0       0       0
       0       0       0       0       0       0       0       0       0       0
       0       0       0       0       0       0       0       0       0       0
       0       0       0       0       0       0       0       0       0       0
       0       0       0       0       0       0       0       0       0       0
       0       0       0       0       0       0       0       0       0       0
       0       0       0       0       0       0       0       0       0       0
       0       0       0       0       0       0       0       0       0       0
       0       0       0       0       0       0       0       0       0       0
       0       0       0       0       0       0       0       0       0       0
       0       0       0       0       0       0       0       0       0       0
       0       0       0       0       0       0       0       0       0       0
       0       0       0       0       0       0       0       0       0       0
       0       0       0       0       0       0       0       0       0       0
       0       0       0       0       0       0       0       0       0       0
       0       0       0       0       0       0       0       0       0       0
       0       0       0       0       0       0       0       0       0       0
       0       0       0       0       0       0       0       0       0       0
       0       0       0       0       0       0       0       0       0       0
       0       0       0       0       0       0       0       0       0       0
       0       0       0       0       0       0       0       0       0       0
       0       0       0       0       0       0       0       0       0       0
       0       0       0       0       0       0       0       0       0       0
       0       0       0       0       0       0       0       0       0       0
       0       0       0       0       0       0       0       0       0       0
       0       0       0       0       0       0       0       0       0       0
       0       0       0       0       0       0       0       0       0       0
       0       0       0       0       0       0       0       0       0       0
       0       0       0       0       0       0       0       0       0       0
       0       0       0       0       0       0       0       0       0       0
       0       0       0       0       0       0       0       0       0       0
       0       0       0       0       0       0       0       0       0       0
       0       0       0       0       0       0       0       0       0       0
       0       0       0       0       0       0       0       0       0       0
       0       0       0       0       0       0       0       0       0       0
       0       0       0       0       0       0       0       0       0       0
       0       0       0       0       0       0       0       0       0       0
       0       0       0       0       0       0       0       0       0       0
       0       0       0       0       0       0       0       0       0       0
       0       0       0       0       0       0       0       0       0       0
       0       0       0       0       0       0       0       0       0       0
       0       0       0       0       0       0       0       0       0       0
       0       0       0       0       0       0       0       0       0       0
       0       0       0       0       0       0       0       0       0       0
       0       0       0       0       0       0       0       0       0       0
       0       0       0       0       0       0       0       0       0       0
       0       0       0       0       0       0       0       0       0       0
       0       0       0       0       0       0       0       0       0       0
       0       0       0       0       0       0       0       0       0       0
       0       0       0       0       0       0       0       0       0       0
       0       0       0       0       0       0       0       0       0       0
       0       0       0       0       0       0       0       0       0       0
       0       0       0       0       0       0       0       0       0       0
       0       0       0       0       0       0       0       0       0       0
       0       0       0       0       0       0       0       0       0       0
       0       0       0       0       0       0       0       0       0       0
       0       0       0       0       0       0       0       0       0       0
       0       0       0       0       0       0       0       0       0       0
       0       0       0       0       0       0       0       0       0       0
       0       0       0       0       0       0       0       0       0       0
       0       0       0       0       0       0       0       0       0       0
       0       0       0       0       0       0       0       0       0       0
       0       0       0       0       0       0       0       0       0       0
       0       0       0       0       0       0       0       0       0       0
       0       0       0       0       0       0       0       0       0       0
       0       0       0       0       0       0       0       0       0       0
       0       0       0       0       0       0       0       0       0       0
       0       0       0       0       0       0       0       0       0       0
       0       0       0       0       0       0       0       0       0       0
       0       0       0       0       0       0       0       0       0       0
       0       0       0       0       0       0       0       0       0       0
       0       0       0       0       0       0       0       0       0       0
       0       0       0       0       0       0       0       0       0       0
       0       0       0       0       0       0       0       0       0       0
       0       0       0       0       0       0       0       0       0       0
       0       0       0       0       0       0       0       0       0       0
       0       0       0       0       0       0       0       0       0       0
       0       0       0       0       0       0       0       0       0       0
       0       0       0       0       0       0       0       0       0       0
       0       0       0       0       0       0       0       0       0       0
       0       0       0       0       0       0       0       0       0       0
       0       0       0       0       0       0       0       0       0       0
       0       0       0       0       0       0       0       0       0       0
       0       0       0       0       0       0       0       0       0       0
       0       0       0       0       0       0       0       0       0       0
       0       0       0       0       0       0       0       0       0       0
       0       0       0       0       0       0       0       0       0       0
       0       0       0       0       0       0       0       0       0       0
       0       0       0       0       0       0       0       0       0       0
       0       0       0       0       0       0       0       0       0       0
       0       0       0       0       0       0       0       0       0       0
       0       0       0       0       0       0       0       0       0       0
       0       0       0       0       0       0       0       0       0       0
       0       0       0       0       0       0       0       0       0       0
       0       0       0       0       0       0       0       0       0       0
       0       0       0       0       0       0       0       0       0       0
       0       0       0       0       0       0       0       0       0       0
       0       0       0       0       0       0       0       0       0       0
       0       0       0       0       0       0       0       0       0       0
       0       0       0       0       0       0       0       0       0       0
       0       0       0       0       0       0       0       0       0       0
       0       0       0       0       0       0       0       0       0       0
       0       0       0       0       0       0       0       0       0       0
       0       0       0       0       0       0       0       0       0       0
       0       0       0       0       0       0       0       0       0       0
       0       0       0       0       0       0       0       0       0       0
       0       0       0       0       0       0       0       0       0       0
       0       0       0       0       0       0       0       0       0       0
       0       0       0       0       0       0       0       0       0       0
       0       0       0       0       0       0       0       0       0       0
       0       0       0       0       0       0       0       0       0       0
       0       0       0       0       0       0       0       0       0       0
       0       0       0       0       0       0       0       0       0       0
       0       0       0       0       0       0       0       0       0       0
       0       0       0       0       0       0       0       0       0       0
       0       0       0       0       0       0       0       0       0       0
       0       0       0       0       0       0       0       0       0       0
       0       0       0       0       0       0       0       0       0       0
       0       0       0       0       0       0       0       0       0       0
       0       0       0       0       0       0       0       0       0       0
       0       0       0       0       0       0       0       0       0       0
       0       0       0       0       0       0       0       0       0       0
       0       0       0       0       0       0       0       0       0       0
       0       0       0       0       0       0       0       0       0       0
       0       0       0       0       0       0       0       0       0       0
       0       0       0       0       0       0       0       0       0       0
       0       0       0       0       0       0       0       0       0       0
       0       0       0       0       0       0       0       0       0       0
       0       0       0       0       0       0       0       0       0       0
       0       0       0       0       0       0       0       0       0       0
       0       0       0       0       0       0       0       0       0       0
       0       0       0       0       0       0       0       0       0       0
       0       0       0       0       0       0       0       0       0       0
       0       0       0       0       0       0       0       0       0       0
       0       0       0       0       0       0       0       0       0       0
       0       0       0       0       0       0       0       0       0       0
       0       0       0       0       0       0       0       0       0       0
       0       0       0       0       0       0       0       0       0       0
       0       0       0       0       0       0       0       0       0       0
       0       0       0       0       0       0       0       0       0       0
       0       0       0       0       0       0       0       0       0       0
       0       0       0       0       0       0       0       0       0       0
       0       0       0       0       0       0       0       0       0       0
       0       0       0       0       0       0       0       0       0       0
       0       0       0       0       0       0       0       0       0       0
       0       0       0       0       0       0       0       0       0       0
       0       0       0       0       0       0       0       0       0       0
       0       0       0       0       0       0       0       0       0       0
       0       0       0       0       0       0       0       0       0       0
       0       0       0       0       0       0       0       0       0       0
       0       0       0       0       0       0       0       0       0       0
       0       0       0       0       0       0       0       0       0       0
       0       0       0       0       0       0       0       0       0       0
       0       0       0       0       0       0       0       0       0       0
       0       0       0       0       0       0       0       0       0       0
       0       0       0       0       0       0       0       0       0       0
       0       0       0       0       0       0       0       0       0       0
       0       0       0       0       0       0       0       0       0       0
       0       0       0       0       0       0       0       0       0       0
       0       0       0       0       0       0       0       0       0       0
       0       0       0       0       0       0       0       0       0       0
       0       0       0       0       0       0       0       0       0       0
       0       0       0       0       0       0       0       0       0       0
       0       0       0       0       0       0       0       0       0       0
       0       0       0       0       0       0       0       0       0       0
       0       0       0       0       0       0       0       0       0       0
       0       0       0       0       0       0       0       0       0       0
       0       0       0       0       0       0       0       0       0       0
       0       0       0       0       0       0       0       0       0       0
       0       0       0       0       0       0       0       0       0       0
       0       0       0       0       0       0       0       0       0       0
       0       0       0       0       0       0       0       0       0       0
       0       0       0       0       0       0       0       0       0       0
       0       0       0       0       0       0       0       0       0       0
       0       0       0       0       0       0       0       0       0       0
       0       0       0       0       0       0       0       0       0       0
       0       0       0       0       0       0       0       0       0       0
       0       0       0       0       0       0       0       0       0       0
       0       0       0       0       0       0       0       0       0       0
       0       0       0       0       0       0       0       0       0       0
       0       0       0       0       0       0       0       0       0       0
       0       0       0       0       0       0       0       0       0       0
       0       0       0       0       0       0       0       0       0       0
       0       0       0       0       0       0       0       0       0       0
       0       0       0       0       0       0       0       0       0       0
       0       0       0       0       0       0       0       0       0       0
       0       0       0       0       0       0       0       0       0       0
       0       0       0       0       0       0       0       0       0       0
       0       0       0       0       0       0       0       0       0       0
       0       0       0       0       0       0       0       0       0       0
       0       0       0       0       0       0       0       0       0       0
       0       0       0       0       0       0       0       0       0       0
       0       0       0       0       0       0       0       0       0       0
       0       0       0       0       0       0       0       0       0       0
       0       0       0       0       0       0       0       0       0       0
       0       0       0       0       0       0       0       0       0       0
       0       0       0       0       0       0       0       0       0       0
       0       0       0       0       0       0       0       0       0       0
       0       0       0       0       0       0       0       0       0       0
       0       0       0       0       0       0       0       0       0       0
       0       0       0       0       0       0       0       0       0       0
       0       0       0       0       0       0       0       0       0       0
       0       0       0       0       0       0       0       0       0       0
       0       0       0       0       0       0       0       0       0       0
       0       0       0       0       0       0       0       0       0       0
       0       0       0       0       0       0       0       0       0       0
       0       0       0       0       0       0       0       0       0       0
       0       0       0       0       0       0       0       0       0       0
       0       0       0       0       0       0       0       0       0       0
       0       0       0       0       0       0       0       0       0       0
       0       0       0       0       0       0       0       0       0       0
       0       0       0       0       0       0       0       0       0       0
       0       0       0       0       0       0       0       0       0       0
       0       0       0       0       0       0       0       0       0       0
       0       0       0       0       0       0       0       0       0       0
       0       0       0       0       0       0       0       0       0       0
       0       0       0       0       0       0       0       0       0       0
       0       0       0       0       0       0       0       0       0       0
       0       0       0       0       0       0       0       0       0       0
       0       0       0       0       0       0       0       0       0       0
       0       0       0       0       0       0       0       0       0       0
       0       0       0       0       0       0       0       0       0       0
       0       0       0       0       0       0       0       0       0       0
       0       0       0       0       0       0       0       0       0       0
       0       0       0       0       0       0       0       0       0       0
       0       0       0       0       0       0       0       0       0       0
       0       0       0       0       0       0       0       0       0       0
       0       0       0       0       0       0       0       0       0       0
       0       0       0       0       0       0       0       0       0       0
       0       0       0       0       0       0       0       0       0       0
       0       0       0       0       0       0       0       0       0       0
       0       0       0       0       0       0       0       0       0       0
       0       0       0       0       0       0       0       0       0       0
       0       0       0       0       0       0       0       0       0       0
       0       0       0       0       0       0       0       0       0       0
       0       0       0       0       0       0       0       0       0       0
       0       0       0       0       0       0       0       0       0       0
       0       0       0       0       0       0       0       0       0       0
       0       0       0       0       0       0       0       0       0       0
       0       0       0       0       0       0       0       0       0       0
       0       0       0       0       0       0       0       0       0       0
       0       0       0       0       0       0       0       0       0       0
       0       0       0       0       0       0       0       0       0       0
       0       0       0       0       0       0       0       0       0       0
       0       0       0       0       0       0       0       0       0       0
       0       0       0       0       0       0       0       0       0       0
       0       0       0       0       0       0       0       0       0       0
       0       0       0       0       0       0       0       0       0       0
       0       0       0       0       0       0       0       0       0       0
       0       0       0       0       0       0       0       0       0       0
       0       0       0       0       0       0       0       0       0       0
       0       0       0       0       0       0       0       0       0       0
       0       0       0       0       0       0       0       0       0       0
       0       0       0       0       0       0       0       0       0       0
       0       0       0       0       0       0       0       0       0       0
       0       0       0       0       0       0       0       0       0       0
       0       0       0       0       0       0       0       0       0       0
       0       0       0       0       0       0       0       0       0       0
       0       0       0       0       0       0       0       0       0       0
       0       0       0       0       0       0       0       0       0       0
       0       0       0       0       0       0       0       0       0       0
       0       0       0       0       0       0       0       0       0       0
       0       0       0       0       0       0       0       0       0       0
       0       0       0       0       0       0       0       0       0       0
       0       0       0       0       0       0       0       0       0       0
       0       0       0       0       0       0       0       0       0       0
       0       0       0       0       0       0       0       0       0       0
       0       0       0       0       0       0       0       0       0       0
       0       0       0       0       0       0       0       0       0       0
       0       0       0       0       0       0       0       0       0       0
       0       0       0       0       0       0       0       0       0       0
       0       0       0       0       0       0       0       0       0       0
       0       0       0       0       0       0       0       0       0       0
       0       0       0       0       0       0       0       0       0       0
       0       0       0       0       0       0       0       0       0       0
       0       0       0       0       0       0       0       0       0       0
       0       0       0       0       0       0       0       0       0       0
       0       0       0       0       0       0       0       0       0       0
       0       0       0       0       0       0       0       0       0       0
       0       0       0       0       0       0       0       0       0       0
       0       0       0       0       0       0       0       0       0       0
       0       0       0       0       0       0       0       0       0       0
       0       0       0       0       0       0       0       0       0       0
       0       0       0       0       0       0       0       0       0       0
       0       0       0       0       0       0       0       0       0       0
       0       0       0       0       0       0       0       0       0       0
       0       0       0       0       0       0       0       0       0       0
       0       0       0       0       0       0       0       0       0       0
       0       0       0       0       0       0       0       0       0       0
       0       0       0       0       0       0       0       0       0       0
       0       0       0       0       0       0       0       0       0       0
       0       0       0       0       0       0       0       0       0       0
       0       0       0       0       0       0       0       0       0       0
       0       0       0       0       0       0       0       0       0       0
       0       0       0       0       0       0       0       0       0       0
       0       0       0       0       0       0       0       0       0       0
       0       0       0       0       0       0       0       0       0       0
       0       0       0       0       0       0       0       0       0       0
       0       0       0       0       0       0       0       0       0       0
       0       0       0       0       0       0       0       0       0       0
       0       0       0       0       0       0       0       0       0       0
       0       0       0       0       0       0       0       0       0       0
       0       0       0       0       0       0       0       0       0       0
       0       0       0       0       0       0       0       0       0       0
       0       0       0       0
%FLAG IROTAT                                                                    
%FORMAT(10I8)                                                                   
       0       0       0       0       0       0       0       0       0       0
       0       0       0       0       0       0       0       0       0       0
       0       0       0       0       0       0       0       0       0       0
       0       0       0       0       0       0       0       0       0       0
       0       0       0       0       0       0       0       0       0       0
       0       0       0       0       0       0       0       0       0       0
       0       0       0       0       0       0       0       0       0       0
       0       0       0       0       0       0       0       0       0       0
       0       0       0       0       0       0       0       0       0       0
       0       0       0       0       0       0       0       0       0       0
       0       0       0       0       0       0       0       0       0       0
       0       0       0       0       0       0       0       0       0       0
       0       0       0       0       0       0       0       0       0       0
       0       0       0       0       0       0       0       0       0       0
       0       0       0       0       0       0       0       0       0       0
       0       0       0       0       0       0       0       0       0       0
       0       0       0       0       0       0       0       0       0       0
       0       0       0       0       0       0       0       0       0       0
       0       0       0       0       0       0       0       0       0       0
       0       0       0       0       0       0       0       0       0       0
       0       0       0       0       0       0       0       0       0       0
       0       0       0       0       0       0       0       0       0       0
       0       0       0       0       0       0       0       0       0       0
       0       0       0       0       0       0       0       0       0       0
       0       0       0       0       0       0       0       0       0       0
       0       0       0       0       0       0       0       0       0       0
       0       0       0       0       0       0       0       0       0       0
       0       0       0       0       0       0       0       0       0       0
       0       0       0       0       0       0       0       0       0       0
       0       0       0       0       0       0       0       0       0       0
       0       0       0       0       0       0       0       0       0       0
       0       0       0       0       0       0       0       0       0       0
       0       0       0       0       0       0       0       0       0       0
       0       0       0       0       0       0       0       0       0       0
       0       0       0       0       0       0       0       0       0       0
       0       0       0       0       0       0       0       0       0       0
       0       0       0       0       0       0       0       0       0       0
       0       0       0       0       0       0       0       0       0       0
       0       0       0       0       0       0       0       0       0       0
       0       0       0       0       0       0       0       0       0       0
       0       0       0       0       0       0       0       0       0       0
       0       0       0       0       0       0       0       0       0       0
       0       0       0       0       0       0       0       0       0       0
       0       0       0       0       0       0       0       0       0       0
       0       0       0       0       0       0       0       0       0       0
       0       0       0       0       0       0       0       0       0       0
       0       0       0       0       0       0       0       0       0       0
       0       0       0       0       0       0       0       0       0       0
       0       0       0       0       0       0       0       0       0       0
       0       0       0       0       0       0       0       0       0       0
       0       0       0       0       0       0       0       0       0       0
       0       0       0       0       0       0       0       0       0       0
       0       0       0       0       0       0       0       0       0       0
       0       0       0       0       0       0       0       0       0       0
       0       0       0       0       0       0       0       0       0       0
       0       0       0       0       0       0       0       0       0       0
       0       0       0       0       0       0       0       0       0       0
       0       0       0       0       0       0       0       0       0       0
       0       0       0       0       0       0       0       0       0       0
       0       0       0       0       0       0       0       0       0       0
       0       0       0       0       0       0       0       0       0       0
       0       0       0       0       0       0       0       0       0       0
       0       0       0       0       0       0       0       0       0       0
       0       0       0       0       0       0       0       0       0       0
       0       0       0       0       0       0       0       0       0       0
       0       0       0       0       0       0       0       0       0       0
       0       0       0       0       0       0       0       0       0       0
       0       0       0       0       0       0       0       0       0       0
       0       0       0       0       0       0       0       0       0       0
       0       0       0       0       0       0       0       0       0       0
       0       0       0       0       0       0       0       0       0       0
       0       0       0       0       0       0       0       0       0       0
       0       0       0       0       0       0       0       0       0       0
       0       0       0       0       0       0       0       0       0       0
       0       0       0       0       0       0       0       0       0       0
       0       0       0       0       0       0       0       0       0       0
       0       0       0       0       0       0       0       0       0       0
       0       0       0       0       0       0       0       0       0       0
       0       0       0       0       0       0       0       0       0       0
       0       0       0       0       0       0       0       0       0       0
       0       0       0       0       0       0       0       0       0       0
       0       0       0       0       0       0       0       0       0       0
       0       0       0       0       0       0       0       0       0       0
       0       0       0       0       0       0       0       0       0       0
       0       0       0       0       0       0       0       0       0       0
       0       0       0       0       0       0       0       0       0       0
       0       0       0       0       0       0       0       0       0       0
       0       0       0       0       0       0       0       0       0       0
       0       0       0       0       0       0       0       0       0       0
       0       0       0       0       0       0       0       0       0       0
       0       0       0       0       0       0       0       0       0       0
       0       0       0       0       0       0       0       0       0       0
       0       0       0       0       0       0       0       0       0       0
       0       0       0       0       0       0       0       0       0       0
       0       0       0       0       0       0       0       0       0       0
       0       0       0       0       0       0       0       0       0       0
       0       0       0       0       0       0       0       0       0       0
       0       0       0       0       0       0       0       0       0       0
       0       0       0       0       0       0       0       0       0       0
       0       0       0       0       0       0       0       0       0       0
       0       0       0       0       0       0       0       0       0       0
       0       0       0       0       0       0       0       0       0       0
       0       0       0       0       0       0       0       0       0       0
       0       0       0       0       0       0       0       0       0       0
       0       0       0       0       0       0       0       0       0       0
       0       0       0       0       0       0       0       0       0       0
       0       0       0       0       0       0       0       0       0       0
       0       0       0       0       0       0       0       0       0       0
       0       0       0       0       0       0       0       0       0       0
       0       0       0       0       0       0       0       0       0       0
       0       0       0       0       0       0       0       0       0       0
       0       0       0       0       0       0       0       0       0       0
       0       0       0       0       0       0       0       0       0       0
       0       0       0       0       0       0       0       0       0       0
       0       0       0       0       0       0       0       0       0       0
       0       0       0       0       0       0       0       0       0       0
       0       0       0       0       0       0       0       0       0       0
       0       0       0       0       0       0       0       0       0       0
       0       0       0       0       0       0       0       0       0       0
       0       0       0       0       0       0       0       0       0       0
       0       0       0       0       0       0       0       0       0       0
       0       0       0       0       0       0       0       0       0       0
       0       0       0       0       0       0       0       0       0       0
       0       0       0       0       0       0       0       0       0       0
       0       0       0       0       0       0       0       0       0       0
       0       0       0       0       0       0       0       0       0       0
       0       0       0       0       0       0       0       0       0       0
       0       0       0       0       0       0       0       0       0       0
       0       0       0       0       0       0       0       0       0       0
       0       0       0       0       0       0       0       0       0       0
       0       0       0       0       0       0       0       0       0       0
       0       0       0       0       0       0       0       0       0       0
       0       0       0       0       0       0       0       0       0       0
       0       0       0       0       0       0       0       0       0       0
       0       0       0       0       0       0       0       0       0       0
       0       0       0       0       0       0       0       0       0       0
       0       0       0       0       0       0       0       0       0       0
       0       0       0       0       0       0       0       0       0       0
       0       0       0       0       0       0       0       0       0       0
       0       0       0       0       0       0       0       0       0       0
       0       0       0       0       0       0       0       0       0       0
       0       0       0       0       0       0       0       0       0       0
       0       0       0       0       0       0       0       0       0       0
       0       0       0       0       0       0       0       0       0       0
       0       0       0       0       0       0       0       0       0       0
       0       0       0       0       0       0       0       0       0       0
       0       0       0       0       0       0       0       0       0       0
       0       0       0       0       0       0       0       0       0       0
       0       0       0       0       0       0       0       0       0       0
       0       0       0       0       0       0       0       0       0       0
       0       0       0       0       0       0       0       0       0       0
       0       0       0       0       0       0       0       0       0       0
       0       0       0       0       0       0       0       0       0       0
       0       0       0       0       0       0       0       0       0       0
       0       0       0       0       0       0       0       0       0       0
       0       0       0       0       0       0       0       0       0       0
       0       0       0       0       0       0       0       0       0       0
       0       0       0       0       0       0       0       0       0       0
       0       0       0       0       0       0       0       0       0       0
       0       0       0       0       0       0       0       0       0       0
       0       0       0       0       0       0       0       0       0       0
       0       0       0       0       0       0       0       0       0       0
       0       0       0       0       0       0       0       0       0       0
       0       0       0       0       0       0       0       0       0       0
       0       0       0       0       0       0       0       0       0       0
       0       0       0       0       0       0       0       0       0       0
       0       0       0       0       0       0       0       0       0       0
       0       0       0       0       0       0       0       0       0       0
       0       0       0       0       0       0       0       0       0       0
       0       0       0       0       0       0       0       0       0       0
       0       0       0       0       0       0       0       0       0       0
       0       0       0       0       0       0       0       0       0       0
       0       0       0       0       0       0       0       0       0       0
       0       0       0       0       0       0       0       0       0       0
       0       0       0       0       0       0       0       0       0       0
       0       0       0       0       0       0       0       0       0       0
       0       0       0       0       0       0       0       0       0       0
       0       0       0       0       0       0       0       0       0       0
       0       0       0       0       0       0       0       0       0       0
       0       0       0       0       0       0       0       0       0       0
       0       0       0       0       0       0       0       0       0       0
       0       0       0       0       0       0       0       0       0       0
       0       0       0       0       0       0       0       0       0       0
       0       0       0       0       0       0       0       0       0       0
       0       0       0       0       0       0       0       0       0       0
       0       0       0       0       0       0       0       0       0       0
       0       0       0       0       0       0       0       0       0       0
       0       0       0       0       0       0       0       0       0       0
       0       0       0       0       0       0       0       0       0       0
       0       0       0       0       0       0       0       0       0       0
       0       0       0       0       0       0       0       0       0       0
       0       0       0       0       0       0       0       0       0       0
       0       0       0       0       0       0       0       0       0       0
       0       0       0       0       0       0       0       0       0       0
       0       0       0       0       0       0       0       0       0       0
       0       0       0       0       0       0       0       0       0       0
       0       0       0       0       0       0       0       0       0       0
       0       0       0       0       0       0       0       0       0       0
       0       0       0       0       0       0       0       0       0       0
       0       0       0       0       0       0       0       0       0       0
       0       0       0       0       0       0       0       0       0       0
       0       0       0       0       0       0       0       0       0       0
       0       0       0       0       0       0       0       0       0       0
       0       0       0       0       0       0       0       0       0       0
       0       0       0       0       0       0       0       0       0       0
       0       0       0       0       0       0       0       0       0       0
       0       0       0       0       0       0       0       0       0       0
       0       0       0       0       0       0       0       0       0       0
       0       0       0       0       0       0       0       0       0       0
       0       0       0       0       0       0       0       0       0       0
       0       0       0       0       0       0       0       0       0       0
       0       0       0       0       0       0       0       0       0       0
       0       0       0       0       0       0       0       0       0       0
       0       0       0       0       0       0       0       0       0       0
       0       0       0       0       0       0       0       0       0       0
       0       0       0       0       0       0       0       0       0       0
       0       0       0       0       0       0       0       0       0       0
       0       0       0       0       0       0       0       0       0       0
       0       0       0       0       0       0       0       0       0       0
       0       0       0       0       0       0       0       0       0       0
       0       0       0       0       0       0       0       0       0       0
       0       0       0       0       0       0       0       0       0       0
       0       0       0       0       0       0       0       0       0       0
       0       0       0       0       0       0       0       0       0       0
       0       0       0       0       0       0       0       0       0       0
       0       0       0       0       0       0       0       0       0       0
       0       0       0       0       0       0       0       0       0       0
       0       0       0       0       0       0       0       0       0       0
       0       0       0       0       0       0       0       0       0       0
       0       0       0       0       0       0       0       0       0       0
       0       0       0       0       0       0       0       0       0       0
       0       0       0       0       0       0       0       0       0       0
       0       0       0       0       0       0       0       0       0       0
       0       0       0       0       0       0       0       0       0       0
       0       0       0       0       0       0       0       0       0       0
       0       0       0       0       0       0       0       0       0       0
       0       0       0       0       0       0       0       0       0       0
       0       0       0       0       0       0       0       0       0       0
       0       0       0       0       0       0       0       0       0       0
       0       0       0       0       0       0       0       0       0       0
       0       0       0       0       0       0       0       0       0       0
       0       0       0       0       0       0       0       0       0       0
       0       0       0       0       0       0       0       0       0       0
       0       0       0       0       0       0       0       0       0       0
       0       0       0       0       0       0       0       0       0       0
       0       0       0       0       0       0       0       0       0       0
       0       0       0       0       0       0       0       0       0       0
       0       0       0       0       0       0       0       0       0       0
       0       0       0       0       0       0       0       0       0       0
       0       0       0       0       0       0       0       0       0       0
       0       0       0       0       0       0       0       0       0       0
       0       0       0       0       0       0       0       0       0       0
       0       0       0       0       0       0       0       0       0       0
       0       0       0       0       0       0       0       0       0       0
       0       0       0       0       0       0       0       0       0       0
       0       0       0       0       0       0       0       0       0       0
       0       0       0       0       0       0       0       0       0       0
       0       0       0       0       0       0       0       0       0       0
       0       0       0       0       0       0       0       0       0       0
       0       0       0       0       0       0       0       0       0       0
       0       0       0       0       0       0       0       0       0       0
       0       0       0       0       0       0       0       0       0       0
       0       0       0       0       0       0       0       0       0       0
       0       0       0       0       0       0       0       0       0       0
       0       0       0       0       0       0       0       0       0       0
       0       0       0       0       0       0       0       0       0       0
       0       0       0       0       0       0       0       0       0       0
       0       0       0       0       0       0       0       0       0       0
       0       0       0       0       0       0       0       0       0       0
       0       0       0       0       0       0       0       0       0       0
       0       0       0       0       0       0       0       0       0       0
       0       0       0       0       0       0       0       0       0       0
       0       0       0       0       0       0       0       0       0       0
       0       0       0       0       0       0       0       0       0       0
       0       0       0       0       0       0       0       0       0       0
       0       0       0       0       0       0       0       0       0       0
       0       0       0       0       0       0       0       0       0       0
       0       0       0       0       0       0       0       0       0       0
       0       0       0       0       0       0       0       0       0       0
       0       0       0       0       0       0       0       0       0       0
       0       0       0       0       0       0       0       0       0       0
       0       0       0       0       0       0       0       0       0       0
       0       0       0       0       0       0       0       0       0       0
       0       0       0       0       0       0       0       0       0       0
       0       0       0       0       0       0       0       0       0       0
       0       0       0       0       0       0       0       0       0       0
       0       0       0       0       0       0       0       0       0       0
       0       0       0       0       0       0       0       0       0       0
       0       0       0       0       0       0       0       0       0       0
       0       0       0       0       0       0       0       0       0       0
       0       0       0       0       0       0       0       0       0       0
       0       0       0       0       0       0       0       0       0       0
       0       0       0       0       0       0       0       0       0       0
       0       0       0       0       0       0       0       0       0       0
       0       0       0       0       0       0       0       0       0       0
       0       0       0       0       0       0       0       0       0       0
       0       0       0       0       0       0       0       0       0       0
       0       0       0       0       0       0       0       0       0       0
       0       0       0       0       0       0       0       0       0       0
       0       0       0       0       0       0       0       0       0       0
       0       0       0       0       0       0       0       0       0       0
       0       0       0       0       0       0       0       0       0       0
       0       0       0       0       0       0       0       0       0       0
       0       0       0       0       0       0       0       0       0       0
       0       0       0       0       0       0       0       0       0       0
       0       0       0       0       0       0       0       0       0       0
       0       0       0       0       0       0       0       0       0       0
       0       0       0       0       0       0       0       0       0       0
       0       0       0       0       0       0       0       0       0       0
       0       0       0       0       0       0       0       0       0       0
       0       0       0       0       0       0       0       0       0       0
       0       0       0       0       0       0       0       0       0       0
       0       0       0       0       0       0       0       0       0       0
       0       0       0       0       0       0       0       0       0       0
       0       0       0       0       0       0       0       0       0       0
       0       0       0       0       0       0       0       0       0       0
       0       0       0       0       0       0       0       0       0       0
       0       0       0       0       0       0       0       0       0       0
       0       0       0       0       0       0       0       0       0       0
       0       0       0       0       0       0       0       0       0       0
       0       0       0       0       0       0       0       0       0       0
       0       0       0       0       0       0       0       0       0       0
       0       0       0       0       0       0       0       0       0       0
       0       0       0       0       0       0       0       0       0       0
       0       0       0       0       0       0       0       0       0       0
       0       0       0       0       0       0       0       0       0       0
       0       0       0       0       0       0       0       0       0       0
       0       0       0       0       0       0       0       0       0       0
       0       0       0       0       0       0       0       0       0       0
       0       0       0       0       0       0       0       0       0       0
       0       0       0       0       0       0       0       0       0       0
       0       0       0       0       0       0       0       0       0       0
       0       0       0       0       0       0       0       0       0       0
       0       0       0       0       0       0       0       0       0       0
       0       0       0       0       0       0       0       0       0       0
       0       0       0       0       0       0       0       0       0       0
       0       0       0       0       0       0       0       0       0       0
       0       0       0       0       0       0       0       0       0       0
       0       0       0       0       0       0       0       0       0       0
       0       0       0       0       0       0       0       0       0       0
       0       0       0       0       0       0       0       0       0       0
       0       0       0       0       0       0       0       0       0       0
       0       0       0       0       0       0       0       0       0       0
       0       0       0       0       0       0       0       0       0       0
       0       0       0       0       0       0       0       0       0       0
       0       0       0       0       0       0       0       0       0       0
       0       0       0       0       0       0       0       0       0       0
       0       0       0       0       0       0       0       0       0       0
       0       0       0       0       0       0       0       0       0       0
       0       0       0       0       0       0       0       0       0       0
       0       0       0       0       0       0       0       0       0       0
       0       0       0       0       0       0       0       0       0       0
       0       0       0       0       0       0       0       0       0       0
       0       0       0       0       0       0       0       0       0       0
       0       0       0       0       0       0       0       0       0       0
       0       0       0       0       0       0       0       0       0       0
       0       0       0       0       0       0       0       0       0       0
       0       0       0       0       0       0       0       0       0       0
       0       0       0       0       0       0       0       0       0       0
       0       0       0       0       0       0       0       0       0       0
       0       0       0       0       0       0       0       0       0       0
       0       0       0       0       0       0       0       0       0       0
       0       0       0       0       0       0       0       0       0       0
       0       0       0       0       0       0       0       0       0       0
       0       0       0       0       0       0       0       0       0       0
       0       0       0       0       0       0       0       0       0       0
       0       0       0       0       0       0       0       0       0       0
       0       0       0       0       0       0       0       0       0       0
       0       0       0       0       0       0       0       0       0       0
       0       0       0       0       0       0       0       0       0       0
       0       0       0       0       0       0       0       0       0       0
       0       0       0       0       0       0       0       0       0       0
       0       0       0       0       0       0       0       0       0       0
       0       0       0       0       0       0       0       0       0       0
       0       0       0       0       0       0       0       0       0       0
       0       0       0       0       0       0       0       0       0       0
       0       0       0       0       0       0       0       0       0       0
       0       0       0       0       0       0       0       0       0       0
       0       0       0       0       0       0       0       0       0       0
       0       0       0       0       0       0       0       0       0       0
       0       0       0       0       0       0       0       0       0       0
       0       0       0       0       0       0       0       0       0       0
       0       0       0       0       0       0       0       0       0       0
       0       0       0       0       0       0       0       0       0       0
       0       0       0       0       0       0       0       0       0       0
       0       0       0       0       0       0       0       0       0       0
       0       0       0       0       0       0       0       0       0       0
       0       0       0       0       0       0       0       0       0       0
       0       0       0       0       0       0       0       0       0       0
       0       0       0       0       0       0       0       0       0       0
       0       0       0       0       0       0       0       0       0       0
       0       0       0       0       0       0       0       0       0       0
       0       0       0       0       0       0       0       0       0       0
       0       0       0       0       0       0       0       0       0       0
       0       0       0       0       0       0       0       0       0       0
       0       0       0       0       0       0       0       0       0       0
       0       0       0       0       0       0       0       0       0       0
       0       0       0       0       0       0       0       0       0       0
       0       0       0       0       0       0       0       0       0       0
       0       0       0       0       0       0       0       0       0       0
       0       0       0       0       0       0       0       0       0       0
       0       0       0       0       0       0       0       0       0       0
       0       0       0       0       0       0       0       0       0       0
       0       0       0       0       0       0       0       0       0       0
       0       0       0       0       0       0       0       0       0       0
       0       0       0       0       0       0       0       0       0       0
       0       0       0       0       0       0       0       0       0       0
       0       0       0       0       0       0       0       0       0       0
       0       0       0       0       0       0       0       0       0       0
       0       0       0       0       0       0       0       0       0       0
       0       0       0       0       0       0       0       0       0       0
       0       0       0       0       0       0       0       0       0       0
       0       0       0       0       0       0       0       0       0       0
       0       0       0       0       0       0       0       0       0       0
       0       0       0       0       0       0       0       0       0       0
       0       0       0       0       0       0       0       0       0       0
       0       0       0       0       0       0       0       0       0       0
       0       0       0       0       0       0       0       0       0       0
       0       0       0       0       0       0       0       0       0       0
       0       0       0       0       0       0       0       0       0       0
       0       0       0       0       0       0       0       0       0       0
       0       0       0       0       0       0       0       0       0       0
       0       0       0       0       0       0       0       0       0       0
       0       0       0       0       0       0       0       0       0       0
       0       0       0       0       0       0       0       0       0       0
       0       0       0       0       0       0       0       0       0       0
       0       0       0       0       0       0       0       0       0       0
       0       0       0       0       0       0       0       0       0       0
       0       0       0       0       0       0       0       0       0       0
       0       0       0       0       0       0       0       0       0       0
       0       0       0       0       0       0       0       0       0       0
       0       0       0       0       0       0       0       0       0       0
       0       0       0       0       0       0       0       0       0       0
       0       0       0       0       0       0       0       0       0       0
       0       0       0       0       0       0       0       0       0       0
       0       0       0       0       0       0       0       0       0       0
       0       0       0       0       0       0       0       0       0       0
       0       0       0       0       0       0       0       0       0       0
       0       0       0       0       0       0       0       0       0       0
       0       0       0       0       0       0       0       0       0       0
       0       0       0       0       0       0       0       0       0       0
       0       0       0       0       0       0       0       0       0       0
       0       0       0       0       0       0       0       0       0       0
       0       0       0       0       0       0       0       0       0       0
       0       0       0       0       0       0       0       0       0       0
       0       0       0       0       0       0       0       0       0       0
       0       0       0       0       0       0       0       0       0       0
       0       0       0       0       0       0       0       0       0       0
       0       0       0       0       0       0       0       0       0       0
       0       0       0       0       0       0       0       0       0       0
       0       0       0       0       0       0       0       0       0       0
       0       0       0       0       0       0       0       0       0       0
       0       0       0       0       0       0       0       0       0       0
       0       0       0       0       0       0       0       0       0       0
       0       0       0       0       0       0       0       0       0       0
       0       0       0       0       0       0       0       0       0       0
       0       0       0       0       0       0       0       0       0       0
       0       0       0       0       0       0       0       0       0       0
       0       0       0       0       0       0       0       0       0       0
       0       0       0       0       0       0       0       0       0       0
       0       0       0       0       0       0       0       0       0       0
       0       0       0       0       0       0       0       0       0       0
       0       0       0       0       0       0       0       0       0       0
       0       0       0       0       0       0       0       0       0       0
       0       0       0       0       0       0       0       0       0       0
       0       0       0       0       0       0       0       0       0       0
       0       0       0       0       0       0       0       0       0       0
       0       0       0       0       0       0       0       0       0       0
       0       0       0       0       0       0       0       0       0       0
       0       0       0       0       0       0       0       0       0       0
       0       0       0       0       0       0       0       0       0       0
       0       0       0       0       0       0       0       0       0       0
       0       0       0       0       0       0       0       0       0       0
       0       0       0       0       0       0       0       0       0       0
       0       0       0       0       0       0       0       0       0       0
       0       0       0       0       0       0       0       0       0       0
       0       0       0       0       0       0       0       0       0       0
       0       0       0       0       0       0       0       0       0       0
       0       0       0       0       0       0       0       0       0       0
       0       0       0       0       0       0       0       0       0       0
       0       0       0       0       0       0       0       0       0       0
       0       0       0       0       0       0       0       0       0       0
       0       0       0       0       0       0       0       0       0       0
       0       0       0       0       0       0       0       0       0       0
       0       0       0       0       0       0       0       0       0       0
       0       0       0       0       0       0       0       0       0       0
       0       0       0       0       0       0       0       0       0       0
       0       0       0       0       0       0       0       0       0       0
       0       0       0       0       0       0       0       0       0       0
       0       0       0       0       0       0       0       0       0       0
       0       0       0       0       0       0       0       0       0       0
       0       0       0       0       0       0       0       0       0       0
       0       0       0       0       0       0       0       0       0       0
       0       0       0       0       0       0       0       0       0       0
       0       0       0       0       0       0       0       0       0       0
       0       0       0       0       0       0       0       0       0       0
       0       0       0       0       0       0       0       0       0       0
       0       0       0       0       0       0       0       0       0       0
       0       0       0       0       0       0       0       0       0       0
       0       0       0       0       0       0       0       0       0       0
       0       0       0       0       0       0       0       0       0       0
       0       0       0       0       0       0       0       0       0       0
       0       0       0       0       0       0       0       0       0       0
       0       0       0       0       0       0       0       0       0       0
       0       0       0       0       0       0       0       0       0       0
       0       0       0       0       0       0       0       0       0       0
       0       0       0       0       0       0       0       0       0       0
       0       0       0       0       0       0       0       0       0       0
       0       0       0       0       0       0       0       0       0       0
       0       0       0       0       0       0       0       0       0       0
       0       0       0       0       0       0       0       0       0       0
       0       0       0       0       0       0       0       0       0       0
       0       0       0       0       0       0       0       0       0       0
       0       0       0       0       0       0       0       0       0       0
       0       0       0       0       0       0       0       0       0       0
       0       0       0       0       0       0       0       0       0       0
       0       0       0       0       0       0       0       0       0       0
       0       0       0       0       0       0       0       0       0       0
       0       0       0       0       0       0       0       0       0       0
       0       0       0       0       0       0       0       0       0       0
       0       0       0       0       0       0       0       0       0       0
       0       0       0       0       0       0       0       0       0       0
       0       0       0       0       0       0       0       0       0       0
       0       0       0       0       0       0       0       0       0       0
       0       0       0       0       0       0       0       0       0       0
       0       0       0       0       0       0       0       0       0       0
       0       0       0       0       0       0       0       0       0       0
       0       0       0       0       0       0       0       0       0       0
       0       0       0       0       0       0       0       0       0       0
       0       0       0       0       0       0       0       0       0       0
       0       0       0       0       0       0       0       0       0       0
       0       0       0       0       0       0       0       0       0       0
       0       0       0       0       0       0       0       0       0       0
       0       0       0       0       0       0       0       0       0       0
       0       0       0       0       0       0       0       0       0       0
       0       0       0       0       0       0       0       0       0       0
       0       0       0       0       0       0       0       0       0       0
       0       0       0       0       0       0       0       0       0       0
       0       0       0       0       0       0       0       0       0       0
       0       0       0       0       0       0       0       0       0       0
       0       0       0       0       0       0       0       0       0       0
       0       0       0       0       0       0       0       0       0       0
       0       0       0       0       0       0       0       0       0       0
       0       0       0       0       0       0       0       0       0       0
       0       0       0       0       0       0       0       0       0       0
       0       0       0       0       0       0       0       0       0       0
       0       0       0       0       0       0       0       0       0       0
       0       0       0       0       0       0       0       0       0       0
       0       0       0       0       0       0       0       0       0       0
       0       0       0       0       0       0       0       0       0       0
       0       0       0       0       0       0       0       0       0       0
       0       0       0       0       0       0       0       0       0       0
       0       0       0       0       0       0       0       0       0       0
       0       0       0       0       0       0       0       0       0       0
       0       0       0       0       0       0       0       0       0       0
       0       0       0       0       0       0       0       0       0       0
       0       0       0       0       0       0       0       0       0       0
       0       0       0       0       0       0       0       0       0       0
       0       0       0       0       0       0       0       0       0       0
       0       0       0       0       0       0       0       0       0       0
       0       0       0       0       0       0       0       0       0       0
       0       0       0       0       0       0       0       0       0       0
       0       0       0       0       0       0       0       0       0       0
       0       0       0       0       0       0       0       0       0       0
       0       0       0       0       0       0       0       0       0       0
       0       0       0       0       0       0       0       0       0       0
       0       0       0       0       0       0       0       0       0       0
       0       0       0       0       0       0       0       0       0       0
       0       0       0       0       0       0       0       0       0       0
       0       0       0       0       0       0       0       0       0       0
       0       0       0       0       0       0       0       0       0       0
       0       0       0       0       0       0       0       0       0       0
       0       0       0       0       0       0       0       0       0       0
       0       0       0       0       0       0       0       0       0       0
       0       0       0       0       0       0       0       0       0       0
       0       0       0       0       0       0       0       0       0       0
       0       0       0       0       0       0       0       0       0       0
       0       0       0       0       0       0       0       0       0       0
       0       0       0       0       0       0       0       0       0       0
       0       0       0       0       0       0       0       0       0       0
       0       0       0       0       0       0       0       0       0       0
       0       0       0       0       0       0       0       0       0       0
       0       0       0       0       0       0       0       0       0       0
       0       0       0       0       0       0       0       0       0       0
       0       0       0       0       0       0       0       0       0       0
       0       0       0       0       0       0       0       0       0       0
       0       0       0       0       0       0       0       0       0       0
       0       0       0       0       0       0       0       0       0       0
       0       0       0       0       0       0       0       0       0       0
       0       0       0       0       0       0       0       0       0       0
       0       0       0       0       0       0       0       0       0       0
       0       0       0       0       0       0       0       0       0       0
       0       0       0       0       0       0       0       0       0       0
       0       0       0       0       0       0       0       0       0       0
       0       0       0       0       0       0       0       0       0       0
       0       0       0       0       0       0       0       0       0       0
       0       0       0       0       0       0       0       0       0       0
       0       0       0       0       0       0       0       0       0       0
       0       0       0       0       0       0       0       0       0       0
       0       0       0       0       0       0       0       0       0       0
       0       0       0       0       0       0       0       0       0       0
       0       0       0       0       0       0       0       0       0       0
       0       0       0       0       0       0       0       0       0       0
       0       0       0       0       0       0       0       0       0       0
       0       0       0       0       0       0       0       0       0       0
       0       0       0       0       0       0       0       0       0       0
       0       0       0       0       0       0       0       0       0       0
       0       0       0       0       0       0       0       0       0       0
       0       0       0       0       0       0       0       0       0       0
       0       0       0       0       0       0       0       0       0       0
       0       0       0       0       0       0       0       0       0       0
       0       0       0       0       0       0       0       0       0       0
       0       0       0       0       0       0       0       0       0       0
       0       0       0       0       0       0       0       0       0       0
       0       0       0       0       0       0       0       0       0       0
       0       0       0       0       0       0       0       0       0       0
       0       0       0       0       0       0       0       0       0       0
       0       0       0       0       0       0       0       0       0       0
       0       0       0       0       0       0       0       0       0       0
       0       0       0       0       0       0       0       0       0       0
       0       0       0       0       0       0       0       0       0       0
       0       0       0       0       0       0       0       0       0       0
       0       0       0       0       0       0       0       0       0       0
       0       0       0       0       0       0       0       0       0       0
       0       0       0       0       0       0       0       0       0       0
       0       0       0       0       0       0       0       0       0       0
       0       0       0       0       0       0       0       0       0       0
       0       0       0       0       0       0       0       0       0       0
       0       0       0       0       0       0       0       0       0       0
       0       0       0       0       0       0       0       0       0       0
       0       0       0       0       0       0       0       0       0       0
       0       0       0       0       0       0       0       0       0       0
       0       0       0       0       0       0       0       0       0       0
       0       0       0       0       0       0       0       0       0       0
       0       0       0       0       0       0       0       0       0       0
       0       0       0       0       0       0       0       0       0       0
       0       0       0       0       0       0       0       0       0       0
       0       0       0       0       0       0       0       0       0       0
       0       0       0       0       0       0       0       0       0       0
       0       0       0       0       0       0       0       0       0       0
       0       0       0       0       0       0       0       0       0       0
       0       0       0       0       0       0       0       0       0       0
       0       0       0       0       0       0       0       0       0       0
       0       0       0       0       0       0       0       0       0       0
       0       0       0       0       0       0       0       0       0       0
       0       0       0       0       0       0       0       0       0       0
       0       0       0       0       0       0       0       0       0       0
       0       0       0       0       0       0       0       0       0       0
       0       0       0       0       0       0       0       0       0       0
       0       0       0       0       0       0       0       0       0       0
       0       0       0       0       0       0       0       0       0       0
       0       0       0       0       0       0       0       0       0       0
       0       0       0       0       0       0       0       0       0       0
       0       0       0       0       0       0       0       0       0       0
       0       0       0       0       0       0       0       0       0       0
       0       0       0       0       0       0       0       0       0       0
       0       0       0       0       0       0       0       0       0       0
       0       0       0       0       0       0       0       0       0       0
       0       0       0       0       0       0       0       0       0       0
       0       0       0       0       0       0       0       0       0       0
       0       0       0       0       0       0       0       0       0       0
       0       0       0       0       0       0       0       0       0       0
       0       0       0       0       0       0       0       0       0       0
       0       0       0       0       0       0       0       0       0       0
       0       0       0       0       0       0       0       0       0       0
       0       0       0       0       0       0       0       0       0       0
       0       0       0       0       0       0       0       0       0       0
       0       0       0       0       0       0       0       0       0       0
       0       0       0       0       0       0       0       0       0       0
       0       0       0       0       0       0       0       0       0       0
       0       0       0       0       0       0       0       0       0       0
       0       0       0       0       0       0       0       0       0       0
       0       0       0       0       0       0       0       0       0       0
       0       0       0       0       0       0       0       0       0       0
       0       0       0       0       0       0       0       0       0       0
       0       0       0       0       0       0       0       0       0       0
       0       0       0       0       0       0       0       0       0       0
       0       0       0       0       0       0       0       0       0       0
       0       0       0       0       0       0       0       0       0       0
       0       0       0       0       0       0       0       0       0       0
       0       0       0       0       0       0       0       0       0       0
       0       0       0       0       0       0       0       0       0       0
       0       0       0       0       0       0       0       0       0       0
       0       0       0       0       0       0       0       0       0       0
       0       0       0       0       0       0       0       0       0       0
       0       0       0       0       0       0       0       0       0       0
       0       0       0       0       0       0       0       0       0       0
       0       0       0       0       0       0       0       0       0       0
       0       0       0       0       0       0       0       0       0       0
       0       0       0       0       0       0       0       0       0       0
       0       0       0       0       0       0       0       0       0       0
       0       0       0       0       0       0       0       0       0       0
       0       0       0       0       0       0       0       0       0       0
       0       0       0       0       0       0       0       0       0       0
       0       0       0       0       0       0       0       0       0       0
       0       0       0       0       0       0       0       0       0       0
       0       0       0       0       0       0       0       0       0       0
       0       0       0       0       0       0       0       0       0       0
       0       0       0       0       0       0       0       0       0       0
       0       0       0       0       0       0       0       0       0       0
       0       0       0       0       0       0       0       0       0       0
       0       0       0       0       0       0       0       0       0       0
       0       0       0       0       0       0       0       0       0       0
       0       0       0       0       0       0       0       0       0       0
       0       0       0       0       0       0       0       0       0       0
       0       0       0       0       0       0       0       0       0       0
       0       0       0       0       0       0       0       0       0       0
       0       0       0       0       0       0       0       0       0       0
       0       0       0       0       0       0       0       0       0       0
       0       0       0       0       0       0       0       0       0       0
       0       0       0       0       0       0       0       0       0       0
       0       0       0       0       0       0       0       0       0       0
       0       0       0       0       0       0       0       0       0       0
       0       0       0       0       0       0       0       0       0       0
       0       0       0       0       0       0       0       0       0       0
       0       0       0       0       0       0       0       0       0       0
       0       0       0       0       0       0       0       0       0       0
       0       0       0       0       0       0       0       0       0       0
       0       0       0       0       0       0       0       0       0       0
       0       0       0       0       0       0       0       0       0       0
       0       0       0       0       0       0       0       0       0       0
       0       0       0       0       0       0       0       0       0       0
       0       0       0       0       0       0       0       0       0       0
       0       0       0       0       0       0       0       0       0       0
       0       0       0       0       0       0       0       0       0       0
       0       0       0       0       0       0       0       0       0       0
       0       0       0       0       0       0       0       0       0       0
       0       0       0       0       0       0       0       0       0       0
       0       0       0       0       0       0       0       0       0       0
       0       0       0       0       0       0       0       0       0       0
       0       0       0       0       0       0       0       0       0       0
       0       0       0       0       0       0       0       0       0       0
       0       0       0       0       0       0       0       0       0       0
       0       0       0       0       0       0       0       0       0       0
       0       0       0       0       0       0       0       0       0       0
       0       0       0       0       0       0       0       0       0       0
       0       0       0       0       0       0       0       0       0       0
       0       0       0       0       0       0       0       0       0       0
       0       0       0       0       0       0       0       0       0       0
       0       0       0       0       0       0       0       0       0       0
       0       0       0       0       0       0       0       0       0       0
       0       0       0       0       0       0       0       0       0       0
       0       0       0       0       0       0       0       0       0       0
       0       0       0       0       0       0       0       0       0       0
       0       0       0       0       0       0       0       0       0       0
       0       0       0       0       0       0       0       0       0       0
       0       0       0       0       0       0       0       0       0       0
       0       0       0       0       0       0       0       0       0       0
       0       0       0       0       0       0       0       0       0       0
       0       0       0       0       0       0       0       0       0       0
       0       0       0       0       0       0       0       0       0       0
       0       0       0       0       0       0       0       0       0       0
       0       0       0       0       0       0       0       0       0       0
       0       0       0       0       0       0       0       0       0       0
       0       0       0       0       0       0       0       0       0       0
       0       0       0       0       0       0       0       0       0       0
       0       0       0       0       0       0       0       0       0       0
       0       0       0       0       0       0       0       0       0       0
       0       0       0       0       0       0       0       0       0       0
       0       0       0       0       0       0       0       0       0       0
       0       0       0       0       0       0       0       0       0       0
       0       0       0       0       0       0       0       0       0       0
       0       0       0       0       0       0       0       0       0       0
       0       0       0       0       0       0       0       0       0       0
       0       0       0       0       0       0       0       0       0       0
       0       0       0       0       0       0       0       0       0       0
       0       0       0       0       0       0       0       0       0       0
       0       0       0       0       0       0       0       0       0       0
       0       0       0       0       0       0       0       0       0       0
       0       0       0       0       0       0       0       0       0       0
       0       0       0       0       0       0       0       0       0       0
       0       0       0       0       0       0       0       0       0       0
       0       0       0       0       0       0       0       0       0       0
       0       0       0       0       0       0       0       0       0       0
       0       0       0       0       0       0       0       0       0       0
       0       0       0       0       0       0       0       0       0       0
       0       0       0       0       0       0       0       0       0       0
       0       0       0       0       0       0       0       0       0       0
       0       0       0       0       0       0       0       0       0       0
       0       0       0       0       0       0       0       0       0       0
       0       0       0       0       0       0       0       0       0       0
       0       0       0       0       0       0       0       0       0       0
       0       0       0       0       0       0       0       0       0       0
       0       0       0       0       0       0       0       0       0       0
       0       0       0       0       0       0       0       0       0       0
       0       0       0       0       0       0       0       0       0       0
       0       0       0       0       0       0       0       0       0       0
       0       0       0       0       0       0       0       0       0       0
       0       0       0       0       0       0       0       0       0       0
       0       0       0       0       0       0       0       0       0       0
       0       0       0       0       0       0       0       0       0       0
       0       0       0       0       0       0       0       0       0       0
       0       0       0       0       0       0       0       0       0       0
       0       0       0       0       0       0       0       0       0       0
       0       0       0       0       0       0       0       0       0       0
       0       0       0       0       0       0       0       0       0       0
       0       0       0       0       0       0       0       0       0       0
       0       0       0       0       0       0       0       0       0       0
       0       0       0       0       0       0       0       0       0       0
       0       0       0       0       0       0       0       0       0       0
       0       0       0       0       0       0       0       0       0       0
       0       0       0       0       0       0       0       0       0       0
       0       0       0       0       0       0       0       0       0       0
       0       0       0       0       0       0       0       0       0       0
       0       0       0       0       0       0       0       0       0       0
       0       0       0       0       0       0       0       0       0       0
       0       0       0       0       0       0       0       0       0       0
       0       0       0       0       0       0       0       0       0       0
       0       0       0       0       0       0       0       0       0       0
       0       0       0       0       0       0       0       0       0       0
       0       0       0       0       0       0       0       0       0       0
       0       0       0       0       0       0       0       0       0       0
       0       0       0       0       0       0       0       0       0       0
       0       0       0       0       0       0       0       0       0       0
       0       0       0       0       0       0       0       0       0       0
       0       0       0       0       0       0       0       0       0       0
       0       0       0       0       0       0       0       0       0       0
       0       0       0       0       0       0       0       0       0       0
       0       0       0       0       0       0       0       0       0       0
       0       0       0       0       0       0       0       0       0       0
       0       0       0       0       0       0       0       0       0       0
       0       0       0       0       0       0       0       0       0       0
       0       0       0       0       0       0       0       0       0       0
       0       0       0       0       0       0       0       0       0       0
       0       0       0       0       0       0       0       0       0       0
       0       0       0       0       0       0       0       0       0       0
       0       0       0       0       0       0       0       0       0       0
       0       0       0       0       0       0       0       0       0       0
       0       0       0       0       0       0       0       0       0       0
       0       0       0       0       0       0       0       0       0       0
       0       0       0       0       0       0       0       0       0       0
       0       0       0       0       0       0       0       0       0       0
       0       0       0       0       0       0       0       0       0       0
       0       0       0       0       0       0       0       0       0       0
       0       0       0       0       0       0       0       0       0       0
       0       0       0       0       0       0       0       0       0       0
       0       0       0       0       0       0       0       0       0       0
       0       0       0       0       0       0       0       0       0       0
       0       0       0       0       0       0       0       0       0       0
       0       0       0       0       0       0       0       0       0       0
       0       0       0       0       0       0       0       0       0       0
       0       0       0       0       0       0       0       0       0       0
       0       0       0       0       0       0       0       0       0       0
       0       0       0       0       0       0       0       0       0       0
       0       0       0       0       0       0       0       0       0       0
       0       0       0       0       0       0       0       0       0       0
       0       0       0       0       0       0       0       0       0       0
       0       0       0       0       0       0       0       0       0       0
       0       0       0       0       0       0       0       0       0       0
       0       0       0       0       0       0       0       0       0       0
       0       0       0       0       0       0       0       0       0       0
       0       0       0       0       0       0       0       0       0       0
       0       0       0       0       0       0       0       0       0       0
       0       0       0       0       0       0       0       0       0       0
       0       0       0       0       0       0       0       0       0       0
       0       0       0       0       0       0       0       0       0       0
       0       0       0       0       0       0       0       0       0       0
       0       0       0       0       0       0       0       0       0       0
       0       0       0       0       0       0       0       0       0       0
       0       0       0       0       0       0       0       0       0       0
       0       0       0       0       0       0       0       0       0       0
       0       0       0       0       0       0       0       0       0       0
       0       0       0       0       0       0       0       0       0       0
       0       0       0       0       0       0       0       0       0       0
       0       0       0       0       0       0       0       0       0       0
       0       0       0       0       0       0       0       0       0       0
       0       0       0       0       0       0       0       0       0       0
       0       0       0       0       0       0       0       0       0       0
       0       0       0       0       0       0       0       0       0       0
       0       0       0       0       0       0       0       0       0       0
       0       0       0       0       0       0       0       0       0       0
       0       0       0       0       0       0       0       0       0       0
       0       0       0       0       0       0       0       0       0       0
       0       0       0       0       0       0       0       0       0       0
       0       0       0       0       0       0       0       0       0       0
       0       0       0       0       0       0       0       0       0       0
       0       0       0       0       0       0       0       0       0       0
       0       0       0       0       0       0       0       0       0       0
       0       0       0       0       0       0       0       0       0       0
       0       0       0       0       0       0       0       0       0       0
       0       0       0       0       0       0       0       0       0       0
       0       0       0       0       0       0       0       0       0       0
       0       0       0       0       0       0       0       0       0       0
       0       0       0       0       0       0       0       0       0       0
       0       0       0       0       0       0       0       0       0       0
       0       0       0       0       0       0       0       0       0       0
       0       0       0       0       0       0       0       0       0       0
       0       0       0       0       0       0       0       0       0       0
       0       0       0       0       0       0       0       0       0       0
       0       0       0       0       0       0       0       0       0       0
       0       0       0       0       0       0       0       0       0       0
       0       0       0       0       0       0       0       0       0       0
       0       0       0       0       0       0       0       0       0       0
       0       0       0       0       0       0       0       0       0       0
       0       0       0       0       0       0       0       0       0       0
       0       0       0       0       0       0       0       0       0       0
       0       0       0       0       0       0       0       0       0       0
       0       0       0       0       0       0       0       0       0       0
       0       0       0       0       0       0       0       0       0       0
       0       0       0       0       0       0       0       0       0       0
       0       0       0       0       0       0       0       0       0       0
       0       0       0       0       0       0       0       0       0       0
       0       0       0       0       0       0       0       0       0       0
       0       0       0       0       0       0       0       0       0       0
       0       0       0       0       0       0       0       0       0       0
       0       0       0       0       0       0       0       0       0       0
       0       0       0       0       0       0       0       0       0       0
       0       0       0       0       0       0       0       0       0       0
       0       0       0       0       0       0       0       0       0       0
       0       0       0       0       0       0       0       0       0       0
       0       0       0       0       0       0       0       0       0       0
       0       0       0       0       0       0       0       0       0       0
       0       0       0       0       0       0       0       0       0       0
       0       0       0       0       0       0       0       0       0       0
       0       0       0       0       0       0       0       0       0       0
       0       0       0       0       0       0       0       0       0       0
       0       0       0       0       0       0       0       0       0       0
       0       0       0       0       0       0       0       0       0       0
       0       0       0       0       0       0       0       0       0       0
       0       0       0       0       0       0       0       0       0       0
       0       0       0       0       0       0       0       0       0       0
       0       0       0       0       0       0       0       0       0       0
       0       0       0       0       0       0       0       0       0       0
       0       0       0       0       0       0       0       0       0       0
       0       0       0       0       0       0       0       0       0       0
       0       0       0       0       0       0       0       0       0       0
       0       0       0       0       0       0       0       0       0       0
       0       0       0       0       0       0       0       0       0       0
       0       0       0       0       0       0       0       0       0       0
       0       0       0       0       0       0       0       0       0       0
       0       0       0       0       0       0       0       0       0       0
       0       0       0       0       0       0       0       0       0       0
       0       0       0       0       0       0       0       0       0       0
       0       0       0       0       0       0       0       0       0       0
       0       0       0       0       0       0       0       0       0       0
       0       0       0       0       0       0       0       0       0       0
       0       0       0       0       0       0       0       0       0       0
       0       0       0       0       0       0       0       0       0       0
       0       0       0       0       0       0       0       0       0       0
       0       0       0       0       0       0       0       0       0       0
       0       0       0       0       0       0       0       0       0       0
       0       0       0       0       0       0       0       0       0       0
       0       0       0       0       0       0       0       0       0       0
       0       0       0       0       0       0       0       0       0       0
       0       0       0       0       0       0       0       0       0       0
       0       0       0       0       0       0       0       0       0       0
       0       0       0       0       0       0       0       0       0       0
       0       0       0       0       0       0       0       0       0       0
       0       0       0       0       0       0       0       0       0       0
       0       0       0       0       0       0       0       0       0       0
       0       0       0       0       0       0       0       0       0       0
       0       0       0       0       0       0       0       0       0       0
       0       0       0       0       0       0       0       0       0       0
       0       0       0       0       0       0       0       0       0       0
       0       0       0       0       0       0       0       0       0       0
       0       0       0       0       0       0       0       0       0       0
       0       0       0       0       0       0       0       0       0       0
       0       0       0       0       0       0       0       0       0       0
       0       0       0       0       0       0       0       0       0       0
       0       0       0       0       0       0       0       0       0       0
       0       0       0       0       0       0       0       0       0       0
       0       0       0       0       0       0       0       0       0       0
       0       0       0       0       0       0       0       0       0       0
       0       0       0       0       0       0       0       0       0       0
       0       0       0       0       0       0       0       0       0       0
       0       0       0       0       0       0       0       0       0       0
       0       0       0       0       0       0       0       0       0       0
       0       0       0       0       0       0       0       0       0       0
       0       0       0       0       0       0       0       0       0       0
       0       0       0       0       0       0       0       0       0       0
       0       0       0       0       0       0       0       0       0       0
       0       0       0       0       0       0       0       0       0       0
       0       0       0       0       0       0       0       0       0       0
       0       0       0       0       0       0       0       0       0       0
       0       0       0       0       0       0       0       0       0       0
       0       0       0       0       0       0       0       0       0       0
       0       0       0       0       0       0       0       0       0       0
       0       0       0       0       0       0       0       0       0       0
       0       0       0       0       0       0       0       0       0       0
       0       0       0       0       0       0       0       0       0       0
       0       0       0       0       0       0       0       0       0       0
       0       0       0       0       0       0       0       0       0       0
       0       0       0       0       0       0       0       0       0       0
       0       0       0       0       0       0       0       0       0       0
       0       0       0       0       0       0       0       0       0       0
       0       0       0       0       0       0       0       0       0       0
       0       0       0       0       0       0       0       0       0       0
       0       0       0       0       0       0       0       0       0       0
       0       0       0       0       0       0       0       0       0       0
       0       0       0       0       0       0       0       0       0       0
       0       0       0       0       0       0       0       0       0       0
       0       0       0       0       0       0       0       0       0       0
       0       0       0       0       0       0       0       0       0       0
       0       0       0       0       0       0       0       0       0       0
       0       0       0       0       0       0       0       0       0       0
       0       0       0       0       0       0       0       0       0       0
       0       0       0       0       0       0       0       0       0       0
       0       0       0       0       0       0       0       0       0       0
       0       0       0       0       0       0       0       0       0       0
       0       0       0       0       0       0       0       0       0       0
       0       0       0       0       0       0       0       0       0       0
       0       0       0       0       0       0       0       0       0       0
       0       0       0       0       0       0       0       0       0       0
       0       0       0       0       0       0       0       0       0       0
       0       0       0       0       0       0       0       0       0       0
       0       0       0       0       0       0       0       0       0       0
       0       0       0       0       0       0       0       0       0       0
       0       0       0       0       0       0       0       0       0       0
       0       0       0       0       0       0       0       0       0       0
       0       0       0       0       0       0       0       0       0       0
       0       0       0       0       0       0       0       0       0       0
       0       0       0       0       0       0       0       0       0       0
       0       0       0       0       0       0       0       0       0       0
       0       0       0       0       0       0       0       0       0       0
       0       0       0       0       0       0       0       0       0       0
       0       0       0       0       0       0       0       0       0       0
       0       0       0       0       0       0       0       0       0       0
       0       0       0       0       0       0       0       0       0       0
       0       0       0       0       0       0       0       0       0       0
       0       0       0       0       0       0       0       0       0       0
       0       0       0       0       0       0       0       0       0       0
       0       0       0       0       0       0       0       0       0       0
       0       0       0       0       0       0       0       0       0       0
       0       0       0       0       0       0       0       0       0       0
       0       0       0       0       0       0       0       0       0       0
       0       0       0       0       0       0       0       0       0       0
       0       0       0       0       0       0       0       0       0       0
       0       0       0       0       0       0       0       0       0       0
       0       0       0       0       0       0       0       0       0       0
       0       0       0       0       0       0       0       0       0       0
       0       0       0       0       0       0       0       0       0       0
       0       0       0       0       0       0       0       0       0       0
       0       0       0       0       0       0       0       0       0       0
       0       0       0       0       0       0       0       0       0       0
       0       0       0       0       0       0       0       0       0       0
       0       0       0       0       0       0       0       0       0       0
       0       0       0       0       0       0       0       0       0       0
       0       0       0       0       0       0       0       0       0       0
       0       0       0       0       0       0       0       0       0       0
       0       0       0       0       0       0       0       0       0       0
       0       0       0       0       0       0       0       0       0       0
       0       0       0       0       0       0       0       0       0       0
       0       0       0       0       0       0       0       0       0       0
       0       0       0       0       0       0       0       0       0       0
       0       0       0       0       0       0       0       0       0       0
       0       0       0       0       0       0       0       0       0       0
       0       0       0       0       0       0       0       0       0       0
       0       0       0       0       0       0       0       0       0       0
       0       0       0       0       0       0       0       0       0       0
       0       0       0       0       0       0       0       0       0       0
       0       0       0       0       0       0       0       0       0       0
       0       0       0       0       0       0       0       0       0       0
       0       0       0       0       0       0       0       0       0       0
       0       0       0       0       0       0       0       0       0       0
       0       0       0       0       0       0       0       0       0       0
       0       0       0       0       0       0       0       0       0       0
       0       0       0       0       0       0       0       0       0       0
       0       0       0       0       0       0       0       0       0       0
       0       0       0       0       0       0       0       0       0       0
       0       0       0       0       0       0       0       0       0       0
       0       0       0       0       0       0       0       0       0       0
       0       0       0       0       0       0       0       0       0       0
       0       0       0       0       0       0       0       0       0       0
       0       0       0       0       0       0       0       0       0       0
       0       0       0       0       0       0       0       0       0       0
       0       0       0       0       0       0       0       0       0       0
       0       0       0       0       0       0       0       0       0       0
       0       0       0       0       0       0       0       0       0       0
       0       0       0       0       0       0       0       0       0       0
       0       0       0       0       0       0       0       0       0       0
       0       0       0       0       0       0       0       0       0       0
       0       0       0       0       0       0       0       0       0       0
       0       0       0       0       0       0       0       0       0       0
       0       0       0       0       0       0       0       0       0       0
       0       0       0       0       0       0       0       0       0       0
       0       0       0       0       0       0       0       0       0       0
       0       0       0       0       0       0       0       0       0       0
       0       0       0       0       0       0       0       0       0       0
       0       0       0       0       0       0       0       0       0       0
       0       0       0       0       0       0       0       0       0       0
       0       0       0       0       0       0       0       0       0       0
       0       0       0       0       0       0       0       0       0       0
       0       0       0       0       0       0       0       0       0       0
       0       0       0       0       0       0       0       0       0       0
       0       0       0       0       0       0       0       0       0       0
       0       0       0       0       0       0       0       0       0       0
       0       0       0       0       0       0       0       0       0       0
       0       0       0       0       0       0       0       0       0       0
       0       0       0       0       0       0       0       0       0       0
       0       0       0       0       0       0       0       0       0       0
       0       0       0       0       0       0       0       0       0       0
       0       0       0       0       0       0       0       0       0       0
       0       0       0       0       0       0       0       0       0       0
       0       0       0       0       0       0       0       0       0       0
       0       0       0       0       0       0       0       0       0       0
       0       0       0       0       0       0       0       0       0       0
       0       0       0       0       0       0       0       0       0       0
       0       0       0       0       0       0       0       0       0       0
       0       0       0       0       0       0       0       0       0       0
       0       0       0       0       0       0       0       0       0       0
       0       0       0       0       0       0       0       0       0       0
       0       0       0       0       0       0       0       0       0       0
       0       0       0       0       0       0       0       0       0       0
       0       0       0       0       0       0       0       0       0       0
       0       0       0       0       0       0       0       0       0       0
       0       0       0       0       0       0       0       0       0       0
       0       0       0       0       0       0       0       0       0       0
       0       0       0       0       0       0       0       0       0       0
       0       0       0       0       0       0       0       0       0       0
       0       0       0       0       0       0       0       0       0       0
       0       0       0       0       0       0       0       0       0       0
       0       0       0       0       0       0       0       0       0       0
       0       0       0       0       0       0       0       0       0       0
       0       0       0       0       0       0       0       0       0       0
       0       0       0       0       0       0       0       0       0       0
       0       0       0       0       0       0       0       0       0       0
       0       0       0       0       0       0       0       0       0       0
       0       0       0       0       0       0       0       0       0       0
       0       0       0       0       0       0       0       0       0       0
       0       0       0       0       0       0       0       0       0       0
       0       0       0       0       0       0       0       0       0       0
       0       0       0       0       0       0       0       0       0       0
       0       0       0       0       0       0       0       0       0       0
       0       0       0       0       0       0       0       0       0       0
       0       0       0       0       0       0       0       0       0       0
       0       0       0       0       0       0       0       0       0       0
       0       0       0       0       0       0       0       0       0       0
       0       0       0       0       0       0       0       0       0       0
       0       0       0       0       0       0       0       0       0       0
       0       0       0       0       0       0       0       0       0       0
       0       0       0       0       0       0       0       0       0       0
       0       0       0       0       0       0       0       0       0       0
       0       0       0       0       0       0       0       0       0       0
       0       0       0       0       0       0       0       0       0       0
       0       0       0       0       0       0       0       0       0       0
       0       0       0       0       0       0       0       0       0       0
       0       0       0       0       0       0       0       0       0       0
       0       0       0       0       0       0       0       0       0       0
       0       0       0       0       0       0       0       0       0       0
       0       0       0       0       0       0       0       0       0       0
       0       0       0       0       0       0       0       0       0       0
       0       0       0       0       0       0       0       0       0       0
       0       0       0       0       0       0       0       0       0       0
       0       0       0       0       0       0       0       0       0       0
       0       0       0       0       0       0       0       0       0       0
       0       0       0       0       0       0       0       0       0       0
       0       0       0       0       0       0       0       0       0       0
       0       0       0       0       0       0       0       0       0       0
       0       0       0       0       0       0       0       0       0       0
       0       0       0       0       0       0       0       0       0       0
       0       0       0       0       0       0       0       0       0       0
       0       0       0       0       0       0       0       0       0       0
       0       0       0       0       0       0       0       0       0       0
       0       0       0       0       0       0       0       0       0       0
       0       0       0       0       0       0       0       0       0       0
       0       0       0       0       0       0       0       0       0       0
       0       0       0       0       0       0       0       0       0       0
       0       0       0       0       0       0       0       0       0       0
       0       0       0       0       0       0       0       0       0       0
       0       0       0       0       0       0       0       0       0       0
       0       0       0       0       0       0       0       0       0       0
       0       0       0       0       0       0       0       0       0       0
       0       0       0       0       0       0       0       0       0       0
       0       0       0       0       0       0       0       0       0       0
       0       0       0       0       0       0       0       0       0       0
       0       0       0       0       0       0       0       0       0       0
       0       0       0       0       0       0       0       0       0       0
       0       0       0       0       0       0       0       0       0       0
       0       0       0       0       0       0       0       0       0       0
       0       0       0       0       0       0       0       0       0       0
       0       0       0       0       0       0       0       0       0       0
       0       0       0       0       0       0       0       0       0       0
       0       0       0       0       0       0       0       0       0       0
       0       0       0       0       0       0       0       0       0       0
       0       0       0       0       0       0       0       0       0       0
       0       0       0       0       0       0       0       0       0       0
       0       0       0       0       0       0       0       0       0       0
       0       0       0       0       0       0       0       0       0       0
       0       0       0       0       0       0       0       0       0       0
       0       0       0       0       0       0       0       0       0       0
       0       0       0       0       0       0       0       0       0       0
       0       0       0       0       0       0       0       0       0       0
       0       0       0       0       0       0       0       0       0       0
       0       0       0       0       0       0       0       0       0       0
       0       0       0       0       0       0       0       0       0       0
       0       0       0       0       0       0       0       0       0       0
       0       0       0       0       0       0       0       0       0       0
       0       0       0       0       0       0       0       0       0       0
       0       0       0       0       0       0       0       0       0       0
       0       0       0       0       0       0       0       0       0       0
       0       0       0       0       0       0       0       0       0       0
       0       0       0       0       0       0       0       0       0       0
       0       0       0       0       0       0       0       0       0       0
       0       0       0       0       0       0       0       0       0       0
       0       0       0       0       0       0       0       0       0       0
       0       0       0       0       0       0       0       0       0       0
       0       0       0       0       0       0       0       0       0       0
       0       0       0       0       0       0       0       0       0       0
       0       0       0       0       0       0       0       0       0       0
       0       0       0       0       0       0       0       0       0       0
       0       0       0       0       0       0       0       0       0       0
       0       0       0       0       0       0       0       0       0       0
       0       0       0       0       0       0       0       0       0       0
       0       0       0       0       0       0       0       0       0       0
       0       0       0       0       0       0       0       0       0       0
       0       0       0       0       0       0       0       0       0       0
       0       0       0       0       0       0       0       0       0       0
       0       0       0       0       0       0       0       0       0       0
       0       0       0       0       0       0       0       0       0       0
       0       0       0       0       0       0       0       0       0       0
       0       0       0       0       0       0       0       0       0       0
       0       0       0       0       0       0       0       0       0       0
       0       0       0       0       0       0       0       0       0       0
       0       0       0       0       0       0       0       0       0       0
       0       0       0       0       0       0       0       0       0       0
       0       0       0       0       0       0       0       0       0       0
       0       0       0       0       0       0       0       0       0       0
       0       0       0       0       0       0       0       0       0       0
       0       0       0       0       0       0       0       0       0       0
       0       0       0       0       0       0       0       0       0       0
       0       0       0       0       0       0       0       0       0       0
       0       0       0       0       0       0       0       0       0       0
       0       0       0       0       0       0       0       0       0       0
       0       0       0       0       0       0       0       0       0       0
       0       0       0       0       0       0       0       0       0       0
       0       0       0       0       0       0       0       0       0       0
       0       0       0       0       0       0       0       0       0       0
       0       0       0       0       0       0       0       0       0       0
       0       0       0       0       0       0       0       0       0       0
       0       0       0       0       0       0       0       0       0       0
       0       0       0       0       0       0       0       0       0       0
       0       0       0       0       0       0       0       0       0       0
       0       0       0       0       0       0       0       0       0       0
       0       0       0       0       0       0       0       0       0       0
       0       0       0       0       0       0       0       0       0       0
       0       0       0       0       0       0       0       0       0       0
       0       0       0       0       0       0       0       0       0       0
       0       0       0       0       0       0       0       0       0       0
       0       0       0       0       0       0       0       0       0       0
       0       0       0       0       0       0       0       0       0       0
       0       0       0       0       0       0       0       0       0       0
       0       0       0       0       0       0       0       0       0       0
       0       0       0       0       0       0       0       0       0       0
       0       0       0       0       0       0       0       0       0       0
       0       0       0       0       0       0       0       0       0       0
       0       0       0       0       0       0       0       0       0       0
       0       0       0       0       0       0       0       0       0       0
       0       0       0       0       0       0       0       0       0       0
       0       0       0       0       0       0       0       0       0       0
       0       0       0       0       0       0       0       0       0       0
       0       0       0       0       0       0       0       0       0       0
       0       0       0       0       0       0       0       0       0       0
       0       0       0       0       0       0       0       0       0       0
       0       0       0       0       0       0       0       0       0       0
       0       0       0       0       0       0       0       0       0       0
       0       0       0       0       0       0       0       0       0       0
       0       0       0       0       0       0       0       0       0       0
       0       0       0       0       0       0       0       0       0       0
       0       0       0       0       0       0       0       0       0       0
       0       0       0       0       0       0       0       0       0       0
       0       0       0       0       0       0       0       0       0       0
       0       0       0       0       0       0       0       0       0       0
       0       0       0       0       0       0       0       0       0       0
       0       0       0       0       0       0       0       0       0       0
       0       0       0       0       0       0       0       0       0       0
       0       0       0       0       0       0       0       0       0       0
       0       0       0       0       0       0       0       0       0       0
       0       0       0       0       0       0       0       0       0       0
       0       0       0       0       0       0       0       0       0       0
       0       0       0       0       0       0       0       0       0       0
       0       0       0       0       0       0       0       0       0       0
       0       0       0       0       0       0       0       0       0       0
       0       0       0       0       0       0       0       0       0       0
       0       0       0       0       0       0       0       0       0       0
       0       0       0       0       0       0       0       0       0       0
       0       0       0       0       0       0       0       0       0       0
       0       0       0       0       0       0       0       0       0       0
       0       0       0       0       0       0       0       0       0       0
       0       0       0       0       0       0       0       0       0       0
       0       0       0       0       0       0       0       0       0       0
       0       0       0       0       0       0       0       0       0       0
       0       0       0       0       0       0       0       0       0       0
       0       0       0       0       0       0       0       0       0       0
       0       0       0       0       0       0       0       0       0       0
       0       0       0       0       0       0       0       0       0       0
       0       0       0       0       0       0       0       0       0       0
       0       0       0       0       0       0       0       0       0       0
       0       0       0       0       0       0       0       0       0       0
       0       0       0       0       0       0       0       0       0       0
       0       0       0       0       0       0       0       0       0       0
       0       0       0       0       0       0       0       0       0       0
       0       0       0       0       0       0       0       0       0       0
       0       0       0       0       0       0       0       0       0       0
       0       0       0       0       0       0       0       0       0       0
       0       0       0       0       0       0       0       0       0       0
       0       0       0       0       0       0       0       0       0       0
       0       0       0       0       0       0       0       0       0       0
       0       0       0       0       0       0       0       0       0       0
       0       0       0       0       0       0       0       0       0       0
       0       0       0       0       0       0       0       0       0       0
       0       0       0       0       0       0       0       0       0       0
       0       0       0       0       0       0       0       0       0       0
       0       0       0       0       0       0       0       0       0       0
       0       0       0       0       0       0       0       0       0       0
       0       0       0       0       0       0       0       0       0       0
       0       0       0       0       0       0       0       0       0       0
       0       0       0       0       0       0       0       0       0       0
       0       0       0       0       0       0       0       0       0       0
       0       0       0       0       0       0       0       0       0       0
       0       0       0       0       0       0       0       0       0       0
       0       0       0       0       0       0       0       0       0       0
       0       0       0       0       0       0       0       0       0       0
       0       0       0       0       0       0       0       0       0       0
       0       0       0       0       0       0       0       0       0       0
       0       0       0       0       0       0       0       0       0       0
       0       0       0       0       0       0       0       0       0       0
       0       0       0       0       0       0       0       0       0       0
       0       0       0       0       0       0       0       0       0       0
       0       0       0       0       0       0       0       0       0       0
       0       0       0       0       0       0       0       0       0       0
       0       0       0       0       0       0       0       0       0       0
       0       0       0       0       0       0       0       0       0       0
       0       0       0       0       0       0       0       0       0       0
       0       0       0       0       0       0       0       0       0       0
       0       0       0       0       0       0       0       0       0       0
       0       0       0       0       0       0       0       0       0       0
       0       0       0       0       0       0       0       0       0       0
       0       0       0       0       0       0       0       0       0       0
       0       0       0       0       0       0       0       0       0       0
       0       0       0       0       0       0       0       0       0       0
       0       0       0       0       0       0       0       0       0       0
       0       0       0       0       0       0       0       0       0       0
       0       0       0       0       0       0       0       0       0       0
       0       0       0       0       0       0       0       0       0       0
       0       0       0       0       0       0       0       0       0       0
       0       0       0       0       0       0       0       0       0       0
       0       0       0       0       0       0       0       0       0       0
       0       0       0       0       0       0       0       0       0       0
       0       0       0       0       0       0       0       0       0       0
       0       0       0       0       0       0       0       0       0       0
       0       0       0       0       0       0       0       0       0       0
       0       0       0       0       0       0       0       0       0       0
       0       0       0       0       0       0       0       0       0       0
       0       0       0       0       0       0       0       0       0       0
       0       0       0       0       0       0       0       0       0       0
       0       0       0       0       0       0       0       0       0       0
       0       0       0       0       0       0       0       0       0       0
       0       0       0       0       0       0       0       0       0       0
       0       0       0       0       0       0       0       0       0       0
       0       0       0       0       0       0       0       0       0       0
       0       0       0       0       0       0       0       0       0       0
       0       0       0       0       0       0       0       0       0       0
       0       0       0       0       0       0       0       0       0       0
       0       0       0       0       0       0       0       0       0       0
       0       0       0       0       0       0       0       0       0       0
       0       0       0       0       0       0       0       0       0       0
       0       0       0       0       0       0       0       0       0       0
       0       0       0       0       0       0       0       0       0       0
       0       0       0       0       0       0       0       0       0       0
       0       0       0       0       0       0       0       0       0       0
       0       0       0       0       0       0       0       0       0       0
       0       0       0       0       0       0       0       0       0       0
       0       0       0       0       0       0       0       0       0       0
       0       0       0       0       0       0       0       0       0       0
       0       0       0       0       0       0       0       0       0       0
       0       0       0       0       0       0       0       0       0       0
       0       0       0       0       0       0       0       0       0       0
       0       0       0       0       0       0       0       0       0       0
       0       0       0       0       0       0       0       0       0       0
       0       0       0       0       0       0       0       0       0       0
       0       0       0       0       0       0       0       0       0       0
       0       0       0       0       0       0       0       0       0       0
       0       0       0       0       0       0       0       0       0       0
       0       0       0       0       0       0       0       0       0       0
       0       0       0       0       0       0       0       0       0       0
       0       0       0       0       0       0       0       0       0       0
       0       0       0       0       0       0       0       0       0       0
       0       0       0       0       0       0       0       0       0       0
       0       0       0       0       0       0       0       0       0       0
       0       0       0       0       0       0       0       0       0       0
       0       0       0       0       0       0       0       0       0       0
       0       0       0       0       0       0       0       0       0       0
       0       0       0       0       0       0       0       0       0       0
       0       0       0       0       0       0       0       0       0       0
       0       0       0       0       0       0       0       0       0       0
       0       0       0       0       0       0       0       0       0       0
       0       0       0       0       0       0       0       0       0       0
       0       0       0       0       0       0       0       0       0       0
       0       0       0       0       0       0       0       0       0       0
       0       0       0       0       0       0       0       0       0       0
       0       0       0       0       0       0       0       0       0       0
       0       0       0       0       0       0       0       0       0       0
       0       0       0       0       0       0       0       0       0       0
       0       0       0       0       0       0       0       0       0       0
       0       0       0       0       0       0       0       0       0       0
       0       0       0       0       0       0       0       0       0       0
       0       0       0       0       0       0       0       0       0       0
       0       0       0       0       0       0       0       0       0       0
       0       0       0       0       0       0       0       0       0       0
       0       0       0       0       0       0       0       0       0       0
       0       0       0       0       0       0       0       0       0       0
       0       0       0       0       0       0       0       0       0       0
       0       0       0       0       0       0       0       0       0       0
       0       0       0       0       0       0       0       0       0       0
       0       0       0       0       0       0       0       0       0       0
       0       0       0       0       0       0       0       0       0       0
       0       0       0       0       0       0       0       0       0       0
       0       0       0       0       0       0       0       0       0       0
       0       0       0       0       0       0       0       0       0       0
       0       0       0       0       0       0       0       0       0       0
       0       0       0       0       0       0       0       0       0       0
       0       0       0       0       0       0       0       0       0       0
       0       0       0       0       0       0       0       0       0       0
       0       0       0       0       0       0       0       0       0       0
       0       0       0       0       0       0       0       0       0       0
       0       0       0       0       0       0       0       0       0       0
       0       0       0       0       0       0       0       0       0       0
       0       0       0       0       0       0       0       0       0       0
       0       0       0       0       0       0       0       0       0       0
       0       0       0       0       0       0       0       0       0       0
       0       0       0       0       0       0       0       0       0       0
       0       0       0       0       0       0       0       0       0       0
       0       0       0       0       0       0       0       0       0       0
       0       0       0       0       0       0       0       0       0       0
       0       0       0       0       0       0       0       0       0       0
       0       0       0       0       0       0       0       0       0       0
       0       0       0       0       0       0       0       0       0       0
       0       0       0       0       0       0       0       0       0       0
       0       0       0       0       0       0       0       0       0       0
       0       0       0       0       0       0       0       0       0       0
       0       0       0       0       0       0       0       0       0       0
       0       0       0       0       0       0       0       0       0       0
       0       0       0       0       0       0       0       0       0       0
       0       0       0       0       0       0       0       0       0       0
       0       0       0       0       0       0       0       0       0       0
       0       0       0       0       0       0       0       0       0       0
       0       0       0       0       0       0       0       0       0       0
       0       0       0       0       0       0       0       0       0       0
       0       0       0       0       0       0       0       0       0       0
       0       0       0       0       0       0       0       0       0       0
       0       0       0       0       0       0       0       0       0       0
       0       0       0       0       0       0       0       0       0       0
       0       0       0       0       0       0       0       0       0       0
       0       0       0       0       0       0       0       0       0       0
       0       0       0       0       0       0       0       0       0       0
       0       0       0       0       0       0       0       0       0       0
       0       0       0       0       0       0       0       0       0       0
       0       0       0       0       0       0       0       0       0       0
       0       0       0       0       0       0       0       0       0       0
       0       0       0       0       0       0       0       0       0       0
       0       0       0       0       0       0       0       0       0       0
       0       0       0       0       0       0       0       0       0       0
       0       0       0       0       0       0       0       0       0       0
       0       0       0       0       0       0       0       0       0       0
       0       0       0       0       0       0       0       0       0       0
       0       0       0       0       0       0       0       0       0       0
       0       0       0       0       0       0       0       0       0       0
       0       0       0       0       0       0       0       0       0       0
       0       0       0       0       0       0       0       0       0       0
       0       0       0       0       0       0       0       0       0       0
       0       0       0       0       0       0       0       0       0       0
       0       0       0       0       0       0       0       0       0       0
       0       0       0       0       0       0       0       0       0       0
       0       0       0       0       0       0       0       0       0       0
       0       0       0       0       0       0       0       0       0       0
       0       0       0       0       0       0       0       0       0       0
       0       0       0       0       0       0       0       0       0       0
       0       0       0       0       0       0       0       0       0       0
       0       0       0       0       0       0       0       0       0       0
       0       0       0       0       0       0       0       0       0       0
       0       0       0       0       0       0       0       0       0       0
       0       0       0       0       0       0       0       0       0       0
       0       0       0       0       0       0       0       0       0       0
       0       0       0       0       0       0       0       0       0       0
       0       0       0       0       0       0       0       0       0       0
       0       0       0       0       0       0       0       0       0       0
       0       0       0       0       0       0       0       0       0       0
       0       0       0       0       0       0       0       0       0       0
       0       0       0       0       0       0       0       0       0       0
       0       0       0       0       0       0       0       0       0       0
       0       0       0       0       0       0       0       0       0       0
       0       0       0       0       0       0       0       0       0       0
       0       0       0       0       0       0       0       0       0       0
       0       0       0       0       0       0       0       0       0       0
       0       0       0       0       0       0       0       0       0       0
       0       0       0       0       0       0       0       0       0       0
       0       0       0       0       0       0       0       0       0       0
       0       0       0       0       0       0       0       0       0       0
       0       0       0       0       0       0       0       0       0       0
       0       0       0       0       0       0       0       0       0       0
       0       0       0       0       0       0       0       0       0       0
       0       0       0       0       0       0       0       0       0       0
       0       0       0       0       0       0       0       0       0       0
       0       0       0       0       0       0       0       0       0       0
       0       0       0       0       0       0       0       0       0       0
       0       0       0       0       0       0       0       0       0       0
       0       0       0       0       0       0       0       0       0       0
       0       0       0       0       0       0       0       0       0       0
       0       0       0       0       0       0       0       0       0       0
       0       0       0       0       0       0       0       0       0       0
       0       0       0       0       0       0       0       0       0       0
       0       0       0       0       0       0       0       0       0       0
       0       0       0       0       0       0       0       0       0       0
       0       0       0       0       0       0       0       0       0       0
       0       0       0       0       0       0       0       0       0       0
       0       0       0       0       0       0       0       0       0       0
       0       0       0       0       0       0       0       0       0       0
       0       0       0       0       0       0       0       0       0       0
       0       0       0       0       0       0       0       0       0       0
       0       0       0       0       0       0       0       0       0       0
       0       0       0       0       0       0       0       0       0       0
       0       0       0       0       0       0       0       0       0       0
       0       0       0       0       0       0       0       0       0       0
       0       0       0       0       0       0       0       0       0       0
       0       0       0       0       0       0       0       0       0       0
       0       0       0       0       0       0       0       0       0       0
       0       0       0       0       0       0       0       0       0       0
       0       0       0       0       0       0       0       0       0       0
       0       0       0       0       0       0       0       0       0       0
       0       0       0       0       0       0       0       0       0       0
       0       0       0       0       0       0       0       0       0       0
       0       0       0       0       0       0       0       0       0       0
       0       0       0       0       0       0       0       0       0       0
       0       0       0       0       0       0       0       0       0       0
       0       0       0       0       0       0       0       0       0       0
       0       0       0       0       0       0       0       0       0       0
       0       0       0       0       0       0       0       0       0       0
       0       0       0       0       0       0       0       0       0       0
       0       0       0       0       0       0       0       0       0       0
       0       0       0       0       0       0       0       0       0       0
       0       0       0       0       0       0       0       0       0       0
       0       0       0       0       0       0       0       0       0       0
       0       0       0       0       0       0       0       0       0       0
       0       0       0       0       0       0       0       0       0       0
       0       0       0       0       0       0       0       0       0       0
       0       0       0       0       0       0       0       0       0       0
       0       0       0       0       0       0       0       0       0       0
       0       0       0       0       0       0       0       0       0       0
       0       0       0       0       0       0       0       0       0       0
       0       0       0       0       0       0       0       0       0       0
       0       0       0       0       0       0       0       0       0       0
       0       0       0       0       0       0       0       0       0       0
       0       0       0       0       0       0       0       0       0       0
       0       0       0       0       0       0       0       0       0       0
       0       0       0       0       0       0       0       0       0       0
       0       0       0       0       0       0       0       0       0       0
       0       0       0       0       0       0       0       0       0       0
       0       0       0       0       0       0       0       0       0       0
       0       0       0       0       0       0       0       0       0       0
       0       0       0       0       0       0       0       0       0       0
       0       0       0       0       0       0       0       0       0       0
       0       0       0       0       0       0       0       0       0       0
       0       0       0       0       0       0       0       0       0       0
       0       0       0       0       0       0       0       0       0       0
       0       0       0       0       0       0       0       0       0       0
       0       0       0       0       0       0       0       0       0       0
       0       0       0       0       0       0       0       0       0       0
       0       0       0       0       0       0       0       0       0       0
       0       0       0       0       0       0       0       0       0       0
       0       0       0       0       0       0       0       0       0       0
       0       0       0       0       0       0       0       0       0       0
       0       0       0       0       0       0       0       0       0       0
       0       0       0       0       0       0       0       0       0       0
       0       0       0       0       0       0       0       0       0       0
       0       0       0       0       0       0       0       0       0       0
       0       0       0       0       0       0       0       0       0       0
       0       0       0       0       0       0       0       0       0       0
       0       0       0       0       0       0       0       0       0       0
       0       0       0       0       0       0       0       0       0       0
       0       0       0       0       0       0       0       0       0       0
       0       0       0       0       0       0       0       0       0       0
       0       0       0       0       0       0       0       0       0       0
       0       0       0       0       0       0       0       0       0       0
       0       0       0       0       0       0       0       0       0       0
       0       0       0       0       0       0       0       0       0       0
       0       0       0       0       0       0       0       0       0       0
       0       0       0       0       0       0       0       0       0       0
       0       0       0       0       0       0       0       0       0       0
       0       0       0       0       0       0       0       0       0       0
       0       0       0       0       0       0       0       0       0       0
       0       0       0       0       0       0       0       0       0       0
       0       0       0       0       0       0       0       0       0       0
       0       0       0       0       0       0       0       0       0       0
       0       0       0       0       0       0       0       0       0       0
       0       0       0       0       0       0       0       0       0       0
       0       0       0       0       0       0       0       0       0       0
       0       0       0       0       0       0       0       0       0       0
       0       0       0       0       0       0       0       0       0       0
       0       0       0       0       0       0       0       0       0       0
       0       0       0       0       0       0       0       0       0       0
       0       0       0       0       0       0       0       0       0       0
       0       0       0       0       0       0       0       0       0       0
       0       0       0       0       0       0       0       0       0       0
       0       0       0       0       0       0       0       0       0       0
       0       0       0       0       0       0       0       0       0       0
       0       0       0       0       0       0       0       0       0       0
       0       0       0       0       0       0       0       0       0       0
       0       0       0       0       0       0       0       0       0       0
       0       0       0       0       0       0       0       0       0       0
       0       0       0       0       0       0       0       0       0       0
       0       0       0       0       0       0       0       0       0       0
       0       0       0       0       0       0       0       0       0       0
       0       0       0       0       0       0       0       0       0       0
       0       0       0       0       0       0       0       0       0       0
       0       0       0       0       0       0       0       0       0       0
       0       0       0       0       0       0       0       0       0       0
       0       0       0       0       0       0       0       0       0       0
       0       0       0       0       0       0       0       0       0       0
       0       0       0       0       0       0       0       0       0       0
       0       0       0       0       0       0       0       0       0       0
       0       0       0       0       0       0       0       0       0       0
       0       0       0       0       0       0       0       0       0       0
       0       0       0       0       0       0       0       0       0       0
       0       0       0       0       0       0       0       0       0       0
       0       0       0       0       0       0       0       0       0       0
       0       0       0       0       0       0       0       0       0       0
       0       0       0       0       0       0       0       0       0       0
       0       0       0       0       0       0       0       0       0       0
       0       0       0       0       0       0       0       0       0       0
       0       0       0       0       0       0       0       0       0       0
       0       0       0       0       0       0       0       0       0       0
       0       0       0       0       0       0       0       0       0       0
       0       0       0       0       0       0       0       0       0       0
       0       0       0       0       0       0       0       0       0       0
       0       0       0       0       0       0       0       0       0       0
       0       0       0       0       0       0       0       0       0       0
       0       0       0       0       0       0       0       0       0       0
       0       0       0       0       0       0       0       0       0       0
       0       0       0       0       0       0       0       0       0       0
       0       0       0       0       0       0       0       0       0       0
       0       0       0       0       0       0       0       0       0       0
       0       0       0       0       0       0       0       0       0       0
       0       0       0       0       0       0       0       0       0       0
       0       0       0       0       0       0       0       0       0       0
       0       0       0       0       0       0       0       0       0       0
       0       0       0       0       0       0       0       0       0       0
       0       0       0       0       0       0       0       0       0       0
       0       0       0       0       0       0       0       0       0       0
       0       0       0       0       0       0       0       0       0       0
       0       0       0       0       0       0       0       0       0       0
       0       0       0       0       0       0       0       0       0       0
       0       0       0       0       0       0       0       0       0       0
       0       0       0       0       0       0       0       0       0       0
       0       0       0       0       0       0       0       0       0       0
       0       0       0       0       0       0       0       0       0       0
       0       0       0       0       0       0       0       0       0       0
       0       0       0       0       0       0       0       0       0       0
       0       0       0       0       0       0       0       0       0       0
       0       0       0       0       0       0       0       0       0       0
       0       0       0       0       0       0       0       0       0       0
       0       0       0       0       0       0       0       0       0       0
       0       0       0       0       0       0       0       0       0       0
       0       0       0       0       0       0       0       0       0       0
       0       0       0       0       0       0       0       0       0       0
       0       0       0       0       0       0       0       0       0       0
       0       0       0       0       0       0       0       0       0       0
       0       0       0       0       0       0       0       0       0       0
       0       0       0       0       0       0       0       0       0       0
       0       0       0       0       0       0       0       0       0       0
       0       0       0       0       0       0       0       0       0       0
       0       0       0       0       0       0       0       0       0       0
       0       0       0       0       0       0       0       0       0       0
       0       0       0       0       0       0       0       0       0       0
       0       0       0       0       0       0       0       0       0       0
       0       0       0       0       0       0       0       0       0       0
       0       0       0       0       0       0       0       0       0       0
       0       0       0       0       0       0       0       0       0       0
       0       0       0       0       0       0       0       0       0       0
       0       0       0       0       0       0       0       0       0       0
       0       0       0       0       0       0       0       0       0       0
       0       0       0       0       0       0       0       0       0       0
       0       0       0       0       0       0       0       0       0       0
       0       0       0       0       0       0       0       0       0       0
       0       0       0       0       0       0       0       0       0       0
       0       0       0       0       0       0       0       0       0       0
       0       0       0       0       0       0       0       0       0       0
       0       0       0       0       0       0       0       0       0       0
       0       0       0       0       0       0       0       0       0       0
       0       0       0       0       0       0       0       0       0       0
       0       0       0       0       0       0       0       0       0       0
       0       0       0       0       0       0       0       0       0       0
       0       0       0       0       0       0       0       0       0       0
       0       0       0       0       0       0       0       0       0       0
       0       0       0       0       0       0       0       0       0       0
       0       0       0       0       0       0       0       0       0       0
       0       0       0       0       0       0       0       0       0       0
       0       0       0       0       0       0       0       0       0       0
       0       0       0       0       0       0       0       0       0       0
       0       0       0       0       0       0       0       0       0       0
       0       0       0       0       0       0       0       0       0       0
       0       0       0       0       0       0       0       0       0       0
       0       0       0       0       0       0       0       0       0       0
       0       0       0       0       0       0       0       0       0       0
       0       0       0       0       0       0       0       0       0       0
       0       0       0       0       0       0       0       0       0       0
       0       0       0       0       0       0       0       0       0       0
       0       0       0       0       0       0       0       0       0       0
       0       0       0       0       0       0       0       0       0       0
       0       0       0       0       0       0       0       0       0       0
       0       0       0       0       0       0       0       0       0       0
       0       0       0       0       0       0       0       0       0       0
       0       0       0       0       0       0       0       0       0       0
       0       0       0       0       0       0       0       0       0       0
       0       0       0       0       0       0       0       0       0       0
       0       0       0       0       0       0       0       0       0       0
       0       0       0       0       0       0       0       0       0       0
       0       0       0       0       0       0       0       0       0       0
       0       0       0       0       0       0       0       0       0       0
       0       0       0       0       0       0       0       0       0       0
       0       0       0       0       0       0       0       0       0       0
       0       0       0       0       0       0       0       0       0       0
       0       0       0       0       0       0       0       0       0       0
       0       0       0       0       0       0       0       0       0       0
       0       0       0       0       0       0       0       0       0       0
       0       0       0       0       0       0       0       0       0       0
       0       0       0       0       0       0       0       0       0       0
       0       0       0       0       0       0       0       0       0       0
       0       0       0       0       0       0       0       0       0       0
       0       0       0       0       0       0       0       0       0       0
       0       0       0       0       0       0       0       0       0       0
       0       0       0       0       0       0       0       0       0       0
       0       0       0       0       0       0       0       0       0       0
       0       0       0       0       0       0       0       0       0       0
       0       0       0       0       0       0       0       0       0       0
       0       0       0       0       0       0       0       0       0       0
       0       0       0       0       0       0       0       0       0       0
       0       0       0       0       0       0       0       0       0       0
       0       0       0       0       0       0       0       0       0       0
       0       0       0       0       0       0       0       0       0       0
       0       0       0       0       0       0       0       0       0       0
       0       0       0       0       0       0       0       0       0       0
       0       0       0       0       0       0       0       0       0       0
       0       0       0       0       0       0       0       0       0       0
       0       0       0       0       0       0       0       0       0       0
       0       0       0       0       0       0       0       0       0       0
       0       0       0       0       0       0       0       0       0       0
       0       0       0       0       0       0       0       0       0       0
       0       0       0       0       0       0       0       0       0       0
       0       0       0       0       0       0       0       0       0       0
       0       0       0       0       0       0       0       0       0       0
       0       0       0       0       0       0       0       0       0       0
       0       0       0       0       0       0       0       0       0       0
       0       0       0       0       0       0       0       0       0       0
       0       0       0       0       0       0       0       0       0       0
       0       0       0       0       0       0       0       0       0       0
       0       0       0       0       0       0       0       0       0       0
       0       0       0       0       0       0       0       0       0       0
       0       0       0       0       0       0       0       0       0       0
       0       0       0       0       0       0       0       0       0       0
       0       0       0       0       0       0       0       0       0       0
       0       0       0       0       0       0       0       0       0       0
       0       0       0       0       0       0       0       0       0       0
       0       0       0       0       0       0       0       0       0       0
       0       0       0       0       0       0       0       0       0       0
       0       0       0       0       0       0       0       0       0       0
       0       0       0       0       0       0       0       0       0       0
       0       0       0       0       0       0       0       0       0       0
       0       0       0       0       0       0       0       0       0       0
       0       0       0       0       0       0       0       0       0       0
       0       0       0       0       0       0       0       0       0       0
       0       0       0       0       0       0       0       0       0       0
       0       0       0       0       0       0       0       0       0       0
       0       0       0       0       0       0       0       0       0       0
       0       0       0       0       0       0       0       0       0       0
       0       0       0       0       0       0       0       0       0       0
       0       0       0       0       0       0       0       0       0       0
       0       0       0       0       0       0       0       0       0       0
       0       0       0       0       0       0       0       0       0       0
       0       0       0       0       0       0       0       0       0       0
       0       0       0       0       0       0       0       0       0       0
       0       0       0       0       0       0       0       0       0       0
       0       0       0       0       0       0       0       0       0       0
       0       0       0       0       0       0       0       0       0       0
       0       0       0       0       0       0       0       0       0       0
       0       0       0       0       0       0       0       0       0       0
       0       0       0       0       0       0       0       0       0       0
       0       0       0       0       0       0       0       0       0       0
       0       0       0       0       0       0       0       0       0       0
       0       0       0       0       0       0       0       0       0       0
       0       0       0       0       0       0       0       0       0       0
       0       0       0       0       0       0       0       0       0       0
       0       0       0       0       0       0       0       0       0       0
       0       0       0       0       0       0       0       0       0       0
       0       0       0       0       0       0       0       0       0       0
       0       0       0       0       0       0       0       0       0       0
       0       0       0       0       0       0       0       0       0       0
       0       0       0       0       0       0       0       0       0       0
       0       0       0       0       0       0       0       0       0       0
       0       0       0       0       0       0       0       0       0       0
       0       0       0       0       0       0       0       0       0       0
       0       0       0       0       0       0       0       0       0       0
       0       0       0       0       0       0       0       0       0       0
       0       0       0       0       0       0       0       0       0       0
       0       0       0       0       0       0       0       0       0       0
       0       0       0       0       0       0       0       0       0       0
       0       0       0       0       0       0       0       0       0       0
       0       0       0       0       0       0       0       0       0       0
       0       0       0       0       0       0       0       0       0       0
       0       0       0       0       0       0       0       0       0       0
       0       0       0       0       0       0       0       0       0       0
       0       0       0       0       0       0       0       0       0       0
       0       0       0       0       0       0       0       0       0       0
       0       0       0       0       0       0       0       0       0       0
       0       0       0       0       0       0       0       0       0       0
       0       0       0       0       0       0       0       0       0       0
       0       0       0       0       0       0       0       0       0       0
       0       0       0       0       0       0       0       0       0       0
       0       0       0       0       0       0       0       0       0       0
       0       0       0       0       0       0       0       0       0       0
       0       0       0       0       0       0       0       0       0       0
       0       0       0       0       0       0       0       0       0       0
       0       0       0       0       0       0       0       0       0       0
       0       0       0       0       0       0       0       0       0       0
       0       0       0       0       0       0       0       0       0       0
       0       0       0       0       0       0       0       0       0       0
       0       0       0       0       0       0       0       0       0       0
       0       0       0       0       0       0       0       0       0       0
       0       0       0       0       0       0       0       0       0       0
       0       0       0       0       0       0       0       0       0       0
       0       0       0       0       0       0       0       0       0       0
       0       0       0       0       0       0       0       0       0       0
       0       0       0       0       0       0       0       0       0       0
       0       0       0       0       0       0       0       0       0       0
       0       0       0       0       0       0       0       0       0       0
       0       0       0       0       0       0       0       0       0       0
       0       0       0       0       0       0       0       0       0       0
       0       0       0       0       0       0       0       0       0       0
       0       0       0       0       0       0       0       0       0       0
       0       0       0       0       0       0       0       0       0       0
       0       0       0       0       0       0       0       0       0       0
       0       0       0       0       0       0       0       0       0       0
       0       0       0       0       0       0       0       0       0       0
       0       0       0       0       0       0       0       0       0       0
       0       0       0       0       0       0       0       0       0       0
       0       0       0       0       0       0       0       0       0       0
       0       0       0       0       0       0       0       0       0       0
       0       0       0       0       0       0       0       0       0       0
       0       0       0       0       0       0       0       0       0       0
       0       0       0       0       0       0       0       0       0       0
       0       0       0       0       0       0       0       0       0       0
       0       0       0       0       0       0       0       0       0       0
       0       0       0       0       0       0       0       0       0       0
       0       0       0       0       0       0       0       0       0       0
       0       0       0       0       0       0       0       0       0       0
       0       0       0       0       0       0       0       0       0       0
       0       0       0       0       0       0       0       0       0       0
       0       0       0       0       0       0       0       0       0       0
       0       0       0       0       0       0       0       0       0       0
       0       0       0       0       0       0       0       0       0       0
       0       0       0       0       0       0       0       0       0       0
       0       0       0       0       0       0       0       0       0       0
       0       0       0       0       0       0       0       0       0       0
       0       0       0       0       0       0       0       0       0       0
       0       0       0       0       0       0       0       0       0       0
       0       0       0       0       0       0       0       0       0       0
       0       0       0       0       0       0       0       0       0       0
       0       0       0       0       0       0       0       0       0       0
       0       0       0       0       0       0       0       0       0       0
       0       0       0       0       0       0       0       0       0       0
       0       0       0       0       0       0       0       0       0       0
       0       0       0       0       0       0       0       0       0       0
       0       0       0       0       0       0       0       0       0       0
       0       0       0       0       0       0       0       0       0       0
       0       0       0       0       0       0       0       0       0       0
       0       0       0       0       0       0       0       0       0       0
       0       0       0       0       0       0       0       0       0       0
       0       0       0       0       0       0       0       0       0       0
       0       0       0       0       0       0       0       0       0       0
       0       0       0       0       0       0       0       0       0       0
       0       0       0       0       0       0       0       0       0       0
       0       0       0       0       0       0       0       0       0       0
       0       0       0       0       0       0       0       0       0       0
       0       0       0       0       0       0       0       0       0       0
       0       0       0       0       0       0       0       0       0       0
       0       0       0       0       0       0       0       0       0       0
       0       0       0       0       0       0       0       0       0       0
       0       0       0       0       0       0       0       0       0       0
       0       0       0       0       0       0       0       0       0       0
       0       0       0       0       0       0       0       0       0       0
       0       0       0       0       0       0       0       0       0       0
       0       0       0       0       0       0       0       0       0       0
       0       0       0       0       0       0       0       0       0       0
       0       0       0       0       0       0       0       0       0       0
       0       0       0       0       0       0       0       0       0       0
       0       0       0       0       0       0       0       0       0       0
       0       0       0       0       0       0       0       0       0       0
       0       0       0       0       0       0       0       0       0       0
       0       0       0       0       0       0       0       0       0       0
       0       0       0       0       0       0       0       0       0       0
       0       0       0       0       0       0       0       0       0       0
       0       0       0       0       0       0       0       0       0       0
       0       0       0       0       0       0       0       0       0       0
       0       0       0       0       0       0       0       0       0       0
       0       0       0       0       0       0       0       0       0       0
       0       0       0       0       0       0       0       0       0       0
       0       0       0       0       0       0       0       0       0       0
       0       0       0       0       0       0       0       0       0       0
       0       0       0       0       0       0       0       0       0       0
       0       0       0       0       0       0       0       0       0       0
       0       0       0       0       0       0       0       0       0       0
       0       0       0       0       0       0       0       0       0       0
       0       0       0       0       0       0       0       0       0       0
       0       0       0       0       0       0       0       0       0       0
       0       0       0       0       0       0       0       0       0       0
       0       0       0       0       0       0       0       0       0       0
       0       0       0       0       0       0       0       0       0       0
       0       0       0       0       0       0       0       0       0       0
       0       0       0       0       0       0       0       0       0       0
       0       0       0       0       0       0       0       0       0       0
       0       0       0       0       0       0       0       0       0       0
       0       0       0       0       0       0       0       0       0       0
       0       0       0       0       0       0       0       0       0       0
       0       0       0       0       0       0       0       0       0       0
       0       0       0       0       0       0       0       0       0       0
       0       0       0       0       0       0       0       0       0       0
       0       0       0       0       0       0       0       0       0       0
       0       0       0       0       0       0       0       0       0       0
       0       0       0       0       0       0       0       0       0       0
       0       0       0       0       0       0       0       0       0       0
       0       0       0       0       0       0       0       0       0       0
       0       0       0       0       0       0       0       0       0       0
       0       0       0       0       0       0       0       0       0       0
       0       0       0       0       0       0       0       0       0       0
       0       0       0       0       0       0       0       0       0       0
       0       0       0       0       0       0       0       0       0       0
       0       0       0       0       0       0       0       0       0       0
       0       0       0       0       0       0       0       0       0       0
       0       0       0       0       0       0       0       0       0       0
       0       0       0       0       0       0       0       0       0       0
       0       0       0       0       0       0       0       0       0       0
       0       0       0       0       0       0       0       0       0       0
       0       0       0       0       0       0       0       0       0       0
       0       0       0       0       0       0       0       0       0       0
       0       0       0       0       0       0       0       0       0       0
       0       0       0       0       0       0       0       0       0       0
       0       0       0       0       0       0       0       0       0       0
       0       0       0       0       0       0       0       0       0       0
       0       0       0       0       0       0       0       0       0       0
       0       0       0       0       0       0       0       0       0       0
       0       0       0       0       0       0       0       0       0       0
       0       0       0       0       0       0       0       0       0       0
       0       0       0       0       0       0       0       0       0       0
       0       0       0       0       0       0       0       0       0       0
       0       0       0       0       0       0       0       0       0       0
       0       0       0       0       0       0       0       0       0       0
       0       0       0       0       0       0       0       0       0       0
       0       0       0       0       0       0       0       0       0       0
       0       0       0       0       0       0       0       0       0       0
       0       0       0       0       0       0       0       0       0       0
       0       0       0       0       0       0       0       0       0       0
       0       0       0       0       0       0       0       0       0       0
       0       0       0       0       0       0       0       0       0       0
       0       0       0       0       0       0       0       0       0       0
       0       0       0       0       0       0       0       0       0       0
       0       0       0       0       0       0       0       0       0       0
       0       0       0       0       0       0       0       0       0       0
       0       0       0       0       0       0       0       0       0       0
       0       0       0       0       0       0       0       0       0       0
       0       0       0       0       0       0       0       0       0       0
       0       0       0       0       0       0       0       0       0       0
       0       0       0       0       0       0       0       0       0       0
       0       0       0       0       0       0       0       0       0       0
       0       0       0       0       0       0       0       0       0       0
       0       0       0       0       0       0       0       0       0       0
       0       0       0       0       0       0       0       0       0       0
       0       0       0       0       0       0       0       0       0       0
       0       0       0       0       0       0       0       0       0       0
       0       0       0       0       0       0       0       0       0       0
       0       0       0       0       0       0       0       0       0       0
       0       0       0       0       0       0       0       0       0       0
       0       0       0       0       0       0       0       0       0       0
       0       0       0       0       0       0       0       0       0       0
       0       0       0       0       0       0       0       0       0       0
       0       0       0       0       0       0       0       0       0       0
       0       0       0       0       0       0       0       0       0       0
       0       0       0       0       0       0       0       0       0       0
       0       0       0       0       0       0       0       0       0       0
       0       0       0       0       0       0       0       0       0       0
       0       0       0       0       0       0       0       0       0       0
       0       0       0       0       0       0       0       0       0       0
       0       0       0       0       0       0       0       0       0       0
       0       0       0       0       0       0       0       0       0       0
       0       0       0       0       0       0       0       0       0       0
       0       0       0       0       0       0       0       0       0       0
       0       0       0       0       0       0       0       0       0       0
       0       0       0       0       0       0       0       0       0       0
       0       0       0       0       0       0       0       0       0       0
       0       0       0       0       0       0       0       0       0       0
       0       0       0       0       0       0       0       0       0       0
       0       0       0       0       0       0       0       0       0       0
       0       0       0       0       0       0       0       0       0       0
       0       0       0       0       0       0       0       0       0       0
       0       0       0       0       0       0       0       0       0       0
       0       0       0       0       0       0       0       0       0       0
       0       0       0       0       0       0       0       0       0       0
       0       0       0       0       0       0       0       0       0       0
       0       0       0       0       0       0       0       0       0       0
       0       0       0       0       0       0       0       0       0       0
       0       0       0       0       0       0       0       0       0       0
       0       0       0       0       0       0       0       0       0       0
       0       0       0       0       0       0       0       0       0       0
       0       0       0       0       0       0       0       0       0       0
       0       0       0       0       0       0       0       0       0       0
       0       0       0       0       0       0       0       0       0       0
       0       0       0       0       0       0       0       0       0       0
       0       0       0       0       0       0       0       0       0       0
       0       0       0       0       0       0       0       0       0       0
       0       0       0       0       0       0       0       0       0       0
       0       0       0       0       0       0       0       0       0       0
       0       0       0       0       0       0       0       0       0       0
       0       0       0       0       0       0       0       0       0       0
       0       0       0       0       0       0       0       0       0       0
       0       0       0       0       0       0       0       0       0       0
       0       0       0       0       0       0       0       0       0       0
       0       0       0       0       0       0       0       0       0       0
       0       0       0       0       0       0       0       0       0       0
       0       0       0       0       0       0       0       0       0       0
       0       0       0       0       0       0       0       0       0       0
       0       0       0       0       0       0       0       0       0       0
       0       0       0       0       0       0       0       0       0       0
       0       0       0       0       0       0       0       0       0       0
       0       0       0       0       0       0       0       0       0       0
       0       0       0       0       0       0       0       0       0       0
       0       0       0       0       0       0       0       0       0       0
       0       0       0       0       0       0       0       0       0       0
       0       0       0       0       0       0       0       0       0       0
       0       0       0       0       0       0       0       0       0       0
       0       0       0       0       0       0       0       0       0       0
       0       0       0       0       0       0       0       0       0       0
       0       0       0       0       0       0       0       0       0       0
       0       0       0       0       0       0       0       0       0       0
       0       0       0       0       0       0       0       0       0       0
       0       0       0       0       0       0       0       0       0       0
       0       0       0       0       0       0       0       0       0       0
       0       0       0       0       0       0       0       0       0       0
       0       0       0       0       0       0       0       0       0       0
       0       0       0       0       0       0       0       0       0       0
       0       0       0       0       0       0       0       0       0       0
       0       0       0       0       0       0       0       0       0       0
       0       0       0       0       0       0       0       0       0       0
       0       0       0       0       0       0       0       0       0       0
       0       0       0       0       0       0       0       0       0       0
       0       0       0       0       0       0       0       0       0       0
       0       0       0       0       0       0       0       0       0       0
       0       0       0       0       0       0       0       0       0       0
       0       0       0       0       0       0       0       0       0       0
       0       0       0       0       0       0       0       0       0       0
       0       0       0       0       0       0       0       0       0       0
       0       0       0       0       0       0       0       0       0       0
       0       0       0       0       0       0       0       0       0       0
       0       0       0       0       0       0       0       0       0       0
       0       0       0       0       0       0       0       0       0       0
       0       0       0       0       0       0       0       0       0       0
       0       0       0       0       0       0       0       0       0       0
       0       0       0       0       0       0       0       0       0       0
       0       0       0       0       0       0       0       0       0       0
       0       0       0       0       0       0       0       0       0       0
       0       0       0       0       0       0       0       0       0       0
       0       0       0       0       0       0       0       0       0       0
       0       0       0       0       0       0       0       0       0       0
       0       0       0       0       0       0       0       0       0       0
       0       0       0       0       0       0       0       0       0       0
       0       0       0       0       0       0       0       0       0       0
       0       0       0       0       0       0       0       0       0       0
       0       0       0       0       0       0       0       0       0       0
       0       0       0       0       0       0       0       0       0       0
       0       0       0       0       0       0       0       0       0       0
       0       0       0       0       0       0       0       0       0       0
       0       0       0       0       0       0       0       0       0       0
       0       0       0       0       0       0       0       0       0       0
       0       0       0       0       0       0       0       0       0       0
       0       0       0       0       0       0       0       0       0       0
       0       0       0       0       0       0       0       0       0       0
       0       0       0       0       0       0       0       0       0       0
       0       0       0       0       0       0       0       0       0       0
       0       0       0       0       0       0       0       0       0       0
       0       0       0       0       0       0       0       0       0       0
       0       0       0       0       0       0       0       0       0       0
       0       0       0       0       0       0       0       0       0       0
       0       0       0       0       0       0       0       0       0       0
       0       0       0       0       0       0       0       0       0       0
       0       0       0       0       0       0       0       0       0       0
       0       0       0       0       0       0       0       0       0       0
       0       0       0       0       0       0       0       0       0       0
       0       0       0       0       0       0       0       0       0       0
       0       0       0       0       0       0       0       0       0       0
       0       0       0       0       0       0       0       0       0       0
       0       0       0       0       0       0       0       0       0       0
       0       0       0       0       0       0       0       0       0       0
       0       0       0       0       0       0       0       0       0       0
       0       0       0       0       0       0       0       0       0       0
       0       0       0       0       0       0       0       0       0       0
       0       0       0       0       0       0       0       0       0       0
       0       0       0       0       0       0       0       0       0       0
       0       0       0       0       0       0       0       0       0       0
       0       0       0       0       0       0       0       0       0       0
       0       0       0       0       0       0       0       0       0       0
       0       0       0       0       0       0       0       0       0       0
       0       0       0       0       0       0       0       0       0       0
       0       0       0       0       0       0       0       0       0       0
       0       0       0       0       0       0       0       0       0       0
       0       0       0       0       0       0       0       0       0       0
       0       0       0       0       0       0       0       0       0       0
       0       0       0       0       0       0       0       0       0       0
       0       0       0       0       0       0       0       0       0       0
       0       0       0       0       0       0       0       0       0       0
       0       0       0       0       0       0       0       0       0       0
       0       0       0       0       0       0       0       0       0       0
       0       0       0       0       0       0       0       0       0       0
       0       0       0       0       0       0       0       0       0       0
       0       0       0       0       0       0       0       0       0       0
       0       0       0       0       0       0       0       0       0       0
       0       0       0       0       0       0       0       0       0       0
       0       0       0       0       0       0       0       0       0       0
       0       0       0       0       0       0       0       0       0       0
       0       0       0       0       0       0       0       0       0       0
       0       0       0       0       0       0       0       0       0       0
       0       0       0       0       0       0       0       0       0       0
       0       0       0       0       0       0       0       0       0       0
       0       0       0       0       0       0       0       0       0       0
       0       0       0       0       0       0       0       0       0       0
       0       0       0       0       0       0       0       0       0       0
       0       0       0       0       0       0       0       0       0       0
       0       0       0       0       0       0       0       0       0       0
       0       0       0       0       0       0       0       0       0       0
       0       0       0       0       0       0       0       0       0       0
       0       0       0       0       0       0       0       0       0       0
       0       0       0       0       0       0       0       0       0       0
       0       0       0       0       0       0       0       0       0       0
       0       0       0       0       0       0       0       0       0       0
       0       0       0       0       0       0       0       0       0       0
       0       0       0       0       0       0       0       0       0       0
       0       0       0       0       0       0       0       0       0       0
       0       0       0       0       0       0       0       0       0       0
       0       0       0       0       0       0       0       0       0       0
       0       0       0       0       0       0       0       0       0       0
       0       0       0       0       0       0       0       0       0       0
       0       0       0       0       0       0       0       0       0       0
       0       0       0       0       0       0       0       0       0       0
       0       0       0       0       0       0       0       0       0       0
       0       0       0       0       0       0       0       0       0       0
       0       0       0       0       0       0       0       0       0       0
       0       0       0       0       0       0       0       0       0       0
       0       0       0       0       0       0       0       0       0       0
       0       0       0       0       0       0       0       0       0       0
       0       0       0       0       0       0       0       0       0       0
       0       0       0       0       0       0       0       0       0       0
       0       0       0       0       0       0       0       0       0       0
       0       0       0       0       0       0       0       0       0       0
       0       0       0       0       0       0       0       0       0       0
       0       0       0       0       0       0       0       0       0       0
       0       0       0       0       0       0       0       0       0       0
       0       0       0       0       0       0       0       0       0       0
       0       0       0       0       0       0       0       0       0       0
       0       0       0       0       0       0       0       0       0       0
       0       0       0       0       0       0       0       0       0       0
       0       0       0       0       0       0       0       0       0       0
       0       0       0       0       0       0       0       0       0       0
       0       0       0       0       0       0       0       0       0       0
       0       0       0       0       0       0       0       0       0       0
       0       0       0       0       0       0       0       0       0       0
       0       0       0       0       0       0       0       0       0       0
       0       0       0       0       0       0       0       0       0       0
       0       0       0       0       0       0       0       0       0       0
       0       0       0       0       0       0       0       0       0       0
       0       0       0       0       0       0       0       0       0       0
       0       0       0       0       0       0       0       0       0       0
       0       0       0       0       0       0       0       0       0       0
       0       0       0       0       0       0       0       0       0       0
       0       0       0       0       0       0       0       0       0       0
       0       0       0       0       0       0       0       0       0       0
       0       0       0       0       0       0       0       0       0       0
       0       0       0       0       0       0       0       0       0       0
       0       0       0       0       0       0       0       0       0       0
       0       0       0       0       0       0       0       0       0       0
       0       0       0       0       0       0       0       0       0       0
       0       0       0       0       0       0       0       0       0       0
       0       0       0       0       0       0       0       0       0       0
       0       0       0       0       0       0       0       0       0       0
       0       0       0       0       0       0       0       0       0       0
       0       0       0       0       0       0       0       0       0       0
       0       0       0       0       0       0       0       0       0       0
       0       0       0       0       0       0       0       0       0       0
       0       0       0       0       0       0       0       0       0       0
       0       0       0       0       0       0       0       0       0       0
       0       0       0       0       0       0       0       0       0       0
       0       0       0       0       0       0       0       0       0       0
       0       0       0       0       0       0       0       0       0       0
       0       0       0       0       0       0       0       0       0       0
       0       0       0       0       0       0       0       0       0       0
       0       0       0       0       0       0       0       0       0       0
       0       0       0       0       0       0       0       0       0       0
       0       0       0       0       0       0       0       0       0       0
       0       0       0       0       0       0       0       0       0       0
       0       0       0       0       0       0       0       0       0       0
       0       0       0       0       0       0       0       0       0       0
       0       0       0       0       0       0       0       0       0       0
       0       0       0       0       0       0       0       0       0       0
       0       0       0       0       0       0       0       0       0       0
       0       0       0       0       0       0       0       0       0       0
       0       0       0       0       0       0       0       0       0       0
       0       0       0       0       0       0       0       0       0       0
       0       0       0       0       0       0       0       0       0       0
       0       0       0       0       0       0       0       0       0       0
       0       0       0       0       0       0       0       0       0       0
       0       0       0       0       0       0       0       0       0       0
       0       0       0       0       0       0       0       0       0       0
       0       0       0       0       0       0       0       0       0       0
       0       0       0       0       0       0       0       0       0       0
       0       0       0       0       0       0       0       0       0       0
       0       0       0       0       0       0       0       0       0       0
       0       0       0       0       0       0       0       0       0       0
       0       0       0       0       0       0       0       0       0       0
       0       0       0       0       0       0       0       0       0       0
       0       0       0       0       0       0       0       0       0       0
       0       0       0       0       0       0       0       0       0       0
       0       0       0       0       0       0       0       0       0       0
       0       0       0       0       0       0       0       0       0       0
       0       0       0       0       0       0       0       0       0       0
       0       0       0       0       0       0       0       0       0       0
       0       0       0       0       0       0       0       0       0       0
       0       0       0       0       0       0       0       0       0       0
       0       0       0       0       0       0       0       0       0       0
       0       0       0       0       0       0       0       0       0       0
       0       0       0       0       0       0       0       0       0       0
       0       0       0       0       0       0       0       0       0       0
       0       0       0       0       0       0       0       0       0       0
       0       0       0       0       0       0       0       0       0       0
       0       0       0       0       0       0       0       0       0       0
       0       0       0       0       0       0       0       0       0       0
       0       0       0       0       0       0       0       0       0       0
       0       0       0       0       0       0       0       0       0       0
       0       0       0       0       0       0       0       0       0       0
       0       0       0       0       0       0       0       0       0       0
       0       0       0       0       0       0       0       0       0       0
       0       0       0       0       0       0       0       0       0       0
       0       0       0       0       0       0       0       0       0       0
       0       0       0       0       0       0       0       0       0       0
       0       0       0       0       0       0       0       0       0       0
       0       0       0       0       0       0       0       0       0       0
       0       0       0       0       0       0       0       0       0       0
       0       0       0       0       0       0       0       0       0       0
       0       0       0       0       0       0       0       0       0       0
       0       0       0       0       0       0       0       0       0       0
       0       0       0       0       0       0       0       0       0       0
       0       0       0       0       0       0       0       0       0       0
       0       0       0       0       0       0       0       0       0       0
       0       0       0       0       0       0       0       0       0       0
       0       0       0       0       0       0       0       0       0       0
       0       0       0       0       0       0       0       0       0       0
       0       0       0       0       0       0       0       0       0       0
       0       0       0       0       0       0       0       0       0       0
       0       0       0       0       0       0       0       0       0       0
       0       0       0       0       0       0       0       0       0       0
       0       0       0       0       0       0       0       0       0       0
       0       0       0       0       0       0       0       0       0       0
       0       0       0       0       0       0       0       0       0       0
       0       0       0       0       0       0       0       0       0       0
       0       0       0       0       0       0       0       0       0       0
       0       0       0       0       0       0       0       0       0       0
       0       0       0       0       0       0       0       0       0       0
       0       0       0       0       0       0       0       0       0       0
       0       0       0       0       0       0       0       0       0       0
       0       0       0       0       0       0       0       0       0       0
       0       0       0       0       0       0       0       0       0       0
       0       0       0       0       0       0       0       0       0       0
       0       0       0       0       0       0       0       0       0       0
       0       0       0       0       0       0       0       0       0       0
       0       0       0       0       0       0       0       0       0       0
       0       0       0       0       0       0       0       0       0       0
       0       0       0       0       0       0       0       0       0       0
       0       0       0       0       0       0       0       0       0       0
       0       0       0       0       0       0       0       0       0       0
       0       0       0       0       0       0       0       0       0       0
       0       0       0       0       0       0       0       0       0       0
       0       0       0       0       0       0       0       0       0       0
       0       0       0       0       0       0       0       0       0       0
       0       0       0       0       0       0       0       0       0       0
       0       0       0       0       0       0       0       0       0       0
       0       0       0       0       0       0       0       0       0       0
       0       0       0       0       0       0       0       0       0       0
       0       0       0       0       0       0       0       0       0       0
       0       0       0       0       0       0       0       0       0       0
       0       0       0       0       0       0       0       0       0       0
       0       0       0       0       0       0       0       0       0       0
       0       0       0       0       0       0       0       0       0       0
       0       0       0       0       0       0       0       0       0       0
       0       0       0       0       0       0       0       0       0       0
       0       0       0       0       0       0       0       0       0       0
       0       0       0       0       0       0       0       0       0       0
       0       0       0       0       0       0       0       0       0       0
       0       0       0       0       0       0       0       0       0       0
       0       0       0       0       0       0       0       0       0       0
       0       0       0       0       0       0       0       0       0       0
       0       0       0       0       0       0       0       0       0       0
       0       0       0       0       0       0       0       0       0       0
       0       0       0       0       0       0       0       0       0       0
       0       0       0       0       0       0       0       0       0       0
       0       0       0       0       0       0       0       0       0       0
       0       0       0       0       0       0       0       0       0       0
       0       0       0       0       0       0       0       0       0       0
       0       0       0       0       0       0       0       0       0       0
       0       0       0       0       0       0       0       0       0       0
       0       0       0       0       0       0       0       0       0       0
       0       0       0       0       0       0       0       0       0       0
       0       0       0       0       0       0       0       0       0       0
       0       0       0       0       0       0       0       0       0       0
       0       0       0       0       0       0       0       0       0       0
       0       0       0       0       0       0       0       0       0       0
       0       0       0       0       0       0       0       0       0       0
       0       0       0       0       0       0       0       0       0       0
       0       0       0       0       0       0       0       0       0       0
       0       0       0       0       0       0       0       0       0       0
       0       0       0       0       0       0       0       0       0       0
       0       0       0       0       0       0       0       0       0       0
       0       0       0       0       0       0       0       0       0       0
       0       0       0       0       0       0       0       0       0       0
       0       0       0       0       0       0       0       0       0       0
       0       0       0       0       0       0       0       0       0       0
       0       0       0       0       0       0       0       0       0       0
       0       0       0       0       0       0       0       0       0       0
       0       0       0       0       0       0       0       0       0       0
       0       0       0       0       0       0       0       0       0       0
       0       0       0       0       0       0       0       0       0       0
       0       0       0       0       0       0       0       0       0       0
       0       0       0       0       0       0       0       0       0       0
       0       0       0       0       0       0       0       0       0       0
       0       0       0       0       0       0       0       0       0       0
       0       0       0       0       0       0       0       0       0       0
       0       0       0       0       0       0       0       0       0       0
       0       0       0       0       0       0       0       0       0       0
       0       0       0       0       0       0       0       0       0       0
       0       0       0       0       0       0       0       0       0       0
       0       0       0       0       0       0       0       0       0       0
       0       0       0       0       0       0       0       0       0       0
       0       0       0       0       0       0       0       0       0       0
       0       0       0       0       0       0       0       0       0       0
       0       0       0       0       0       0       0       0       0       0
       0       0       0       0       0       0       0       0       0       0
       0       0       0       0       0       0       0       0       0       0
       0       0       0       0       0       0       0       0       0       0
       0       0       0       0       0       0       0       0       0       0
       0       0       0       0       0       0       0       0       0       0
       0       0       0       0       0       0       0       0       0       0
       0       0       0       0       0       0       0       0       0       0
       0       0       0       0       0       0       0       0       0       0
       0       0       0       0       0       0       0       0       0       0
       0       0       0       0       0       0       0       0       0       0
       0       0       0       0       0       0       0       0       0       0
       0       0       0       0       0       0       0       0       0       0
       0       0       0       0       0       0       0       0       0       0
       0       0       0       0       0       0       0       0       0       0
       0       0       0       0       0       0       0       0       0       0
       0       0       0       0       0       0       0       0       0       0
       0       0       0       0       0       0       0       0       0       0
       0       0       0       0       0       0       0       0       0       0
       0       0       0       0       0       0       0       0       0       0
       0       0       0       0       0       0       0       0       0       0
       0       0       0       0       0       0       0       0       0       0
       0       0       0       0       0       0       0       0       0       0
       0       0       0       0       0       0       0       0       0       0
       0       0       0       0       0       0       0       0       0       0
       0       0       0       0       0       0       0       0       0       0
       0       0       0       0       0       0       0       0       0       0
       0       0       0       0       0       0       0       0       0       0
       0       0       0       0       0       0       0       0       0       0
       0       0       0       0       0       0       0       0       0       0
       0       0       0       0       0       0       0       0       0       0
       0       0       0       0       0       0       0       0       0       0
       0       0       0       0       0       0       0       0       0       0
       0       0       0       0       0       0       0       0       0       0
       0       0       0       0       0       0       0       0       0       0
       0       0       0       0       0       0       0       0       0       0
       0       0       0       0       0       0       0       0       0       0
       0       0       0       0       0       0       0       0       0       0
       0       0       0       0       0       0       0       0       0       0
       0       0       0       0       0       0       0       0       0       0
       0       0       0       0       0       0       0       0       0       0
       0       0       0       0       0       0       0       0       0       0
       0       0       0       0       0       0       0       0       0       0
       0       0       0       0       0       0       0       0       0       0
       0       0       0       0       0       0       0       0       0       0
       0       0       0       0       0       0       0       0       0       0
       0       0       0       0       0       0       0       0       0       0
       0       0       0       0       0       0       0       0       0       0
       0       0       0       0       0       0       0       0       0       0
       0       0       0       0       0       0       0       0       0       0
       0       0       0       0       0       0       0       0       0       0
       0       0       0       0       0       0       0       0       0       0
       0       0       0       0       0       0       0       0       0       0
       0       0       0       0       0       0       0       0       0       0
       0       0       0       0       0       0       0       0       0       0
       0       0       0       0       0       0       0       0       0       0
       0       0       0       0       0       0       0       0       0       0
       0       0       0       0       0       0       0       0       0       0
       0       0       0       0       0       0       0       0       0       0
       0       0       0       0       0       0       0       0       0       0
       0       0       0       0       0       0       0       0       0       0
       0       0       0       0       0       0       0       0       0       0
       0       0       0       0       0       0       0       0       0       0
       0       0       0       0       0       0       0       0       0       0
       0       0       0       0       0       0       0       0       0       0
       0       0       0       0       0       0       0       0       0       0
       0       0       0       0       0       0       0       0       0       0
       0       0       0       0       0       0       0       0       0       0
       0       0       0       0       0       0       0       0       0       0
       0       0       0       0       0       0       0       0       0       0
       0       0       0       0       0       0       0       0       0       0
       0       0       0       0       0       0       0       0       0       0
       0       0       0       0       0       0       0       0       0       0
       0       0       0       0       0       0       0       0       0       0
       0       0       0       0       0       0       0       0       0       0
       0       0       0       0       0       0       0       0       0       0
       0       0       0       0       0       0       0       0       0       0
       0       0       0       0       0       0       0       0       0       0
       0       0       0       0       0       0       0       0       0       0
       0       0       0       0       0       0       0       0       0       0
       0       0       0       0       0       0       0       0       0       0
       0       0       0       0       0       0       0       0       0       0
       0       0       0       0       0       0       0       0       0       0
       0       0       0       0       0       0       0       0       0       0
       0       0       0       0       0       0       0       0       0       0
       0       0       0       0       0       0       0       0       0       0
       0       0       0       0       0       0       0       0       0       0
       0       0       0       0       0       0       0       0       0       0
       0       0       0       0       0       0       0       0       0       0
       0       0       0       0       0       0       0       0       0       0
       0       0       0       0       0       0       0       0       0       0
       0       0       0       0       0       0       0       0       0       0
       0       0       0       0       0       0       0       0       0       0
       0       0       0       0       0       0       0       0       0       0
       0       0       0       0       0       0       0       0       0       0
       0       0       0       0       0       0       0       0       0       0
       0       0       0       0       0       0       0       0       0       0
       0       0       0       0       0       0       0       0       0       0
       0       0       0       0       0       0       0       0       0       0
       0       0       0       0       0       0       0       0       0       0
       0       0       0       0       0       0       0       0       0       0
       0       0       0       0       0       0       0       0       0       0
       0       0       0       0       0       0       0       0       0       0
       0       0       0       0       0       0       0       0       0       0
       0       0       0       0       0       0       0       0       0       0
       0       0       0       0       0       0       0       0       0       0
       0       0       0       0       0       0       0       0       0       0
       0       0       0       0       0       0       0       0       0       0
       0       0       0       0       0       0       0       0       0       0
       0       0       0       0       0       0       0       0       0       0
       0       0       0       0       0       0       0       0       0       0
       0       0       0       0       0       0       0       0       0       0
       0       0       0       0       0       0       0       0       0       0
       0       0       0       0       0       0       0       0       0       0
       0       0       0       0       0       0       0       0       0       0
       0       0       0       0       0       0       0       0       0       0
       0       0       0       0       0       0       0       0       0       0
       0       0       0       0       0       0       0       0       0       0
       0       0       0       0       0       0       0       0       0       0
       0       0       0       0       0       0       0       0       0       0
       0       0       0       0       0       0       0       0       0       0
       0       0       0       0       0       0       0       0       0       0
       0       0       0       0       0       0       0       0       0       0
       0       0       0       0       0       0       0       0       0       0
       0       0       0       0       0       0       0       0       0       0
       0       0       0       0       0       0       0       0       0       0
       0       0       0       0       0       0       0       0       0       0
       0       0       0       0       0       0       0       0       0       0
       0       0       0       0       0       0       0       0       0       0
       0       0       0       0       0       0       0       0       0       0
       0       0       0       0       0       0       0       0       0       0
       0       0       0       0       0       0       0       0       0       0
       0       0       0       0       0       0       0       0       0       0
       0       0       0       0       0       0       0       0       0       0
       0       0       0       0       0       0       0       0       0       0
       0       0       0       0       0       0       0       0       0       0
       0       0       0       0       0       0       0       0       0       0
       0       0       0       0       0       0       0       0       0       0
       0       0       0       0       0       0       0       0       0       0
       0       0       0       0       0       0       0       0       0       0
       0       0       0       0       0       0       0       0       0       0
       0       0       0       0       0       0       0       0       0       0
       0       0       0       0       0       0       0       0       0       0
       0       0       0       0       0       0       0       0       0       0
       0       0       0       0       0       0       0       0       0       0
       0       0       0       0       0       0       0       0       0       0
       0       0       0       0       0       0       0       0       0       0
       0       0       0       0       0       0       0       0       0       0
       0       0       0       0       0       0       0       0       0       0
       0       0       0       0       0       0       0       0       0       0
       0       0       0       0       0       0       0       0       0       0
       0       0       0       0       0       0       0       0       0       0
       0       0       0       0       0       0       0       0       0       0
       0       0       0       0       0       0       0       0       0       0
       0       0       0       0       0       0       0       0       0       0
       0       0       0       0       0       0       0       0       0       0
       0       0       0       0       0       0       0       0       0       0
       0       0       0       0       0       0       0       0       0       0
       0       0       0       0       0       0       0       0       0       0
       0       0       0       0       0       0       0       0       0       0
       0       0       0       0       0       0       0       0       0       0
       0       0       0       0       0       0       0       0       0       0
       0       0       0       0       0       0       0       0       0       0
       0       0       0       0       0       0       0       0       0       0
       0       0       0       0       0       0       0       0       0       0
       0       0       0       0       0       0       0       0       0       0
       0       0       0       0       0       0       0       0       0       0
       0       0       0       0       0       0       0       0       0       0
       0       0       0       0       0       0       0       0       0       0
       0       0       0       0       0       0       0       0       0       0
       0       0       0       0       0       0       0       0       0       0
       0       0       0       0       0       0       0       0       0       0
       0       0       0       0       0       0       0       0       0       0
       0       0       0       0       0       0       0       0       0       0
       0       0       0       0       0       0       0       0       0       0
       0       0       0       0       0       0       0       0       0       0
       0       0       0       0       0       0       0       0       0       0
       0       0       0       0       0       0       0       0       0       0
       0       0       0       0       0       0       0       0       0       0
       0       0       0       0       0       0       0       0       0       0
       0       0       0       0       0       0       0       0       0       0
       0       0       0       0       0       0       0       0       0       0
       0       0       0       0       0       0       0       0       0       0
       0       0       0       0       0       0       0       0       0       0
       0       0       0       0       0       0       0       0       0       0
       0       0       0       0       0       0       0       0       0       0
       0       0       0       0       0       0       0       0       0       0
       0       0       0       0       0       0       0       0       0       0
       0       0       0       0       0       0       0       0       0       0
       0       0       0       0       0       0       0       0       0       0
       0       0       0       0       0       0       0       0       0       0
       0       0       0       0       0       0       0       0       0       0
       0       0       0       0       0       0       0       0       0       0
       0       0       0       0       0       0       0       0       0       0
       0       0       0       0       0       0       0       0       0       0
       0       0       0       0       0       0       0       0       0       0
       0       0       0       0       0       0       0       0       0       0
       0       0       0       0       0       0       0       0       0       0
       0       0       0       0       0       0       0       0       0       0
       0       0       0       0       0       0       0       0       0       0
       0       0       0       0       0       0       0       0       0       0
       0       0       0       0       0       0       0       0       0       0
       0       0       0       0       0       0       0       0       0       0
       0       0       0       0       0       0       0       0       0       0
       0       0       0       0       0       0       0       0       0       0
       0       0       0       0       0       0       0       0       0       0
       0       0       0       0       0       0       0       0       0       0
       0       0       0       0       0       0       0       0       0       0
       0       0       0       0       0       0       0       0       0       0
       0       0       0       0       0       0       0       0       0       0
       0       0       0       0       0       0       0       0       0       0
       0       0       0       0       0       0       0       0       0       0
       0       0       0       0       0       0       0       0       0       0
       0       0       0       0       0       0       0       0       0       0
       0       0       0       0       0       0       0       0       0       0
       0       0       0       0       0       0       0       0       0       0
       0       0       0       0       0       0       0       0       0       0
       0       0       0       0       0       0       0       0       0       0
       0       0       0       0       0       0       0       0       0       0
       0       0       0       0       0       0       0       0       0       0
       0       0       0       0       0       0       0       0       0       0
       0       0       0       0       0       0       0       0       0       0
       0       0       0       0       0       0       0       0       0       0
       0       0       0       0       0       0       0       0       0       0
       0       0       0       0       0       0       0       0       0       0
       0       0       0       0       0       0       0       0       0       0
       0       0       0       0       0       0       0       0       0       0
       0       0       0       0       0       0       0       0       0       0
       0       0       0       0       0       0       0       0       0       0
       0       0       0       0       0       0       0       0       0       0
       0       0       0       0       0       0       0       0       0       0
       0       0       0       0       0       0       0       0       0       0
       0       0       0       0       0       0       0       0       0       0
       0       0       0       0       0       0       0       0       0       0
       0       0       0       0       0       0       0       0       0       0
       0       0       0       0       0       0       0       0       0       0
       0       0       0       0       0       0       0       0       0       0
       0       0       0       0       0       0       0       0       0       0
       0       0       0       0       0       0       0       0       0       0
       0       0       0       0       0       0       0       0       0       0
       0       0       0       0       0       0       0       0       0       0
       0       0       0       0       0       0       0       0       0       0
       0       0       0       0       0       0       0       0       0       0
       0       0       0       0       0       0       0       0       0       0
       0       0       0       0       0       0       0       0       0       0
       0       0       0       0       0       0       0       0       0       0
       0       0       0       0       0       0       0       0       0       0
       0       0       0       0       0       0       0       0       0       0
       0       0       0       0       0       0       0       0       0       0
       0       0       0       0       0       0       0       0       0       0
       0       0       0       0       0       0       0       0       0       0
       0       0       0       0       0       0       0       0       0       0
       0       0       0       0       0       0       0       0       0       0
       0       0       0       0       0       0       0       0       0       0
       0       0       0       0       0       0       0       0       0       0
       0       0       0       0       0       0       0       0       0       0
       0       0       0       0       0       0       0       0       0       0
       0       0       0       0       0       0       0       0       0       0
       0       0       0       0       0       0       0       0       0       0
       0       0       0       0       0       0       0       0       0       0
       0       0       0       0       0       0       0       0       0       0
       0       0       0       0       0       0       0       0       0       0
       0       0       0       0       0       0       0       0       0       0
       0       0       0       0       0       0       0       0       0       0
       0       0       0       0       0       0       0       0       0       0
       0       0       0       0       0       0       0       0       0       0
       0       0       0       0       0       0       0       0       0       0
       0       0       0       0       0       0       0       0       0       0
       0       0       0       0       0       0       0       0       0       0
       0       0       0       0       0       0       0       0       0       0
       0       0       0       0       0       0       0       0       0       0
       0       0       0       0       0       0       0       0       0       0
       0       0       0       0       0       0       0       0       0       0
       0       0       0       0       0       0       0       0       0       0
       0       0       0       0       0       0       0       0       0       0
       0       0       0       0       0       0       0       0       0       0
       0       0       0       0       0       0       0       0       0       0
       0       0       0       0       0       0       0       0       0       0
       0       0       0       0       0       0       0       0       0       0
       0       0       0       0       0       0       0       0       0       0
       0       0       0       0       0       0       0       0       0       0
       0       0       0       0       0       0       0       0       0       0
       0       0       0       0       0       0       0       0       0       0
       0       0       0       0       0       0       0       0       0       0
       0       0       0       0       0       0       0       0       0       0
       0       0       0       0       0       0       0       0       0       0
       0       0       0       0       0       0       0       0       0       0
       0       0       0       0       0       0       0       0       0       0
       0       0       0       0       0       0       0       0       0       0
       0       0       0       0       0       0       0       0       0       0
       0       0       0       0       0       0       0       0       0       0
       0       0       0       0       0       0       0       0       0       0
       0       0       0       0       0       0       0       0       0       0
       0       0       0       0       0       0       0       0       0       0
       0       0       0       0       0       0       0       0       0       0
       0       0       0       0       0       0       0       0       0       0
       0       0       0       0       0       0       0       0       0       0
       0       0       0       0       0       0       0       0       0       0
       0       0       0       0       0       0       0       0       0       0
       0       0       0       0       0       0       0       0       0       0
       0       0       0       0       0       0       0       0       0       0
       0       0       0       0       0       0       0       0       0       0
       0       0       0       0       0       0       0       0       0       0
       0       0       0       0       0       0       0       0       0       0
       0       0       0       0       0       0       0       0       0       0
       0       0       0       0       0       0       0       0       0       0
       0       0       0       0       0       0       0       0       0       0
       0       0       0       0       0       0       0       0       0       0
       0       0       0       0       0       0       0       0       0       0
       0       0       0       0       0       0       0       0       0       0
       0       0       0       0       0       0       0       0       0       0
       0       0       0       0       0       0       0       0       0       0
       0       0       0       0       0       0       0       0       0       0
       0       0       0       0       0       0       0       0       0       0
       0       0       0       0       0       0       0       0       0       0
       0       0       0       0       0       0       0       0       0       0
       0       0       0       0       0       0       0       0       0       0
       0       0       0       0       0       0       0       0       0       0
       0       0       0       0       0       0       0       0       0       0
       0       0       0       0       0       0       0       0       0       0
       0       0       0       0       0       0       0       0       0       0
       0       0       0       0       0       0       0       0       0       0
       0       0       0       0       0       0       0       0       0       0
       0       0       0       0       0       0       0       0       0       0
       0       0       0       0       0       0       0       0       0       0
       0       0       0       0       0       0       0       0       0       0
       0       0       0       0       0       0       0       0       0       0
       0       0       0       0       0       0       0       0       0       0
       0       0       0       0       0       0       0       0       0       0
       0       0       0       0       0       0       0       0       0       0
       0       0       0       0       0       0       0       0       0       0
       0       0       0       0       0       0       0       0       0       0
       0       0       0       0       0       0       0       0       0       0
       0       0       0       0       0       0       0       0       0       0
       0       0       0       0       0       0       0       0       0       0
       0       0       0       0       0       0       0       0       0       0
       0       0       0       0       0       0       0       0       0       0
       0       0       0       0       0       0       0       0       0       0
       0       0       0       0       0       0       0       0       0       0
       0       0       0       0       0       0       0       0       0       0
       0       0       0       0       0       0       0       0       0       0
       0       0       0       0       0       0       0       0       0       0
       0       0       0       0       0       0       0       0       0       0
       0       0       0       0       0       0       0       0       0       0
       0       0       0       0       0       0       0       0       0       0
       0       0       0       0       0       0       0       0       0       0
       0       0       0       0       0       0       0       0       0       0
       0       0       0       0       0       0       0       0       0       0
       0       0       0       0       0       0       0       0       0       0
       0       0       0       0       0       0       0       0       0       0
       0       0       0       0       0       0       0       0       0       0
       0       0       0       0       0       0       0       0       0       0
       0       0       0       0       0       0       0       0       0       0
       0       0       0       0       0       0       0       0       0       0
       0       0       0       0       0       0       0       0       0       0
       0       0       0       0       0       0       0       0       0       0
       0       0       0       0       0       0       0       0       0       0
       0       0       0       0       0       0       0       0       0       0
       0       0       0       0       0       0       0       0       0       0
       0       0       0       0       0       0       0       0       0       0
       0       0       0       0       0       0       0       0       0       0
       0       0       0       0       0       0       0       0       0       0
       0       0       0       0       0       0       0       0       0       0
       0       0       0       0       0       0       0       0       0       0
       0       0       0       0       0       0       0       0       0       0
       0       0       0       0       0       0       0       0       0       0
       0       0       0       0       0       0       0       0       0       0
       0       0       0       0       0       0       0       0       0       0
       0       0       0       0       0       0       0       0       0       0
       0       0       0       0       0       0       0       0       0       0
       0       0       0       0       0       0       0       0       0       0
       0       0       0       0       0       0       0       0       0       0
       0       0       0       0       0       0       0       0       0       0
       0       0       0       0       0       0       0       0       0       0
       0       0       0       0       0       0       0       0       0       0
       0       0       0       0       0       0       0       0       0       0
       0       0       0       0       0       0       0       0       0       0
       0       0       0       0       0       0       0       0       0       0
       0       0       0       0       0       0       0       0       0       0
       0       0       0       0       0       0       0       0       0       0
       0       0       0       0       0       0       0       0       0       0
       0       0       0       0       0       0       0       0       0       0
       0       0       0       0       0       0       0       0       0       0
       0       0       0       0       0       0       0       0       0       0
       0       0       0       0       0       0       0       0       0       0
       0       0       0       0       0       0       0       0       0       0
       0       0       0       0       0       0       0       0       0       0
       0       0       0       0       0       0       0       0       0       0
       0       0       0       0       0       0       0       0       0       0
       0       0       0       0       0       0       0       0       0       0
       0       0       0       0       0       0       0       0       0       0
       0       0       0       0       0       0       0       0       0       0
       0       0       0       0       0       0       0       0       0       0
       0       0       0       0       0       0       0       0       0       0
       0       0       0       0       0       0       0       0       0       0
       0       0       0       0       0       0       0       0       0       0
       0       0       0       0       0       0       0       0       0       0
       0       0       0       0       0       0       0       0       0       0
       0       0       0       0       0       0       0       0       0       0
       0       0       0       0       0       0       0       0       0       0
       0       0       0       0       0       0       0       0       0       0
       0       0       0       0       0       0       0       0       0       0
       0       0       0       0       0       0       0       0       0       0
       0       0       0       0       0       0       0       0       0       0
       0       0       0       0       0       0       0       0       0       0
       0       0       0       0       0       0       0       0       0       0
       0       0       0       0       0       0       0       0       0       0
       0       0       0       0       0       0       0       0       0       0
       0       0       0       0       0       0       0       0       0       0
       0       0       0       0       0       0       0       0       0       0
       0       0       0       0       0       0       0       0       0       0
       0       0       0       0       0       0       0       0       0       0
       0       0       0       0       0       0       0       0       0       0
       0       0       0       0       0       0       0       0       0       0
       0       0       0       0       0       0       0       0       0       0
       0       0       0       0       0       0       0       0       0       0
       0       0       0       0       0       0       0       0       0       0
       0       0       0       0       0       0       0       0       0       0
       0       0       0       0       0       0       0       0       0       0
       0       0       0       0       0       0       0       0       0       0
       0       0       0       0       0       0       0       0       0       0
       0       0       0       0       0       0       0       0       0       0
       0       0       0       0       0       0       0       0       0       0
       0       0       0       0       0       0       0       0       0       0
       0       0       0       0       0       0       0       0       0       0
       0       0       0       0       0       0       0       0       0       0
       0       0       0       0       0       0       0       0       0       0
       0       0       0       0       0       0       0       0       0       0
       0       0       0       0       0       0       0       0       0       0
       0       0       0       0       0       0       0       0       0       0
       0       0       0       0       0       0       0       0       0       0
       0       0       0       0       0       0       0       0       0       0
       0       0       0       0       0       0       0       0       0       0
       0       0       0       0       0       0       0       0       0       0
       0       0       0       0       0       0       0       0       0       0
       0       0       0       0       0       0       0       0       0       0
       0       0       0       0       0       0       0       0       0       0
       0       0       0       0       0       0       0       0       0       0
       0       0       0       0       0       0       0       0       0       0
       0       0       0       0       0       0       0       0       0       0
       0       0       0       0       0       0       0       0       0       0
       0       0       0       0       0       0       0       0       0       0
       0       0       0       0       0       0       0       0       0       0
       0       0       0       0       0       0       0       0       0       0
       0       0       0       0       0       0       0       0       0       0
       0       0       0       0       0       0       0       0       0       0
       0       0       0       0       0       0       0       0       0       0
       0       0       0       0       0       0       0       0       0       0
       0       0       0       0       0       0       0       0       0       0
       0       0       0       0       0       0       0       0       0       0
       0       0       0       0       0       0       0       0       0       0
       0       0       0       0       0       0       0       0       0       0
       0       0       0       0       0       0       0       0       0       0
       0       0       0       0       0       0       0       0       0       0
       0       0       0       0       0       0       0       0       0       0
       0       0       0       0       0       0       0       0       0       0
       0       0       0       0       0       0       0       0       0       0
       0       0       0       0       0       0       0       0       0       0
       0       0       0       0       0       0       0       0       0       0
       0       0       0       0       0       0       0       0       0       0
       0       0       0       0       0       0       0       0       0       0
       0       0       0       0       0       0       0       0       0       0
       0       0       0       0       0       0       0       0       0       0
       0       0       0       0       0       0       0       0       0       0
       0       0       0       0       0       0       0       0       0       0
       0       0       0       0       0       0       0       0       0       0
       0       0       0       0       0       0       0       0       0       0
       0       0       0       0       0       0       0       0       0       0
       0       0       0       0       0       0       0       0       0       0
       0       0       0       0       0       0       0       0       0       0
       0       0       0       0       0       0       0       0       0       0
       0       0       0       0       0       0       0       0       0       0
       0       0       0       0       0       0       0       0       0       0
       0       0       0       0       0       0       0       0       0       0
       0       0       0       0       0       0       0       0       0       0
       0       0       0       0       0       0       0       0       0       0
       0       0       0       0       0       0       0       0       0       0
       0       0       0       0       0       0       0       0       0       0
       0       0       0       0       0       0       0       0       0       0
       0       0       0       0       0       0       0       0       0       0
       0       0       0       0       0       0       0       0       0       0
       0       0       0       0       0       0       0       0       0       0
       0       0       0       0       0       0       0       0       0       0
       0       0       0       0       0       0       0       0       0       0
       0       0       0       0       0       0       0       0       0       0
       0       0       0       0       0       0       0       0       0       0
       0       0       0       0       0       0       0       0       0       0
       0       0       0       0       0       0       0       0       0       0
       0       0       0       0       0       0       0       0       0       0
       0       0       0       0       0       0       0       0       0       0
       0       0       0       0       0       0       0       0       0       0
       0       0       0       0       0       0       0       0       0       0
       0       0       0       0       0       0       0       0       0       0
       0       0       0       0       0       0       0       0       0       0
       0       0       0       0       0       0       0       0       0       0
       0       0       0       0       0       0       0       0       0       0
       0       0       0       0       0       0       0       0       0       0
       0       0       0       0       0       0       0       0       0       0
       0       0       0       0       0       0       0       0       0       0
       0       0       0       0       0       0       0       0       0       0
       0       0       0       0       0       0       0       0       0       0
       0       0       0       0       0       0       0       0       0       0
       0       0       0       0       0       0       0       0       0       0
       0       0       0       0       0       0       0       0       0       0
       0       0       0       0       0       0       0       0       0       0
       0       0       0       0       0       0       0       0       0       0
       0       0       0       0       0       0       0       0       0       0
       0       0       0       0       0       0       0       0       0       0
       0       0       0       0       0       0       0       0       0       0
       0       0       0       0       0       0       0       0       0       0
       0       0       0       0       0       0       0       0       0       0
       0       0       0       0       0       0       0       0       0       0
       0       0       0       0       0       0       0       0       0       0
       0       0       0       0       0       0       0       0       0       0
       0       0       0       0       0       0       0       0       0       0
       0       0       0       0       0       0       0       0       0       0
       0       0       0       0       0       0       0       0       0       0
       0       0       0       0       0       0       0       0       0       0
       0       0       0       0       0       0       0       0       0       0
       0       0       0       0       0       0       0       0       0       0
       0       0       0       0       0       0       0       0       0       0
       0       0       0       0       0       0       0       0       0       0
       0       0       0       0       0       0       0       0       0       0
       0       0       0       0       0       0       0       0       0       0
       0       0       0       0       0       0       0       0       0       0
       0       0       0       0       0       0       0       0       0       0
       0       0       0       0       0       0       0       0       0       0
       0       0       0       0       0       0       0       0       0       0
       0       0       0       0       0       0       0       0       0       0
       0       0       0       0       0       0       0       0       0       0
       0       0       0       0       0       0       0       0       0       0
       0       0       0       0       0       0       0       0       0       0
       0       0       0       0       0       0       0       0       0       0
       0       0       0       0       0       0       0       0       0       0
       0       0       0       0       0       0       0       0       0       0
       0       0       0       0       0       0       0       0       0       0
       0       0       0       0       0       0       0       0       0       0
       0       0       0       0       0       0       0       0       0       0
       0       0       0       0       0       0       0       0       0       0
       0       0       0       0       0       0       0       0       0       0
       0       0       0       0       0       0       0       0       0       0
       0       0       0       0       0       0       0       0       0       0
       0       0       0       0       0       0       0       0       0       0
       0       0       0       0       0       0       0       0       0       0
       0       0       0       0       0       0       0       0       0       0
       0       0       0       0       0       0       0       0       0       0
       0       0       0       0       0       0       0       0       0       0
       0       0       0       0       0       0       0       0       0       0
       0       0       0       0       0       0       0       0       0       0
       0       0       0       0       0       0       0       0       0       0
       0       0       0       0       0       0       0       0       0       0
       0       0       0       0       0       0       0       0       0       0
       0       0       0       0       0       0       0       0       0       0
       0       0       0       0       0       0       0       0       0       0
       0       0       0       0       0       0       0       0       0       0
       0       0       0       0       0       0       0       0       0       0
       0       0       0       0       0       0       0       0       0       0
       0       0       0       0       0       0       0       0       0       0
       0       0       0       0       0       0       0       0       0       0
       0       0       0       0       0       0       0       0       0       0
       0       0       0       0       0       0       0       0       0       0
       0       0       0       0       0       0       0       0       0       0
       0       0       0       0       0       0       0       0       0       0
       0       0       0       0       0       0       0       0       0       0
       0       0       0       0       0       0       0       0       0       0
       0       0       0       0       0       0       0       0       0       0
       0       0       0       0       0       0       0       0       0       0
       0       0       0       0       0       0       0       0       0       0
       0       0       0       0       0       0       0       0       0       0
       0       0       0       0       0       0       0       0       0       0
       0       0       0       0       0       0       0       0       0       0
       0       0       0       0       0       0       0       0       0       0
       0       0       0       0       0       0       0       0       0       0
       0       0       0       0       0       0       0       0       0       0
       0       0       0       0       0       0       0       0       0       0
       0       0       0       0       0       0       0       0       0       0
       0       0       0       0       0       0       0       0       0       0
       0       0       0       0       0       0       0       0       0       0
       0       0       0       0       0       0       0       0       0       0
       0       0       0       0       0       0       0       0       0       0
       0       0       0       0       0       0       0       0       0       0
       0       0       0       0       0       0       0       0       0       0
       0       0       0       0       0       0       0       0       0       0
       0       0       0       0       0       0       0       0       0       0
       0       0       0       0       0       0       0       0       0       0
       0       0       0       0       0       0       0       0       0       0
       0       0       0       0       0       0       0       0       0       0
       0       0       0       0       0       0       0       0       0       0
       0       0       0       0       0       0       0       0       0       0
       0       0       0       0       0       0       0       0       0       0
       0       0       0       0       0       0       0       0       0       0
       0       0       0       0       0       0       0       0       0       0
       0       0       0       0       0       0       0       0       0       0
       0       0       0       0       0       0       0       0       0       0
       0       0       0       0       0       0       0       0       0       0
       0       0       0       0       0       0       0       0       0       0
       0       0       0       0       0       0       0       0       0       0
       0       0       0       0       0       0       0       0       0       0
       0       0       0       0       0       0       0       0       0       0
       0       0       0       0       0       0       0       0       0       0
       0       0       0       0       0       0       0       0       0       0
       0       0       0       0       0       0       0       0       0       0
       0       0       0       0       0       0       0       0       0       0
       0       0       0       0       0       0       0       0       0       0
       0       0       0       0       0       0       0       0       0       0
       0       0       0       0       0       0       0       0       0       0
       0       0       0       0       0       0       0       0       0       0
       0       0       0       0       0       0       0       0       0       0
       0       0       0       0       0       0       0       0       0       0
       0       0       0       0       0       0       0       0       0       0
       0       0       0       0       0       0       0       0       0       0
       0       0       0       0       0       0       0       0       0       0
       0       0       0       0       0       0       0       0       0       0
       0       0       0       0       0       0       0       0       0       0
       0       0       0       0       0       0       0       0       0       0
       0       0       0       0       0       0       0       0       0       0
       0       0       0       0       0       0       0       0       0       0
       0       0       0       0       0       0       0       0       0       0
       0       0       0       0       0       0       0       0       0       0
       0       0       0       0       0       0       0       0       0       0
       0       0       0       0       0       0       0       0       0       0
       0       0       0       0       0       0       0       0       0       0
       0       0       0       0       0       0       0       0       0       0
       0       0       0       0       0       0       0       0       0       0
       0       0       0       0       0       0       0       0       0       0
       0       0       0       0       0       0       0       0       0       0
       0       0       0       0       0       0       0       0       0       0
       0       0       0       0       0       0       0       0       0       0
       0       0       0       0       0       0       0       0       0       0
       0       0       0       0       0       0       0       0       0       0
       0       0       0       0       0       0       0       0       0       0
       0       0       0       0       0       0       0       0       0       0
       0       0       0       0       0       0       0       0       0       0
       0       0       0       0       0       0       0       0       0       0
       0       0       0       0       0       0       0       0       0       0
       0       0       0       0       0       0       0       0       0       0
       0       0       0       0       0       0       0       0       0       0
       0       0       0       0       0       0       0       0       0       0
       0       0       0       0       0       0       0       0       0       0
       0       0       0       0       0       0       0       0       0       0
       0       0       0       0       0       0       0       0       0       0
       0       0       0       0       0       0       0       0       0       0
       0       0       0       0       0       0       0       0       0       0
       0       0       0       0       0       0       0       0       0       0
       0       0       0       0       0       0       0       0       0       0
       0       0       0       0       0       0       0       0       0       0
       0       0       0       0       0       0       0       0       0       0
       0       0       0       0       0       0       0       0       0       0
       0       0       0       0       0       0       0       0       0       0
       0       0       0       0       0       0       0       0       0       0
       0       0       0       0       0       0       0       0       0       0
       0       0       0       0       0       0       0       0       0       0
       0       0       0       0       0       0       0       0       0       0
       0       0       0       0       0       0       0       0       0       0
       0       0       0       0       0       0       0       0       0       0
       0       0       0       0       0       0       0       0       0       0
       0       0       0       0       0       0       0       0       0       0
       0       0       0       0       0       0       0       0       0       0
       0       0       0       0       0       0       0       0       0       0
       0       0       0       0       0       0       0       0       0       0
       0       0       0       0       0       0       0       0       0       0
       0       0       0       0       0       0       0       0       0       0
       0       0       0       0       0       0       0       0       0       0
       0       0       0       0       0       0       0       0       0       0
       0       0       0       0       0       0       0       0       0       0
       0       0       0       0       0       0       0       0       0       0
       0       0       0       0       0       0       0       0       0       0
       0       0       0       0       0       0       0       0       0       0
       0       0       0       0       0       0       0       0       0       0
       0       0       0       0       0       0       0       0       0       0
       0       0       0       0       0       0       0       0       0       0
       0       0       0       0       0       0       0       0       0       0
       0       0       0       0       0       0       0       0       0       0
       0       0       0       0       0       0       0       0       0       0
       0       0       0       0       0       0       0       0       0       0
       0       0       0       0       0       0       0       0       0       0
       0       0       0       0       0       0       0       0       0       0
       0       0       0       0       0       0       0       0       0       0
       0       0       0       0       0       0       0       0       0       0
       0       0       0       0       0       0       0       0       0       0
       0       0       0       0       0       0       0       0       0       0
       0       0       0       0       0       0       0       0       0       0
       0       0       0       0       0       0       0       0       0       0
       0       0       0       0       0       0       0       0       0       0
       0       0       0       0       0       0       0       0       0       0
       0       0       0       0       0       0       0       0       0       0
       0       0       0       0       0       0       0       0       0       0
       0       0       0       0       0       0       0       0       0       0
       0       0       0       0       0       0       0       0       0       0
       0       0       0       0       0       0       0       0       0       0
       0       0       0       0       0       0       0       0       0       0
       0       0       0       0       0       0       0       0       0       0
       0       0       0       0       0       0       0       0       0       0
       0       0       0       0       0       0       0       0       0       0
       0       0       0       0       0       0       0       0       0       0
       0       0       0       0       0       0       0       0       0       0
       0       0       0       0       0       0       0       0       0       0
       0       0       0       0       0       0       0       0       0       0
       0       0       0       0       0       0       0       0       0       0
       0       0       0       0       0       0       0       0       0       0
       0       0       0       0       0       0       0       0       0       0
       0       0       0       0       0       0       0       0       0       0
       0       0       0       0       0       0       0       0       0       0
       0       0       0       0       0       0       0       0       0       0
       0       0       0       0       0       0       0       0       0       0
       0       0       0       0       0       0       0       0       0       0
       0       0       0       0       0       0       0       0       0       0
       0       0       0       0       0       0       0       0       0       0
       0       0       0       0       0       0       0       0       0       0
       0       0       0       0       0       0       0       0       0       0
       0       0       0       0       0       0       0       0       0       0
       0       0       0       0       0       0       0       0       0       0
       0       0       0       0       0       0       0       0       0       0
       0       0       0       0       0       0       0       0       0       0
       0       0       0       0       0       0       0       0       0       0
       0       0       0       0       0       0       0       0       0       0
       0       0       0       0       0       0       0       0       0       0
       0       0       0       0       0       0       0       0       0       0
       0       0       0       0       0       0       0       0       0       0
       0       0       0       0       0       0       0       0       0       0
       0       0       0       0       0       0       0       0       0       0
       0       0       0       0       0       0       0       0       0       0
       0       0       0       0       0       0       0       0       0       0
       0       0       0       0       0       0       0       0       0       0
       0       0       0       0       0       0       0       0       0       0
       0       0       0       0       0       0       0       0       0       0
       0       0       0       0       0       0       0       0       0       0
       0       0       0       0       0       0       0       0       0       0
       0       0       0       0       0       0       0       0       0       0
       0       0       0       0       0       0       0       0       0       0
       0       0       0       0       0       0       0       0       0       0
       0       0       0       0       0       0       0       0       0       0
       0       0       0       0       0       0       0       0       0       0
       0       0       0       0       0       0       0       0       0       0
       0       0       0       0       0       0       0       0       0       0
       0       0       0       0       0       0       0       0       0       0
       0       0       0       0       0       0       0       0       0       0
       0       0       0       0       0       0       0       0       0       0
       0       0       0       0       0       0       0       0       0       0
       0       0       0       0       0       0       0       0       0       0
       0       0       0       0       0       0       0       0       0       0
       0       0       0       0       0       0       0       0       0       0
       0       0       0       0       0       0       0       0       0       0
       0       0       0       0       0       0       0       0       0       0
       0       0       0       0       0       0       0       0       0       0
       0       0       0       0       0       0       0       0       0       0
       0       0       0       0       0       0       0       0       0       0
       0       0       0       0       0       0       0       0       0       0
       0       0       0       0       0       0       0       0       0       0
       0       0       0       0       0       0       0       0       0       0
       0       0       0       0       0       0       0       0       0       0
       0       0       0       0       0       0       0       0       0       0
       0       0       0       0       0       0       0       0       0       0
       0       0       0       0       0       0       0       0       0       0
       0       0       0       0       0       0       0       0       0       0
       0       0       0       0       0       0       0       0       0       0
       0       0       0       0       0       0       0       0       0       0
       0       0       0       0       0       0       0       0       0       0
       0       0       0       0       0       0       0       0       0       0
       0       0       0       0       0       0       0       0       0       0
       0       0       0       0       0       0       0       0       0       0
       0       0       0       0       0       0       0       0       0       0
       0       0       0       0       0       0       0       0       0       0
       0       0       0       0       0       0       0       0       0       0
       0       0       0       0       0       0       0       0       0       0
       0       0       0       0       0       0       0       0       0       0
       0       0       0       0       0       0       0       0       0       0
       0       0       0       0       0       0       0       0       0       0
       0       0       0       0       0       0       0       0       0       0
       0       0       0       0       0       0       0       0       0       0
       0       0       0       0       0       0       0       0       0       0
       0       0       0       0       0       0       0       0       0       0
       0       0       0       0       0       0       0       0       0       0
       0       0       0       0       0       0       0       0       0       0
       0       0       0       0       0       0       0       0       0       0
       0       0       0       0       0       0       0       0       0       0
       0       0       0       0       0       0       0       0       0       0
       0       0       0       0       0       0       0       0       0       0
       0       0       0       0       0       0       0       0       0       0
       0       0       0       0       0       0       0       0       0       0
       0       0       0       0       0       0       0       0       0       0
       0       0       0       0       0       0       0       0       0       0
       0       0       0       0       0       0       0       0       0       0
       0       0       0       0       0       0       0       0       0       0
       0       0       0       0       0       0       0       0       0       0
       0       0       0       0       0       0       0       0       0       0
       0       0       0       0       0       0       0       0       0       0
       0       0       0       0       0       0       0       0       0       0
       0       0       0       0       0       0       0       0       0       0
       0       0       0       0       0       0       0       0       0       0
       0       0       0       0       0       0       0       0       0       0
       0       0       0       0       0       0       0       0       0       0
       0       0       0       0       0       0       0       0       0       0
       0       0       0       0       0       0       0       0       0       0
       0       0       0       0       0       0       0       0       0       0
       0       0       0       0       0       0       0       0       0       0
       0       0       0       0       0       0       0       0       0       0
       0       0       0       0       0       0       0       0       0       0
       0       0       0       0       0       0       0       0       0       0
       0       0       0       0       0       0       0       0       0       0
       0       0       0       0       0       0       0       0       0       0
       0       0       0       0       0       0       0       0       0       0
       0       0       0       0       0       0       0       0       0       0
       0       0       0       0       0       0       0       0       0       0
       0       0       0       0       0       0       0       0       0       0
       0       0       0       0       0       0       0       0       0       0
       0       0       0       0       0       0       0       0       0       0
       0       0       0       0       0       0       0       0       0       0
       0       0       0       0       0       0       0       0       0       0
       0       0       0       0       0       0       0       0       0       0
       0       0       0       0       0       0       0       0       0       0
       0       0       0       0       0       0       0       0       0       0
       0       0       0       0       0       0       0       0       0       0
       0       0       0       0       0       0       0       0       0       0
       0       0       0       0       0       0       0       0       0       0
       0       0       0       0       0       0       0       0       0       0
       0       0       0       0       0       0       0       0       0       0
       0       0       0       0       0       0       0       0       0       0
       0       0       0       0       0       0       0       0       0       0
       0       0       0       0       0       0       0       0       0       0
       0       0       0       0       0       0       0       0       0       0
       0       0       0       0       0       0       0       0       0       0
       0       0       0       0       0       0       0       0       0       0
       0       0       0       0       0       0       0       0       0       0
       0       0       0       0       0       0       0       0       0       0
       0       0       0       0       0       0       0       0       0       0
       0       0       0       0       0       0       0       0       0       0
       0       0       0       0       0       0       0       0       0       0
       0       0       0       0       0       0       0       0       0       0
       0       0       0       0       0       0       0       0       0       0
       0       0       0       0       0       0       0       0       0       0
       0       0       0       0       0       0       0       0       0       0
       0       0       0       0       0       0       0       0       0       0
       0       0       0       0       0       0       0       0       0       0
       0       0       0       0       0       0       0       0       0       0
       0       0       0       0       0       0       0       0       0       0
       0       0       0       0       0       0       0       0       0       0
       0       0       0       0       0       0       0       0       0       0
       0       0       0       0       0       0       0       0       0       0
       0       0       0       0       0       0       0       0       0       0
       0       0       0       0       0       0       0       0       0       0
       0       0       0       0       0       0       0       0       0       0
       0       0       0       0       0       0       0       0       0       0
       0       0       0       0       0       0       0       0       0       0
       0       0       0       0       0       0       0       0       0       0
       0       0       0       0       0       0       0       0       0       0
       0       0       0       0       0       0       0       0       0       0
       0       0       0       0       0       0       0       0       0       0
       0       0       0       0       0       0       0       0       0       0
       0       0       0       0       0       0       0       0       0       0
       0       0       0       0       0       0       0       0       0       0
       0       0       0       0       0       0       0       0       0       0
       0       0       0       0       0       0       0       0       0       0
       0       0       0       0       0       0       0       0       0       0
       0       0       0       0       0       0       0       0       0       0
       0       0       0       0       0       0       0       0       0       0
       0       0       0       0       0       0       0       0       0       0
       0       0       0       0       0       0       0       0       0       0
       0       0       0       0       0       0       0       0       0       0
       0       0       0       0       0       0       0       0       0       0
       0       0       0       0       0       0       0       0       0       0
       0       0       0       0       0       0       0       0       0       0
       0       0       0       0       0       0       0       0       0       0
       0       0       0       0       0       0       0       0       0       0
       0       0       0       0       0       0       0       0       0       0
       0       0       0       0       0       0       0       0       0       0
       0       0       0       0       0       0       0       0       0       0
       0       0       0       0       0       0       0       0       0       0
       0       0       0       0       0       0       0       0       0       0
       0       0       0       0       0       0       0       0       0       0
       0       0       0       0       0       0       0       0       0       0
       0       0       0       0       0       0       0       0       0       0
       0       0       0       0       0       0       0       0       0       0
       0       0       0       0       0       0       0       0       0       0
       0       0       0       0       0       0       0       0       0       0
       0       0       0       0       0       0       0       0       0       0
       0       0       0       0       0       0       0       0       0       0
       0       0       0       0       0       0       0       0       0       0
       0       0       0       0       0       0       0       0       0       0
       0       0       0       0       0       0       0       0       0       0
       0       0       0       0       0       0       0       0       0       0
       0       0       0       0       0       0       0       0       0       0
       0       0       0       0       0       0       0       0       0       0
       0       0       0       0       0       0       0       0       0       0
       0       0       0       0       0       0       0       0       0       0
       0       0       0       0       0       0       0       0       0       0
       0       0       0       0       0       0       0       0       0       0
       0       0       0       0       0       0       0       0       0       0
       0       0       0       0       0       0       0       0       0       0
       0       0       0       0       0       0       0       0       0       0
       0       0       0       0       0       0       0       0       0       0
       0       0       0       0       0       0       0       0       0       0
       0       0       0       0       0       0       0       0       0       0
       0       0       0       0       0       0       0       0       0       0
       0       0       0       0       0       0       0       0       0       0
       0       0       0       0       0       0       0       0       0       0
       0       0       0       0       0       0       0       0       0       0
       0       0       0       0       0       0       0       0       0       0
       0       0       0       0       0       0       0       0       0       0
       0       0       0       0       0       0       0       0       0       0
       0       0       0       0       0       0       0       0       0       0
       0       0       0       0       0       0       0       0       0       0
       0       0       0       0       0       0       0       0       0       0
       0       0       0       0       0       0       0       0       0       0
       0       0       0       0       0       0       0       0       0       0
       0       0       0       0       0       0       0       0       0       0
       0       0       0       0       0       0       0       0       0       0
       0       0       0       0       0       0       0       0       0       0
       0       0       0       0       0       0       0       0       0       0
       0       0       0       0       0       0       0       0       0       0
       0       0       0       0       0       0       0       0       0       0
       0       0       0       0       0       0       0       0       0       0
       0       0       0       0       0       0       0       0       0       0
       0       0       0       0       0       0       0       0       0       0
       0       0       0       0       0       0       0       0       0       0
       0       0       0       0       0       0       0       0       0       0
       0       0       0       0       0       0       0       0       0       0
       0       0       0       0       0       0       0       0       0       0
       0       0       0       0       0       0       0       0       0       0
       0       0       0       0       0       0       0       0       0       0
       0       0       0       0       0       0       0       0       0       0
       0       0       0       0       0       0       0       0       0       0
       0       0       0       0       0       0       0       0       0       0
       0       0       0       0       0       0       0       0       0       0
       0       0       0       0       0       0       0       0       0       0
       0       0       0       0       0       0       0       0       0       0
       0       0       0       0       0       0       0       0       0       0
       0       0       0       0       0       0       0       0       0       0
       0       0       0       0       0       0       0       0       0       0
       0       0       0       0       0       0       0       0       0       0
       0       0       0       0       0       0       0       0       0       0
       0       0       0       0       0       0       0       0       0       0
       0       0       0       0       0       0       0       0       0       0
       0       0       0       0       0       0       0       0       0       0
       0       0       0       0       0       0       0       0       0       0
       0       0       0       0       0       0       0       0       0       0
       0       0       0       0       0       0       0       0       0       0
       0       0       0       0       0       0       0       0       0       0
       0       0       0       0       0       0       0       0       0       0
       0       0       0       0       0       0       0       0       0       0
       0       0       0       0       0       0       0       0       0       0
       0       0       0       0       0       0       0       0       0       0
       0       0       0       0       0       0       0       0       0       0
       0       0       0       0       0       0       0       0       0       0
       0       0       0       0       0       0       0       0       0       0
       0       0       0       0       0       0       0       0       0       0
       0       0       0       0       0       0       0       0       0       0
       0       0       0       0       0       0       0       0       0       0
       0       0       0       0       0       0       0       0       0       0
       0       0       0       0       0       0       0       0       0       0
       0       0       0       0       0       0       0       0       0       0
       0       0       0       0       0       0       0       0       0       0
       0       0       0       0       0       0       0       0       0       0
       0       0       0       0       0       0       0       0       0       0
       0       0       0       0       0       0       0       0       0       0
       0       0       0       0       0       0       0       0       0       0
       0       0       0       0       0       0       0       0       0       0
       0       0       0       0       0       0       0       0       0       0
       0       0       0       0       0       0       0       0       0       0
       0       0       0       0       0       0       0       0       0       0
       0       0       0       0       0       0       0       0       0       0
       0       0       0       0       0       0       0       0       0       0
       0       0       0       0       0       0       0       0       0       0
       0       0       0       0       0       0       0       0       0       0
       0       0       0       0       0       0       0       0       0       0
       0       0       0       0       0       0       0       0       0       0
       0       0       0       0       0       0       0       0       0       0
       0       0       0       0       0       0       0       0       0       0
       0       0       0       0       0       0       0       0       0       0
       0       0       0       0       0       0       0       0       0       0
       0       0       0       0       0       0       0       0       0       0
       0       0       0       0       0       0       0       0       0       0
       0       0       0       0       0       0       0       0       0       0
       0       0       0       0       0       0       0       0       0       0
       0       0       0       0       0       0       0       0       0       0
       0       0       0       0       0       0       0       0       0       0
       0       0       0       0       0       0       0       0       0       0
       0       0       0       0       0       0       0       0       0       0
       0       0       0       0       0       0       0       0       0       0
       0       0       0       0       0       0       0       0       0       0
       0       0       0       0       0       0       0       0       0       0
       0       0       0       0       0       0       0       0       0       0
       0       0       0       0       0       0       0       0       0       0
       0       0       0       0       0       0       0       0       0       0
       0       0       0       0       0       0       0       0       0       0
       0       0       0       0       0       0       0       0       0       0
       0       0       0       0       0       0       0       0       0       0
       0       0       0       0       0       0       0       0       0       0
       0       0       0       0       0       0       0       0       0       0
       0       0       0       0       0       0       0       0       0       0
       0       0       0       0       0       0       0       0       0       0
       0       0       0       0       0       0       0       0       0       0
       0       0       0       0       0       0       0       0       0       0
       0       0       0       0       0       0       0       0       0       0
       0       0       0       0       0       0       0       0       0       0
       0       0       0       0       0       0       0       0       0       0
       0       0       0       0       0       0       0       0       0       0
       0       0       0       0       0       0       0       0       0       0
       0       0       0       0       0       0       0       0       0       0
       0       0       0       0       0       0       0       0       0       0
       0       0       0       0       0       0       0       0       0       0
       0       0       0       0       0       0       0       0       0       0
       0       0       0       0       0       0       0       0       0       0
       0       0       0       0       0       0       0       0       0       0
       0       0       0       0       0       0       0       0       0       0
       0       0       0       0       0       0       0       0       0       0
       0       0       0       0       0       0       0       0       0       0
       0       0       0       0       0       0       0       0       0       0
       0       0       0       0       0       0       0       0       0       0
       0       0       0       0       0       0       0       0       0       0
       0       0       0       0       0       0       0       0       0       0
       0       0       0       0       0       0       0       0       0       0
       0       0       0       0       0       0       0       0       0       0
       0       0       0       0       0       0       0       0       0       0
       0       0       0       0       0       0       0       0       0       0
       0       0       0       0       0       0       0       0       0       0
       0       0       0       0       0       0       0       0       0       0
       0       0       0       0       0       0       0       0       0       0
       0       0       0       0       0       0       0       0       0       0
       0       0       0       0       0       0       0       0       0       0
       0       0       0       0       0       0       0       0       0       0
       0       0       0       0       0       0       0       0       0       0
       0       0       0       0       0       0       0       0       0       0
       0       0       0       0       0       0       0       0       0       0
       0       0       0       0       0       0       0       0       0       0
       0       0       0       0       0       0       0       0       0       0
       0       0       0       0       0       0       0       0       0       0
       0       0       0       0       0       0       0       0       0       0
       0       0       0       0       0       0       0       0       0       0
       0       0       0       0       0       0       0       0       0       0
       0       0       0       0       0       0       0       0       0       0
       0       0       0       0       0       0       0       0       0       0
       0       0       0       0       0       0       0       0       0       0
       0       0       0       0       0       0       0       0       0       0
       0       0       0       0       0       0       0       0       0       0
       0       0       0       0       0       0       0       0       0       0
       0       0       0       0       0       0       0       0       0       0
       0       0       0       0       0       0       0       0       0       0
       0       0       0       0       0       0       0       0       0       0
       0       0       0       0       0       0       0       0       0       0
       0       0       0       0       0       0       0       0       0       0
       0       0       0       0       0       0       0       0       0       0
       0       0       0       0       0       0       0       0       0       0
       0       0       0       0       0       0       0       0       0       0
       0       0       0       0       0       0       0       0       0       0
       0       0       0       0       0       0       0       0       0       0
       0       0       0       0       0       0       0       0       0       0
       0       0       0       0       0       0       0       0       0       0
       0       0       0       0       0       0       0       0       0       0
       0       0       0       0       0       0       0       0       0       0
       0       0       0       0       0       0       0       0       0       0
       0       0       0       0       0       0       0       0       0       0
       0       0       0       0       0       0       0       0       0       0
       0       0       0       0       0       0       0       0       0       0
       0       0       0       0       0       0       0       0       0       0
       0       0       0       0       0       0       0       0       0       0
       0       0       0       0       0       0       0       0       0       0
       0       0       0       0       0       0       0       0       0       0
       0       0       0       0       0       0       0       0       0       0
       0       0       0       0       0       0       0       0       0       0
       0       0       0       0       0       0       0       0       0       0
       0       0       0       0       0       0       0       0       0       0
       0       0       0       0       0       0       0       0       0       0
       0       0       0       0       0       0       0       0       0       0
       0       0       0       0       0       0       0       0       0       0
       0       0       0       0       0       0       0       0       0       0
       0       0       0       0       0       0       0       0       0       0
       0       0       0       0       0       0       0       0       0       0
       0       0       0       0       0       0       0       0       0       0
       0       0       0       0       0       0       0       0       0       0
       0       0       0       0       0       0       0       0       0       0
       0       0       0       0       0       0       0       0       0       0
       0       0       0       0       0       0       0       0       0       0
       0       0       0       0       0       0       0       0       0       0
       0       0       0       0       0       0       0       0       0       0
       0       0       0       0       0       0       0       0       0       0
       0       0       0       0       0       0       0       0       0       0
       0       0       0       0       0       0       0       0       0       0
       0       0       0       0       0       0       0       0       0       0
       0       0       0       0       0       0       0       0       0       0
       0       0       0       0       0       0       0       0       0       0
       0       0       0       0       0       0       0       0       0       0
       0       0       0       0       0       0       0       0       0       0
       0       0       0       0       0       0       0       0       0       0
       0       0       0       0       0       0       0       0       0       0
       0       0       0       0       0       0       0       0       0       0
       0       0       0       0       0       0       0       0       0       0
       0       0       0       0       0       0       0       0       0       0
       0       0       0       0       0       0       0       0       0       0
       0       0       0       0       0       0       0       0       0       0
       0       0       0       0       0       0       0       0       0       0
       0       0       0       0       0       0       0       0       0       0
       0       0       0       0       0       0       0       0       0       0
       0       0       0       0       0       0       0       0       0       0
       0       0       0       0       0       0       0       0       0       0
       0       0       0       0       0       0       0       0       0       0
       0       0       0       0       0       0       0       0       0       0
       0       0       0       0       0       0       0       0       0       0
       0       0       0       0       0       0       0       0       0       0
       0       0       0       0       0       0       0       0       0       0
       0       0       0       0       0       0       0       0       0       0
       0       0       0       0       0       0       0       0       0       0
       0       0       0       0       0       0       0       0       0       0
       0       0       0       0       0       0       0       0       0       0
       0       0       0       0       0       0       0       0       0       0
       0       0       0       0       0       0       0       0       0       0
       0       0       0       0       0       0       0       0       0       0
       0       0       0       0       0       0       0       0       0       0
       0       0       0       0       0       0       0       0       0       0
       0       0       0       0       0       0       0       0       0       0
       0       0       0       0       0       0       0       0       0       0
       0       0       0       0       0       0       0       0       0       0
       0       0       0       0       0       0       0       0       0       0
       0       0       0       0       0       0       0       0       0       0
       0       0       0       0       0       0       0       0       0       0
       0       0       0       0       0       0       0       0       0       0
       0       0       0       0       0       0       0       0       0       0
       0       0       0       0       0       0       0       0       0       0
       0       0       0       0       0       0       0       0       0       0
       0       0       0       0       0       0       0       0       0       0
       0       0       0       0       0       0       0       0       0       0
       0       0       0       0       0       0       0       0       0       0
       0       0       0       0       0       0       0       0       0       0
       0       0       0       0       0       0       0       0       0       0
       0       0       0       0       0       0       0       0       0       0
       0       0       0       0       0       0       0       0       0       0
       0       0       0       0       0       0       0       0       0       0
       0       0       0       0       0       0       0       0       0       0
       0       0       0       0       0       0       0       0       0       0
       0       0       0       0       0       0       0       0       0       0
       0       0       0       0       0       0       0       0       0       0
       0       0       0       0       0       0       0       0       0       0
       0       0       0       0       0       0       0       0       0       0
       0       0       0       0       0       0       0       0       0       0
       0       0       0       0       0       0       0       0       0       0
       0       0       0       0       0       0       0       0       0       0
       0       0       0       0       0       0       0       0       0       0
       0       0       0       0       0       0       0       0       0       0
       0       0       0       0       0       0       0       0       0       0
       0       0       0       0       0       0       0       0       0       0
       0       0       0       0       0       0       0       0       0       0
       0       0       0       0       0       0       0       0       0       0
       0       0       0       0       0       0       0       0       0       0
       0       0       0       0       0       0       0       0       0       0
       0       0       0       0       0       0       0       0       0       0
       0       0       0       0       0       0       0       0       0       0
       0       0       0       0       0       0       0       0       0       0
       0       0       0       0       0       0       0       0       0       0
       0       0       0       0       0       0       0       0       0       0
       0       0       0       0       0       0       0       0       0       0
       0       0       0       0       0       0       0       0       0       0
       0       0       0       0       0       0       0       0       0       0
       0       0       0       0       0       0       0       0       0       0
       0       0       0       0       0       0       0       0       0       0
       0       0       0       0       0       0       0       0       0       0
       0       0       0       0       0       0       0       0       0       0
       0       0       0       0       0       0       0       0       0       0
       0       0       0       0       0       0       0       0       0       0
       0       0       0       0       0       0       0       0       0       0
       0       0       0       0       0       0       0       0       0       0
       0       0       0       0       0       0       0       0       0       0
       0       0       0       0       0       0       0       0       0       0
       0       0       0       0       0       0       0       0       0       0
       0       0       0       0       0       0       0       0       0       0
       0       0       0       0       0       0       0       0       0       0
       0       0       0       0       0       0       0       0       0       0
       0       0       0       0       0       0       0       0       0       0
       0       0       0       0       0       0       0       0       0       0
       0       0       0       0       0       0       0       0       0       0
       0       0       0       0       0       0       0       0       0       0
       0       0       0       0       0       0       0       0       0       0
       0       0       0       0       0       0       0       0       0       0
       0       0       0       0       0       0       0       0       0       0
       0       0       0       0       0       0       0       0       0       0
       0       0       0       0       0       0       0       0       0       0
       0       0       0       0       0       0       0       0       0       0
       0       0       0       0       0       0       0       0       0       0
       0       0       0       0       0       0       0       0       0       0
       0       0       0       0       0       0       0       0       0       0
       0       0       0       0       0       0       0       0       0       0
       0       0       0       0       0       0       0       0       0       0
       0       0       0       0       0       0       0       0       0       0
       0       0       0       0       0       0       0       0       0       0
       0       0       0       0       0       0       0       0       0       0
       0       0       0       0       0       0       0       0       0       0
       0       0       0       0       0       0       0       0       0       0
       0       0       0       0       0       0       0       0       0       0
       0       0       0       0       0       0       0       0       0       0
       0       0       0       0       0       0       0       0       0       0
       0       0       0       0       0       0       0       0       0       0
       0       0       0       0       0       0       0       0       0       0
       0       0       0       0       0       0       0       0       0       0
       0       0       0       0       0       0       0       0       0       0
       0       0       0       0       0       0       0       0       0       0
       0       0       0       0       0       0       0       0       0       0
       0       0       0       0       0       0       0       0       0       0
       0       0       0       0       0       0       0       0       0       0
       0       0       0       0       0       0       0       0       0       0
       0       0       0       0       0       0       0       0       0       0
       0       0       0       0       0       0       0       0       0       0
       0       0       0       0       0       0       0       0       0       0
       0       0       0       0       0       0       0       0       0       0
       0       0       0       0       0       0       0       0       0       0
       0       0       0       0       0       0       0       0       0       0
       0       0       0       0       0       0       0       0       0       0
       0       0       0       0       0       0       0       0       0       0
       0       0       0       0       0       0       0       0       0       0
       0       0       0       0       0       0       0       0       0       0
       0       0       0       0       0       0       0       0       0       0
       0       0       0       0       0       0       0       0       0       0
       0       0       0       0       0       0       0       0       0       0
       0       0       0       0       0       0       0       0       0       0
       0       0       0       0       0       0       0       0       0       0
       0       0       0       0       0       0       0       0       0       0
       0       0       0       0       0       0       0       0       0       0
       0       0       0       0       0       0       0       0       0       0
       0       0       0       0       0       0       0       0       0       0
       0       0       0       0       0       0       0       0       0       0
       0       0       0       0       0       0       0       0       0       0
       0       0       0       0       0       0       0       0       0       0
       0       0       0       0       0       0       0       0       0       0
       0       0       0       0       0       0       0       0       0       0
       0       0       0       0       0       0       0       0       0       0
       0       0       0       0       0       0       0       0       0       0
       0       0       0       0       0       0       0       0       0       0
       0       0       0       0       0       0       0       0       0       0
       0       0       0       0       0       0       0       0       0       0
       0       0       0       0       0       0       0       0       0       0
       0       0       0       0       0       0       0       0       0       0
       0       0       0       0       0       0       0       0       0       0
       0       0       0       0       0       0       0       0       0       0
       0       0       0       0       0       0       0       0       0       0
       0       0       0       0       0       0       0       0       0       0
       0       0       0       0       0       0       0       0       0       0
       0       0       0       0       0       0       0       0       0       0
       0       0       0       0       0       0       0       0       0       0
       0       0       0       0       0       0       0       0       0       0
       0       0       0       0       0       0       0       0       0       0
       0       0       0       0       0       0       0       0       0       0
       0       0       0       0       0       0       0       0       0       0
       0       0       0       0       0       0       0       0       0       0
       0       0       0       0       0       0       0       0       0       0
       0       0       0       0       0       0       0       0       0       0
       0       0       0       0       0       0       0       0       0       0
       0       0       0       0       0       0       0       0       0       0
       0       0       0       0       0       0       0       0       0       0
       0       0       0       0       0       0       0       0       0       0
       0       0       0       0       0       0       0       0       0       0
       0       0       0       0       0       0       0       0       0       0
       0       0       0       0       0       0       0       0       0       0
       0       0       0       0       0       0       0       0       0       0
       0       0       0       0       0       0       0       0       0       0
       0       0       0       0       0       0       0       0       0       0
       0       0       0       0       0       0       0       0       0       0
       0       0       0       0       0       0       0       0       0       0
       0       0       0       0       0       0       0       0       0       0
       0       0       0       0       0       0       0       0       0       0
       0       0       0       0       0       0       0       0       0       0
       0       0       0       0       0       0       0       0       0       0
       0       0       0       0       0       0       0       0       0       0
       0       0       0       0       0       0       0       0       0       0
       0       0       0       0       0       0       0       0       0       0
       0       0       0       0       0       0       0       0       0       0
       0       0       0       0       0       0       0       0       0       0
       0       0       0       0       0       0       0       0       0       0
       0       0       0       0       0       0       0       0       0       0
       0       0       0       0       0       0       0       0       0       0
       0       0       0       0       0       0       0       0       0       0
       0       0       0       0       0       0       0       0       0       0
       0       0       0       0       0       0       0       0       0       0
       0       0       0       0       0       0       0       0       0       0
       0       0       0       0       0       0       0       0       0       0
       0       0       0       0       0       0       0       0       0       0
       0       0       0       0       0       0       0       0       0       0
       0       0       0       0       0       0       0       0       0       0
       0       0       0       0       0       0       0       0       0       0
       0       0       0       0       0       0       0       0       0       0
       0       0       0       0       0       0       0       0       0       0
       0       0       0       0       0       0       0       0       0       0
       0       0       0       0       0       0       0       0       0       0
       0       0       0       0       0       0       0       0       0       0
       0       0       0       0       0       0       0       0       0       0
       0       0       0       0       0       0       0       0       0       0
       0       0       0       0       0       0       0       0       0       0
       0       0       0       0       0       0       0       0       0       0
       0       0       0       0       0       0       0       0       0       0
       0       0       0       0       0       0       0       0       0       0
       0       0       0       0       0       0       0       0       0       0
       0       0       0       0       0       0       0       0       0       0
       0       0       0       0       0       0       0       0       0       0
       0       0       0       0       0       0       0       0       0       0
       0       0       0       0       0       0       0       0       0       0
       0       0       0       0       0       0       0       0       0       0
       0       0       0       0       0       0       0       0       0       0
       0       0       0       0       0       0       0       0       0       0
       0       0       0       0       0       0       0       0       0       0
       0       0       0       0       0       0       0       0       0       0
       0       0       0       0       0       0       0       0       0       0
       0       0       0       0       0       0       0       0       0       0
       0       0       0       0       0       0       0       0       0       0
       0       0       0       0       0       0       0       0       0       0
       0       0       0       0       0       0       0       0       0       0
       0       0       0       0       0       0       0       0       0       0
       0       0       0       0       0       0       0       0       0       0
       0       0       0       0       0       0       0       0       0       0
       0       0       0       0       0       0       0       0       0       0
       0       0       0       0       0       0       0       0       0       0
       0       0       0       0       0       0       0       0       0       0
       0       0       0       0       0       0       0       0       0       0
       0       0       0       0       0       0       0       0       0       0
       0       0       0       0       0       0       0       0       0       0
       0       0       0       0       0       0       0       0       0       0
       0       0       0       0       0       0       0       0       0       0
       0       0       0       0       0       0       0       0       0       0
       0       0       0       0       0       0       0       0       0       0
       0       0       0       0       0       0       0       0       0       0
       0       0       0       0       0       0       0       0       0       0
       0       0       0       0       0       0       0       0       0       0
       0       0       0       0       0       0       0       0       0       0
       0       0       0       0       0       0       0       0       0       0
       0       0       0       0       0       0       0       0       0       0
       0       0       0       0       0       0       0       0       0       0
       0       0       0       0       0       0       0       0       0       0
       0       0       0       0       0       0       0       0       0       0
       0       0       0       0       0       0       0       0       0       0
       0       0       0       0       0       0       0       0       0       0
       0       0       0       0       0       0       0       0       0       0
       0       0       0       0       0       0       0       0       0       0
       0       0       0       0       0       0       0       0       0       0
       0       0       0       0       0       0       0       0       0       0
       0       0       0       0       0       0       0       0       0       0
       0       0       0       0       0       0       0       0       0       0
       0       0       0       0       0       0       0       0       0       0
       0       0       0       0       0       0       0       0       0       0
       0       0       0       0       0       0       0       0       0       0
       0       0       0       0       0       0       0       0       0       0
       0       0       0       0       0       0       0       0       0       0
       0       0       0       0       0       0       0       0       0       0
       0       0       0       0       0       0       0       0       0       0
       0       0       0       0       0       0       0       0       0       0
       0       0       0       0       0       0       0       0       0       0
       0       0       0       0       0       0       0       0       0       0
       0       0       0       0       0       0       0       0       0       0
       0       0       0       0       0       0       0       0       0       0
       0       0       0       0       0       0       0       0       0       0
       0       0       0       0       0       0       0       0       0       0
       0       0       0       0       0       0       0       0       0       0
       0       0       0       0       0       0       0       0       0       0
       0       0       0       0       0       0       0       0       0       0
       0       0       0       0       0       0       0       0       0       0
       0       0       0       0       0       0       0       0       0       0
       0       0       0       0       0       0       0       0       0       0
       0       0       0       0       0       0       0       0       0       0
       0       0       0       0       0       0       0       0       0       0
       0       0       0       0       0       0       0       0       0       0
       0       0       0       0       0       0       0       0       0       0
       0       0       0       0       0       0       0       0       0       0
       0       0       0       0       0       0       0       0       0       0
       0       0       0       0       0       0       0       0       0       0
       0       0       0       0       0       0       0       0       0       0
       0       0       0       0       0       0       0       0       0       0
       0       0       0       0       0       0       0       0       0       0
       0       0       0       0       0       0       0       0       0       0
       0       0       0       0       0       0       0       0       0       0
       0       0       0       0       0       0       0       0       0       0
       0       0       0       0       0       0       0       0       0       0
       0       0       0       0       0       0       0       0       0       0
       0       0       0       0       0       0       0       0       0       0
       0       0       0       0       0       0       0       0       0       0
       0       0       0       0       0       0       0       0       0       0
       0       0       0       0       0       0       0       0       0       0
       0       0       0       0       0       0       0       0       0       0
       0       0       0       0       0       0       0       0       0       0
       0       0       0       0       0       0       0       0       0       0
       0       0       0       0       0       0       0       0       0       0
       0       0       0       0       0       0       0       0       0       0
       0       0       0       0       0       0       0       0       0       0
       0       0       0       0       0       0       0       0       0       0
       0       0       0       0       0       0       0       0       0       0
       0       0       0       0       0       0       0       0       0       0
       0       0       0       0       0       0       0       0       0       0
       0       0       0       0       0       0       0       0       0       0
       0       0       0       0       0       0       0       0       0       0
       0       0       0       0       0       0       0       0       0       0
       0       0       0       0       0       0       0       0       0       0
       0       0       0       0       0       0       0       0       0       0
       0       0       0       0       0       0       0       0       0       0
       0       0       0       0       0       0       0       0       0       0
       0       0       0       0       0       0       0       0       0       0
       0       0       0       0       0       0       0       0       0       0
       0       0       0       0       0       0       0       0       0       0
       0       0       0       0       0       0       0       0       0       0
       0       0       0       0       0       0       0       0       0       0
       0       0       0       0       0       0       0       0       0       0
       0       0       0       0       0       0       0       0       0       0
       0       0       0       0       0       0       0       0       0       0
       0       0       0       0       0       0       0       0       0       0
       0       0       0       0       0       0       0       0       0       0
       0       0       0       0       0       0       0       0       0       0
       0       0       0       0       0       0       0       0       0       0
       0       0       0       0       0       0       0       0       0       0
       0       0       0       0       0       0       0       0       0       0
       0       0       0       0       0       0       0       0       0       0
       0       0       0       0       0       0       0       0       0       0
       0       0       0       0       0       0       0       0       0       0
       0       0       0       0       0       0       0       0       0       0
       0       0       0       0       0       0       0       0       0       0
       0       0       0       0       0       0       0       0       0       0
       0       0       0       0       0       0       0       0       0       0
       0       0       0       0       0       0       0       0       0       0
       0       0       0       0       0       0       0       0       0       0
       0       0       0       0       0       0       0       0       0       0
       0       0       0       0       0       0       0       0       0       0
       0       0       0       0       0       0       0       0       0       0
       0       0       0       0       0       0       0       0       0       0
       0       0       0       0       0       0       0       0       0       0
       0       0       0       0       0       0       0       0       0       0
       0       0       0       0       0       0       0       0       0       0
       0       0       0       0       0       0       0       0       0       0
       0       0       0       0       0       0       0       0       0       0
       0       0       0       0       0       0       0       0       0       0
       0       0       0       0       0       0       0       0       0       0
       0       0       0       0       0       0       0       0       0       0
       0       0       0       0       0       0       0       0       0       0
       0       0       0       0       0       0       0       0       0       0
       0       0       0       0       0       0       0       0       0       0
       0       0       0       0       0       0       0       0       0       0
       0       0       0       0       0       0       0       0       0       0
       0       0       0       0       0       0       0       0       0       0
       0       0       0       0       0       0       0       0       0       0
       0       0       0       0       0       0       0       0       0       0
       0       0       0       0       0       0       0       0       0       0
       0       0       0       0       0       0       0       0       0       0
       0       0       0       0       0       0       0       0       0       0
       0       0       0       0       0       0       0       0       0       0
       0       0       0       0       0       0       0       0       0       0
       0       0       0       0       0       0       0       0       0       0
       0       0       0       0       0       0       0       0       0       0
       0       0       0       0       0       0       0       0       0       0
       0       0       0       0       0       0       0       0       0       0
       0       0       0       0       0       0       0       0       0       0
       0       0       0       0       0       0       0       0       0       0
       0       0       0       0       0       0       0       0       0       0
       0       0       0       0       0       0       0       0       0       0
       0       0       0       0       0       0       0       0       0       0
       0       0       0       0       0       0       0       0       0       0
       0       0       0       0       0       0       0       0       0       0
       0       0       0       0       0       0       0       0       0       0
       0       0       0       0       0       0       0       0       0       0
       0       0       0       0       0       0       0       0       0       0
       0       0       0       0       0       0       0       0       0       0
       0       0       0       0       0       0       0       0       0       0
       0       0       0       0       0       0       0       0       0       0
       0       0       0       0       0       0       0       0       0       0
       0       0       0       0       0       0       0       0       0       0
       0       0       0       0       0       0       0       0       0       0
       0       0       0       0       0       0       0       0       0       0
       0       0       0       0       0       0       0       0       0       0
       0       0       0       0       0       0       0       0       0       0
       0       0       0       0       0       0       0       0       0       0
       0       0       0       0       0       0       0       0       0       0
       0       0       0       0       0       0       0       0       0       0
       0       0       0       0       0       0       0       0       0       0
       0       0       0       0       0       0       0       0       0       0
       0       0       0       0       0       0       0       0       0       0
       0       0       0       0       0       0       0       0       0       0
       0       0       0       0       0       0       0       0       0       0
       0       0       0       0       0       0       0       0       0       0
       0       0       0       0       0       0       0       0       0       0
       0       0       0       0       0       0       0       0       0       0
       0       0       0       0       0       0       0       0       0       0
       0       0       0       0       0       0       0       0       0       0
       0       0       0       0       0       0       0       0       0       0
       0       0       0       0       0       0       0       0       0       0
       0       0       0       0       0       0       0       0       0       0
       0       0       0       0       0       0       0       0       0       0
       0       0       0       0       0       0       0       0       0       0
       0       0       0       0       0       0       0       0       0       0
       0       0       0       0       0       0       0       0       0       0
       0       0       0       0       0       0       0       0       0       0
       0       0       0       0       0       0       0       0       0       0
       0       0       0       0       0       0       0       0       0       0
       0       0       0       0       0       0       0       0       0       0
       0       0       0       0       0       0       0       0       0       0
       0       0       0       0       0       0       0       0       0       0
       0       0       0       0       0       0       0       0       0       0
       0       0       0       0       0       0       0       0       0       0
       0       0       0       0       0       0       0       0       0       0
       0       0       0       0       0       0       0       0       0       0
       0       0       0       0       0       0       0       0       0       0
       0       0       0       0       0       0       0       0       0       0
       0       0       0       0       0       0       0       0       0       0
       0       0       0       0       0       0       0       0       0       0
       0       0       0       0       0       0       0       0       0       0
       0       0       0       0       0       0       0       0       0       0
       0       0       0       0       0       0       0       0       0       0
       0       0       0       0       0       0       0       0       0       0
       0       0       0       0       0       0       0       0       0       0
       0       0       0       0       0       0       0       0       0       0
       0       0       0       0       0       0       0       0       0       0
       0       0       0       0       0       0       0       0       0       0
       0       0       0       0       0       0       0       0       0       0
       0       0       0       0       0       0       0       0       0       0
       0       0       0       0       0       0       0       0       0       0
       0       0       0       0       0       0       0       0       0       0
       0       0       0       0       0       0       0       0       0       0
       0       0       0       0       0       0       0       0       0       0
       0       0       0       0       0       0       0       0       0       0
       0       0       0       0       0       0       0       0       0       0
       0       0       0       0       0       0       0       0       0       0
       0       0       0       0       0       0       0       0       0       0
       0       0       0       0       0       0       0       0       0       0
       0       0       0       0       0       0       0       0       0       0
       0       0       0       0       0       0       0       0       0       0
       0       0       0       0       0       0       0       0       0       0
       0       0       0       0       0       0       0       0       0       0
       0       0       0       0       0       0       0       0       0       0
       0       0       0       0       0       0       0       0       0       0
       0       0       0       0       0       0       0       0       0       0
       0       0       0       0       0       0       0       0       0       0
       0       0       0       0       0       0       0       0       0       0
       0       0       0       0       0       0       0       0       0       0
       0       0       0       0       0       0       0       0       0       0
       0       0       0       0       0       0       0       0       0       0
       0       0       0       0       0       0       0       0       0       0
       0       0       0       0       0       0       0       0       0       0
       0       0       0       0       0       0       0       0       0       0
       0       0       0       0       0       0       0       0       0       0
       0       0       0       0       0       0       0       0       0       0
       0       0       0       0       0       0       0       0       0       0
       0       0       0       0       0       0       0       0       0       0
       0       0       0       0       0       0       0       0       0       0
       0       0       0       0       0       0       0       0       0       0
       0       0       0       0       0       0       0       0       0       0
       0       0       0       0       0       0       0       0       0       0
       0       0       0       0       0       0       0       0       0       0
       0       0       0       0       0       0       0       0       0       0
       0       0       0       0       0       0       0       0       0       0
       0       0       0       0       0       0       0       0       0       0
       0       0       0       0       0       0       0       0       0       0
       0       0       0       0       0       0       0       0       0       0
       0       0       0       0       0       0       0       0       0       0
       0       0       0       0       0       0       0       0       0       0
       0       0       0       0       0       0       0       0       0       0
       0       0       0       0       0       0       0       0       0       0
       0       0       0       0       0       0       0       0       0       0
       0       0       0       0       0       0       0       0       0       0
       0       0       0       0       0       0       0       0       0       0
       0       0       0       0       0       0       0       0       0       0
       0       0       0       0       0       0       0       0       0       0
       0       0       0       0       0       0       0       0       0       0
       0       0       0       0       0       0       0       0       0       0
       0       0       0       0       0       0       0       0       0       0
       0       0       0       0       0       0       0       0       0       0
       0       0       0       0       0       0       0       0       0       0
       0       0       0       0       0       0       0       0       0       0
       0       0       0       0       0       0       0       0       0       0
       0       0       0       0       0       0       0       0       0       0
       0       0       0       0       0       0       0       0       0       0
       0       0       0       0       0       0       0       0       0       0
       0       0       0       0       0       0       0       0       0       0
       0       0       0       0       0       0       0       0       0       0
       0       0       0       0       0       0       0       0       0       0
       0       0       0       0       0       0       0       0       0       0
       0       0       0       0       0       0       0       0       0       0
       0       0       0       0       0       0       0       0       0       0
       0       0       0       0       0       0       0       0       0       0
       0       0       0       0       0       0       0       0       0       0
       0       0       0       0       0       0       0       0       0       0
       0       0       0       0       0       0       0       0       0       0
       0       0       0       0       0       0       0       0       0       0
       0       0       0       0       0       0       0       0       0       0
       0       0       0       0       0       0       0       0       0       0
       0       0       0       0       0       0       0       0       0       0
       0       0       0       0       0       0       0       0       0       0
       0       0       0       0       0       0       0       0       0       0
       0       0       0       0       0       0       0       0       0       0
       0       0       0       0       0       0       0       0       0       0
       0       0       0       0       0       0       0       0       0       0
       0       0       0       0       0       0       0       0       0       0
       0       0       0       0       0       0       0       0       0       0
       0       0       0       0       0       0       0       0       0       0
       0       0       0       0       0       0       0       0       0       0
       0       0       0       0       0       0       0       0       0       0
       0       0       0       0       0       0       0       0       0       0
       0       0       0       0       0       0       0       0       0       0
       0       0       0       0       0       0       0       0       0       0
       0       0       0       0       0       0       0       0       0       0
       0       0       0       0       0       0       0       0       0       0
       0       0       0       0       0       0       0       0       0       0
       0       0       0       0       0       0       0       0       0       0
       0       0       0       0       0       0       0       0       0       0
       0       0       0       0       0       0       0       0       0       0
       0       0       0       0       0       0       0       0       0       0
       0       0       0       0       0       0       0       0       0       0
       0       0       0       0       0       0       0       0       0       0
       0       0       0       0       0       0       0       0       0       0
       0       0       0       0       0       0       0       0       0       0
       0       0       0       0       0       0       0       0       0       0
       0       0       0       0       0       0       0       0       0       0
       0       0       0       0       0       0       0       0       0       0
       0       0       0       0       0       0       0       0       0       0
       0       0       0       0       0       0       0       0       0       0
       0       0       0       0       0       0       0       0       0       0
       0       0       0       0       0       0       0       0       0       0
       0       0       0       0       0       0       0       0       0       0
       0       0       0       0       0       0       0       0       0       0
       0       0       0       0       0       0       0       0       0       0
       0       0       0       0       0       0       0       0       0       0
       0       0       0       0       0       0       0       0       0       0
       0       0       0       0       0       0       0       0       0       0
       0       0       0       0       0       0       0       0       0       0
       0       0       0       0       0       0       0       0       0       0
       0       0       0       0       0       0       0       0       0       0
       0       0       0       0       0       0       0       0       0       0
       0       0       0       0       0       0       0       0       0       0
       0       0       0       0       0       0       0       0       0       0
       0       0       0       0       0       0       0       0       0       0
       0       0       0       0       0       0       0       0       0       0
       0       0       0       0       0       0       0       0       0       0
       0       0       0       0       0       0       0       0       0       0
       0       0       0       0       0       0       0       0       0       0
       0       0       0       0       0       0       0       0       0       0
       0       0       0       0       0       0       0       0       0       0
       0       0       0       0       0       0       0       0       0       0
       0       0       0       0       0       0       0       0       0       0
       0       0       0       0       0       0       0       0       0       0
       0       0       0       0       0       0       0       0       0       0
       0       0       0       0       0       0       0       0       0       0
       0       0       0       0       0       0       0       0       0       0
       0       0       0       0       0       0       0       0       0       0
       0       0       0       0       0       0       0       0       0       0
       0       0       0       0       0       0       0       0       0       0
       0       0       0       0       0       0       0       0       0       0
       0       0       0       0       0       0       0       0       0       0
       0       0       0       0       0       0       0       0       0       0
       0       0       0       0       0       0       0       0       0       0
       0       0       0       0       0       0       0       0       0       0
       0       0       0       0       0       0       0       0       0       0
       0       0       0       0       0       0       0       0       0       0
       0       0       0       0       0       0       0       0       0       0
       0       0       0       0       0       0       0       0       0       0
       0       0       0       0       0       0       0       0       0       0
       0       0       0       0       0       0       0       0       0       0
       0       0       0       0       0       0       0       0       0       0
       0       0       0       0       0       0       0       0       0       0
       0       0       0       0       0       0       0       0       0       0
       0       0       0       0       0       0       0       0       0       0
       0       0       0       0       0       0       0       0       0       0
       0       0       0       0       0       0       0       0       0       0
       0       0       0       0       0       0       0       0       0       0
       0       0       0       0       0       0       0       0       0       0
       0       0       0       0       0       0       0       0       0       0
       0       0       0       0       0       0       0       0       0       0
       0       0       0       0       0       0       0       0       0       0
       0       0       0       0       0       0       0       0       0       0
       0       0       0       0       0       0       0       0       0       0
       0       0       0       0       0       0       0       0       0       0
       0       0       0       0       0       0       0       0       0       0
       0       0       0       0       0       0       0       0       0       0
       0       0       0       0       0       0       0       0       0       0
       0       0       0       0       0       0       0       0       0       0
       0       0       0       0       0       0       0       0       0       0
       0       0       0       0       0       0       0       0       0       0
       0       0       0       0       0       0       0       0       0       0
       0       0       0       0       0       0       0       0       0       0
       0       0       0       0       0       0       0       0       0       0
       0       0       0       0       0       0       0       0       0       0
       0       0       0       0       0       0       0       0       0       0
       0       0       0       0       0       0       0       0       0       0
       0       0       0       0       0       0       0       0       0       0
       0       0       0       0       0       0       0       0       0       0
       0       0       0       0       0       0       0       0       0       0
       0       0       0       0       0       0       0       0       0       0
       0       0       0       0       0       0       0       0       0       0
       0       0       0       0       0       0       0       0       0       0
       0       0       0       0       0       0       0       0       0       0
       0       0       0       0       0       0       0       0       0       0
       0       0       0       0       0       0       0       0       0       0
       0       0       0       0       0       0       0       0       0       0
       0       0       0       0       0       0       0       0       0       0
       0       0       0       0       0       0       0       0       0       0
       0       0       0       0       0       0       0       0       0       0
       0       0       0       0       0       0       0       0       0       0
       0       0       0       0       0       0       0       0       0       0
       0       0       0       0       0       0       0       0       0       0
       0       0       0       0       0       0       0       0       0       0
       0       0       0       0       0       0       0       0       0       0
       0       0       0       0       0       0       0       0       0       0
       0       0       0       0       0       0       0       0       0       0
       0       0       0       0       0       0       0       0       0       0
       0       0       0       0       0       0       0       0       0       0
       0       0       0       0       0       0       0       0       0       0
       0       0       0       0       0       0       0       0       0       0
       0       0       0       0       0       0       0       0       0       0
       0       0       0       0       0       0       0       0       0       0
       0       0       0       0       0       0       0       0       0       0
       0       0       0       0       0       0       0       0       0       0
       0       0       0       0       0       0       0       0       0       0
       0       0       0       0       0       0       0       0       0       0
       0       0       0       0       0       0       0       0       0       0
       0       0       0       0       0       0       0       0       0       0
       0       0       0       0       0       0       0       0       0       0
       0       0       0       0       0       0       0       0       0       0
       0       0       0       0       0       0       0       0       0       0
       0       0       0       0       0       0       0       0       0       0
       0       0       0       0       0       0       0       0       0       0
       0       0       0       0       0       0       0       0       0       0
       0       0       0       0       0       0       0       0       0       0
       0       0       0       0       0       0       0       0       0       0
       0       0       0       0       0       0       0       0       0       0
       0       0       0       0       0       0       0       0       0       0
       0       0       0       0       0       0       0       0       0       0
       0       0       0       0       0       0       0       0       0       0
       0       0       0       0       0       0       0       0       0       0
       0       0       0       0       0       0       0       0       0       0
       0       0       0       0       0       0       0       0       0       0
       0       0       0       0       0       0       0       0       0       0
       0       0       0       0       0       0       0       0       0       0
       0       0       0       0       0       0       0       0       0       0
       0       0       0       0       0       0       0       0       0       0
       0       0       0       0       0       0       0       0       0       0
       0       0       0       0       0       0       0       0       0       0
       0       0       0       0       0       0       0       0       0       0
       0       0       0       0       0       0       0       0       0       0
       0       0       0       0       0       0       0       0       0       0
       0       0       0       0       0       0       0       0       0       0
       0       0       0       0       0       0       0       0       0       0
       0       0       0       0       0       0       0       0       0       0
       0       0       0       0       0       0       0       0       0       0
       0       0       0       0       0       0       0       0       0       0
       0       0       0       0       0       0       0       0       0       0
       0       0       0       0       0       0       0       0       0       0
       0       0       0       0       0       0       0       0       0       0
       0       0       0       0       0       0       0       0       0       0
       0       0       0       0       0       0       0       0       0       0
       0       0       0       0       0       0       0       0       0       0
       0       0       0       0       0       0       0       0       0       0
       0       0       0       0       0       0       0       0       0       0
       0       0       0       0       0       0       0       0       0       0
       0       0       0       0       0       0       0       0       0       0
       0       0       0       0       0       0       0       0       0       0
       0       0       0       0       0       0       0       0       0       0
       0       0       0       0       0       0       0       0       0       0
       0       0       0       0       0       0       0       0       0       0
       0       0       0       0       0       0       0       0       0       0
       0       0       0       0       0       0       0       0       0       0
       0       0       0       0       0       0       0       0       0       0
       0       0       0       0       0       0       0       0       0       0
       0       0       0       0       0       0       0       0       0       0
       0       0       0       0       0       0       0       0       0       0
       0       0       0       0       0       0       0       0       0       0
       0       0       0       0       0       0       0       0       0       0
       0       0       0       0       0       0       0       0       0       0
       0       0       0       0       0       0       0       0       0       0
       0       0       0       0       0       0       0       0       0       0
       0       0       0       0       0       0       0       0       0       0
       0       0       0       0       0       0       0       0       0       0
       0       0       0       0       0       0       0       0       0       0
       0       0       0       0       0       0       0       0       0       0
       0       0       0       0       0       0       0       0       0       0
       0       0       0       0       0       0       0       0       0       0
       0       0       0       0       0       0       0       0       0       0
       0       0       0       0       0       0       0       0       0       0
       0       0       0       0       0       0       0       0       0       0
       0       0       0       0       0       0       0       0       0       0
       0       0       0       0       0       0       0       0       0       0
       0       0       0       0       0       0       0       0       0       0
       0       0       0       0       0       0       0       0       0       0
       0       0       0       0       0       0       0       0       0       0
       0       0       0       0       0       0       0       0       0       0
       0       0       0       0       0       0       0       0       0       0
       0       0       0       0       0       0       0       0       0       0
       0       0       0       0       0       0       0       0       0       0
       0       0       0       0       0       0       0       0       0       0
       0       0       0       0       0       0       0       0       0       0
       0       0       0       0       0       0       0       0       0       0
       0       0       0       0       0       0       0       0       0       0
       0       0       0       0       0       0       0       0       0       0
       0       0       0       0       0       0       0       0       0       0
       0       0       0       0       0       0       0       0       0       0
       0       0       0       0       0       0       0       0       0       0
       0       0       0       0       0       0       0       0       0       0
       0       0       0       0       0       0       0       0       0       0
       0       0       0       0       0       0       0       0       0       0
       0       0       0       0       0       0       0       0       0       0
       0       0       0       0       0       0       0       0       0       0
       0       0       0       0       0       0       0       0       0       0
       0       0       0       0       0       0       0       0       0       0
       0       0       0       0       0       0       0       0       0       0
       0       0       0       0       0       0       0       0       0       0
       0       0       0       0       0       0       0       0       0       0
       0       0       0       0       0       0       0       0       0       0
       0       0       0       0       0       0       0       0       0       0
       0       0       0       0       0       0       0       0       0       0
       0       0       0       0       0       0       0       0       0       0
       0       0       0       0       0       0       0       0       0       0
       0       0       0       0       0       0       0       0       0       0
       0       0       0       0       0       0       0       0       0       0
       0       0       0       0       0       0       0       0       0       0
       0       0       0       0       0       0       0       0       0       0
       0       0       0       0       0       0       0       0       0       0
       0       0       0       0       0       0       0       0       0       0
       0       0       0       0       0       0       0       0       0       0
       0       0       0       0       0       0       0       0       0       0
       0       0       0       0       0       0       0       0       0       0
       0       0       0       0       0       0       0       0       0       0
       0       0       0       0       0       0       0       0       0       0
       0       0       0       0       0       0       0       0       0       0
       0       0       0       0       0       0       0       0       0       0
       0       0       0       0       0       0       0       0       0       0
       0       0       0       0       0       0       0       0       0       0
       0       0       0       0       0       0       0       0       0       0
       0       0       0       0       0       0       0       0       0       0
       0       0       0       0       0       0       0       0       0       0
       0       0       0       0       0       0       0       0       0       0
       0       0       0       0       0       0       0       0       0       0
       0       0       0       0       0       0       0       0       0       0
       0       0       0       0       0       0       0       0       0       0
       0       0       0       0       0       0       0       0       0       0
       0       0       0       0       0       0       0       0       0       0
       0       0       0       0       0       0       0       0       0       0
       0       0       0       0       0       0       0       0       0       0
       0       0       0       0       0       0       0       0       0       0
       0       0       0       0       0       0       0       0       0       0
       0       0       0       0       0       0       0       0       0       0
       0       0       0       0       0       0       0       0       0       0
       0       0       0       0       0       0       0       0       0       0
       0       0       0       0       0       0       0       0       0       0
       0       0       0       0       0       0       0       0       0       0
       0       0       0       0       0       0       0       0       0       0
       0       0       0       0       0       0       0       0       0       0
       0       0       0       0       0       0       0       0       0       0
       0       0       0       0       0       0       0       0       0       0
       0       0       0       0       0       0       0       0       0       0
       0       0       0       0       0       0       0       0       0       0
       0       0       0       0       0       0       0       0       0       0
       0       0       0       0       0       0       0       0       0       0
       0       0       0       0       0       0       0       0       0       0
       0       0       0       0       0       0       0       0       0       0
       0       0       0       0       0       0       0       0       0       0
       0       0       0       0       0       0       0       0       0       0
       0       0       0       0       0       0       0       0       0       0
       0       0       0       0       0       0       0       0       0       0
       0       0       0       0       0       0       0       0       0       0
       0       0       0       0       0       0       0       0       0       0
       0       0       0       0       0       0       0       0       0       0
       0       0       0       0       0       0       0       0       0       0
       0       0       0       0       0       0       0       0       0       0
       0       0       0       0       0       0       0       0       0       0
       0       0       0       0       0       0       0       0       0       0
       0       0       0       0       0       0       0       0       0       0
       0       0       0       0       0       0       0       0       0       0
       0       0       0       0       0       0       0       0       0       0
       0       0       0       0       0       0       0       0       0       0
       0       0       0       0       0       0       0       0       0       0
       0       0       0       0       0       0       0       0       0       0
       0       0       0       0       0       0       0       0       0       0
       0       0       0       0       0       0       0       0       0       0
       0       0       0       0       0       0       0       0       0       0
       0       0       0       0       0       0       0       0       0       0
       0       0       0       0       0       0       0       0       0       0
       0       0       0       0       0       0       0       0       0       0
       0       0       0       0       0       0       0       0       0       0
       0       0       0       0       0       0       0       0       0       0
       0       0       0       0       0       0       0       0       0       0
       0       0       0       0       0       0       0       0       0       0
       0       0       0       0       0       0       0       0       0       0
       0       0       0       0       0       0       0       0       0       0
       0       0       0       0       0       0       0       0       0       0
       0       0       0       0       0       0       0       0       0       0
       0       0       0       0       0       0       0       0       0       0
       0       0       0       0       0       0       0       0       0       0
       0       0       0       0       0       0       0       0       0       0
       0       0       0       0       0       0       0       0       0       0
       0       0       0       0       0       0       0       0       0       0
       0       0       0       0       0       0       0       0       0       0
       0       0       0       0       0       0       0       0       0       0
       0       0       0       0       0       0       0       0       0       0
       0       0       0       0       0       0       0       0       0       0
       0       0       0       0       0       0       0       0       0       0
       0       0       0       0       0       0       0       0       0       0
       0       0       0       0       0       0       0       0       0       0
       0       0       0       0       0       0       0       0       0       0
       0       0       0       0       0       0       0       0       0       0
       0       0       0       0       0       0       0       0       0       0
       0       0       0       0       0       0       0       0       0       0
       0       0       0       0       0       0       0       0       0       0
       0       0       0       0       0       0       0       0       0       0
       0       0       0       0       0       0       0       0       0       0
       0       0       0       0       0       0       0       0       0       0
       0       0       0       0       0       0       0       0       0       0
       0       0       0       0       0       0       0       0       0       0
       0       0       0       0       0       0       0       0       0       0
       0       0       0       0       0       0       0       0       0       0
       0       0       0       0       0       0       0       0       0       0
       0       0       0       0       0       0       0       0       0       0
       0       0       0       0       0       0       0       0       0       0
       0       0       0       0       0       0       0       0       0       0
       0       0       0       0       0       0       0       0       0       0
       0       0       0       0       0       0       0       0       0       0
       0       0       0       0       0       0       0       0       0       0
       0       0       0       0       0       0       0       0       0       0
       0       0       0       0       0       0       0       0       0       0
       0       0       0       0       0       0       0       0       0       0
       0       0       0       0       0       0       0       0       0       0
       0       0       0       0       0       0       0       0       0       0
       0       0       0       0       0       0       0       0       0       0
       0       0       0       0       0       0       0       0       0       0
       0       0       0       0       0       0       0       0       0       0
       0       0       0       0       0       0       0       0       0       0
       0       0       0       0       0       0       0       0       0       0
       0       0       0       0       0       0       0       0       0       0
       0       0       0       0       0       0       0       0       0       0
       0       0       0       0       0       0       0       0       0       0
       0       0       0       0       0       0       0       0       0       0
       0       0       0       0       0       0       0       0       0       0
       0       0       0       0       0       0       0       0       0       0
       0       0       0       0       0       0       0       0       0       0
       0       0       0       0       0       0       0       0       0       0
       0       0       0       0       0       0       0       0       0       0
       0       0       0       0       0       0       0       0       0       0
       0       0       0       0       0       0       0       0       0       0
       0       0       0       0       0       0       0       0       0       0
       0       0       0       0       0       0       0       0       0       0
       0       0       0       0       0       0       0       0       0       0
       0       0       0       0       0       0       0       0       0       0
       0       0       0       0       0       0       0       0       0       0
       0       0       0       0       0       0       0       0       0       0
       0       0       0       0       0       0       0       0       0       0
       0       0       0       0       0       0       0       0       0       0
       0       0       0       0       0       0       0       0       0       0
       0       0       0       0       0       0       0       0       0       0
       0       0       0       0       0       0       0       0       0       0
       0       0       0       0       0       0       0       0       0       0
       0       0       0       0       0       0       0       0       0       0
       0       0       0       0       0       0       0       0       0       0
       0       0       0       0       0       0       0       0       0       0
       0       0       0       0       0       0       0       0       0       0
       0       0       0       0       0       0       0       0       0       0
       0       0       0       0       0       0       0       0       0       0
       0       0       0       0       0       0       0       0       0       0
       0       0       0       0       0       0       0       0       0       0
       0       0       0       0       0       0       0       0       0       0
       0       0       0       0       0       0       0       0       0       0
       0       0       0       0       0       0       0       0       0       0
       0       0       0       0       0       0       0       0       0       0
       0       0       0       0       0       0       0       0       0       0
       0       0       0       0       0       0       0       0       0       0
       0       0       0       0       0       0       0       0       0       0
       0       0       0       0       0       0       0       0       0       0
       0       0       0       0       0       0       0       0       0       0
       0       0       0       0       0       0       0       0       0       0
       0       0       0       0       0       0       0       0       0       0
       0       0       0       0       0       0       0       0       0       0
       0       0       0       0       0       0       0       0       0       0
       0       0       0       0       0       0       0       0       0       0
       0       0       0       0       0       0       0       0       0       0
       0       0       0       0       0       0       0       0       0       0
       0       0       0       0       0       0       0       0       0       0
       0       0       0       0       0       0       0       0       0       0
       0       0       0       0       0       0       0       0       0       0
       0       0       0       0       0       0       0       0       0       0
       0       0       0       0       0       0       0       0       0       0
       0       0       0       0       0       0       0       0       0       0
       0       0       0       0       0       0       0       0       0       0
       0       0       0       0       0       0       0       0       0       0
       0       0       0       0       0       0       0       0       0       0
       0       0       0       0       0       0       0       0       0       0
       0       0       0       0       0       0       0       0       0       0
       0       0       0       0       0       0       0       0       0       0
       0       0       0       0       0       0       0       0       0       0
       0       0       0       0       0       0       0       0       0       0
       0       0       0       0       0       0       0       0       0       0
       0       0       0       0       0       0       0       0       0       0
       0       0       0       0       0       0       0       0       0       0
       0       0       0       0       0       0       0       0       0       0
       0       0       0       0       0       0       0       0       0       0
       0       0       0       0       0       0       0       0       0       0
       0       0       0       0       0       0       0       0       0       0
       0       0       0       0       0       0       0       0       0       0
       0       0       0       0       0       0       0       0       0       0
       0       0       0       0       0       0       0       0       0       0
       0       0       0       0       0       0       0       0       0       0
       0       0       0       0       0       0       0       0       0       0
       0       0       0       0       0       0       0       0       0       0
       0       0       0       0       0       0       0       0       0       0
       0       0       0       0       0       0       0       0       0       0
       0       0       0       0       0       0       0       0       0       0
       0       0       0       0       0       0       0       0       0       0
       0       0       0       0       0       0       0       0       0       0
       0       0       0       0       0       0       0       0       0       0
       0       0       0       0       0       0       0       0       0       0
       0       0       0       0       0       0       0       0       0       0
       0       0       0       0       0       0       0       0       0       0
       0       0       0       0       0       0       0       0       0       0
       0       0       0       0       0       0       0       0       0       0
       0       0       0       0       0       0       0       0       0       0
       0       0       0       0       0       0       0       0       0       0
       0       0       0       0       0       0       0       0       0       0
       0       0       0       0       0       0       0       0       0       0
       0       0       0       0       0       0       0       0       0       0
       0       0       0       0       0       0       0       0       0       0
       0       0       0       0       0       0       0       0       0       0
       0       0       0       0       0       0       0       0       0       0
       0       0       0       0       0       0       0       0       0       0
       0       0       0       0       0       0       0       0       0       0
       0       0       0       0       0       0       0       0       0       0
       0       0       0       0       0       0       0       0       0       0
       0       0       0       0       0       0       0       0       0       0
       0       0       0       0       0       0       0       0       0       0
       0       0       0       0       0       0       0       0       0       0
       0       0       0       0       0       0       0       0       0       0
       0       0       0       0       0       0       0       0       0       0
       0       0       0       0       0       0       0       0       0       0
       0       0       0       0       0       0       0       0       0       0
       0       0       0       0       0       0       0       0       0       0
       0       0       0       0       0       0       0       0       0       0
       0       0       0       0       0       0       0       0       0       0
       0       0       0       0       0       0       0       0       0       0
       0       0       0       0       0       0       0       0       0       0
       0       0       0       0       0       0       0       0       0       0
       0       0       0       0       0       0       0       0       0       0
       0       0       0       0       0       0       0       0       0       0
       0       0       0       0       0       0       0       0       0       0
       0       0       0       0       0       0       0       0       0       0
       0       0       0       0       0       0       0       0       0       0
       0       0       0       0       0       0       0       0       0       0
       0       0       0       0       0       0       0       0       0       0
       0       0       0       0       0       0       0       0       0       0
       0       0       0       0       0       0       0       0       0       0
       0       0       0       0       0       0       0       0       0       0
       0       0       0       0       0       0       0       0       0       0
       0       0       0       0       0       0       0       0       0       0
       0       0       0       0       0       0       0       0       0       0
       0       0       0       0       0       0       0       0       0       0
       0       0       0       0       0       0       0       0       0       0
       0       0       0       0       0       0       0       0       0       0
       0       0       0       0       0       0       0       0       0       0
       0       0       0       0       0       0       0       0       0       0
       0       0       0       0       0       0       0       0       0       0
       0       0       0       0       0       0       0       0       0       0
       0       0       0       0       0       0       0       0       0       0
       0       0       0       0       0       0       0       0       0       0
       0       0       0       0       0       0       0       0       0       0
       0       0       0       0       0       0       0       0       0       0
       0       0       0       0       0       0       0       0       0       0
       0       0       0       0       0       0       0       0       0       0
       0       0       0       0       0       0       0       0       0       0
       0       0       0       0       0       0       0       0       0       0
       0       0       0       0       0       0       0       0       0       0
       0       0       0       0       0       0       0       0       0       0
       0       0       0       0       0       0       0       0       0       0
       0       0       0       0       0       0       0       0       0       0
       0       0       0       0       0       0       0       0       0       0
       0       0       0       0       0       0       0       0       0       0
       0       0       0       0       0       0       0       0       0       0
       0       0       0       0       0       0       0       0       0       0
       0       0       0       0       0       0       0       0       0       0
       0       0       0       0       0       0       0       0       0       0
       0       0       0       0       0       0       0       0       0       0
       0       0       0       0       0       0       0       0       0       0
       0       0       0       0       0       0       0       0       0       0
       0       0       0       0       0       0       0       0       0       0
       0       0       0       0       0       0       0       0       0       0
       0       0       0       0       0       0       0       0       0       0
       0       0       0       0       0       0       0       0       0       0
       0       0       0       0       0       0       0       0       0       0
       0       0       0       0       0       0       0       0       0       0
       0       0       0       0       0       0       0       0       0       0
       0       0       0       0       0       0       0       0       0       0
       0       0       0       0       0       0       0       0       0       0
       0       0       0       0       0       0       0       0       0       0
       0       0       0       0       0       0       0       0       0       0
       0       0       0       0       0       0       0       0       0       0
       0       0       0       0       0       0       0       0       0       0
       0       0       0       0       0       0       0       0       0       0
       0       0       0       0       0       0       0       0       0       0
       0       0       0       0       0       0       0       0       0       0
       0       0       0       0       0       0       0       0       0       0
       0       0       0       0       0       0       0       0       0       0
       0       0       0       0       0       0       0       0       0       0
       0       0       0       0       0       0       0       0       0       0
       0       0       0       0       0       0       0       0       0       0
       0       0       0       0       0       0       0       0       0       0
       0       0       0       0       0       0       0       0       0       0
       0       0       0       0       0       0       0       0       0       0
       0       0       0       0       0       0       0       0       0       0
       0       0       0       0       0       0       0       0       0       0
       0       0       0       0       0       0       0       0       0       0
       0       0       0       0       0       0       0       0       0       0
       0       0       0       0       0       0       0       0       0       0
       0       0       0       0       0       0       0       0       0       0
       0       0       0       0       0       0       0       0       0       0
       0       0       0       0       0       0       0       0       0       0
       0       0       0       0       0       0       0       0       0       0
       0       0       0       0       0       0       0       0       0       0
       0       0       0       0       0       0       0       0       0       0
       0       0       0       0       0       0       0       0       0       0
       0       0       0       0       0       0       0       0       0       0
       0       0       0       0       0       0       0       0       0       0
       0       0       0       0       0       0       0       0       0       0
       0       0       0       0       0       0       0       0       0       0
       0       0       0       0       0       0       0       0       0       0
       0       0       0       0       0       0       0       0       0       0
       0       0       0       0       0       0       0       0       0       0
       0       0       0       0       0       0       0       0       0       0
       0       0       0       0       0       0       0       0       0       0
       0       0       0       0       0       0       0       0       0       0
       0       0       0       0       0       0       0       0       0       0
       0       0       0       0       0       0       0       0       0       0
       0       0       0       0       0       0       0       0       0       0
       0       0       0       0       0       0       0       0       0       0
       0       0       0       0       0       0       0       0       0       0
       0       0       0       0       0       0       0       0       0       0
       0       0       0       0       0       0       0       0       0       0
       0       0       0       0       0       0       0       0       0       0
       0       0       0       0       0       0       0       0       0       0
       0       0       0       0       0       0       0       0       0       0
       0       0       0       0       0       0       0       0       0       0
       0       0       0       0       0       0       0       0       0       0
       0       0       0       0       0       0       0       0       0       0
       0       0       0       0       0       0       0       0       0       0
       0       0       0       0       0       0       0       0       0       0
       0       0       0       0       0       0       0       0       0       0
       0       0       0       0       0       0       0       0       0       0
       0       0       0       0       0       0       0       0       0       0
       0       0       0       0       0       0       0       0       0       0
       0       0       0       0       0       0       0       0       0       0
       0       0       0       0       0       0       0       0       0       0
       0       0       0       0       0       0       0       0       0       0
       0       0       0       0       0       0       0       0       0       0
       0       0       0       0       0       0       0       0       0       0
       0       0       0       0       0       0       0       0       0       0
       0       0       0       0       0       0       0       0       0       0
       0       0       0       0       0       0       0       0       0       0
       0       0       0       0       0       0       0       0       0       0
       0       0       0       0       0       0       0       0       0       0
       0       0       0       0       0       0       0       0       0       0
       0       0       0       0       0       0       0       0       0       0
       0       0       0       0       0       0       0       0       0       0
       0       0       0       0       0       0       0       0       0       0
       0       0       0       0       0       0       0       0       0       0
       0       0       0       0       0       0       0       0       0       0
       0       0       0       0       0       0       0       0       0       0
       0       0       0       0       0       0       0       0       0       0
       0       0       0       0       0       0       0       0       0       0
       0       0       0       0       0       0       0       0       0       0
       0       0       0       0       0       0       0       0       0       0
       0       0       0       0       0       0       0       0       0       0
       0       0       0       0       0       0       0       0       0       0
       0       0       0       0       0       0       0       0       0       0
       0       0       0       0       0       0       0       0       0       0
       0       0       0       0       0       0       0       0       0       0
       0       0       0       0       0       0       0       0       0       0
       0       0       0       0       0       0       0       0       0       0
       0       0       0       0       0       0       0       0       0       0
       0       0       0       0       0       0       0       0       0       0
       0       0       0       0       0       0       0       0       0       0
       0       0       0       0       0       0       0       0       0       0
       0       0       0       0       0       0       0       0       0       0
       0       0       0       0       0       0       0       0       0       0
       0       0       0       0       0       0       0       0       0       0
       0       0       0       0       0       0       0       0       0       0
       0       0       0       0       0       0       0       0       0       0
       0       0       0       0       0       0       0       0       0       0
       0       0       0       0       0       0       0       0       0       0
       0       0       0       0       0       0       0       0       0       0
       0       0       0       0       0       0       0       0       0       0
       0       0       0       0       0       0       0       0       0       0
       0       0       0       0       0       0       0       0       0       0
       0       0       0       0       0       0       0       0       0       0
       0       0       0       0       0       0       0       0       0       0
       0       0       0       0       0       0       0       0       0       0
       0       0       0       0       0       0       0       0       0       0
       0       0       0       0       0       0       0       0       0       0
       0       0       0       0       0       0       0       0       0       0
       0       0       0       0       0       0       0       0       0       0
       0       0       0       0       0       0       0       0       0       0
       0       0       0       0       0       0       0       0       0       0
       0       0       0       0       0       0       0       0       0       0
       0       0       0       0       0       0       0       0       0       0
       0       0       0       0       0       0       0       0       0       0
       0       0       0       0       0       0       0       0       0       0
       0       0       0       0       0       0       0       0       0       0
       0       0       0       0       0       0       0       0       0       0
       0       0       0       0       0       0       0       0       0       0
       0       0       0       0       0       0       0       0       0       0
       0       0       0       0       0       0       0       0       0       0
       0       0       0       0       0       0       0       0       0       0
       0       0       0       0       0       0       0       0       0       0
       0       0       0       0       0       0       0       0       0       0
       0       0       0       0       0       0       0       0       0       0
       0       0       0       0       0       0       0       0       0       0
       0       0       0       0       0       0       0       0       0       0
       0       0       0       0       0       0       0       0       0       0
       0       0       0       0       0       0       0       0       0       0
       0       0       0       0       0       0       0       0       0       0
       0       0       0       0       0       0       0       0       0       0
       0       0       0       0       0       0       0       0       0       0
       0       0       0       0       0       0       0       0       0       0
       0       0       0       0       0       0       0       0       0       0
       0       0       0       0       0       0       0       0       0       0
       0       0       0       0       0       0       0       0       0       0
       0       0       0       0       0       0       0       0       0       0
       0       0       0       0       0       0       0       0       0       0
       0       0       0       0       0       0       0       0       0       0
       0       0       0       0       0       0       0       0       0       0
       0       0       0       0       0       0       0       0       0       0
       0       0       0       0       0       0       0       0       0       0
       0       0       0       0       0       0       0       0       0       0
       0       0       0       0       0       0       0       0       0       0
       0       0       0       0       0       0       0       0       0       0
       0       0       0       0       0       0       0       0       0       0
       0       0       0       0       0       0       0       0       0       0
       0       0       0       0       0       0       0       0       0       0
       0       0       0       0       0       0       0       0       0       0
       0       0       0       0       0       0       0       0       0       0
       0       0       0       0       0       0       0       0       0       0
       0       0       0       0       0       0       0       0       0       0
       0       0       0       0       0       0       0       0       0       0
       0       0       0       0       0       0       0       0       0       0
       0       0       0       0       0       0       0       0       0       0
       0       0       0       0       0       0       0       0       0       0
       0       0       0       0       0       0       0       0       0       0
       0       0       0       0       0       0       0       0       0       0
       0       0       0       0       0       0       0       0       0       0
       0       0       0       0       0       0       0       0       0       0
       0       0       0       0       0       0       0       0       0       0
       0       0       0       0       0       0       0       0       0       0
       0       0       0       0       0       0       0       0       0       0
       0       0       0       0       0       0       0       0       0       0
       0       0       0       0       0       0       0       0       0       0
       0       0       0       0       0       0       0       0       0       0
       0       0       0       0       0       0       0       0       0       0
       0       0       0       0       0       0       0       0       0       0
       0       0       0       0       0       0       0       0       0       0
       0       0       0       0       0       0       0       0       0       0
       0       0       0       0       0       0       0       0       0       0
       0       0       0       0       0       0       0       0       0       0
       0       0       0       0       0       0       0       0       0       0
       0       0       0       0       0       0       0       0       0       0
       0       0       0       0       0       0       0       0       0       0
       0       0       0       0       0       0       0       0       0       0
       0       0       0       0       0       0       0       0       0       0
       0       0       0       0       0       0       0       0       0       0
       0       0       0       0       0       0       0       0       0       0
       0       0       0       0       0       0       0       0       0       0
       0       0       0       0       0       0       0       0       0       0
       0       0       0       0       0       0       0       0       0       0
       0       0       0       0       0       0       0       0       0       0
       0       0       0       0       0       0       0       0       0       0
       0       0       0       0       0       0       0       0       0       0
       0       0       0       0       0       0       0       0       0       0
       0       0       0       0       0       0       0       0       0       0
       0       0       0       0       0       0       0       0       0       0
       0       0       0       0       0       0       0       0       0       0
       0       0       0       0       0       0       0       0       0       0
       0       0       0       0       0       0       0       0       0       0
       0       0       0       0       0       0       0       0       0       0
       0       0       0       0       0       0       0       0       0       0
       0       0       0       0       0       0       0       0       0       0
       0       0       0       0       0       0       0       0       0       0
       0       0       0       0       0       0       0       0       0       0
       0       0       0       0       0       0       0       0       0       0
       0       0       0       0       0       0       0       0       0       0
       0       0       0       0       0       0       0       0       0       0
       0       0       0       0       0       0       0       0       0       0
       0       0       0       0       0       0       0       0       0       0
       0       0       0       0       0       0       0       0       0       0
       0       0       0       0       0       0       0       0       0       0
       0       0       0       0       0       0       0       0       0       0
       0       0       0       0       0       0       0       0       0       0
       0       0       0       0       0       0       0       0       0       0
       0       0       0       0       0       0       0       0       0       0
       0       0       0       0       0       0       0       0       0       0
       0       0       0       0       0       0       0       0       0       0
       0       0       0       0       0       0       0       0       0       0
       0       0       0       0       0       0       0       0       0       0
       0       0       0       0       0       0       0       0       0       0
       0       0       0       0       0       0       0       0       0       0
       0       0       0       0       0       0       0       0       0       0
       0       0       0       0       0       0       0       0       0       0
       0       0       0       0       0       0       0       0       0       0
       0       0       0       0       0       0       0       0       0       0
       0       0       0       0       0       0       0       0       0       0
       0       0       0       0       0       0       0       0       0       0
       0       0       0       0       0       0       0       0       0       0
       0       0       0       0       0       0       0       0       0       0
       0       0       0       0       0       0       0       0       0       0
       0       0       0       0       0       0       0       0       0       0
       0       0       0       0       0       0       0       0       0       0
       0       0       0       0       0       0       0       0       0       0
       0       0       0       0       0       0       0       0       0       0
       0       0       0       0       0       0       0       0       0       0
       0       0       0       0       0       0       0       0       0       0
       0       0       0       0       0       0       0       0       0       0
       0       0       0       0       0       0       0       0       0       0
       0       0       0       0       0       0       0       0       0       0
       0       0       0       0       0       0       0       0       0       0
       0       0       0       0       0       0       0       0       0       0
       0       0       0       0       0       0       0       0       0       0
       0       0       0       0       0       0       0       0       0       0
       0       0       0       0       0       0       0       0       0       0
       0       0       0       0       0       0       0       0       0       0
       0       0       0       0       0       0       0       0       0       0
       0       0       0       0       0       0       0       0       0       0
       0       0       0       0       0       0       0       0       0       0
       0       0       0       0       0       0       0       0       0       0
       0       0       0       0       0       0       0       0       0       0
       0       0       0       0       0       0       0       0       0       0
       0       0       0       0       0       0       0       0       0       0
       0       0       0       0       0       0       0       0       0       0
       0       0       0       0       0       0       0       0       0       0
       0       0       0       0       0       0       0       0       0       0
       0       0       0       0       0       0       0       0       0       0
       0       0       0       0       0       0       0       0       0       0
       0       0       0       0       0       0       0       0       0       0
       0       0       0       0       0       0       0       0       0       0
       0       0       0       0       0       0       0       0       0       0
       0       0       0       0       0       0       0       0       0       0
       0       0       0       0       0       0       0       0       0       0
       0       0       0       0       0       0       0       0       0       0
       0       0       0       0       0       0       0       0       0       0
       0       0       0       0       0       0       0       0       0       0
       0       0       0       0       0       0       0       0       0       0
       0       0       0       0       0       0       0       0       0       0
       0       0       0       0       0       0       0       0       0       0
       0       0       0       0       0       0       0       0       0       0
       0       0       0       0       0       0       0       0       0       0
       0       0       0       0       0       0       0       0       0       0
       0       0       0       0       0       0       0       0       0       0
       0       0       0       0       0       0       0       0       0       0
       0       0       0       0       0       0       0       0       0       0
       0       0       0       0       0       0       0       0       0       0
       0       0       0       0       0       0       0       0       0       0
       0       0       0       0       0       0       0       0       0       0
       0       0       0       0       0       0       0       0       0       0
       0       0       0       0       0       0       0       0       0       0
       0       0       0       0       0       0       0       0       0       0
       0       0       0       0       0       0       0       0       0       0
       0       0       0       0       0       0       0       0       0       0
       0       0       0       0       0       0       0       0       0       0
       0       0       0       0       0       0       0       0       0       0
       0       0       0       0       0       0       0       0       0       0
       0       0       0       0       0       0       0       0       0       0
       0       0       0       0       0       0       0       0       0       0
       0       0       0       0       0       0       0       0       0       0
       0       0       0       0       0       0       0       0       0       0
       0       0       0       0       0       0       0       0       0       0
       0       0       0       0       0       0       0       0       0       0
       0       0       0       0       0       0       0       0       0       0
       0       0       0       0       0       0       0       0       0       0
       0       0       0       0       0       0       0       0       0       0
       0       0       0       0       0       0       0       0       0       0
       0       0       0       0       0       0       0       0       0       0
       0       0       0       0       0       0       0       0       0       0
       0       0       0       0       0       0       0       0       0       0
       0       0       0       0       0       0       0       0       0       0
       0       0       0       0       0       0       0       0       0       0
       0       0       0       0       0       0       0       0       0       0
       0       0       0       0       0       0       0       0       0       0
       0       0       0       0       0       0       0       0       0       0
       0       0       0       0       0       0       0       0       0       0
       0       0       0       0       0       0       0       0       0       0
       0       0       0       0       0       0       0       0       0       0
       0       0       0       0       0       0       0       0       0       0
       0       0       0       0       0       0       0       0       0       0
       0       0       0       0       0       0       0       0       0       0
       0       0       0       0       0       0       0       0       0       0
       0       0       0       0       0       0       0       0       0       0
       0       0       0       0       0       0       0       0       0       0
       0       0       0       0       0       0       0       0       0       0
       0       0       0       0       0       0       0       0       0       0
       0       0       0       0       0       0       0       0       0       0
       0       0       0       0       0       0       0       0       0       0
       0       0       0       0       0       0       0       0       0       0
       0       0       0       0       0       0       0       0       0       0
       0       0       0       0       0       0       0       0       0       0
       0       0       0       0       0       0       0       0       0       0
       0       0       0       0       0       0       0       0       0       0
       0       0       0       0       0       0       0       0       0       0
       0       0       0       0       0       0       0       0       0       0
       0       0       0       0       0       0       0       0       0       0
       0       0       0       0       0       0       0       0       0       0
       0       0       0       0       0       0       0       0       0       0
       0       0       0       0       0       0       0       0       0       0
       0       0       0       0       0       0       0       0       0       0
       0       0       0       0       0       0       0       0       0       0
       0       0       0       0       0       0       0       0       0       0
       0       0       0       0       0       0       0       0       0       0
       0       0       0       0       0       0       0       0       0       0
       0       0       0       0       0       0       0       0       0       0
       0       0       0       0       0       0       0       0       0       0
       0       0       0       0       0       0       0       0       0       0
       0       0       0       0       0       0       0       0       0       0
       0       0       0       0       0       0       0       0       0       0
       0       0       0       0       0       0       0       0       0       0
       0       0       0       0       0       0       0       0       0       0
       0       0       0       0       0       0       0       0       0       0
       0       0       0       0       0       0       0       0       0       0
       0       0       0       0       0       0       0       0       0       0
       0       0       0       0       0       0       0       0       0       0
       0       0       0       0       0       0       0       0       0       0
       0       0       0       0       0       0       0       0       0       0
       0       0       0       0       0       0       0       0       0       0
       0       0       0       0       0       0       0       0       0       0
       0       0       0       0       0       0       0       0       0       0
       0       0       0       0       0       0       0       0       0       0
       0       0       0       0       0       0       0       0       0       0
       0       0       0       0       0       0       0       0       0       0
       0       0       0       0       0       0       0       0       0       0
       0       0       0       0       0       0       0       0       0       0
       0       0       0       0       0       0       0       0       0       0
       0       0       0       0       0       0       0       0       0       0
       0       0       0       0       0       0       0       0       0       0
       0       0       0       0       0       0       0       0       0       0
       0       0       0       0       0       0       0       0       0       0
       0       0       0       0       0       0       0       0       0       0
       0       0       0       0       0       0       0       0       0       0
       0       0       0       0       0       0       0       0       0       0
       0       0       0       0       0       0       0       0       0       0
       0       0       0       0       0       0       0       0       0       0
       0       0       0       0       0       0       0       0       0       0
       0       0       0       0       0       0       0       0       0       0
       0       0       0       0       0       0       0       0       0       0
       0       0       0       0       0       0       0       0       0       0
       0       0       0       0       0       0       0       0       0       0
       0       0       0       0       0       0       0       0       0       0
       0       0       0       0       0       0       0       0       0       0
       0       0       0       0       0       0       0       0       0       0
       0       0       0       0       0       0       0       0       0       0
       0       0       0       0       0       0       0       0       0       0
       0       0       0       0       0       0       0       0       0       0
       0       0       0       0       0       0       0       0       0       0
       0       0       0       0       0       0       0       0       0       0
       0       0       0       0       0       0       0       0       0       0
       0       0       0       0       0       0       0       0       0       0
       0       0       0       0       0       0       0       0       0       0
       0       0       0       0       0       0       0       0       0       0
       0       0       0       0       0       0       0       0       0       0
       0       0       0       0       0       0       0       0       0       0
       0       0       0       0       0       0       0       0       0       0
       0       0       0       0       0       0       0       0       0       0
       0       0       0       0       0       0       0       0       0       0
       0       0       0       0       0       0       0       0       0       0
       0       0       0       0       0       0       0       0       0       0
       0       0       0       0       0       0       0       0       0       0
       0       0       0       0       0       0       0       0       0       0
       0       0       0       0       0       0       0       0       0       0
       0       0       0       0       0       0       0       0       0       0
       0       0       0       0       0       0       0       0       0       0
       0       0       0       0       0       0       0       0       0       0
       0       0       0       0       0       0       0       0       0       0
       0       0       0       0       0       0       0       0       0       0
       0       0       0       0       0       0       0       0       0       0
       0       0       0       0       0       0       0       0       0       0
       0       0       0       0       0       0       0       0       0       0
       0       0       0       0       0       0       0       0       0       0
       0       0       0       0       0       0       0       0       0       0
       0       0       0       0       0       0       0       0       0       0
       0       0       0       0       0       0       0       0       0       0
       0       0       0       0       0       0       0       0       0       0
       0       0       0       0       0       0       0       0       0       0
       0       0       0       0       0       0       0       0       0       0
       0       0       0       0       0       0       0       0       0       0
       0       0       0       0       0       0       0       0       0       0
       0       0       0       0       0       0       0       0       0       0
       0       0       0       0       0       0       0       0       0       0
       0       0       0       0       0       0       0       0       0       0
       0       0       0       0       0       0       0       0       0       0
       0       0       0       0       0       0       0       0       0       0
       0       0       0       0       0       0       0       0       0       0
       0       0       0       0       0       0       0       0       0       0
       0       0       0       0       0       0       0       0       0       0
       0       0       0       0       0       0       0       0       0       0
       0       0       0       0       0       0       0       0       0       0
       0       0       0       0       0       0       0       0       0       0
       0       0       0       0       0       0       0       0       0       0
       0       0       0       0       0       0       0       0       0       0
       0       0       0       0       0       0       0       0       0       0
       0       0       0       0       0       0       0       0       0       0
       0       0       0       0       0       0       0       0       0       0
       0       0       0       0       0       0       0       0       0       0
       0       0       0       0       0       0       0       0       0       0
       0       0       0       0       0       0       0       0       0       0
       0       0       0       0       0       0       0       0       0       0
       0       0       0       0       0       0       0       0       0       0
       0       0       0       0       0       0       0       0       0       0
       0       0       0       0       0       0       0       0       0       0
       0       0       0       0       0       0       0       0       0       0
       0       0       0       0       0       0       0       0       0       0
       0       0       0       0       0       0       0       0       0       0
       0       0       0       0       0       0       0       0       0       0
       0       0       0       0       0       0       0       0       0       0
       0       0       0       0       0       0       0       0       0       0
       0       0       0       0       0       0       0       0       0       0
       0       0       0       0       0       0       0       0       0       0
       0       0       0       0       0       0       0       0       0       0
       0       0       0       0       0       0       0       0       0       0
       0       0       0       0       0       0       0       0       0       0
       0       0       0       0       0       0       0       0       0       0
       0       0       0       0       0       0       0       0       0       0
       0       0       0       0       0       0       0       0       0       0
       0       0       0       0       0       0       0       0       0       0
       0       0       0       0       0       0       0       0       0       0
       0       0       0       0       0       0       0       0       0       0
       0       0       0       0       0       0       0       0       0       0
       0       0       0       0       0       0       0       0       0       0
       0       0       0       0       0       0       0       0       0       0
       0       0       0       0       0       0       0       0       0       0
       0       0       0       0       0       0       0       0       0       0
       0       0       0       0       0       0       0       0       0       0
       0       0       0       0       0       0       0       0       0       0
       0       0       0       0       0       0       0       0       0       0
       0       0       0       0       0       0       0       0       0       0
       0       0       0       0       0       0       0       0       0       0
       0       0       0       0       0       0       0       0       0       0
       0       0       0       0       0       0       0       0       0       0
       0       0       0       0       0       0       0       0       0       0
       0       0       0       0       0       0       0       0       0       0
       0       0       0       0       0       0       0       0       0       0
       0       0       0       0       0       0       0       0       0       0
       0       0       0       0       0       0       0       0       0       0
       0       0       0       0       0       0       0       0       0       0
       0       0       0       0       0       0       0       0       0       0
       0       0       0       0       0       0       0       0       0       0
       0       0       0       0       0       0       0       0       0       0
       0       0       0       0       0       0       0       0       0       0
       0       0       0       0       0       0       0       0       0       0
       0       0       0       0       0       0       0       0       0       0
       0       0       0       0       0       0       0       0       0       0
       0       0       0       0       0       0       0       0       0       0
       0       0       0       0       0       0       0       0       0       0
       0       0       0       0       0       0       0       0       0       0
       0       0       0       0       0       0       0       0       0       0
       0       0       0       0       0       0       0       0       0       0
       0       0       0       0       0       0       0       0       0       0
       0       0       0       0       0       0       0       0       0       0
       0       0       0       0       0       0       0       0       0       0
       0       0       0       0       0       0       0       0       0       0
       0       0       0       0       0       0       0       0       0       0
       0       0       0       0       0       0       0       0       0       0
       0       0       0       0       0       0       0       0       0       0
       0       0       0       0       0       0       0       0       0       0
       0       0       0       0       0       0       0       0       0       0
       0       0       0       0       0       0       0       0       0       0
       0       0       0       0       0       0       0       0       0       0
       0       0       0       0       0       0       0       0       0       0
       0       0       0       0       0       0       0       0       0       0
       0       0       0       0       0       0       0       0       0       0
       0       0       0       0       0       0       0       0       0       0
       0       0       0       0       0       0       0       0       0       0
       0       0       0       0       0       0       0       0       0       0
       0       0       0       0       0       0       0       0       0       0
       0       0       0       0       0       0       0       0       0       0
       0       0       0       0       0       0       0       0       0       0
       0       0       0       0       0       0       0       0       0       0
       0       0       0       0       0       0       0       0       0       0
       0       0       0       0       0       0       0       0       0       0
       0       0       0       0       0       0       0       0       0       0
       0       0       0       0       0       0       0       0       0       0
       0       0       0       0       0       0       0       0       0       0
       0       0       0       0       0       0       0       0       0       0
       0       0       0       0       0       0       0       0       0       0
       0       0       0       0       0       0       0       0       0       0
       0       0       0       0       0       0       0       0       0       0
       0       0       0       0       0       0       0       0       0       0
       0       0       0       0       0       0       0       0       0       0
       0       0       0       0       0       0       0       0       0       0
       0       0       0       0       0       0       0       0       0       0
       0       0       0       0       0       0       0       0       0       0
       0       0       0       0       0       0       0       0       0       0
       0       0       0       0       0       0       0       0       0       0
       0       0       0       0       0       0       0       0       0       0
       0       0       0       0       0       0       0       0       0       0
       0       0       0       0       0       0       0       0       0       0
       0       0       0       0       0       0       0       0       0       0
       0       0       0       0       0       0       0       0       0       0
       0       0       0       0       0       0       0       0       0       0
       0       0       0       0       0       0       0       0       0       0
       0       0       0       0       0       0       0       0       0       0
       0       0       0       0       0       0       0       0       0       0
       0       0       0       0       0       0       0       0       0       0
       0       0       0       0       0       0       0       0       0       0
       0       0       0       0       0       0       0       0       0       0
       0       0       0       0       0       0       0       0       0       0
       0       0       0       0       0       0       0       0       0       0
       0       0       0       0       0       0       0       0       0       0
       0       0       0       0       0       0       0       0       0       0
       0       0       0       0       0       0       0       0       0       0
       0       0       0       0       0       0       0       0       0       0
       0       0       0       0       0       0       0       0       0       0
       0       0       0       0       0       0       0       0       0       0
       0       0       0       0       0       0       0       0       0       0
       0       0       0       0       0       0       0       0       0       0
       0       0       0       0       0       0       0       0       0       0
       0       0       0       0       0       0       0       0       0       0
       0       0       0       0       0       0       0       0       0       0
       0       0       0       0       0       0       0       0       0       0
       0       0       0       0       0       0       0       0       0       0
       0       0       0       0       0       0       0       0       0       0
       0       0       0       0       0       0       0       0       0       0
       0       0       0       0       0       0       0       0       0       0
       0       0       0       0       0       0       0       0       0       0
       0       0       0       0       0       0       0       0       0       0
       0       0       0       0       0       0       0       0       0       0
       0       0       0       0       0       0       0       0       0       0
       0       0       0       0       0       0       0       0       0       0
       0       0       0       0       0       0       0       0       0       0
       0       0       0       0       0       0       0       0       0       0
       0       0       0       0       0       0       0       0       0       0
       0       0       0       0       0       0       0       0       0       0
       0       0       0       0       0       0       0       0       0       0
       0       0       0       0       0       0       0       0       0       0
       0       0       0       0       0       0       0       0       0       0
       0       0       0       0       0       0       0       0       0       0
       0       0       0       0       0       0       0       0       0       0
       0       0       0       0       0       0       0       0       0       0
       0       0       0       0       0       0       0       0       0       0
       0       0       0       0       0       0       0       0       0       0
       0       0       0       0       0       0       0       0       0       0
       0       0       0       0       0       0       0       0       0       0
       0       0       0       0       0       0       0       0       0       0
       0       0       0       0       0       0       0       0       0       0
       0       0       0       0       0       0       0       0       0       0
       0       0       0       0       0       0       0       0       0       0
       0       0       0       0       0       0       0       0       0       0
       0       0       0       0       0       0       0       0       0       0
       0       0       0       0       0       0       0       0       0       0
       0       0       0       0       0       0       0       0       0       0
       0       0       0       0       0       0       0       0       0       0
       0       0       0       0       0       0       0       0       0       0
       0       0       0       0       0       0       0       0       0       0
       0       0       0       0       0       0       0       0       0       0
       0       0       0       0       0       0       0       0       0       0
       0       0       0       0       0       0       0       0       0       0
       0       0       0       0       0       0       0       0       0       0
       0       0       0       0       0       0       0       0       0       0
       0       0       0       0       0       0       0       0       0       0
       0       0       0       0       0       0       0       0       0       0
       0       0       0       0       0       0       0       0       0       0
       0       0       0       0       0       0       0       0       0       0
       0       0       0       0       0       0       0       0       0       0
       0       0       0       0       0       0       0       0       0       0
       0       0       0       0       0       0       0       0       0       0
       0       0       0       0       0       0       0       0       0       0
       0       0       0       0       0       0       0       0       0       0
       0       0       0       0       0       0       0       0       0       0
       0       0       0       0       0       0       0       0       0       0
       0       0       0       0       0       0       0       0       0       0
       0       0       0       0       0       0       0       0       0       0
       0       0       0       0       0       0       0       0       0       0
       0       0       0       0       0       0       0       0       0       0
       0       0       0       0       0       0       0       0       0       0
       0       0       0       0       0       0       0       0       0       0
       0       0       0       0       0       0       0       0       0       0
       0       0       0       0       0       0       0       0       0       0
       0       0       0       0       0       0       0       0       0       0
       0       0       0       0       0       0       0       0       0       0
       0       0       0       0       0       0       0       0       0       0
       0       0       0       0       0       0       0       0       0       0
       0       0       0       0       0       0       0       0       0       0
       0       0       0       0       0       0       0       0       0       0
       0       0       0       0       0       0       0       0       0       0
       0       0       0       0       0       0       0       0       0       0
       0       0       0       0       0       0       0       0       0       0
       0       0       0       0       0       0       0       0       0       0
       0       0       0       0       0       0       0       0       0       0
       0       0       0       0       0       0       0       0       0       0
       0       0       0       0       0       0       0       0       0       0
       0       0       0       0       0       0       0       0       0       0
       0       0       0       0       0       0       0       0       0       0
       0       0       0       0       0       0       0       0       0       0
       0       0       0       0       0       0       0       0       0       0
       0       0       0       0       0       0       0       0       0       0
       0       0       0       0       0       0       0       0       0       0
       0       0       0       0       0       0       0       0       0       0
       0       0       0       0       0       0       0       0       0       0
       0       0       0       0       0       0       0       0       0       0
       0       0       0       0       0       0       0       0       0       0
       0       0       0       0       0       0       0       0       0       0
       0       0       0       0       0       0       0       0       0       0
       0       0       0       0       0       0       0       0       0       0
       0       0       0       0       0       0       0       0       0       0
       0       0       0       0       0       0       0       0       0       0
       0       0       0       0       0       0       0       0       0       0
       0       0       0       0       0       0       0       0       0       0
       0       0       0       0       0       0       0       0       0       0
       0       0       0       0       0       0       0       0       0       0
       0       0       0       0       0       0       0       0       0       0
       0       0       0       0       0       0       0       0       0       0
       0       0       0       0       0       0       0       0       0       0
       0       0       0       0       0       0       0       0       0       0
       0       0       0       0       0       0       0       0       0       0
       0       0       0       0       0       0       0       0       0       0
       0       0       0       0       0       0       0       0       0       0
       0       0       0       0       0       0       0       0       0       0
       0       0       0       0       0       0       0       0       0       0
       0       0       0       0       0       0       0       0       0       0
       0       0       0       0       0       0       0       0       0       0
       0       0       0       0       0       0       0       0       0       0
       0       0       0       0       0       0       0       0       0       0
       0       0       0       0       0       0       0       0       0       0
       0       0       0       0       0       0       0       0       0       0
       0       0       0       0       0       0       0       0       0       0
       0       0       0       0       0       0       0       0       0       0
       0       0       0       0       0       0       0       0       0       0
       0       0       0       0       0       0       0       0       0       0
       0       0       0       0       0       0       0       0       0       0
       0       0       0       0       0       0       0       0       0       0
       0       0       0       0       0       0       0       0       0       0
       0       0       0       0       0       0       0       0       0       0
       0       0       0       0       0       0       0       0       0       0
       0       0       0       0       0       0       0       0       0       0
       0       0       0       0       0       0       0       0       0       0
       0       0       0       0       0       0       0       0       0       0
       0       0       0       0       0       0       0       0       0       0
       0       0       0       0       0       0       0       0       0       0
       0       0       0       0       0       0       0       0       0       0
       0       0       0       0       0       0       0       0       0       0
       0       0       0       0       0       0       0       0       0       0
       0       0       0       0       0       0       0       0       0       0
       0       0       0       0       0       0       0       0       0       0
       0       0       0       0       0       0       0       0       0       0
       0       0       0       0       0       0       0       0       0       0
       0       0       0       0       0       0       0       0       0       0
       0       0       0       0       0       0       0       0       0       0
       0       0       0       0       0       0       0       0       0       0
       0       0       0       0       0       0       0       0       0       0
       0       0       0       0       0       0       0       0       0       0
       0       0       0       0       0       0       0       0       0       0
       0       0       0       0       0       0       0       0       0       0
       0       0       0       0       0       0       0       0       0       0
       0       0       0       0       0       0       0       0       0       0
       0       0       0       0       0       0       0       0       0       0
       0       0       0       0       0       0       0       0       0       0
       0       0       0       0       0       0       0       0       0       0
       0       0       0       0       0       0       0       0       0       0
       0       0       0       0       0       0       0       0       0       0
       0       0       0       0       0       0       0       0       0       0
       0       0       0       0       0       0       0       0       0       0
       0       0       0       0       0       0       0       0       0       0
       0       0       0       0       0       0       0       0       0       0
       0       0       0       0       0       0       0       0       0       0
       0       0       0       0       0       0       0       0       0       0
       0       0       0       0       0       0       0       0       0       0
       0       0       0       0       0       0       0       0       0       0
       0       0       0       0       0       0       0       0       0       0
       0       0       0       0       0       0       0       0       0       0
       0       0       0       0       0       0       0       0       0       0
       0       0       0       0       0       0       0       0       0       0
       0       0       0       0       0       0       0       0       0       0
       0       0       0       0       0       0       0       0       0       0
       0       0       0       0       0       0       0       0       0       0
       0       0       0       0       0       0       0       0       0       0
       0       0       0       0       0       0       0       0       0       0
       0       0       0       0       0       0       0       0       0       0
       0       0       0       0       0       0       0       0       0       0
       0       0       0       0       0       0       0       0       0       0
       0       0       0       0       0       0       0       0       0       0
       0       0       0       0       0       0       0       0       0       0
       0       0       0       0       0       0       0       0       0       0
       0       0       0       0       0       0       0       0       0       0
       0       0       0       0       0       0       0       0       0       0
       0       0       0       0       0       0       0       0       0       0
       0       0       0       0       0       0       0       0       0       0
       0       0       0       0       0       0       0       0       0       0
       0       0       0       0       0       0       0       0       0       0
       0       0       0       0       0       0       0       0       0       0
       0       0       0       0       0       0       0       0       0       0
       0       0       0       0       0       0       0       0       0       0
       0       0       0       0       0       0       0       0       0       0
       0       0       0       0       0       0       0       0       0       0
       0       0       0       0       0       0       0       0       0       0
       0       0       0       0       0       0       0       0       0       0
       0       0       0       0       0       0       0       0       0       0
       0       0       0       0       0       0       0       0       0       0
       0       0       0       0       0       0       0       0       0       0
       0       0       0       0       0       0       0       0       0       0
       0       0       0       0       0       0       0       0       0       0
       0       0       0       0       0       0       0       0       0       0
       0       0       0       0       0       0       0       0       0       0
       0       0       0       0       0       0       0       0       0       0
       0       0       0       0       0       0       0       0       0       0
       0       0       0       0       0       0       0       0       0       0
       0       0       0       0       0       0       0       0       0       0
       0       0       0       0       0       0       0       0       0       0
       0       0       0       0       0       0       0       0       0       0
       0       0       0       0       0       0       0       0       0       0
       0       0       0       0       0       0       0       0       0       0
       0       0       0       0       0       0       0       0       0       0
       0       0       0       0       0       0       0       0       0       0
       0       0       0       0       0       0       0       0       0       0
       0       0       0       0       0       0       0       0       0       0
       0       0       0       0       0       0       0       0       0       0
       0       0       0       0       0       0       0       0       0       0
       0       0       0       0       0       0       0       0       0       0
       0       0       0       0       0       0       0       0       0       0
       0       0       0       0       0       0       0       0       0       0
       0       0       0       0       0       0       0       0       0       0
       0       0       0       0       0       0       0       0       0       0
       0       0       0       0       0       0       0       0       0       0
       0       0       0       0       0       0       0       0       0       0
       0       0       0       0       0       0       0       0       0       0
       0       0       0       0       0       0       0       0       0       0
       0       0       0       0       0       0       0       0       0       0
       0       0       0       0       0       0       0       0       0       0
       0       0       0       0       0       0       0       0       0       0
       0       0       0       0       0       0       0       0       0       0
       0       0       0       0       0       0       0       0       0       0
       0       0       0       0       0       0       0       0       0       0
       0       0       0       0       0       0       0       0       0       0
       0       0       0       0       0       0       0       0       0       0
       0       0       0       0       0       0       0       0       0       0
       0       0       0       0       0       0       0       0       0       0
       0       0       0       0       0       0       0       0       0       0
       0       0       0       0       0       0       0       0       0       0
       0       0       0       0       0       0       0       0       0       0
       0       0       0       0       0       0       0       0       0       0
       0       0       0       0       0       0       0       0       0       0
       0       0       0       0       0       0       0       0       0       0
       0       0       0       0       0       0       0       0       0       0
       0       0       0       0       0       0       0       0       0       0
       0       0       0       0       0       0       0       0       0       0
       0       0       0       0       0       0       0       0       0       0
       0       0       0       0       0       0       0       0       0       0
       0       0       0       0       0       0       0       0       0       0
       0       0       0       0       0       0       0       0       0       0
       0       0       0       0       0       0       0       0       0       0
       0       0       0       0       0       0       0       0       0       0
       0       0       0       0       0       0       0       0       0       0
       0       0       0       0       0       0       0       0       0       0
       0       0       0       0       0       0       0       0       0       0
       0       0       0       0       0       0       0       0       0       0
       0       0       0       0       0       0       0       0       0       0
       0       0       0       0       0       0       0       0       0       0
       0       0       0       0       0       0       0       0       0       0
       0       0       0       0       0       0       0       0       0       0
       0       0       0       0       0       0       0       0       0       0
       0       0       0       0       0       0       0       0       0       0
       0       0       0       0       0       0       0       0       0       0
       0       0       0       0       0       0       0       0       0       0
       0       0       0       0       0       0       0       0       0       0
       0       0       0       0       0       0       0       0       0       0
       0       0       0       0       0       0       0       0       0       0
       0       0       0       0       0       0       0       0       0       0
       0       0       0       0       0       0       0       0       0       0
       0       0       0       0       0       0       0       0       0       0
       0       0       0       0       0       0       0       0       0       0
       0       0       0       0       0       0       0       0       0       0
       0       0       0       0       0       0       0       0       0       0
       0       0       0       0       0       0       0       0       0       0
       0       0       0       0       0       0       0       0       0       0
       0       0       0       0       0       0       0       0       0       0
       0       0       0       0       0       0       0       0       0       0
       0       0       0       0       0       0       0       0       0       0
       0       0       0       0       0       0       0       0       0       0
       0       0       0       0       0       0       0       0       0       0
       0       0       0       0       0       0       0       0       0       0
       0       0       0       0       0       0       0       0       0       0
       0       0       0       0       0       0       0       0       0       0
       0       0       0       0       0       0       0       0       0       0
       0       0       0       0       0       0       0       0       0       0
       0       0       0       0       0       0       0       0       0       0
       0       0       0       0       0       0       0       0       0       0
       0       0       0       0       0       0       0       0       0       0
       0       0       0       0       0       0       0       0       0       0
       0       0       0       0       0       0       0       0       0       0
       0       0       0       0       0       0       0       0       0       0
       0       0       0       0       0       0       0       0       0       0
       0       0       0       0       0       0       0       0       0       0
       0       0       0       0       0       0       0       0       0       0
       0       0       0       0       0       0       0       0       0       0
       0       0       0       0       0       0       0       0       0       0
       0       0       0       0       0       0       0       0       0       0
       0       0       0       0       0       0       0       0       0       0
       0       0       0       0       0       0       0       0       0       0
       0       0       0       0       0       0       0       0       0       0
       0       0       0       0       0       0       0       0       0       0
       0       0       0       0       0       0       0       0       0       0
       0       0       0       0       0       0       0       0       0       0
       0       0       0       0       0       0       0       0       0       0
       0       0       0       0       0       0       0       0       0       0
       0       0       0       0       0       0       0       0       0       0
       0       0       0       0       0       0       0       0       0       0
       0       0       0       0       0       0       0       0       0       0
       0       0       0       0       0       0       0       0       0       0
       0       0       0       0       0       0       0       0       0       0
       0       0       0       0       0       0       0       0       0       0
       0       0       0       0       0       0       0       0       0       0
       0       0       0       0       0       0       0       0       0       0
       0       0       0       0       0       0       0       0       0       0
       0       0       0       0       0       0       0       0       0       0
       0       0       0       0       0       0       0       0       0       0
       0       0       0       0       0       0       0       0       0       0
       0       0       0       0       0       0       0       0       0       0
       0       0       0       0       0       0       0       0       0       0
       0       0       0       0       0       0       0       0       0       0
       0       0       0       0       0       0       0       0       0       0
       0       0       0       0       0       0       0       0       0       0
       0       0       0       0       0       0       0       0       0       0
       0       0       0       0       0       0       0       0       0       0
       0       0       0       0       0       0       0       0       0       0
       0       0       0       0       0       0       0       0       0       0
       0       0       0       0       0       0       0       0       0       0
       0       0       0       0       0       0       0       0       0       0
       0       0       0       0       0       0       0       0       0       0
       0       0       0       0       0       0       0       0       0       0
       0       0       0       0       0       0       0       0       0       0
       0       0       0       0       0       0       0       0       0       0
       0       0       0       0       0       0       0       0       0       0
       0       0       0       0       0       0       0       0       0       0
       0       0       0       0       0       0       0       0       0       0
       0       0       0       0       0       0       0       0       0       0
       0       0       0       0       0       0       0       0       0       0
       0       0       0       0       0       0       0       0       0       0
       0       0       0       0       0       0       0       0       0       0
       0       0       0       0       0       0       0       0       0       0
       0       0       0       0       0       0       0       0       0       0
       0       0       0       0       0       0       0       0       0       0
       0       0       0       0       0       0       0       0       0       0
       0       0       0       0       0       0       0       0       0       0
       0       0       0       0       0       0       0       0       0       0
       0       0       0       0       0       0       0       0       0       0
       0       0       0       0       0       0       0       0       0       0
       0       0       0       0       0       0       0       0       0       0
       0       0       0       0       0       0       0       0       0       0
       0       0       0       0       0       0       0       0       0       0
       0       0       0       0       0       0       0       0       0       0
       0       0       0       0       0       0       0       0       0       0
       0       0       0       0       0       0       0       0       0       0
       0       0       0       0       0       0       0       0       0       0
       0       0       0       0       0       0       0       0       0       0
       0       0       0       0       0       0       0       0       0       0
       0       0       0       0       0       0       0       0       0       0
       0       0       0       0       0       0       0       0       0       0
       0       0       0       0       0       0       0       0       0       0
       0       0       0       0       0       0       0       0       0       0
       0       0       0       0       0       0       0       0       0       0
       0       0       0       0       0       0       0       0       0       0
       0       0       0       0       0       0       0       0       0       0
       0       0       0       0       0       0       0       0       0       0
       0       0       0       0       0       0       0       0       0       0
       0       0       0       0       0       0       0       0       0       0
       0       0       0       0       0       0       0       0       0       0
       0       0       0       0       0       0       0       0       0       0
       0       0       0       0       0       0       0       0       0       0
       0       0       0       0       0       0       0       0       0       0
       0       0       0       0       0       0       0       0       0       0
       0       0       0       0       0       0       0       0       0       0
       0       0       0       0       0       0       0       0       0       0
       0       0       0       0       0       0       0       0       0       0
       0       0       0       0       0       0       0       0       0       0
       0       0       0       0       0       0       0       0       0       0
       0       0       0       0       0       0       0       0       0       0
       0       0       0       0       0       0       0       0       0       0
       0       0       0       0       0       0       0       0       0       0
       0       0       0       0       0       0       0       0       0       0
       0       0       0       0       0       0       0       0       0       0
       0       0       0       0       0       0       0       0       0       0
       0       0       0       0       0       0       0       0       0       0
       0       0       0       0       0       0       0       0       0       0
       0       0       0       0       0       0       0       0       0       0
       0       0       0       0       0       0       0       0       0       0
       0       0       0       0       0       0       0       0       0       0
       0       0       0       0       0       0       0       0       0       0
       0       0       0       0       0       0       0       0       0       0
       0       0       0       0       0       0       0       0       0       0
       0       0       0       0       0       0       0       0       0       0
       0       0       0       0       0       0       0       0       0       0
       0       0       0       0       0       0       0       0       0       0
       0       0       0       0       0       0       0       0       0       0
       0       0       0       0       0       0       0       0       0       0
       0       0       0       0       0       0       0       0       0       0
       0       0       0       0       0       0       0       0       0       0
       0       0       0       0       0       0       0       0       0       0
       0       0       0       0       0       0       0       0       0       0
       0       0       0       0       0       0       0       0       0       0
       0       0       0       0       0       0       0       0       0       0
       0       0       0       0       0       0       0       0       0       0
       0       0       0       0       0       0       0       0       0       0
       0       0       0       0       0       0       0       0       0       0
       0       0       0       0       0       0       0       0       0       0
       0       0       0       0       0       0       0       0       0       0
       0       0       0       0       0       0       0       0       0       0
       0       0       0       0       0       0       0       0       0       0
       0       0       0       0       0       0       0       0       0       0
       0       0       0       0       0       0       0       0       0       0
       0       0       0       0       0       0       0       0       0       0
       0       0       0       0       0       0       0       0       0       0
       0       0       0       0       0       0       0       0       0       0
       0       0       0       0       0       0       0       0       0       0
       0       0       0       0       0       0       0       0       0       0
       0       0       0       0       0       0       0       0       0       0
       0       0       0       0       0       0       0       0       0       0
       0       0       0       0       0       0       0       0       0       0
       0       0       0       0       0       0       0       0       0       0
       0       0       0       0       0       0       0       0       0       0
       0       0       0       0       0       0       0       0       0       0
       0       0       0       0       0       0       0       0       0       0
       0       0       0       0       0       0       0       0       0       0
       0       0       0       0       0       0       0       0       0       0
       0       0       0       0       0       0       0       0       0       0
       0       0       0       0       0       0       0       0       0       0
       0       0       0       0       0       0       0       0       0       0
       0       0       0       0       0       0       0       0       0       0
       0       0       0       0       0       0       0       0       0       0
       0       0       0       0       0       0       0       0       0       0
       0       0       0       0       0       0       0       0       0       0
       0       0       0       0       0       0       0       0       0       0
       0       0       0       0       0       0       0       0       0       0
       0       0       0       0       0       0       0       0       0       0
       0       0       0       0       0       0       0       0       0       0
       0       0       0       0       0       0       0       0       0       0
       0       0       0       0       0       0       0       0       0       0
       0       0       0       0       0       0       0       0       0       0
       0       0       0       0       0       0       0       0       0       0
       0       0       0       0       0       0       0       0       0       0
       0       0       0       0       0       0       0       0       0       0
       0       0       0       0       0       0       0       0       0       0
       0       0       0       0       0       0       0       0       0       0
       0       0       0       0       0       0       0       0       0       0
       0       0       0       0       0       0       0       0       0       0
       0       0       0       0       0       0       0       0       0       0
       0       0       0       0       0       0       0       0       0       0
       0       0       0       0       0       0       0       0       0       0
       0       0       0       0       0       0       0       0       0       0
       0       0       0       0       0       0       0       0       0       0
       0       0       0       0       0       0       0       0       0       0
       0       0       0       0       0       0       0       0       0       0
       0       0       0       0       0       0       0       0       0       0
       0       0       0       0       0       0       0       0       0       0
       0       0       0       0       0       0       0       0       0       0
       0       0       0       0       0       0       0       0       0       0
       0       0       0       0       0       0       0       0       0       0
       0       0       0       0       0       0       0       0       0       0
       0       0       0       0       0       0       0       0       0       0
       0       0       0       0       0       0       0       0       0       0
       0       0       0       0       0       0       0       0       0       0
       0       0       0       0       0       0       0       0       0       0
       0       0       0       0       0       0       0       0       0       0
       0       0       0       0       0       0       0       0       0       0
       0       0       0       0       0       0       0       0       0       0
       0       0       0       0       0       0       0       0       0       0
       0       0       0       0       0       0       0       0       0       0
       0       0       0       0       0       0       0       0       0       0
       0       0       0       0       0       0       0       0       0       0
       0       0       0       0       0       0       0       0       0       0
       0       0       0       0       0       0       0       0       0       0
       0       0       0       0       0       0       0       0       0       0
       0       0       0       0       0       0       0       0       0       0
       0       0       0       0       0       0       0       0       0       0
       0       0       0       0       0       0       0       0       0       0
       0       0       0       0       0       0       0       0       0       0
       0       0       0       0       0       0       0       0       0       0
       0       0       0       0       0       0       0       0       0       0
       0       0       0       0       0       0       0       0       0       0
       0       0       0       0       0       0       0       0       0       0
       0       0       0       0       0       0       0       0       0       0
       0       0       0       0       0       0       0       0       0       0
       0       0       0       0       0       0       0       0       0       0
       0       0       0       0       0       0       0       0       0       0
       0       0       0       0       0       0       0       0       0       0
       0       0       0       0       0       0       0       0       0       0
       0       0       0       0       0       0       0       0       0       0
       0       0       0       0       0       0       0       0       0       0
       0       0       0       0       0       0       0       0       0       0
       0       0       0       0       0       0       0       0       0       0
       0       0       0       0       0       0       0       0       0       0
       0       0       0       0       0       0       0       0       0       0
       0       0       0       0       0       0       0       0       0       0
       0       0       0       0       0       0       0       0       0       0
       0       0       0       0       0       0       0       0       0       0
       0       0       0       0       0       0       0       0       0       0
       0       0       0       0       0       0       0       0       0       0
       0       0       0       0       0       0       0       0       0       0
       0       0       0       0       0       0       0       0       0       0
       0       0       0       0       0       0       0       0       0       0
       0       0       0       0       0       0       0       0       0       0
       0       0       0       0       0       0       0       0       0       0
       0       0       0       0       0       0       0       0       0       0
       0       0       0       0       0       0       0       0       0       0
       0       0       0       0       0       0       0       0       0       0
       0       0       0       0       0       0       0       0       0       0
       0       0       0       0       0       0       0       0       0       0
       0       0       0       0       0       0       0       0       0       0
       0       0       0       0       0       0       0       0       0       0
       0       0       0       0       0       0       0       0       0       0
       0       0       0       0       0       0       0       0       0       0
       0       0       0       0       0       0       0       0       0       0
       0       0       0       0       0       0       0       0       0       0
       0       0       0       0       0       0       0       0       0       0
       0       0       0       0       0       0       0       0       0       0
       0       0       0       0       0       0       0       0       0       0
       0       0       0       0       0       0       0       0       0       0
       0       0       0       0       0       0       0       0       0       0
       0       0       0       0       0       0       0       0       0       0
       0       0       0       0       0       0       0       0       0       0
       0       0       0       0       0       0       0       0       0       0
       0       0       0       0       0       0       0       0       0       0
       0       0       0       0       0       0       0       0       0       0
       0       0       0       0       0       0       0       0       0       0
       0       0       0       0       0       0       0       0       0       0
       0       0       0       0       0       0       0       0       0       0
       0       0       0       0       0       0       0       0       0       0
       0       0       0       0       0       0       0       0       0       0
       0       0       0       0       0       0       0       0       0       0
       0       0       0       0       0       0       0       0       0       0
       0       0       0       0       0       0       0       0       0       0
       0       0       0       0       0       0       0       0       0       0
       0       0       0       0       0       0       0       0       0       0
       0       0       0       0       0       0       0       0       0       0
       0       0       0       0       0       0       0       0       0       0
       0       0       0       0       0       0       0       0       0       0
       0       0       0       0       0       0       0       0       0       0
       0       0       0       0       0       0       0       0       0       0
       0       0       0       0       0       0       0       0       0       0
       0       0       0       0       0       0       0       0       0       0
       0       0       0       0       0       0       0       0       0       0
       0       0       0       0       0       0       0       0       0       0
       0       0       0       0       0       0       0       0       0       0
       0       0       0       0       0       0       0       0       0       0
       0       0       0       0       0       0       0       0       0       0
       0       0       0       0       0       0       0       0       0       0
       0       0       0       0       0       0       0       0       0       0
       0       0       0       0       0       0       0       0       0       0
       0       0       0       0       0       0       0       0       0       0
       0       0       0       0       0       0       0       0       0       0
       0       0       0       0       0       0       0       0       0       0
       0       0       0       0       0       0       0       0       0       0
       0       0       0       0       0       0       0       0       0       0
       0       0       0       0       0       0       0       0       0       0
       0       0       0       0       0       0       0       0       0       0
       0       0       0       0       0       0       0       0       0       0
       0       0       0       0       0       0       0       0       0       0
       0       0       0       0       0       0       0       0       0       0
       0       0       0       0       0       0       0       0       0       0
       0       0       0       0       0       0       0       0       0       0
       0       0       0       0       0       0       0       0       0       0
       0       0       0       0       0       0       0       0       0       0
       0       0       0       0       0       0       0       0       0       0
       0       0       0       0       0       0       0       0       0       0
       0       0       0       0       0       0       0       0       0       0
       0       0       0       0       0       0       0       0       0       0
       0       0       0       0       0       0       0       0       0       0
       0       0       0       0       0       0       0       0       0       0
       0       0       0       0       0       0       0       0       0       0
       0       0       0       0       0       0       0       0       0       0
       0       0       0       0       0       0       0       0       0       0
       0       0       0       0       0       0       0       0       0       0
       0       0       0       0       0       0       0       0       0       0
       0       0       0       0       0       0       0       0       0       0
       0       0       0       0       0       0       0       0       0       0
       0       0       0       0       0       0       0       0       0       0
       0       0       0       0       0       0       0       0       0       0
       0       0       0       0       0       0       0       0       0       0
       0       0       0       0       0       0       0       0       0       0
       0       0       0       0       0       0       0       0       0       0
       0       0       0       0       0       0       0       0       0       0
       0       0       0       0       0       0       0       0       0       0
       0       0       0       0       0       0       0       0       0       0
       0       0       0       0       0       0       0       0       0       0
       0       0       0       0       0       0       0       0       0       0
       0       0       0       0       0       0       0       0       0       0
       0       0       0       0       0       0       0       0       0       0
       0       0       0       0       0       0       0       0       0       0
       0       0       0       0       0       0       0       0       0       0
       0       0       0       0       0       0       0       0       0       0
       0       0       0       0       0       0       0       0       0       0
       0       0       0       0       0       0       0       0       0       0
       0       0       0       0       0       0       0       0       0       0
       0       0       0       0       0       0       0       0       0       0
       0       0       0       0       0       0       0       0       0       0
       0       0       0       0       0       0       0       0       0       0
       0       0       0       0       0       0       0       0       0       0
       0       0       0       0       0       0       0       0       0       0
       0       0       0       0       0       0       0       0       0       0
       0       0       0       0       0       0       0       0       0       0
       0       0       0       0       0       0       0       0       0       0
       0       0       0       0       0       0       0       0       0       0
       0       0       0       0       0       0       0       0       0       0
       0       0       0       0       0       0       0       0       0       0
       0       0       0       0       0       0       0       0       0       0
       0       0       0       0       0       0       0       0       0       0
       0       0       0       0       0       0       0       0       0       0
       0       0       0       0       0       0       0       0       0       0
       0       0       0       0       0       0       0       0       0       0
       0       0       0       0       0       0       0       0       0       0
       0       0       0       0       0       0       0       0       0       0
       0       0       0       0       0       0       0       0       0       0
       0       0       0       0       0       0       0       0       0       0
       0       0       0       0       0       0       0       0       0       0
       0       0       0       0       0       0       0       0       0       0
       0       0       0       0       0       0       0       0       0       0
       0       0       0       0       0       0       0       0       0       0
       0       0       0       0       0       0       0       0       0       0
       0       0       0       0       0       0       0       0       0       0
       0       0       0       0       0       0       0       0       0       0
       0       0       0       0       0       0       0       0       0       0
       0       0       0       0       0       0       0       0       0       0
       0       0       0       0       0       0       0       0       0       0
       0       0       0       0       0       0       0       0       0       0
       0       0       0       0       0       0       0       0       0       0
       0       0       0       0       0       0       0       0       0       0
       0       0       0       0       0       0       0       0       0       0
       0       0       0       0       0       0       0       0       0       0
       0       0       0       0       0       0       0       0       0       0
       0       0       0       0       0       0       0       0       0       0
       0       0       0       0       0       0       0       0       0       0
       0       0       0       0       0       0       0       0       0       0
       0       0       0       0       0       0       0       0       0       0
       0       0       0       0       0       0       0       0       0       0
       0       0       0       0       0       0       0       0       0       0
       0       0       0       0       0       0       0       0       0       0
       0       0       0       0       0       0       0       0       0       0
       0       0       0       0       0       0       0       0       0       0
       0       0       0       0       0       0       0       0       0       0
       0       0       0       0       0       0       0       0       0       0
       0       0       0       0       0       0       0       0       0       0
       0       0       0       0       0       0       0       0       0       0
       0       0       0       0       0       0       0       0       0       0
       0       0       0       0       0       0       0       0       0       0
       0       0       0       0       0       0       0       0       0       0
       0       0       0       0       0       0       0       0       0       0
       0       0       0       0       0       0       0       0       0       0
       0       0       0       0       0       0       0       0       0       0
       0       0       0       0       0       0       0       0       0       0
       0       0       0       0       0       0       0       0       0       0
       0       0       0       0       0       0       0       0       0       0
       0       0       0       0       0       0       0       0       0       0
       0       0       0       0       0       0       0       0       0       0
       0       0       0       0       0       0       0       0       0       0
       0       0       0       0       0       0       0       0       0       0
       0       0       0       0       0       0       0       0       0       0
       0       0       0       0       0       0       0       0       0       0
       0       0       0       0       0       0       0       0       0       0
       0       0       0       0       0       0       0       0       0       0
       0       0       0       0       0       0       0       0       0       0
       0       0       0       0       0       0       0       0       0       0
       0       0       0       0       0       0       0       0       0       0
       0       0       0       0       0       0       0       0       0       0
       0       0       0       0       0       0       0       0       0       0
       0       0       0       0       0       0       0       0       0       0
       0       0       0       0       0       0       0       0       0       0
       0       0       0       0       0       0       0       0       0       0
       0       0       0       0       0       0       0       0       0       0
       0       0       0       0       0       0       0       0       0       0
       0       0       0       0       0       0       0       0       0       0
       0       0       0       0       0       0       0       0       0       0
       0       0       0       0       0       0       0       0       0       0
       0       0       0       0       0       0       0       0       0       0
       0       0       0       0       0       0       0       0       0       0
       0       0       0       0       0       0       0       0       0       0
       0       0       0       0       0       0       0       0       0       0
       0       0       0       0       0       0       0       0       0       0
       0       0       0       0       0       0       0       0       0       0
       0       0       0       0       0       0       0       0       0       0
       0       0       0       0       0       0       0       0       0       0
       0       0       0       0       0       0       0       0       0       0
       0       0       0       0       0       0       0       0       0       0
       0       0       0       0       0       0       0       0       0       0
       0       0       0       0       0       0       0       0       0       0
       0       0       0       0       0       0       0       0       0       0
       0       0       0       0       0       0       0       0       0       0
       0       0       0       0       0       0       0       0       0       0
       0       0       0       0       0       0       0       0       0       0
       0       0       0       0       0       0       0       0       0       0
       0       0       0       0       0       0       0       0       0       0
       0       0       0       0       0       0       0       0       0       0
       0       0       0       0       0       0       0       0       0       0
       0       0       0       0       0       0       0       0       0       0
       0       0       0       0       0       0       0       0       0       0
       0       0       0       0       0       0       0       0       0       0
       0       0       0       0       0       0       0       0       0       0
       0       0       0       0       0       0       0       0       0       0
       0       0       0       0       0       0       0       0       0       0
       0       0       0       0       0       0       0       0       0       0
       0       0       0       0       0       0       0       0       0       0
       0       0       0       0       0       0       0       0       0       0
       0       0       0       0       0       0       0       0       0       0
       0       0       0       0       0       0       0       0       0       0
       0       0       0       0       0       0       0       0       0       0
       0       0       0       0       0       0       0       0       0       0
       0       0       0       0       0       0       0       0       0       0
       0       0       0       0       0       0       0       0       0       0
       0       0       0       0       0       0       0       0       0       0
       0       0       0       0       0       0       0       0       0       0
       0       0       0       0       0       0       0       0       0       0
       0       0       0       0       0       0       0       0       0       0
       0       0       0       0       0       0       0       0       0       0
       0       0       0       0       0       0       0       0       0       0
       0       0       0       0       0       0       0       0       0       0
       0       0       0       0       0       0       0       0       0       0
       0       0       0       0       0       0       0       0       0       0
       0       0       0       0       0       0       0       0       0       0
       0       0       0       0       0       0       0       0       0       0
       0       0       0       0       0       0       0       0       0       0
       0       0       0       0       0       0       0       0       0       0
       0       0       0       0       0       0       0       0       0       0
       0       0       0       0       0       0       0       0       0       0
       0       0       0       0       0       0       0       0       0       0
       0       0       0       0       0       0       0       0       0       0
       0       0       0       0       0       0       0       0       0       0
       0       0       0       0       0       0       0       0       0       0
       0       0       0       0       0       0       0       0       0       0
       0       0       0       0       0       0       0       0       0       0
       0       0       0       0       0       0       0       0       0       0
       0       0       0       0       0       0       0       0       0       0
       0       0       0       0       0       0       0       0       0       0
       0       0       0       0       0       0       0       0       0       0
       0       0       0       0       0       0       0       0       0       0
       0       0       0       0       0       0       0       0       0       0
       0       0       0       0       0       0       0       0       0       0
       0       0       0       0       0       0       0       0       0       0
       0       0       0       0       0       0       0       0       0       0
       0       0       0       0       0       0       0       0       0       0
       0       0       0       0       0       0       0       0       0       0
       0       0       0       0       0       0       0       0       0       0
       0       0       0       0       0       0       0       0       0       0
       0       0       0       0       0       0       0       0       0       0
       0       0       0       0       0       0       0       0       0       0
       0       0       0       0       0       0       0       0       0       0
       0       0       0       0       0       0       0       0       0       0
       0       0       0       0       0       0       0       0       0       0
       0       0       0       0       0       0       0       0       0       0
       0       0       0       0       0       0       0       0       0       0
       0       0       0       0       0       0       0       0       0       0
       0       0       0       0       0       0       0       0       0       0
       0       0       0       0       0       0       0       0       0       0
       0       0       0       0       0       0       0       0       0       0
       0       0       0       0       0       0       0       0       0       0
       0       0       0       0       0       0       0       0       0       0
       0       0       0       0       0       0       0       0       0       0
       0       0       0       0       0       0       0       0       0       0
       0       0       0       0       0       0       0       0       0       0
       0       0       0       0       0       0       0       0       0       0
       0       0       0       0       0       0       0       0       0       0
       0       0       0       0       0       0       0       0       0       0
       0       0       0       0       0       0       0       0       0       0
       0       0       0       0       0       0       0       0       0       0
       0       0       0       0       0       0       0       0       0       0
       0       0       0       0       0       0       0       0       0       0
       0       0       0       0       0       0       0       0       0       0
       0       0       0       0       0       0       0       0       0       0
       0       0       0       0       0       0       0       0       0       0
       0       0       0       0       0       0       0       0       0       0
       0       0       0       0       0       0       0       0       0       0
       0       0       0       0       0       0       0       0       0       0
       0       0       0       0       0       0       0       0       0       0
       0       0       0       0       0       0       0       0       0       0
       0       0       0       0       0       0       0       0       0       0
       0       0       0       0       0       0       0       0       0       0
       0       0       0       0       0       0       0       0       0       0
       0       0       0       0       0       0       0       0       0       0
       0       0       0       0       0       0       0       0       0       0
       0       0       0       0       0       0       0       0       0       0
       0       0       0       0       0       0       0       0       0       0
       0       0       0       0       0       0       0       0       0       0
       0       0       0       0       0       0       0       0       0       0
       0       0       0       0       0       0       0       0       0       0
       0       0       0       0       0       0       0       0       0       0
       0       0       0       0       0       0       0       0       0       0
       0       0       0       0       0       0       0       0       0       0
       0       0       0       0       0       0       0       0       0       0
       0       0       0       0       0       0       0       0       0       0
       0       0       0       0       0       0       0       0       0       0
       0       0       0       0       0       0       0       0       0       0
       0       0       0       0       0       0       0       0       0       0
       0       0       0       0       0       0       0       0       0       0
       0       0       0       0       0       0       0       0       0       0
       0       0       0       0       0       0       0       0       0       0
       0       0       0       0       0       0       0       0       0       0
       0       0       0       0       0       0       0       0       0       0
       0       0       0       0       0       0       0       0       0       0
       0       0       0       0       0       0       0       0       0       0
       0       0       0       0       0       0       0       0       0       0
       0       0       0       0       0       0       0       0       0       0
       0       0       0       0       0       0       0       0       0       0
       0       0       0       0       0       0       0       0       0       0
       0       0       0       0       0       0       0       0       0       0
       0       0       0       0       0       0       0       0       0       0
       0       0       0       0       0       0       0       0       0       0
       0       0       0       0       0       0       0       0       0       0
       0       0       0       0       0       0       0       0       0       0
       0       0       0       0       0       0       0       0       0       0
       0       0       0       0       0       0       0       0       0       0
       0       0       0       0       0       0       0       0       0       0
       0       0       0       0       0       0       0       0       0       0
       0       0       0       0       0       0       0       0       0       0
       0       0       0       0       0       0       0       0       0       0
       0       0       0       0       0       0       0       0       0       0
       0       0       0       0       0       0       0       0       0       0
       0       0       0       0       0       0       0       0       0       0
       0       0       0       0       0       0       0       0       0       0
       0       0       0       0       0       0       0       0       0       0
       0       0       0       0       0       0       0       0       0       0
       0       0       0       0       0       0       0       0       0       0
       0       0       0       0       0       0       0       0       0       0
       0       0       0       0       0       0       0       0       0       0
       0       0       0       0       0       0       0       0       0       0
       0       0       0       0       0       0       0       0       0       0
       0       0       0       0       0       0       0       0       0       0
       0       0       0       0       0       0       0       0       0       0
       0       0       0       0       0       0       0       0       0       0
       0       0       0       0       0       0       0       0       0       0
       0       0       0       0       0       0       0       0       0       0
       0       0       0       0       0       0       0       0       0       0
       0       0       0       0       0       0       0       0       0       0
       0       0       0       0       0       0       0       0       0       0
       0       0       0       0       0       0       0       0       0       0
       0       0       0       0       0       0       0       0       0       0
       0       0       0       0       0       0       0       0       0       0
       0       0       0       0       0       0       0       0       0       0
       0       0       0       0       0       0       0       0       0       0
       0       0       0       0       0       0       0       0       0       0
       0       0       0       0       0       0       0       0       0       0
       0       0       0       0       0       0       0       0       0       0
       0       0       0       0       0       0       0       0       0       0
       0       0       0       0       0       0       0       0       0       0
       0       0       0       0       0       0       0       0       0       0
       0       0       0       0       0       0       0       0       0       0
       0       0       0       0       0       0       0       0       0       0
       0       0       0       0       0       0       0       0       0       0
       0       0       0       0       0       0       0       0       0       0
       0       0       0       0       0       0       0       0       0       0
       0       0       0       0       0       0       0       0       0       0
       0       0       0       0       0       0       0       0       0       0
       0       0       0       0       0       0       0       0       0       0
       0       0       0       0       0       0       0       0       0       0
       0       0       0       0       0       0       0       0       0       0
       0       0       0       0       0       0       0       0       0       0
       0       0       0       0       0       0       0       0       0       0
       0       0       0       0       0       0       0       0       0       0
       0       0       0       0       0       0       0       0       0       0
       0       0       0       0       0       0       0       0       0       0
       0       0       0       0       0       0       0       0       0       0
       0       0       0       0       0       0       0       0       0       0
       0       0       0       0       0       0       0       0       0       0
       0       0       0       0       0       0       0       0       0       0
       0       0       0       0       0       0       0       0       0       0
       0       0       0       0       0       0       0       0       0       0
       0       0       0       0       0       0       0       0       0       0
       0       0       0       0       0       0       0       0       0       0
       0       0       0       0       0       0       0       0       0       0
       0       0       0       0       0       0       0       0       0       0
       0       0       0       0       0       0       0       0       0       0
       0       0       0       0       0       0       0       0       0       0
       0       0       0       0       0       0       0       0       0       0
       0       0       0       0       0       0       0       0       0       0
       0       0       0       0       0       0       0       0       0       0
       0       0       0       0       0       0       0       0       0       0
       0       0       0       0       0       0       0       0       0       0
       0       0       0       0       0       0       0       0       0       0
       0       0       0       0       0       0       0       0       0       0
       0       0       0       0       0       0       0       0       0       0
       0       0       0       0       0       0       0       0       0       0
       0       0       0       0       0       0       0       0       0       0
       0       0       0       0       0       0       0       0       0       0
       0       0       0       0       0       0       0       0       0       0
       0       0       0       0       0       0       0       0       0       0
       0       0       0       0       0       0       0       0       0       0
       0       0       0       0       0       0       0       0       0       0
       0       0       0       0       0       0       0       0       0       0
       0       0       0       0       0       0       0       0       0       0
       0       0       0       0       0       0       0       0       0       0
       0       0       0       0       0       0       0       0       0       0
       0       0       0       0       0       0       0       0       0       0
       0       0       0       0       0       0       0       0       0       0
       0       0       0       0       0       0       0       0       0       0
       0       0       0       0       0       0       0       0       0       0
       0       0       0       0       0       0       0       0       0       0
       0       0       0       0       0       0       0       0       0       0
       0       0       0       0       0       0       0       0       0       0
       0       0       0       0       0       0       0       0       0       0
       0       0       0       0       0       0       0       0       0       0
       0       0       0       0       0       0       0       0       0       0
       0       0       0       0       0       0       0       0       0       0
       0       0       0       0       0       0       0       0       0       0
       0       0       0       0       0       0       0       0       0       0
       0       0       0       0       0       0       0       0       0       0
       0       0       0       0       0       0       0       0       0       0
       0       0       0       0       0       0       0       0       0       0
       0       0       0       0       0       0       0       0       0       0
       0       0       0       0       0       0       0       0       0       0
       0       0       0       0       0       0       0       0       0       0
       0       0       0       0       0       0       0       0       0       0
       0       0       0       0       0       0       0       0       0       0
       0       0       0       0       0       0       0       0       0       0
       0       0       0       0       0       0       0       0       0       0
       0       0       0       0       0       0       0       0       0       0
       0       0       0       0       0       0       0       0       0       0
       0       0       0       0       0       0       0       0       0       0
       0       0       0       0       0       0       0       0       0       0
       0       0       0       0       0       0       0       0       0       0
       0       0       0       0       0       0       0       0       0       0
       0       0       0       0       0       0       0       0       0       0
       0       0       0       0       0       0       0       0       0       0
       0       0       0       0       0       0       0       0       0       0
       0       0       0       0       0       0       0       0       0       0
       0       0       0       0       0       0       0       0       0       0
       0       0       0       0       0       0       0       0       0       0
       0       0       0       0       0       0       0       0       0       0
       0       0       0       0       0       0       0       0       0       0
       0       0       0       0       0       0       0       0       0       0
       0       0       0       0       0       0       0       0       0       0
       0       0       0       0       0       0       0       0       0       0
       0       0       0       0       0       0       0       0       0       0
       0       0       0       0       0       0       0       0       0       0
       0       0       0       0       0       0       0       0       0       0
       0       0       0       0       0       0       0       0       0       0
       0       0       0       0       0       0       0       0       0       0
       0       0       0       0       0       0       0       0       0       0
       0       0       0       0       0       0       0       0       0       0
       0       0       0       0       0       0       0       0       0       0
       0       0       0       0       0       0       0       0       0       0
       0       0       0       0       0       0       0       0       0       0
       0       0       0       0       0       0       0       0       0       0
       0       0       0       0       0       0       0       0       0       0
       0       0       0       0       0       0       0       0       0       0
       0       0       0       0       0       0       0       0       0       0
       0       0       0       0       0       0       0       0       0       0
       0       0       0       0       0       0       0       0       0       0
       0       0       0       0       0       0       0       0       0       0
       0       0       0       0       0       0       0       0       0       0
       0       0       0       0       0       0       0       0       0       0
       0       0       0       0       0       0       0       0       0       0
       0       0       0       0       0       0       0       0       0       0
       0       0       0       0       0       0       0       0       0       0
       0       0       0       0       0       0       0       0       0       0
       0       0       0       0       0       0       0       0       0       0
       0       0       0       0       0       0       0       0       0       0
       0       0       0       0       0       0       0       0       0       0
       0       0       0       0       0       0       0       0       0       0
       0       0       0       0       0       0       0       0       0       0
       0       0       0       0       0       0       0       0       0       0
       0       0       0       0       0       0       0       0       0       0
       0       0       0       0       0       0       0       0       0       0
       0       0       0       0       0       0       0       0       0       0
       0       0       0       0       0       0       0       0       0       0
       0       0       0       0       0       0       0       0       0       0
       0       0       0       0       0       0       0       0       0       0
       0       0       0       0       0       0       0       0       0       0
       0       0       0       0       0       0       0       0       0       0
       0       0       0       0       0       0       0       0       0       0
       0       0       0       0       0       0       0       0       0       0
       0       0       0       0       0       0       0       0       0       0
       0       0       0       0       0       0       0       0       0       0
       0       0       0       0       0       0       0       0       0       0
       0       0       0       0       0       0       0       0       0       0
       0       0       0       0       0       0       0       0       0       0
       0       0       0       0       0       0       0       0       0       0
       0       0       0       0       0       0       0       0       0       0
       0       0       0       0       0       0       0       0       0       0
       0       0       0       0       0       0       0       0       0       0
       0       0       0       0       0       0       0       0       0       0
       0       0       0       0       0       0       0       0       0       0
       0       0       0       0       0       0       0       0       0       0
       0       0       0       0       0       0       0       0       0       0
       0       0       0       0       0       0       0       0       0       0
       0       0       0       0       0       0       0       0       0       0
       0       0       0       0       0       0       0       0       0       0
       0       0       0       0       0       0       0       0       0       0
       0       0       0       0       0       0       0       0       0       0
       0       0       0       0       0       0       0       0       0       0
       0       0       0       0       0       0       0       0       0       0
       0       0       0       0       0       0       0       0       0       0
       0       0       0       0       0       0       0       0       0       0
       0       0       0       0       0       0       0       0       0       0
       0       0       0       0       0       0       0       0       0       0
       0       0       0       0       0       0       0       0       0       0
       0       0       0       0       0       0       0       0       0       0
       0       0       0       0       0       0       0       0       0       0
       0       0       0       0       0       0       0       0       0       0
       0       0       0       0       0       0       0       0       0       0
       0       0       0       0       0       0       0       0       0       0
       0       0       0       0       0       0       0       0       0       0
       0       0       0       0       0       0       0       0       0       0
       0       0       0       0       0       0       0       0       0       0
       0       0       0       0       0       0       0       0       0       0
       0       0       0       0       0       0       0       0       0       0
       0       0       0       0       0       0       0       0       0       0
       0       0       0       0       0       0       0       0       0       0
       0       0       0       0       0       0       0       0       0       0
       0       0       0       0       0       0       0       0       0       0
       0       0       0       0       0       0       0       0       0       0
       0       0       0       0       0       0       0       0       0       0
       0       0       0       0       0       0       0       0       0       0
       0       0       0       0       0       0       0       0       0       0
       0       0       0       0       0       0       0       0       0       0
       0       0       0       0       0       0       0       0       0       0
       0       0       0       0       0       0       0       0       0       0
       0       0       0       0       0       0       0       0       0       0
       0       0       0       0       0       0       0       0       0       0
       0       0       0       0       0       0       0       0       0       0
       0       0       0       0       0       0       0       0       0       0
       0       0       0       0       0       0       0       0       0       0
       0       0       0       0       0       0       0       0       0       0
       0       0       0       0       0       0       0       0       0       0
       0       0       0       0       0       0       0       0       0       0
       0       0       0       0       0       0       0       0       0       0
       0       0       0       0       0       0       0       0       0       0
       0       0       0       0       0       0       0       0       0       0
       0       0       0       0       0       0       0       0       0       0
       0       0       0       0       0       0       0       0       0       0
       0       0       0       0       0       0       0       0       0       0
       0       0       0       0       0       0       0       0       0       0
       0       0       0       0       0       0       0       0       0       0
       0       0       0       0       0       0       0       0       0       0
       0       0       0       0       0       0       0       0       0       0
       0       0       0       0       0       0       0       0       0       0
       0       0       0       0       0       0       0       0       0       0
       0       0       0       0       0       0       0       0       0       0
       0       0       0       0       0       0       0       0       0       0
       0       0       0       0       0       0       0       0       0       0
       0       0       0       0       0       0       0       0       0       0
       0       0       0       0       0       0       0       0       0       0
       0       0       0       0       0       0       0       0       0       0
       0       0       0       0       0       0       0       0       0       0
       0       0       0       0       0       0       0       0       0       0
       0       0       0       0       0       0       0       0       0       0
       0       0       0       0       0       0       0       0       0       0
       0       0       0       0       0       0       0       0       0       0
       0       0       0       0       0       0       0       0       0       0
       0       0       0       0       0       0       0       0       0       0
       0       0       0       0       0       0       0       0       0       0
       0       0       0       0       0       0       0       0       0       0
       0       0       0       0       0       0       0       0       0       0
       0       0       0       0       0       0       0       0       0       0
       0       0       0       0       0       0       0       0       0       0
       0       0       0       0       0       0       0       0       0       0
       0       0       0       0       0       0       0       0       0       0
       0       0       0       0       0       0       0       0       0       0
       0       0       0       0       0       0       0       0       0       0
       0       0       0       0       0       0       0       0       0       0
       0       0       0       0       0       0       0       0       0       0
       0       0       0       0       0       0       0       0       0       0
       0       0       0       0       0       0       0       0       0       0
       0       0       0       0       0       0       0       0       0       0
       0       0       0       0       0       0       0       0       0       0
       0       0       0       0       0       0       0       0       0       0
       0       0       0       0       0       0       0       0       0       0
       0       0       0       0       0       0       0       0       0       0
       0       0       0       0       0       0       0       0       0       0
       0       0       0       0       0       0       0       0       0       0
       0       0       0       0       0       0       0       0       0       0
       0       0       0       0       0       0       0       0       0       0
       0       0       0       0       0       0       0       0       0       0
       0       0       0       0       0       0       0       0       0       0
       0       0       0       0       0       0       0       0       0       0
       0       0       0       0       0       0       0       0       0       0
       0       0       0       0       0       0       0       0       0       0
       0       0       0       0       0       0       0       0       0       0
       0       0       0       0       0       0       0       0       0       0
       0       0       0       0       0       0       0       0       0       0
       0       0       0       0       0       0       0       0       0       0
       0       0       0       0       0       0       0       0       0       0
       0       0       0       0       0       0       0       0       0       0
       0       0       0       0       0       0       0       0       0       0
       0       0       0       0       0       0       0       0       0       0
       0       0       0       0       0       0       0       0       0       0
       0       0       0       0       0       0       0       0       0       0
       0       0       0       0       0       0       0       0       0       0
       0       0       0       0       0       0       0       0       0       0
       0       0       0       0       0       0       0       0       0       0
       0       0       0       0       0       0       0       0       0       0
       0       0       0       0       0       0       0       0       0       0
       0       0       0       0       0       0       0       0       0       0
       0       0       0       0       0       0       0       0       0       0
       0       0       0       0       0       0       0       0       0       0
       0       0       0       0       0       0       0       0       0       0
       0       0       0       0       0       0       0       0       0       0
       0       0       0       0       0       0       0       0       0       0
       0       0       0       0       0       0       0       0       0       0
       0       0       0       0       0       0       0       0       0       0
       0       0       0       0       0       0       0       0       0       0
       0       0       0       0       0       0       0       0       0       0
       0       0       0       0       0       0       0       0       0       0
       0       0       0       0       0       0       0       0       0       0
       0       0       0       0       0       0       0       0       0       0
       0       0       0       0       0       0       0       0       0       0
       0       0       0       0       0       0       0       0       0       0
       0       0       0       0       0       0       0       0       0       0
       0       0       0       0       0       0       0       0       0       0
       0       0       0       0       0       0       0       0       0       0
       0       0       0       0       0       0       0       0       0       0
       0       0       0       0       0       0       0       0       0       0
       0       0       0       0       0       0       0       0       0       0
       0       0       0       0       0       0       0       0       0       0
       0       0       0       0       0       0       0       0       0       0
       0       0       0       0       0       0       0       0       0       0
       0       0       0       0       0       0       0       0       0       0
       0       0       0       0       0       0       0       0       0       0
       0       0       0       0       0       0       0       0       0       0
       0       0       0       0       0       0       0       0       0       0
       0       0       0       0       0       0       0       0       0       0
       0       0       0       0       0       0       0       0       0       0
       0       0       0       0       0       0       0       0       0       0
       0       0       0       0       0       0       0       0       0       0
       0       0       0       0       0       0       0       0       0       0
       0       0       0       0       0       0       0       0       0       0
       0       0       0       0       0       0       0       0       0       0
       0       0       0       0       0       0       0       0       0       0
       0       0       0       0       0       0       0       0       0       0
       0       0       0       0       0       0       0       0       0       0
       0       0       0       0       0       0       0       0       0       0
       0       0       0       0       0       0       0       0       0       0
       0       0       0       0       0       0       0       0       0       0
       0       0       0       0       0       0       0       0       0       0
       0       0       0       0       0       0       0       0       0       0
       0       0       0       0       0       0       0       0       0       0
       0       0       0       0       0       0       0       0       0       0
       0       0       0       0       0       0       0       0       0       0
       0       0       0       0       0       0       0       0       0       0
       0       0       0       0       0       0       0       0       0       0
       0       0       0       0       0       0       0       0       0       0
       0       0       0       0       0       0       0       0       0       0
       0       0       0       0       0       0       0       0       0       0
       0       0       0       0       0       0       0       0       0       0
       0       0       0       0       0       0       0       0       0       0
       0       0       0       0       0       0       0       0       0       0
       0       0       0       0       0       0       0       0       0       0
       0       0       0       0       0       0       0       0       0       0
       0       0       0       0       0       0       0       0       0       0
       0       0       0       0       0       0       0       0       0       0
       0       0       0       0       0       0       0       0       0       0
       0       0       0       0       0       0       0       0       0       0
       0       0       0       0       0       0       0       0       0       0
       0       0       0       0       0       0       0       0       0       0
       0       0       0       0       0       0       0       0       0       0
       0       0       0       0       0       0       0       0       0       0
       0       0       0       0       0       0       0       0       0       0
       0       0       0       0       0       0       0       0       0       0
       0       0       0       0       0       0       0       0       0       0
       0       0       0       0       0       0       0       0       0       0
       0       0       0       0       0       0       0       0       0       0
       0       0       0       0       0       0       0       0       0       0
       0       0       0       0       0       0       0       0       0       0
       0       0       0       0       0       0       0       0       0       0
       0       0       0       0       0       0       0       0       0       0
       0       0       0       0       0       0       0       0       0       0
       0       0       0       0       0       0       0       0       0       0
       0       0       0       0       0       0       0       0       0       0
       0       0       0       0       0       0       0       0       0       0
       0       0       0       0       0       0       0       0       0       0
       0       0       0       0       0       0       0       0       0       0
       0       0       0       0       0       0       0       0       0       0
       0       0       0       0       0       0       0       0       0       0
       0       0       0       0       0       0       0       0       0       0
       0       0       0       0       0       0       0       0       0       0
       0       0       0       0       0       0       0       0       0       0
       0       0       0       0       0       0       0       0       0       0
       0       0       0       0       0       0       0       0       0       0
       0       0       0       0       0       0       0       0       0       0
       0       0       0       0       0       0       0       0       0       0
       0       0       0       0       0       0       0       0       0       0
       0       0       0       0       0       0       0       0       0       0
       0       0       0       0       0       0       0       0       0       0
       0       0       0       0       0       0       0       0       0       0
       0       0       0       0       0       0       0       0       0       0
       0       0       0       0       0       0       0       0       0       0
       0       0       0       0       0       0       0       0       0       0
       0       0       0       0       0       0       0       0       0       0
       0       0       0       0       0       0       0       0       0       0
       0       0       0       0       0       0       0       0       0       0
       0       0       0       0       0       0       0       0       0       0
       0       0       0       0       0       0       0       0       0       0
       0       0       0       0       0       0       0       0       0       0
       0       0       0       0       0       0       0       0       0       0
       0       0       0       0       0       0       0       0       0       0
       0       0       0       0       0       0       0       0       0       0
       0       0       0       0       0       0       0       0       0       0
       0       0       0       0       0       0       0       0       0       0
       0       0       0       0       0       0       0       0       0       0
       0       0       0       0       0       0       0       0       0       0
       0       0       0       0       0       0       0       0       0       0
       0       0       0       0       0       0       0       0       0       0
       0       0       0       0       0       0       0       0       0       0
       0       0       0       0       0       0       0       0       0       0
       0       0       0       0       0       0       0       0       0       0
       0       0       0       0       0       0       0       0       0       0
       0       0       0       0       0       0       0       0       0       0
       0       0       0       0       0       0       0       0       0       0
       0       0       0       0       0       0       0       0       0       0
       0       0       0       0       0       0       0       0       0       0
       0       0       0       0       0       0       0       0       0       0
       0       0       0       0       0       0       0       0       0       0
       0       0       0       0       0       0       0       0       0       0
       0       0       0       0       0       0       0       0       0       0
       0       0       0       0       0       0       0       0       0       0
       0       0       0       0       0       0       0       0       0       0
       0       0       0       0       0       0       0       0       0       0
       0       0       0       0       0       0       0       0       0       0
       0       0       0       0       0       0       0       0       0       0
       0       0       0       0       0       0       0       0       0       0
       0       0       0       0       0       0       0       0       0       0
       0       0       0       0       0       0       0       0       0       0
       0       0       0       0       0       0       0       0       0       0
       0       0       0       0       0       0       0       0       0       0
       0       0       0       0       0       0       0       0       0       0
       0       0       0       0       0       0       0       0       0       0
       0       0       0       0       0       0       0       0       0       0
       0       0       0       0       0       0       0       0       0       0
       0       0       0       0       0       0       0       0       0       0
       0       0       0       0       0       0       0       0       0       0
       0       0       0       0       0       0       0       0       0       0
       0       0       0       0       0       0       0       0       0       0
       0       0       0       0       0       0       0       0       0       0
       0       0       0       0       0       0       0       0       0       0
       0       0       0       0       0       0       0       0       0       0
       0       0       0       0       0       0       0       0       0       0
       0       0       0       0       0       0       0       0       0       0
       0       0       0       0       0       0       0       0       0       0
       0       0       0       0       0       0       0       0       0       0
       0       0       0       0       0       0       0       0       0       0
       0       0       0       0       0       0       0       0       0       0
       0       0       0       0       0       0       0       0       0       0
       0       0       0       0       0       0       0       0       0       0
       0       0       0       0       0       0       0       0       0       0
       0       0       0       0       0       0       0       0       0       0
       0       0       0       0       0       0       0       0       0       0
       0       0       0       0       0       0       0       0       0       0
       0       0       0       0       0       0       0       0       0       0
       0       0       0       0       0       0       0       0       0       0
       0       0       0       0       0       0       0       0       0       0
       0       0       0       0       0       0       0       0       0       0
       0       0       0       0       0       0       0       0       0       0
       0       0       0       0       0       0       0       0       0       0
       0       0       0       0       0       0       0       0       0       0
       0       0       0       0       0       0       0       0       0       0
       0       0       0       0       0       0       0       0       0       0
       0       0       0       0       0       0       0       0       0       0
       0       0       0       0       0       0       0       0       0       0
       0       0       0       0       0       0       0       0       0       0
       0       0       0       0       0       0       0       0       0       0
       0       0       0       0       0       0       0       0       0       0
       0       0       0       0       0       0       0       0       0       0
       0       0       0       0       0       0       0       0       0       0
       0       0       0       0       0       0       0       0       0       0
       0       0       0       0       0       0       0       0       0       0
       0       0       0       0       0       0       0       0       0       0
       0       0       0       0       0       0       0       0       0       0
       0       0       0       0       0       0       0       0       0       0
       0       0       0       0       0       0       0       0       0       0
       0       0       0       0       0       0       0       0       0       0
       0       0       0       0       0       0       0       0       0       0
       0       0       0       0       0       0       0       0       0       0
       0       0       0       0       0       0       0       0       0       0
       0       0       0       0       0       0       0       0       0       0
       0       0       0       0       0       0       0       0       0       0
       0       0       0       0       0       0       0       0       0       0
       0       0       0       0       0       0       0       0       0       0
       0       0       0       0       0       0       0       0       0       0
       0       0       0       0       0       0       0       0       0       0
       0       0       0       0       0       0       0       0       0       0
       0       0       0       0       0       0       0       0       0       0
       0       0       0       0       0       0       0       0       0       0
       0       0       0       0       0       0       0       0       0       0
       0       0       0       0       0       0       0       0       0       0
       0       0       0       0       0       0       0       0       0       0
       0       0       0       0       0       0       0       0       0       0
       0       0       0       0       0       0       0       0       0       0
       0       0       0       0       0       0       0       0       0       0
       0       0       0       0       0       0       0       0       0       0
       0       0       0       0       0       0       0       0       0       0
       0       0       0       0       0       0       0       0       0       0
       0       0       0       0       0       0       0       0       0       0
       0       0       0       0       0       0       0       0       0       0
       0       0       0       0       0       0       0       0       0       0
       0       0       0       0       0       0       0       0       0       0
       0       0       0       0       0       0       0       0       0       0
       0       0       0       0       0       0       0       0       0       0
       0       0       0       0       0       0       0       0       0       0
       0       0       0       0       0       0       0       0       0       0
       0       0       0       0       0       0       0       0       0       0
       0       0       0       0       0       0       0       0       0       0
       0       0       0       0       0       0       0       0       0       0
       0       0       0       0       0       0       0       0       0       0
       0       0       0       0       0       0       0       0       0       0
       0       0       0       0       0       0       0       0       0       0
       0       0       0       0       0       0       0       0       0       0
       0       0       0       0       0       0       0       0       0       0
       0       0       0       0       0       0       0       0       0       0
       0       0       0       0       0       0       0       0       0       0
       0       0       0       0       0       0       0       0       0       0
       0       0       0       0       0       0       0       0       0       0
       0       0       0       0       0       0       0       0       0       0
       0       0       0       0       0       0       0       0       0       0
       0       0       0       0       0       0       0       0       0       0
       0       0       0       0       0       0       0       0       0       0
       0       0       0       0       0       0       0       0       0       0
       0       0       0       0       0       0       0       0       0       0
       0       0       0       0       0       0       0       0       0       0
       0       0       0       0       0       0       0       0       0       0
       0       0       0       0       0       0       0       0       0       0
       0       0       0       0       0       0       0       0       0       0
       0       0       0       0       0       0       0       0       0       0
       0       0       0       0       0       0       0       0       0       0
       0       0       0       0       0       0       0       0       0       0
       0       0       0       0       0       0       0       0       0       0
       0       0       0       0       0       0       0       0       0       0
       0       0       0       0       0       0       0       0       0       0
       0       0       0       0       0       0       0       0       0       0
       0       0       0       0       0       0       0       0       0       0
       0       0       0       0       0       0       0       0       0       0
       0       0       0       0       0       0       0       0       0       0
       0       0       0       0       0       0       0       0       0       0
       0       0       0       0       0       0       0       0       0       0
       0       0       0       0       0       0       0       0       0       0
       0       0       0       0       0       0       0       0       0       0
       0       0       0       0       0       0       0       0       0       0
       0       0       0       0       0       0       0       0       0       0
       0       0       0       0       0       0       0       0       0       0
       0       0       0       0       0       0       0       0       0       0
       0       0       0       0       0       0       0       0       0       0
       0       0       0       0       0       0       0       0       0       0
       0       0       0       0       0       0       0       0       0       0
       0       0       0       0       0       0       0       0       0       0
       0       0       0       0       0       0       0       0       0       0
       0       0       0       0       0       0       0       0       0       0
       0       0       0       0       0       0       0       0       0       0
       0       0       0       0       0       0       0       0       0       0
       0       0       0       0       0       0       0       0       0       0
       0       0       0       0       0       0       0       0       0       0
       0       0       0       0       0       0       0       0       0       0
       0       0       0       0       0       0       0       0       0       0
       0       0       0       0       0       0       0       0       0       0
       0       0       0       0       0       0       0       0       0       0
       0       0       0       0       0       0       0       0       0       0
       0       0       0       0       0       0       0       0       0       0
       0       0       0       0       0       0       0       0       0       0
       0       0       0       0       0       0       0       0       0       0
       0       0       0       0       0       0       0       0       0       0
       0       0       0       0       0       0       0       0       0       0
       0       0       0       0       0       0       0       0       0       0
       0       0       0       0       0       0       0       0       0       0
       0       0       0       0       0       0       0       0       0       0
       0       0       0       0       0       0       0       0       0       0
       0       0       0       0       0       0       0       0       0       0
       0       0       0       0       0       0       0       0       0       0
       0       0       0       0       0       0       0       0       0       0
       0       0       0       0       0       0       0       0       0       0
       0       0       0       0       0       0       0       0       0       0
       0       0       0       0       0       0       0       0       0       0
       0       0       0       0       0       0       0       0       0       0
       0       0       0       0       0       0       0       0       0       0
       0       0       0       0       0       0       0       0       0       0
       0       0       0       0       0       0       0       0       0       0
       0       0       0       0       0       0       0       0       0       0
       0       0       0       0       0       0       0       0       0       0
       0       0       0       0       0       0       0       0       0       0
       0       0       0       0       0       0       0       0       0       0
       0       0       0       0       0       0       0       0       0       0
       0       0       0       0       0       0       0       0       0       0
       0       0       0       0       0       0       0       0       0       0
       0       0       0       0       0       0       0       0       0       0
       0       0       0       0       0       0       0       0       0       0
       0       0       0       0       0       0       0       0       0       0
       0       0       0       0       0       0       0       0       0       0
       0       0       0       0       0       0       0       0       0       0
       0       0       0       0       0       0       0       0       0       0
       0       0       0       0       0       0       0       0       0       0
       0       0       0       0       0       0       0       0       0       0
       0       0       0       0       0       0       0       0       0       0
       0       0       0       0       0       0       0       0       0       0
       0       0       0       0       0       0       0       0       0       0
       0       0       0       0       0       0       0       0       0       0
       0       0       0       0       0       0       0       0       0       0
       0       0       0       0       0       0       0       0       0       0
       0       0       0       0       0       0       0       0       0       0
       0       0       0       0       0       0       0       0       0       0
       0       0       0       0       0       0       0       0       0       0
       0       0       0       0       0       0       0       0       0       0
       0       0       0       0       0       0       0       0       0       0
       0       0       0       0       0       0       0       0       0       0
       0       0       0       0       0       0       0       0       0       0
       0       0       0       0       0       0       0       0       0       0
       0       0       0       0       0       0       0       0       0       0
       0       0       0       0       0       0       0       0       0       0
       0       0       0       0       0       0       0       0       0       0
       0       0       0       0       0       0       0       0       0       0
       0       0       0       0       0       0       0       0       0       0
       0       0       0       0       0       0       0       0       0       0
       0       0       0       0       0       0       0       0       0       0
       0       0       0       0       0       0       0       0       0       0
       0       0       0       0       0       0       0       0       0       0
       0       0       0       0       0       0       0       0       0       0
       0       0       0       0       0       0       0       0       0       0
       0       0       0       0       0       0       0       0       0       0
       0       0       0       0       0       0       0       0       0       0
       0       0       0       0       0       0       0       0       0       0
       0       0       0       0       0       0       0       0       0       0
       0       0       0       0       0       0       0       0       0       0
       0       0       0       0       0       0       0       0       0       0
       0       0       0       0       0       0       0       0       0       0
       0       0       0       0       0       0       0       0       0       0
       0       0       0       0       0       0       0       0       0       0
       0       0       0       0       0       0       0       0       0       0
       0       0       0       0       0       0       0       0       0       0
       0       0       0       0       0       0       0       0       0       0
       0       0       0       0       0       0       0       0       0       0
       0       0       0       0       0       0       0       0       0       0
       0       0       0       0       0       0       0       0       0       0
       0       0       0       0       0       0       0       0       0       0
       0       0       0       0       0       0       0       0       0       0
       0       0       0       0       0       0       0       0       0       0
       0       0       0       0       0       0       0       0       0       0
       0       0       0       0       0       0       0       0       0       0
       0       0       0       0       0       0       0       0       0       0
       0       0       0       0       0       0       0       0       0       0
       0       0       0       0       0       0       0       0       0       0
       0       0       0       0       0       0       0       0       0       0
       0       0       0       0       0       0       0       0       0       0
       0       0       0       0       0       0       0       0       0       0
       0       0       0       0       0       0       0       0       0       0
       0       0       0       0       0       0       0       0       0       0
       0       0       0       0       0       0       0       0       0       0
       0       0       0       0       0       0       0       0       0       0
       0       0       0       0       0       0       0       0       0       0
       0       0       0       0       0       0       0       0       0       0
       0       0       0       0       0       0       0       0       0       0
       0       0       0       0       0       0       0       0       0       0
       0       0       0       0       0       0       0       0       0       0
       0       0       0       0       0       0       0       0       0       0
       0       0       0       0       0       0       0       0       0       0
       0       0       0       0       0       0       0       0       0       0
       0       0       0       0       0       0       0       0       0       0
       0       0       0       0       0       0       0       0       0       0
       0       0       0       0       0       0       0       0       0       0
       0       0       0       0       0       0       0       0       0       0
       0       0       0       0       0       0       0       0       0       0
       0       0       0       0       0       0       0       0       0       0
       0       0       0       0       0       0       0       0       0       0
       0       0       0       0       0       0       0       0       0       0
       0       0       0       0       0       0       0       0       0       0
       0       0       0       0       0       0       0       0       0       0
       0       0       0       0       0       0       0       0       0       0
       0       0       0       0       0       0       0       0       0       0
       0       0       0       0       0       0       0       0       0       0
       0       0       0       0       0       0       0       0       0       0
       0       0       0       0       0       0       0       0       0       0
       0       0       0       0       0       0       0       0       0       0
       0       0       0       0       0       0       0       0       0       0
       0       0       0       0       0       0       0       0       0       0
       0       0       0       0       0       0       0       0       0       0
       0       0       0       0       0       0       0       0       0       0
       0       0       0       0       0       0       0       0       0       0
       0       0       0       0       0       0       0       0       0       0
       0       0       0       0       0       0       0       0       0       0
       0       0       0       0       0       0       0       0       0       0
       0       0       0       0       0       0       0       0       0       0
       0       0       0       0       0       0       0       0       0       0
       0       0       0       0       0       0       0       0       0       0
       0       0       0       0       0       0       0       0       0       0
       0       0       0       0       0       0       0       0       0       0
       0       0       0       0       0       0       0       0       0       0
       0       0       0       0       0       0       0       0       0       0
       0       0       0       0       0       0       0       0       0       0
       0       0       0       0       0       0       0       0       0       0
       0       0       0       0       0       0       0       0       0       0
       0       0       0       0       0       0       0       0       0       0
       0       0       0       0       0       0       0       0       0       0
       0       0       0       0       0       0       0       0       0       0
       0       0       0       0       0       0       0       0       0       0
       0       0       0       0       0       0       0       0       0       0
       0       0       0       0       0       0       0       0       0       0
       0       0       0       0       0       0       0       0       0       0
       0       0       0       0       0       0       0       0       0       0
       0       0       0       0       0       0       0       0       0       0
       0       0       0       0       0       0       0       0       0       0
       0       0       0       0       0       0       0       0       0       0
       0       0       0       0       0       0       0       0       0       0
       0       0       0       0       0       0       0       0       0       0
       0       0       0       0       0       0       0       0       0       0
       0       0       0       0       0       0       0       0       0       0
       0       0       0       0       0       0       0       0       0       0
       0       0       0       0       0       0       0       0       0       0
       0       0       0       0       0       0       0       0       0       0
       0       0       0       0       0       0       0       0       0       0
       0       0       0       0       0       0       0       0       0       0
       0       0       0       0       0       0       0       0       0       0
       0       0       0       0       0       0       0       0       0       0
       0       0       0       0       0       0       0       0       0       0
       0       0       0       0       0       0       0       0       0       0
       0       0       0       0       0       0       0       0       0       0
       0       0       0       0       0       0       0       0       0       0
       0       0       0       0       0       0       0       0       0       0
       0       0       0       0       0       0       0       0       0       0
       0       0       0       0       0       0       0       0       0       0
       0       0       0       0       0       0       0       0       0       0
       0       0       0       0       0       0       0       0       0       0
       0       0       0       0       0       0       0       0       0       0
       0       0       0       0       0       0       0       0       0       0
       0       0       0       0       0       0       0       0       0       0
       0       0       0       0       0       0       0       0       0       0
       0       0       0       0       0       0       0       0       0       0
       0       0       0       0       0       0       0       0       0       0
       0       0       0       0       0       0       0       0       0       0
       0       0       0       0       0       0       0       0       0       0
       0       0       0       0       0       0       0       0       0       0
       0       0       0       0       0       0       0       0       0       0
       0       0       0       0       0       0       0       0       0       0
       0       0       0       0       0       0       0       0       0       0
       0       0       0       0       0       0       0       0       0       0
       0       0       0       0       0       0       0       0       0       0
       0       0       0       0       0       0       0       0       0       0
       0       0       0       0       0       0       0       0       0       0
       0       0       0       0       0       0       0       0       0       0
       0       0       0       0       0       0       0       0       0       0
       0       0       0       0       0       0       0       0       0       0
       0       0       0       0       0       0       0       0       0       0
       0       0       0       0       0       0       0       0       0       0
       0       0       0       0       0       0       0       0       0       0
       0       0       0       0       0       0       0       0       0       0
       0       0       0       0       0       0       0       0       0       0
       0       0       0       0       0       0       0       0       0       0
       0       0       0       0       0       0       0       0       0       0
       0       0       0       0       0       0       0       0       0       0
       0       0       0       0       0       0       0       0       0       0
       0       0       0       0       0       0       0       0       0       0
       0       0       0       0       0       0       0       0       0       0
       0       0       0       0       0       0       0       0       0       0
       0       0       0       0       0       0       0       0       0       0
       0       0       0       0       0       0       0       0       0       0
       0       0       0       0       0       0       0       0       0       0
       0       0       0       0       0       0       0       0       0       0
       0       0       0       0       0       0       0       0       0       0
       0       0       0       0       0       0       0       0       0       0
       0       0       0       0       0       0       0       0       0       0
       0       0       0       0       0       0       0       0       0       0
       0       0       0       0       0       0       0       0       0       0
       0       0       0       0       0       0       0       0       0       0
       0       0       0       0       0       0       0       0       0       0
       0       0       0       0       0       0       0       0       0       0
       0       0       0       0       0       0       0       0       0       0
       0       0       0       0       0       0       0       0       0       0
       0       0       0       0       0       0       0       0       0       0
       0       0       0       0       0       0       0       0       0       0
       0       0       0       0       0       0       0       0       0       0
       0       0       0       0       0       0       0       0       0       0
       0       0       0       0       0       0       0       0       0       0
       0       0       0       0       0       0       0       0       0       0
       0       0       0       0       0       0       0       0       0       0
       0       0       0       0       0       0       0       0       0       0
       0       0       0       0       0       0       0       0       0       0
       0       0       0       0       0       0       0       0       0       0
       0       0       0       0       0       0       0       0       0       0
       0       0       0       0       0       0       0       0       0       0
       0       0       0       0       0       0       0       0       0       0
       0       0       0       0       0       0       0       0       0       0
       0       0       0       0       0       0       0       0       0       0
       0       0       0       0       0       0       0       0       0       0
       0       0       0       0       0       0       0       0       0       0
       0       0       0       0       0       0       0       0       0       0
       0       0       0       0       0       0       0       0       0       0
       0       0       0       0       0       0       0       0       0       0
       0       0       0       0       0       0       0       0       0       0
       0       0       0       0       0       0       0       0       0       0
       0       0       0       0       0       0       0       0       0       0
       0       0       0       0       0       0       0       0       0       0
       0       0       0       0       0       0       0       0       0       0
       0       0       0       0       0       0       0       0       0       0
       0       0       0       0       0       0       0       0       0       0
       0       0       0       0       0       0       0       0       0       0
       0       0       0       0       0       0       0       0       0       0
       0       0       0       0       0       0       0       0       0       0
       0       0       0       0       0       0       0       0       0       0
       0       0       0       0       0       0       0       0       0       0
       0       0       0       0       0       0       0       0       0       0
       0       0       0       0       0       0       0       0       0       0
       0       0       0       0       0       0       0       0       0       0
       0       0       0       0       0       0       0       0       0       0
       0       0       0       0       0       0       0       0       0       0
       0       0       0       0       0       0       0       0       0       0
       0       0       0       0       0       0       0       0       0       0
       0       0       0       0       0       0       0       0       0       0
       0       0       0       0       0       0       0       0       0       0
       0       0       0       0       0       0       0       0       0       0
       0       0       0       0       0       0       0       0       0       0
       0       0       0       0       0       0       0       0       0       0
       0       0       0       0       0       0       0       0       0       0
       0       0       0       0       0       0       0       0       0       0
       0       0       0       0       0       0       0       0       0       0
       0       0       0       0       0       0       0       0       0       0
       0       0       0       0       0       0       0       0       0       0
       0       0       0       0       0       0       0       0       0       0
       0       0       0       0       0       0       0       0       0       0
       0       0       0       0       0       0       0       0       0       0
       0       0       0       0       0       0       0       0       0       0
       0       0       0       0       0       0       0       0       0       0
       0       0       0       0       0       0       0       0       0       0
       0       0       0       0       0       0       0       0       0       0
       0       0       0       0       0       0       0       0       0       0
       0       0       0       0       0       0       0       0       0       0
       0       0       0       0       0       0       0       0       0       0
       0       0       0       0       0       0       0       0       0       0
       0       0       0       0       0       0       0       0       0       0
       0       0       0       0       0       0       0       0       0       0
       0       0       0       0       0       0       0       0       0       0
       0       0       0       0       0       0       0       0       0       0
       0       0       0       0       0       0       0       0       0       0
       0       0       0       0       0       0       0       0       0       0
       0       0       0       0       0       0       0       0       0       0
       0       0       0       0       0       0       0       0       0       0
       0       0       0       0       0       0       0       0       0       0
       0       0       0       0       0       0       0       0       0       0
       0       0       0       0       0       0       0       0       0       0
       0       0       0       0       0       0       0       0       0       0
       0       0       0       0       0       0       0       0       0       0
       0       0       0       0       0       0       0       0       0       0
       0       0       0       0       0       0       0       0       0       0
       0       0       0       0       0       0       0       0       0       0
       0       0       0       0       0       0       0       0       0       0
       0       0       0       0       0       0       0       0       0       0
       0       0       0       0       0       0       0       0       0       0
       0       0       0       0       0       0       0       0       0       0
       0       0       0       0       0       0       0       0       0       0
       0       0       0       0       0       0       0       0       0       0
       0       0       0       0       0       0       0       0       0       0
       0       0       0       0       0       0       0       0       0       0
       0       0       0       0       0       0       0       0       0       0
       0       0       0       0       0       0       0       0       0       0
       0       0       0       0       0       0       0       0       0       0
       0       0       0       0       0       0       0       0       0       0
       0       0       0       0       0       0       0       0       0       0
       0       0       0       0       0       0       0       0       0       0
       0       0       0       0       0       0       0       0       0       0
       0       0       0       0       0       0       0       0       0       0
       0       0       0       0       0       0       0       0       0       0
       0       0       0       0       0       0       0       0       0       0
       0       0       0       0       0       0       0       0       0       0
       0       0       0       0       0       0       0       0       0       0
       0       0       0       0       0       0       0       0       0       0
       0       0       0       0       0       0       0       0       0       0
       0       0       0       0       0       0       0       0       0       0
       0       0       0       0       0       0       0       0       0       0
       0       0       0       0       0       0       0       0       0       0
       0       0       0       0       0       0       0       0       0       0
       0       0       0       0       0       0       0       0       0       0
       0       0       0       0       0       0       0       0       0       0
       0       0       0       0       0       0       0       0       0       0
       0       0       0       0       0       0       0       0       0       0
       0       0       0       0       0       0       0       0       0       0
       0       0       0       0       0       0       0       0       0       0
       0       0       0       0       0       0       0       0       0       0
       0       0       0       0       0       0       0       0       0       0
       0       0       0       0       0       0       0       0       0       0
       0       0       0       0       0       0       0       0       0       0
       0       0       0       0       0       0       0       0       0       0
       0       0       0       0       0       0       0       0       0       0
       0       0       0       0       0       0       0       0       0       0
       0       0       0       0       0       0       0       0       0       0
       0       0       0       0       0       0       0       0       0       0
       0       0       0       0       0       0       0       0       0       0
       0       0       0       0       0       0       0       0       0       0
       0       0       0       0       0       0       0       0       0       0
       0       0       0       0       0       0       0       0       0       0
       0       0       0       0       0       0       0       0       0       0
       0       0       0       0       0       0       0       0       0       0
       0       0       0       0       0       0       0       0       0       0
       0       0       0       0       0       0       0       0       0       0
       0       0       0       0       0       0       0       0       0       0
       0       0       0       0       0       0       0       0       0       0
       0       0       0       0       0       0       0       0       0       0
       0       0       0       0       0       0       0       0       0       0
       0       0       0       0       0       0       0       0       0       0
       0       0       0       0       0       0       0       0       0       0
       0       0       0       0       0       0       0       0       0       0
       0       0       0       0       0       0       0       0       0       0
       0       0       0       0       0       0       0       0       0       0
       0       0       0       0       0       0       0       0       0       0
       0       0       0       0       0       0       0       0       0       0
       0       0       0       0       0       0       0       0       0       0
       0       0       0       0       0       0       0       0       0       0
       0       0       0       0       0       0       0       0       0       0
       0       0       0       0       0       0       0       0       0       0
       0       0       0       0       0       0       0       0       0       0
       0       0       0       0       0       0       0       0       0       0
       0       0       0       0       0       0       0       0       0       0
       0       0       0       0       0       0       0       0       0       0
       0       0       0       0       0       0       0       0       0       0
       0       0       0       0       0       0       0       0       0       0
       0       0       0       0       0       0       0       0       0       0
       0       0       0       0       0       0       0       0       0       0
       0       0       0       0       0       0       0       0       0       0
       0       0       0       0       0       0       0       0       0       0
       0       0       0       0       0       0       0       0       0       0
       0       0       0       0       0       0       0       0       0       0
       0       0       0       0       0       0       0       0       0       0
       0       0       0       0       0       0       0       0       0       0
       0       0       0       0       0       0       0       0       0       0
       0       0       0       0       0       0       0       0       0       0
       0       0       0       0       0       0       0       0       0       0
       0       0       0       0       0       0       0       0       0       0
       0       0       0       0       0       0       0       0       0       0
       0       0       0       0       0       0       0       0       0       0
       0       0       0       0       0       0       0       0       0       0
       0       0       0       0       0       0       0       0       0       0
       0       0       0       0       0       0       0       0       0       0
       0       0       0       0       0       0       0       0       0       0
       0       0       0       0       0       0       0       0       0       0
       0       0       0       0       0       0       0       0       0       0
       0       0       0       0       0       0       0       0       0       0
       0       0       0       0       0       0       0       0       0       0
       0       0       0       0       0       0       0       0       0       0
       0       0       0       0       0       0       0       0       0       0
       0       0       0       0       0       0       0       0       0       0
       0       0       0       0       0       0       0       0       0       0
       0       0       0       0       0       0       0       0       0       0
       0       0       0       0       0       0       0       0       0       0
       0       0       0       0       0       0       0       0       0       0
       0       0       0       0       0       0       0       0       0       0
       0       0       0       0       0       0       0       0       0       0
       0       0       0       0       0       0       0       0       0       0
       0       0       0       0       0       0       0       0       0       0
       0       0       0       0       0       0       0       0       0       0
       0       0       0       0       0       0       0       0       0       0
       0       0       0       0       0       0       0       0       0       0
       0       0       0       0       0       0       0       0       0       0
       0       0       0       0       0       0       0       0       0       0
       0       0       0       0       0       0       0       0       0       0
       0       0       0       0       0       0       0       0       0       0
       0       0       0       0       0       0       0       0       0       0
       0       0       0       0       0       0       0       0       0       0
       0       0       0       0       0       0       0       0       0       0
       0       0       0       0       0       0       0       0       0       0
       0       0       0       0       0       0       0       0       0       0
       0       0       0       0       0       0       0       0       0       0
       0       0       0       0       0       0       0       0       0       0
       0       0       0       0       0       0       0       0       0       0
       0       0       0       0       0       0       0       0       0       0
       0       0       0       0       0       0       0       0       0       0
       0       0       0       0       0       0       0       0       0       0
       0       0       0       0       0       0       0       0       0       0
       0       0       0       0       0       0       0       0       0       0
       0       0       0       0       0       0       0       0       0       0
       0       0       0       0       0       0       0       0       0       0
       0       0       0       0       0       0       0       0       0       0
       0       0       0       0       0       0       0       0       0       0
       0       0       0       0       0       0       0       0       0       0
       0       0       0       0       0       0       0       0       0       0
       0       0       0       0       0       0       0       0       0       0
       0       0       0       0       0       0       0       0       0       0
       0       0       0       0       0       0       0       0       0       0
       0       0       0       0       0       0       0       0       0       0
       0       0       0       0       0       0       0       0       0       0
       0       0       0       0       0       0       0       0       0       0
       0       0       0       0       0       0       0       0       0       0
       0       0       0       0       0       0       0       0       0       0
       0       0       0       0       0       0       0       0       0       0
       0       0       0       0       0       0       0       0       0       0
       0       0       0       0       0       0       0       0       0       0
       0       0       0       0       0       0       0       0       0       0
       0       0       0       0       0       0       0       0       0       0
       0       0       0       0       0       0       0       0       0       0
       0       0       0       0       0       0       0       0       0       0
       0       0       0       0       0       0       0       0       0       0
       0       0       0       0       0       0       0       0       0       0
       0       0       0       0       0       0       0       0       0       0
       0       0       0       0       0       0       0       0       0       0
       0       0       0       0       0       0       0       0       0       0
       0       0       0       0       0       0       0       0       0       0
       0       0       0       0       0       0       0       0       0       0
       0       0       0       0       0       0       0       0       0       0
       0       0       0       0       0       0       0       0       0       0
       0       0       0       0       0       0       0       0       0       0
       0       0       0       0       0       0       0       0       0       0
       0       0       0       0       0       0       0       0       0       0
       0       0       0       0       0       0       0       0       0       0
       0       0       0       0       0       0       0       0       0       0
       0       0       0       0       0       0       0       0       0       0
       0       0       0       0       0       0       0       0       0       0
       0       0       0       0       0       0       0       0       0       0
       0       0       0       0       0       0       0       0       0       0
       0       0       0       0       0       0       0       0       0       0
       0       0       0       0       0       0       0       0       0       0
       0       0       0       0       0       0       0       0       0       0
       0       0       0       0       0       0       0       0       0       0
       0       0       0       0       0       0       0       0       0       0
       0       0       0       0       0       0       0       0       0       0
       0       0       0       0       0       0       0       0       0       0
       0       0       0       0       0       0       0       0       0       0
       0       0       0       0       0       0       0       0       0       0
       0       0       0       0       0       0       0       0       0       0
       0       0       0       0       0       0       0       0       0       0
       0       0       0       0       0       0       0       0       0       0
       0       0       0       0       0       0       0       0       0       0
       0       0       0       0       0       0       0       0       0       0
       0       0       0       0       0       0       0       0       0       0
       0       0       0       0       0       0       0       0       0       0
       0       0       0       0       0       0       0       0       0       0
       0       0       0       0       0       0       0       0       0       0
       0       0       0       0       0       0       0       0       0       0
       0       0       0       0       0       0       0       0       0       0
       0       0       0       0       0       0       0       0       0       0
       0       0       0       0       0       0       0       0       0       0
       0       0       0       0       0       0       0       0       0       0
       0       0       0       0       0       0       0       0       0       0
       0       0       0       0       0       0       0       0       0       0
       0       0       0       0       0       0       0       0       0       0
       0       0       0       0       0       0       0       0       0       0
       0       0       0       0       0       0       0       0       0       0
       0       0       0       0       0       0       0       0       0       0
       0       0       0       0       0       0       0       0       0       0
       0       0       0       0       0       0       0       0       0       0
       0       0       0       0       0       0       0       0       0       0
       0       0       0       0       0       0       0       0       0       0
       0       0       0       0       0       0       0       0       0       0
       0       0       0       0       0       0       0       0       0       0
       0       0       0       0       0       0       0       0       0       0
       0       0       0       0       0       0       0       0       0       0
       0       0       0       0       0       0       0       0       0       0
       0       0       0       0       0       0       0       0       0       0
       0       0       0       0       0       0       0       0       0       0
       0       0       0       0       0       0       0       0       0       0
       0       0       0       0       0       0       0       0       0       0
       0       0       0       0       0       0       0       0       0       0
       0       0       0       0       0       0       0       0       0       0
       0       0       0       0       0       0       0       0       0       0
       0       0       0       0       0       0       0       0       0       0
       0       0       0       0       0       0       0       0       0       0
       0       0       0       0       0       0       0       0       0       0
       0       0       0       0       0       0       0       0       0       0
       0       0       0       0       0       0       0       0       0       0
       0       0       0       0       0       0       0       0       0       0
       0       0       0       0       0       0       0       0       0       0
       0       0       0       0       0       0       0       0       0       0
       0       0       0       0       0       0       0       0       0       0
       0       0       0       0       0       0       0       0       0       0
       0       0       0       0       0       0       0       0       0       0
       0       0       0       0       0       0       0       0       0       0
       0       0       0       0       0       0       0       0       0       0
       0       0       0       0       0       0       0       0       0       0
       0       0       0       0       0       0       0       0       0       0
       0       0       0       0       0       0       0       0       0       0
       0       0       0       0       0       0       0       0       0       0
       0       0       0       0       0       0       0       0       0       0
       0       0       0       0       0       0       0       0       0       0
       0       0       0       0       0       0       0       0       0       0
       0       0       0       0       0       0       0       0       0       0
       0       0       0       0       0       0       0       0       0       0
       0       0       0       0       0       0       0       0       0       0
       0       0       0       0       0       0       0       0       0       0
       0       0       0       0       0       0       0       0       0       0
       0       0       0       0       0       0       0       0       0       0
       0       0       0       0       0       0       0       0       0       0
       0       0       0       0       0       0       0       0       0       0
       0       0       0       0       0       0       0       0       0       0
       0       0       0       0       0       0       0       0       0       0
       0       0       0       0       0       0       0       0       0       0
       0       0       0       0       0       0       0       0       0       0
       0       0       0       0       0       0       0       0       0       0
       0       0       0       0       0       0       0       0       0       0
       0       0       0       0       0       0       0       0       0       0
       0       0       0       0       0       0       0       0       0       0
       0       0       0       0       0       0       0       0       0       0
       0       0       0       0       0       0       0       0       0       0
       0       0       0       0       0       0       0       0       0       0
       0       0       0       0       0       0       0       0       0       0
       0       0       0       0       0       0       0       0       0       0
       0       0       0       0       0       0       0       0       0       0
       0       0       0       0       0       0       0       0       0       0
       0       0       0       0       0       0       0       0       0       0
       0       0       0       0       0       0       0       0       0       0
       0       0       0       0       0       0       0       0       0       0
       0       0       0       0       0       0       0       0       0       0
       0       0       0       0       0       0       0       0       0       0
       0       0       0       0       0       0       0       0       0       0
       0       0       0       0       0       0       0       0       0       0
       0       0       0       0       0       0       0       0       0       0
       0       0       0       0       0       0       0       0       0       0
       0       0       0       0       0       0       0       0       0       0
       0       0       0       0       0       0       0       0       0       0
       0       0       0       0       0       0       0       0       0       0
       0       0       0       0       0       0       0       0       0       0
       0       0       0       0       0       0       0       0       0       0
       0       0       0       0       0       0       0       0       0       0
       0       0       0       0       0       0       0       0       0       0
       0       0       0       0       0       0       0       0       0       0
       0       0       0       0       0       0       0       0       0       0
       0       0       0       0       0       0       0       0       0       0
       0       0       0       0       0       0       0       0       0       0
       0       0       0       0       0       0       0       0       0       0
       0       0       0       0       0       0       0       0       0       0
       0       0       0       0       0       0       0       0       0       0
       0       0       0       0       0       0       0       0       0       0
       0       0       0       0       0       0       0       0       0       0
       0       0       0       0       0       0       0       0       0       0
       0       0       0       0       0       0       0       0       0       0
       0       0       0       0       0       0       0       0       0       0
       0       0       0       0       0       0       0       0       0       0
       0       0       0       0       0       0       0       0       0       0
       0       0       0       0       0       0       0       0       0       0
       0       0       0       0       0       0       0       0       0       0
       0       0       0       0       0       0       0       0       0       0
       0       0       0       0       0       0       0       0       0       0
       0       0       0       0       0       0       0       0       0       0
       0       0       0       0       0       0       0       0       0       0
       0       0       0       0       0       0       0       0       0       0
       0       0       0       0       0       0       0       0       0       0
       0       0       0       0       0       0       0       0       0       0
       0       0       0       0       0       0       0       0       0       0
       0       0       0       0       0       0       0       0       0       0
       0       0       0       0       0       0       0       0       0       0
       0       0       0       0       0       0       0       0       0       0
       0       0       0       0       0       0       0       0       0       0
       0       0       0       0       0       0       0       0       0       0
       0       0       0       0       0       0       0       0       0       0
       0       0       0       0       0       0       0       0       0       0
       0       0       0       0       0       0       0       0       0       0
       0       0       0       0       0       0       0       0       0       0
       0       0       0       0       0       0       0       0       0       0
       0       0       0       0       0       0       0       0       0       0
       0       0       0       0       0       0       0       0       0       0
       0       0       0       0       0       0       0       0       0       0
       0       0       0       0       0       0       0       0       0       0
       0       0       0       0       0       0       0       0       0       0
       0       0       0       0       0       0       0       0       0       0
       0       0       0       0       0       0       0       0       0       0
       0       0       0       0       0       0       0       0       0       0
       0       0       0       0       0       0       0       0       0       0
       0       0       0       0       0       0       0       0       0       0
       0       0       0       0       0       0       0       0       0       0
       0       0       0       0       0       0       0       0       0       0
       0       0       0       0       0       0       0       0       0       0
       0       0       0       0       0       0       0       0       0       0
       0       0       0       0       0       0       0       0       0       0
       0       0       0       0       0       0       0       0       0       0
       0       0       0       0       0       0       0       0       0       0
       0       0       0       0       0       0       0       0       0       0
       0       0       0       0       0       0       0       0       0       0
       0       0       0       0       0       0       0       0       0       0
       0       0       0       0       0       0       0       0       0       0
       0       0       0       0       0       0       0       0       0       0
       0       0       0       0       0       0       0       0       0       0
       0       0       0       0       0       0       0       0       0       0
       0       0       0       0       0       0       0       0       0       0
       0       0       0       0       0       0       0       0       0       0
       0       0       0       0       0       0       0       0       0       0
       0       0       0       0       0       0       0       0       0       0
       0       0       0       0       0       0       0       0       0       0
       0       0       0       0       0       0       0       0       0       0
       0       0       0       0       0       0       0       0       0       0
       0       0       0       0       0       0       0       0       0       0
       0       0       0       0       0       0       0       0       0       0
       0       0       0       0       0       0       0       0       0       0
       0       0       0       0       0       0       0       0       0       0
       0       0       0       0       0       0       0       0       0       0
       0       0       0       0       0       0       0       0       0       0
       0       0       0       0       0       0       0       0       0       0
       0       0       0       0       0       0       0       0       0       0
       0       0       0       0       0       0       0       0       0       0
       0       0       0       0       0       0       0       0       0       0
       0       0       0       0       0       0       0       0       0       0
       0       0       0       0       0       0       0       0       0       0
       0       0       0       0       0       0       0       0       0       0
       0       0       0       0       0       0       0       0       0       0
       0       0       0       0       0       0       0       0       0       0
       0       0       0       0       0       0       0       0       0       0
       0       0       0       0       0       0       0       0       0       0
       0       0       0       0       0       0       0       0       0       0
       0       0       0       0       0       0       0       0       0       0
       0       0       0       0       0       0       0       0       0       0
       0       0       0       0       0       0       0       0       0       0
       0       0       0       0       0       0       0       0       0       0
       0       0       0       0       0       0       0       0       0       0
       0       0       0       0       0       0       0       0       0       0
       0       0       0       0       0       0       0       0       0       0
       0       0       0       0       0       0       0       0       0       0
       0       0       0       0       0       0       0       0       0       0
       0       0       0       0       0       0       0       0       0       0
       0       0       0       0       0       0       0       0       0       0
       0       0       0       0       0       0       0       0       0       0
       0       0       0       0       0       0       0       0       0       0
       0       0       0       0       0       0       0       0       0       0
       0       0       0       0       0       0       0       0       0       0
       0       0       0       0       0       0       0       0       0       0
       0       0       0       0       0       0       0       0       0       0
       0       0       0       0       0       0       0       0       0       0
       0       0       0       0       0       0       0       0       0       0
       0       0       0       0       0       0       0       0       0       0
       0       0       0       0       0       0       0       0       0       0
       0       0       0       0       0       0       0       0       0       0
       0       0       0       0       0       0       0       0       0       0
       0       0       0       0       0       0       0       0       0       0
       0       0       0       0       0       0       0       0       0       0
       0       0       0       0       0       0       0       0       0       0
       0       0       0       0       0       0       0       0       0       0
       0       0       0       0       0       0       0       0       0       0
       0       0       0       0       0       0       0       0       0       0
       0       0       0       0       0       0       0       0       0       0
       0       0       0       0       0       0       0       0       0       0
       0       0       0       0       0       0       0       0       0       0
       0       0       0       0       0       0       0       0       0       0
       0       0       0       0       0       0       0       0       0       0
       0       0       0       0       0       0       0       0       0       0
       0       0       0       0       0       0       0       0       0       0
       0       0       0       0       0       0       0       0       0       0
       0       0       0       0       0       0       0       0       0       0
       0       0       0       0       0       0       0       0       0       0
       0       0       0       0       0       0       0       0       0       0
       0       0       0       0       0       0       0       0       0       0
       0       0       0       0       0       0       0       0       0       0
       0       0       0       0       0       0       0       0       0       0
       0       0       0       0       0       0       0       0       0       0
       0       0       0       0       0       0       0       0       0       0
       0       0       0       0       0       0       0       0       0       0
       0       0       0       0       0       0       0       0       0       0
       0       0       0       0       0       0       0       0       0       0
       0       0       0       0       0       0       0       0       0       0
       0       0       0       0       0       0       0       0       0       0
       0       0       0       0       0       0       0       0       0       0
       0       0       0       0       0       0       0       0       0       0
       0       0       0       0       0       0       0       0       0       0
       0       0       0       0       0       0       0       0       0       0
       0       0       0       0       0       0       0       0       0       0
       0       0       0       0       0       0       0       0       0       0
       0       0       0       0       0       0       0       0       0       0
       0       0       0       0       0       0       0       0       0       0
       0       0       0       0       0       0       0       0       0       0
       0       0       0       0       0       0       0       0       0       0
       0       0       0       0       0       0       0       0       0       0
       0       0       0       0       0       0       0       0       0       0
       0       0       0       0       0       0       0       0       0       0
       0       0       0       0       0       0       0       0       0       0
       0       0       0       0       0       0       0       0       0       0
       0       0       0       0       0       0       0       0       0       0
       0       0       0       0       0       0       0       0       0       0
       0       0       0       0       0       0       0       0       0       0
       0       0       0       0       0       0       0       0       0       0
       0       0       0       0       0       0       0       0       0       0
       0       0       0       0       0       0       0       0       0       0
       0       0       0       0       0       0       0       0       0       0
       0       0       0       0       0       0       0       0       0       0
       0       0       0       0       0       0       0       0       0       0
       0       0       0       0       0       0       0       0       0       0
       0       0       0       0       0       0       0       0       0       0
       0       0       0       0       0       0       0       0       0       0
       0       0       0       0       0       0       0       0       0       0
       0       0       0       0       0       0       0       0       0       0
       0       0       0       0       0       0       0       0       0       0
       0       0       0       0       0       0       0       0       0       0
       0       0       0       0       0       0       0       0       0       0
       0       0       0       0       0       0       0       0       0       0
       0       0       0       0       0       0       0       0       0       0
       0       0       0       0       0       0       0       0       0       0
       0       0       0       0       0       0       0       0       0       0
       0       0       0       0       0       0       0       0       0       0
       0       0       0       0       0       0       0       0       0       0
       0       0       0       0       0       0       0       0       0       0
       0       0       0       0       0       0       0       0       0       0
       0       0       0       0       0       0       0       0       0       0
       0       0       0       0       0       0       0       0       0       0
       0       0       0       0       0       0       0       0       0       0
       0       0       0       0       0       0       0       0       0       0
       0       0       0       0       0       0       0       0       0       0
       0       0       0       0       0       0       0       0       0       0
       0       0       0       0       0       0       0       0       0       0
       0       0       0       0       0       0       0       0       0       0
       0       0       0       0       0       0       0       0       0       0
       0       0       0       0       0       0       0       0       0       0
       0       0       0       0       0       0       0       0       0       0
       0       0       0       0       0       0       0       0       0       0
       0       0       0       0       0       0       0       0       0       0
       0       0       0       0       0       0       0       0       0       0
       0       0       0       0       0       0       0       0       0       0
       0       0       0       0       0       0       0       0       0       0
       0       0       0       0       0       0       0       0       0       0
       0       0       0       0       0       0       0       0       0       0
       0       0       0       0       0       0       0       0       0       0
       0       0       0       0       0       0       0       0       0       0
       0       0       0       0       0       0       0       0       0       0
       0       0       0       0       0       0       0       0       0       0
       0       0       0       0       0       0       0       0       0       0
       0       0       0       0       0       0       0       0       0       0
       0       0       0       0       0       0       0       0       0       0
       0       0       0       0       0       0       0       0       0       0
       0       0       0       0       0       0       0       0       0       0
       0       0       0       0       0       0       0       0       0       0
       0       0       0       0       0       0       0       0       0       0
       0       0       0       0       0       0       0       0       0       0
       0       0       0       0       0       0       0       0       0       0
       0       0       0       0       0       0       0       0       0       0
       0       0       0       0       0       0       0       0       0       0
       0       0       0       0       0       0       0       0       0       0
       0       0       0       0       0       0       0       0       0       0
       0       0       0       0       0       0       0       0       0       0
       0       0       0       0       0       0       0       0       0       0
       0       0       0       0       0       0       0       0       0       0
       0       0       0       0       0       0       0       0       0       0
       0       0       0       0       0       0       0       0       0       0
       0       0       0       0       0       0       0       0       0       0
       0       0       0       0       0       0       0       0       0       0
       0       0       0       0       0       0       0       0       0       0
       0       0       0       0       0       0       0       0       0       0
       0       0       0       0       0       0       0       0       0       0
       0       0       0       0       0       0       0       0       0       0
       0       0       0       0       0       0       0       0       0       0
       0       0       0       0       0       0       0       0       0       0
       0       0       0       0       0       0       0       0       0       0
       0       0       0       0       0       0       0       0       0       0
       0       0       0       0       0       0       0       0       0       0
       0       0       0       0       0       0       0       0       0       0
       0       0       0       0       0       0       0       0       0       0
       0       0       0       0       0       0       0       0       0       0
       0       0       0       0       0       0       0       0       0       0
       0       0       0       0       0       0       0       0       0       0
       0       0       0       0       0       0       0       0       0       0
       0       0       0       0       0       0       0       0       0       0
       0       0       0       0       0       0       0       0       0       0
       0       0       0       0       0       0       0       0       0       0
       0       0       0       0       0       0       0       0       0       0
       0       0       0       0       0       0       0       0       0       0
       0       0       0       0       0       0       0       0       0       0
       0       0       0       0       0       0       0       0       0       0
       0       0       0       0       0       0       0       0       0       0
       0       0       0       0       0       0       0       0       0       0
       0       0       0       0       0       0       0       0       0       0
       0       0       0       0       0       0       0       0       0       0
       0       0       0       0       0       0       0       0       0       0
       0       0       0       0       0       0       0       0       0       0
       0       0       0       0       0       0       0       0       0       0
       0       0       0       0       0       0       0       0       0       0
       0       0       0       0       0       0       0       0       0       0
       0       0       0       0       0       0       0       0       0       0
       0       0       0       0       0       0       0       0       0       0
       0       0       0       0       0       0       0       0       0       0
       0       0       0       0       0       0       0       0       0       0
       0       0       0       0       0       0       0       0       0       0
       0       0       0       0       0       0       0       0       0       0
       0       0       0       0       0       0       0       0       0       0
       0       0       0       0       0       0       0       0       0       0
       0       0       0       0       0       0       0       0       0       0
       0       0       0       0       0       0       0       0       0       0
       0       0       0       0       0       0       0       0       0       0
       0       0       0       0       0       0       0       0       0       0
       0       0       0       0       0       0       0       0       0       0
       0       0       0       0       0       0       0       0       0       0
       0       0       0       0       0       0       0       0       0       0
       0       0       0       0       0       0       0       0       0       0
       0       0       0       0       0       0       0       0       0       0
       0       0       0       0       0       0       0       0       0       0
       0       0       0       0       0       0       0       0       0       0
       0       0       0       0       0       0       0       0       0       0
       0       0       0       0       0       0       0       0       0       0
       0       0       0       0       0       0       0       0       0       0
       0       0       0       0       0       0       0       0       0       0
       0       0       0       0       0       0       0       0       0       0
       0       0       0       0       0       0       0       0       0       0
       0       0       0       0       0       0       0       0       0       0
       0       0       0       0       0       0       0       0       0       0
       0       0       0       0       0       0       0       0       0       0
       0       0       0       0       0       0       0       0       0       0
       0       0       0       0       0       0       0       0       0       0
       0       0       0       0       0       0       0       0       0       0
       0       0       0       0       0       0       0       0       0       0
       0       0       0       0       0       0       0       0       0       0
       0       0       0       0       0       0       0       0       0       0
       0       0       0       0       0       0       0       0       0       0
       0       0       0       0       0       0       0       0       0       0
       0       0       0       0       0       0       0       0       0       0
       0       0       0       0       0       0       0       0       0       0
       0       0       0       0       0       0       0       0       0       0
       0       0       0       0       0       0       0       0       0       0
       0       0       0       0       0       0       0       0       0       0
       0       0       0       0       0       0       0       0       0       0
       0       0       0       0       0       0       0       0       0       0
       0       0       0       0       0       0       0       0       0       0
       0       0       0       0       0       0       0       0       0       0
       0       0       0       0       0       0       0       0       0       0
       0       0       0       0       0       0       0       0       0       0
       0       0       0       0       0       0       0       0       0       0
       0       0       0       0       0       0       0       0       0       0
       0       0       0       0       0       0       0       0       0       0
       0       0       0       0       0       0       0       0       0       0
       0       0       0       0       0       0       0       0       0       0
       0       0       0       0       0       0       0       0       0       0
       0       0       0       0       0       0       0       0       0       0
       0       0       0       0       0       0       0       0       0       0
       0       0       0       0       0       0       0       0       0       0
       0       0       0       0       0       0       0       0       0       0
       0       0       0       0       0       0       0       0       0       0
       0       0       0       0       0       0       0       0       0       0
       0       0       0       0       0       0       0       0       0       0
       0       0       0       0       0       0       0       0       0       0
       0       0       0       0       0       0       0       0       0       0
       0       0       0       0       0       0       0       0       0       0
       0       0       0       0       0       0       0       0       0       0
       0       0       0       0       0       0       0       0       0       0
       0       0       0       0       0       0       0       0       0       0
       0       0       0       0       0       0       0       0       0       0
       0       0       0       0       0       0       0       0       0       0
       0       0       0       0       0       0       0       0       0       0
       0       0       0       0       0       0       0       0       0       0
       0       0       0       0       0       0       0       0       0       0
       0       0       0       0       0       0       0       0       0       0
       0       0       0       0       0       0       0       0       0       0
       0       0       0       0       0       0       0       0       0       0
       0       0       0       0       0       0       0       0       0       0
       0       0       0       0       0       0       0       0       0       0
       0       0       0       0       0       0       0       0       0       0
       0       0       0       0       0       0       0       0       0       0
       0       0       0       0       0       0       0       0       0       0
       0       0       0       0       0       0       0       0       0       0
       0       0       0       0       0       0       0       0       0       0
       0       0       0       0       0       0       0       0       0       0
       0       0       0       0       0       0       0       0       0       0
       0       0       0       0       0       0       0       0       0       0
       0       0       0       0       0       0       0       0       0       0
       0       0       0       0       0       0       0       0       0       0
       0       0       0       0       0       0       0       0       0       0
       0       0       0       0       0       0       0       0       0       0
       0       0       0       0       0       0       0       0       0       0
       0       0       0       0       0       0       0       0       0       0
       0       0       0       0       0       0       0       0       0       0
       0       0       0       0       0       0       0       0       0       0
       0       0       0       0       0       0       0       0       0       0
       0       0       0       0       0       0       0       0       0       0
       0       0       0       0       0       0       0       0       0       0
       0       0       0       0       0       0       0       0       0       0
       0       0       0       0       0       0       0       0       0       0
       0       0       0       0       0       0       0       0       0       0
       0       0       0       0       0       0       0       0       0       0
       0       0       0       0       0       0       0       0       0       0
       0       0       0       0       0       0       0       0       0       0
       0       0       0       0       0       0       0       0       0       0
       0       0       0       0       0       0       0       0       0       0
       0       0       0       0       0       0       0       0       0       0
       0       0       0       0       0       0       0       0       0       0
       0       0       0       0       0       0       0       0       0       0
       0       0       0       0       0       0       0       0       0       0
       0       0       0       0       0       0       0       0       0       0
       0       0       0       0       0       0       0       0       0       0
       0       0       0       0       0       0       0       0       0       0
       0       0       0       0       0       0       0       0       0       0
       0       0       0       0       0       0       0       0       0       0
       0       0       0       0       0       0       0       0       0       0
       0       0       0       0       0       0       0       0       0       0
       0       0       0       0       0       0       0       0       0       0
       0       0       0       0       0       0       0       0       0       0
       0       0       0       0       0       0       0       0       0       0
       0       0       0       0       0       0       0       0       0       0
       0       0       0       0       0       0       0       0       0       0
       0       0       0       0       0       0       0       0       0       0
       0       0       0       0       0       0       0       0       0       0
       0       0       0       0       0       0       0       0       0       0
       0       0       0       0       0       0       0       0       0       0
       0       0       0       0       0       0       0       0       0       0
       0       0       0       0       0       0       0       0       0       0
       0       0       0       0       0       0       0       0       0       0
       0       0       0       0       0       0       0       0       0       0
       0       0       0       0       0       0       0       0       0       0
       0       0       0       0       0       0       0       0       0       0
       0       0       0       0       0       0       0       0       0       0
       0       0       0       0       0       0       0       0       0       0
       0       0       0       0       0       0       0       0       0       0
       0       0       0       0       0       0       0       0       0       0
       0       0       0       0       0       0       0       0       0       0
       0       0       0       0       0       0       0       0       0       0
       0       0       0       0       0       0       0       0       0       0
       0       0       0       0       0       0       0       0       0       0
       0       0       0       0       0       0       0       0       0       0
       0       0       0       0       0       0       0       0       0       0
       0       0       0       0       0       0       0       0       0       0
       0       0       0       0       0       0       0       0       0       0
       0       0       0       0       0       0       0       0       0       0
       0       0       0       0       0       0       0       0       0       0
       0       0       0       0       0       0       0       0       0       0
       0       0       0       0       0       0       0       0       0       0
       0       0       0       0       0       0       0       0       0       0
       0       0       0       0       0       0       0       0       0       0
       0       0       0       0       0       0       0       0       0       0
       0       0       0       0       0       0       0       0       0       0
       0       0       0       0       0       0       0       0       0       0
       0       0       0       0       0       0       0       0       0       0
       0       0       0       0       0       0       0       0       0       0
       0       0       0       0       0       0       0       0       0       0
       0       0       0       0       0       0       0       0       0       0
       0       0       0       0       0       0       0       0       0       0
       0       0       0       0       0       0       0       0       0       0
       0       0       0       0       0       0       0       0       0       0
       0       0       0       0       0       0       0       0       0       0
       0       0       0       0       0       0       0       0       0       0
       0       0       0       0       0       0       0       0       0       0
       0       0       0       0       0       0       0       0       0       0
       0       0       0       0       0       0       0       0       0       0
       0       0       0       0       0       0       0       0       0       0
       0       0       0       0       0       0       0       0       0       0
       0       0       0       0       0       0       0       0       0       0
       0       0       0       0       0       0       0       0       0       0
       0       0       0       0       0       0       0       0       0       0
       0       0       0       0       0       0       0       0       0       0
       0       0       0       0       0       0       0       0       0       0
       0       0       0       0       0       0       0       0       0       0
       0       0       0       0       0       0       0       0       0       0
       0       0       0       0       0       0       0       0       0       0
       0       0       0       0       0       0       0       0       0       0
       0       0       0       0       0       0       0       0       0       0
       0       0       0       0       0       0       0       0       0       0
       0       0       0       0       0       0       0       0       0       0
       0       0       0       0       0       0       0       0       0       0
       0       0       0       0       0       0       0       0       0       0
       0       0       0       0       0       0       0       0       0       0
       0       0       0       0       0       0       0       0       0       0
       0       0       0       0       0       0       0       0       0       0
       0       0       0       0       0       0       0       0       0       0
       0       0       0       0       0       0       0       0       0       0
       0       0       0       0       0       0       0       0       0       0
       0       0       0       0       0       0       0       0       0       0
       0       0       0       0       0       0       0       0       0       0
       0       0       0       0       0       0       0       0       0       0
       0       0       0       0       0       0       0       0       0       0
       0       0       0       0       0       0       0       0       0       0
       0       0       0       0       0       0       0       0       0       0
       0       0       0       0       0       0       0       0       0       0
       0       0       0       0       0       0       0       0       0       0
       0       0       0       0       0       0       0       0       0       0
       0       0       0       0       0       0       0       0       0       0
       0       0       0       0       0       0       0       0       0       0
       0       0       0       0       0       0       0       0       0       0
       0       0       0       0       0       0       0       0       0       0
       0       0       0       0       0       0       0       0       0       0
       0       0       0       0       0       0       0       0       0       0
       0       0       0       0       0       0       0       0       0       0
       0       0       0       0       0       0       0       0       0       0
       0       0       0       0       0       0       0       0       0       0
       0       0       0       0       0       0       0       0       0       0
       0       0       0       0       0       0       0       0       0       0
       0       0       0       0       0       0       0       0       0       0
       0       0       0       0       0       0       0       0       0       0
       0       0       0       0       0       0       0       0       0       0
       0       0       0       0       0       0       0       0       0       0
       0       0       0       0       0       0       0       0       0       0
       0       0       0       0       0       0       0       0       0       0
       0       0       0       0       0       0       0       0       0       0
       0       0       0       0       0       0       0       0       0       0
       0       0       0       0       0       0       0       0       0       0
       0       0       0       0       0       0       0       0       0       0
       0       0       0       0       0       0       0       0       0       0
       0       0       0       0       0       0       0       0       0       0
       0       0       0       0       0       0       0       0       0       0
       0       0       0       0       0       0       0       0       0       0
       0       0       0       0       0       0       0       0       0       0
       0       0       0       0       0       0       0       0       0       0
       0       0       0       0       0       0       0       0       0       0
       0       0       0       0       0       0       0       0       0       0
       0       0       0       0       0       0       0       0       0       0
       0       0       0       0       0       0       0       0       0       0
       0       0       0       0       0       0       0       0       0       0
       0       0       0       0       0       0       0       0       0       0
       0       0       0       0       0       0       0       0       0       0
       0       0       0       0       0       0       0       0       0       0
       0       0       0       0       0       0       0       0       0       0
       0       0       0       0       0       0       0       0       0       0
       0       0       0       0       0       0       0       0       0       0
       0       0       0       0       0       0       0       0       0       0
       0       0       0       0       0       0       0       0       0       0
       0       0       0       0       0       0       0       0       0       0
       0       0       0       0       0       0       0       0       0       0
       0       0       0       0       0       0       0       0       0       0
       0       0       0       0       0       0       0       0       0       0
       0       0       0       0       0       0       0       0       0       0
       0       0       0       0       0       0       0       0       0       0
       0       0       0       0       0       0       0       0       0       0
       0       0       0       0       0       0       0       0       0       0
       0       0       0       0       0       0       0       0       0       0
       0       0       0       0       0       0       0       0       0       0
       0       0       0       0       0       0       0       0       0       0
       0       0       0       0       0       0       0       0       0       0
       0       0       0       0       0       0       0       0       0       0
       0       0       0       0       0       0       0       0       0       0
       0       0       0       0       0       0       0       0       0       0
       0       0       0       0       0       0       0       0       0       0
       0       0       0       0       0       0       0       0       0       0
       0       0       0       0       0       0       0       0       0       0
       0       0       0       0       0       0       0       0       0       0
       0       0       0       0       0       0       0       0       0       0
       0       0       0       0       0       0       0       0       0       0
       0       0       0       0       0       0       0       0       0       0
       0       0       0       0       0       0       0       0       0       0
       0       0       0       0       0       0       0       0       0       0
       0       0       0       0       0       0       0       0       0       0
       0       0       0       0       0       0       0       0       0       0
       0       0       0       0       0       0       0       0       0       0
       0       0       0       0       0       0       0       0       0       0
       0       0       0       0       0       0       0       0       0       0
       0       0       0       0       0       0       0       0       0       0
       0       0       0       0       0       0       0       0       0       0
       0       0       0       0       0       0       0       0       0       0
       0       0       0       0       0       0       0       0       0       0
       0       0       0       0       0       0       0       0       0       0
       0       0       0       0       0       0       0       0       0       0
       0       0       0       0       0       0       0       0       0       0
       0       0       0       0       0       0       0       0       0       0
       0       0       0       0       0       0       0       0       0       0
       0       0       0       0       0       0       0       0       0       0
       0       0       0       0       0       0       0       0       0       0
       0       0       0       0       0       0       0       0       0       0
       0       0       0       0       0       0       0       0       0       0
       0       0       0       0       0       0       0       0       0       0
       0       0       0       0       0       0       0       0       0       0
       0       0       0       0       0       0       0       0       0       0
       0       0       0       0       0       0       0       0       0       0
       0       0       0       0       0       0       0       0       0       0
       0       0       0       0       0       0       0       0       0       0
       0       0       0       0       0       0       0       0       0       0
       0       0       0       0       0       0       0       0       0       0
       0       0       0       0       0       0       0       0       0       0
       0       0       0       0       0       0       0       0       0       0
       0       0       0       0       0       0       0       0       0       0
       0       0       0       0       0       0       0       0       0       0
       0       0       0       0       0       0       0       0       0       0
       0       0       0       0       0       0       0       0       0       0
       0       0       0       0       0       0       0       0       0       0
       0       0       0       0       0       0       0       0       0       0
       0       0       0       0       0       0       0       0       0       0
       0       0       0       0       0       0       0       0       0       0
       0       0       0       0       0       0       0       0       0       0
       0       0       0       0       0       0       0       0       0       0
       0       0       0       0       0       0       0       0       0       0
       0       0       0       0       0       0       0       0       0       0
       0       0       0       0       0       0       0       0       0       0
       0       0       0       0       0       0       0       0       0       0
       0       0       0       0       0       0       0       0       0       0
       0       0       0       0       0       0       0       0       0       0
       0       0       0       0       0       0       0       0       0       0
       0       0       0       0       0       0       0       0       0       0
       0       0       0       0       0       0       0       0       0       0
       0       0       0       0       0       0       0       0       0       0
       0       0       0       0       0       0       0       0       0       0
       0       0       0       0       0       0       0       0       0       0
       0       0       0       0       0       0       0       0       0       0
       0       0       0       0       0       0       0       0       0       0
       0       0       0       0       0       0       0       0       0       0
       0       0       0       0       0       0       0       0       0       0
       0       0       0       0       0       0       0       0       0       0
       0       0       0       0       0       0       0       0       0       0
       0       0       0       0       0       0       0       0       0       0
       0       0       0       0       0       0       0       0       0       0
       0       0       0       0       0       0       0       0       0       0
       0       0       0       0       0       0       0       0       0       0
       0       0       0       0       0       0       0       0       0       0
       0       0       0       0       0       0       0       0       0       0
       0       0       0       0       0       0       0       0       0       0
       0       0       0       0       0       0       0       0       0       0
       0       0       0       0       0       0       0       0       0       0
       0       0       0       0       0       0       0       0       0       0
       0       0       0       0       0       0       0       0       0       0
       0       0       0       0       0       0       0       0       0       0
       0       0       0       0       0       0       0       0       0       0
       0       0       0       0       0       0       0       0       0       0
       0       0       0       0       0       0       0       0       0       0
       0       0       0       0       0       0       0       0       0       0
       0       0       0       0       0       0       0       0       0       0
       0       0       0       0       0       0       0       0       0       0
       0       0       0       0       0       0       0       0       0       0
       0       0       0       0       0       0       0       0       0       0
       0       0       0       0       0       0       0       0       0       0
       0       0       0       0       0       0       0       0       0       0
       0       0       0       0       0       0       0       0       0       0
       0       0       0       0       0       0       0       0       0       0
       0       0       0       0       0       0       0       0       0       0
       0       0       0       0       0       0       0       0       0       0
       0       0       0       0       0       0       0       0       0       0
       0       0       0       0       0       0       0       0       0       0
       0       0       0       0       0       0       0       0       0       0
       0       0       0       0       0       0       0       0       0       0
       0       0       0       0       0       0       0       0       0       0
       0       0       0       0       0       0       0       0       0       0
       0       0       0       0       0       0       0       0       0       0
       0       0       0       0       0       0       0       0       0       0
       0       0       0       0       0       0       0       0       0       0
       0       0       0       0       0       0       0       0       0       0
       0       0       0       0       0       0       0       0       0       0
       0       0       0       0       0       0       0       0       0       0
       0       0       0       0       0       0       0       0       0       0
       0       0       0       0       0       0       0       0       0       0
       0       0       0       0       0       0       0       0       0       0
       0       0       0       0       0       0       0       0       0       0
       0       0       0       0       0       0       0       0       0       0
       0       0       0       0       0       0       0       0       0       0
       0       0       0       0       0       0       0       0       0       0
       0       0       0       0       0       0       0       0       0       0
       0       0       0       0       0       0       0       0       0       0
       0       0       0       0       0       0       0       0       0       0
       0       0       0       0       0       0       0       0       0       0
       0       0       0       0       0       0       0       0       0       0
       0       0       0       0       0       0       0       0       0       0
       0       0       0       0       0       0       0       0       0       0
       0       0       0       0       0       0       0       0       0       0
       0       0       0       0       0       0       0       0       0       0
       0       0       0       0       0       0       0       0       0       0
       0       0       0       0       0       0       0       0       0       0
       0       0       0       0       0       0       0       0       0       0
       0       0       0       0       0       0       0       0       0       0
       0       0       0       0       0       0       0       0       0       0
       0       0       0       0       0       0       0       0       0       0
       0       0       0       0       0       0       0       0       0       0
       0       0       0       0       0       0       0       0       0       0
       0       0       0       0       0       0       0       0       0       0
       0       0       0       0       0       0       0       0       0       0
       0       0       0       0       0       0       0       0       0       0
       0       0       0       0       0       0       0       0       0       0
       0       0       0       0       0       0       0       0       0       0
       0       0       0       0       0       0       0       0       0       0
       0       0       0       0       0       0       0       0       0       0
       0       0       0       0       0       0       0       0       0       0
       0       0       0       0       0       0       0       0       0       0
       0       0       0       0       0       0       0       0       0       0
       0       0       0       0       0       0       0       0       0       0
       0       0       0       0       0       0       0       0       0       0
       0       0       0       0       0       0       0       0       0       0
       0       0       0       0       0       0       0       0       0       0
       0       0       0       0       0       0       0       0       0       0
       0       0       0       0       0       0       0       0       0       0
       0       0       0       0       0       0       0       0       0       0
       0       0       0       0       0       0       0       0       0       0
       0       0       0       0       0       0       0       0       0       0
       0       0       0       0       0       0       0       0       0       0
       0       0       0       0       0       0       0       0       0       0
       0       0       0       0       0       0       0       0       0       0
       0       0       0       0       0       0       0       0       0       0
       0       0       0       0       0       0       0       0       0       0
       0       0       0       0       0       0       0       0       0       0
       0       0       0       0       0       0       0       0       0       0
       0       0       0       0       0       0       0       0       0       0
       0       0       0       0       0       0       0       0       0       0
       0       0       0       0       0       0       0       0       0       0
       0       0       0       0       0       0       0       0       0       0
       0       0       0       0       0       0       0       0       0       0
       0       0       0       0       0       0       0       0       0       0
       0       0       0       0       0       0       0       0       0       0
       0       0       0       0       0       0       0       0       0       0
       0       0       0       0       0       0       0       0       0       0
       0       0       0       0       0       0       0       0       0       0
       0       0       0       0       0       0       0       0       0       0
       0       0       0       0       0       0       0       0       0       0
       0       0       0       0       0       0       0       0       0       0
       0       0       0       0       0       0       0       0       0       0
       0       0       0       0       0       0       0       0       0       0
       0       0       0       0       0       0       0       0       0       0
       0       0       0       0       0       0       0       0       0       0
       0       0       0       0       0       0       0       0       0       0
       0       0       0       0       0       0       0       0       0       0
       0       0       0       0       0       0       0       0       0       0
       0       0       0       0       0       0       0       0       0       0
       0       0       0       0       0       0       0       0       0       0
       0       0       0       0       0       0       0       0       0       0
       0       0       0       0       0       0       0       0       0       0
       0       0       0       0       0       0       0       0       0       0
       0       0       0       0       0       0       0       0       0       0
       0       0       0       0       0       0       0       0       0       0
       0       0       0       0       0       0       0       0       0       0
       0       0       0       0       0       0       0       0       0       0
       0       0       0       0       0       0       0       0       0       0
       0       0       0       0       0       0       0       0       0       0
       0       0       0       0       0       0       0       0       0       0
       0       0       0       0       0       0       0       0       0       0
       0       0       0       0       0       0       0       0       0       0
       0       0       0       0       0       0       0       0       0       0
       0       0       0       0       0       0       0       0       0       0
       0       0       0       0       0       0       0       0       0       0
       0       0       0       0       0       0       0       0       0       0
       0       0       0       0       0       0       0       0       0       0
       0       0       0       0       0       0       0       0       0       0
       0       0       0       0       0       0       0       0       0       0
       0       0       0       0       0       0       0       0       0       0
       0       0       0       0       0       0       0       0       0       0
       0       0       0       0       0       0       0       0       0       0
       0       0       0       0       0       0       0       0       0       0
       0       0       0       0       0       0       0       0       0       0
       0       0       0       0       0       0       0       0       0       0
       0       0       0       0       0       0       0       0       0       0
       0       0       0       0       0       0       0       0       0       0
       0       0       0       0       0       0       0       0       0       0
       0       0       0       0       0       0       0       0       0       0
       0       0       0       0       0       0       0       0       0       0
       0       0       0       0       0       0       0       0       0       0
       0       0       0       0       0       0       0       0       0       0
       0       0       0       0       0       0       0       0       0       0
       0       0       0       0       0       0       0       0       0       0
       0       0       0       0       0       0       0       0       0       0
       0       0       0       0       0       0       0       0       0       0
       0       0       0       0       0       0       0       0       0       0
       0       0       0       0       0       0       0       0       0       0
       0       0       0       0       0       0       0       0       0       0
       0       0       0       0       0       0       0       0       0       0
       0       0       0       0       0       0       0       0       0       0
       0       0       0       0       0       0       0       0       0       0
       0       0       0       0       0       0       0       0       0       0
       0       0       0       0       0       0       0       0       0       0
       0       0       0       0       0       0       0       0       0       0
       0       0       0       0       0       0       0       0       0       0
       0       0       0       0       0       0       0       0       0       0
       0       0       0       0       0       0       0       0       0       0
       0       0       0       0       0       0       0       0       0       0
       0       0       0       0       0       0       0       0       0       0
       0       0       0       0       0       0       0       0       0       0
       0       0       0       0       0       0       0       0       0       0
       0       0       0       0       0       0       0       0       0       0
       0       0       0       0       0       0       0       0       0       0
       0       0       0       0       0       0       0       0       0       0
       0       0       0       0       0       0       0       0       0       0
       0       0       0       0       0       0       0       0       0       0
       0       0       0       0       0       0       0       0       0       0
       0       0       0       0       0       0       0       0       0       0
       0       0       0       0       0       0       0       0       0       0
       0       0       0       0       0       0       0       0       0       0
       0       0       0       0       0       0       0       0       0       0
       0       0       0       0       0       0       0       0       0       0
       0       0       0       0       0       0       0       0       0       0
       0       0       0       0       0       0       0       0       0       0
       0       0       0       0       0       0       0       0       0       0
       0       0       0       0       0       0       0       0       0       0
       0       0       0       0       0       0       0       0       0       0
       0       0       0       0       0       0       0       0       0       0
       0       0       0       0       0       0       0       0       0       0
       0       0       0       0       0       0       0       0       0       0
       0       0       0       0       0       0       0       0       0       0
       0       0       0       0       0       0       0       0       0       0
       0       0       0       0       0       0       0       0       0       0
       0       0       0       0       0       0       0       0       0       0
       0       0       0       0       0       0       0       0       0       0
       0       0       0       0       0       0       0       0       0       0
       0       0       0       0       0       0       0       0       0       0
       0       0       0       0       0       0       0       0       0       0
       0       0       0       0       0       0       0       0       0       0
       0       0       0       0       0       0       0       0       0       0
       0       0       0       0       0       0       0       0       0       0
       0       0       0       0       0       0       0       0       0       0
       0       0       0       0       0       0       0       0       0       0
       0       0       0       0       0       0       0       0       0       0
       0       0       0       0       0       0       0       0       0       0
       0       0       0       0       0       0       0       0       0       0
       0       0       0       0       0       0       0       0       0       0
       0       0       0       0       0       0       0       0       0       0
       0       0       0       0       0       0       0       0       0       0
       0       0       0       0       0       0       0       0       0       0
       0       0       0       0       0       0       0       0       0       0
       0       0       0       0       0       0       0       0       0       0
       0       0       0       0       0       0       0       0       0       0
       0       0       0       0       0       0       0       0       0       0
       0       0       0       0       0       0       0       0       0       0
       0       0       0       0       0       0       0       0       0       0
       0       0       0       0       0       0       0       0       0       0
       0       0       0       0       0       0       0       0       0       0
       0       0       0       0       0       0       0       0       0       0
       0       0       0       0       0       0       0       0       0       0
       0       0       0       0       0       0       0       0       0       0
       0       0       0       0       0       0       0       0       0       0
       0       0       0       0       0       0       0       0       0       0
       0       0       0       0       0       0       0       0       0       0
       0       0       0       0       0       0       0       0       0       0
       0       0       0       0       0       0       0       0       0       0
       0       0       0       0       0       0       0       0       0       0
       0       0       0       0       0       0       0       0       0       0
       0       0       0       0       0       0       0       0       0       0
       0       0       0       0       0       0       0       0       0       0
       0       0       0       0       0       0       0       0       0       0
       0       0       0       0       0       0       0       0       0       0
       0       0       0       0       0       0       0       0       0       0
       0       0       0       0       0       0       0       0       0       0
       0       0       0       0       0       0       0       0       0       0
       0       0       0       0       0       0       0       0       0       0
       0       0       0       0       0       0       0       0       0       0
       0       0       0       0       0       0       0       0       0       0
       0       0       0       0       0       0       0       0       0       0
       0       0       0       0       0       0       0       0       0       0
       0       0       0       0       0       0       0       0       0       0
       0       0       0       0       0       0       0       0       0       0
       0       0       0       0       0       0       0       0       0       0
       0       0       0       0       0       0       0       0       0       0
       0       0       0       0       0       0       0       0       0       0
       0       0       0       0       0       0       0       0       0       0
       0       0       0       0       0       0       0       0       0       0
       0       0       0       0       0       0       0       0       0       0
       0       0       0       0       0       0       0       0       0       0
       0       0       0       0       0       0       0       0       0       0
       0       0       0       0       0       0       0       0       0       0
       0       0       0       0       0       0       0       0       0       0
       0       0       0       0       0       0       0       0       0       0
       0       0       0       0       0       0       0       0       0       0
       0       0       0       0       0       0       0       0       0       0
       0       0       0       0       0       0       0       0       0       0
       0       0       0       0       0       0       0       0       0       0
       0       0       0       0       0       0       0       0       0       0
       0       0       0       0       0       0       0       0       0       0
       0       0       0       0       0       0       0       0       0       0
       0       0       0       0       0       0       0       0       0       0
       0       0       0       0       0       0       0       0       0       0
       0       0       0       0       0       0       0       0       0       0
       0       0       0       0       0       0       0       0       0       0
       0       0       0       0       0       0       0       0       0       0
       0       0       0       0       0       0       0       0       0       0
       0       0       0       0       0       0       0       0       0       0
       0       0       0       0       0       0       0       0       0       0
       0       0       0       0       0       0       0       0       0       0
       0       0       0       0       0       0       0       0       0       0
       0       0       0       0       0       0       0       0       0       0
       0       0       0       0       0       0       0       0       0       0
       0       0       0       0       0       0       0       0       0       0
       0       0       0       0       0       0       0       0       0       0
       0       0       0       0       0       0       0       0       0       0
       0       0       0       0       0       0       0       0       0       0
       0       0       0       0       0       0       0       0       0       0
       0       0       0       0       0       0       0       0       0       0
       0       0       0       0       0       0       0       0       0       0
       0       0       0       0       0       0       0       0       0       0
       0       0       0       0       0       0       0       0       0       0
       0       0       0       0       0       0       0       0       0       0
       0       0       0       0       0       0       0       0       0       0
       0       0       0       0       0       0       0       0       0       0
       0       0       0       0       0       0       0       0       0       0
       0       0       0       0       0       0       0       0       0       0
       0       0       0       0       0       0       0       0       0       0
       0       0       0       0       0       0       0       0       0       0
       0       0       0       0       0       0       0       0       0       0
       0       0       0       0       0       0       0       0       0       0
       0       0       0       0       0       0       0       0       0       0
       0       0       0       0       0       0       0       0       0       0
       0       0       0       0       0       0       0       0       0       0
       0       0       0       0       0       0       0       0       0       0
       0       0       0       0       0       0       0       0       0       0
       0       0       0       0       0       0       0       0       0       0
       0       0       0       0       0       0       0       0       0       0
       0       0       0       0       0       0       0       0       0       0
       0       0       0       0       0       0       0       0       0       0
       0       0       0       0       0       0       0       0       0       0
       0       0       0       0       0       0       0       0       0       0
       0       0       0       0
%FLAG SOLVENT_POINTERS                                                          
%FORMAT(3I8)                                                                    
       3   25544       4
%FLAG ATOMS_PER_MOLECULE                                                        
%FORMAT(10I8)                                                                   
      39       1       1       3       3       3       3       3       3       3
       3       3       3       3       3       3       3       3       3       3
       3       3       3       3       3       3       3       3       3       3
       3       3       3       3       3       3       3       3       3       3
       3       3       3       3       3       3       3       3       3       3
       3       3       3       3       3       3       3       3       3       3
       3       3       3       3       3       3       3       3       3       3
       3       3       3       3       3       3       3       3       3       3
       3       3       3       3       3       3       3       3       3       3
       3       3       3       3       3       3       3       3       3       3
       3       3       3       3       3       3       3       3       3       3
       3       3       3       3       3       3       3       3       3       3
       3       3       3       3       3       3       3       3       3       3
       3       3       3       3       3       3       3       3       3       3
       3       3       3       3       3       3       3       3       3       3
       3       3       3       3       3       3       3       3       3       3
       3       3       3       3       3       3       3       3       3       3
       3       3       3       3       3       3       3       3       3       3
       3       3       3       3       3       3       3       3       3       3
       3       3       3       3       3       3       3       3       3       3
       3       3       3       3       3       3       3       3       3       3
       3       3       3       3       3       3       3       3       3       3
       3       3       3       3       3       3       3       3       3       3
       3       3       3       3       3       3       3       3       3       3
       3       3       3       3       3       3       3       3       3       3
       3       3       3       3       3       3       3       3       3       3
       3       3       3       3       3       3       3       3       3       3
       3       3       3       3       3       3       3       3       3       3
       3       3       3       3       3       3       3       3       3       3
       3       3       3       3       3       3       3       3       3       3
       3       3       3       3       3       3       3       3       3       3
       3       3       3       3       3       3       3       3       3       3
       3       3       3       3       3       3       3       3       3       3
       3       3       3       3       3       3       3       3       3       3
       3       3       3       3       3       3       3       3       3       3
       3       3       3       3       3       3       3       3       3       3
       3       3       3       3       3       3       3       3       3       3
       3       3       3       3       3       3       3       3       3       3
       3       3       3       3       3       3       3       3       3       3
       3       3       3       3       3       3       3       3       3       3
       3       3       3       3       3       3       3       3       3       3
       3       3       3       3       3       3       3       3       3       3
       3       3       3       3       3       3       3       3       3       3
       3       3       3       3       3       3       3       3       3       3
       3       3       3       3       3       3       3       3       3       3
       3       3       3       3       3       3       3       3       3       3
       3       3       3       3       3       3       3       3       3       3
       3       3       3       3       3       3       3       3       3       3
       3       3       3       3       3       3       3       3       3       3
       3       3       3       3       3       3       3       3       3       3
       3       3       3       3       3       3       3       3       3       3
       3       3       3       3       3       3       3       3       3       3
       3       3       3       3       3       3       3       3       3       3
       3       3       3       3       3       3       3       3       3       3
       3       3       3       3       3       3       3       3       3       3
       3       3       3       3       3       3       3       3       3       3
       3       3       3       3       3       3       3       3       3       3
       3       3       3       3       3       3       3       3       3       3
       3       3       3       3       3       3       3       3       3       3
       3       3       3       3       3       3       3       3       3       3
       3       3       3       3       3       3       3       3       3       3
       3       3       3       3       3       3       3       3       3       3
       3       3       3       3       3       3       3       3       3       3
       3       3       3       3       3       3       3       3       3       3
       3       3       3       3       3       3       3       3       3       3
       3       3       3       3       3       3       3       3       3       3
       3       3       3       3       3       3       3       3       3       3
       3       3       3       3       3       3       3       3       3       3
       3       3       3       3       3       3       3       3       3       3
       3       3       3       3       3       3       3       3       3       3
       3       3       3       3       3       3       3       3       3       3
       3       3       3       3       3       3       3       3       3       3
       3       3       3       3       3       3       3       3       3       3
       3       3       3       3       3       3       3       3       3       3
       3       3       3       3       3       3       3       3       3       3
       3       3       3       3       3       3       3       3       3       3
       3       3       3       3       3       3       3       3       3       3
       3       3       3       3       3       3       3       3       3       3
       3       3       3       3       3       3       3       3       3       3
       3       3       3       3       3       3       3       3       3       3
       3       3       3       3       3       3       3       3       3       3
       3       3       3       3       3       3       3       3       3       3
       3       3       3       3       3       3       3       3       3       3
       3       3       3       3       3       3       3       3       3       3
       3       3       3       3       3       3       3       3       3       3
       3       3       3       3       3       3       3       3       3       3
       3       3       3       3       3       3       3       3       3       3
       3       3       3       3       3       3       3       3       3       3
       3       3       3       3       3       3       3       3       3       3
       3       3       3       3       3       3       3       3       3       3
       3       3       3       3       3       3       3       3       3       3
       3       3       3       3       3       3       3       3       3       3
       3       3       3       3       3       3       3       3       3       3
       3       3       3       3       3       3       3       3       3       3
       3       3       3       3       3       3       3       3       3       3
       3       3       3       3       3       3       3       3       3       3
       3       3       3       3       3       3       3       3       3       3
       3       3       3       3       3       3       3       3       3       3
       3       3       3       3       3       3       3       3       3       3
       3       3       3       3       3       3       3       3       3       3
       3       3       3       3       3       3       3       3       3       3
       3       3       3       3       3       3       3       3       3       3
       3       3       3       3       3       3       3       3       3       3
       3       3       3       3       3       3       3       3       3       3
       3       3       3       3       3       3       3       3       3       3
       3       3       3       3       3       3       3       3       3       3
       3       3       3       3       3       3       3       3       3       3
       3       3       3       3       3       3       3       3       3       3
       3       3       3       3       3       3       3       3       3       3
       3       3       3       3       3       3       3       3       3       3
       3       3       3       3       3       3       3       3       3       3
       3       3       3       3       3       3       3       3       3       3
       3       3       3       3       3       3       3       3       3       3
       3       3       3       3       3       3       3       3       3       3
       3       3       3       3       3       3       3       3       3       3
       3       3       3       3       3       3       3       3       3       3
       3       3       3       3       3       3       3       3       3       3
       3       3       3       3       3       3       3       3       3       3
       3       3       3       3       3       3       3       3       3       3
       3       3       3       3       3       3       3       3       3       3
       3       3       3       3       3       3       3       3       3       3
       3       3       3       3       3       3       3       3       3       3
       3       3       3       3       3       3       3       3       3       3
       3       3       3       3       3       3       3       3       3       3
       3       3       3       3       3       3       3       3       3       3
       3       3       3       3       3       3       3       3       3       3
       3       3       3       3       3       3       3       3       3       3
       3       3       3       3       3       3       3       3       3       3
       3       3       3       3       3       3       3       3       3       3
       3       3       3       3       3       3       3       3       3       3
       3       3       3       3       3       3       3       3       3       3
       3       3       3       3       3       3       3       3       3       3
       3       3       3       3       3       3       3       3       3       3
       3       3       3       3       3       3       3       3       3       3
       3       3       3       3       3       3       3       3       3       3
       3       3       3       3       3       3       3       3       3       3
       3       3       3       3       3       3       3       3       3       3
       3       3       3       3       3       3       3       3       3       3
       3       3       3       3       3       3       3       3       3       3
       3       3       3       3       3       3       3       3       3       3
       3       3       3       3       3       3       3       3       3       3
       3       3       3       3       3       3       3       3       3       3
       3       3       3       3       3       3       3       3       3       3
       3       3       3       3       3       3       3       3       3       3
       3       3       3       3       3       3       3       3       3       3
       3       3       3       3       3       3       3       3       3       3
       3       3       3       3       3       3       3       3       3       3
       3       3       3       3       3       3       3       3       3       3
       3       3       3       3       3       3       3       3       3       3
       3       3       3       3       3       3       3       3       3       3
       3       3       3       3       3       3       3       3       3       3
       3       3       3       3       3       3       3       3       3       3
       3       3       3       3       3       3       3       3       3       3
       3       3       3       3       3       3       3       3       3       3
       3       3       3       3       3       3       3       3       3       3
       3       3       3       3       3       3       3       3       3       3
       3       3       3       3       3       3       3       3       3       3
       3       3       3       3       3       3       3       3       3       3
       3       3       3       3       3       3       3       3       3       3
       3       3       3       3       3       3       3       3       3       3
       3       3       3       3       3       3       3       3       3       3
       3       3       3       3       3       3       3       3       3       3
       3       3       3       3       3       3       3       3       3       3
       3       3       3       3       3       3       3       3       3       3
       3       3       3       3       3       3       3       3       3       3
       3       3       3       3       3       3       3       3       3       3
       3       3       3       3       3       3       3       3       3       3
       3       3       3       3       3       3       3       3       3       3
       3       3       3       3       3       3       3       3       3       3
       3       3       3       3       3       3       3       3       3       3
       3       3       3       3       3       3       3       3       3       3
       3       3       3       3       3       3       3       3       3       3
       3       3       3       3       3       3       3       3       3       3
       3       3       3       3       3       3       3       3       3       3
       3       3       3       3       3       3       3       3       3       3
       3       3       3       3       3       3       3       3       3       3
       3       3       3       3       3       3       3       3       3       3
       3       3       3       3       3       3       3       3       3       3
       3       3       3       3       3       3       3       3       3       3
       3       3       3       3       3       3       3       3       3       3
       3       3       3       3       3       3       3       3       3       3
       3       3       3       3       3       3       3       3       3       3
       3       3       3       3       3       3       3       3       3       3
       3       3       3       3       3       3       3       3       3       3
       3       3       3       3       3       3       3       3       3       3
       3       3       3       3       3       3       3       3       3       3
       3       3       3       3       3       3       3       3       3       3
       3       3       3       3       3       3       3       3       3       3
       3       3       3       3       3       3       3       3       3       3
       3       3       3       3       3       3       3       3       3       3
       3       3       3       3       3       3       3       3       3       3
       3       3       3       3       3       3       3       3       3       3
       3       3       3       3       3       3       3       3       3       3
       3       3       3       3       3       3       3       3       3       3
       3       3       3       3       3       3       3       3       3       3
       3       3       3       3       3       3       3       3       3       3
       3       3       3       3       3       3       3       3       3       3
       3       3       3       3       3       3       3       3       3       3
       3       3       3       3       3       3       3       3       3       3
       3       3       3       3       3       3       3       3       3       3
       3       3       3       3       3       3       3       3       3       3
       3       3       3       3       3       3       3       3       3       3
       3       3       3       3       3       3       3       3       3       3
       3       3       3       3       3       3       3       3       3       3
       3       3       3       3       3       3       3       3       3       3
       3       3       3       3       3       3       3       3       3       3
       3       3       3       3       3       3       3       3       3       3
       3       3       3       3       3       3       3       3       3       3
       3       3       3       3       3       3       3       3       3       3
       3       3       3       3       3       3       3       3       3       3
       3       3       3       3       3       3       3       3       3       3
       3       3       3       3       3       3       3       3       3       3
       3       3       3       3       3       3       3       3       3       3
       3       3       3       3       3       3       3       3       3       3
       3       3       3       3       3       3       3       3       3       3
       3       3       3       3       3       3       3       3       3       3
       3       3       3       3       3       3       3       3       3       3
       3       3       3       3       3       3       3       3       3       3
       3       3       3       3       3       3       3       3       3       3
       3       3       3       3       3       3       3       3       3       3
       3       3       3       3       3       3       3       3       3       3
       3       3       3       3       3       3       3       3       3       3
       3       3       3       3       3       3       3       3       3       3
       3       3       3       3       3       3       3       3       3       3
       3       3       3       3       3       3       3       3       3       3
       3       3       3       3       3       3       3       3       3       3
       3       3       3       3       3       3       3       3       3       3
       3       3       3       3       3       3       3       3       3       3
       3       3       3       3       3       3       3       3       3       3
       3       3       3       3       3       3       3       3       3       3
       3       3       3       3       3       3       3       3       3       3
       3       3       3       3       3       3       3       3       3       3
       3       3       3       3       3       3       3       3       3       3
       3       3       3       3       3       3       3       3       3       3
       3       3       3       3       3       3       3       3       3       3
       3       3       3       3       3       3       3       3       3       3
       3       3       3       3       3       3       3       3       3       3
       3       3       3       3       3       3       3       3       3       3
       3       3       3       3       3       3       3       3       3       3
       3       3       3       3       3       3       3       3       3       3
       3       3       3       3       3       3       3       3       3       3
       3       3       3       3       3       3       3       3       3       3
       3       3       3       3       3       3       3       3       3       3
       3       3       3       3       3       3       3       3       3       3
       3       3       3       3       3       3       3       3       3       3
       3       3       3       3       3       3       3       3       3       3
       3       3       3       3       3       3       3       3       3       3
       3       3       3       3       3       3       3       3       3       3
       3       3       3       3       3       3       3       3       3       3
       3       3       3       3       3       3       3       3       3       3
       3       3       3       3       3       3       3       3       3       3
       3       3       3       3       3       3       3       3       3       3
       3       3       3       3       3       3       3       3       3       3
       3       3       3       3       3       3       3       3       3       3
       3       3       3       3       3       3       3       3       3       3
       3       3       3       3       3       3       3       3       3       3
       3       3       3       3       3       3       3       3       3       3
       3       3       3       3       3       3       3       3       3       3
       3       3       3       3       3       3       3       3       3       3
       3       3       3       3       3       3       3       3       3       3
       3       3       3       3       3       3       3       3       3       3
       3       3       3       3       3       3       3       3       3       3
       3       3       3       3       3       3       3       3       3       3
       3       3       3       3       3       3       3       3       3       3
       3       3       3       3       3       3       3       3       3       3
       3       3       3       3       3       3       3       3       3       3
       3       3       3       3       3       3       3       3       3       3
       3       3       3       3       3       3       3       3       3       3
       3       3       3       3       3       3       3       3       3       3
       3       3       3       3       3       3       3       3       3       3
       3       3       3       3       3       3       3       3       3       3
       3       3       3       3       3       3       3       3       3       3
       3       3       3       3       3       3       3       3       3       3
       3       3       3       3       3       3       3       3       3       3
       3       3       3       3       3       3       3       3       3       3
       3       3       3       3       3       3       3       3       3       3
       3       3       3       3       3       3       3       3       3       3
       3       3       3       3       3       3       3       3       3       3
       3       3       3       3       3       3       3       3       3       3
       3       3       3       3       3       3       3       3       3       3
       3       3       3       3       3       3       3       3       3       3
       3       3       3       3       3       3       3       3       3       3
       3       3       3       3       3       3       3       3       3       3
       3       3       3       3       3       3       3       3       3       3
       3       3       3       3       3       3       3       3       3       3
       3       3       3       3       3       3       3       3       3       3
       3       3       3       3       3       3       3       3       3       3
       3       3       3       3       3       3       3       3       3       3
       3       3       3       3       3       3       3       3       3       3
       3       3       3       3       3       3       3       3       3       3
       3       3       3       3       3       3       3       3       3       3
       3       3       3       3       3       3       3       3       3       3
       3       3       3       3       3       3       3       3       3       3
       3       3       3       3       3       3       3       3       3       3
       3       3       3       3       3       3       3       3       3       3
       3       3       3       3       3       3       3       3       3       3
       3       3       3       3       3       3       3       3       3       3
       3       3       3       3       3       3       3       3       3       3
       3       3       3       3       3       3       3       3       3       3
       3       3       3       3       3       3       3       3       3       3
       3       3       3       3       3       3       3       3       3       3
       3       3       3       3       3       3       3       3       3       3
       3       3       3       3       3       3       3       3       3       3
       3       3       3       3       3       3       3       3       3       3
       3       3       3       3       3       3       3       3       3       3
       3       3       3       3       3       3       3       3       3       3
       3       3       3       3       3       3       3       3       3       3
       3       3       3       3       3       3       3       3       3       3
       3       3       3       3       3       3       3       3       3       3
       3       3       3       3       3       3       3       3       3       3
       3       3       3       3       3       3       3       3       3       3
       3       3       3       3       3       3       3       3       3       3
       3       3       3       3       3       3       3       3       3       3
       3       3       3       3       3       3       3       3       3       3
       3       3       3       3       3       3       3       3       3       3
       3       3       3       3       3       3       3       3       3       3
       3       3       3       3       3       3       3       3       3       3
       3       3       3       3       3       3       3       3       3       3
       3       3       3       3       3       3       3       3       3       3
       3       3       3       3       3       3       3       3       3       3
       3       3       3       3       3       3       3       3       3       3
       3       3       3       3       3       3       3       3       3       3
       3       3       3       3       3       3       3       3       3       3
       3       3       3       3       3       3       3       3       3       3
       3       3       3       3       3       3       3       3       3       3
       3       3       3       3       3       3       3       3       3       3
       3       3       3       3       3       3       3       3       3       3
       3       3       3       3       3       3       3       3       3       3
       3       3       3       3       3       3       3       3       3       3
       3       3       3       3       3       3       3       3       3       3
       3       3       3       3       3       3       3       3       3       3
       3       3       3       3       3       3       3       3       3       3
       3       3       3       3       3       3       3       3       3       3
       3       3       3       3       3       3       3       3       3       3
       3       3       3       3       3       3       3       3       3       3
       3       3       3       3       3       3       3       3       3       3
       3       3       3       3       3       3       3       3       3       3
       3       3       3       3       3       3       3       3       3       3
       3       3       3       3       3       3       3       3       3       3
       3       3       3       3       3       3       3       3       3       3
       3       3       3       3       3       3       3       3       3       3
       3       3       3       3       3       3       3       3       3       3
       3       3       3       3       3       3       3       3       3       3
       3       3       3       3       3       3       3       3       3       3
       3       3       3       3       3       3       3       3       3       3
       3       3       3       3       3       3       3       3       3       3
       3       3       3       3       3       3       3       3       3       3
       3       3       3       3       3       3       3       3       3       3
       3       3       3       3       3       3       3       3       3       3
       3       3       3       3       3       3       3       3       3       3
       3       3       3       3       3       3       3       3       3       3
       3       3       3       3       3       3       3       3       3       3
       3       3       3       3       3       3       3       3       3       3
       3       3       3       3       3       3       3       3       3       3
       3       3       3       3       3       3       3       3       3       3
       3       3       3       3       3       3       3       3       3       3
       3       3       3       3       3       3       3       3       3       3
       3       3       3       3       3       3       3       3       3       3
       3       3       3       3       3       3       3       3       3       3
       3       3       3       3       3       3       3       3       3       3
       3       3       3       3       3       3       3       3       3       3
       3       3       3       3       3       3       3       3       3       3
       3       3       3       3       3       3       3       3       3       3
       3       3       3       3       3       3       3       3       3       3
       3       3       3       3       3       3       3       3       3       3
       3       3       3       3       3       3       3       3       3       3
       3       3       3       3       3       3       3       3       3       3
       3       3       3       3       3       3       3       3       3       3
       3       3       3       3       3       3       3       3       3       3
       3       3       3       3       3       3       3       3       3       3
       3       3       3       3       3       3       3       3       3       3
       3       3       3       3       3       3       3       3       3       3
       3       3       3       3       3       3       3       3       3       3
       3       3       3       3       3       3       3       3       3       3
       3       3       3       3       3       3       3       3       3       3
       3       3       3       3       3       3       3       3       3       3
       3       3       3       3       3       3       3       3       3       3
       3       3       3       3       3       3       3       3       3       3
       3       3       3       3       3       3       3       3       3       3
       3       3       3       3       3       3       3       3       3       3
       3       3       3       3       3       3       3       3       3       3
       3       3       3       3       3       3       3       3       3       3
       3       3       3       3       3       3       3       3       3       3
       3       3       3       3       3       3       3       3       3       3
       3       3       3       3       3       3       3       3       3       3
       3       3       3       3       3       3       3       3       3       3
       3       3       3       3       3       3       3       3       3       3
       3       3       3       3       3       3       3       3       3       3
       3       3       3       3       3       3       3       3       3       3
       3       3       3       3       3       3       3       3       3       3
       3       3       3       3       3       3       3       3       3       3
       3       3       3       3       3       3       3       3       3       3
       3       3       3       3       3       3       3       3       3       3
       3       3       3       3       3       3       3       3       3       3
       3       3       3       3       3       3       3       3       3       3
       3       3       3       3       3       3       3       3       3       3
       3       3       3       3       3       3       3       3       3       3
       3       3       3       3       3       3       3       3       3       3
       3       3       3       3       3       3       3       3       3       3
       3       3       3       3       3       3       3       3       3       3
       3       3       3       3       3       3       3       3       3       3
       3       3       3       3       3       3       3       3       3       3
       3       3       3       3       3       3       3       3       3       3
       3       3       3       3       3       3       3       3       3       3
       3       3       3       3       3       3       3       3       3       3
       3       3       3       3       3       3       3       3       3       3
       3       3       3       3       3       3       3       3       3       3
       3       3       3       3       3       3       3       3       3       3
       3       3       3       3       3       3       3       3       3       3
       3       3       3       3       3       3       3       3       3       3
       3       3       3       3       3       3       3       3       3       3
       3       3       3       3       3       3       3       3       3       3
       3       3       3       3       3       3       3       3       3       3
       3       3       3       3       3       3       3       3       3       3
       3       3       3       3       3       3       3       3       3       3
       3       3       3       3       3       3       3       3       3       3
       3       3       3       3       3       3       3       3       3       3
       3       3       3       3       3       3       3       3       3       3
       3       3       3       3       3       3       3       3       3       3
       3       3       3       3       3       3       3       3       3       3
       3       3       3       3       3       3       3       3       3       3
       3       3       3       3       3       3       3       3       3       3
       3       3       3       3       3       3       3       3       3       3
       3       3       3       3       3       3       3       3       3       3
       3       3       3       3       3       3       3       3       3       3
       3       3       3       3       3       3       3       3       3       3
       3       3       3       3       3       3       3       3       3       3
       3       3       3       3       3       3       3       3       3       3
       3       3       3       3       3       3       3       3       3       3
       3       3       3       3       3       3       3       3       3       3
       3       3       3       3       3       3       3       3       3       3
       3       3       3       3       3       3       3       3       3       3
       3       3       3       3       3       3       3       3       3       3
       3       3       3       3       3       3       3       3       3       3
       3       3       3       3       3       3       3       3       3       3
       3       3       3       3       3       3       3       3       3       3
       3       3       3       3       3       3       3       3       3       3
       3       3       3       3       3       3       3       3       3       3
       3       3       3       3       3       3       3       3       3       3
       3       3       3       3       3       3       3       3       3       3
       3       3       3       3       3       3       3       3       3       3
       3       3       3       3       3       3       3       3       3       3
       3       3       3       3       3       3       3       3       3       3
       3       3       3       3       3       3       3       3       3       3
       3       3       3       3       3       3       3       3       3       3
       3       3       3       3       3       3       3       3       3       3
       3       3       3       3       3       3       3       3       3       3
       3       3       3       3       3       3       3       3       3       3
       3       3       3       3       3       3       3       3       3       3
       3       3       3       3       3       3       3       3       3       3
       3       3       3       3       3       3       3       3       3       3
       3       3       3       3       3       3       3       3       3       3
       3       3       3       3       3       3       3       3       3       3
       3       3       3       3       3       3       3       3       3       3
       3       3       3       3       3       3       3       3       3       3
       3       3       3       3       3       3       3       3       3       3
       3       3       3       3       3       3       3       3       3       3
       3       3       3       3       3       3       3       3       3       3
       3       3       3       3       3       3       3       3       3       3
       3       3       3       3       3       3       3       3       3       3
       3       3       3       3       3       3       3       3       3       3
       3       3       3       3       3       3       3       3       3       3
       3       3       3       3       3       3       3       3       3       3
       3       3       3       3       3       3       3       3       3       3
       3       3       3       3       3       3       3       3       3       3
       3       3       3       3       3       3       3       3       3       3
       3       3       3       3       3       3       3       3       3       3
       3       3       3       3       3       3       3       3       3       3
       3       3       3       3       3       3       3       3       3       3
       3       3       3       3       3       3       3       3       3       3
       3       3       3       3       3       3       3       3       3       3
       3       3       3       3       3       3       3       3       3       3
       3       3       3       3       3       3       3       3       3       3
       3       3       3       3       3       3       3       3       3       3
       3       3       3       3       3       3       3       3       3       3
       3       3       3       3       3       3       3       3       3       3
       3       3       3       3       3       3       3       3       3       3
       3       3       3       3       3       3       3       3       3       3
       3       3       3       3       3       3       3       3       3       3
       3       3       3       3       3       3       3       3       3       3
       3       3       3       3       3       3       3       3       3       3
       3       3       3       3       3       3       3       3       3       3
       3       3       3       3       3       3       3       3       3       3
       3       3       3       3       3       3       3       3       3       3
       3       3       3       3       3       3       3       3       3       3
       3       3       3       3       3       3       3       3       3       3
       3       3       3       3       3       3       3       3       3       3
       3       3       3       3       3       3       3       3       3       3
       3       3       3       3       3       3       3       3       3       3
       3       3       3       3       3       3       3       3       3       3
       3       3       3       3       3       3       3       3       3       3
       3       3       3       3       3       3       3       3       3       3
       3       3       3       3       3       3       3       3       3       3
       3       3       3       3       3       3       3       3       3       3
       3       3       3       3       3       3       3       3       3       3
       3       3       3       3       3       3       3       3       3       3
       3       3       3       3       3       3       3       3       3       3
       3       3       3       3       3       3       3       3       3       3
       3       3       3       3       3       3       3       3       3       3
       3       3       3       3       3       3       3       3       3       3
       3       3       3       3       3       3       3       3       3       3
       3       3       3       3       3       3       3       3       3       3
       3       3       3       3       3       3       3       3       3       3
       3       3       3       3       3       3       3       3       3       3
       3       3       3       3       3       3       3       3       3       3
       3       3       3       3       3       3       3       3       3       3
       3       3       3       3       3       3       3       3       3       3
       3       3       3       3       3       3       3       3       3       3
       3       3       3       3       3       3       3       3       3       3
       3       3       3       3       3       3       3       3       3       3
       3       3       3       3       3       3       3       3       3       3
       3       3       3       3       3       3       3       3       3       3
       3       3       3       3       3       3       3       3       3       3
       3       3       3       3       3       3       3       3       3       3
       3       3       3       3       3       3       3       3       3       3
       3       3       3       3       3       3       3       3       3       3
       3       3       3       3       3       3       3       3       3       3
       3       3       3       3       3       3       3       3       3       3
       3       3       3       3       3       3       3       3       3       3
       3       3       3       3       3       3       3       3       3       3
       3       3       3       3       3       3       3       3       3       3
       3       3       3       3       3       3       3       3       3       3
       3       3       3       3       3       3       3       3       3       3
       3       3       3       3       3       3       3       3       3       3
       3       3       3       3       3       3       3       3       3       3
       3       3       3       3       3       3       3       3       3       3
       3       3       3       3       3       3       3       3       3       3
       3       3       3       3       3       3       3       3       3       3
       3       3       3       3       3       3       3       3       3       3
       3       3       3       3       3       3       3       3       3       3
       3       3       3       3       3       3       3       3       3       3
       3       3       3       3       3       3       3       3       3       3
       3       3       3       3       3       3       3       3       3       3
       3       3       3       3       3       3       3       3       3       3
       3       3       3       3       3       3       3       3       3       3
       3       3       3       3       3       3       3       3       3       3
       3       3       3       3       3       3       3       3       3       3
       3       3       3       3       3       3       3       3       3       3
       3       3       3       3       3       3       3       3       3       3
       3       3       3       3       3       3       3       3       3       3
       3       3       3       3       3       3       3       3       3       3
       3       3       3       3       3       3       3       3       3       3
       3       3       3       3       3       3       3       3       3       3
       3       3       3       3       3       3       3       3       3       3
       3       3       3       3       3       3       3       3       3       3
       3       3       3       3       3       3       3       3       3       3
       3       3       3       3       3       3       3       3       3       3
       3       3       3       3       3       3       3       3       3       3
       3       3       3       3       3       3       3       3       3       3
       3       3       3       3       3       3       3       3       3       3
       3       3       3       3       3       3       3       3       3       3
       3       3       3       3       3       3       3       3       3       3
       3       3       3       3       3       3       3       3       3       3
       3       3       3       3       3       3       3       3       3       3
       3       3       3       3       3       3       3       3       3       3
       3       3       3       3       3       3       3       3       3       3
       3       3       3       3       3       3       3       3       3       3
       3       3       3       3       3       3       3       3       3       3
       3       3       3       3       3       3       3       3       3       3
       3       3       3       3       3       3       3       3       3       3
       3       3       3       3       3       3       3       3       3       3
       3       3       3       3       3       3       3       3       3       3
       3       3       3       3       3       3       3       3       3       3
       3       3       3       3       3       3       3       3       3       3
       3       3       3       3       3       3       3       3       3       3
       3       3       3       3       3       3       3       3       3       3
       3       3       3       3       3       3       3       3       3       3
       3       3       3       3       3       3       3       3       3       3
       3       3       3       3       3       3       3       3       3       3
       3       3       3       3       3       3       3       3       3       3
       3       3       3       3       3       3       3       3       3       3
       3       3       3       3       3       3       3       3       3       3
       3       3       3       3       3       3       3       3       3       3
       3       3       3       3       3       3       3       3       3       3
       3       3       3       3       3       3       3       3       3       3
       3       3       3       3       3       3       3       3       3       3
       3       3       3       3       3       3       3       3       3       3
       3       3       3       3       3       3       3       3       3       3
       3       3       3       3       3       3       3       3       3       3
       3       3       3       3       3       3       3       3       3       3
       3       3       3       3       3       3       3       3       3       3
       3       3       3       3       3       3       3       3       3       3
       3       3       3       3       3       3       3       3       3       3
       3       3       3       3       3       3       3       3       3       3
       3       3       3       3       3       3       3       3       3       3
       3       3       3       3       3       3       3       3       3       3
       3       3       3       3       3       3       3       3       3       3
       3       3       3       3       3       3       3       3       3       3
       3       3       3       3       3       3       3       3       3       3
       3       3       3       3       3       3       3       3       3       3
       3       3       3       3       3       3       3       3       3       3
       3       3       3       3       3       3       3       3       3       3
       3       3       3       3       3       3       3       3       3       3
       3       3       3       3       3       3       3       3       3       3
       3       3       3       3       3       3       3       3       3       3
       3       3       3       3       3       3       3       3       3       3
       3       3       3       3       3       3       3       3       3       3
       3       3       3       3       3       3       3       3       3       3
       3       3       3       3       3       3       3       3       3       3
       3       3       3       3       3       3       3       3       3       3
       3       3       3       3       3       3       3       3       3       3
       3       3       3       3       3       3       3       3       3       3
       3       3       3       3       3       3       3       3       3       3
       3       3       3       3       3       3       3       3       3       3
       3       3       3       3       3       3       3       3       3       3
       3       3       3       3       3       3       3       3       3       3
       3       3       3       3       3       3       3       3       3       3
       3       3       3       3       3       3       3       3       3       3
       3       3       3       3       3       3       3       3       3       3
       3       3       3       3       3       3       3       3       3       3
       3       3       3       3       3       3       3       3       3       3
       3       3       3       3       3       3       3       3       3       3
       3       3       3       3       3       3       3       3       3       3
       3       3       3       3       3       3       3       3       3       3
       3       3       3       3       3       3       3       3       3       3
       3       3       3       3       3       3       3       3       3       3
       3       3       3       3       3       3       3       3       3       3
       3       3       3       3       3       3       3       3       3       3
       3       3       3       3       3       3       3       3       3       3
       3       3       3       3       3       3       3       3       3       3
       3       3       3       3       3       3       3       3       3       3
       3       3       3       3       3       3       3       3       3       3
       3       3       3       3       3       3       3       3       3       3
       3       3       3       3       3       3       3       3       3       3
       3       3       3       3       3       3       3       3       3       3
       3       3       3       3       3       3       3       3       3       3
       3       3       3       3       3       3       3       3       3       3
       3       3       3       3       3       3       3       3       3       3
       3       3       3       3       3       3       3       3       3       3
       3       3       3       3       3       3       3       3       3       3
       3       3       3       3       3       3       3       3       3       3
       3       3       3       3       3       3       3       3       3       3
       3       3       3       3       3       3       3       3       3       3
       3       3       3       3       3       3       3       3       3       3
       3       3       3       3       3       3       3       3       3       3
       3       3       3       3       3       3       3       3       3       3
       3       3       3       3       3       3       3       3       3       3
       3       3       3       3       3       3       3       3       3       3
       3       3       3       3       3       3       3       3       3       3
       3       3       3       3       3       3       3       3       3       3
       3       3       3       3       3       3       3       3       3       3
       3       3       3       3       3       3       3       3       3       3
       3       3       3       3       3       3       3       3       3       3
       3       3       3       3       3       3       3       3       3       3
       3       3       3       3       3       3       3       3       3       3
       3       3       3       3       3       3       3       3       3       3
       3       3       3       3       3       3       3       3       3       3
       3       3       3       3       3       3       3       3       3       3
       3       3       3       3       3       3       3       3       3       3
       3       3       3       3       3       3       3       3       3       3
       3       3       3       3       3       3       3       3       3       3
       3       3       3       3       3       3       3       3       3       3
       3       3       3       3       3       3       3       3       3       3
       3       3       3       3       3       3       3       3       3       3
       3       3       3       3       3       3       3       3       3       3
       3       3       3       3       3       3       3       3       3       3
       3       3       3       3       3       3       3       3       3       3
       3       3       3       3       3       3       3       3       3       3
       3       3       3       3       3       3       3       3       3       3
       3       3       3       3       3       3       3       3       3       3
       3       3       3       3       3       3       3       3       3       3
       3       3       3       3       3       3       3       3       3       3
       3       3       3       3       3       3       3       3       3       3
       3       3       3       3       3       3       3       3       3       3
       3       3       3       3       3       3       3       3       3       3
       3       3       3       3       3       3       3       3       3       3
       3       3       3       3       3       3       3       3       3       3
       3       3       3       3       3       3       3       3       3       3
       3       3       3       3       3       3       3       3       3       3
       3       3       3       3       3       3       3       3       3       3
       3       3       3       3       3       3       3       3       3       3
       3       3       3       3       3       3       3       3       3       3
       3       3       3       3       3       3       3       3       3       3
       3       3       3       3       3       3       3       3       3       3
       3       3       3       3       3       3       3       3       3       3
       3       3       3       3       3       3       3       3       3       3
       3       3       3       3       3       3       3       3       3       3
       3       3       3       3       3       3       3       3       3       3
       3       3       3       3       3       3       3       3       3       3
       3       3       3       3       3       3       3       3       3       3
       3       3       3       3       3       3       3       3       3       3
       3       3       3       3       3       3       3       3       3       3
       3       3       3       3       3       3       3       3       3       3
       3       3       3       3       3       3       3       3       3       3
       3       3       3       3       3       3       3       3       3       3
       3       3       3       3       3       3       3       3       3       3
       3       3       3       3       3       3       3       3       3       3
       3       3       3       3       3       3       3       3       3       3
       3       3       3       3       3       3       3       3       3       3
       3       3       3       3       3       3       3       3       3       3
       3       3       3       3       3       3       3       3       3       3
       3       3       3       3       3       3       3       3       3       3
       3       3       3       3       3       3       3       3       3       3
       3       3       3       3       3       3       3       3       3       3
       3       3       3       3       3       3       3       3       3       3
       3       3       3       3       3       3       3       3       3       3
       3       3       3       3       3       3       3       3       3       3
       3       3       3       3       3       3       3       3       3       3
       3       3       3       3       3       3       3       3       3       3
       3       3       3       3       3       3       3       3       3       3
       3       3       3       3       3       3       3       3       3       3
       3       3       3       3       3       3       3       3       3       3
       3       3       3       3       3       3       3       3       3       3
       3       3       3       3       3       3       3       3       3       3
       3       3       3       3       3       3       3       3       3       3
       3       3       3       3       3       3       3       3       3       3
       3       3       3       3       3       3       3       3       3       3
       3       3       3       3       3       3       3       3       3       3
       3       3       3       3       3       3       3       3       3       3
       3       3       3       3       3       3       3       3       3       3
       3       3       3       3       3       3       3       3       3       3
       3       3       3       3       3       3       3       3       3       3
       3       3       3       3       3       3       3       3       3       3
       3       3       3       3       3       3       3       3       3       3
       3       3       3       3       3       3       3       3       3       3
       3       3       3       3       3       3       3       3       3       3
       3       3       3       3       3       3       3       3       3       3
       3       3       3       3       3       3       3       3       3       3
       3       3       3       3       3       3       3       3       3       3
       3       3       3       3       3       3       3       3       3       3
       3       3       3       3       3       3       3       3       3       3
       3       3       3       3       3       3       3       3       3       3
       3       3       3       3       3       3       3       3       3       3
       3       3       3       3       3       3       3       3       3       3
       3       3       3       3       3       3       3       3       3       3
       3       3       3       3       3       3       3       3       3       3
       3       3       3       3       3       3       3       3       3       3
       3       3       3       3       3       3       3       3       3       3
       3       3       3       3       3       3       3       3       3       3
       3       3       3       3       3       3       3       3       3       3
       3       3       3       3       3       3       3       3       3       3
       3       3       3       3       3       3       3       3       3       3
       3       3       3       3       3       3       3       3       3       3
       3       3       3       3       3       3       3       3       3       3
       3       3       3       3       3       3       3       3       3       3
       3       3       3       3       3       3       3       3       3       3
       3       3       3       3       3       3       3       3       3       3
       3       3       3       3       3       3       3       3       3       3
       3       3       3       3       3       3       3       3       3       3
       3       3       3       3       3       3       3       3       3       3
       3       3       3       3       3       3       3       3       3       3
       3       3       3       3       3       3       3       3       3       3
       3       3       3       3       3       3       3       3       3       3
       3       3       3       3       3       3       3       3       3       3
       3       3       3       3       3       3       3       3       3       3
       3       3       3       3       3       3       3       3       3       3
       3       3       3       3       3       3       3       3       3       3
       3       3       3       3       3       3       3       3       3       3
       3       3       3       3       3       3       3       3       3       3
       3       3       3       3       3       3       3       3       3       3
       3       3       3       3       3       3       3       3       3       3
       3       3       3       3       3       3       3       3       3       3
       3       3       3       3       3       3       3       3       3       3
       3       3       3       3       3       3       3       3       3       3
       3       3       3       3       3       3       3       3       3       3
       3       3       3       3       3       3       3       3       3       3
       3       3       3       3       3       3       3       3       3       3
       3       3       3       3       3       3       3       3       3       3
       3       3       3       3       3       3       3       3       3       3
       3       3       3       3       3       3       3       3       3       3
       3       3       3       3       3       3       3       3       3       3
       3       3       3       3       3       3       3       3       3       3
       3       3       3       3       3       3       3       3       3       3
       3       3       3       3       3       3       3       3       3       3
       3       3       3       3       3       3       3       3       3       3
       3       3       3       3       3       3       3       3       3       3
       3       3       3       3       3       3       3       3       3       3
       3       3       3       3       3       3       3       3       3       3
       3       3       3       3       3       3       3       3       3       3
       3       3       3       3       3       3       3       3       3       3
       3       3       3       3       3       3       3       3       3       3
       3       3       3       3       3       3       3       3       3       3
       3       3       3       3       3       3       3       3       3       3
       3       3       3       3       3       3       3       3       3       3
       3       3       3       3       3       3       3       3       3       3
       3       3       3       3       3       3       3       3       3       3
       3       3       3       3       3       3       3       3       3       3
       3       3       3       3       3       3       3       3       3       3
       3       3       3       3       3       3       3       3       3       3
       3       3       3       3       3       3       3       3       3       3
       3       3       3       3       3       3       3       3       3       3
       3       3       3       3       3       3       3       3       3       3
       3       3       3       3       3       3       3       3       3       3
       3       3       3       3       3       3       3       3       3       3
       3       3       3       3       3       3       3       3       3       3
       3       3       3       3       3       3       3       3       3       3
       3       3       3       3       3       3       3       3       3       3
       3       3       3       3       3       3       3       3       3       3
       3       3       3       3       3       3       3       3       3       3
       3       3       3       3       3       3       3       3       3       3
       3       3       3       3       3       3       3       3       3       3
       3       3       3       3       3       3       3       3       3       3
       3       3       3       3       3       3       3       3       3       3
       3       3       3       3       3       3       3       3       3       3
       3       3       3       3       3       3       3       3       3       3
       3       3       3       3       3       3       3       3       3       3
       3       3       3       3       3       3       3       3       3       3
       3       3       3       3       3       3       3       3       3       3
       3       3       3       3       3       3       3       3       3       3
       3       3       3       3       3       3       3       3       3       3
       3       3       3       3       3       3       3       3       3       3
       3       3       3       3       3       3       3       3       3       3
       3       3       3       3       3       3       3       3       3       3
       3       3       3       3       3       3       3       3       3       3
       3       3       3       3       3       3       3       3       3       3
       3       3       3       3       3       3       3       3       3       3
       3       3       3       3       3       3       3       3       3       3
       3       3       3       3       3       3       3       3       3       3
       3       3       3       3       3       3       3       3       3       3
       3       3       3       3       3       3       3       3       3       3
       3       3       3       3       3       3       3       3       3       3
       3       3       3       3       3       3       3       3       3       3
       3       3       3       3       3       3       3       3       3       3
       3       3       3       3       3       3       3       3       3       3
       3       3       3       3       3       3       3       3       3       3
       3       3       3       3       3       3       3       3       3       3
       3       3       3       3       3       3       3       3       3       3
       3       3       3       3       3       3       3       3       3       3
       3       3       3       3       3       3       3       3       3       3
       3       3       3       3       3       3       3       3       3       3
       3       3       3       3       3       3       3       3       3       3
       3       3       3       3       3       3       3       3       3       3
       3       3       3       3       3       3       3       3       3       3
       3       3       3       3       3       3       3       3       3       3
       3       3       3       3       3       3       3       3       3       3
       3       3       3       3       3       3       3       3       3       3
       3       3       3       3       3       3       3       3       3       3
       3       3       3       3       3       3       3       3       3       3
       3       3       3       3       3       3       3       3       3       3
       3       3       3       3       3       3       3       3       3       3
       3       3       3       3       3       3       3       3       3       3
       3       3       3       3       3       3       3       3       3       3
       3       3       3       3       3       3       3       3       3       3
       3       3       3       3       3       3       3       3       3       3
       3       3       3       3       3       3       3       3       3       3
       3       3       3       3       3       3       3       3       3       3
       3       3       3       3       3       3       3       3       3       3
       3       3       3       3       3       3       3       3       3       3
       3       3       3       3       3       3       3       3       3       3
       3       3       3       3       3       3       3       3       3       3
       3       3       3       3       3       3       3       3       3       3
       3       3       3       3       3       3       3       3       3       3
       3       3       3       3       3       3       3       3       3       3
       3       3       3       3       3       3       3       3       3       3
       3       3       3       3       3       3       3       3       3       3
       3       3       3       3       3       3       3       3       3       3
       3       3       3       3       3       3       3       3       3       3
       3       3       3       3       3       3       3       3       3       3
       3       3       3       3       3       3       3       3       3       3
       3       3       3       3       3       3       3       3       3       3
       3       3       3       3       3       3       3       3       3       3
       3       3       3       3       3       3       3       3       3       3
       3       3       3       3       3       3       3       3       3       3
       3       3       3       3       3       3       3       3       3       3
       3       3       3       3       3       3       3       3       3       3
       3       3       3       3       3       3       3       3       3       3
       3       3       3       3       3       3       3       3       3       3
       3       3       3       3       3       3       3       3       3       3
       3       3       3       3       3       3       3       3       3       3
       3       3       3       3       3       3       3       3       3       3
       3       3       3       3       3       3       3       3       3       3
       3       3       3       3       3       3       3       3       3       3
       3       3       3       3       3       3       3       3       3       3
       3       3       3       3       3       3       3       3       3       3
       3       3       3       3       3       3       3       3       3       3
       3       3       3       3       3       3       3       3       3       3
       3       3       3       3       3       3       3       3       3       3
       3       3       3       3       3       3       3       3       3       3
       3       3       3       3       3       3       3       3       3       3
       3       3       3       3       3       3       3       3       3       3
       3       3       3       3       3       3       3       3       3       3
       3       3       3       3       3       3       3       3       3       3
       3       3       3       3       3       3       3       3       3       3
       3       3       3       3       3       3       3       3       3       3
       3       3       3       3       3       3       3       3       3       3
       3       3       3       3       3       3       3       3       3       3
       3       3       3       3       3       3       3       3       3       3
       3       3       3       3       3       3       3       3       3       3
       3       3       3       3       3       3       3       3       3       3
       3       3       3       3       3       3       3       3       3       3
       3       3       3       3       3       3       3       3       3       3
       3       3       3       3       3       3       3       3       3       3
       3       3       3       3       3       3       3       3       3       3
       3       3       3       3       3       3       3       3       3       3
       3       3       3       3       3       3       3       3       3       3
       3       3       3       3       3       3       3       3       3       3
       3       3       3       3       3       3       3       3       3       3
       3       3       3       3       3       3       3       3       3       3
       3       3       3       3       3       3       3       3       3       3
       3       3       3       3       3       3       3       3       3       3
       3       3       3       3       3       3       3       3       3       3
       3       3       3       3       3       3       3       3       3       3
       3       3       3       3       3       3       3       3       3       3
       3       3       3       3       3       3       3       3       3       3
       3       3       3       3       3       3       3       3       3       3
       3       3       3       3       3       3       3       3       3       3
       3       3       3       3       3       3       3       3       3       3
       3       3       3       3       3       3       3       3       3       3
       3       3       3       3       3       3       3       3       3       3
       3       3       3       3       3       3       3       3       3       3
       3       3       3       3       3       3       3       3       3       3
       3       3       3       3       3       3       3       3       3       3
       3       3       3       3       3       3       3       3       3       3
       3       3       3       3       3       3       3       3       3       3
       3       3       3       3       3       3       3       3       3       3
       3       3       3       3       3       3       3       3       3       3
       3       3       3       3       3       3       3       3       3       3
       3       3       3       3       3       3       3       3       3       3
       3       3       3       3       3       3       3       3       3       3
       3       3       3       3       3       3       3       3       3       3
       3       3       3       3       3       3       3       3       3       3
       3       3       3       3       3       3       3       3       3       3
       3       3       3       3       3       3       3       3       3       3
       3       3       3       3       3       3       3       3       3       3
       3       3       3       3       3       3       3       3       3       3
       3       3       3       3       3       3       3       3       3       3
       3       3       3       3       3       3       3       3       3       3
       3       3       3       3       3       3       3       3       3       3
       3       3       3       3       3       3       3       3       3       3
       3       3       3       3       3       3       3       3       3       3
       3       3       3       3       3       3       3       3       3       3
       3       3       3       3       3       3       3       3       3       3
       3       3       3       3       3       3       3       3       3       3
       3       3       3       3       3       3       3       3       3       3
       3       3       3       3       3       3       3       3       3       3
       3       3       3       3       3       3       3       3       3       3
       3       3       3       3       3       3       3       3       3       3
       3       3       3       3       3       3       3       3       3       3
       3       3       3       3       3       3       3       3       3       3
       3       3       3       3       3       3       3       3       3       3
       3       3       3       3       3       3       3       3       3       3
       3       3       3       3       3       3       3       3       3       3
       3       3       3       3       3       3       3       3       3       3
       3       3       3       3       3       3       3       3       3       3
       3       3       3       3       3       3       3       3       3       3
       3       3       3       3       3       3       3       3       3       3
       3       3       3       3       3       3       3       3       3       3
       3       3       3       3       3       3       3       3       3       3
       3       3       3       3       3       3       3       3       3       3
       3       3       3       3       3       3       3       3       3       3
       3       3       3       3       3       3       3       3       3       3
       3       3       3       3       3       3       3       3       3       3
       3       3       3       3       3       3       3       3       3       3
       3       3       3       3       3       3       3       3       3       3
       3       3       3       3       3       3       3       3       3       3
       3       3       3       3       3       3       3       3       3       3
       3       3       3       3       3       3       3       3       3       3
       3       3       3       3       3       3       3       3       3       3
       3       3       3       3       3       3       3       3       3       3
       3       3       3       3       3       3       3       3       3       3
       3       3       3       3       3       3       3       3       3       3
       3       3       3       3       3       3       3       3       3       3
       3       3       3       3       3       3       3       3       3       3
       3       3       3       3       3       3       3       3       3       3
       3       3       3       3       3       3       3       3       3       3
       3       3       3       3       3       3       3       3       3       3
       3       3       3       3       3       3       3       3       3       3
       3       3       3       3       3       3       3       3       3       3
       3       3       3       3       3       3       3       3       3       3
       3       3       3       3       3       3       3       3       3       3
       3       3       3       3       3       3       3       3       3       3
       3       3       3       3       3       3       3       3       3       3
       3       3       3       3       3       3       3       3       3       3
       3       3       3       3       3       3       3       3       3       3
       3       3       3       3       3       3       3       3       3       3
       3       3       3       3       3       3       3       3       3       3
       3       3       3       3       3       3       3       3       3       3
       3       3       3       3       3       3       3       3       3       3
       3       3       3       3       3       3       3       3       3       3
       3       3       3       3       3       3       3       3       3       3
       3       3       3       3       3       3       3       3       3       3
       3       3       3       3       3       3       3       3       3       3
       3       3       3       3       3       3       3       3       3       3
       3       3       3       3       3       3       3       3       3       3
       3       3       3       3       3       3       3       3       3       3
       3       3       3       3       3       3       3       3       3       3
       3       3       3       3       3       3       3       3       3       3
       3       3       3       3       3       3       3       3       3       3
       3       3       3       3       3       3       3       3       3       3
       3       3       3       3       3       3       3       3       3       3
       3       3       3       3       3       3       3       3       3       3
       3       3       3       3       3       3       3       3       3       3
       3       3       3       3       3       3       3       3       3       3
       3       3       3       3       3       3       3       3       3       3
       3       3       3       3       3       3       3       3       3       3
       3       3       3       3       3       3       3       3       3       3
       3       3       3       3       3       3       3       3       3       3
       3       3       3       3       3       3       3       3       3       3
       3       3       3       3       3       3       3       3       3       3
       3       3       3       3       3       3       3       3       3       3
       3       3       3       3       3       3       3       3       3       3
       3       3       3       3       3       3       3       3       3       3
       3       3       3       3       3       3       3       3       3       3
       3       3       3       3       3       3       3       3       3       3
       3       3       3       3       3       3       3       3       3       3
       3       3       3       3       3       3       3       3       3       3
       3       3       3       3       3       3       3       3       3       3
       3       3       3       3       3       3       3       3       3       3
       3       3       3       3       3       3       3       3       3       3
       3       3       3       3       3       3       3       3       3       3
       3       3       3       3       3       3       3       3       3       3
       3       3       3       3       3       3       3       3       3       3
       3       3       3       3       3       3       3       3       3       3
       3       3       3       3       3       3       3       3       3       3
       3       3       3       3       3       3       3       3       3       3
       3       3       3       3       3       3       3       3       3       3
       3       3       3       3       3       3       3       3       3       3
       3       3       3       3       3       3       3       3       3       3
       3       3       3       3       3       3       3       3       3       3
       3       3       3       3       3       3       3       3       3       3
       3       3       3       3       3       3       3       3       3       3
       3       3       3       3       3       3       3       3       3       3
       3       3       3       3       3       3       3       3       3       3
       3       3       3       3       3       3       3       3       3       3
       3       3       3       3       3       3       3       3       3       3
       3       3       3       3       3       3       3       3       3       3
       3       3       3       3       3       3       3       3       3       3
       3       3       3       3       3       3       3       3       3       3
       3       3       3       3       3       3       3       3       3       3
       3       3       3       3       3       3       3       3       3       3
       3       3       3       3       3       3       3       3       3       3
       3       3       3       3       3       3       3       3       3       3
       3       3       3       3       3       3       3       3       3       3
       3       3       3       3       3       3       3       3       3       3
       3       3       3       3       3       3       3       3       3       3
       3       3       3       3       3       3       3       3       3       3
       3       3       3       3       3       3       3       3       3       3
       3       3       3       3       3       3       3       3       3       3
       3       3       3       3       3       3       3       3       3       3
       3       3       3       3       3       3       3       3       3       3
       3       3       3       3       3       3       3       3       3       3
       3       3       3       3       3       3       3       3       3       3
       3       3       3       3       3       3       3       3       3       3
       3       3       3       3       3       3       3       3       3       3
       3       3       3       3       3       3       3       3       3       3
       3       3       3       3       3       3       3       3       3       3
       3       3       3       3       3       3       3       3       3       3
       3       3       3       3       3       3       3       3       3       3
       3       3       3       3       3       3       3       3       3       3
       3       3       3       3       3       3       3       3       3       3
       3       3       3       3       3       3       3       3       3       3
       3       3       3       3       3       3       3       3       3       3
       3       3       3       3       3       3       3       3       3       3
       3       3       3       3       3       3       3       3       3       3
       3       3       3       3       3       3       3       3       3       3
       3       3       3       3       3       3       3       3       3       3
       3       3       3       3       3       3       3       3       3       3
       3       3       3       3       3       3       3       3       3       3
       3       3       3       3       3       3       3       3       3       3
       3       3       3       3       3       3       3       3       3       3
       3       3       3       3       3       3       3       3       3       3
       3       3       3       3       3       3       3       3       3       3
       3       3       3       3       3       3       3       3       3       3
       3       3       3       3       3       3       3       3       3       3
       3       3       3       3       3       3       3       3       3       3
       3       3       3       3       3       3       3       3       3       3
       3       3       3       3       3       3       3       3       3       3
       3       3       3       3       3       3       3       3       3       3
       3       3       3       3       3       3       3       3       3       3
       3       3       3       3       3       3       3       3       3       3
       3       3       3       3       3       3       3       3       3       3
       3       3       3       3       3       3       3       3       3       3
       3       3       3       3       3       3       3       3       3       3
       3       3       3       3       3       3       3       3       3       3
       3       3       3       3       3       3       3       3       3       3
       3       3       3       3       3       3       3       3       3       3
       3       3       3       3       3       3       3       3       3       3
       3       3       3       3       3       3       3       3       3       3
       3       3       3       3       3       3       3       3       3       3
       3       3       3       3       3       3       3       3       3       3
       3       3       3       3       3       3       3       3       3       3
       3       3       3       3       3       3       3       3       3       3
       3       3       3       3       3       3       3       3       3       3
       3       3       3       3       3       3       3       3       3       3
       3       3       3       3       3       3       3       3       3       3
       3       3       3       3       3       3       3       3       3       3
       3       3       3       3       3       3       3       3       3       3
       3       3       3       3       3       3       3       3       3       3
       3       3       3       3       3       3       3       3       3       3
       3       3       3       3       3       3       3       3       3       3
       3       3       3       3       3       3       3       3       3       3
       3       3       3       3       3       3       3       3       3       3
       3       3       3       3       3       3       3       3       3       3
       3       3       3       3       3       3       3       3       3       3
       3       3       3       3       3       3       3       3       3       3
       3       3       3       3       3       3       3       3       3       3
       3       3       3       3       3       3       3       3       3       3
       3       3       3       3       3       3       3       3       3       3
       3       3       3       3       3       3       3       3       3       3
       3       3       3       3       3       3       3       3       3       3
       3       3       3       3       3       3       3       3       3       3
       3       3       3       3       3       3       3       3       3       3
       3       3       3       3       3       3       3       3       3       3
       3       3       3       3       3       3       3       3       3       3
       3       3       3       3       3       3       3       3       3       3
       3       3       3       3       3       3       3       3       3       3
       3       3       3       3       3       3       3       3       3       3
       3       3       3       3       3       3       3       3       3       3
       3       3       3       3       3       3       3       3       3       3
       3       3       3       3       3       3       3       3       3       3
       3       3       3       3       3       3       3       3       3       3
       3       3       3       3       3       3       3       3       3       3
       3       3       3       3       3       3       3       3       3       3
       3       3       3       3       3       3       3       3       3       3
       3       3       3       3       3       3       3       3       3       3
       3       3       3       3       3       3       3       3       3       3
       3       3       3       3       3       3       3       3       3       3
       3       3       3       3       3       3       3       3       3       3
       3       3       3       3       3       3       3       3       3       3
       3       3       3       3       3       3       3       3       3       3
       3       3       3       3       3       3       3       3       3       3
       3       3       3       3       3       3       3       3       3       3
       3       3       3       3       3       3       3       3       3       3
       3       3       3       3       3       3       3       3       3       3
       3       3       3       3       3       3       3       3       3       3
       3       3       3       3       3       3       3       3       3       3
       3       3       3       3       3       3       3       3       3       3
       3       3       3       3       3       3       3       3       3       3
       3       3       3       3       3       3       3       3       3       3
       3       3       3       3       3       3       3       3       3       3
       3       3       3       3       3       3       3       3       3       3
       3       3       3       3       3       3       3       3       3       3
       3       3       3       3       3       3       3       3       3       3
       3       3       3       3       3       3       3       3       3       3
       3       3       3       3       3       3       3       3       3       3
       3       3       3       3       3       3       3       3       3       3
       3       3       3       3       3       3       3       3       3       3
       3       3       3       3       3       3       3       3       3       3
       3       3       3       3       3       3       3       3       3       3
       3       3       3       3       3       3       3       3       3       3
       3       3       3       3       3       3       3       3       3       3
       3       3       3       3       3       3       3       3       3       3
       3       3       3       3       3       3       3       3       3       3
       3       3       3       3       3       3       3       3       3       3
       3       3       3       3       3       3       3       3       3       3
       3       3       3       3       3       3       3       3       3       3
       3       3       3       3       3       3       3       3       3       3
       3       3       3       3       3       3       3       3       3       3
       3       3       3       3       3       3       3       3       3       3
       3       3       3       3       3       3       3       3       3       3
       3       3       3       3       3       3       3       3       3       3
       3       3       3       3       3       3       3       3       3       3
       3       3       3       3       3       3       3       3       3       3
       3       3       3       3       3       3       3       3       3       3
       3       3       3       3       3       3       3       3       3       3
       3       3       3       3       3       3       3       3       3       3
       3       3       3       3       3       3       3       3       3       3
       3       3       3       3       3       3       3       3       3       3
       3       3       3       3       3       3       3       3       3       3
       3       3       3       3       3       3       3       3       3       3
       3       3       3       3       3       3       3       3       3       3
       3       3       3       3       3       3       3       3       3       3
       3       3       3       3       3       3       3       3       3       3
       3       3       3       3       3       3       3       3       3       3
       3       3       3       3       3       3       3       3       3       3
       3       3       3       3       3       3       3       3       3       3
       3       3       3       3       3       3       3       3       3       3
       3       3       3       3       3       3       3       3       3       3
       3       3       3       3       3       3       3       3       3       3
       3       3       3       3       3       3       3       3       3       3
       3       3       3       3       3       3       3       3       3       3
       3       3       3       3       3       3       3       3       3       3
       3       3       3       3       3       3       3       3       3       3
       3       3       3       3       3       3       3       3       3       3
       3       3       3       3       3       3       3       3       3       3
       3       3       3       3       3       3       3       3       3       3
       3       3       3       3       3       3       3       3       3       3
       3       3       3       3       3       3       3       3       3       3
       3       3       3       3       3       3       3       3       3       3
       3       3       3       3       3       3       3       3       3       3
       3       3       3       3       3       3       3       3       3       3
       3       3       3       3       3       3       3       3       3       3
       3       3       3       3       3       3       3       3       3       3
       3       3       3       3       3       3       3       3       3       3
       3       3       3       3       3       3       3       3       3       3
       3       3       3       3       3       3       3       3       3       3
       3       3       3       3       3       3       3       3       3       3
       3       3       3       3       3       3       3       3       3       3
       3       3       3       3       3       3       3       3       3       3
       3       3       3       3       3       3       3       3       3       3
       3       3       3       3       3       3       3       3       3       3
       3       3       3       3       3       3       3       3       3       3
       3       3       3       3       3       3       3       3       3       3
       3       3       3       3       3       3       3       3       3       3
       3       3       3       3       3       3       3       3       3       3
       3       3       3       3       3       3       3       3       3       3
       3       3       3       3       3       3       3       3       3       3
       3       3       3       3       3       3       3       3       3       3
       3       3       3       3       3       3       3       3       3       3
       3       3       3       3       3       3       3       3       3       3
       3       3       3       3       3       3       3       3       3       3
       3       3       3       3       3       3       3       3       3       3
       3       3       3       3       3       3       3       3       3       3
       3       3       3       3       3       3       3       3       3       3
       3       3       3       3       3       3       3       3       3       3
       3       3       3       3       3       3       3       3       3       3
       3       3       3       3       3       3       3       3       3       3
       3       3       3       3       3       3       3       3       3       3
       3       3       3       3       3       3       3       3       3       3
       3       3       3       3       3       3       3       3       3       3
       3       3       3       3       3       3       3       3       3       3
       3       3       3       3       3       3       3       3       3       3
       3       3       3       3       3       3       3       3       3       3
       3       3       3       3       3       3       3       3       3       3
       3       3       3       3       3       3       3       3       3       3
       3       3       3       3       3       3       3       3       3       3
       3       3       3       3       3       3       3       3       3       3
       3       3       3       3       3       3       3       3       3       3
       3       3       3       3       3       3       3       3       3       3
       3       3       3       3       3       3       3       3       3       3
       3       3       3       3       3       3       3       3       3       3
       3       3       3       3       3       3       3       3       3       3
       3       3       3       3       3       3       3       3       3       3
       3       3       3       3       3       3       3       3       3       3
       3       3       3       3       3       3       3       3       3       3
       3       3       3       3       3       3       3       3       3       3
       3       3       3       3       3       3       3       3       3       3
       3       3       3       3       3       3       3       3       3       3
       3       3       3       3       3       3       3       3       3       3
       3       3       3       3       3       3       3       3       3       3
       3       3       3       3       3       3       3       3       3       3
       3       3       3       3       3       3       3       3       3       3
       3       3       3       3       3       3       3       3       3       3
       3       3       3       3       3       3       3       3       3       3
       3       3       3       3       3       3       3       3       3       3
       3       3       3       3       3       3       3       3       3       3
       3       3       3       3       3       3       3       3       3       3
       3       3       3       3       3       3       3       3       3       3
       3       3       3       3       3       3       3       3       3       3
       3       3       3       3       3       3       3       3       3       3
       3       3       3       3       3       3       3       3       3       3
       3       3       3       3       3       3       3       3       3       3
       3       3       3       3       3       3       3       3       3       3
       3       3       3       3       3       3       3       3       3       3
       3       3       3       3       3       3       3       3       3       3
       3       3       3       3       3       3       3       3       3       3
       3       3       3       3       3       3       3       3       3       3
       3       3       3       3       3       3       3       3       3       3
       3       3       3       3       3       3       3       3       3       3
       3       3       3       3       3       3       3       3       3       3
       3       3       3       3       3       3       3       3       3       3
       3       3       3       3       3       3       3       3       3       3
       3       3       3       3       3       3       3       3       3       3
       3       3       3       3       3       3       3       3       3       3
       3       3       3       3       3       3       3       3       3       3
       3       3       3       3       3       3       3       3       3       3
       3       3       3       3       3       3       3       3       3       3
       3       3       3       3       3       3       3       3       3       3
       3       3       3       3       3       3       3       3       3       3
       3       3       3       3       3       3       3       3       3       3
       3       3       3       3       3       3       3       3       3       3
       3       3       3       3       3       3       3       3       3       3
       3       3       3       3       3       3       3       3       3       3
       3       3       3       3       3       3       3       3       3       3
       3       3       3       3       3       3       3       3       3       3
       3       3       3       3       3       3       3       3       3       3
       3       3       3       3       3       3       3       3       3       3
       3       3       3       3       3       3       3       3       3       3
       3       3       3       3       3       3       3       3       3       3
       3       3       3       3       3       3       3       3       3       3
       3       3       3       3       3       3       3       3       3       3
       3       3       3       3       3       3       3       3       3       3
       3       3       3       3       3       3       3       3       3       3
       3       3       3       3       3       3       3       3       3       3
       3       3       3       3       3       3       3       3       3       3
       3       3       3       3       3       3       3       3       3       3
       3       3       3       3       3       3       3       3       3       3
       3       3       3       3       3       3       3       3       3       3
       3       3       3       3       3       3       3       3       3       3
       3       3       3       3       3       3       3       3       3       3
       3       3       3       3       3       3       3       3       3       3
       3       3       3       3       3       3       3       3       3       3
       3       3       3       3       3       3       3       3       3       3
       3       3       3       3       3       3       3       3       3       3
       3       3       3       3       3       3       3       3       3       3
       3       3       3       3       3       3       3       3       3       3
       3       3       3       3       3       3       3       3       3       3
       3       3       3       3       3       3       3       3       3       3
       3       3       3       3       3       3       3       3       3       3
       3       3       3       3       3       3       3       3       3       3
       3       3       3       3       3       3       3       3       3       3
       3       3       3       3       3       3       3       3       3       3
       3       3       3       3       3       3       3       3       3       3
       3       3       3       3       3       3       3       3       3       3
       3       3       3       3       3       3       3       3       3       3
       3       3       3       3       3       3       3       3       3       3
       3       3       3       3       3       3       3       3       3       3
       3       3       3       3       3       3       3       3       3       3
       3       3       3       3       3       3       3       3       3       3
       3       3       3       3       3       3       3       3       3       3
       3       3       3       3       3       3       3       3       3       3
       3       3       3       3       3       3       3       3       3       3
       3       3       3       3       3       3       3       3       3       3
       3       3       3       3       3       3       3       3       3       3
       3       3       3       3       3       3       3       3       3       3
       3       3       3       3       3       3       3       3       3       3
       3       3       3       3       3       3       3       3       3       3
       3       3       3       3       3       3       3       3       3       3
       3       3       3       3       3       3       3       3       3       3
       3       3       3       3       3       3       3       3       3       3
       3       3       3       3       3       3       3       3       3       3
       3       3       3       3       3       3       3       3       3       3
       3       3       3       3       3       3       3       3       3       3
       3       3       3       3       3       3       3       3       3       3
       3       3       3       3       3       3       3       3       3       3
       3       3       3       3       3       3       3       3       3       3
       3       3       3       3       3       3       3       3       3       3
       3       3       3       3       3       3       3       3       3       3
       3       3       3       3       3       3       3       3       3       3
       3       3       3       3       3       3       3       3       3       3
       3       3       3       3       3       3       3       3       3       3
       3       3       3       3       3       3       3       3       3       3
       3       3       3       3       3       3       3       3       3       3
       3       3       3       3       3       3       3       3       3       3
       3       3       3       3       3       3       3       3       3       3
       3       3       3       3       3       3       3       3       3       3
       3       3       3       3       3       3       3       3       3       3
       3       3       3       3       3       3       3       3       3       3
       3       3       3       3       3       3       3       3       3       3
       3       3       3       3       3       3       3       3       3       3
       3       3       3       3       3       3       3       3       3       3
       3       3       3       3       3       3       3       3       3       3
       3       3       3       3       3       3       3       3       3       3
       3       3       3       3       3       3       3       3       3       3
       3       3       3       3       3       3       3       3       3       3
       3       3       3       3       3       3       3       3       3       3
       3       3       3       3       3       3       3       3       3       3
       3       3       3       3       3       3       3       3       3       3
       3       3       3       3       3       3       3       3       3       3
       3       3       3       3       3       3       3       3       3       3
       3       3       3       3       3       3       3       3       3       3
       3       3       3       3       3       3       3       3       3       3
       3       3       3       3       3       3       3       3       3       3
       3       3       3       3       3       3       3       3       3       3
       3       3       3       3       3       3       3       3       3       3
       3       3       3       3       3       3       3       3       3       3
       3       3       3       3       3       3       3       3       3       3
       3       3       3       3       3       3       3       3       3       3
       3       3       3       3       3       3       3       3       3       3
       3       3       3       3       3       3       3       3       3       3
       3       3       3       3       3       3       3       3       3       3
       3       3       3       3       3       3       3       3       3       3
       3       3       3       3       3       3       3       3       3       3
       3       3       3       3       3       3       3       3       3       3
       3       3       3       3       3       3       3       3       3       3
       3       3       3       3       3       3       3       3       3       3
       3       3       3       3       3       3       3       3       3       3
       3       3       3       3       3       3       3       3       3       3
       3       3       3       3       3       3       3       3       3       3
       3       3       3       3       3       3       3       3       3       3
       3       3       3       3       3       3       3       3       3       3
       3       3       3       3       3       3       3       3       3       3
       3       3       3       3       3       3       3       3       3       3
       3       3       3       3       3       3       3       3       3       3
       3       3       3       3       3       3       3       3       3       3
       3       3       3       3       3       3       3       3       3       3
       3       3       3       3       3       3       3       3       3       3
       3       3       3       3       3       3       3       3       3       3
       3       3       3       3       3       3       3       3       3       3
       3       3       3       3       3       3       3       3       3       3
       3       3       3       3       3       3       3       3       3       3
       3       3       3       3       3       3       3       3       3       3
       3       3       3       3       3       3       3       3       3       3
       3       3       3       3       3       3       3       3       3       3
       3       3       3       3       3       3       3       3       3       3
       3       3       3       3       3       3       3       3       3       3
       3       3       3       3       3       3       3       3       3       3
       3       3       3       3       3       3       3       3       3       3
       3       3       3       3       3       3       3       3       3       3
       3       3       3       3       3       3       3       3       3       3
       3       3       3       3       3       3       3       3       3       3
       3       3       3       3       3       3       3       3       3       3
       3       3       3       3       3       3       3       3       3       3
       3       3       3       3       3       3       3       3       3       3
       3       3       3       3       3       3       3       3       3       3
       3       3       3       3       3       3       3       3       3       3
       3       3       3       3       3       3       3       3       3       3
       3       3       3       3       3       3       3       3       3       3
       3       3       3       3       3       3       3       3       3       3
       3       3       3       3       3       3       3       3       3       3
       3       3       3       3       3       3       3       3       3       3
       3       3       3       3       3       3       3       3       3       3
       3       3       3       3       3       3       3       3       3       3
       3       3       3       3       3       3       3       3       3       3
       3       3       3       3       3       3       3       3       3       3
       3       3       3       3       3       3       3       3       3       3
       3       3       3       3       3       3       3       3       3       3
       3       3       3       3       3       3       3       3       3       3
       3       3       3       3       3       3       3       3       3       3
       3       3       3       3       3       3       3       3       3       3
       3       3       3       3       3       3       3       3       3       3
       3       3       3       3       3       3       3       3       3       3
       3       3       3       3       3       3       3       3       3       3
       3       3       3       3       3       3       3       3       3       3
       3       3       3       3       3       3       3       3       3       3
       3       3       3       3       3       3       3       3       3       3
       3       3       3       3       3       3       3       3       3       3
       3       3       3       3       3       3       3       3       3       3
       3       3       3       3       3       3       3       3       3       3
       3       3       3       3       3       3       3       3       3       3
       3       3       3       3       3       3       3       3       3       3
       3       3       3       3       3       3       3       3       3       3
       3       3       3       3       3       3       3       3       3       3
       3       3       3       3       3       3       3       3       3       3
       3       3       3       3       3       3       3       3       3       3
       3       3       3       3       3       3       3       3       3       3
       3       3       3       3       3       3       3       3       3       3
       3       3       3       3       3       3       3       3       3       3
       3       3       3       3       3       3       3       3       3       3
       3       3       3       3       3       3       3       3       3       3
       3       3       3       3       3       3       3       3       3       3
       3       3       3       3       3       3       3       3       3       3
       3       3       3       3       3       3       3       3       3       3
       3       3       3       3       3       3       3       3       3       3
       3       3       3       3       3       3       3       3       3       3
       3       3       3       3       3       3       3       3       3       3
       3       3       3       3       3       3       3       3       3       3
       3       3       3       3       3       3       3       3       3       3
       3       3       3       3       3       3       3       3       3       3
       3       3       3       3       3       3       3       3       3       3
       3       3       3       3       3       3       3       3       3       3
       3       3       3       3       3       3       3       3       3       3
       3       3       3       3       3       3       3       3       3       3
       3       3       3       3       3       3       3       3       3       3
       3       3       3       3       3       3       3       3       3       3
       3       3       3       3       3       3       3       3       3       3
       3       3       3       3       3       3       3       3       3       3
       3       3       3       3       3       3       3       3       3       3
       3       3       3       3       3       3       3       3       3       3
       3       3       3       3       3       3       3       3       3       3
       3       3       3       3       3       3       3       3       3       3
       3       3       3       3       3       3       3       3       3       3
       3       3       3       3       3       3       3       3       3       3
       3       3       3       3       3       3       3       3       3       3
       3       3       3       3       3       3       3       3       3       3
       3       3       3       3       3       3       3       3       3       3
       3       3       3       3       3       3       3       3       3       3
       3       3       3       3       3       3       3       3       3       3
       3       3       3       3       3       3       3       3       3       3
       3       3       3       3       3       3       3       3       3       3
       3       3       3       3       3       3       3       3       3       3
       3       3       3       3       3       3       3       3       3       3
       3       3       3       3       3       3       3       3       3       3
       3       3       3       3       3       3       3       3       3       3
       3       3       3       3       3       3       3       3       3       3
       3       3       3       3       3       3       3       3       3       3
       3       3       3       3       3       3       3       3       3       3
       3       3       3       3       3       3       3       3       3       3
       3       3       3       3       3       3       3       3       3       3
       3       3       3       3       3       3       3       3       3       3
       3       3       3       3       3       3       3       3       3       3
       3       3       3       3       3       3       3       3       3       3
       3       3       3       3       3       3       3       3       3       3
       3       3       3       3       3       3       3       3       3       3
       3       3       3       3       3       3       3       3       3       3
       3       3       3       3       3       3       3       3       3       3
       3       3       3       3       3       3       3       3       3       3
       3       3       3       3       3       3       3       3       3       3
       3       3       3       3       3       3       3       3       3       3
       3       3       3       3       3       3       3       3       3       3
       3       3       3       3       3       3       3       3       3       3
       3       3       3       3       3       3       3       3       3       3
       3       3       3       3       3       3       3       3       3       3
       3       3       3       3       3       3       3       3       3       3
       3       3       3       3       3       3       3       3       3       3
       3       3       3       3       3       3       3       3       3       3
       3       3       3       3       3       3       3       3       3       3
       3       3       3       3       3       3       3       3       3       3
       3       3       3       3       3       3       3       3       3       3
       3       3       3       3       3       3       3       3       3       3
       3       3       3       3       3       3       3       3       3       3
       3       3       3       3       3       3       3       3       3       3
       3       3       3       3       3       3       3       3       3       3
       3       3       3       3       3       3       3       3       3       3
       3       3       3       3       3       3       3       3       3       3
       3       3       3       3       3       3       3       3       3       3
       3       3       3       3       3       3       3       3       3       3
       3       3       3       3       3       3       3       3       3       3
       3       3       3       3       3       3       3       3       3       3
       3       3       3       3       3       3       3       3       3       3
       3       3       3       3       3       3       3       3       3       3
       3       3       3       3       3       3       3       3       3       3
       3       3       3       3       3       3       3       3       3       3
       3       3       3       3       3       3       3       3       3       3
       3       3       3       3       3       3       3       3       3       3
       3       3       3       3       3       3       3       3       3       3
       3       3       3       3       3       3       3       3       3       3
       3       3       3       3       3       3       3       3       3       3
       3       3       3       3       3       3       3       3       3       3
       3       3       3       3       3       3       3       3       3       3
       3       3       3       3       3       3       3       3       3       3
       3       3       3       3       3       3       3       3       3       3
       3       3       3       3       3       3       3       3       3       3
       3       3       3       3       3       3       3       3       3       3
       3       3       3       3       3       3       3       3       3       3
       3       3       3       3       3       3       3       3       3       3
       3       3       3       3       3       3       3       3       3       3
       3       3       3       3       3       3       3       3       3       3
       3       3       3       3       3       3       3       3       3       3
       3       3       3       3       3       3       3       3       3       3
       3       3       3       3       3       3       3       3       3       3
       3       3       3       3       3       3       3       3       3       3
       3       3       3       3       3       3       3       3       3       3
       3       3       3       3       3       3       3       3       3       3
       3       3       3       3       3       3       3       3       3       3
       3       3       3       3       3       3       3       3       3       3
       3       3       3       3       3       3       3       3       3       3
       3       3       3       3       3       3       3       3       3       3
       3       3       3       3       3       3       3       3       3       3
       3       3       3       3       3       3       3       3       3       3
       3       3       3       3       3       3       3       3       3       3
       3       3       3       3       3       3       3       3       3       3
       3       3       3       3       3       3       3       3       3       3
       3       3       3       3       3       3       3       3       3       3
       3       3       3       3       3       3       3       3       3       3
       3       3       3       3       3       3       3       3       3       3
       3       3       3       3       3       3       3       3       3       3
       3       3       3       3       3       3       3       3       3       3
       3       3       3       3       3       3       3       3       3       3
       3       3       3       3       3       3       3       3       3       3
       3       3       3       3       3       3       3       3       3       3
       3       3       3       3       3       3       3       3       3       3
       3       3       3       3       3       3       3       3       3       3
       3       3       3       3       3       3       3       3       3       3
       3       3       3       3       3       3       3       3       3       3
       3       3       3       3       3       3       3       3       3       3
       3       3       3       3       3       3       3       3       3       3
       3       3       3       3       3       3       3       3       3       3
       3       3       3       3       3       3       3       3       3       3
       3       3       3       3       3       3       3       3       3       3
       3       3       3       3       3       3       3       3       3       3
       3       3       3       3       3       3       3       3       3       3
       3       3       3       3       3       3       3       3       3       3
       3       3       3       3       3       3       3       3       3       3
       3       3       3       3       3       3       3       3       3       3
       3       3       3       3       3       3       3       3       3       3
       3       3       3       3       3       3       3       3       3       3
       3       3       3       3       3       3       3       3       3       3
       3       3       3       3       3       3       3       3       3       3
       3       3       3       3       3       3       3       3       3       3
       3       3       3       3       3       3       3       3       3       3
       3       3       3       3       3       3       3       3       3       3
       3       3       3       3       3       3       3       3       3       3
       3       3       3       3       3       3       3       3       3       3
       3       3       3       3       3       3       3       3       3       3
       3       3       3       3       3       3       3       3       3       3
       3       3       3       3       3       3       3       3       3       3
       3       3       3       3       3       3       3       3       3       3
       3       3       3       3       3       3       3       3       3       3
       3       3       3       3       3       3       3       3       3       3
       3       3       3       3       3       3       3       3       3       3
       3       3       3       3       3       3       3       3       3       3
       3       3       3       3       3       3       3       3       3       3
       3       3       3       3       3       3       3       3       3       3
       3       3       3       3       3       3       3       3       3       3
       3       3       3       3       3       3       3       3       3       3
       3       3       3       3       3       3       3       3       3       3
       3       3       3       3       3       3       3       3       3       3
       3       3       3       3       3       3       3       3       3       3
       3       3       3       3       3       3       3       3       3       3
       3       3       3       3       3       3       3       3       3       3
       3       3       3       3       3       3       3       3       3       3
       3       3       3       3       3       3       3       3       3       3
       3       3       3       3       3       3       3       3       3       3
       3       3       3       3       3       3       3       3       3       3
       3       3       3       3       3       3       3       3       3       3
       3       3       3       3       3       3       3       3       3       3
       3       3       3       3       3       3       3       3       3       3
       3       3       3       3       3       3       3       3       3       3
       3       3       3       3       3       3       3       3       3       3
       3       3       3       3       3       3       3       3       3       3
       3       3       3       3       3       3       3       3       3       3
       3       3       3       3       3       3       3       3       3       3
       3       3       3       3       3       3       3       3       3       3
       3       3       3       3       3       3       3       3       3       3
       3       3       3       3       3       3       3       3       3       3
       3       3       3       3       3       3       3       3       3       3
       3       3       3       3       3       3       3       3       3       3
       3       3       3       3       3       3       3       3       3       3
       3       3       3       3       3       3       3       3       3       3
       3       3       3       3       3       3       3       3       3       3
       3       3       3       3       3       3       3       3       3       3
       3       3       3       3       3       3       3       3       3       3
       3       3       3       3       3       3       3       3       3       3
       3       3       3       3       3       3       3       3       3       3
       3       3       3       3       3       3       3       3       3       3
       3       3       3       3       3       3       3       3       3       3
       3       3       3       3       3       3       3       3       3       3
       3       3       3       3       3       3       3       3       3       3
       3       3       3       3       3       3       3       3       3       3
       3       3       3       3       3       3       3       3       3       3
       3       3       3       3       3       3       3       3       3       3
       3       3       3       3       3       3       3       3       3       3
       3       3       3       3       3       3       3       3       3       3
       3       3       3       3       3       3       3       3       3       3
       3       3       3       3       3       3       3       3       3       3
       3       3       3       3       3       3       3       3       3       3
       3       3       3       3       3       3       3       3       3       3
       3       3       3       3       3       3       3       3       3       3
       3       3       3       3       3       3       3       3       3       3
       3       3       3       3       3       3       3       3       3       3
       3       3       3       3       3       3       3       3       3       3
       3       3       3       3       3       3       3       3       3       3
       3       3       3       3       3       3       3       3       3       3
       3       3       3       3       3       3       3       3       3       3
       3       3       3       3       3       3       3       3       3       3
       3       3       3       3       3       3       3       3       3       3
       3       3       3       3       3       3       3       3       3       3
       3       3       3       3       3       3       3       3       3       3
       3       3       3       3       3       3       3       3       3       3
       3       3       3       3       3       3       3       3       3       3
       3       3       3       3       3       3       3       3       3       3
       3       3       3       3       3       3       3       3       3       3
       3       3       3       3       3       3       3       3       3       3
       3       3       3       3       3       3       3       3       3       3
       3       3       3       3       3       3       3       3       3       3
       3       3       3       3       3       3       3       3       3       3
       3       3       3       3       3       3       3       3       3       3
       3       3       3       3       3       3       3       3       3       3
       3       3       3       3       3       3       3       3       3       3
       3       3       3       3       3       3       3       3       3       3
       3       3       3       3       3       3       3       3       3       3
       3       3       3       3       3       3       3       3       3       3
       3       3       3       3       3       3       3       3       3       3
       3       3       3       3       3       3       3       3       3       3
       3       3       3       3       3       3       3       3       3       3
       3       3       3       3       3       3       3       3       3       3
       3       3       3       3       3       3       3       3       3       3
       3       3       3       3       3       3       3       3       3       3
       3       3       3       3       3       3       3       3       3       3
       3       3       3       3       3       3       3       3       3       3
       3       3       3       3       3       3       3       3       3       3
       3       3       3       3       3       3       3       3       3       3
       3       3       3       3       3       3       3       3       3       3
       3       3       3       3       3       3       3       3       3       3
       3       3       3       3       3       3       3       3       3       3
       3       3       3       3       3       3       3       3       3       3
       3       3       3       3       3       3       3       3       3       3
       3       3       3       3       3       3       3       3       3       3
       3       3       3       3       3       3       3       3       3       3
       3       3       3       3       3       3       3       3       3       3
       3       3       3       3       3       3       3       3       3       3
       3       3       3       3       3       3       3       3       3       3
       3       3       3       3       3       3       3       3       3       3
       3       3       3       3       3       3       3       3       3       3
       3       3       3       3       3       3       3       3       3       3
       3       3       3       3       3       3       3       3       3       3
       3       3       3       3       3       3       3       3       3       3
       3       3       3       3       3       3       3       3       3       3
       3       3       3       3       3       3       3       3       3       3
       3       3       3       3       3       3       3       3       3       3
       3       3       3       3       3       3       3       3       3       3
       3       3       3       3       3       3       3       3       3       3
       3       3       3       3       3       3       3       3       3       3
       3       3       3       3       3       3       3       3       3       3
       3       3       3       3       3       3       3       3       3       3
       3       3       3       3       3       3       3       3       3       3
       3       3       3       3       3       3       3       3       3       3
       3       3       3       3       3       3       3       3       3       3
       3       3       3       3       3       3       3       3       3       3
       3       3       3       3       3       3       3       3       3       3
       3       3       3       3       3       3       3       3       3       3
       3       3       3       3       3       3       3       3       3       3
       3       3       3       3       3       3       3       3       3       3
       3       3       3       3       3       3       3       3       3       3
       3       3       3       3       3       3       3       3       3       3
       3       3       3       3       3       3       3       3       3       3
       3       3       3       3       3       3       3       3       3       3
       3       3       3       3       3       3       3       3       3       3
       3       3       3       3       3       3       3       3       3       3
       3       3       3       3       3       3       3       3       3       3
       3       3       3       3       3       3       3       3       3       3
       3       3       3       3       3       3       3       3       3       3
       3       3       3       3       3       3       3       3       3       3
       3       3       3       3       3       3       3       3       3       3
       3       3       3       3       3       3       3       3       3       3
       3       3       3       3       3       3       3       3       3       3
       3       3       3       3       3       3       3       3       3       3
       3       3       3       3       3       3       3       3       3       3
       3       3       3       3       3       3       3       3       3       3
       3       3       3       3       3       3       3       3       3       3
       3       3       3       3       3       3       3       3       3       3
       3       3       3       3       3       3       3       3       3       3
       3       3       3       3       3       3       3       3       3       3
       3       3       3       3       3       3       3       3       3       3
       3       3       3       3       3       3       3       3       3       3
       3       3       3       3       3       3       3       3       3       3
       3       3       3       3       3       3       3       3       3       3
       3       3       3       3       3       3       3       3       3       3
       3       3       3       3       3       3       3       3       3       3
       3       3       3       3       3       3       3       3       3       3
       3       3       3       3       3       3       3       3       3       3
       3       3       3       3       3       3       3       3       3       3
       3       3       3       3       3       3       3       3       3       3
       3       3       3       3       3       3       3       3       3       3
       3       3       3       3       3       3       3       3       3       3
       3       3       3       3       3       3       3       3       3       3
       3       3       3       3       3       3       3       3       3       3
       3       3       3       3       3       3       3       3       3       3
       3       3       3       3       3       3       3       3       3       3
       3       3       3       3       3       3       3       3       3       3
       3       3       3       3       3       3       3       3       3       3
       3       3       3       3       3       3       3       3       3       3
       3       3       3       3       3       3       3       3       3       3
       3       3       3       3       3       3       3       3       3       3
       3       3       3       3       3       3       3       3       3       3
       3       3       3       3       3       3       3       3       3       3
       3       3       3       3       3       3       3       3       3       3
       3       3       3       3       3       3       3       3       3       3
       3       3       3       3       3       3       3       3       3       3
       3       3       3       3       3       3       3       3       3       3
       3       3       3       3       3       3       3       3       3       3
       3       3       3       3       3       3       3       3       3       3
       3       3       3       3       3       3       3       3       3       3
       3       3       3       3       3       3       3       3       3       3
       3       3       3       3       3       3       3       3       3       3
       3       3       3       3       3       3       3       3       3       3
       3       3       3       3       3       3       3       3       3       3
       3       3       3       3       3       3       3       3       3       3
       3       3       3       3       3       3       3       3       3       3
       3       3       3       3       3       3       3       3       3       3
       3       3       3       3       3       3       3       3       3       3
       3       3       3       3       3       3       3       3       3       3
       3       3       3       3       3       3       3       3       3       3
       3       3       3       3       3       3       3       3       3       3
       3       3       3       3       3       3       3       3       3       3
       3       3       3       3       3       3       3       3       3       3
       3       3       3       3       3       3       3       3       3       3
       3       3       3       3       3       3       3       3       3       3
       3       3       3       3       3       3       3       3       3       3
       3       3       3       3       3       3       3       3       3       3
       3       3       3       3       3       3       3       3       3       3
       3       3       3       3       3       3       3       3       3       3
       3       3       3       3       3       3       3       3       3       3
       3       3       3       3       3       3       3       3       3       3
       3       3       3       3       3       3       3       3       3       3
       3       3       3       3       3       3       3       3       3       3
       3       3       3       3       3       3       3       3       3       3
       3       3       3       3       3       3       3       3       3       3
       3       3       3       3       3       3       3       3       3       3
       3       3       3       3       3       3       3       3       3       3
       3       3       3       3       3       3       3       3       3       3
       3       3       3       3       3       3       3       3       3       3
       3       3       3       3       3       3       3       3       3       3
       3       3       3       3       3       3       3       3       3       3
       3       3       3       3       3       3       3       3       3       3
       3       3       3       3       3       3       3       3       3       3
       3       3       3       3       3       3       3       3       3       3
       3       3       3       3       3       3       3       3       3       3
       3       3       3       3       3       3       3       3       3       3
       3       3       3       3       3       3       3       3       3       3
       3       3       3       3       3       3       3       3       3       3
       3       3       3       3       3       3       3       3       3       3
       3       3       3       3       3       3       3       3       3       3
       3       3       3       3       3       3       3       3       3       3
       3       3       3       3       3       3       3       3       3       3
       3       3       3       3       3       3       3       3       3       3
       3       3       3       3       3       3       3       3       3       3
       3       3       3       3       3       3       3       3       3       3
       3       3       3       3       3       3       3       3       3       3
       3       3       3       3       3       3       3       3       3       3
       3       3       3       3       3       3       3       3       3       3
       3       3       3       3       3       3       3       3       3       3
       3       3       3       3       3       3       3       3       3       3
       3       3       3       3       3       3       3       3       3       3
       3       3       3       3       3       3       3       3       3       3
       3       3       3       3       3       3       3       3       3       3
       3       3       3       3       3       3       3       3       3       3
       3       3       3       3       3       3       3       3       3       3
       3       3       3       3       3       3       3       3       3       3
       3       3       3       3       3       3       3       3       3       3
       3       3       3       3       3       3       3       3       3       3
       3       3       3       3       3       3       3       3       3       3
       3       3       3       3       3       3       3       3       3       3
       3       3       3       3       3       3       3       3       3       3
       3       3       3       3       3       3       3       3       3       3
       3       3       3       3       3       3       3       3       3       3
       3       3       3       3       3       3       3       3       3       3
       3       3       3       3       3       3       3       3       3       3
       3       3       3       3       3       3       3       3       3       3
       3       3       3       3       3       3       3       3       3       3
       3       3       3       3       3       3       3       3       3       3
       3       3       3       3       3       3       3       3       3       3
       3       3       3       3       3       3       3       3       3       3
       3       3       3       3       3       3       3       3       3       3
       3       3       3       3       3       3       3       3       3       3
       3       3       3       3       3       3       3       3       3       3
       3       3       3       3       3       3       3       3       3       3
       3       3       3       3       3       3       3       3       3       3
       3       3       3       3       3       3       3       3       3       3
       3       3       3       3       3       3       3       3       3       3
       3       3       3       3       3       3       3       3       3       3
       3       3       3       3       3       3       3       3       3       3
       3       3       3       3       3       3       3       3       3       3
       3       3       3       3       3       3       3       3       3       3
       3       3       3       3       3       3       3       3       3       3
       3       3       3       3       3       3       3       3       3       3
       3       3       3       3       3       3       3       3       3       3
       3       3       3       3       3       3       3       3       3       3
       3       3       3       3       3       3       3       3       3       3
       3       3       3       3       3       3       3       3       3       3
       3       3       3       3       3       3       3       3       3       3
       3       3       3       3       3       3       3       3       3       3
       3       3       3       3       3       3       3       3       3       3
       3       3       3       3       3       3       3       3       3       3
       3       3       3       3       3       3       3       3       3       3
       3       3       3       3       3       3       3       3       3       3
       3       3       3       3       3       3       3       3       3       3
       3       3       3       3       3       3       3       3       3       3
       3       3       3       3       3       3       3       3       3       3
       3       3       3       3       3       3       3       3       3       3
       3       3       3       3       3       3       3       3       3       3
       3       3       3       3       3       3       3       3       3       3
       3       3       3       3       3       3       3       3       3       3
       3       3       3       3       3       3       3       3       3       3
       3       3       3       3       3       3       3       3       3       3
       3       3       3       3       3       3       3       3       3       3
       3       3       3       3       3       3       3       3       3       3
       3       3       3       3       3       3       3       3       3       3
       3       3       3       3       3       3       3       3       3       3
       3       3       3       3       3       3       3       3       3       3
       3       3       3       3       3       3       3       3       3       3
       3       3       3       3       3       3       3       3       3       3
       3       3       3       3       3       3       3       3       3       3
       3       3       3       3       3       3       3       3       3       3
       3       3       3       3       3       3       3       3       3       3
       3       3       3       3       3       3       3       3       3       3
       3       3       3       3       3       3       3       3       3       3
       3       3       3       3       3       3       3       3       3       3
       3       3       3       3       3       3       3       3       3       3
       3       3       3       3       3       3       3       3       3       3
       3       3       3       3       3       3       3       3       3       3
       3       3       3       3       3       3       3       3       3       3
       3       3       3       3       3       3       3       3       3       3
       3       3       3       3       3       3       3       3       3       3
       3       3       3       3       3       3       3       3       3       3
       3       3       3       3       3       3       3       3       3       3
       3       3       3       3       3       3       3       3       3       3
       3       3       3       3       3       3       3       3       3       3
       3       3       3       3       3       3       3       3       3       3
       3       3       3       3       3       3       3       3       3       3
       3       3       3       3       3       3       3       3       3       3
       3       3       3       3       3       3       3       3       3       3
       3       3       3       3       3       3       3       3       3       3
       3       3       3       3       3       3       3       3       3       3
       3       3       3       3       3       3       3       3       3       3
       3       3       3       3       3       3       3       3       3       3
       3       3       3       3       3       3       3       3       3       3
       3       3       3       3       3       3       3       3       3       3
       3       3       3       3       3       3       3       3       3       3
       3       3       3       3       3       3       3       3       3       3
       3       3       3       3       3       3       3       3       3       3
       3       3       3       3       3       3       3       3       3       3
       3       3       3       3       3       3       3       3       3       3
       3       3       3       3       3       3       3       3       3       3
       3       3       3       3       3       3       3       3       3       3
       3       3       3       3       3       3       3       3       3       3
       3       3       3       3       3       3       3       3       3       3
       3       3       3       3       3       3       3       3       3       3
       3       3       3       3       3       3       3       3       3       3
       3       3       3       3       3       3       3       3       3       3
       3       3       3       3       3       3       3       3       3       3
       3       3       3       3       3       3       3       3       3       3
       3       3       3       3       3       3       3       3       3       3
       3       3       3       3       3       3       3       3       3       3
       3       3       3       3       3       3       3       3       3       3
       3       3       3       3       3       3       3       3       3       3
       3       3       3       3       3       3       3       3       3       3
       3       3       3       3       3       3       3       3       3       3
       3       3       3       3       3       3       3       3       3       3
       3       3       3       3       3       3       3       3       3       3
       3       3       3       3       3       3       3       3       3       3
       3       3       3       3       3       3       3       3       3       3
       3       3       3       3       3       3       3       3       3       3
       3       3       3       3       3       3       3       3       3       3
       3       3       3       3       3       3       3       3       3       3
       3       3       3       3       3       3       3       3       3       3
       3       3       3       3       3       3       3       3       3       3
       3       3       3       3       3       3       3       3       3       3
       3       3       3       3       3       3       3       3       3       3
       3       3       3       3       3       3       3       3       3       3
       3       3       3       3       3       3       3       3       3       3
       3       3       3       3       3       3       3       3       3       3
       3       3       3       3       3       3       3       3       3       3
       3       3       3       3       3       3       3       3       3       3
       3       3       3       3       3       3       3       3       3       3
       3       3       3       3       3       3       3       3       3       3
       3       3       3       3       3       3       3       3       3       3
       3       3       3       3       3       3       3       3       3       3
       3       3       3       3       3       3       3       3       3       3
       3       3       3       3       3       3       3       3       3       3
       3       3       3       3       3       3       3       3       3       3
       3       3       3       3       3       3       3       3       3       3
       3       3       3       3       3       3       3       3       3       3
       3       3       3       3       3       3       3       3       3       3
       3       3       3       3       3       3       3       3       3       3
       3       3       3       3       3       3       3       3       3       3
       3       3       3       3       3       3       3       3       3       3
       3       3       3       3       3       3       3       3       3       3
       3       3       3       3       3       3       3       3       3       3
       3       3       3       3       3       3       3       3       3       3
       3       3       3       3       3       3       3       3       3       3
       3       3       3       3       3       3       3       3       3       3
       3       3       3       3       3       3       3       3       3       3
       3       3       3       3       3       3       3       3       3       3
       3       3       3       3       3       3       3       3       3       3
       3       3       3       3       3       3       3       3       3       3
       3       3       3       3       3       3       3       3       3       3
       3       3       3       3       3       3       3       3       3       3
       3       3       3       3       3       3       3       3       3       3
       3       3       3       3       3       3       3       3       3       3
       3       3       3       3       3       3       3       3       3       3
       3       3       3       3       3       3       3       3       3       3
       3       3       3       3       3       3       3       3       3       3
       3       3       3       3       3       3       3       3       3       3
       3       3       3       3       3       3       3       3       3       3
       3       3       3       3       3       3       3       3       3       3
       3       3       3       3       3       3       3       3       3       3
       3       3       3       3       3       3       3       3       3       3
       3       3       3       3       3       3       3       3       3       3
       3       3       3       3       3       3       3       3       3       3
       3       3       3       3       3       3       3       3       3       3
       3       3       3       3       3       3       3       3       3       3
       3       3       3       3       3       3       3       3       3       3
       3       3       3       3       3       3       3       3       3       3
       3       3       3       3       3       3       3       3       3       3
       3       3       3       3       3       3       3       3       3       3
       3       3       3       3       3       3       3       3       3       3
       3       3       3       3       3       3       3       3       3       3
       3       3       3       3       3       3       3       3       3       3
       3       3       3       3       3       3       3       3       3       3
       3       3       3       3       3       3       3       3       3       3
       3       3       3       3       3       3       3       3       3       3
       3       3       3       3       3       3       3       3       3       3
       3       3       3       3       3       3       3       3       3       3
       3       3       3       3       3       3       3       3       3       3
       3       3       3       3       3       3       3       3       3       3
       3       3       3       3       3       3       3       3       3       3
       3       3       3       3       3       3       3       3       3       3
       3       3       3       3       3       3       3       3       3       3
       3       3       3       3       3       3       3       3       3       3
       3       3       3       3       3       3       3       3       3       3
       3       3       3       3       3       3       3       3       3       3
       3       3       3       3       3       3       3       3       3       3
       3       3       3       3       3       3       3       3       3       3
       3       3       3       3       3       3       3       3       3       3
       3       3       3       3       3       3       3       3       3       3
       3       3       3       3       3       3       3       3       3       3
       3       3       3       3       3       3       3       3       3       3
       3       3       3       3       3       3       3       3       3       3
       3       3       3       3       3       3       3       3       3       3
       3       3       3       3       3       3       3       3       3       3
       3       3       3       3       3       3       3       3       3       3
       3       3       3       3       3       3       3       3       3       3
       3       3       3       3       3       3       3       3       3       3
       3       3       3       3       3       3       3       3       3       3
       3       3       3       3       3       3       3       3       3       3
       3       3       3       3       3       3       3       3       3       3
       3       3       3       3       3       3       3       3       3       3
       3       3       3       3       3       3       3       3       3       3
       3       3       3       3       3       3       3       3       3       3
       3       3       3       3       3       3       3       3       3       3
       3       3       3       3       3       3       3       3       3       3
       3       3       3       3       3       3       3       3       3       3
       3       3       3       3       3       3       3       3       3       3
       3       3       3       3       3       3       3       3       3       3
       3       3       3       3       3       3       3       3       3       3
       3       3       3       3       3       3       3       3       3       3
       3       3       3       3       3       3       3       3       3       3
       3       3       3       3       3       3       3       3       3       3
       3       3       3       3       3       3       3       3       3       3
       3       3       3       3       3       3       3       3       3       3
       3       3       3       3       3       3       3       3       3       3
       3       3       3       3       3       3       3       3       3       3
       3       3       3       3       3       3       3       3       3       3
       3       3       3       3       3       3       3       3       3       3
       3       3       3       3       3       3       3       3       3       3
       3       3       3       3       3       3       3       3       3       3
       3       3       3       3       3       3       3       3       3       3
       3       3       3       3       3       3       3       3       3       3
       3       3       3       3       3       3       3       3       3       3
       3       3       3       3       3       3       3       3       3       3
       3       3       3       3       3       3       3       3       3       3
       3       3       3       3       3       3       3       3       3       3
       3       3       3       3       3       3       3       3       3       3
       3       3       3       3       3       3       3       3       3       3
       3       3       3       3       3       3       3       3       3       3
       3       3       3       3       3       3       3       3       3       3
       3       3       3       3       3       3       3       3       3       3
       3       3       3       3       3       3       3       3       3       3
       3       3       3       3       3       3       3       3       3       3
       3       3       3       3       3       3       3       3       3       3
       3       3       3       3       3       3       3       3       3       3
       3       3       3       3       3       3       3       3       3       3
       3       3       3       3       3       3       3       3       3       3
       3       3       3       3       3       3       3       3       3       3
       3       3       3       3       3       3       3       3       3       3
       3       3       3       3       3       3       3       3       3       3
       3       3       3       3       3       3       3       3       3       3
       3       3       3       3       3       3       3       3       3       3
       3       3       3       3       3       3       3       3       3       3
       3       3       3       3       3       3       3       3       3       3
       3       3       3       3       3       3       3       3       3       3
       3       3       3       3       3       3       3       3       3       3
       3       3       3       3       3       3       3       3       3       3
       3       3       3       3       3       3       3       3       3       3
       3       3       3       3       3       3       3       3       3       3
       3       3       3       3       3       3       3       3       3       3
       3       3       3       3       3       3       3       3       3       3
       3       3       3       3       3       3       3       3       3       3
       3       3       3       3       3       3       3       3       3       3
       3       3       3       3       3       3       3       3       3       3
       3       3       3       3       3       3       3       3       3       3
       3       3       3       3       3       3       3       3       3       3
       3       3       3       3       3       3       3       3       3       3
       3       3       3       3       3       3       3       3       3       3
       3       3       3       3       3       3       3       3       3       3
       3       3       3       3       3       3       3       3       3       3
       3       3       3       3       3       3       3       3       3       3
       3       3       3       3       3       3       3       3       3       3
       3       3       3       3       3       3       3       3       3       3
       3       3       3       3       3       3       3       3       3       3
       3       3       3       3       3       3       3       3       3       3
       3       3       3       3       3       3       3       3       3       3
       3       3       3       3       3       3       3       3       3       3
       3       3       3       3       3       3       3       3       3       3
       3       3       3       3       3       3       3       3       3       3
       3       3       3       3       3       3       3       3       3       3
       3       3       3       3       3       3       3       3       3       3
       3       3       3       3       3       3       3       3       3       3
       3       3       3       3       3       3       3       3       3       3
       3       3       3       3       3       3       3       3       3       3
       3       3       3       3       3       3       3       3       3       3
       3       3       3       3       3       3       3       3       3       3
       3       3       3       3       3       3       3       3       3       3
       3       3       3       3       3       3       3       3       3       3
       3       3       3       3       3       3       3       3       3       3
       3       3       3       3       3       3       3       3       3       3
       3       3       3       3       3       3       3       3       3       3
       3       3       3       3       3       3       3       3       3       3
       3       3       3       3       3       3       3       3       3       3
       3       3       3       3       3       3       3       3       3       3
       3       3       3       3       3       3       3       3       3       3
       3       3       3       3       3       3       3       3       3       3
       3       3       3       3       3       3       3       3       3       3
       3       3       3       3       3       3       3       3       3       3
       3       3       3       3       3       3       3       3       3       3
       3       3       3       3       3       3       3       3       3       3
       3       3       3       3       3       3       3       3       3       3
       3       3       3       3       3       3       3       3       3       3
       3       3       3       3       3       3       3       3       3       3
       3       3       3       3       3       3       3       3       3       3
       3       3       3       3       3       3       3       3       3       3
       3       3       3       3       3       3       3       3       3       3
       3       3       3       3       3       3       3       3       3       3
       3       3       3       3       3       3       3       3       3       3
       3       3       3       3       3       3       3       3       3       3
       3       3       3       3       3       3       3       3       3       3
       3       3       3       3       3       3       3       3       3       3
       3       3       3       3       3       3       3       3       3       3
       3       3       3       3       3       3       3       3       3       3
       3       3       3       3       3       3       3       3       3       3
       3       3       3       3       3       3       3       3       3       3
       3       3       3       3       3       3       3       3       3       3
       3       3       3       3       3       3       3       3       3       3
       3       3       3       3       3       3       3       3       3       3
       3       3       3       3       3       3       3       3       3       3
       3       3       3       3       3       3       3       3       3       3
       3       3       3       3       3       3       3       3       3       3
       3       3       3       3       3       3       3       3       3       3
       3       3       3       3       3       3       3       3       3       3
       3       3       3       3       3       3       3       3       3       3
       3       3       3       3       3       3       3       3       3       3
       3       3       3       3       3       3       3       3       3       3
       3       3       3       3       3       3       3       3       3       3
       3       3       3       3       3       3       3       3       3       3
       3       3       3       3       3       3       3       3       3       3
       3       3       3       3       3       3       3       3       3       3
       3       3       3       3       3       3       3       3       3       3
       3       3       3       3       3       3       3       3       3       3
       3       3       3       3       3       3       3       3       3       3
       3       3       3       3       3       3       3       3       3       3
       3       3       3       3       3       3       3       3       3       3
       3       3       3       3       3       3       3       3       3       3
       3       3       3       3       3       3       3       3       3       3
       3       3       3       3       3       3       3       3       3       3
       3       3       3       3       3       3       3       3       3       3
       3       3       3       3       3       3       3       3       3       3
       3       3       3       3       3       3       3       3       3       3
       3       3       3       3       3       3       3       3       3       3
       3       3       3       3       3       3       3       3       3       3
       3       3       3       3       3       3       3       3       3       3
       3       3       3       3       3       3       3       3       3       3
       3       3       3       3       3       3       3       3       3       3
       3       3       3       3       3       3       3       3       3       3
       3       3       3       3       3       3       3       3       3       3
       3       3       3       3       3       3       3       3       3       3
       3       3       3       3       3       3       3       3       3       3
       3       3       3       3       3       3       3       3       3       3
       3       3       3       3       3       3       3       3       3       3
       3       3       3       3       3       3       3       3       3       3
       3       3       3       3       3       3       3       3       3       3
       3       3       3       3       3       3       3       3       3       3
       3       3       3       3       3       3       3       3       3       3
       3       3       3       3       3       3       3       3       3       3
       3       3       3       3       3       3       3       3       3       3
       3       3       3       3       3       3       3       3       3       3
       3       3       3       3       3       3       3       3       3       3
       3       3       3       3       3       3       3       3       3       3
       3       3       3       3       3       3       3       3       3       3
       3       3       3       3       3       3       3       3       3       3
       3       3       3       3       3       3       3       3       3       3
       3       3       3       3       3       3       3       3       3       3
       3       3       3       3       3       3       3       3       3       3
       3       3       3       3       3       3       3       3       3       3
       3       3       3       3       3       3       3       3       3       3
       3       3       3       3       3       3       3       3       3       3
       3       3       3       3       3       3       3       3       3       3
       3       3       3       3       3       3       3       3       3       3
       3       3       3       3       3       3       3       3       3       3
       3       3       3       3       3       3       3       3       3       3
       3       3       3       3       3       3       3       3       3       3
       3       3       3       3       3       3       3       3       3       3
       3       3       3       3       3       3       3       3       3       3
       3       3       3       3       3       3       3       3       3       3
       3       3       3       3       3       3       3       3       3       3
       3       3       3       3       3       3       3       3       3       3
       3       3       3       3       3       3       3       3       3       3
       3       3       3       3       3       3       3       3       3       3
       3       3       3       3       3       3       3       3       3       3
       3       3       3       3       3       3       3       3       3       3
       3       3       3       3       3       3       3       3       3       3
       3       3       3       3       3       3       3       3       3       3
       3       3       3       3       3       3       3       3       3       3
       3       3       3       3       3       3       3       3       3       3
       3       3       3       3       3       3       3       3       3       3
       3       3       3       3       3       3       3       3       3       3
       3       3       3       3       3       3       3       3       3       3
       3       3       3       3       3       3       3       3       3       3
       3       3       3       3       3       3       3       3       3       3
       3       3       3       3       3       3       3       3       3       3
       3       3       3       3       3       3       3       3       3       3
       3       3       3       3       3       3       3       3       3       3
       3       3       3       3       3       3       3       3       3       3
       3       3       3       3       3       3       3       3       3       3
       3       3       3       3       3       3       3       3       3       3
       3       3       3       3       3       3       3       3       3       3
       3       3       3       3       3       3       3       3       3       3
       3       3       3       3       3       3       3       3       3       3
       3       3       3       3       3       3       3       3       3       3
       3       3       3       3       3       3       3       3       3       3
       3       3       3       3       3       3       3       3       3       3
       3       3       3       3       3       3       3       3       3       3
       3       3       3       3       3       3       3       3       3       3
       3       3       3       3       3       3       3       3       3       3
       3       3       3       3       3       3       3       3       3       3
       3       3       3       3       3       3       3       3       3       3
       3       3       3       3       3       3       3       3       3       3
       3       3       3       3       3       3       3       3       3       3
       3       3       3       3       3       3       3       3       3       3
       3       3       3       3       3       3       3       3       3       3
       3       3       3       3       3       3       3       3       3       3
       3       3       3       3       3       3       3       3       3       3
       3       3       3       3       3       3       3       3       3       3
       3       3       3       3       3       3       3       3       3       3
       3       3       3       3       3       3       3       3       3       3
       3       3       3       3       3       3       3       3       3       3
       3       3       3       3       3       3       3       3       3       3
       3       3       3       3       3       3       3       3       3       3
       3       3       3       3       3       3       3       3       3       3
       3       3       3       3       3       3       3       3       3       3
       3       3       3       3       3       3       3       3       3       3
       3       3       3       3       3       3       3       3       3       3
       3       3       3       3       3       3       3       3       3       3
       3       3       3       3       3       3       3       3       3       3
       3       3       3       3       3       3       3       3       3       3
       3       3       3       3       3       3       3       3       3       3
       3       3       3       3       3       3       3       3       3       3
       3       3       3       3       3       3       3       3       3       3
       3       3       3       3       3       3       3       3       3       3
       3       3       3       3       3       3       3       3       3       3
       3       3       3       3       3       3       3       3       3       3
       3       3       3       3       3       3       3       3       3       3
       3       3       3       3       3       3       3       3       3       3
       3       3       3       3       3       3       3       3       3       3
       3       3       3       3       3       3       3       3       3       3
       3       3       3       3       3       3       3       3       3       3
       3       3       3       3       3       3       3       3       3       3
       3       3       3       3       3       3       3       3       3       3
       3       3       3       3       3       3       3       3       3       3
       3       3       3       3       3       3       3       3       3       3
       3       3       3       3       3       3       3       3       3       3
       3       3       3       3       3       3       3       3       3       3
       3       3       3       3       3       3       3       3       3       3
       3       3       3       3       3       3       3       3       3       3
       3       3       3       3       3       3       3       3       3       3
       3       3       3       3       3       3       3       3       3       3
       3       3       3       3       3       3       3       3       3       3
       3       3       3       3       3       3       3       3       3       3
       3       3       3       3       3       3       3       3       3       3
       3       3       3       3       3       3       3       3       3       3
       3       3       3       3       3       3       3       3       3       3
       3       3       3       3       3       3       3       3       3       3
       3       3       3       3       3       3       3       3       3       3
       3       3       3       3       3       3       3       3       3       3
       3       3       3       3       3       3       3       3       3       3
       3       3       3       3       3       3       3       3       3       3
       3       3       3       3       3       3       3       3       3       3
       3       3       3       3       3       3       3       3       3       3
       3       3       3       3       3       3       3       3       3       3
       3       3       3       3       3       3       3       3       3       3
       3       3       3       3       3       3       3       3       3       3
       3       3       3       3       3       3       3       3       3       3
       3       3       3       3       3       3       3       3       3       3
       3       3       3       3       3       3       3       3       3       3
       3       3       3       3       3       3       3       3       3       3
       3       3       3       3       3       3       3       3       3       3
       3       3       3       3       3       3       3       3       3       3
       3       3       3       3       3       3       3       3       3       3
       3       3       3       3       3       3       3       3       3       3
       3       3       3       3       3       3       3       3       3       3
       3       3       3       3       3       3       3       3       3       3
       3       3       3       3       3       3       3       3       3       3
       3       3       3       3       3       3       3       3       3       3
       3       3       3       3       3       3       3       3       3       3
       3       3       3       3       3       3       3       3       3       3
       3       3       3       3       3       3       3       3       3       3
       3       3       3       3       3       3       3       3       3       3
       3       3       3       3       3       3       3       3       3       3
       3       3       3       3       3       3       3       3       3       3
       3       3       3       3       3       3       3       3       3       3
       3       3       3       3       3       3       3       3       3       3
       3       3       3       3       3       3       3       3       3       3
       3       3       3       3       3       3       3       3       3       3
       3       3       3       3       3       3       3       3       3       3
       3       3       3       3       3       3       3       3       3       3
       3       3       3       3       3       3       3       3       3       3
       3       3       3       3       3       3       3       3       3       3
       3       3       3       3       3       3       3       3       3       3
       3       3       3       3       3       3       3       3       3       3
       3       3       3       3       3       3       3       3       3       3
       3       3       3       3       3       3       3       3       3       3
       3       3       3       3       3       3       3       3       3       3
       3       3       3       3       3       3       3       3       3       3
       3       3       3       3       3       3       3       3       3       3
       3       3       3       3       3       3       3       3       3       3
       3       3       3       3       3       3       3       3       3       3
       3       3       3       3       3       3       3       3       3       3
       3       3       3       3       3       3       3       3       3       3
       3       3       3       3       3       3       3       3       3       3
       3       3       3       3       3       3       3       3       3       3
       3       3       3       3       3       3       3       3       3       3
       3       3       3       3       3       3       3       3       3       3
       3       3       3       3       3       3       3       3       3       3
       3       3       3       3       3       3       3       3       3       3
       3       3       3       3       3       3       3       3       3       3
       3       3       3       3       3       3       3       3       3       3
       3       3       3       3       3       3       3       3       3       3
       3       3       3       3       3       3       3       3       3       3
       3       3       3       3       3       3       3       3       3       3
       3       3       3       3       3       3       3       3       3       3
       3       3       3       3       3       3       3       3       3       3
       3       3       3       3       3       3       3       3       3       3
       3       3       3       3       3       3       3       3       3       3
       3       3       3       3       3       3       3       3       3       3
       3       3       3       3       3       3       3       3       3       3
       3       3       3       3       3       3       3       3       3       3
       3       3       3       3       3       3       3       3       3       3
       3       3       3       3       3       3       3       3       3       3
       3       3       3       3       3       3       3       3       3       3
       3       3       3       3       3       3       3       3       3       3
       3       3       3       3       3       3       3       3       3       3
       3       3       3       3       3       3       3       3       3       3
       3       3       3       3       3       3       3       3       3       3
       3       3       3       3       3       3       3       3       3       3
       3       3       3       3       3       3       3       3       3       3
       3       3       3       3       3       3       3       3       3       3
       3       3       3       3       3       3       3       3       3       3
       3       3       3       3       3       3       3       3       3       3
       3       3       3       3       3       3       3       3       3       3
       3       3       3       3       3       3       3       3       3       3
       3       3       3       3       3       3       3       3       3       3
       3       3       3       3       3       3       3       3       3       3
       3       3       3       3       3       3       3       3       3       3
       3       3       3       3       3       3       3       3       3       3
       3       3       3       3       3       3       3       3       3       3
       3       3       3       3       3       3       3       3       3       3
       3       3       3       3       3       3       3       3       3       3
       3       3       3       3       3       3       3       3       3       3
       3       3       3       3       3       3       3       3       3       3
       3       3       3       3       3       3       3       3       3       3
       3       3       3       3       3       3       3       3       3       3
       3       3       3       3       3       3       3       3       3       3
       3       3       3       3       3       3       3       3       3       3
       3       3       3       3       3       3       3       3       3       3
       3       3       3       3       3       3       3       3       3       3
       3       3       3       3       3       3       3       3       3       3
       3       3       3       3       3       3       3       3       3       3
       3       3       3       3       3       3       3       3       3       3
       3       3       3       3       3       3       3       3       3       3
       3       3       3       3       3       3       3       3       3       3
       3       3       3       3       3       3       3       3       3       3
       3       3       3       3       3       3       3       3       3       3
       3       3       3       3       3       3       3       3       3       3
       3       3       3       3       3       3       3       3       3       3
       3       3       3       3       3       3       3       3       3       3
       3       3       3       3       3       3       3       3       3       3
       3       3       3       3       3       3       3       3       3       3
       3       3       3       3       3       3       3       3       3       3
       3       3       3       3       3       3       3       3       3       3
       3       3       3       3       3       3       3       3       3       3
       3       3       3       3       3       3       3       3       3       3
       3       3       3       3       3       3       3       3       3       3
       3       3       3       3       3       3       3       3       3       3
       3       3       3       3       3       3       3       3       3       3
       3       3       3       3       3       3       3       3       3       3
       3       3       3       3       3       3       3       3       3       3
       3       3       3       3       3       3       3       3       3       3
       3       3       3       3       3       3       3       3       3       3
       3       3       3       3       3       3       3       3       3       3
       3       3       3       3       3       3       3       3       3       3
       3       3       3       3       3       3       3       3       3       3
       3       3       3       3       3       3       3       3       3       3
       3       3       3       3       3       3       3       3       3       3
       3       3       3       3       3       3       3       3       3       3
       3       3       3       3       3       3       3       3       3       3
       3       3       3       3       3       3       3       3       3       3
       3       3       3       3       3       3       3       3       3       3
       3       3       3       3       3       3       3       3       3       3
       3       3       3       3       3       3       3       3       3       3
       3       3       3       3       3       3       3       3       3       3
       3       3       3       3       3       3       3       3       3       3
       3       3       3       3       3       3       3       3       3       3
       3       3       3       3       3       3       3       3       3       3
       3       3       3       3       3       3       3       3       3       3
       3       3       3       3       3       3       3       3       3       3
       3       3       3       3       3       3       3       3       3       3
       3       3       3       3       3       3       3       3       3       3
       3       3       3       3       3       3       3       3       3       3
       3       3       3       3       3       3       3       3       3       3
       3       3       3       3       3       3       3       3       3       3
       3       3       3       3       3       3       3       3       3       3
       3       3       3       3       3       3       3       3       3       3
       3       3       3       3       3       3       3       3       3       3
       3       3       3       3       3       3       3       3       3       3
       3       3       3       3       3       3       3       3       3       3
       3       3       3       3       3       3       3       3       3       3
       3       3       3       3       3       3       3       3       3       3
       3       3       3       3       3       3       3       3       3       3
       3       3       3       3       3       3       3       3       3       3
       3       3       3       3       3       3       3       3       3       3
       3       3       3       3       3       3       3       3       3       3
       3       3       3       3       3       3       3       3       3       3
       3       3       3       3       3       3       3       3       3       3
       3       3       3       3       3       3       3       3       3       3
       3       3       3       3       3       3       3       3       3       3
       3       3       3       3       3       3       3       3       3       3
       3       3       3       3       3       3       3       3       3       3
       3       3       3       3       3       3       3       3       3       3
       3       3       3       3       3       3       3       3       3       3
       3       3       3       3       3       3       3       3       3       3
       3       3       3       3       3       3       3       3       3       3
       3       3       3       3       3       3       3       3       3       3
       3       3       3       3       3       3       3       3       3       3
       3       3       3       3       3       3       3       3       3       3
       3       3       3       3       3       3       3       3       3       3
       3       3       3       3       3       3       3       3       3       3
       3       3       3       3       3       3       3       3       3       3
       3       3       3       3       3       3       3       3       3       3
       3       3       3       3       3       3       3       3       3       3
       3       3       3       3       3       3       3       3       3       3
       3       3       3       3       3       3       3       3       3       3
       3       3       3       3       3       3       3       3       3       3
       3       3       3       3       3       3       3       3       3       3
       3       3       3       3       3       3       3       3       3       3
       3       3       3       3       3       3       3       3       3       3
       3       3       3       3       3       3       3       3       3       3
       3       3       3       3       3       3       3       3       3       3
       3       3       3       3       3       3       3       3       3       3
       3       3       3       3       3       3       3       3       3       3
       3       3       3       3       3       3       3       3       3       3
       3       3       3       3       3       3       3       3       3       3
       3       3       3       3       3       3       3       3       3       3
       3       3       3       3       3       3       3       3       3       3
       3       3       3       3       3       3       3       3       3       3
       3       3       3       3       3       3       3       3       3       3
       3       3       3       3       3       3       3       3       3       3
       3       3       3       3       3       3       3       3       3       3
       3       3       3       3       3       3       3       3       3       3
       3       3       3       3       3       3       3       3       3       3
       3       3       3       3       3       3       3       3       3       3
       3       3       3       3       3       3       3       3       3       3
       3       3       3       3       3       3       3       3       3       3
       3       3       3       3       3       3       3       3       3       3
       3       3       3       3       3       3       3       3       3       3
       3       3       3       3       3       3       3       3       3       3
       3       3       3       3       3       3       3       3       3       3
       3       3       3       3       3       3       3       3       3       3
       3       3       3       3       3       3       3       3       3       3
       3       3       3       3       3       3       3       3       3       3
       3       3       3       3       3       3       3       3       3       3
       3       3       3       3       3       3       3       3       3       3
       3       3       3       3       3       3       3       3       3       3
       3       3       3       3       3       3       3       3       3       3
       3       3       3       3       3       3       3       3       3       3
       3       3       3       3       3       3       3       3       3       3
       3       3       3       3       3       3       3       3       3       3
       3       3       3       3       3       3       3       3       3       3
       3       3       3       3       3       3       3       3       3       3
       3       3       3       3       3       3       3       3       3       3
       3       3       3       3       3       3       3       3       3       3
       3       3       3       3       3       3       3       3       3       3
       3       3       3       3       3       3       3       3       3       3
       3       3       3       3       3       3       3       3       3       3
       3       3       3       3       3       3       3       3       3       3
       3       3       3       3       3       3       3       3       3       3
       3       3       3       3       3       3       3       3       3       3
       3       3       3       3       3       3       3       3       3       3
       3       3       3       3       3       3       3       3       3       3
       3       3       3       3       3       3       3       3       3       3
       3       3       3       3       3       3       3       3       3       3
       3       3       3       3       3       3       3       3       3       3
       3       3       3       3       3       3       3       3       3       3
       3       3       3       3       3       3       3       3       3       3
       3       3       3       3       3       3       3       3       3       3
       3       3       3       3       3       3       3       3       3       3
       3       3       3       3       3       3       3       3       3       3
       3       3       3       3       3       3       3       3       3       3
       3       3       3       3       3       3       3       3       3       3
       3       3       3       3       3       3       3       3       3       3
       3       3       3       3       3       3       3       3       3       3
       3       3       3       3       3       3       3       3       3       3
       3       3       3       3       3       3       3       3       3       3
       3       3       3       3       3       3       3       3       3       3
       3       3       3       3       3       3       3       3       3       3
       3       3       3       3       3       3       3       3       3       3
       3       3       3       3       3       3       3       3       3       3
       3       3       3       3       3       3       3       3       3       3
       3       3       3       3       3       3       3       3       3       3
       3       3       3       3       3       3       3       3       3       3
       3       3       3       3       3       3       3       3       3       3
       3       3       3       3       3       3       3       3       3       3
       3       3       3       3       3       3       3       3       3       3
       3       3       3       3       3       3       3       3       3       3
       3       3       3       3       3       3       3       3       3       3
       3       3       3       3       3       3       3       3       3       3
       3       3       3       3       3       3       3       3       3       3
       3       3       3       3       3       3       3       3       3       3
       3       3       3       3       3       3       3       3       3       3
       3       3       3       3       3       3       3       3       3       3
       3       3       3       3       3       3       3       3       3       3
       3       3       3       3       3       3       3       3       3       3
       3       3       3       3       3       3       3       3       3       3
       3       3       3       3       3       3       3       3       3       3
       3       3       3       3       3       3       3       3       3       3
       3       3       3       3       3       3       3       3       3       3
       3       3       3       3       3       3       3       3       3       3
       3       3       3       3       3       3       3       3       3       3
       3       3       3       3       3       3       3       3       3       3
       3       3       3       3       3       3       3       3       3       3
       3       3       3       3       3       3       3       3       3       3
       3       3       3       3       3       3       3       3       3       3
       3       3       3       3       3       3       3       3       3       3
       3       3       3       3       3       3       3       3       3       3
       3       3       3       3       3       3       3       3       3       3
       3       3       3       3       3       3       3       3       3       3
       3       3       3       3       3       3       3       3       3       3
       3       3       3       3       3       3       3       3       3       3
       3       3       3       3       3       3       3       3       3       3
       3       3       3       3       3       3       3       3       3       3
       3       3       3       3       3       3       3       3       3       3
       3       3       3       3       3       3       3       3       3       3
       3       3       3       3       3       3       3       3       3       3
       3       3       3       3       3       3       3       3       3       3
       3       3       3       3       3       3       3       3       3       3
       3       3       3       3       3       3       3       3       3       3
       3       3       3       3       3       3       3       3       3       3
       3       3       3       3       3       3       3       3       3       3
       3       3       3       3       3       3       3       3       3       3
       3       3       3       3       3       3       3       3       3       3
       3       3       3       3       3       3       3       3       3       3
       3       3       3       3       3       3       3       3       3       3
       3       3       3       3       3       3       3       3       3       3
       3       3       3       3       3       3       3       3       3       3
       3       3       3       3       3       3       3       3       3       3
       3       3       3       3       3       3       3       3       3       3
       3       3       3       3       3       3       3       3       3       3
       3       3       3       3       3       3       3       3       3       3
       3       3       3       3       3       3       3       3       3       3
       3       3       3       3       3       3       3       3       3       3
       3       3       3       3       3       3       3       3       3       3
       3       3       3       3       3       3       3       3       3       3
       3       3       3       3       3       3       3       3       3       3
       3       3       3       3       3       3       3       3       3       3
       3       3       3       3       3       3       3       3       3       3
       3       3       3       3       3       3       3       3       3       3
       3       3       3       3       3       3       3       3       3       3
       3       3       3       3       3       3       3       3       3       3
       3       3       3       3       3       3       3       3       3       3
       3       3       3       3       3       3       3       3       3       3
       3       3       3       3       3       3       3       3       3       3
       3       3       3       3       3       3       3       3       3       3
       3       3       3       3       3       3       3       3       3       3
       3       3       3       3       3       3       3       3       3       3
       3       3       3       3       3       3       3       3       3       3
       3       3       3       3       3       3       3       3       3       3
       3       3       3       3       3       3       3       3       3       3
       3       3       3       3       3       3       3       3       3       3
       3       3       3       3       3       3       3       3       3       3
       3       3       3       3       3       3       3       3       3       3
       3       3       3       3       3       3       3       3       3       3
       3       3       3       3       3       3       3       3       3       3
       3       3       3       3       3       3       3       3       3       3
       3       3       3       3       3       3       3       3       3       3
       3       3       3       3       3       3       3       3       3       3
       3       3       3       3       3       3       3       3       3       3
       3       3       3       3       3       3       3       3       3       3
       3       3       3       3       3       3       3       3       3       3
       3       3       3       3       3       3       3       3       3       3
       3       3       3       3       3       3       3       3       3       3
       3       3       3       3       3       3       3       3       3       3
       3       3       3       3       3       3       3       3       3       3
       3       3       3       3       3       3       3       3       3       3
       3       3       3       3       3       3       3       3       3       3
       3       3       3       3       3       3       3       3       3       3
       3       3       3       3       3       3       3       3       3       3
       3       3       3       3       3       3       3       3       3       3
       3       3       3       3       3       3       3       3       3       3
       3       3       3       3       3       3       3       3       3       3
       3       3       3       3       3       3       3       3       3       3
       3       3       3       3       3       3       3       3       3       3
       3       3       3       3       3       3       3       3       3       3
       3       3       3       3       3       3       3       3       3       3
       3       3       3       3       3       3       3       3       3       3
       3       3       3       3       3       3       3       3       3       3
       3       3       3       3       3       3       3       3       3       3
       3       3       3       3       3       3       3       3       3       3
       3       3       3       3       3       3       3       3       3       3
       3       3       3       3       3       3       3       3       3       3
       3       3       3       3       3       3       3       3       3       3
       3       3       3       3       3       3       3       3       3       3
       3       3       3       3       3       3       3       3       3       3
       3       3       3       3       3       3       3       3       3       3
       3       3       3       3       3       3       3       3       3       3
       3       3       3       3       3       3       3       3       3       3
       3       3       3       3       3       3       3       3       3       3
       3       3       3       3       3       3       3       3       3       3
       3       3       3       3       3       3       3       3       3       3
       3       3       3       3       3       3       3       3       3       3
       3       3       3       3       3       3       3       3       3       3
       3       3       3       3       3       3       3       3       3       3
       3       3       3       3       3       3       3       3       3       3
       3       3       3       3       3       3       3       3       3       3
       3       3       3       3       3       3       3       3       3       3
       3       3       3       3
%FLAG BOX_DIMENSIONS                                                            
%FORMAT(5E16.8)                                                                 
  9.00000000E+01  9.23446160E+01  9.89602620E+01  9.77143280E+01
%FLAG RADIUS_SET                                                                
%FORMAT(1a80)                                                                   
modified Bondi radii (mbondi)                                                   
%FLAG RADII                                                                     
%FORMAT(5E16.8)                                                                 
  1.55000000E+00  1.70000000E+00  1.50000000E+00  1.70000000E+00  1.55000000E+00
  1.50000000E+00  1.70000000E+00  1.55000000E+00  1.50000000E+00  1.70000000E+00
  1.50000000E+00  1.70000000E+00  1.50000000E+00  1.70000000E+00  1.50000000E+00
  1.70000000E+00  1.70000000E+00  1.70000000E+00  1.70000000E+00  1.70000000E+00
  1.70000000E+00  1.30000000E+00  1.30000000E+00  1.30000000E+00  1.30000000E+00
  1.30000000E+00  1.30000000E+00  1.30000000E+00  1.30000000E+00  1.30000000E+00
  1.30000000E+00  1.30000000E+00  1.30000000E+00  1.30000000E+00  1.30000000E+00
  1.30000000E+00  1.30000000E+00  1.30000000E+00  1.30000000E+00  1.50000000E+00
  1.50000000E+00  1.50000000E+00  8.00000000E-01  8.00000000E-01  1.50000000E+00
  8.00000000E-01  8.00000000E-01  1.50000000E+00  8.00000000E-01  8.00000000E-01
  1.50000000E+00  8.00000000E-01  8.00000000E-01  1.50000000E+00  8.00000000E-01
  8.00000000E-01  1.50000000E+00  8.00000000E-01  8.00000000E-01  1.50000000E+00
  8.00000000E-01  8.00000000E-01  1.50000000E+00  8.00000000E-01  8.00000000E-01
  1.50000000E+00  8.00000000E-01  8.00000000E-01  1.50000000E+00  8.00000000E-01
  8.00000000E-01  1.50000000E+00  8.00000000E-01  8.00000000E-01  1.50000000E+00
  8.00000000E-01  8.00000000E-01  1.50000000E+00  8.00000000E-01  8.00000000E-01
  1.50000000E+00  8.00000000E-01  8.00000000E-01  1.50000000E+00  8.00000000E-01
  8.00000000E-01  1.50000000E+00  8.00000000E-01  8.00000000E-01  1.50000000E+00
  8.00000000E-01  8.00000000E-01  1.50000000E+00  8.00000000E-01  8.00000000E-01
  1.50000000E+00  8.00000000E-01  8.00000000E-01  1.50000000E+00  8.00000000E-01
  8.00000000E-01  1.50000000E+00  8.00000000E-01  8.00000000E-01  1.50000000E+00
  8.00000000E-01  8.00000000E-01  1.50000000E+00  8.00000000E-01  8.00000000E-01
  1.50000000E+00  8.00000000E-01  8.00000000E-01  1.50000000E+00  8.00000000E-01
  8.00000000E-01  1.50000000E+00  8.00000000E-01  8.00000000E-01  1.50000000E+00
  8.00000000E-01  8.00000000E-01  1.50000000E+00  8.00000000E-01  8.00000000E-01
  1.50000000E+00  8.00000000E-01  8.00000000E-01  1.50000000E+00  8.00000000E-01
  8.00000000E-01  1.50000000E+00  8.00000000E-01  8.00000000E-01  1.50000000E+00
  8.00000000E-01  8.00000000E-01  1.50000000E+00  8.00000000E-01  8.00000000E-01
  1.50000000E+00  8.00000000E-01  8.00000000E-01  1.50000000E+00  8.00000000E-01
  8.00000000E-01  1.50000000E+00  8.00000000E-01  8.00000000E-01  1.50000000E+00
  8.00000000E-01  8.00000000E-01  1.50000000E+00  8.00000000E-01  8.00000000E-01
  1.50000000E+00  8.00000000E-01  8.00000000E-01  1.50000000E+00  8.00000000E-01
  8.00000000E-01  1.50000000E+00  8.00000000E-01  8.00000000E-01  1.50000000E+00
  8.00000000E-01  8.00000000E-01  1.50000000E+00  8.00000000E-01  8.00000000E-01
  1.50000000E+00  8.00000000E-01  8.00000000E-01  1.50000000E+00  8.00000000E-01
  8.00000000E-01  1.50000000E+00  8.00000000E-01  8.00000000E-01  1.50000000E+00
  8.00000000E-01  8.00000000E-01  1.50000000E+00  8.00000000E-01  8.00000000E-01
  1.50000000E+00  8.00000000E-01  8.00000000E-01  1.50000000E+00  8.00000000E-01
  8.00000000E-01  1.50000000E+00  8.00000000E-01  8.00000000E-01  1.50000000E+00
  8.00000000E-01  8.00000000E-01  1.50000000E+00  8.00000000E-01  8.00000000E-01
  1.50000000E+00  8.00000000E-01  8.00000000E-01  1.50000000E+00  8.00000000E-01
  8.00000000E-01  1.50000000E+00  8.00000000E-01  8.00000000E-01  1.50000000E+00
  8.00000000E-01  8.00000000E-01  1.50000000E+00  8.00000000E-01  8.00000000E-01
  1.50000000E+00  8.00000000E-01  8.00000000E-01  1.50000000E+00  8.00000000E-01
  8.00000000E-01  1.50000000E+00  8.00000000E-01  8.00000000E-01  1.50000000E+00
  8.00000000E-01  8.00000000E-01  1.50000000E+00  8.00000000E-01  8.00000000E-01
  1.50000000E+00  8.00000000E-01  8.00000000E-01  1.50000000E+00  8.00000000E-01
  8.00000000E-01  1.50000000E+00  8.00000000E-01  8.00000000E-01  1.50000000E+00
  8.00000000E-01  8.00000000E-01  1.50000000E+00  8.00000000E-01  8.00000000E-01
  1.50000000E+00  8.00000000E-01  8.00000000E-01  1.50000000E+00  8.00000000E-01
  8.00000000E-01  1.50000000E+00  8.00000000E-01  8.00000000E-01  1.50000000E+00
  8.00000000E-01  8.00000000E-01  1.50000000E+00  8.00000000E-01  8.00000000E-01
  1.50000000E+00  8.00000000E-01  8.00000000E-01  1.50000000E+00  8.00000000E-01
  8.00000000E-01  1.50000000E+00  8.00000000E-01  8.00000000E-01  1.50000000E+00
  8.00000000E-01  8.00000000E-01  1.50000000E+00  8.00000000E-01  8.00000000E-01
  1.50000000E+00  8.00000000E-01  8.00000000E-01  1.50000000E+00  8.00000000E-01
  8.00000000E-01  1.50000000E+00  8.00000000E-01  8.00000000E-01  1.50000000E+00
  8.00000000E-01  8.00000000E-01  1.50000000E+00  8.00000000E-01  8.00000000E-01
  1.50000000E+00  8.00000000E-01  8.00000000E-01  1.50000000E+00  8.00000000E-01
  8.00000000E-01  1.50000000E+00  8.00000000E-01  8.00000000E-01  1.50000000E+00
  8.00000000E-01  8.00000000E-01  1.50000000E+00  8.00000000E-01  8.00000000E-01
  1.50000000E+00  8.00000000E-01  8.00000000E-01  1.50000000E+00  8.00000000E-01
  8.00000000E-01  1.50000000E+00  8.00000000E-01  8.00000000E-01  1.50000000E+00
  8.00000000E-01  8.00000000E-01  1.50000000E+00  8.00000000E-01  8.00000000E-01
  1.50000000E+00  8.00000000E-01  8.00000000E-01  1.50000000E+00  8.00000000E-01
  8.00000000E-01  1.50000000E+00  8.00000000E-01  8.00000000E-01  1.50000000E+00
  8.00000000E-01  8.00000000E-01  1.50000000E+00  8.00000000E-01  8.00000000E-01
  1.50000000E+00  8.00000000E-01  8.00000000E-01  1.50000000E+00  8.00000000E-01
  8.00000000E-01  1.50000000E+00  8.00000000E-01  8.00000000E-01  1.50000000E+00
  8.00000000E-01  8.00000000E-01  1.50000000E+00  8.00000000E-01  8.00000000E-01
  1.50000000E+00  8.00000000E-01  8.00000000E-01  1.50000000E+00  8.00000000E-01
  8.00000000E-01  1.50000000E+00  8.00000000E-01  8.00000000E-01  1.50000000E+00
  8.00000000E-01  8.00000000E-01  1.50000000E+00  8.00000000E-01  8.00000000E-01
  1.50000000E+00  8.00000000E-01  8.00000000E-01  1.50000000E+00  8.00000000E-01
  8.00000000E-01  1.50000000E+00  8.00000000E-01  8.00000000E-01  1.50000000E+00
  8.00000000E-01  8.00000000E-01  1.50000000E+00  8.00000000E-01  8.00000000E-01
  1.50000000E+00  8.00000000E-01  8.00000000E-01  1.50000000E+00  8.00000000E-01
  8.00000000E-01  1.50000000E+00  8.00000000E-01  8.00000000E-01  1.50000000E+00
  8.00000000E-01  8.00000000E-01  1.50000000E+00  8.00000000E-01  8.00000000E-01
  1.50000000E+00  8.00000000E-01  8.00000000E-01  1.50000000E+00  8.00000000E-01
  8.00000000E-01  1.50000000E+00  8.00000000E-01  8.00000000E-01  1.50000000E+00
  8.00000000E-01  8.00000000E-01  1.50000000E+00  8.00000000E-01  8.00000000E-01
  1.50000000E+00  8.00000000E-01  8.00000000E-01  1.50000000E+00  8.00000000E-01
  8.00000000E-01  1.50000000E+00  8.00000000E-01  8.00000000E-01  1.50000000E+00
  8.00000000E-01  8.00000000E-01  1.50000000E+00  8.00000000E-01  8.00000000E-01
  1.50000000E+00  8.00000000E-01  8.00000000E-01  1.50000000E+00  8.00000000E-01
  8.00000000E-01  1.50000000E+00  8.00000000E-01  8.00000000E-01  1.50000000E+00
  8.00000000E-01  8.00000000E-01  1.50000000E+00  8.00000000E-01  8.00000000E-01
  1.50000000E+00  8.00000000E-01  8.00000000E-01  1.50000000E+00  8.00000000E-01
  8.00000000E-01  1.50000000E+00  8.00000000E-01  8.00000000E-01  1.50000000E+00
  8.00000000E-01  8.00000000E-01  1.50000000E+00  8.00000000E-01  8.00000000E-01
  1.50000000E+00  8.00000000E-01  8.00000000E-01  1.50000000E+00  8.00000000E-01
  8.00000000E-01  1.50000000E+00  8.00000000E-01  8.00000000E-01  1.50000000E+00
  8.00000000E-01  8.00000000E-01  1.50000000E+00  8.00000000E-01  8.00000000E-01
  1.50000000E+00  8.00000000E-01  8.00000000E-01  1.50000000E+00  8.00000000E-01
  8.00000000E-01  1.50000000E+00  8.00000000E-01  8.00000000E-01  1.50000000E+00
  8.00000000E-01  8.00000000E-01  1.50000000E+00  8.00000000E-01  8.00000000E-01
  1.50000000E+00  8.00000000E-01  8.00000000E-01  1.50000000E+00  8.00000000E-01
  8.00000000E-01  1.50000000E+00  8.00000000E-01  8.00000000E-01  1.50000000E+00
  8.00000000E-01  8.00000000E-01  1.50000000E+00  8.00000000E-01  8.00000000E-01
  1.50000000E+00  8.00000000E-01  8.00000000E-01  1.50000000E+00  8.00000000E-01
  8.00000000E-01  1.50000000E+00  8.00000000E-01  8.00000000E-01  1.50000000E+00
  8.00000000E-01  8.00000000E-01  1.50000000E+00  8.00000000E-01  8.00000000E-01
  1.50000000E+00  8.00000000E-01  8.00000000E-01  1.50000000E+00  8.00000000E-01
  8.00000000E-01  1.50000000E+00  8.00000000E-01  8.00000000E-01  1.50000000E+00
  8.00000000E-01  8.00000000E-01  1.50000000E+00  8.00000000E-01  8.00000000E-01
  1.50000000E+00  8.00000000E-01  8.00000000E-01  1.50000000E+00  8.00000000E-01
  8.00000000E-01  1.50000000E+00  8.00000000E-01  8.00000000E-01  1.50000000E+00
  8.00000000E-01  8.00000000E-01  1.50000000E+00  8.00000000E-01  8.00000000E-01
  1.50000000E+00  8.00000000E-01  8.00000000E-01  1.50000000E+00  8.00000000E-01
  8.00000000E-01  1.50000000E+00  8.00000000E-01  8.00000000E-01  1.50000000E+00
  8.00000000E-01  8.00000000E-01  1.50000000E+00  8.00000000E-01  8.00000000E-01
  1.50000000E+00  8.00000000E-01  8.00000000E-01  1.50000000E+00  8.00000000E-01
  8.00000000E-01  1.50000000E+00  8.00000000E-01  8.00000000E-01  1.50000000E+00
  8.00000000E-01  8.00000000E-01  1.50000000E+00  8.00000000E-01  8.00000000E-01
  1.50000000E+00  8.00000000E-01  8.00000000E-01  1.50000000E+00  8.00000000E-01
  8.00000000E-01  1.50000000E+00  8.00000000E-01  8.00000000E-01  1.50000000E+00
  8.00000000E-01  8.00000000E-01  1.50000000E+00  8.00000000E-01  8.00000000E-01
  1.50000000E+00  8.00000000E-01  8.00000000E-01  1.50000000E+00  8.00000000E-01
  8.00000000E-01  1.50000000E+00  8.00000000E-01  8.00000000E-01  1.50000000E+00
  8.00000000E-01  8.00000000E-01  1.50000000E+00  8.00000000E-01  8.00000000E-01
  1.50000000E+00  8.00000000E-01  8.00000000E-01  1.50000000E+00  8.00000000E-01
  8.00000000E-01  1.50000000E+00  8.00000000E-01  8.00000000E-01  1.50000000E+00
  8.00000000E-01  8.00000000E-01  1.50000000E+00  8.00000000E-01  8.00000000E-01
  1.50000000E+00  8.00000000E-01  8.00000000E-01  1.50000000E+00  8.00000000E-01
  8.00000000E-01  1.50000000E+00  8.00000000E-01  8.00000000E-01  1.50000000E+00
  8.00000000E-01  8.00000000E-01  1.50000000E+00  8.00000000E-01  8.00000000E-01
  1.50000000E+00  8.00000000E-01  8.00000000E-01  1.50000000E+00  8.00000000E-01
  8.00000000E-01  1.50000000E+00  8.00000000E-01  8.00000000E-01  1.50000000E+00
  8.00000000E-01  8.00000000E-01  1.50000000E+00  8.00000000E-01  8.00000000E-01
  1.50000000E+00  8.00000000E-01  8.00000000E-01  1.50000000E+00  8.00000000E-01
  8.00000000E-01  1.50000000E+00  8.00000000E-01  8.00000000E-01  1.50000000E+00
  8.00000000E-01  8.00000000E-01  1.50000000E+00  8.00000000E-01  8.00000000E-01
  1.50000000E+00  8.00000000E-01  8.00000000E-01  1.50000000E+00  8.00000000E-01
  8.00000000E-01  1.50000000E+00  8.00000000E-01  8.00000000E-01  1.50000000E+00
  8.00000000E-01  8.00000000E-01  1.50000000E+00  8.00000000E-01  8.00000000E-01
  1.50000000E+00  8.00000000E-01  8.00000000E-01  1.50000000E+00  8.00000000E-01
  8.00000000E-01  1.50000000E+00  8.00000000E-01  8.00000000E-01  1.50000000E+00
  8.00000000E-01  8.00000000E-01  1.50000000E+00  8.00000000E-01  8.00000000E-01
  1.50000000E+00  8.00000000E-01  8.00000000E-01  1.50000000E+00  8.00000000E-01
  8.00000000E-01  1.50000000E+00  8.00000000E-01  8.00000000E-01  1.50000000E+00
  8.00000000E-01  8.00000000E-01  1.50000000E+00  8.00000000E-01  8.00000000E-01
  1.50000000E+00  8.00000000E-01  8.00000000E-01  1.50000000E+00  8.00000000E-01
  8.00000000E-01  1.50000000E+00  8.00000000E-01  8.00000000E-01  1.50000000E+00
  8.00000000E-01  8.00000000E-01  1.50000000E+00  8.00000000E-01  8.00000000E-01
  1.50000000E+00  8.00000000E-01  8.00000000E-01  1.50000000E+00  8.00000000E-01
  8.00000000E-01  1.50000000E+00  8.00000000E-01  8.00000000E-01  1.50000000E+00
  8.00000000E-01  8.00000000E-01  1.50000000E+00  8.00000000E-01  8.00000000E-01
  1.50000000E+00  8.00000000E-01  8.00000000E-01  1.50000000E+00  8.00000000E-01
  8.00000000E-01  1.50000000E+00  8.00000000E-01  8.00000000E-01  1.50000000E+00
  8.00000000E-01  8.00000000E-01  1.50000000E+00  8.00000000E-01  8.00000000E-01
  1.50000000E+00  8.00000000E-01  8.00000000E-01  1.50000000E+00  8.00000000E-01
  8.00000000E-01  1.50000000E+00  8.00000000E-01  8.00000000E-01  1.50000000E+00
  8.00000000E-01  8.00000000E-01  1.50000000E+00  8.00000000E-01  8.00000000E-01
  1.50000000E+00  8.00000000E-01  8.00000000E-01  1.50000000E+00  8.00000000E-01
  8.00000000E-01  1.50000000E+00  8.00000000E-01  8.00000000E-01  1.50000000E+00
  8.00000000E-01  8.00000000E-01  1.50000000E+00  8.00000000E-01  8.00000000E-01
  1.50000000E+00  8.00000000E-01  8.00000000E-01  1.50000000E+00  8.00000000E-01
  8.00000000E-01  1.50000000E+00  8.00000000E-01  8.00000000E-01  1.50000000E+00
  8.00000000E-01  8.00000000E-01  1.50000000E+00  8.00000000E-01  8.00000000E-01
  1.50000000E+00  8.00000000E-01  8.00000000E-01  1.50000000E+00  8.00000000E-01
  8.00000000E-01  1.50000000E+00  8.00000000E-01  8.00000000E-01  1.50000000E+00
  8.00000000E-01  8.00000000E-01  1.50000000E+00  8.00000000E-01  8.00000000E-01
  1.50000000E+00  8.00000000E-01  8.00000000E-01  1.50000000E+00  8.00000000E-01
  8.00000000E-01  1.50000000E+00  8.00000000E-01  8.00000000E-01  1.50000000E+00
  8.00000000E-01  8.00000000E-01  1.50000000E+00  8.00000000E-01  8.00000000E-01
  1.50000000E+00  8.00000000E-01  8.00000000E-01  1.50000000E+00  8.00000000E-01
  8.00000000E-01  1.50000000E+00  8.00000000E-01  8.00000000E-01  1.50000000E+00
  8.00000000E-01  8.00000000E-01  1.50000000E+00  8.00000000E-01  8.00000000E-01
  1.50000000E+00  8.00000000E-01  8.00000000E-01  1.50000000E+00  8.00000000E-01
  8.00000000E-01  1.50000000E+00  8.00000000E-01  8.00000000E-01  1.50000000E+00
  8.00000000E-01  8.00000000E-01  1.50000000E+00  8.00000000E-01  8.00000000E-01
  1.50000000E+00  8.00000000E-01  8.00000000E-01  1.50000000E+00  8.00000000E-01
  8.00000000E-01  1.50000000E+00  8.00000000E-01  8.00000000E-01  1.50000000E+00
  8.00000000E-01  8.00000000E-01  1.50000000E+00  8.00000000E-01  8.00000000E-01
  1.50000000E+00  8.00000000E-01  8.00000000E-01  1.50000000E+00  8.00000000E-01
  8.00000000E-01  1.50000000E+00  8.00000000E-01  8.00000000E-01  1.50000000E+00
  8.00000000E-01  8.00000000E-01  1.50000000E+00  8.00000000E-01  8.00000000E-01
  1.50000000E+00  8.00000000E-01  8.00000000E-01  1.50000000E+00  8.00000000E-01
  8.00000000E-01  1.50000000E+00  8.00000000E-01  8.00000000E-01  1.50000000E+00
  8.00000000E-01  8.00000000E-01  1.50000000E+00  8.00000000E-01  8.00000000E-01
  1.50000000E+00  8.00000000E-01  8.00000000E-01  1.50000000E+00  8.00000000E-01
  8.00000000E-01  1.50000000E+00  8.00000000E-01  8.00000000E-01  1.50000000E+00
  8.00000000E-01  8.00000000E-01  1.50000000E+00  8.00000000E-01  8.00000000E-01
  1.50000000E+00  8.00000000E-01  8.00000000E-01  1.50000000E+00  8.00000000E-01
  8.00000000E-01  1.50000000E+00  8.00000000E-01  8.00000000E-01  1.50000000E+00
  8.00000000E-01  8.00000000E-01  1.50000000E+00  8.00000000E-01  8.00000000E-01
  1.50000000E+00  8.00000000E-01  8.00000000E-01  1.50000000E+00  8.00000000E-01
  8.00000000E-01  1.50000000E+00  8.00000000E-01  8.00000000E-01  1.50000000E+00
  8.00000000E-01  8.00000000E-01  1.50000000E+00  8.00000000E-01  8.00000000E-01
  1.50000000E+00  8.00000000E-01  8.00000000E-01  1.50000000E+00  8.00000000E-01
  8.00000000E-01  1.50000000E+00  8.00000000E-01  8.00000000E-01  1.50000000E+00
  8.00000000E-01  8.00000000E-01  1.50000000E+00  8.00000000E-01  8.00000000E-01
  1.50000000E+00  8.00000000E-01  8.00000000E-01  1.50000000E+00  8.00000000E-01
  8.00000000E-01  1.50000000E+00  8.00000000E-01  8.00000000E-01  1.50000000E+00
  8.00000000E-01  8.00000000E-01  1.50000000E+00  8.00000000E-01  8.00000000E-01
  1.50000000E+00  8.00000000E-01  8.00000000E-01  1.50000000E+00  8.00000000E-01
  8.00000000E-01  1.50000000E+00  8.00000000E-01  8.00000000E-01  1.50000000E+00
  8.00000000E-01  8.00000000E-01  1.50000000E+00  8.00000000E-01  8.00000000E-01
  1.50000000E+00  8.00000000E-01  8.00000000E-01  1.50000000E+00  8.00000000E-01
  8.00000000E-01  1.50000000E+00  8.00000000E-01  8.00000000E-01  1.50000000E+00
  8.00000000E-01  8.00000000E-01  1.50000000E+00  8.00000000E-01  8.00000000E-01
  1.50000000E+00  8.00000000E-01  8.00000000E-01  1.50000000E+00  8.00000000E-01
  8.00000000E-01  1.50000000E+00  8.00000000E-01  8.00000000E-01  1.50000000E+00
  8.00000000E-01  8.00000000E-01  1.50000000E+00  8.00000000E-01  8.00000000E-01
  1.50000000E+00  8.00000000E-01  8.00000000E-01  1.50000000E+00  8.00000000E-01
  8.00000000E-01  1.50000000E+00  8.00000000E-01  8.00000000E-01  1.50000000E+00
  8.00000000E-01  8.00000000E-01  1.50000000E+00  8.00000000E-01  8.00000000E-01
  1.50000000E+00  8.00000000E-01  8.00000000E-01  1.50000000E+00  8.00000000E-01
  8.00000000E-01  1.50000000E+00  8.00000000E-01  8.00000000E-01  1.50000000E+00
  8.00000000E-01  8.00000000E-01  1.50000000E+00  8.00000000E-01  8.00000000E-01
  1.50000000E+00  8.00000000E-01  8.00000000E-01  1.50000000E+00  8.00000000E-01
  8.00000000E-01  1.50000000E+00  8.00000000E-01  8.00000000E-01  1.50000000E+00
  8.00000000E-01  8.00000000E-01  1.50000000E+00  8.00000000E-01  8.00000000E-01
  1.50000000E+00  8.00000000E-01  8.00000000E-01  1.50000000E+00  8.00000000E-01
  8.00000000E-01  1.50000000E+00  8.00000000E-01  8.00000000E-01  1.50000000E+00
  8.00000000E-01  8.00000000E-01  1.50000000E+00  8.00000000E-01  8.00000000E-01
  1.50000000E+00  8.00000000E-01  8.00000000E-01  1.50000000E+00  8.00000000E-01
  8.00000000E-01  1.50000000E+00  8.00000000E-01  8.00000000E-01  1.50000000E+00
  8.00000000E-01  8.00000000E-01  1.50000000E+00  8.00000000E-01  8.00000000E-01
  1.50000000E+00  8.00000000E-01  8.00000000E-01  1.50000000E+00  8.00000000E-01
  8.00000000E-01  1.50000000E+00  8.00000000E-01  8.00000000E-01  1.50000000E+00
  8.00000000E-01  8.00000000E-01  1.50000000E+00  8.00000000E-01  8.00000000E-01
  1.50000000E+00  8.00000000E-01  8.00000000E-01  1.50000000E+00  8.00000000E-01
  8.00000000E-01  1.50000000E+00  8.00000000E-01  8.00000000E-01  1.50000000E+00
  8.00000000E-01  8.00000000E-01  1.50000000E+00  8.00000000E-01  8.00000000E-01
  1.50000000E+00  8.00000000E-01  8.00000000E-01  1.50000000E+00  8.00000000E-01
  8.00000000E-01  1.50000000E+00  8.00000000E-01  8.00000000E-01  1.50000000E+00
  8.00000000E-01  8.00000000E-01  1.50000000E+00  8.00000000E-01  8.00000000E-01
  1.50000000E+00  8.00000000E-01  8.00000000E-01  1.50000000E+00  8.00000000E-01
  8.00000000E-01  1.50000000E+00  8.00000000E-01  8.00000000E-01  1.50000000E+00
  8.00000000E-01  8.00000000E-01  1.50000000E+00  8.00000000E-01  8.00000000E-01
  1.50000000E+00  8.00000000E-01  8.00000000E-01  1.50000000E+00  8.00000000E-01
  8.00000000E-01  1.50000000E+00  8.00000000E-01  8.00000000E-01  1.50000000E+00
  8.00000000E-01  8.00000000E-01  1.50000000E+00  8.00000000E-01  8.00000000E-01
  1.50000000E+00  8.00000000E-01  8.00000000E-01  1.50000000E+00  8.00000000E-01
  8.00000000E-01  1.50000000E+00  8.00000000E-01  8.00000000E-01  1.50000000E+00
  8.00000000E-01  8.00000000E-01  1.50000000E+00  8.00000000E-01  8.00000000E-01
  1.50000000E+00  8.00000000E-01  8.00000000E-01  1.50000000E+00  8.00000000E-01
  8.00000000E-01  1.50000000E+00  8.00000000E-01  8.00000000E-01  1.50000000E+00
  8.00000000E-01  8.00000000E-01  1.50000000E+00  8.00000000E-01  8.00000000E-01
  1.50000000E+00  8.00000000E-01  8.00000000E-01  1.50000000E+00  8.00000000E-01
  8.00000000E-01  1.50000000E+00  8.00000000E-01  8.00000000E-01  1.50000000E+00
  8.00000000E-01  8.00000000E-01  1.50000000E+00  8.00000000E-01  8.00000000E-01
  1.50000000E+00  8.00000000E-01  8.00000000E-01  1.50000000E+00  8.00000000E-01
  8.00000000E-01  1.50000000E+00  8.00000000E-01  8.00000000E-01  1.50000000E+00
  8.00000000E-01  8.00000000E-01  1.50000000E+00  8.00000000E-01  8.00000000E-01
  1.50000000E+00  8.00000000E-01  8.00000000E-01  1.50000000E+00  8.00000000E-01
  8.00000000E-01  1.50000000E+00  8.00000000E-01  8.00000000E-01  1.50000000E+00
  8.00000000E-01  8.00000000E-01  1.50000000E+00  8.00000000E-01  8.00000000E-01
  1.50000000E+00  8.00000000E-01  8.00000000E-01  1.50000000E+00  8.00000000E-01
  8.00000000E-01  1.50000000E+00  8.00000000E-01  8.00000000E-01  1.50000000E+00
  8.00000000E-01  8.00000000E-01  1.50000000E+00  8.00000000E-01  8.00000000E-01
  1.50000000E+00  8.00000000E-01  8.00000000E-01  1.50000000E+00  8.00000000E-01
  8.00000000E-01  1.50000000E+00  8.00000000E-01  8.00000000E-01  1.50000000E+00
  8.00000000E-01  8.00000000E-01  1.50000000E+00  8.00000000E-01  8.00000000E-01
  1.50000000E+00  8.00000000E-01  8.00000000E-01  1.50000000E+00  8.00000000E-01
  8.00000000E-01  1.50000000E+00  8.00000000E-01  8.00000000E-01  1.50000000E+00
  8.00000000E-01  8.00000000E-01  1.50000000E+00  8.00000000E-01  8.00000000E-01
  1.50000000E+00  8.00000000E-01  8.00000000E-01  1.50000000E+00  8.00000000E-01
  8.00000000E-01  1.50000000E+00  8.00000000E-01  8.00000000E-01  1.50000000E+00
  8.00000000E-01  8.00000000E-01  1.50000000E+00  8.00000000E-01  8.00000000E-01
  1.50000000E+00  8.00000000E-01  8.00000000E-01  1.50000000E+00  8.00000000E-01
  8.00000000E-01  1.50000000E+00  8.00000000E-01  8.00000000E-01  1.50000000E+00
  8.00000000E-01  8.00000000E-01  1.50000000E+00  8.00000000E-01  8.00000000E-01
  1.50000000E+00  8.00000000E-01  8.00000000E-01  1.50000000E+00  8.00000000E-01
  8.00000000E-01  1.50000000E+00  8.00000000E-01  8.00000000E-01  1.50000000E+00
  8.00000000E-01  8.00000000E-01  1.50000000E+00  8.00000000E-01  8.00000000E-01
  1.50000000E+00  8.00000000E-01  8.00000000E-01  1.50000000E+00  8.00000000E-01
  8.00000000E-01  1.50000000E+00  8.00000000E-01  8.00000000E-01  1.50000000E+00
  8.00000000E-01  8.00000000E-01  1.50000000E+00  8.00000000E-01  8.00000000E-01
  1.50000000E+00  8.00000000E-01  8.00000000E-01  1.50000000E+00  8.00000000E-01
  8.00000000E-01  1.50000000E+00  8.00000000E-01  8.00000000E-01  1.50000000E+00
  8.00000000E-01  8.00000000E-01  1.50000000E+00  8.00000000E-01  8.00000000E-01
  1.50000000E+00  8.00000000E-01  8.00000000E-01  1.50000000E+00  8.00000000E-01
  8.00000000E-01  1.50000000E+00  8.00000000E-01  8.00000000E-01  1.50000000E+00
  8.00000000E-01  8.00000000E-01  1.50000000E+00  8.00000000E-01  8.00000000E-01
  1.50000000E+00  8.00000000E-01  8.00000000E-01  1.50000000E+00  8.00000000E-01
  8.00000000E-01  1.50000000E+00  8.00000000E-01  8.00000000E-01  1.50000000E+00
  8.00000000E-01  8.00000000E-01  1.50000000E+00  8.00000000E-01  8.00000000E-01
  1.50000000E+00  8.00000000E-01  8.00000000E-01  1.50000000E+00  8.00000000E-01
  8.00000000E-01  1.50000000E+00  8.00000000E-01  8.00000000E-01  1.50000000E+00
  8.00000000E-01  8.00000000E-01  1.50000000E+00  8.00000000E-01  8.00000000E-01
  1.50000000E+00  8.00000000E-01  8.00000000E-01  1.50000000E+00  8.00000000E-01
  8.00000000E-01  1.50000000E+00  8.00000000E-01  8.00000000E-01  1.50000000E+00
  8.00000000E-01  8.00000000E-01  1.50000000E+00  8.00000000E-01  8.00000000E-01
  1.50000000E+00  8.00000000E-01  8.00000000E-01  1.50000000E+00  8.00000000E-01
  8.00000000E-01  1.50000000E+00  8.00000000E-01  8.00000000E-01  1.50000000E+00
  8.00000000E-01  8.00000000E-01  1.50000000E+00  8.00000000E-01  8.00000000E-01
  1.50000000E+00  8.00000000E-01  8.00000000E-01  1.50000000E+00  8.00000000E-01
  8.00000000E-01  1.50000000E+00  8.00000000E-01  8.00000000E-01  1.50000000E+00
  8.00000000E-01  8.00000000E-01  1.50000000E+00  8.00000000E-01  8.00000000E-01
  1.50000000E+00  8.00000000E-01  8.00000000E-01  1.50000000E+00  8.00000000E-01
  8.00000000E-01  1.50000000E+00  8.00000000E-01  8.00000000E-01  1.50000000E+00
  8.00000000E-01  8.00000000E-01  1.50000000E+00  8.00000000E-01  8.00000000E-01
  1.50000000E+00  8.00000000E-01  8.00000000E-01  1.50000000E+00  8.00000000E-01
  8.00000000E-01  1.50000000E+00  8.00000000E-01  8.00000000E-01  1.50000000E+00
  8.00000000E-01  8.00000000E-01  1.50000000E+00  8.00000000E-01  8.00000000E-01
  1.50000000E+00  8.00000000E-01  8.00000000E-01  1.50000000E+00  8.00000000E-01
  8.00000000E-01  1.50000000E+00  8.00000000E-01  8.00000000E-01  1.50000000E+00
  8.00000000E-01  8.00000000E-01  1.50000000E+00  8.00000000E-01  8.00000000E-01
  1.50000000E+00  8.00000000E-01  8.00000000E-01  1.50000000E+00  8.00000000E-01
  8.00000000E-01  1.50000000E+00  8.00000000E-01  8.00000000E-01  1.50000000E+00
  8.00000000E-01  8.00000000E-01  1.50000000E+00  8.00000000E-01  8.00000000E-01
  1.50000000E+00  8.00000000E-01  8.00000000E-01  1.50000000E+00  8.00000000E-01
  8.00000000E-01  1.50000000E+00  8.00000000E-01  8.00000000E-01  1.50000000E+00
  8.00000000E-01  8.00000000E-01  1.50000000E+00  8.00000000E-01  8.00000000E-01
  1.50000000E+00  8.00000000E-01  8.00000000E-01  1.50000000E+00  8.00000000E-01
  8.00000000E-01  1.50000000E+00  8.00000000E-01  8.00000000E-01  1.50000000E+00
  8.00000000E-01  8.00000000E-01  1.50000000E+00  8.00000000E-01  8.00000000E-01
  1.50000000E+00  8.00000000E-01  8.00000000E-01  1.50000000E+00  8.00000000E-01
  8.00000000E-01  1.50000000E+00  8.00000000E-01  8.00000000E-01  1.50000000E+00
  8.00000000E-01  8.00000000E-01  1.50000000E+00  8.00000000E-01  8.00000000E-01
  1.50000000E+00  8.00000000E-01  8.00000000E-01  1.50000000E+00  8.00000000E-01
  8.00000000E-01  1.50000000E+00  8.00000000E-01  8.00000000E-01  1.50000000E+00
  8.00000000E-01  8.00000000E-01  1.50000000E+00  8.00000000E-01  8.00000000E-01
  1.50000000E+00  8.00000000E-01  8.00000000E-01  1.50000000E+00  8.00000000E-01
  8.00000000E-01  1.50000000E+00  8.00000000E-01  8.00000000E-01  1.50000000E+00
  8.00000000E-01  8.00000000E-01  1.50000000E+00  8.00000000E-01  8.00000000E-01
  1.50000000E+00  8.00000000E-01  8.00000000E-01  1.50000000E+00  8.00000000E-01
  8.00000000E-01  1.50000000E+00  8.00000000E-01  8.00000000E-01  1.50000000E+00
  8.00000000E-01  8.00000000E-01  1.50000000E+00  8.00000000E-01  8.00000000E-01
  1.50000000E+00  8.00000000E-01  8.00000000E-01  1.50000000E+00  8.00000000E-01
  8.00000000E-01  1.50000000E+00  8.00000000E-01  8.00000000E-01  1.50000000E+00
  8.00000000E-01  8.00000000E-01  1.50000000E+00  8.00000000E-01  8.00000000E-01
  1.50000000E+00  8.00000000E-01  8.00000000E-01  1.50000000E+00  8.00000000E-01
  8.00000000E-01  1.50000000E+00  8.00000000E-01  8.00000000E-01  1.50000000E+00
  8.00000000E-01  8.00000000E-01  1.50000000E+00  8.00000000E-01  8.00000000E-01
  1.50000000E+00  8.00000000E-01  8.00000000E-01  1.50000000E+00  8.00000000E-01
  8.00000000E-01  1.50000000E+00  8.00000000E-01  8.00000000E-01  1.50000000E+00
  8.00000000E-01  8.00000000E-01  1.50000000E+00  8.00000000E-01  8.00000000E-01
  1.50000000E+00  8.00000000E-01  8.00000000E-01  1.50000000E+00  8.00000000E-01
  8.00000000E-01  1.50000000E+00  8.00000000E-01  8.00000000E-01  1.50000000E+00
  8.00000000E-01  8.00000000E-01  1.50000000E+00  8.00000000E-01  8.00000000E-01
  1.50000000E+00  8.00000000E-01  8.00000000E-01  1.50000000E+00  8.00000000E-01
  8.00000000E-01  1.50000000E+00  8.00000000E-01  8.00000000E-01  1.50000000E+00
  8.00000000E-01  8.00000000E-01  1.50000000E+00  8.00000000E-01  8.00000000E-01
  1.50000000E+00  8.00000000E-01  8.00000000E-01  1.50000000E+00  8.00000000E-01
  8.00000000E-01  1.50000000E+00  8.00000000E-01  8.00000000E-01  1.50000000E+00
  8.00000000E-01  8.00000000E-01  1.50000000E+00  8.00000000E-01  8.00000000E-01
  1.50000000E+00  8.00000000E-01  8.00000000E-01  1.50000000E+00  8.00000000E-01
  8.00000000E-01  1.50000000E+00  8.00000000E-01  8.00000000E-01  1.50000000E+00
  8.00000000E-01  8.00000000E-01  1.50000000E+00  8.00000000E-01  8.00000000E-01
  1.50000000E+00  8.00000000E-01  8.00000000E-01  1.50000000E+00  8.00000000E-01
  8.00000000E-01  1.50000000E+00  8.00000000E-01  8.00000000E-01  1.50000000E+00
  8.00000000E-01  8.00000000E-01  1.50000000E+00  8.00000000E-01  8.00000000E-01
  1.50000000E+00  8.00000000E-01  8.00000000E-01  1.50000000E+00  8.00000000E-01
  8.00000000E-01  1.50000000E+00  8.00000000E-01  8.00000000E-01  1.50000000E+00
  8.00000000E-01  8.00000000E-01  1.50000000E+00  8.00000000E-01  8.00000000E-01
  1.50000000E+00  8.00000000E-01  8.00000000E-01  1.50000000E+00  8.00000000E-01
  8.00000000E-01  1.50000000E+00  8.00000000E-01  8.00000000E-01  1.50000000E+00
  8.00000000E-01  8.00000000E-01  1.50000000E+00  8.00000000E-01  8.00000000E-01
  1.50000000E+00  8.00000000E-01  8.00000000E-01  1.50000000E+00  8.00000000E-01
  8.00000000E-01  1.50000000E+00  8.00000000E-01  8.00000000E-01  1.50000000E+00
  8.00000000E-01  8.00000000E-01  1.50000000E+00  8.00000000E-01  8.00000000E-01
  1.50000000E+00  8.00000000E-01  8.00000000E-01  1.50000000E+00  8.00000000E-01
  8.00000000E-01  1.50000000E+00  8.00000000E-01  8.00000000E-01  1.50000000E+00
  8.00000000E-01  8.00000000E-01  1.50000000E+00  8.00000000E-01  8.00000000E-01
  1.50000000E+00  8.00000000E-01  8.00000000E-01  1.50000000E+00  8.00000000E-01
  8.00000000E-01  1.50000000E+00  8.00000000E-01  8.00000000E-01  1.50000000E+00
  8.00000000E-01  8.00000000E-01  1.50000000E+00  8.00000000E-01  8.00000000E-01
  1.50000000E+00  8.00000000E-01  8.00000000E-01  1.50000000E+00  8.00000000E-01
  8.00000000E-01  1.50000000E+00  8.00000000E-01  8.00000000E-01  1.50000000E+00
  8.00000000E-01  8.00000000E-01  1.50000000E+00  8.00000000E-01  8.00000000E-01
  1.50000000E+00  8.00000000E-01  8.00000000E-01  1.50000000E+00  8.00000000E-01
  8.00000000E-01  1.50000000E+00  8.00000000E-01  8.00000000E-01  1.50000000E+00
  8.00000000E-01  8.00000000E-01  1.50000000E+00  8.00000000E-01  8.00000000E-01
  1.50000000E+00  8.00000000E-01  8.00000000E-01  1.50000000E+00  8.00000000E-01
  8.00000000E-01  1.50000000E+00  8.00000000E-01  8.00000000E-01  1.50000000E+00
  8.00000000E-01  8.00000000E-01  1.50000000E+00  8.00000000E-01  8.00000000E-01
  1.50000000E+00  8.00000000E-01  8.00000000E-01  1.50000000E+00  8.00000000E-01
  8.00000000E-01  1.50000000E+00  8.00000000E-01  8.00000000E-01  1.50000000E+00
  8.00000000E-01  8.00000000E-01  1.50000000E+00  8.00000000E-01  8.00000000E-01
  1.50000000E+00  8.00000000E-01  8.00000000E-01  1.50000000E+00  8.00000000E-01
  8.00000000E-01  1.50000000E+00  8.00000000E-01  8.00000000E-01  1.50000000E+00
  8.00000000E-01  8.00000000E-01  1.50000000E+00  8.00000000E-01  8.00000000E-01
  1.50000000E+00  8.00000000E-01  8.00000000E-01  1.50000000E+00  8.00000000E-01
  8.00000000E-01  1.50000000E+00  8.00000000E-01  8.00000000E-01  1.50000000E+00
  8.00000000E-01  8.00000000E-01  1.50000000E+00  8.00000000E-01  8.00000000E-01
  1.50000000E+00  8.00000000E-01  8.00000000E-01  1.50000000E+00  8.00000000E-01
  8.00000000E-01  1.50000000E+00  8.00000000E-01  8.00000000E-01  1.50000000E+00
  8.00000000E-01  8.00000000E-01  1.50000000E+00  8.00000000E-01  8.00000000E-01
  1.50000000E+00  8.00000000E-01  8.00000000E-01  1.50000000E+00  8.00000000E-01
  8.00000000E-01  1.50000000E+00  8.00000000E-01  8.00000000E-01  1.50000000E+00
  8.00000000E-01  8.00000000E-01  1.50000000E+00  8.00000000E-01  8.00000000E-01
  1.50000000E+00  8.00000000E-01  8.00000000E-01  1.50000000E+00  8.00000000E-01
  8.00000000E-01  1.50000000E+00  8.00000000E-01  8.00000000E-01  1.50000000E+00
  8.00000000E-01  8.00000000E-01  1.50000000E+00  8.00000000E-01  8.00000000E-01
  1.50000000E+00  8.00000000E-01  8.00000000E-01  1.50000000E+00  8.00000000E-01
  8.00000000E-01  1.50000000E+00  8.00000000E-01  8.00000000E-01  1.50000000E+00
  8.00000000E-01  8.00000000E-01  1.50000000E+00  8.00000000E-01  8.00000000E-01
  1.50000000E+00  8.00000000E-01  8.00000000E-01  1.50000000E+00  8.00000000E-01
  8.00000000E-01  1.50000000E+00  8.00000000E-01  8.00000000E-01  1.50000000E+00
  8.00000000E-01  8.00000000E-01  1.50000000E+00  8.00000000E-01  8.00000000E-01
  1.50000000E+00  8.00000000E-01  8.00000000E-01  1.50000000E+00  8.00000000E-01
  8.00000000E-01  1.50000000E+00  8.00000000E-01  8.00000000E-01  1.50000000E+00
  8.00000000E-01  8.00000000E-01  1.50000000E+00  8.00000000E-01  8.00000000E-01
  1.50000000E+00  8.00000000E-01  8.00000000E-01  1.50000000E+00  8.00000000E-01
  8.00000000E-01  1.50000000E+00  8.00000000E-01  8.00000000E-01  1.50000000E+00
  8.00000000E-01  8.00000000E-01  1.50000000E+00  8.00000000E-01  8.00000000E-01
  1.50000000E+00  8.00000000E-01  8.00000000E-01  1.50000000E+00  8.00000000E-01
  8.00000000E-01  1.50000000E+00  8.00000000E-01  8.00000000E-01  1.50000000E+00
  8.00000000E-01  8.00000000E-01  1.50000000E+00  8.00000000E-01  8.00000000E-01
  1.50000000E+00  8.00000000E-01  8.00000000E-01  1.50000000E+00  8.00000000E-01
  8.00000000E-01  1.50000000E+00  8.00000000E-01  8.00000000E-01  1.50000000E+00
  8.00000000E-01  8.00000000E-01  1.50000000E+00  8.00000000E-01  8.00000000E-01
  1.50000000E+00  8.00000000E-01  8.00000000E-01  1.50000000E+00  8.00000000E-01
  8.00000000E-01  1.50000000E+00  8.00000000E-01  8.00000000E-01  1.50000000E+00
  8.00000000E-01  8.00000000E-01  1.50000000E+00  8.00000000E-01  8.00000000E-01
  1.50000000E+00  8.00000000E-01  8.00000000E-01  1.50000000E+00  8.00000000E-01
  8.00000000E-01  1.50000000E+00  8.00000000E-01  8.00000000E-01  1.50000000E+00
  8.00000000E-01  8.00000000E-01  1.50000000E+00  8.00000000E-01  8.00000000E-01
  1.50000000E+00  8.00000000E-01  8.00000000E-01  1.50000000E+00  8.00000000E-01
  8.00000000E-01  1.50000000E+00  8.00000000E-01  8.00000000E-01  1.50000000E+00
  8.00000000E-01  8.00000000E-01  1.50000000E+00  8.00000000E-01  8.00000000E-01
  1.50000000E+00  8.00000000E-01  8.00000000E-01  1.50000000E+00  8.00000000E-01
  8.00000000E-01  1.50000000E+00  8.00000000E-01  8.00000000E-01  1.50000000E+00
  8.00000000E-01  8.00000000E-01  1.50000000E+00  8.00000000E-01  8.00000000E-01
  1.50000000E+00  8.00000000E-01  8.00000000E-01  1.50000000E+00  8.00000000E-01
  8.00000000E-01  1.50000000E+00  8.00000000E-01  8.00000000E-01  1.50000000E+00
  8.00000000E-01  8.00000000E-01  1.50000000E+00  8.00000000E-01  8.00000000E-01
  1.50000000E+00  8.00000000E-01  8.00000000E-01  1.50000000E+00  8.00000000E-01
  8.00000000E-01  1.50000000E+00  8.00000000E-01  8.00000000E-01  1.50000000E+00
  8.00000000E-01  8.00000000E-01  1.50000000E+00  8.00000000E-01  8.00000000E-01
  1.50000000E+00  8.00000000E-01  8.00000000E-01  1.50000000E+00  8.00000000E-01
  8.00000000E-01  1.50000000E+00  8.00000000E-01  8.00000000E-01  1.50000000E+00
  8.00000000E-01  8.00000000E-01  1.50000000E+00  8.00000000E-01  8.00000000E-01
  1.50000000E+00  8.00000000E-01  8.00000000E-01  1.50000000E+00  8.00000000E-01
  8.00000000E-01  1.50000000E+00  8.00000000E-01  8.00000000E-01  1.50000000E+00
  8.00000000E-01  8.00000000E-01  1.50000000E+00  8.00000000E-01  8.00000000E-01
  1.50000000E+00  8.00000000E-01  8.00000000E-01  1.50000000E+00  8.00000000E-01
  8.00000000E-01  1.50000000E+00  8.00000000E-01  8.00000000E-01  1.50000000E+00
  8.00000000E-01  8.00000000E-01  1.50000000E+00  8.00000000E-01  8.00000000E-01
  1.50000000E+00  8.00000000E-01  8.00000000E-01  1.50000000E+00  8.00000000E-01
  8.00000000E-01  1.50000000E+00  8.00000000E-01  8.00000000E-01  1.50000000E+00
  8.00000000E-01  8.00000000E-01  1.50000000E+00  8.00000000E-01  8.00000000E-01
  1.50000000E+00  8.00000000E-01  8.00000000E-01  1.50000000E+00  8.00000000E-01
  8.00000000E-01  1.50000000E+00  8.00000000E-01  8.00000000E-01  1.50000000E+00
  8.00000000E-01  8.00000000E-01  1.50000000E+00  8.00000000E-01  8.00000000E-01
  1.50000000E+00  8.00000000E-01  8.00000000E-01  1.50000000E+00  8.00000000E-01
  8.00000000E-01  1.50000000E+00  8.00000000E-01  8.00000000E-01  1.50000000E+00
  8.00000000E-01  8.00000000E-01  1.50000000E+00  8.00000000E-01  8.00000000E-01
  1.50000000E+00  8.00000000E-01  8.00000000E-01  1.50000000E+00  8.00000000E-01
  8.00000000E-01  1.50000000E+00  8.00000000E-01  8.00000000E-01  1.50000000E+00
  8.00000000E-01  8.00000000E-01  1.50000000E+00  8.00000000E-01  8.00000000E-01
  1.50000000E+00  8.00000000E-01  8.00000000E-01  1.50000000E+00  8.00000000E-01
  8.00000000E-01  1.50000000E+00  8.00000000E-01  8.00000000E-01  1.50000000E+00
  8.00000000E-01  8.00000000E-01  1.50000000E+00  8.00000000E-01  8.00000000E-01
  1.50000000E+00  8.00000000E-01  8.00000000E-01  1.50000000E+00  8.00000000E-01
  8.00000000E-01  1.50000000E+00  8.00000000E-01  8.00000000E-01  1.50000000E+00
  8.00000000E-01  8.00000000E-01  1.50000000E+00  8.00000000E-01  8.00000000E-01
  1.50000000E+00  8.00000000E-01  8.00000000E-01  1.50000000E+00  8.00000000E-01
  8.00000000E-01  1.50000000E+00  8.00000000E-01  8.00000000E-01  1.50000000E+00
  8.00000000E-01  8.00000000E-01  1.50000000E+00  8.00000000E-01  8.00000000E-01
  1.50000000E+00  8.00000000E-01  8.00000000E-01  1.50000000E+00  8.00000000E-01
  8.00000000E-01  1.50000000E+00  8.00000000E-01  8.00000000E-01  1.50000000E+00
  8.00000000E-01  8.00000000E-01  1.50000000E+00  8.00000000E-01  8.00000000E-01
  1.50000000E+00  8.00000000E-01  8.00000000E-01  1.50000000E+00  8.00000000E-01
  8.00000000E-01  1.50000000E+00  8.00000000E-01  8.00000000E-01  1.50000000E+00
  8.00000000E-01  8.00000000E-01  1.50000000E+00  8.00000000E-01  8.00000000E-01
  1.50000000E+00  8.00000000E-01  8.00000000E-01  1.50000000E+00  8.00000000E-01
  8.00000000E-01  1.50000000E+00  8.00000000E-01  8.00000000E-01  1.50000000E+00
  8.00000000E-01  8.00000000E-01  1.50000000E+00  8.00000000E-01  8.00000000E-01
  1.50000000E+00  8.00000000E-01  8.00000000E-01  1.50000000E+00  8.00000000E-01
  8.00000000E-01  1.50000000E+00  8.00000000E-01  8.00000000E-01  1.50000000E+00
  8.00000000E-01  8.00000000E-01  1.50000000E+00  8.00000000E-01  8.00000000E-01
  1.50000000E+00  8.00000000E-01  8.00000000E-01  1.50000000E+00  8.00000000E-01
  8.00000000E-01  1.50000000E+00  8.00000000E-01  8.00000000E-01  1.50000000E+00
  8.00000000E-01  8.00000000E-01  1.50000000E+00  8.00000000E-01  8.00000000E-01
  1.50000000E+00  8.00000000E-01  8.00000000E-01  1.50000000E+00  8.00000000E-01
  8.00000000E-01  1.50000000E+00  8.00000000E-01  8.00000000E-01  1.50000000E+00
  8.00000000E-01  8.00000000E-01  1.50000000E+00  8.00000000E-01  8.00000000E-01
  1.50000000E+00  8.00000000E-01  8.00000000E-01  1.50000000E+00  8.00000000E-01
  8.00000000E-01  1.50000000E+00  8.00000000E-01  8.00000000E-01  1.50000000E+00
  8.00000000E-01  8.00000000E-01  1.50000000E+00  8.00000000E-01  8.00000000E-01
  1.50000000E+00  8.00000000E-01  8.00000000E-01  1.50000000E+00  8.00000000E-01
  8.00000000E-01  1.50000000E+00  8.00000000E-01  8.00000000E-01  1.50000000E+00
  8.00000000E-01  8.00000000E-01  1.50000000E+00  8.00000000E-01  8.00000000E-01
  1.50000000E+00  8.00000000E-01  8.00000000E-01  1.50000000E+00  8.00000000E-01
  8.00000000E-01  1.50000000E+00  8.00000000E-01  8.00000000E-01  1.50000000E+00
  8.00000000E-01  8.00000000E-01  1.50000000E+00  8.00000000E-01  8.00000000E-01
  1.50000000E+00  8.00000000E-01  8.00000000E-01  1.50000000E+00  8.00000000E-01
  8.00000000E-01  1.50000000E+00  8.00000000E-01  8.00000000E-01  1.50000000E+00
  8.00000000E-01  8.00000000E-01  1.50000000E+00  8.00000000E-01  8.00000000E-01
  1.50000000E+00  8.00000000E-01  8.00000000E-01  1.50000000E+00  8.00000000E-01
  8.00000000E-01  1.50000000E+00  8.00000000E-01  8.00000000E-01  1.50000000E+00
  8.00000000E-01  8.00000000E-01  1.50000000E+00  8.00000000E-01  8.00000000E-01
  1.50000000E+00  8.00000000E-01  8.00000000E-01  1.50000000E+00  8.00000000E-01
  8.00000000E-01  1.50000000E+00  8.00000000E-01  8.00000000E-01  1.50000000E+00
  8.00000000E-01  8.00000000E-01  1.50000000E+00  8.00000000E-01  8.00000000E-01
  1.50000000E+00  8.00000000E-01  8.00000000E-01  1.50000000E+00  8.00000000E-01
  8.00000000E-01  1.50000000E+00  8.00000000E-01  8.00000000E-01  1.50000000E+00
  8.00000000E-01  8.00000000E-01  1.50000000E+00  8.00000000E-01  8.00000000E-01
  1.50000000E+00  8.00000000E-01  8.00000000E-01  1.50000000E+00  8.00000000E-01
  8.00000000E-01  1.50000000E+00  8.00000000E-01  8.00000000E-01  1.50000000E+00
  8.00000000E-01  8.00000000E-01  1.50000000E+00  8.00000000E-01  8.00000000E-01
  1.50000000E+00  8.00000000E-01  8.00000000E-01  1.50000000E+00  8.00000000E-01
  8.00000000E-01  1.50000000E+00  8.00000000E-01  8.00000000E-01  1.50000000E+00
  8.00000000E-01  8.00000000E-01  1.50000000E+00  8.00000000E-01  8.00000000E-01
  1.50000000E+00  8.00000000E-01  8.00000000E-01  1.50000000E+00  8.00000000E-01
  8.00000000E-01  1.50000000E+00  8.00000000E-01  8.00000000E-01  1.50000000E+00
  8.00000000E-01  8.00000000E-01  1.50000000E+00  8.00000000E-01  8.00000000E-01
  1.50000000E+00  8.00000000E-01  8.00000000E-01  1.50000000E+00  8.00000000E-01
  8.00000000E-01  1.50000000E+00  8.00000000E-01  8.00000000E-01  1.50000000E+00
  8.00000000E-01  8.00000000E-01  1.50000000E+00  8.00000000E-01  8.00000000E-01
  1.50000000E+00  8.00000000E-01  8.00000000E-01  1.50000000E+00  8.00000000E-01
  8.00000000E-01  1.50000000E+00  8.00000000E-01  8.00000000E-01  1.50000000E+00
  8.00000000E-01  8.00000000E-01  1.50000000E+00  8.00000000E-01  8.00000000E-01
  1.50000000E+00  8.00000000E-01  8.00000000E-01  1.50000000E+00  8.00000000E-01
  8.00000000E-01  1.50000000E+00  8.00000000E-01  8.00000000E-01  1.50000000E+00
  8.00000000E-01  8.00000000E-01  1.50000000E+00  8.00000000E-01  8.00000000E-01
  1.50000000E+00  8.00000000E-01  8.00000000E-01  1.50000000E+00  8.00000000E-01
  8.00000000E-01  1.50000000E+00  8.00000000E-01  8.00000000E-01  1.50000000E+00
  8.00000000E-01  8.00000000E-01  1.50000000E+00  8.00000000E-01  8.00000000E-01
  1.50000000E+00  8.00000000E-01  8.00000000E-01  1.50000000E+00  8.00000000E-01
  8.00000000E-01  1.50000000E+00  8.00000000E-01  8.00000000E-01  1.50000000E+00
  8.00000000E-01  8.00000000E-01  1.50000000E+00  8.00000000E-01  8.00000000E-01
  1.50000000E+00  8.00000000E-01  8.00000000E-01  1.50000000E+00  8.00000000E-01
  8.00000000E-01  1.50000000E+00  8.00000000E-01  8.00000000E-01  1.50000000E+00
  8.00000000E-01  8.00000000E-01  1.50000000E+00  8.00000000E-01  8.00000000E-01
  1.50000000E+00  8.00000000E-01  8.00000000E-01  1.50000000E+00  8.00000000E-01
  8.00000000E-01  1.50000000E+00  8.00000000E-01  8.00000000E-01  1.50000000E+00
  8.00000000E-01  8.00000000E-01  1.50000000E+00  8.00000000E-01  8.00000000E-01
  1.50000000E+00  8.00000000E-01  8.00000000E-01  1.50000000E+00  8.00000000E-01
  8.00000000E-01  1.50000000E+00  8.00000000E-01  8.00000000E-01  1.50000000E+00
  8.00000000E-01  8.00000000E-01  1.50000000E+00  8.00000000E-01  8.00000000E-01
  1.50000000E+00  8.00000000E-01  8.00000000E-01  1.50000000E+00  8.00000000E-01
  8.00000000E-01  1.50000000E+00  8.00000000E-01  8.00000000E-01  1.50000000E+00
  8.00000000E-01  8.00000000E-01  1.50000000E+00  8.00000000E-01  8.00000000E-01
  1.50000000E+00  8.00000000E-01  8.00000000E-01  1.50000000E+00  8.00000000E-01
  8.00000000E-01  1.50000000E+00  8.00000000E-01  8.00000000E-01  1.50000000E+00
  8.00000000E-01  8.00000000E-01  1.50000000E+00  8.00000000E-01  8.00000000E-01
  1.50000000E+00  8.00000000E-01  8.00000000E-01  1.50000000E+00  8.00000000E-01
  8.00000000E-01  1.50000000E+00  8.00000000E-01  8.00000000E-01  1.50000000E+00
  8.00000000E-01  8.00000000E-01  1.50000000E+00  8.00000000E-01  8.00000000E-01
  1.50000000E+00  8.00000000E-01  8.00000000E-01  1.50000000E+00  8.00000000E-01
  8.00000000E-01  1.50000000E+00  8.00000000E-01  8.00000000E-01  1.50000000E+00
  8.00000000E-01  8.00000000E-01  1.50000000E+00  8.00000000E-01  8.00000000E-01
  1.50000000E+00  8.00000000E-01  8.00000000E-01  1.50000000E+00  8.00000000E-01
  8.00000000E-01  1.50000000E+00  8.00000000E-01  8.00000000E-01  1.50000000E+00
  8.00000000E-01  8.00000000E-01  1.50000000E+00  8.00000000E-01  8.00000000E-01
  1.50000000E+00  8.00000000E-01  8.00000000E-01  1.50000000E+00  8.00000000E-01
  8.00000000E-01  1.50000000E+00  8.00000000E-01  8.00000000E-01  1.50000000E+00
  8.00000000E-01  8.00000000E-01  1.50000000E+00  8.00000000E-01  8.00000000E-01
  1.50000000E+00  8.00000000E-01  8.00000000E-01  1.50000000E+00  8.00000000E-01
  8.00000000E-01  1.50000000E+00  8.00000000E-01  8.00000000E-01  1.50000000E+00
  8.00000000E-01  8.00000000E-01  1.50000000E+00  8.00000000E-01  8.00000000E-01
  1.50000000E+00  8.00000000E-01  8.00000000E-01  1.50000000E+00  8.00000000E-01
  8.00000000E-01  1.50000000E+00  8.00000000E-01  8.00000000E-01  1.50000000E+00
  8.00000000E-01  8.00000000E-01  1.50000000E+00  8.00000000E-01  8.00000000E-01
  1.50000000E+00  8.00000000E-01  8.00000000E-01  1.50000000E+00  8.00000000E-01
  8.00000000E-01  1.50000000E+00  8.00000000E-01  8.00000000E-01  1.50000000E+00
  8.00000000E-01  8.00000000E-01  1.50000000E+00  8.00000000E-01  8.00000000E-01
  1.50000000E+00  8.00000000E-01  8.00000000E-01  1.50000000E+00  8.00000000E-01
  8.00000000E-01  1.50000000E+00  8.00000000E-01  8.00000000E-01  1.50000000E+00
  8.00000000E-01  8.00000000E-01  1.50000000E+00  8.00000000E-01  8.00000000E-01
  1.50000000E+00  8.00000000E-01  8.00000000E-01  1.50000000E+00  8.00000000E-01
  8.00000000E-01  1.50000000E+00  8.00000000E-01  8.00000000E-01  1.50000000E+00
  8.00000000E-01  8.00000000E-01  1.50000000E+00  8.00000000E-01  8.00000000E-01
  1.50000000E+00  8.00000000E-01  8.00000000E-01  1.50000000E+00  8.00000000E-01
  8.00000000E-01  1.50000000E+00  8.00000000E-01  8.00000000E-01  1.50000000E+00
  8.00000000E-01  8.00000000E-01  1.50000000E+00  8.00000000E-01  8.00000000E-01
  1.50000000E+00  8.00000000E-01  8.00000000E-01  1.50000000E+00  8.00000000E-01
  8.00000000E-01  1.50000000E+00  8.00000000E-01  8.00000000E-01  1.50000000E+00
  8.00000000E-01  8.00000000E-01  1.50000000E+00  8.00000000E-01  8.00000000E-01
  1.50000000E+00  8.00000000E-01  8.00000000E-01  1.50000000E+00  8.00000000E-01
  8.00000000E-01  1.50000000E+00  8.00000000E-01  8.00000000E-01  1.50000000E+00
  8.00000000E-01  8.00000000E-01  1.50000000E+00  8.00000000E-01  8.00000000E-01
  1.50000000E+00  8.00000000E-01  8.00000000E-01  1.50000000E+00  8.00000000E-01
  8.00000000E-01  1.50000000E+00  8.00000000E-01  8.00000000E-01  1.50000000E+00
  8.00000000E-01  8.00000000E-01  1.50000000E+00  8.00000000E-01  8.00000000E-01
  1.50000000E+00  8.00000000E-01  8.00000000E-01  1.50000000E+00  8.00000000E-01
  8.00000000E-01  1.50000000E+00  8.00000000E-01  8.00000000E-01  1.50000000E+00
  8.00000000E-01  8.00000000E-01  1.50000000E+00  8.00000000E-01  8.00000000E-01
  1.50000000E+00  8.00000000E-01  8.00000000E-01  1.50000000E+00  8.00000000E-01
  8.00000000E-01  1.50000000E+00  8.00000000E-01  8.00000000E-01  1.50000000E+00
  8.00000000E-01  8.00000000E-01  1.50000000E+00  8.00000000E-01  8.00000000E-01
  1.50000000E+00  8.00000000E-01  8.00000000E-01  1.50000000E+00  8.00000000E-01
  8.00000000E-01  1.50000000E+00  8.00000000E-01  8.00000000E-01  1.50000000E+00
  8.00000000E-01  8.00000000E-01  1.50000000E+00  8.00000000E-01  8.00000000E-01
  1.50000000E+00  8.00000000E-01  8.00000000E-01  1.50000000E+00  8.00000000E-01
  8.00000000E-01  1.50000000E+00  8.00000000E-01  8.00000000E-01  1.50000000E+00
  8.00000000E-01  8.00000000E-01  1.50000000E+00  8.00000000E-01  8.00000000E-01
  1.50000000E+00  8.00000000E-01  8.00000000E-01  1.50000000E+00  8.00000000E-01
  8.00000000E-01  1.50000000E+00  8.00000000E-01  8.00000000E-01  1.50000000E+00
  8.00000000E-01  8.00000000E-01  1.50000000E+00  8.00000000E-01  8.00000000E-01
  1.50000000E+00  8.00000000E-01  8.00000000E-01  1.50000000E+00  8.00000000E-01
  8.00000000E-01  1.50000000E+00  8.00000000E-01  8.00000000E-01  1.50000000E+00
  8.00000000E-01  8.00000000E-01  1.50000000E+00  8.00000000E-01  8.00000000E-01
  1.50000000E+00  8.00000000E-01  8.00000000E-01  1.50000000E+00  8.00000000E-01
  8.00000000E-01  1.50000000E+00  8.00000000E-01  8.00000000E-01  1.50000000E+00
  8.00000000E-01  8.00000000E-01  1.50000000E+00  8.00000000E-01  8.00000000E-01
  1.50000000E+00  8.00000000E-01  8.00000000E-01  1.50000000E+00  8.00000000E-01
  8.00000000E-01  1.50000000E+00  8.00000000E-01  8.00000000E-01  1.50000000E+00
  8.00000000E-01  8.00000000E-01  1.50000000E+00  8.00000000E-01  8.00000000E-01
  1.50000000E+00  8.00000000E-01  8.00000000E-01  1.50000000E+00  8.00000000E-01
  8.00000000E-01  1.50000000E+00  8.00000000E-01  8.00000000E-01  1.50000000E+00
  8.00000000E-01  8.00000000E-01  1.50000000E+00  8.00000000E-01  8.00000000E-01
  1.50000000E+00  8.00000000E-01  8.00000000E-01  1.50000000E+00  8.00000000E-01
  8.00000000E-01  1.50000000E+00  8.00000000E-01  8.00000000E-01  1.50000000E+00
  8.00000000E-01  8.00000000E-01  1.50000000E+00  8.00000000E-01  8.00000000E-01
  1.50000000E+00  8.00000000E-01  8.00000000E-01  1.50000000E+00  8.00000000E-01
  8.00000000E-01  1.50000000E+00  8.00000000E-01  8.00000000E-01  1.50000000E+00
  8.00000000E-01  8.00000000E-01  1.50000000E+00  8.00000000E-01  8.00000000E-01
  1.50000000E+00  8.00000000E-01  8.00000000E-01  1.50000000E+00  8.00000000E-01
  8.00000000E-01  1.50000000E+00  8.00000000E-01  8.00000000E-01  1.50000000E+00
  8.00000000E-01  8.00000000E-01  1.50000000E+00  8.00000000E-01  8.00000000E-01
  1.50000000E+00  8.00000000E-01  8.00000000E-01  1.50000000E+00  8.00000000E-01
  8.00000000E-01  1.50000000E+00  8.00000000E-01  8.00000000E-01  1.50000000E+00
  8.00000000E-01  8.00000000E-01  1.50000000E+00  8.00000000E-01  8.00000000E-01
  1.50000000E+00  8.00000000E-01  8.00000000E-01  1.50000000E+00  8.00000000E-01
  8.00000000E-01  1.50000000E+00  8.00000000E-01  8.00000000E-01  1.50000000E+00
  8.00000000E-01  8.00000000E-01  1.50000000E+00  8.00000000E-01  8.00000000E-01
  1.50000000E+00  8.00000000E-01  8.00000000E-01  1.50000000E+00  8.00000000E-01
  8.00000000E-01  1.50000000E+00  8.00000000E-01  8.00000000E-01  1.50000000E+00
  8.00000000E-01  8.00000000E-01  1.50000000E+00  8.00000000E-01  8.00000000E-01
  1.50000000E+00  8.00000000E-01  8.00000000E-01  1.50000000E+00  8.00000000E-01
  8.00000000E-01  1.50000000E+00  8.00000000E-01  8.00000000E-01  1.50000000E+00
  8.00000000E-01  8.00000000E-01  1.50000000E+00  8.00000000E-01  8.00000000E-01
  1.50000000E+00  8.00000000E-01  8.00000000E-01  1.50000000E+00  8.00000000E-01
  8.00000000E-01  1.50000000E+00  8.00000000E-01  8.00000000E-01  1.50000000E+00
  8.00000000E-01  8.00000000E-01  1.50000000E+00  8.00000000E-01  8.00000000E-01
  1.50000000E+00  8.00000000E-01  8.00000000E-01  1.50000000E+00  8.00000000E-01
  8.00000000E-01  1.50000000E+00  8.00000000E-01  8.00000000E-01  1.50000000E+00
  8.00000000E-01  8.00000000E-01  1.50000000E+00  8.00000000E-01  8.00000000E-01
  1.50000000E+00  8.00000000E-01  8.00000000E-01  1.50000000E+00  8.00000000E-01
  8.00000000E-01  1.50000000E+00  8.00000000E-01  8.00000000E-01  1.50000000E+00
  8.00000000E-01  8.00000000E-01  1.50000000E+00  8.00000000E-01  8.00000000E-01
  1.50000000E+00  8.00000000E-01  8.00000000E-01  1.50000000E+00  8.00000000E-01
  8.00000000E-01  1.50000000E+00  8.00000000E-01  8.00000000E-01  1.50000000E+00
  8.00000000E-01  8.00000000E-01  1.50000000E+00  8.00000000E-01  8.00000000E-01
  1.50000000E+00  8.00000000E-01  8.00000000E-01  1.50000000E+00  8.00000000E-01
  8.00000000E-01  1.50000000E+00  8.00000000E-01  8.00000000E-01  1.50000000E+00
  8.00000000E-01  8.00000000E-01  1.50000000E+00  8.00000000E-01  8.00000000E-01
  1.50000000E+00  8.00000000E-01  8.00000000E-01  1.50000000E+00  8.00000000E-01
  8.00000000E-01  1.50000000E+00  8.00000000E-01  8.00000000E-01  1.50000000E+00
  8.00000000E-01  8.00000000E-01  1.50000000E+00  8.00000000E-01  8.00000000E-01
  1.50000000E+00  8.00000000E-01  8.00000000E-01  1.50000000E+00  8.00000000E-01
  8.00000000E-01  1.50000000E+00  8.00000000E-01  8.00000000E-01  1.50000000E+00
  8.00000000E-01  8.00000000E-01  1.50000000E+00  8.00000000E-01  8.00000000E-01
  1.50000000E+00  8.00000000E-01  8.00000000E-01  1.50000000E+00  8.00000000E-01
  8.00000000E-01  1.50000000E+00  8.00000000E-01  8.00000000E-01  1.50000000E+00
  8.00000000E-01  8.00000000E-01  1.50000000E+00  8.00000000E-01  8.00000000E-01
  1.50000000E+00  8.00000000E-01  8.00000000E-01  1.50000000E+00  8.00000000E-01
  8.00000000E-01  1.50000000E+00  8.00000000E-01  8.00000000E-01  1.50000000E+00
  8.00000000E-01  8.00000000E-01  1.50000000E+00  8.00000000E-01  8.00000000E-01
  1.50000000E+00  8.00000000E-01  8.00000000E-01  1.50000000E+00  8.00000000E-01
  8.00000000E-01  1.50000000E+00  8.00000000E-01  8.00000000E-01  1.50000000E+00
  8.00000000E-01  8.00000000E-01  1.50000000E+00  8.00000000E-01  8.00000000E-01
  1.50000000E+00  8.00000000E-01  8.00000000E-01  1.50000000E+00  8.00000000E-01
  8.00000000E-01  1.50000000E+00  8.00000000E-01  8.00000000E-01  1.50000000E+00
  8.00000000E-01  8.00000000E-01  1.50000000E+00  8.00000000E-01  8.00000000E-01
  1.50000000E+00  8.00000000E-01  8.00000000E-01  1.50000000E+00  8.00000000E-01
  8.00000000E-01  1.50000000E+00  8.00000000E-01  8.00000000E-01  1.50000000E+00
  8.00000000E-01  8.00000000E-01  1.50000000E+00  8.00000000E-01  8.00000000E-01
  1.50000000E+00  8.00000000E-01  8.00000000E-01  1.50000000E+00  8.00000000E-01
  8.00000000E-01  1.50000000E+00  8.00000000E-01  8.00000000E-01  1.50000000E+00
  8.00000000E-01  8.00000000E-01  1.50000000E+00  8.00000000E-01  8.00000000E-01
  1.50000000E+00  8.00000000E-01  8.00000000E-01  1.50000000E+00  8.00000000E-01
  8.00000000E-01  1.50000000E+00  8.00000000E-01  8.00000000E-01  1.50000000E+00
  8.00000000E-01  8.00000000E-01  1.50000000E+00  8.00000000E-01  8.00000000E-01
  1.50000000E+00  8.00000000E-01  8.00000000E-01  1.50000000E+00  8.00000000E-01
  8.00000000E-01  1.50000000E+00  8.00000000E-01  8.00000000E-01  1.50000000E+00
  8.00000000E-01  8.00000000E-01  1.50000000E+00  8.00000000E-01  8.00000000E-01
  1.50000000E+00  8.00000000E-01  8.00000000E-01  1.50000000E+00  8.00000000E-01
  8.00000000E-01  1.50000000E+00  8.00000000E-01  8.00000000E-01  1.50000000E+00
  8.00000000E-01  8.00000000E-01  1.50000000E+00  8.00000000E-01  8.00000000E-01
  1.50000000E+00  8.00000000E-01  8.00000000E-01  1.50000000E+00  8.00000000E-01
  8.00000000E-01  1.50000000E+00  8.00000000E-01  8.00000000E-01  1.50000000E+00
  8.00000000E-01  8.00000000E-01  1.50000000E+00  8.00000000E-01  8.00000000E-01
  1.50000000E+00  8.00000000E-01  8.00000000E-01  1.50000000E+00  8.00000000E-01
  8.00000000E-01  1.50000000E+00  8.00000000E-01  8.00000000E-01  1.50000000E+00
  8.00000000E-01  8.00000000E-01  1.50000000E+00  8.00000000E-01  8.00000000E-01
  1.50000000E+00  8.00000000E-01  8.00000000E-01  1.50000000E+00  8.00000000E-01
  8.00000000E-01  1.50000000E+00  8.00000000E-01  8.00000000E-01  1.50000000E+00
  8.00000000E-01  8.00000000E-01  1.50000000E+00  8.00000000E-01  8.00000000E-01
  1.50000000E+00  8.00000000E-01  8.00000000E-01  1.50000000E+00  8.00000000E-01
  8.00000000E-01  1.50000000E+00  8.00000000E-01  8.00000000E-01  1.50000000E+00
  8.00000000E-01  8.00000000E-01  1.50000000E+00  8.00000000E-01  8.00000000E-01
  1.50000000E+00  8.00000000E-01  8.00000000E-01  1.50000000E+00  8.00000000E-01
  8.00000000E-01  1.50000000E+00  8.00000000E-01  8.00000000E-01  1.50000000E+00
  8.00000000E-01  8.00000000E-01  1.50000000E+00  8.00000000E-01  8.00000000E-01
  1.50000000E+00  8.00000000E-01  8.00000000E-01  1.50000000E+00  8.00000000E-01
  8.00000000E-01  1.50000000E+00  8.00000000E-01  8.00000000E-01  1.50000000E+00
  8.00000000E-01  8.00000000E-01  1.50000000E+00  8.00000000E-01  8.00000000E-01
  1.50000000E+00  8.00000000E-01  8.00000000E-01  1.50000000E+00  8.00000000E-01
  8.00000000E-01  1.50000000E+00  8.00000000E-01  8.00000000E-01  1.50000000E+00
  8.00000000E-01  8.00000000E-01  1.50000000E+00  8.00000000E-01  8.00000000E-01
  1.50000000E+00  8.00000000E-01  8.00000000E-01  1.50000000E+00  8.00000000E-01
  8.00000000E-01  1.50000000E+00  8.00000000E-01  8.00000000E-01  1.50000000E+00
  8.00000000E-01  8.00000000E-01  1.50000000E+00  8.00000000E-01  8.00000000E-01
  1.50000000E+00  8.00000000E-01  8.00000000E-01  1.50000000E+00  8.00000000E-01
  8.00000000E-01  1.50000000E+00  8.00000000E-01  8.00000000E-01  1.50000000E+00
  8.00000000E-01  8.00000000E-01  1.50000000E+00  8.00000000E-01  8.00000000E-01
  1.50000000E+00  8.00000000E-01  8.00000000E-01  1.50000000E+00  8.00000000E-01
  8.00000000E-01  1.50000000E+00  8.00000000E-01  8.00000000E-01  1.50000000E+00
  8.00000000E-01  8.00000000E-01  1.50000000E+00  8.00000000E-01  8.00000000E-01
  1.50000000E+00  8.00000000E-01  8.00000000E-01  1.50000000E+00  8.00000000E-01
  8.00000000E-01  1.50000000E+00  8.00000000E-01  8.00000000E-01  1.50000000E+00
  8.00000000E-01  8.00000000E-01  1.50000000E+00  8.00000000E-01  8.00000000E-01
  1.50000000E+00  8.00000000E-01  8.00000000E-01  1.50000000E+00  8.00000000E-01
  8.00000000E-01  1.50000000E+00  8.00000000E-01  8.00000000E-01  1.50000000E+00
  8.00000000E-01  8.00000000E-01  1.50000000E+00  8.00000000E-01  8.00000000E-01
  1.50000000E+00  8.00000000E-01  8.00000000E-01  1.50000000E+00  8.00000000E-01
  8.00000000E-01  1.50000000E+00  8.00000000E-01  8.00000000E-01  1.50000000E+00
  8.00000000E-01  8.00000000E-01  1.50000000E+00  8.00000000E-01  8.00000000E-01
  1.50000000E+00  8.00000000E-01  8.00000000E-01  1.50000000E+00  8.00000000E-01
  8.00000000E-01  1.50000000E+00  8.00000000E-01  8.00000000E-01  1.50000000E+00
  8.00000000E-01  8.00000000E-01  1.50000000E+00  8.00000000E-01  8.00000000E-01
  1.50000000E+00  8.00000000E-01  8.00000000E-01  1.50000000E+00  8.00000000E-01
  8.00000000E-01  1.50000000E+00  8.00000000E-01  8.00000000E-01  1.50000000E+00
  8.00000000E-01  8.00000000E-01  1.50000000E+00  8.00000000E-01  8.00000000E-01
  1.50000000E+00  8.00000000E-01  8.00000000E-01  1.50000000E+00  8.00000000E-01
  8.00000000E-01  1.50000000E+00  8.00000000E-01  8.00000000E-01  1.50000000E+00
  8.00000000E-01  8.00000000E-01  1.50000000E+00  8.00000000E-01  8.00000000E-01
  1.50000000E+00  8.00000000E-01  8.00000000E-01  1.50000000E+00  8.00000000E-01
  8.00000000E-01  1.50000000E+00  8.00000000E-01  8.00000000E-01  1.50000000E+00
  8.00000000E-01  8.00000000E-01  1.50000000E+00  8.00000000E-01  8.00000000E-01
  1.50000000E+00  8.00000000E-01  8.00000000E-01  1.50000000E+00  8.00000000E-01
  8.00000000E-01  1.50000000E+00  8.00000000E-01  8.00000000E-01  1.50000000E+00
  8.00000000E-01  8.00000000E-01  1.50000000E+00  8.00000000E-01  8.00000000E-01
  1.50000000E+00  8.00000000E-01  8.00000000E-01  1.50000000E+00  8.00000000E-01
  8.00000000E-01  1.50000000E+00  8.00000000E-01  8.00000000E-01  1.50000000E+00
  8.00000000E-01  8.00000000E-01  1.50000000E+00  8.00000000E-01  8.00000000E-01
  1.50000000E+00  8.00000000E-01  8.00000000E-01  1.50000000E+00  8.00000000E-01
  8.00000000E-01  1.50000000E+00  8.00000000E-01  8.00000000E-01  1.50000000E+00
  8.00000000E-01  8.00000000E-01  1.50000000E+00  8.00000000E-01  8.00000000E-01
  1.50000000E+00  8.00000000E-01  8.00000000E-01  1.50000000E+00  8.00000000E-01
  8.00000000E-01  1.50000000E+00  8.00000000E-01  8.00000000E-01  1.50000000E+00
  8.00000000E-01  8.00000000E-01  1.50000000E+00  8.00000000E-01  8.00000000E-01
  1.50000000E+00  8.00000000E-01  8.00000000E-01  1.50000000E+00  8.00000000E-01
  8.00000000E-01  1.50000000E+00  8.00000000E-01  8.00000000E-01  1.50000000E+00
  8.00000000E-01  8.00000000E-01  1.50000000E+00  8.00000000E-01  8.00000000E-01
  1.50000000E+00  8.00000000E-01  8.00000000E-01  1.50000000E+00  8.00000000E-01
  8.00000000E-01  1.50000000E+00  8.00000000E-01  8.00000000E-01  1.50000000E+00
  8.00000000E-01  8.00000000E-01  1.50000000E+00  8.00000000E-01  8.00000000E-01
  1.50000000E+00  8.00000000E-01  8.00000000E-01  1.50000000E+00  8.00000000E-01
  8.00000000E-01  1.50000000E+00  8.00000000E-01  8.00000000E-01  1.50000000E+00
  8.00000000E-01  8.00000000E-01  1.50000000E+00  8.00000000E-01  8.00000000E-01
  1.50000000E+00  8.00000000E-01  8.00000000E-01  1.50000000E+00  8.00000000E-01
  8.00000000E-01  1.50000000E+00  8.00000000E-01  8.00000000E-01  1.50000000E+00
  8.00000000E-01  8.00000000E-01  1.50000000E+00  8.00000000E-01  8.00000000E-01
  1.50000000E+00  8.00000000E-01  8.00000000E-01  1.50000000E+00  8.00000000E-01
  8.00000000E-01  1.50000000E+00  8.00000000E-01  8.00000000E-01  1.50000000E+00
  8.00000000E-01  8.00000000E-01  1.50000000E+00  8.00000000E-01  8.00000000E-01
  1.50000000E+00  8.00000000E-01  8.00000000E-01  1.50000000E+00  8.00000000E-01
  8.00000000E-01  1.50000000E+00  8.00000000E-01  8.00000000E-01  1.50000000E+00
  8.00000000E-01  8.00000000E-01  1.50000000E+00  8.00000000E-01  8.00000000E-01
  1.50000000E+00  8.00000000E-01  8.00000000E-01  1.50000000E+00  8.00000000E-01
  8.00000000E-01  1.50000000E+00  8.00000000E-01  8.00000000E-01  1.50000000E+00
  8.00000000E-01  8.00000000E-01  1.50000000E+00  8.00000000E-01  8.00000000E-01
  1.50000000E+00  8.00000000E-01  8.00000000E-01  1.50000000E+00  8.00000000E-01
  8.00000000E-01  1.50000000E+00  8.00000000E-01  8.00000000E-01  1.50000000E+00
  8.00000000E-01  8.00000000E-01  1.50000000E+00  8.00000000E-01  8.00000000E-01
  1.50000000E+00  8.00000000E-01  8.00000000E-01  1.50000000E+00  8.00000000E-01
  8.00000000E-01  1.50000000E+00  8.00000000E-01  8.00000000E-01  1.50000000E+00
  8.00000000E-01  8.00000000E-01  1.50000000E+00  8.00000000E-01  8.00000000E-01
  1.50000000E+00  8.00000000E-01  8.00000000E-01  1.50000000E+00  8.00000000E-01
  8.00000000E-01  1.50000000E+00  8.00000000E-01  8.00000000E-01  1.50000000E+00
  8.00000000E-01  8.00000000E-01  1.50000000E+00  8.00000000E-01  8.00000000E-01
  1.50000000E+00  8.00000000E-01  8.00000000E-01  1.50000000E+00  8.00000000E-01
  8.00000000E-01  1.50000000E+00  8.00000000E-01  8.00000000E-01  1.50000000E+00
  8.00000000E-01  8.00000000E-01  1.50000000E+00  8.00000000E-01  8.00000000E-01
  1.50000000E+00  8.00000000E-01  8.00000000E-01  1.50000000E+00  8.00000000E-01
  8.00000000E-01  1.50000000E+00  8.00000000E-01  8.00000000E-01  1.50000000E+00
  8.00000000E-01  8.00000000E-01  1.50000000E+00  8.00000000E-01  8.00000000E-01
  1.50000000E+00  8.00000000E-01  8.00000000E-01  1.50000000E+00  8.00000000E-01
  8.00000000E-01  1.50000000E+00  8.00000000E-01  8.00000000E-01  1.50000000E+00
  8.00000000E-01  8.00000000E-01  1.50000000E+00  8.00000000E-01  8.00000000E-01
  1.50000000E+00  8.00000000E-01  8.00000000E-01  1.50000000E+00  8.00000000E-01
  8.00000000E-01  1.50000000E+00  8.00000000E-01  8.00000000E-01  1.50000000E+00
  8.00000000E-01  8.00000000E-01  1.50000000E+00  8.00000000E-01  8.00000000E-01
  1.50000000E+00  8.00000000E-01  8.00000000E-01  1.50000000E+00  8.00000000E-01
  8.00000000E-01  1.50000000E+00  8.00000000E-01  8.00000000E-01  1.50000000E+00
  8.00000000E-01  8.00000000E-01  1.50000000E+00  8.00000000E-01  8.00000000E-01
  1.50000000E+00  8.00000000E-01  8.00000000E-01  1.50000000E+00  8.00000000E-01
  8.00000000E-01  1.50000000E+00  8.00000000E-01  8.00000000E-01  1.50000000E+00
  8.00000000E-01  8.00000000E-01  1.50000000E+00  8.00000000E-01  8.00000000E-01
  1.50000000E+00  8.00000000E-01  8.00000000E-01  1.50000000E+00  8.00000000E-01
  8.00000000E-01  1.50000000E+00  8.00000000E-01  8.00000000E-01  1.50000000E+00
  8.00000000E-01  8.00000000E-01  1.50000000E+00  8.00000000E-01  8.00000000E-01
  1.50000000E+00  8.00000000E-01  8.00000000E-01  1.50000000E+00  8.00000000E-01
  8.00000000E-01  1.50000000E+00  8.00000000E-01  8.00000000E-01  1.50000000E+00
  8.00000000E-01  8.00000000E-01  1.50000000E+00  8.00000000E-01  8.00000000E-01
  1.50000000E+00  8.00000000E-01  8.00000000E-01  1.50000000E+00  8.00000000E-01
  8.00000000E-01  1.50000000E+00  8.00000000E-01  8.00000000E-01  1.50000000E+00
  8.00000000E-01  8.00000000E-01  1.50000000E+00  8.00000000E-01  8.00000000E-01
  1.50000000E+00  8.00000000E-01  8.00000000E-01  1.50000000E+00  8.00000000E-01
  8.00000000E-01  1.50000000E+00  8.00000000E-01  8.00000000E-01  1.50000000E+00
  8.00000000E-01  8.00000000E-01  1.50000000E+00  8.00000000E-01  8.00000000E-01
  1.50000000E+00  8.00000000E-01  8.00000000E-01  1.50000000E+00  8.00000000E-01
  8.00000000E-01  1.50000000E+00  8.00000000E-01  8.00000000E-01  1.50000000E+00
  8.00000000E-01  8.00000000E-01  1.50000000E+00  8.00000000E-01  8.00000000E-01
  1.50000000E+00  8.00000000E-01  8.00000000E-01  1.50000000E+00  8.00000000E-01
  8.00000000E-01  1.50000000E+00  8.00000000E-01  8.00000000E-01  1.50000000E+00
  8.00000000E-01  8.00000000E-01  1.50000000E+00  8.00000000E-01  8.00000000E-01
  1.50000000E+00  8.00000000E-01  8.00000000E-01  1.50000000E+00  8.00000000E-01
  8.00000000E-01  1.50000000E+00  8.00000000E-01  8.00000000E-01  1.50000000E+00
  8.00000000E-01  8.00000000E-01  1.50000000E+00  8.00000000E-01  8.00000000E-01
  1.50000000E+00  8.00000000E-01  8.00000000E-01  1.50000000E+00  8.00000000E-01
  8.00000000E-01  1.50000000E+00  8.00000000E-01  8.00000000E-01  1.50000000E+00
  8.00000000E-01  8.00000000E-01  1.50000000E+00  8.00000000E-01  8.00000000E-01
  1.50000000E+00  8.00000000E-01  8.00000000E-01  1.50000000E+00  8.00000000E-01
  8.00000000E-01  1.50000000E+00  8.00000000E-01  8.00000000E-01  1.50000000E+00
  8.00000000E-01  8.00000000E-01  1.50000000E+00  8.00000000E-01  8.00000000E-01
  1.50000000E+00  8.00000000E-01  8.00000000E-01  1.50000000E+00  8.00000000E-01
  8.00000000E-01  1.50000000E+00  8.00000000E-01  8.00000000E-01  1.50000000E+00
  8.00000000E-01  8.00000000E-01  1.50000000E+00  8.00000000E-01  8.00000000E-01
  1.50000000E+00  8.00000000E-01  8.00000000E-01  1.50000000E+00  8.00000000E-01
  8.00000000E-01  1.50000000E+00  8.00000000E-01  8.00000000E-01  1.50000000E+00
  8.00000000E-01  8.00000000E-01  1.50000000E+00  8.00000000E-01  8.00000000E-01
  1.50000000E+00  8.00000000E-01  8.00000000E-01  1.50000000E+00  8.00000000E-01
  8.00000000E-01  1.50000000E+00  8.00000000E-01  8.00000000E-01  1.50000000E+00
  8.00000000E-01  8.00000000E-01  1.50000000E+00  8.00000000E-01  8.00000000E-01
  1.50000000E+00  8.00000000E-01  8.00000000E-01  1.50000000E+00  8.00000000E-01
  8.00000000E-01  1.50000000E+00  8.00000000E-01  8.00000000E-01  1.50000000E+00
  8.00000000E-01  8.00000000E-01  1.50000000E+00  8.00000000E-01  8.00000000E-01
  1.50000000E+00  8.00000000E-01  8.00000000E-01  1.50000000E+00  8.00000000E-01
  8.00000000E-01  1.50000000E+00  8.00000000E-01  8.00000000E-01  1.50000000E+00
  8.00000000E-01  8.00000000E-01  1.50000000E+00  8.00000000E-01  8.00000000E-01
  1.50000000E+00  8.00000000E-01  8.00000000E-01  1.50000000E+00  8.00000000E-01
  8.00000000E-01  1.50000000E+00  8.00000000E-01  8.00000000E-01  1.50000000E+00
  8.00000000E-01  8.00000000E-01  1.50000000E+00  8.00000000E-01  8.00000000E-01
  1.50000000E+00  8.00000000E-01  8.00000000E-01  1.50000000E+00  8.00000000E-01
  8.00000000E-01  1.50000000E+00  8.00000000E-01  8.00000000E-01  1.50000000E+00
  8.00000000E-01  8.00000000E-01  1.50000000E+00  8.00000000E-01  8.00000000E-01
  1.50000000E+00  8.00000000E-01  8.00000000E-01  1.50000000E+00  8.00000000E-01
  8.00000000E-01  1.50000000E+00  8.00000000E-01  8.00000000E-01  1.50000000E+00
  8.00000000E-01  8.00000000E-01  1.50000000E+00  8.00000000E-01  8.00000000E-01
  1.50000000E+00  8.00000000E-01  8.00000000E-01  1.50000000E+00  8.00000000E-01
  8.00000000E-01  1.50000000E+00  8.00000000E-01  8.00000000E-01  1.50000000E+00
  8.00000000E-01  8.00000000E-01  1.50000000E+00  8.00000000E-01  8.00000000E-01
  1.50000000E+00  8.00000000E-01  8.00000000E-01  1.50000000E+00  8.00000000E-01
  8.00000000E-01  1.50000000E+00  8.00000000E-01  8.00000000E-01  1.50000000E+00
  8.00000000E-01  8.00000000E-01  1.50000000E+00  8.00000000E-01  8.00000000E-01
  1.50000000E+00  8.00000000E-01  8.00000000E-01  1.50000000E+00  8.00000000E-01
  8.00000000E-01  1.50000000E+00  8.00000000E-01  8.00000000E-01  1.50000000E+00
  8.00000000E-01  8.00000000E-01  1.50000000E+00  8.00000000E-01  8.00000000E-01
  1.50000000E+00  8.00000000E-01  8.00000000E-01  1.50000000E+00  8.00000000E-01
  8.00000000E-01  1.50000000E+00  8.00000000E-01  8.00000000E-01  1.50000000E+00
  8.00000000E-01  8.00000000E-01  1.50000000E+00  8.00000000E-01  8.00000000E-01
  1.50000000E+00  8.00000000E-01  8.00000000E-01  1.50000000E+00  8.00000000E-01
  8.00000000E-01  1.50000000E+00  8.00000000E-01  8.00000000E-01  1.50000000E+00
  8.00000000E-01  8.00000000E-01  1.50000000E+00  8.00000000E-01  8.00000000E-01
  1.50000000E+00  8.00000000E-01  8.00000000E-01  1.50000000E+00  8.00000000E-01
  8.00000000E-01  1.50000000E+00  8.00000000E-01  8.00000000E-01  1.50000000E+00
  8.00000000E-01  8.00000000E-01  1.50000000E+00  8.00000000E-01  8.00000000E-01
  1.50000000E+00  8.00000000E-01  8.00000000E-01  1.50000000E+00  8.00000000E-01
  8.00000000E-01  1.50000000E+00  8.00000000E-01  8.00000000E-01  1.50000000E+00
  8.00000000E-01  8.00000000E-01  1.50000000E+00  8.00000000E-01  8.00000000E-01
  1.50000000E+00  8.00000000E-01  8.00000000E-01  1.50000000E+00  8.00000000E-01
  8.00000000E-01  1.50000000E+00  8.00000000E-01  8.00000000E-01  1.50000000E+00
  8.00000000E-01  8.00000000E-01  1.50000000E+00  8.00000000E-01  8.00000000E-01
  1.50000000E+00  8.00000000E-01  8.00000000E-01  1.50000000E+00  8.00000000E-01
  8.00000000E-01  1.50000000E+00  8.00000000E-01  8.00000000E-01  1.50000000E+00
  8.00000000E-01  8.00000000E-01  1.50000000E+00  8.00000000E-01  8.00000000E-01
  1.50000000E+00  8.00000000E-01  8.00000000E-01  1.50000000E+00  8.00000000E-01
  8.00000000E-01  1.50000000E+00  8.00000000E-01  8.00000000E-01  1.50000000E+00
  8.00000000E-01  8.00000000E-01  1.50000000E+00  8.00000000E-01  8.00000000E-01
  1.50000000E+00  8.00000000E-01  8.00000000E-01  1.50000000E+00  8.00000000E-01
  8.00000000E-01  1.50000000E+00  8.00000000E-01  8.00000000E-01  1.50000000E+00
  8.00000000E-01  8.00000000E-01  1.50000000E+00  8.00000000E-01  8.00000000E-01
  1.50000000E+00  8.00000000E-01  8.00000000E-01  1.50000000E+00  8.00000000E-01
  8.00000000E-01  1.50000000E+00  8.00000000E-01  8.00000000E-01  1.50000000E+00
  8.00000000E-01  8.00000000E-01  1.50000000E+00  8.00000000E-01  8.00000000E-01
  1.50000000E+00  8.00000000E-01  8.00000000E-01  1.50000000E+00  8.00000000E-01
  8.00000000E-01  1.50000000E+00  8.00000000E-01  8.00000000E-01  1.50000000E+00
  8.00000000E-01  8.00000000E-01  1.50000000E+00  8.00000000E-01  8.00000000E-01
  1.50000000E+00  8.00000000E-01  8.00000000E-01  1.50000000E+00  8.00000000E-01
  8.00000000E-01  1.50000000E+00  8.00000000E-01  8.00000000E-01  1.50000000E+00
  8.00000000E-01  8.00000000E-01  1.50000000E+00  8.00000000E-01  8.00000000E-01
  1.50000000E+00  8.00000000E-01  8.00000000E-01  1.50000000E+00  8.00000000E-01
  8.00000000E-01  1.50000000E+00  8.00000000E-01  8.00000000E-01  1.50000000E+00
  8.00000000E-01  8.00000000E-01  1.50000000E+00  8.00000000E-01  8.00000000E-01
  1.50000000E+00  8.00000000E-01  8.00000000E-01  1.50000000E+00  8.00000000E-01
  8.00000000E-01  1.50000000E+00  8.00000000E-01  8.00000000E-01  1.50000000E+00
  8.00000000E-01  8.00000000E-01  1.50000000E+00  8.00000000E-01  8.00000000E-01
  1.50000000E+00  8.00000000E-01  8.00000000E-01  1.50000000E+00  8.00000000E-01
  8.00000000E-01  1.50000000E+00  8.00000000E-01  8.00000000E-01  1.50000000E+00
  8.00000000E-01  8.00000000E-01  1.50000000E+00  8.00000000E-01  8.00000000E-01
  1.50000000E+00  8.00000000E-01  8.00000000E-01  1.50000000E+00  8.00000000E-01
  8.00000000E-01  1.50000000E+00  8.00000000E-01  8.00000000E-01  1.50000000E+00
  8.00000000E-01  8.00000000E-01  1.50000000E+00  8.00000000E-01  8.00000000E-01
  1.50000000E+00  8.00000000E-01  8.00000000E-01  1.50000000E+00  8.00000000E-01
  8.00000000E-01  1.50000000E+00  8.00000000E-01  8.00000000E-01  1.50000000E+00
  8.00000000E-01  8.00000000E-01  1.50000000E+00  8.00000000E-01  8.00000000E-01
  1.50000000E+00  8.00000000E-01  8.00000000E-01  1.50000000E+00  8.00000000E-01
  8.00000000E-01  1.50000000E+00  8.00000000E-01  8.00000000E-01  1.50000000E+00
  8.00000000E-01  8.00000000E-01  1.50000000E+00  8.00000000E-01  8.00000000E-01
  1.50000000E+00  8.00000000E-01  8.00000000E-01  1.50000000E+00  8.00000000E-01
  8.00000000E-01  1.50000000E+00  8.00000000E-01  8.00000000E-01  1.50000000E+00
  8.00000000E-01  8.00000000E-01  1.50000000E+00  8.00000000E-01  8.00000000E-01
  1.50000000E+00  8.00000000E-01  8.00000000E-01  1.50000000E+00  8.00000000E-01
  8.00000000E-01  1.50000000E+00  8.00000000E-01  8.00000000E-01  1.50000000E+00
  8.00000000E-01  8.00000000E-01  1.50000000E+00  8.00000000E-01  8.00000000E-01
  1.50000000E+00  8.00000000E-01  8.00000000E-01  1.50000000E+00  8.00000000E-01
  8.00000000E-01  1.50000000E+00  8.00000000E-01  8.00000000E-01  1.50000000E+00
  8.00000000E-01  8.00000000E-01  1.50000000E+00  8.00000000E-01  8.00000000E-01
  1.50000000E+00  8.00000000E-01  8.00000000E-01  1.50000000E+00  8.00000000E-01
  8.00000000E-01  1.50000000E+00  8.00000000E-01  8.00000000E-01  1.50000000E+00
  8.00000000E-01  8.00000000E-01  1.50000000E+00  8.00000000E-01  8.00000000E-01
  1.50000000E+00  8.00000000E-01  8.00000000E-01  1.50000000E+00  8.00000000E-01
  8.00000000E-01  1.50000000E+00  8.00000000E-01  8.00000000E-01  1.50000000E+00
  8.00000000E-01  8.00000000E-01  1.50000000E+00  8.00000000E-01  8.00000000E-01
  1.50000000E+00  8.00000000E-01  8.00000000E-01  1.50000000E+00  8.00000000E-01
  8.00000000E-01  1.50000000E+00  8.00000000E-01  8.00000000E-01  1.50000000E+00
  8.00000000E-01  8.00000000E-01  1.50000000E+00  8.00000000E-01  8.00000000E-01
  1.50000000E+00  8.00000000E-01  8.00000000E-01  1.50000000E+00  8.00000000E-01
  8.00000000E-01  1.50000000E+00  8.00000000E-01  8.00000000E-01  1.50000000E+00
  8.00000000E-01  8.00000000E-01  1.50000000E+00  8.00000000E-01  8.00000000E-01
  1.50000000E+00  8.00000000E-01  8.00000000E-01  1.50000000E+00  8.00000000E-01
  8.00000000E-01  1.50000000E+00  8.00000000E-01  8.00000000E-01  1.50000000E+00
  8.00000000E-01  8.00000000E-01  1.50000000E+00  8.00000000E-01  8.00000000E-01
  1.50000000E+00  8.00000000E-01  8.00000000E-01  1.50000000E+00  8.00000000E-01
  8.00000000E-01  1.50000000E+00  8.00000000E-01  8.00000000E-01  1.50000000E+00
  8.00000000E-01  8.00000000E-01  1.50000000E+00  8.00000000E-01  8.00000000E-01
  1.50000000E+00  8.00000000E-01  8.00000000E-01  1.50000000E+00  8.00000000E-01
  8.00000000E-01  1.50000000E+00  8.00000000E-01  8.00000000E-01  1.50000000E+00
  8.00000000E-01  8.00000000E-01  1.50000000E+00  8.00000000E-01  8.00000000E-01
  1.50000000E+00  8.00000000E-01  8.00000000E-01  1.50000000E+00  8.00000000E-01
  8.00000000E-01  1.50000000E+00  8.00000000E-01  8.00000000E-01  1.50000000E+00
  8.00000000E-01  8.00000000E-01  1.50000000E+00  8.00000000E-01  8.00000000E-01
  1.50000000E+00  8.00000000E-01  8.00000000E-01  1.50000000E+00  8.00000000E-01
  8.00000000E-01  1.50000000E+00  8.00000000E-01  8.00000000E-01  1.50000000E+00
  8.00000000E-01  8.00000000E-01  1.50000000E+00  8.00000000E-01  8.00000000E-01
  1.50000000E+00  8.00000000E-01  8.00000000E-01  1.50000000E+00  8.00000000E-01
  8.00000000E-01  1.50000000E+00  8.00000000E-01  8.00000000E-01  1.50000000E+00
  8.00000000E-01  8.00000000E-01  1.50000000E+00  8.00000000E-01  8.00000000E-01
  1.50000000E+00  8.00000000E-01  8.00000000E-01  1.50000000E+00  8.00000000E-01
  8.00000000E-01  1.50000000E+00  8.00000000E-01  8.00000000E-01  1.50000000E+00
  8.00000000E-01  8.00000000E-01  1.50000000E+00  8.00000000E-01  8.00000000E-01
  1.50000000E+00  8.00000000E-01  8.00000000E-01  1.50000000E+00  8.00000000E-01
  8.00000000E-01  1.50000000E+00  8.00000000E-01  8.00000000E-01  1.50000000E+00
  8.00000000E-01  8.00000000E-01  1.50000000E+00  8.00000000E-01  8.00000000E-01
  1.50000000E+00  8.00000000E-01  8.00000000E-01  1.50000000E+00  8.00000000E-01
  8.00000000E-01  1.50000000E+00  8.00000000E-01  8.00000000E-01  1.50000000E+00
  8.00000000E-01  8.00000000E-01  1.50000000E+00  8.00000000E-01  8.00000000E-01
  1.50000000E+00  8.00000000E-01  8.00000000E-01  1.50000000E+00  8.00000000E-01
  8.00000000E-01  1.50000000E+00  8.00000000E-01  8.00000000E-01  1.50000000E+00
  8.00000000E-01  8.00000000E-01  1.50000000E+00  8.00000000E-01  8.00000000E-01
  1.50000000E+00  8.00000000E-01  8.00000000E-01  1.50000000E+00  8.00000000E-01
  8.00000000E-01  1.50000000E+00  8.00000000E-01  8.00000000E-01  1.50000000E+00
  8.00000000E-01  8.00000000E-01  1.50000000E+00  8.00000000E-01  8.00000000E-01
  1.50000000E+00  8.00000000E-01  8.00000000E-01  1.50000000E+00  8.00000000E-01
  8.00000000E-01  1.50000000E+00  8.00000000E-01  8.00000000E-01  1.50000000E+00
  8.00000000E-01  8.00000000E-01  1.50000000E+00  8.00000000E-01  8.00000000E-01
  1.50000000E+00  8.00000000E-01  8.00000000E-01  1.50000000E+00  8.00000000E-01
  8.00000000E-01  1.50000000E+00  8.00000000E-01  8.00000000E-01  1.50000000E+00
  8.00000000E-01  8.00000000E-01  1.50000000E+00  8.00000000E-01  8.00000000E-01
  1.50000000E+00  8.00000000E-01  8.00000000E-01  1.50000000E+00  8.00000000E-01
  8.00000000E-01  1.50000000E+00  8.00000000E-01  8.00000000E-01  1.50000000E+00
  8.00000000E-01  8.00000000E-01  1.50000000E+00  8.00000000E-01  8.00000000E-01
  1.50000000E+00  8.00000000E-01  8.00000000E-01  1.50000000E+00  8.00000000E-01
  8.00000000E-01  1.50000000E+00  8.00000000E-01  8.00000000E-01  1.50000000E+00
  8.00000000E-01  8.00000000E-01  1.50000000E+00  8.00000000E-01  8.00000000E-01
  1.50000000E+00  8.00000000E-01  8.00000000E-01  1.50000000E+00  8.00000000E-01
  8.00000000E-01  1.50000000E+00  8.00000000E-01  8.00000000E-01  1.50000000E+00
  8.00000000E-01  8.00000000E-01  1.50000000E+00  8.00000000E-01  8.00000000E-01
  1.50000000E+00  8.00000000E-01  8.00000000E-01  1.50000000E+00  8.00000000E-01
  8.00000000E-01  1.50000000E+00  8.00000000E-01  8.00000000E-01  1.50000000E+00
  8.00000000E-01  8.00000000E-01  1.50000000E+00  8.00000000E-01  8.00000000E-01
  1.50000000E+00  8.00000000E-01  8.00000000E-01  1.50000000E+00  8.00000000E-01
  8.00000000E-01  1.50000000E+00  8.00000000E-01  8.00000000E-01  1.50000000E+00
  8.00000000E-01  8.00000000E-01  1.50000000E+00  8.00000000E-01  8.00000000E-01
  1.50000000E+00  8.00000000E-01  8.00000000E-01  1.50000000E+00  8.00000000E-01
  8.00000000E-01  1.50000000E+00  8.00000000E-01  8.00000000E-01  1.50000000E+00
  8.00000000E-01  8.00000000E-01  1.50000000E+00  8.00000000E-01  8.00000000E-01
  1.50000000E+00  8.00000000E-01  8.00000000E-01  1.50000000E+00  8.00000000E-01
  8.00000000E-01  1.50000000E+00  8.00000000E-01  8.00000000E-01  1.50000000E+00
  8.00000000E-01  8.00000000E-01  1.50000000E+00  8.00000000E-01  8.00000000E-01
  1.50000000E+00  8.00000000E-01  8.00000000E-01  1.50000000E+00  8.00000000E-01
  8.00000000E-01  1.50000000E+00  8.00000000E-01  8.00000000E-01  1.50000000E+00
  8.00000000E-01  8.00000000E-01  1.50000000E+00  8.00000000E-01  8.00000000E-01
  1.50000000E+00  8.00000000E-01  8.00000000E-01  1.50000000E+00  8.00000000E-01
  8.00000000E-01  1.50000000E+00  8.00000000E-01  8.00000000E-01  1.50000000E+00
  8.00000000E-01  8.00000000E-01  1.50000000E+00  8.00000000E-01  8.00000000E-01
  1.50000000E+00  8.00000000E-01  8.00000000E-01  1.50000000E+00  8.00000000E-01
  8.00000000E-01  1.50000000E+00  8.00000000E-01  8.00000000E-01  1.50000000E+00
  8.00000000E-01  8.00000000E-01  1.50000000E+00  8.00000000E-01  8.00000000E-01
  1.50000000E+00  8.00000000E-01  8.00000000E-01  1.50000000E+00  8.00000000E-01
  8.00000000E-01  1.50000000E+00  8.00000000E-01  8.00000000E-01  1.50000000E+00
  8.00000000E-01  8.00000000E-01  1.50000000E+00  8.00000000E-01  8.00000000E-01
  1.50000000E+00  8.00000000E-01  8.00000000E-01  1.50000000E+00  8.00000000E-01
  8.00000000E-01  1.50000000E+00  8.00000000E-01  8.00000000E-01  1.50000000E+00
  8.00000000E-01  8.00000000E-01  1.50000000E+00  8.00000000E-01  8.00000000E-01
  1.50000000E+00  8.00000000E-01  8.00000000E-01  1.50000000E+00  8.00000000E-01
  8.00000000E-01  1.50000000E+00  8.00000000E-01  8.00000000E-01  1.50000000E+00
  8.00000000E-01  8.00000000E-01  1.50000000E+00  8.00000000E-01  8.00000000E-01
  1.50000000E+00  8.00000000E-01  8.00000000E-01  1.50000000E+00  8.00000000E-01
  8.00000000E-01  1.50000000E+00  8.00000000E-01  8.00000000E-01  1.50000000E+00
  8.00000000E-01  8.00000000E-01  1.50000000E+00  8.00000000E-01  8.00000000E-01
  1.50000000E+00  8.00000000E-01  8.00000000E-01  1.50000000E+00  8.00000000E-01
  8.00000000E-01  1.50000000E+00  8.00000000E-01  8.00000000E-01  1.50000000E+00
  8.00000000E-01  8.00000000E-01  1.50000000E+00  8.00000000E-01  8.00000000E-01
  1.50000000E+00  8.00000000E-01  8.00000000E-01  1.50000000E+00  8.00000000E-01
  8.00000000E-01  1.50000000E+00  8.00000000E-01  8.00000000E-01  1.50000000E+00
  8.00000000E-01  8.00000000E-01  1.50000000E+00  8.00000000E-01  8.00000000E-01
  1.50000000E+00  8.00000000E-01  8.00000000E-01  1.50000000E+00  8.00000000E-01
  8.00000000E-01  1.50000000E+00  8.00000000E-01  8.00000000E-01  1.50000000E+00
  8.00000000E-01  8.00000000E-01  1.50000000E+00  8.00000000E-01  8.00000000E-01
  1.50000000E+00  8.00000000E-01  8.00000000E-01  1.50000000E+00  8.00000000E-01
  8.00000000E-01  1.50000000E+00  8.00000000E-01  8.00000000E-01  1.50000000E+00
  8.00000000E-01  8.00000000E-01  1.50000000E+00  8.00000000E-01  8.00000000E-01
  1.50000000E+00  8.00000000E-01  8.00000000E-01  1.50000000E+00  8.00000000E-01
  8.00000000E-01  1.50000000E+00  8.00000000E-01  8.00000000E-01  1.50000000E+00
  8.00000000E-01  8.00000000E-01  1.50000000E+00  8.00000000E-01  8.00000000E-01
  1.50000000E+00  8.00000000E-01  8.00000000E-01  1.50000000E+00  8.00000000E-01
  8.00000000E-01  1.50000000E+00  8.00000000E-01  8.00000000E-01  1.50000000E+00
  8.00000000E-01  8.00000000E-01  1.50000000E+00  8.00000000E-01  8.00000000E-01
  1.50000000E+00  8.00000000E-01  8.00000000E-01  1.50000000E+00  8.00000000E-01
  8.00000000E-01  1.50000000E+00  8.00000000E-01  8.00000000E-01  1.50000000E+00
  8.00000000E-01  8.00000000E-01  1.50000000E+00  8.00000000E-01  8.00000000E-01
  1.50000000E+00  8.00000000E-01  8.00000000E-01  1.50000000E+00  8.00000000E-01
  8.00000000E-01  1.50000000E+00  8.00000000E-01  8.00000000E-01  1.50000000E+00
  8.00000000E-01  8.00000000E-01  1.50000000E+00  8.00000000E-01  8.00000000E-01
  1.50000000E+00  8.00000000E-01  8.00000000E-01  1.50000000E+00  8.00000000E-01
  8.00000000E-01  1.50000000E+00  8.00000000E-01  8.00000000E-01  1.50000000E+00
  8.00000000E-01  8.00000000E-01  1.50000000E+00  8.00000000E-01  8.00000000E-01
  1.50000000E+00  8.00000000E-01  8.00000000E-01  1.50000000E+00  8.00000000E-01
  8.00000000E-01  1.50000000E+00  8.00000000E-01  8.00000000E-01  1.50000000E+00
  8.00000000E-01  8.00000000E-01  1.50000000E+00  8.00000000E-01  8.00000000E-01
  1.50000000E+00  8.00000000E-01  8.00000000E-01  1.50000000E+00  8.00000000E-01
  8.00000000E-01  1.50000000E+00  8.00000000E-01  8.00000000E-01  1.50000000E+00
  8.00000000E-01  8.00000000E-01  1.50000000E+00  8.00000000E-01  8.00000000E-01
  1.50000000E+00  8.00000000E-01  8.00000000E-01  1.50000000E+00  8.00000000E-01
  8.00000000E-01  1.50000000E+00  8.00000000E-01  8.00000000E-01  1.50000000E+00
  8.00000000E-01  8.00000000E-01  1.50000000E+00  8.00000000E-01  8.00000000E-01
  1.50000000E+00  8.00000000E-01  8.00000000E-01  1.50000000E+00  8.00000000E-01
  8.00000000E-01  1.50000000E+00  8.00000000E-01  8.00000000E-01  1.50000000E+00
  8.00000000E-01  8.00000000E-01  1.50000000E+00  8.00000000E-01  8.00000000E-01
  1.50000000E+00  8.00000000E-01  8.00000000E-01  1.50000000E+00  8.00000000E-01
  8.00000000E-01  1.50000000E+00  8.00000000E-01  8.00000000E-01  1.50000000E+00
  8.00000000E-01  8.00000000E-01  1.50000000E+00  8.00000000E-01  8.00000000E-01
  1.50000000E+00  8.00000000E-01  8.00000000E-01  1.50000000E+00  8.00000000E-01
  8.00000000E-01  1.50000000E+00  8.00000000E-01  8.00000000E-01  1.50000000E+00
  8.00000000E-01  8.00000000E-01  1.50000000E+00  8.00000000E-01  8.00000000E-01
  1.50000000E+00  8.00000000E-01  8.00000000E-01  1.50000000E+00  8.00000000E-01
  8.00000000E-01  1.50000000E+00  8.00000000E-01  8.00000000E-01  1.50000000E+00
  8.00000000E-01  8.00000000E-01  1.50000000E+00  8.00000000E-01  8.00000000E-01
  1.50000000E+00  8.00000000E-01  8.00000000E-01  1.50000000E+00  8.00000000E-01
  8.00000000E-01  1.50000000E+00  8.00000000E-01  8.00000000E-01  1.50000000E+00
  8.00000000E-01  8.00000000E-01  1.50000000E+00  8.00000000E-01  8.00000000E-01
  1.50000000E+00  8.00000000E-01  8.00000000E-01  1.50000000E+00  8.00000000E-01
  8.00000000E-01  1.50000000E+00  8.00000000E-01  8.00000000E-01  1.50000000E+00
  8.00000000E-01  8.00000000E-01  1.50000000E+00  8.00000000E-01  8.00000000E-01
  1.50000000E+00  8.00000000E-01  8.00000000E-01  1.50000000E+00  8.00000000E-01
  8.00000000E-01  1.50000000E+00  8.00000000E-01  8.00000000E-01  1.50000000E+00
  8.00000000E-01  8.00000000E-01  1.50000000E+00  8.00000000E-01  8.00000000E-01
  1.50000000E+00  8.00000000E-01  8.00000000E-01  1.50000000E+00  8.00000000E-01
  8.00000000E-01  1.50000000E+00  8.00000000E-01  8.00000000E-01  1.50000000E+00
  8.00000000E-01  8.00000000E-01  1.50000000E+00  8.00000000E-01  8.00000000E-01
  1.50000000E+00  8.00000000E-01  8.00000000E-01  1.50000000E+00  8.00000000E-01
  8.00000000E-01  1.50000000E+00  8.00000000E-01  8.00000000E-01  1.50000000E+00
  8.00000000E-01  8.00000000E-01  1.50000000E+00  8.00000000E-01  8.00000000E-01
  1.50000000E+00  8.00000000E-01  8.00000000E-01  1.50000000E+00  8.00000000E-01
  8.00000000E-01  1.50000000E+00  8.00000000E-01  8.00000000E-01  1.50000000E+00
  8.00000000E-01  8.00000000E-01  1.50000000E+00  8.00000000E-01  8.00000000E-01
  1.50000000E+00  8.00000000E-01  8.00000000E-01  1.50000000E+00  8.00000000E-01
  8.00000000E-01  1.50000000E+00  8.00000000E-01  8.00000000E-01  1.50000000E+00
  8.00000000E-01  8.00000000E-01  1.50000000E+00  8.00000000E-01  8.00000000E-01
  1.50000000E+00  8.00000000E-01  8.00000000E-01  1.50000000E+00  8.00000000E-01
  8.00000000E-01  1.50000000E+00  8.00000000E-01  8.00000000E-01  1.50000000E+00
  8.00000000E-01  8.00000000E-01  1.50000000E+00  8.00000000E-01  8.00000000E-01
  1.50000000E+00  8.00000000E-01  8.00000000E-01  1.50000000E+00  8.00000000E-01
  8.00000000E-01  1.50000000E+00  8.00000000E-01  8.00000000E-01  1.50000000E+00
  8.00000000E-01  8.00000000E-01  1.50000000E+00  8.00000000E-01  8.00000000E-01
  1.50000000E+00  8.00000000E-01  8.00000000E-01  1.50000000E+00  8.00000000E-01
  8.00000000E-01  1.50000000E+00  8.00000000E-01  8.00000000E-01  1.50000000E+00
  8.00000000E-01  8.00000000E-01  1.50000000E+00  8.00000000E-01  8.00000000E-01
  1.50000000E+00  8.00000000E-01  8.00000000E-01  1.50000000E+00  8.00000000E-01
  8.00000000E-01  1.50000000E+00  8.00000000E-01  8.00000000E-01  1.50000000E+00
  8.00000000E-01  8.00000000E-01  1.50000000E+00  8.00000000E-01  8.00000000E-01
  1.50000000E+00  8.00000000E-01  8.00000000E-01  1.50000000E+00  8.00000000E-01
  8.00000000E-01  1.50000000E+00  8.00000000E-01  8.00000000E-01  1.50000000E+00
  8.00000000E-01  8.00000000E-01  1.50000000E+00  8.00000000E-01  8.00000000E-01
  1.50000000E+00  8.00000000E-01  8.00000000E-01  1.50000000E+00  8.00000000E-01
  8.00000000E-01  1.50000000E+00  8.00000000E-01  8.00000000E-01  1.50000000E+00
  8.00000000E-01  8.00000000E-01  1.50000000E+00  8.00000000E-01  8.00000000E-01
  1.50000000E+00  8.00000000E-01  8.00000000E-01  1.50000000E+00  8.00000000E-01
  8.00000000E-01  1.50000000E+00  8.00000000E-01  8.00000000E-01  1.50000000E+00
  8.00000000E-01  8.00000000E-01  1.50000000E+00  8.00000000E-01  8.00000000E-01
  1.50000000E+00  8.00000000E-01  8.00000000E-01  1.50000000E+00  8.00000000E-01
  8.00000000E-01  1.50000000E+00  8.00000000E-01  8.00000000E-01  1.50000000E+00
  8.00000000E-01  8.00000000E-01  1.50000000E+00  8.00000000E-01  8.00000000E-01
  1.50000000E+00  8.00000000E-01  8.00000000E-01  1.50000000E+00  8.00000000E-01
  8.00000000E-01  1.50000000E+00  8.00000000E-01  8.00000000E-01  1.50000000E+00
  8.00000000E-01  8.00000000E-01  1.50000000E+00  8.00000000E-01  8.00000000E-01
  1.50000000E+00  8.00000000E-01  8.00000000E-01  1.50000000E+00  8.00000000E-01
  8.00000000E-01  1.50000000E+00  8.00000000E-01  8.00000000E-01  1.50000000E+00
  8.00000000E-01  8.00000000E-01  1.50000000E+00  8.00000000E-01  8.00000000E-01
  1.50000000E+00  8.00000000E-01  8.00000000E-01  1.50000000E+00  8.00000000E-01
  8.00000000E-01  1.50000000E+00  8.00000000E-01  8.00000000E-01  1.50000000E+00
  8.00000000E-01  8.00000000E-01  1.50000000E+00  8.00000000E-01  8.00000000E-01
  1.50000000E+00  8.00000000E-01  8.00000000E-01  1.50000000E+00  8.00000000E-01
  8.00000000E-01  1.50000000E+00  8.00000000E-01  8.00000000E-01  1.50000000E+00
  8.00000000E-01  8.00000000E-01  1.50000000E+00  8.00000000E-01  8.00000000E-01
  1.50000000E+00  8.00000000E-01  8.00000000E-01  1.50000000E+00  8.00000000E-01
  8.00000000E-01  1.50000000E+00  8.00000000E-01  8.00000000E-01  1.50000000E+00
  8.00000000E-01  8.00000000E-01  1.50000000E+00  8.00000000E-01  8.00000000E-01
  1.50000000E+00  8.00000000E-01  8.00000000E-01  1.50000000E+00  8.00000000E-01
  8.00000000E-01  1.50000000E+00  8.00000000E-01  8.00000000E-01  1.50000000E+00
  8.00000000E-01  8.00000000E-01  1.50000000E+00  8.00000000E-01  8.00000000E-01
  1.50000000E+00  8.00000000E-01  8.00000000E-01  1.50000000E+00  8.00000000E-01
  8.00000000E-01  1.50000000E+00  8.00000000E-01  8.00000000E-01  1.50000000E+00
  8.00000000E-01  8.00000000E-01  1.50000000E+00  8.00000000E-01  8.00000000E-01
  1.50000000E+00  8.00000000E-01  8.00000000E-01  1.50000000E+00  8.00000000E-01
  8.00000000E-01  1.50000000E+00  8.00000000E-01  8.00000000E-01  1.50000000E+00
  8.00000000E-01  8.00000000E-01  1.50000000E+00  8.00000000E-01  8.00000000E-01
  1.50000000E+00  8.00000000E-01  8.00000000E-01  1.50000000E+00  8.00000000E-01
  8.00000000E-01  1.50000000E+00  8.00000000E-01  8.00000000E-01  1.50000000E+00
  8.00000000E-01  8.00000000E-01  1.50000000E+00  8.00000000E-01  8.00000000E-01
  1.50000000E+00  8.00000000E-01  8.00000000E-01  1.50000000E+00  8.00000000E-01
  8.00000000E-01  1.50000000E+00  8.00000000E-01  8.00000000E-01  1.50000000E+00
  8.00000000E-01  8.00000000E-01  1.50000000E+00  8.00000000E-01  8.00000000E-01
  1.50000000E+00  8.00000000E-01  8.00000000E-01  1.50000000E+00  8.00000000E-01
  8.00000000E-01  1.50000000E+00  8.00000000E-01  8.00000000E-01  1.50000000E+00
  8.00000000E-01  8.00000000E-01  1.50000000E+00  8.00000000E-01  8.00000000E-01
  1.50000000E+00  8.00000000E-01  8.00000000E-01  1.50000000E+00  8.00000000E-01
  8.00000000E-01  1.50000000E+00  8.00000000E-01  8.00000000E-01  1.50000000E+00
  8.00000000E-01  8.00000000E-01  1.50000000E+00  8.00000000E-01  8.00000000E-01
  1.50000000E+00  8.00000000E-01  8.00000000E-01  1.50000000E+00  8.00000000E-01
  8.00000000E-01  1.50000000E+00  8.00000000E-01  8.00000000E-01  1.50000000E+00
  8.00000000E-01  8.00000000E-01  1.50000000E+00  8.00000000E-01  8.00000000E-01
  1.50000000E+00  8.00000000E-01  8.00000000E-01  1.50000000E+00  8.00000000E-01
  8.00000000E-01  1.50000000E+00  8.00000000E-01  8.00000000E-01  1.50000000E+00
  8.00000000E-01  8.00000000E-01  1.50000000E+00  8.00000000E-01  8.00000000E-01
  1.50000000E+00  8.00000000E-01  8.00000000E-01  1.50000000E+00  8.00000000E-01
  8.00000000E-01  1.50000000E+00  8.00000000E-01  8.00000000E-01  1.50000000E+00
  8.00000000E-01  8.00000000E-01  1.50000000E+00  8.00000000E-01  8.00000000E-01
  1.50000000E+00  8.00000000E-01  8.00000000E-01  1.50000000E+00  8.00000000E-01
  8.00000000E-01  1.50000000E+00  8.00000000E-01  8.00000000E-01  1.50000000E+00
  8.00000000E-01  8.00000000E-01  1.50000000E+00  8.00000000E-01  8.00000000E-01
  1.50000000E+00  8.00000000E-01  8.00000000E-01  1.50000000E+00  8.00000000E-01
  8.00000000E-01  1.50000000E+00  8.00000000E-01  8.00000000E-01  1.50000000E+00
  8.00000000E-01  8.00000000E-01  1.50000000E+00  8.00000000E-01  8.00000000E-01
  1.50000000E+00  8.00000000E-01  8.00000000E-01  1.50000000E+00  8.00000000E-01
  8.00000000E-01  1.50000000E+00  8.00000000E-01  8.00000000E-01  1.50000000E+00
  8.00000000E-01  8.00000000E-01  1.50000000E+00  8.00000000E-01  8.00000000E-01
  1.50000000E+00  8.00000000E-01  8.00000000E-01  1.50000000E+00  8.00000000E-01
  8.00000000E-01  1.50000000E+00  8.00000000E-01  8.00000000E-01  1.50000000E+00
  8.00000000E-01  8.00000000E-01  1.50000000E+00  8.00000000E-01  8.00000000E-01
  1.50000000E+00  8.00000000E-01  8.00000000E-01  1.50000000E+00  8.00000000E-01
  8.00000000E-01  1.50000000E+00  8.00000000E-01  8.00000000E-01  1.50000000E+00
  8.00000000E-01  8.00000000E-01  1.50000000E+00  8.00000000E-01  8.00000000E-01
  1.50000000E+00  8.00000000E-01  8.00000000E-01  1.50000000E+00  8.00000000E-01
  8.00000000E-01  1.50000000E+00  8.00000000E-01  8.00000000E-01  1.50000000E+00
  8.00000000E-01  8.00000000E-01  1.50000000E+00  8.00000000E-01  8.00000000E-01
  1.50000000E+00  8.00000000E-01  8.00000000E-01  1.50000000E+00  8.00000000E-01
  8.00000000E-01  1.50000000E+00  8.00000000E-01  8.00000000E-01  1.50000000E+00
  8.00000000E-01  8.00000000E-01  1.50000000E+00  8.00000000E-01  8.00000000E-01
  1.50000000E+00  8.00000000E-01  8.00000000E-01  1.50000000E+00  8.00000000E-01
  8.00000000E-01  1.50000000E+00  8.00000000E-01  8.00000000E-01  1.50000000E+00
  8.00000000E-01  8.00000000E-01  1.50000000E+00  8.00000000E-01  8.00000000E-01
  1.50000000E+00  8.00000000E-01  8.00000000E-01  1.50000000E+00  8.00000000E-01
  8.00000000E-01  1.50000000E+00  8.00000000E-01  8.00000000E-01  1.50000000E+00
  8.00000000E-01  8.00000000E-01  1.50000000E+00  8.00000000E-01  8.00000000E-01
  1.50000000E+00  8.00000000E-01  8.00000000E-01  1.50000000E+00  8.00000000E-01
  8.00000000E-01  1.50000000E+00  8.00000000E-01  8.00000000E-01  1.50000000E+00
  8.00000000E-01  8.00000000E-01  1.50000000E+00  8.00000000E-01  8.00000000E-01
  1.50000000E+00  8.00000000E-01  8.00000000E-01  1.50000000E+00  8.00000000E-01
  8.00000000E-01  1.50000000E+00  8.00000000E-01  8.00000000E-01  1.50000000E+00
  8.00000000E-01  8.00000000E-01  1.50000000E+00  8.00000000E-01  8.00000000E-01
  1.50000000E+00  8.00000000E-01  8.00000000E-01  1.50000000E+00  8.00000000E-01
  8.00000000E-01  1.50000000E+00  8.00000000E-01  8.00000000E-01  1.50000000E+00
  8.00000000E-01  8.00000000E-01  1.50000000E+00  8.00000000E-01  8.00000000E-01
  1.50000000E+00  8.00000000E-01  8.00000000E-01  1.50000000E+00  8.00000000E-01
  8.00000000E-01  1.50000000E+00  8.00000000E-01  8.00000000E-01  1.50000000E+00
  8.00000000E-01  8.00000000E-01  1.50000000E+00  8.00000000E-01  8.00000000E-01
  1.50000000E+00  8.00000000E-01  8.00000000E-01  1.50000000E+00  8.00000000E-01
  8.00000000E-01  1.50000000E+00  8.00000000E-01  8.00000000E-01  1.50000000E+00
  8.00000000E-01  8.00000000E-01  1.50000000E+00  8.00000000E-01  8.00000000E-01
  1.50000000E+00  8.00000000E-01  8.00000000E-01  1.50000000E+00  8.00000000E-01
  8.00000000E-01  1.50000000E+00  8.00000000E-01  8.00000000E-01  1.50000000E+00
  8.00000000E-01  8.00000000E-01  1.50000000E+00  8.00000000E-01  8.00000000E-01
  1.50000000E+00  8.00000000E-01  8.00000000E-01  1.50000000E+00  8.00000000E-01
  8.00000000E-01  1.50000000E+00  8.00000000E-01  8.00000000E-01  1.50000000E+00
  8.00000000E-01  8.00000000E-01  1.50000000E+00  8.00000000E-01  8.00000000E-01
  1.50000000E+00  8.00000000E-01  8.00000000E-01  1.50000000E+00  8.00000000E-01
  8.00000000E-01  1.50000000E+00  8.00000000E-01  8.00000000E-01  1.50000000E+00
  8.00000000E-01  8.00000000E-01  1.50000000E+00  8.00000000E-01  8.00000000E-01
  1.50000000E+00  8.00000000E-01  8.00000000E-01  1.50000000E+00  8.00000000E-01
  8.00000000E-01  1.50000000E+00  8.00000000E-01  8.00000000E-01  1.50000000E+00
  8.00000000E-01  8.00000000E-01  1.50000000E+00  8.00000000E-01  8.00000000E-01
  1.50000000E+00  8.00000000E-01  8.00000000E-01  1.50000000E+00  8.00000000E-01
  8.00000000E-01  1.50000000E+00  8.00000000E-01  8.00000000E-01  1.50000000E+00
  8.00000000E-01  8.00000000E-01  1.50000000E+00  8.00000000E-01  8.00000000E-01
  1.50000000E+00  8.00000000E-01  8.00000000E-01  1.50000000E+00  8.00000000E-01
  8.00000000E-01  1.50000000E+00  8.00000000E-01  8.00000000E-01  1.50000000E+00
  8.00000000E-01  8.00000000E-01  1.50000000E+00  8.00000000E-01  8.00000000E-01
  1.50000000E+00  8.00000000E-01  8.00000000E-01  1.50000000E+00  8.00000000E-01
  8.00000000E-01  1.50000000E+00  8.00000000E-01  8.00000000E-01  1.50000000E+00
  8.00000000E-01  8.00000000E-01  1.50000000E+00  8.00000000E-01  8.00000000E-01
  1.50000000E+00  8.00000000E-01  8.00000000E-01  1.50000000E+00  8.00000000E-01
  8.00000000E-01  1.50000000E+00  8.00000000E-01  8.00000000E-01  1.50000000E+00
  8.00000000E-01  8.00000000E-01  1.50000000E+00  8.00000000E-01  8.00000000E-01
  1.50000000E+00  8.00000000E-01  8.00000000E-01  1.50000000E+00  8.00000000E-01
  8.00000000E-01  1.50000000E+00  8.00000000E-01  8.00000000E-01  1.50000000E+00
  8.00000000E-01  8.00000000E-01  1.50000000E+00  8.00000000E-01  8.00000000E-01
  1.50000000E+00  8.00000000E-01  8.00000000E-01  1.50000000E+00  8.00000000E-01
  8.00000000E-01  1.50000000E+00  8.00000000E-01  8.00000000E-01  1.50000000E+00
  8.00000000E-01  8.00000000E-01  1.50000000E+00  8.00000000E-01  8.00000000E-01
  1.50000000E+00  8.00000000E-01  8.00000000E-01  1.50000000E+00  8.00000000E-01
  8.00000000E-01  1.50000000E+00  8.00000000E-01  8.00000000E-01  1.50000000E+00
  8.00000000E-01  8.00000000E-01  1.50000000E+00  8.00000000E-01  8.00000000E-01
  1.50000000E+00  8.00000000E-01  8.00000000E-01  1.50000000E+00  8.00000000E-01
  8.00000000E-01  1.50000000E+00  8.00000000E-01  8.00000000E-01  1.50000000E+00
  8.00000000E-01  8.00000000E-01  1.50000000E+00  8.00000000E-01  8.00000000E-01
  1.50000000E+00  8.00000000E-01  8.00000000E-01  1.50000000E+00  8.00000000E-01
  8.00000000E-01  1.50000000E+00  8.00000000E-01  8.00000000E-01  1.50000000E+00
  8.00000000E-01  8.00000000E-01  1.50000000E+00  8.00000000E-01  8.00000000E-01
  1.50000000E+00  8.00000000E-01  8.00000000E-01  1.50000000E+00  8.00000000E-01
  8.00000000E-01  1.50000000E+00  8.00000000E-01  8.00000000E-01  1.50000000E+00
  8.00000000E-01  8.00000000E-01  1.50000000E+00  8.00000000E-01  8.00000000E-01
  1.50000000E+00  8.00000000E-01  8.00000000E-01  1.50000000E+00  8.00000000E-01
  8.00000000E-01  1.50000000E+00  8.00000000E-01  8.00000000E-01  1.50000000E+00
  8.00000000E-01  8.00000000E-01  1.50000000E+00  8.00000000E-01  8.00000000E-01
  1.50000000E+00  8.00000000E-01  8.00000000E-01  1.50000000E+00  8.00000000E-01
  8.00000000E-01  1.50000000E+00  8.00000000E-01  8.00000000E-01  1.50000000E+00
  8.00000000E-01  8.00000000E-01  1.50000000E+00  8.00000000E-01  8.00000000E-01
  1.50000000E+00  8.00000000E-01  8.00000000E-01  1.50000000E+00  8.00000000E-01
  8.00000000E-01  1.50000000E+00  8.00000000E-01  8.00000000E-01  1.50000000E+00
  8.00000000E-01  8.00000000E-01  1.50000000E+00  8.00000000E-01  8.00000000E-01
  1.50000000E+00  8.00000000E-01  8.00000000E-01  1.50000000E+00  8.00000000E-01
  8.00000000E-01  1.50000000E+00  8.00000000E-01  8.00000000E-01  1.50000000E+00
  8.00000000E-01  8.00000000E-01  1.50000000E+00  8.00000000E-01  8.00000000E-01
  1.50000000E+00  8.00000000E-01  8.00000000E-01  1.50000000E+00  8.00000000E-01
  8.00000000E-01  1.50000000E+00  8.00000000E-01  8.00000000E-01  1.50000000E+00
  8.00000000E-01  8.00000000E-01  1.50000000E+00  8.00000000E-01  8.00000000E-01
  1.50000000E+00  8.00000000E-01  8.00000000E-01  1.50000000E+00  8.00000000E-01
  8.00000000E-01  1.50000000E+00  8.00000000E-01  8.00000000E-01  1.50000000E+00
  8.00000000E-01  8.00000000E-01  1.50000000E+00  8.00000000E-01  8.00000000E-01
  1.50000000E+00  8.00000000E-01  8.00000000E-01  1.50000000E+00  8.00000000E-01
  8.00000000E-01  1.50000000E+00  8.00000000E-01  8.00000000E-01  1.50000000E+00
  8.00000000E-01  8.00000000E-01  1.50000000E+00  8.00000000E-01  8.00000000E-01
  1.50000000E+00  8.00000000E-01  8.00000000E-01  1.50000000E+00  8.00000000E-01
  8.00000000E-01  1.50000000E+00  8.00000000E-01  8.00000000E-01  1.50000000E+00
  8.00000000E-01  8.00000000E-01  1.50000000E+00  8.00000000E-01  8.00000000E-01
  1.50000000E+00  8.00000000E-01  8.00000000E-01  1.50000000E+00  8.00000000E-01
  8.00000000E-01  1.50000000E+00  8.00000000E-01  8.00000000E-01  1.50000000E+00
  8.00000000E-01  8.00000000E-01  1.50000000E+00  8.00000000E-01  8.00000000E-01
  1.50000000E+00  8.00000000E-01  8.00000000E-01  1.50000000E+00  8.00000000E-01
  8.00000000E-01  1.50000000E+00  8.00000000E-01  8.00000000E-01  1.50000000E+00
  8.00000000E-01  8.00000000E-01  1.50000000E+00  8.00000000E-01  8.00000000E-01
  1.50000000E+00  8.00000000E-01  8.00000000E-01  1.50000000E+00  8.00000000E-01
  8.00000000E-01  1.50000000E+00  8.00000000E-01  8.00000000E-01  1.50000000E+00
  8.00000000E-01  8.00000000E-01  1.50000000E+00  8.00000000E-01  8.00000000E-01
  1.50000000E+00  8.00000000E-01  8.00000000E-01  1.50000000E+00  8.00000000E-01
  8.00000000E-01  1.50000000E+00  8.00000000E-01  8.00000000E-01  1.50000000E+00
  8.00000000E-01  8.00000000E-01  1.50000000E+00  8.00000000E-01  8.00000000E-01
  1.50000000E+00  8.00000000E-01  8.00000000E-01  1.50000000E+00  8.00000000E-01
  8.00000000E-01  1.50000000E+00  8.00000000E-01  8.00000000E-01  1.50000000E+00
  8.00000000E-01  8.00000000E-01  1.50000000E+00  8.00000000E-01  8.00000000E-01
  1.50000000E+00  8.00000000E-01  8.00000000E-01  1.50000000E+00  8.00000000E-01
  8.00000000E-01  1.50000000E+00  8.00000000E-01  8.00000000E-01  1.50000000E+00
  8.00000000E-01  8.00000000E-01  1.50000000E+00  8.00000000E-01  8.00000000E-01
  1.50000000E+00  8.00000000E-01  8.00000000E-01  1.50000000E+00  8.00000000E-01
  8.00000000E-01  1.50000000E+00  8.00000000E-01  8.00000000E-01  1.50000000E+00
  8.00000000E-01  8.00000000E-01  1.50000000E+00  8.00000000E-01  8.00000000E-01
  1.50000000E+00  8.00000000E-01  8.00000000E-01  1.50000000E+00  8.00000000E-01
  8.00000000E-01  1.50000000E+00  8.00000000E-01  8.00000000E-01  1.50000000E+00
  8.00000000E-01  8.00000000E-01  1.50000000E+00  8.00000000E-01  8.00000000E-01
  1.50000000E+00  8.00000000E-01  8.00000000E-01  1.50000000E+00  8.00000000E-01
  8.00000000E-01  1.50000000E+00  8.00000000E-01  8.00000000E-01  1.50000000E+00
  8.00000000E-01  8.00000000E-01  1.50000000E+00  8.00000000E-01  8.00000000E-01
  1.50000000E+00  8.00000000E-01  8.00000000E-01  1.50000000E+00  8.00000000E-01
  8.00000000E-01  1.50000000E+00  8.00000000E-01  8.00000000E-01  1.50000000E+00
  8.00000000E-01  8.00000000E-01  1.50000000E+00  8.00000000E-01  8.00000000E-01
  1.50000000E+00  8.00000000E-01  8.00000000E-01  1.50000000E+00  8.00000000E-01
  8.00000000E-01  1.50000000E+00  8.00000000E-01  8.00000000E-01  1.50000000E+00
  8.00000000E-01  8.00000000E-01  1.50000000E+00  8.00000000E-01  8.00000000E-01
  1.50000000E+00  8.00000000E-01  8.00000000E-01  1.50000000E+00  8.00000000E-01
  8.00000000E-01  1.50000000E+00  8.00000000E-01  8.00000000E-01  1.50000000E+00
  8.00000000E-01  8.00000000E-01  1.50000000E+00  8.00000000E-01  8.00000000E-01
  1.50000000E+00  8.00000000E-01  8.00000000E-01  1.50000000E+00  8.00000000E-01
  8.00000000E-01  1.50000000E+00  8.00000000E-01  8.00000000E-01  1.50000000E+00
  8.00000000E-01  8.00000000E-01  1.50000000E+00  8.00000000E-01  8.00000000E-01
  1.50000000E+00  8.00000000E-01  8.00000000E-01  1.50000000E+00  8.00000000E-01
  8.00000000E-01  1.50000000E+00  8.00000000E-01  8.00000000E-01  1.50000000E+00
  8.00000000E-01  8.00000000E-01  1.50000000E+00  8.00000000E-01  8.00000000E-01
  1.50000000E+00  8.00000000E-01  8.00000000E-01  1.50000000E+00  8.00000000E-01
  8.00000000E-01  1.50000000E+00  8.00000000E-01  8.00000000E-01  1.50000000E+00
  8.00000000E-01  8.00000000E-01  1.50000000E+00  8.00000000E-01  8.00000000E-01
  1.50000000E+00  8.00000000E-01  8.00000000E-01  1.50000000E+00  8.00000000E-01
  8.00000000E-01  1.50000000E+00  8.00000000E-01  8.00000000E-01  1.50000000E+00
  8.00000000E-01  8.00000000E-01  1.50000000E+00  8.00000000E-01  8.00000000E-01
  1.50000000E+00  8.00000000E-01  8.00000000E-01  1.50000000E+00  8.00000000E-01
  8.00000000E-01  1.50000000E+00  8.00000000E-01  8.00000000E-01  1.50000000E+00
  8.00000000E-01  8.00000000E-01  1.50000000E+00  8.00000000E-01  8.00000000E-01
  1.50000000E+00  8.00000000E-01  8.00000000E-01  1.50000000E+00  8.00000000E-01
  8.00000000E-01  1.50000000E+00  8.00000000E-01  8.00000000E-01  1.50000000E+00
  8.00000000E-01  8.00000000E-01  1.50000000E+00  8.00000000E-01  8.00000000E-01
  1.50000000E+00  8.00000000E-01  8.00000000E-01  1.50000000E+00  8.00000000E-01
  8.00000000E-01  1.50000000E+00  8.00000000E-01  8.00000000E-01  1.50000000E+00
  8.00000000E-01  8.00000000E-01  1.50000000E+00  8.00000000E-01  8.00000000E-01
  1.50000000E+00  8.00000000E-01  8.00000000E-01  1.50000000E+00  8.00000000E-01
  8.00000000E-01  1.50000000E+00  8.00000000E-01  8.00000000E-01  1.50000000E+00
  8.00000000E-01  8.00000000E-01  1.50000000E+00  8.00000000E-01  8.00000000E-01
  1.50000000E+00  8.00000000E-01  8.00000000E-01  1.50000000E+00  8.00000000E-01
  8.00000000E-01  1.50000000E+00  8.00000000E-01  8.00000000E-01  1.50000000E+00
  8.00000000E-01  8.00000000E-01  1.50000000E+00  8.00000000E-01  8.00000000E-01
  1.50000000E+00  8.00000000E-01  8.00000000E-01  1.50000000E+00  8.00000000E-01
  8.00000000E-01  1.50000000E+00  8.00000000E-01  8.00000000E-01  1.50000000E+00
  8.00000000E-01  8.00000000E-01  1.50000000E+00  8.00000000E-01  8.00000000E-01
  1.50000000E+00  8.00000000E-01  8.00000000E-01  1.50000000E+00  8.00000000E-01
  8.00000000E-01  1.50000000E+00  8.00000000E-01  8.00000000E-01  1.50000000E+00
  8.00000000E-01  8.00000000E-01  1.50000000E+00  8.00000000E-01  8.00000000E-01
  1.50000000E+00  8.00000000E-01  8.00000000E-01  1.50000000E+00  8.00000000E-01
  8.00000000E-01  1.50000000E+00  8.00000000E-01  8.00000000E-01  1.50000000E+00
  8.00000000E-01  8.00000000E-01  1.50000000E+00  8.00000000E-01  8.00000000E-01
  1.50000000E+00  8.00000000E-01  8.00000000E-01  1.50000000E+00  8.00000000E-01
  8.00000000E-01  1.50000000E+00  8.00000000E-01  8.00000000E-01  1.50000000E+00
  8.00000000E-01  8.00000000E-01  1.50000000E+00  8.00000000E-01  8.00000000E-01
  1.50000000E+00  8.00000000E-01  8.00000000E-01  1.50000000E+00  8.00000000E-01
  8.00000000E-01  1.50000000E+00  8.00000000E-01  8.00000000E-01  1.50000000E+00
  8.00000000E-01  8.00000000E-01  1.50000000E+00  8.00000000E-01  8.00000000E-01
  1.50000000E+00  8.00000000E-01  8.00000000E-01  1.50000000E+00  8.00000000E-01
  8.00000000E-01  1.50000000E+00  8.00000000E-01  8.00000000E-01  1.50000000E+00
  8.00000000E-01  8.00000000E-01  1.50000000E+00  8.00000000E-01  8.00000000E-01
  1.50000000E+00  8.00000000E-01  8.00000000E-01  1.50000000E+00  8.00000000E-01
  8.00000000E-01  1.50000000E+00  8.00000000E-01  8.00000000E-01  1.50000000E+00
  8.00000000E-01  8.00000000E-01  1.50000000E+00  8.00000000E-01  8.00000000E-01
  1.50000000E+00  8.00000000E-01  8.00000000E-01  1.50000000E+00  8.00000000E-01
  8.00000000E-01  1.50000000E+00  8.00000000E-01  8.00000000E-01  1.50000000E+00
  8.00000000E-01  8.00000000E-01  1.50000000E+00  8.00000000E-01  8.00000000E-01
  1.50000000E+00  8.00000000E-01  8.00000000E-01  1.50000000E+00  8.00000000E-01
  8.00000000E-01  1.50000000E+00  8.00000000E-01  8.00000000E-01  1.50000000E+00
  8.00000000E-01  8.00000000E-01  1.50000000E+00  8.00000000E-01  8.00000000E-01
  1.50000000E+00  8.00000000E-01  8.00000000E-01  1.50000000E+00  8.00000000E-01
  8.00000000E-01  1.50000000E+00  8.00000000E-01  8.00000000E-01  1.50000000E+00
  8.00000000E-01  8.00000000E-01  1.50000000E+00  8.00000000E-01  8.00000000E-01
  1.50000000E+00  8.00000000E-01  8.00000000E-01  1.50000000E+00  8.00000000E-01
  8.00000000E-01  1.50000000E+00  8.00000000E-01  8.00000000E-01  1.50000000E+00
  8.00000000E-01  8.00000000E-01  1.50000000E+00  8.00000000E-01  8.00000000E-01
  1.50000000E+00  8.00000000E-01  8.00000000E-01  1.50000000E+00  8.00000000E-01
  8.00000000E-01  1.50000000E+00  8.00000000E-01  8.00000000E-01  1.50000000E+00
  8.00000000E-01  8.00000000E-01  1.50000000E+00  8.00000000E-01  8.00000000E-01
  1.50000000E+00  8.00000000E-01  8.00000000E-01  1.50000000E+00  8.00000000E-01
  8.00000000E-01  1.50000000E+00  8.00000000E-01  8.00000000E-01  1.50000000E+00
  8.00000000E-01  8.00000000E-01  1.50000000E+00  8.00000000E-01  8.00000000E-01
  1.50000000E+00  8.00000000E-01  8.00000000E-01  1.50000000E+00  8.00000000E-01
  8.00000000E-01  1.50000000E+00  8.00000000E-01  8.00000000E-01  1.50000000E+00
  8.00000000E-01  8.00000000E-01  1.50000000E+00  8.00000000E-01  8.00000000E-01
  1.50000000E+00  8.00000000E-01  8.00000000E-01  1.50000000E+00  8.00000000E-01
  8.00000000E-01  1.50000000E+00  8.00000000E-01  8.00000000E-01  1.50000000E+00
  8.00000000E-01  8.00000000E-01  1.50000000E+00  8.00000000E-01  8.00000000E-01
  1.50000000E+00  8.00000000E-01  8.00000000E-01  1.50000000E+00  8.00000000E-01
  8.00000000E-01  1.50000000E+00  8.00000000E-01  8.00000000E-01  1.50000000E+00
  8.00000000E-01  8.00000000E-01  1.50000000E+00  8.00000000E-01  8.00000000E-01
  1.50000000E+00  8.00000000E-01  8.00000000E-01  1.50000000E+00  8.00000000E-01
  8.00000000E-01  1.50000000E+00  8.00000000E-01  8.00000000E-01  1.50000000E+00
  8.00000000E-01  8.00000000E-01  1.50000000E+00  8.00000000E-01  8.00000000E-01
  1.50000000E+00  8.00000000E-01  8.00000000E-01  1.50000000E+00  8.00000000E-01
  8.00000000E-01  1.50000000E+00  8.00000000E-01  8.00000000E-01  1.50000000E+00
  8.00000000E-01  8.00000000E-01  1.50000000E+00  8.00000000E-01  8.00000000E-01
  1.50000000E+00  8.00000000E-01  8.00000000E-01  1.50000000E+00  8.00000000E-01
  8.00000000E-01  1.50000000E+00  8.00000000E-01  8.00000000E-01  1.50000000E+00
  8.00000000E-01  8.00000000E-01  1.50000000E+00  8.00000000E-01  8.00000000E-01
  1.50000000E+00  8.00000000E-01  8.00000000E-01  1.50000000E+00  8.00000000E-01
  8.00000000E-01  1.50000000E+00  8.00000000E-01  8.00000000E-01  1.50000000E+00
  8.00000000E-01  8.00000000E-01  1.50000000E+00  8.00000000E-01  8.00000000E-01
  1.50000000E+00  8.00000000E-01  8.00000000E-01  1.50000000E+00  8.00000000E-01
  8.00000000E-01  1.50000000E+00  8.00000000E-01  8.00000000E-01  1.50000000E+00
  8.00000000E-01  8.00000000E-01  1.50000000E+00  8.00000000E-01  8.00000000E-01
  1.50000000E+00  8.00000000E-01  8.00000000E-01  1.50000000E+00  8.00000000E-01
  8.00000000E-01  1.50000000E+00  8.00000000E-01  8.00000000E-01  1.50000000E+00
  8.00000000E-01  8.00000000E-01  1.50000000E+00  8.00000000E-01  8.00000000E-01
  1.50000000E+00  8.00000000E-01  8.00000000E-01  1.50000000E+00  8.00000000E-01
  8.00000000E-01  1.50000000E+00  8.00000000E-01  8.00000000E-01  1.50000000E+00
  8.00000000E-01  8.00000000E-01  1.50000000E+00  8.00000000E-01  8.00000000E-01
  1.50000000E+00  8.00000000E-01  8.00000000E-01  1.50000000E+00  8.00000000E-01
  8.00000000E-01  1.50000000E+00  8.00000000E-01  8.00000000E-01  1.50000000E+00
  8.00000000E-01  8.00000000E-01  1.50000000E+00  8.00000000E-01  8.00000000E-01
  1.50000000E+00  8.00000000E-01  8.00000000E-01  1.50000000E+00  8.00000000E-01
  8.00000000E-01  1.50000000E+00  8.00000000E-01  8.00000000E-01  1.50000000E+00
  8.00000000E-01  8.00000000E-01  1.50000000E+00  8.00000000E-01  8.00000000E-01
  1.50000000E+00  8.00000000E-01  8.00000000E-01  1.50000000E+00  8.00000000E-01
  8.00000000E-01  1.50000000E+00  8.00000000E-01  8.00000000E-01  1.50000000E+00
  8.00000000E-01  8.00000000E-01  1.50000000E+00  8.00000000E-01  8.00000000E-01
  1.50000000E+00  8.00000000E-01  8.00000000E-01  1.50000000E+00  8.00000000E-01
  8.00000000E-01  1.50000000E+00  8.00000000E-01  8.00000000E-01  1.50000000E+00
  8.00000000E-01  8.00000000E-01  1.50000000E+00  8.00000000E-01  8.00000000E-01
  1.50000000E+00  8.00000000E-01  8.00000000E-01  1.50000000E+00  8.00000000E-01
  8.00000000E-01  1.50000000E+00  8.00000000E-01  8.00000000E-01  1.50000000E+00
  8.00000000E-01  8.00000000E-01  1.50000000E+00  8.00000000E-01  8.00000000E-01
  1.50000000E+00  8.00000000E-01  8.00000000E-01  1.50000000E+00  8.00000000E-01
  8.00000000E-01  1.50000000E+00  8.00000000E-01  8.00000000E-01  1.50000000E+00
  8.00000000E-01  8.00000000E-01  1.50000000E+00  8.00000000E-01  8.00000000E-01
  1.50000000E+00  8.00000000E-01  8.00000000E-01  1.50000000E+00  8.00000000E-01
  8.00000000E-01  1.50000000E+00  8.00000000E-01  8.00000000E-01  1.50000000E+00
  8.00000000E-01  8.00000000E-01  1.50000000E+00  8.00000000E-01  8.00000000E-01
  1.50000000E+00  8.00000000E-01  8.00000000E-01  1.50000000E+00  8.00000000E-01
  8.00000000E-01  1.50000000E+00  8.00000000E-01  8.00000000E-01  1.50000000E+00
  8.00000000E-01  8.00000000E-01  1.50000000E+00  8.00000000E-01  8.00000000E-01
  1.50000000E+00  8.00000000E-01  8.00000000E-01  1.50000000E+00  8.00000000E-01
  8.00000000E-01  1.50000000E+00  8.00000000E-01  8.00000000E-01  1.50000000E+00
  8.00000000E-01  8.00000000E-01  1.50000000E+00  8.00000000E-01  8.00000000E-01
  1.50000000E+00  8.00000000E-01  8.00000000E-01  1.50000000E+00  8.00000000E-01
  8.00000000E-01  1.50000000E+00  8.00000000E-01  8.00000000E-01  1.50000000E+00
  8.00000000E-01  8.00000000E-01  1.50000000E+00  8.00000000E-01  8.00000000E-01
  1.50000000E+00  8.00000000E-01  8.00000000E-01  1.50000000E+00  8.00000000E-01
  8.00000000E-01  1.50000000E+00  8.00000000E-01  8.00000000E-01  1.50000000E+00
  8.00000000E-01  8.00000000E-01  1.50000000E+00  8.00000000E-01  8.00000000E-01
  1.50000000E+00  8.00000000E-01  8.00000000E-01  1.50000000E+00  8.00000000E-01
  8.00000000E-01  1.50000000E+00  8.00000000E-01  8.00000000E-01  1.50000000E+00
  8.00000000E-01  8.00000000E-01  1.50000000E+00  8.00000000E-01  8.00000000E-01
  1.50000000E+00  8.00000000E-01  8.00000000E-01  1.50000000E+00  8.00000000E-01
  8.00000000E-01  1.50000000E+00  8.00000000E-01  8.00000000E-01  1.50000000E+00
  8.00000000E-01  8.00000000E-01  1.50000000E+00  8.00000000E-01  8.00000000E-01
  1.50000000E+00  8.00000000E-01  8.00000000E-01  1.50000000E+00  8.00000000E-01
  8.00000000E-01  1.50000000E+00  8.00000000E-01  8.00000000E-01  1.50000000E+00
  8.00000000E-01  8.00000000E-01  1.50000000E+00  8.00000000E-01  8.00000000E-01
  1.50000000E+00  8.00000000E-01  8.00000000E-01  1.50000000E+00  8.00000000E-01
  8.00000000E-01  1.50000000E+00  8.00000000E-01  8.00000000E-01  1.50000000E+00
  8.00000000E-01  8.00000000E-01  1.50000000E+00  8.00000000E-01  8.00000000E-01
  1.50000000E+00  8.00000000E-01  8.00000000E-01  1.50000000E+00  8.00000000E-01
  8.00000000E-01  1.50000000E+00  8.00000000E-01  8.00000000E-01  1.50000000E+00
  8.00000000E-01  8.00000000E-01  1.50000000E+00  8.00000000E-01  8.00000000E-01
  1.50000000E+00  8.00000000E-01  8.00000000E-01  1.50000000E+00  8.00000000E-01
  8.00000000E-01  1.50000000E+00  8.00000000E-01  8.00000000E-01  1.50000000E+00
  8.00000000E-01  8.00000000E-01  1.50000000E+00  8.00000000E-01  8.00000000E-01
  1.50000000E+00  8.00000000E-01  8.00000000E-01  1.50000000E+00  8.00000000E-01
  8.00000000E-01  1.50000000E+00  8.00000000E-01  8.00000000E-01  1.50000000E+00
  8.00000000E-01  8.00000000E-01  1.50000000E+00  8.00000000E-01  8.00000000E-01
  1.50000000E+00  8.00000000E-01  8.00000000E-01  1.50000000E+00  8.00000000E-01
  8.00000000E-01  1.50000000E+00  8.00000000E-01  8.00000000E-01  1.50000000E+00
  8.00000000E-01  8.00000000E-01  1.50000000E+00  8.00000000E-01  8.00000000E-01
  1.50000000E+00  8.00000000E-01  8.00000000E-01  1.50000000E+00  8.00000000E-01
  8.00000000E-01  1.50000000E+00  8.00000000E-01  8.00000000E-01  1.50000000E+00
  8.00000000E-01  8.00000000E-01  1.50000000E+00  8.00000000E-01  8.00000000E-01
  1.50000000E+00  8.00000000E-01  8.00000000E-01  1.50000000E+00  8.00000000E-01
  8.00000000E-01  1.50000000E+00  8.00000000E-01  8.00000000E-01  1.50000000E+00
  8.00000000E-01  8.00000000E-01  1.50000000E+00  8.00000000E-01  8.00000000E-01
  1.50000000E+00  8.00000000E-01  8.00000000E-01  1.50000000E+00  8.00000000E-01
  8.00000000E-01  1.50000000E+00  8.00000000E-01  8.00000000E-01  1.50000000E+00
  8.00000000E-01  8.00000000E-01  1.50000000E+00  8.00000000E-01  8.00000000E-01
  1.50000000E+00  8.00000000E-01  8.00000000E-01  1.50000000E+00  8.00000000E-01
  8.00000000E-01  1.50000000E+00  8.00000000E-01  8.00000000E-01  1.50000000E+00
  8.00000000E-01  8.00000000E-01  1.50000000E+00  8.00000000E-01  8.00000000E-01
  1.50000000E+00  8.00000000E-01  8.00000000E-01  1.50000000E+00  8.00000000E-01
  8.00000000E-01  1.50000000E+00  8.00000000E-01  8.00000000E-01  1.50000000E+00
  8.00000000E-01  8.00000000E-01  1.50000000E+00  8.00000000E-01  8.00000000E-01
  1.50000000E+00  8.00000000E-01  8.00000000E-01  1.50000000E+00  8.00000000E-01
  8.00000000E-01  1.50000000E+00  8.00000000E-01  8.00000000E-01  1.50000000E+00
  8.00000000E-01  8.00000000E-01  1.50000000E+00  8.00000000E-01  8.00000000E-01
  1.50000000E+00  8.00000000E-01  8.00000000E-01  1.50000000E+00  8.00000000E-01
  8.00000000E-01  1.50000000E+00  8.00000000E-01  8.00000000E-01  1.50000000E+00
  8.00000000E-01  8.00000000E-01  1.50000000E+00  8.00000000E-01  8.00000000E-01
  1.50000000E+00  8.00000000E-01  8.00000000E-01  1.50000000E+00  8.00000000E-01
  8.00000000E-01  1.50000000E+00  8.00000000E-01  8.00000000E-01  1.50000000E+00
  8.00000000E-01  8.00000000E-01  1.50000000E+00  8.00000000E-01  8.00000000E-01
  1.50000000E+00  8.00000000E-01  8.00000000E-01  1.50000000E+00  8.00000000E-01
  8.00000000E-01  1.50000000E+00  8.00000000E-01  8.00000000E-01  1.50000000E+00
  8.00000000E-01  8.00000000E-01  1.50000000E+00  8.00000000E-01  8.00000000E-01
  1.50000000E+00  8.00000000E-01  8.00000000E-01  1.50000000E+00  8.00000000E-01
  8.00000000E-01  1.50000000E+00  8.00000000E-01  8.00000000E-01  1.50000000E+00
  8.00000000E-01  8.00000000E-01  1.50000000E+00  8.00000000E-01  8.00000000E-01
  1.50000000E+00  8.00000000E-01  8.00000000E-01  1.50000000E+00  8.00000000E-01
  8.00000000E-01  1.50000000E+00  8.00000000E-01  8.00000000E-01  1.50000000E+00
  8.00000000E-01  8.00000000E-01  1.50000000E+00  8.00000000E-01  8.00000000E-01
  1.50000000E+00  8.00000000E-01  8.00000000E-01  1.50000000E+00  8.00000000E-01
  8.00000000E-01  1.50000000E+00  8.00000000E-01  8.00000000E-01  1.50000000E+00
  8.00000000E-01  8.00000000E-01  1.50000000E+00  8.00000000E-01  8.00000000E-01
  1.50000000E+00  8.00000000E-01  8.00000000E-01  1.50000000E+00  8.00000000E-01
  8.00000000E-01  1.50000000E+00  8.00000000E-01  8.00000000E-01  1.50000000E+00
  8.00000000E-01  8.00000000E-01  1.50000000E+00  8.00000000E-01  8.00000000E-01
  1.50000000E+00  8.00000000E-01  8.00000000E-01  1.50000000E+00  8.00000000E-01
  8.00000000E-01  1.50000000E+00  8.00000000E-01  8.00000000E-01  1.50000000E+00
  8.00000000E-01  8.00000000E-01  1.50000000E+00  8.00000000E-01  8.00000000E-01
  1.50000000E+00  8.00000000E-01  8.00000000E-01  1.50000000E+00  8.00000000E-01
  8.00000000E-01  1.50000000E+00  8.00000000E-01  8.00000000E-01  1.50000000E+00
  8.00000000E-01  8.00000000E-01  1.50000000E+00  8.00000000E-01  8.00000000E-01
  1.50000000E+00  8.00000000E-01  8.00000000E-01  1.50000000E+00  8.00000000E-01
  8.00000000E-01  1.50000000E+00  8.00000000E-01  8.00000000E-01  1.50000000E+00
  8.00000000E-01  8.00000000E-01  1.50000000E+00  8.00000000E-01  8.00000000E-01
  1.50000000E+00  8.00000000E-01  8.00000000E-01  1.50000000E+00  8.00000000E-01
  8.00000000E-01  1.50000000E+00  8.00000000E-01  8.00000000E-01  1.50000000E+00
  8.00000000E-01  8.00000000E-01  1.50000000E+00  8.00000000E-01  8.00000000E-01
  1.50000000E+00  8.00000000E-01  8.00000000E-01  1.50000000E+00  8.00000000E-01
  8.00000000E-01  1.50000000E+00  8.00000000E-01  8.00000000E-01  1.50000000E+00
  8.00000000E-01  8.00000000E-01  1.50000000E+00  8.00000000E-01  8.00000000E-01
  1.50000000E+00  8.00000000E-01  8.00000000E-01  1.50000000E+00  8.00000000E-01
  8.00000000E-01  1.50000000E+00  8.00000000E-01  8.00000000E-01  1.50000000E+00
  8.00000000E-01  8.00000000E-01  1.50000000E+00  8.00000000E-01  8.00000000E-01
  1.50000000E+00  8.00000000E-01  8.00000000E-01  1.50000000E+00  8.00000000E-01
  8.00000000E-01  1.50000000E+00  8.00000000E-01  8.00000000E-01  1.50000000E+00
  8.00000000E-01  8.00000000E-01  1.50000000E+00  8.00000000E-01  8.00000000E-01
  1.50000000E+00  8.00000000E-01  8.00000000E-01  1.50000000E+00  8.00000000E-01
  8.00000000E-01  1.50000000E+00  8.00000000E-01  8.00000000E-01  1.50000000E+00
  8.00000000E-01  8.00000000E-01  1.50000000E+00  8.00000000E-01  8.00000000E-01
  1.50000000E+00  8.00000000E-01  8.00000000E-01  1.50000000E+00  8.00000000E-01
  8.00000000E-01  1.50000000E+00  8.00000000E-01  8.00000000E-01  1.50000000E+00
  8.00000000E-01  8.00000000E-01  1.50000000E+00  8.00000000E-01  8.00000000E-01
  1.50000000E+00  8.00000000E-01  8.00000000E-01  1.50000000E+00  8.00000000E-01
  8.00000000E-01  1.50000000E+00  8.00000000E-01  8.00000000E-01  1.50000000E+00
  8.00000000E-01  8.00000000E-01  1.50000000E+00  8.00000000E-01  8.00000000E-01
  1.50000000E+00  8.00000000E-01  8.00000000E-01  1.50000000E+00  8.00000000E-01
  8.00000000E-01  1.50000000E+00  8.00000000E-01  8.00000000E-01  1.50000000E+00
  8.00000000E-01  8.00000000E-01  1.50000000E+00  8.00000000E-01  8.00000000E-01
  1.50000000E+00  8.00000000E-01  8.00000000E-01  1.50000000E+00  8.00000000E-01
  8.00000000E-01  1.50000000E+00  8.00000000E-01  8.00000000E-01  1.50000000E+00
  8.00000000E-01  8.00000000E-01  1.50000000E+00  8.00000000E-01  8.00000000E-01
  1.50000000E+00  8.00000000E-01  8.00000000E-01  1.50000000E+00  8.00000000E-01
  8.00000000E-01  1.50000000E+00  8.00000000E-01  8.00000000E-01  1.50000000E+00
  8.00000000E-01  8.00000000E-01  1.50000000E+00  8.00000000E-01  8.00000000E-01
  1.50000000E+00  8.00000000E-01  8.00000000E-01  1.50000000E+00  8.00000000E-01
  8.00000000E-01  1.50000000E+00  8.00000000E-01  8.00000000E-01  1.50000000E+00
  8.00000000E-01  8.00000000E-01  1.50000000E+00  8.00000000E-01  8.00000000E-01
  1.50000000E+00  8.00000000E-01  8.00000000E-01  1.50000000E+00  8.00000000E-01
  8.00000000E-01  1.50000000E+00  8.00000000E-01  8.00000000E-01  1.50000000E+00
  8.00000000E-01  8.00000000E-01  1.50000000E+00  8.00000000E-01  8.00000000E-01
  1.50000000E+00  8.00000000E-01  8.00000000E-01  1.50000000E+00  8.00000000E-01
  8.00000000E-01  1.50000000E+00  8.00000000E-01  8.00000000E-01  1.50000000E+00
  8.00000000E-01  8.00000000E-01  1.50000000E+00  8.00000000E-01  8.00000000E-01
  1.50000000E+00  8.00000000E-01  8.00000000E-01  1.50000000E+00  8.00000000E-01
  8.00000000E-01  1.50000000E+00  8.00000000E-01  8.00000000E-01  1.50000000E+00
  8.00000000E-01  8.00000000E-01  1.50000000E+00  8.00000000E-01  8.00000000E-01
  1.50000000E+00  8.00000000E-01  8.00000000E-01  1.50000000E+00  8.00000000E-01
  8.00000000E-01  1.50000000E+00  8.00000000E-01  8.00000000E-01  1.50000000E+00
  8.00000000E-01  8.00000000E-01  1.50000000E+00  8.00000000E-01  8.00000000E-01
  1.50000000E+00  8.00000000E-01  8.00000000E-01  1.50000000E+00  8.00000000E-01
  8.00000000E-01  1.50000000E+00  8.00000000E-01  8.00000000E-01  1.50000000E+00
  8.00000000E-01  8.00000000E-01  1.50000000E+00  8.00000000E-01  8.00000000E-01
  1.50000000E+00  8.00000000E-01  8.00000000E-01  1.50000000E+00  8.00000000E-01
  8.00000000E-01  1.50000000E+00  8.00000000E-01  8.00000000E-01  1.50000000E+00
  8.00000000E-01  8.00000000E-01  1.50000000E+00  8.00000000E-01  8.00000000E-01
  1.50000000E+00  8.00000000E-01  8.00000000E-01  1.50000000E+00  8.00000000E-01
  8.00000000E-01  1.50000000E+00  8.00000000E-01  8.00000000E-01  1.50000000E+00
  8.00000000E-01  8.00000000E-01  1.50000000E+00  8.00000000E-01  8.00000000E-01
  1.50000000E+00  8.00000000E-01  8.00000000E-01  1.50000000E+00  8.00000000E-01
  8.00000000E-01  1.50000000E+00  8.00000000E-01  8.00000000E-01  1.50000000E+00
  8.00000000E-01  8.00000000E-01  1.50000000E+00  8.00000000E-01  8.00000000E-01
  1.50000000E+00  8.00000000E-01  8.00000000E-01  1.50000000E+00  8.00000000E-01
  8.00000000E-01  1.50000000E+00  8.00000000E-01  8.00000000E-01  1.50000000E+00
  8.00000000E-01  8.00000000E-01  1.50000000E+00  8.00000000E-01  8.00000000E-01
  1.50000000E+00  8.00000000E-01  8.00000000E-01  1.50000000E+00  8.00000000E-01
  8.00000000E-01  1.50000000E+00  8.00000000E-01  8.00000000E-01  1.50000000E+00
  8.00000000E-01  8.00000000E-01  1.50000000E+00  8.00000000E-01  8.00000000E-01
  1.50000000E+00  8.00000000E-01  8.00000000E-01  1.50000000E+00  8.00000000E-01
  8.00000000E-01  1.50000000E+00  8.00000000E-01  8.00000000E-01  1.50000000E+00
  8.00000000E-01  8.00000000E-01  1.50000000E+00  8.00000000E-01  8.00000000E-01
  1.50000000E+00  8.00000000E-01  8.00000000E-01  1.50000000E+00  8.00000000E-01
  8.00000000E-01  1.50000000E+00  8.00000000E-01  8.00000000E-01  1.50000000E+00
  8.00000000E-01  8.00000000E-01  1.50000000E+00  8.00000000E-01  8.00000000E-01
  1.50000000E+00  8.00000000E-01  8.00000000E-01  1.50000000E+00  8.00000000E-01
  8.00000000E-01  1.50000000E+00  8.00000000E-01  8.00000000E-01  1.50000000E+00
  8.00000000E-01  8.00000000E-01  1.50000000E+00  8.00000000E-01  8.00000000E-01
  1.50000000E+00  8.00000000E-01  8.00000000E-01  1.50000000E+00  8.00000000E-01
  8.00000000E-01  1.50000000E+00  8.00000000E-01  8.00000000E-01  1.50000000E+00
  8.00000000E-01  8.00000000E-01  1.50000000E+00  8.00000000E-01  8.00000000E-01
  1.50000000E+00  8.00000000E-01  8.00000000E-01  1.50000000E+00  8.00000000E-01
  8.00000000E-01  1.50000000E+00  8.00000000E-01  8.00000000E-01  1.50000000E+00
  8.00000000E-01  8.00000000E-01  1.50000000E+00  8.00000000E-01  8.00000000E-01
  1.50000000E+00  8.00000000E-01  8.00000000E-01  1.50000000E+00  8.00000000E-01
  8.00000000E-01  1.50000000E+00  8.00000000E-01  8.00000000E-01  1.50000000E+00
  8.00000000E-01  8.00000000E-01  1.50000000E+00  8.00000000E-01  8.00000000E-01
  1.50000000E+00  8.00000000E-01  8.00000000E-01  1.50000000E+00  8.00000000E-01
  8.00000000E-01  1.50000000E+00  8.00000000E-01  8.00000000E-01  1.50000000E+00
  8.00000000E-01  8.00000000E-01  1.50000000E+00  8.00000000E-01  8.00000000E-01
  1.50000000E+00  8.00000000E-01  8.00000000E-01  1.50000000E+00  8.00000000E-01
  8.00000000E-01  1.50000000E+00  8.00000000E-01  8.00000000E-01  1.50000000E+00
  8.00000000E-01  8.00000000E-01  1.50000000E+00  8.00000000E-01  8.00000000E-01
  1.50000000E+00  8.00000000E-01  8.00000000E-01  1.50000000E+00  8.00000000E-01
  8.00000000E-01  1.50000000E+00  8.00000000E-01  8.00000000E-01  1.50000000E+00
  8.00000000E-01  8.00000000E-01  1.50000000E+00  8.00000000E-01  8.00000000E-01
  1.50000000E+00  8.00000000E-01  8.00000000E-01  1.50000000E+00  8.00000000E-01
  8.00000000E-01  1.50000000E+00  8.00000000E-01  8.00000000E-01  1.50000000E+00
  8.00000000E-01  8.00000000E-01  1.50000000E+00  8.00000000E-01  8.00000000E-01
  1.50000000E+00  8.00000000E-01  8.00000000E-01  1.50000000E+00  8.00000000E-01
  8.00000000E-01  1.50000000E+00  8.00000000E-01  8.00000000E-01  1.50000000E+00
  8.00000000E-01  8.00000000E-01  1.50000000E+00  8.00000000E-01  8.00000000E-01
  1.50000000E+00  8.00000000E-01  8.00000000E-01  1.50000000E+00  8.00000000E-01
  8.00000000E-01  1.50000000E+00  8.00000000E-01  8.00000000E-01  1.50000000E+00
  8.00000000E-01  8.00000000E-01  1.50000000E+00  8.00000000E-01  8.00000000E-01
  1.50000000E+00  8.00000000E-01  8.00000000E-01  1.50000000E+00  8.00000000E-01
  8.00000000E-01  1.50000000E+00  8.00000000E-01  8.00000000E-01  1.50000000E+00
  8.00000000E-01  8.00000000E-01  1.50000000E+00  8.00000000E-01  8.00000000E-01
  1.50000000E+00  8.00000000E-01  8.00000000E-01  1.50000000E+00  8.00000000E-01
  8.00000000E-01  1.50000000E+00  8.00000000E-01  8.00000000E-01  1.50000000E+00
  8.00000000E-01  8.00000000E-01  1.50000000E+00  8.00000000E-01  8.00000000E-01
  1.50000000E+00  8.00000000E-01  8.00000000E-01  1.50000000E+00  8.00000000E-01
  8.00000000E-01  1.50000000E+00  8.00000000E-01  8.00000000E-01  1.50000000E+00
  8.00000000E-01  8.00000000E-01  1.50000000E+00  8.00000000E-01  8.00000000E-01
  1.50000000E+00  8.00000000E-01  8.00000000E-01  1.50000000E+00  8.00000000E-01
  8.00000000E-01  1.50000000E+00  8.00000000E-01  8.00000000E-01  1.50000000E+00
  8.00000000E-01  8.00000000E-01  1.50000000E+00  8.00000000E-01  8.00000000E-01
  1.50000000E+00  8.00000000E-01  8.00000000E-01  1.50000000E+00  8.00000000E-01
  8.00000000E-01  1.50000000E+00  8.00000000E-01  8.00000000E-01  1.50000000E+00
  8.00000000E-01  8.00000000E-01  1.50000000E+00  8.00000000E-01  8.00000000E-01
  1.50000000E+00  8.00000000E-01  8.00000000E-01  1.50000000E+00  8.00000000E-01
  8.00000000E-01  1.50000000E+00  8.00000000E-01  8.00000000E-01  1.50000000E+00
  8.00000000E-01  8.00000000E-01  1.50000000E+00  8.00000000E-01  8.00000000E-01
  1.50000000E+00  8.00000000E-01  8.00000000E-01  1.50000000E+00  8.00000000E-01
  8.00000000E-01  1.50000000E+00  8.00000000E-01  8.00000000E-01  1.50000000E+00
  8.00000000E-01  8.00000000E-01  1.50000000E+00  8.00000000E-01  8.00000000E-01
  1.50000000E+00  8.00000000E-01  8.00000000E-01  1.50000000E+00  8.00000000E-01
  8.00000000E-01  1.50000000E+00  8.00000000E-01  8.00000000E-01  1.50000000E+00
  8.00000000E-01  8.00000000E-01  1.50000000E+00  8.00000000E-01  8.00000000E-01
  1.50000000E+00  8.00000000E-01  8.00000000E-01  1.50000000E+00  8.00000000E-01
  8.00000000E-01  1.50000000E+00  8.00000000E-01  8.00000000E-01  1.50000000E+00
  8.00000000E-01  8.00000000E-01  1.50000000E+00  8.00000000E-01  8.00000000E-01
  1.50000000E+00  8.00000000E-01  8.00000000E-01  1.50000000E+00  8.00000000E-01
  8.00000000E-01  1.50000000E+00  8.00000000E-01  8.00000000E-01  1.50000000E+00
  8.00000000E-01  8.00000000E-01  1.50000000E+00  8.00000000E-01  8.00000000E-01
  1.50000000E+00  8.00000000E-01  8.00000000E-01  1.50000000E+00  8.00000000E-01
  8.00000000E-01  1.50000000E+00  8.00000000E-01  8.00000000E-01  1.50000000E+00
  8.00000000E-01  8.00000000E-01  1.50000000E+00  8.00000000E-01  8.00000000E-01
  1.50000000E+00  8.00000000E-01  8.00000000E-01  1.50000000E+00  8.00000000E-01
  8.00000000E-01  1.50000000E+00  8.00000000E-01  8.00000000E-01  1.50000000E+00
  8.00000000E-01  8.00000000E-01  1.50000000E+00  8.00000000E-01  8.00000000E-01
  1.50000000E+00  8.00000000E-01  8.00000000E-01  1.50000000E+00  8.00000000E-01
  8.00000000E-01  1.50000000E+00  8.00000000E-01  8.00000000E-01  1.50000000E+00
  8.00000000E-01  8.00000000E-01  1.50000000E+00  8.00000000E-01  8.00000000E-01
  1.50000000E+00  8.00000000E-01  8.00000000E-01  1.50000000E+00  8.00000000E-01
  8.00000000E-01  1.50000000E+00  8.00000000E-01  8.00000000E-01  1.50000000E+00
  8.00000000E-01  8.00000000E-01  1.50000000E+00  8.00000000E-01  8.00000000E-01
  1.50000000E+00  8.00000000E-01  8.00000000E-01  1.50000000E+00  8.00000000E-01
  8.00000000E-01  1.50000000E+00  8.00000000E-01  8.00000000E-01  1.50000000E+00
  8.00000000E-01  8.00000000E-01  1.50000000E+00  8.00000000E-01  8.00000000E-01
  1.50000000E+00  8.00000000E-01  8.00000000E-01  1.50000000E+00  8.00000000E-01
  8.00000000E-01  1.50000000E+00  8.00000000E-01  8.00000000E-01  1.50000000E+00
  8.00000000E-01  8.00000000E-01  1.50000000E+00  8.00000000E-01  8.00000000E-01
  1.50000000E+00  8.00000000E-01  8.00000000E-01  1.50000000E+00  8.00000000E-01
  8.00000000E-01  1.50000000E+00  8.00000000E-01  8.00000000E-01  1.50000000E+00
  8.00000000E-01  8.00000000E-01  1.50000000E+00  8.00000000E-01  8.00000000E-01
  1.50000000E+00  8.00000000E-01  8.00000000E-01  1.50000000E+00  8.00000000E-01
  8.00000000E-01  1.50000000E+00  8.00000000E-01  8.00000000E-01  1.50000000E+00
  8.00000000E-01  8.00000000E-01  1.50000000E+00  8.00000000E-01  8.00000000E-01
  1.50000000E+00  8.00000000E-01  8.00000000E-01  1.50000000E+00  8.00000000E-01
  8.00000000E-01  1.50000000E+00  8.00000000E-01  8.00000000E-01  1.50000000E+00
  8.00000000E-01  8.00000000E-01  1.50000000E+00  8.00000000E-01  8.00000000E-01
  1.50000000E+00  8.00000000E-01  8.00000000E-01  1.50000000E+00  8.00000000E-01
  8.00000000E-01  1.50000000E+00  8.00000000E-01  8.00000000E-01  1.50000000E+00
  8.00000000E-01  8.00000000E-01  1.50000000E+00  8.00000000E-01  8.00000000E-01
  1.50000000E+00  8.00000000E-01  8.00000000E-01  1.50000000E+00  8.00000000E-01
  8.00000000E-01  1.50000000E+00  8.00000000E-01  8.00000000E-01  1.50000000E+00
  8.00000000E-01  8.00000000E-01  1.50000000E+00  8.00000000E-01  8.00000000E-01
  1.50000000E+00  8.00000000E-01  8.00000000E-01  1.50000000E+00  8.00000000E-01
  8.00000000E-01  1.50000000E+00  8.00000000E-01  8.00000000E-01  1.50000000E+00
  8.00000000E-01  8.00000000E-01  1.50000000E+00  8.00000000E-01  8.00000000E-01
  1.50000000E+00  8.00000000E-01  8.00000000E-01  1.50000000E+00  8.00000000E-01
  8.00000000E-01  1.50000000E+00  8.00000000E-01  8.00000000E-01  1.50000000E+00
  8.00000000E-01  8.00000000E-01  1.50000000E+00  8.00000000E-01  8.00000000E-01
  1.50000000E+00  8.00000000E-01  8.00000000E-01  1.50000000E+00  8.00000000E-01
  8.00000000E-01  1.50000000E+00  8.00000000E-01  8.00000000E-01  1.50000000E+00
  8.00000000E-01  8.00000000E-01  1.50000000E+00  8.00000000E-01  8.00000000E-01
  1.50000000E+00  8.00000000E-01  8.00000000E-01  1.50000000E+00  8.00000000E-01
  8.00000000E-01  1.50000000E+00  8.00000000E-01  8.00000000E-01  1.50000000E+00
  8.00000000E-01  8.00000000E-01  1.50000000E+00  8.00000000E-01  8.00000000E-01
  1.50000000E+00  8.00000000E-01  8.00000000E-01  1.50000000E+00  8.00000000E-01
  8.00000000E-01  1.50000000E+00  8.00000000E-01  8.00000000E-01  1.50000000E+00
  8.00000000E-01  8.00000000E-01  1.50000000E+00  8.00000000E-01  8.00000000E-01
  1.50000000E+00  8.00000000E-01  8.00000000E-01  1.50000000E+00  8.00000000E-01
  8.00000000E-01  1.50000000E+00  8.00000000E-01  8.00000000E-01  1.50000000E+00
  8.00000000E-01  8.00000000E-01  1.50000000E+00  8.00000000E-01  8.00000000E-01
  1.50000000E+00  8.00000000E-01  8.00000000E-01  1.50000000E+00  8.00000000E-01
  8.00000000E-01  1.50000000E+00  8.00000000E-01  8.00000000E-01  1.50000000E+00
  8.00000000E-01  8.00000000E-01  1.50000000E+00  8.00000000E-01  8.00000000E-01
  1.50000000E+00  8.00000000E-01  8.00000000E-01  1.50000000E+00  8.00000000E-01
  8.00000000E-01  1.50000000E+00  8.00000000E-01  8.00000000E-01  1.50000000E+00
  8.00000000E-01  8.00000000E-01  1.50000000E+00  8.00000000E-01  8.00000000E-01
  1.50000000E+00  8.00000000E-01  8.00000000E-01  1.50000000E+00  8.00000000E-01
  8.00000000E-01  1.50000000E+00  8.00000000E-01  8.00000000E-01  1.50000000E+00
  8.00000000E-01  8.00000000E-01  1.50000000E+00  8.00000000E-01  8.00000000E-01
  1.50000000E+00  8.00000000E-01  8.00000000E-01  1.50000000E+00  8.00000000E-01
  8.00000000E-01  1.50000000E+00  8.00000000E-01  8.00000000E-01  1.50000000E+00
  8.00000000E-01  8.00000000E-01  1.50000000E+00  8.00000000E-01  8.00000000E-01
  1.50000000E+00  8.00000000E-01  8.00000000E-01  1.50000000E+00  8.00000000E-01
  8.00000000E-01  1.50000000E+00  8.00000000E-01  8.00000000E-01  1.50000000E+00
  8.00000000E-01  8.00000000E-01  1.50000000E+00  8.00000000E-01  8.00000000E-01
  1.50000000E+00  8.00000000E-01  8.00000000E-01  1.50000000E+00  8.00000000E-01
  8.00000000E-01  1.50000000E+00  8.00000000E-01  8.00000000E-01  1.50000000E+00
  8.00000000E-01  8.00000000E-01  1.50000000E+00  8.00000000E-01  8.00000000E-01
  1.50000000E+00  8.00000000E-01  8.00000000E-01  1.50000000E+00  8.00000000E-01
  8.00000000E-01  1.50000000E+00  8.00000000E-01  8.00000000E-01  1.50000000E+00
  8.00000000E-01  8.00000000E-01  1.50000000E+00  8.00000000E-01  8.00000000E-01
  1.50000000E+00  8.00000000E-01  8.00000000E-01  1.50000000E+00  8.00000000E-01
  8.00000000E-01  1.50000000E+00  8.00000000E-01  8.00000000E-01  1.50000000E+00
  8.00000000E-01  8.00000000E-01  1.50000000E+00  8.00000000E-01  8.00000000E-01
  1.50000000E+00  8.00000000E-01  8.00000000E-01  1.50000000E+00  8.00000000E-01
  8.00000000E-01  1.50000000E+00  8.00000000E-01  8.00000000E-01  1.50000000E+00
  8.00000000E-01  8.00000000E-01  1.50000000E+00  8.00000000E-01  8.00000000E-01
  1.50000000E+00  8.00000000E-01  8.00000000E-01  1.50000000E+00  8.00000000E-01
  8.00000000E-01  1.50000000E+00  8.00000000E-01  8.00000000E-01  1.50000000E+00
  8.00000000E-01  8.00000000E-01  1.50000000E+00  8.00000000E-01  8.00000000E-01
  1.50000000E+00  8.00000000E-01  8.00000000E-01  1.50000000E+00  8.00000000E-01
  8.00000000E-01  1.50000000E+00  8.00000000E-01  8.00000000E-01  1.50000000E+00
  8.00000000E-01  8.00000000E-01  1.50000000E+00  8.00000000E-01  8.00000000E-01
  1.50000000E+00  8.00000000E-01  8.00000000E-01  1.50000000E+00  8.00000000E-01
  8.00000000E-01  1.50000000E+00  8.00000000E-01  8.00000000E-01  1.50000000E+00
  8.00000000E-01  8.00000000E-01  1.50000000E+00  8.00000000E-01  8.00000000E-01
  1.50000000E+00  8.00000000E-01  8.00000000E-01  1.50000000E+00  8.00000000E-01
  8.00000000E-01  1.50000000E+00  8.00000000E-01  8.00000000E-01  1.50000000E+00
  8.00000000E-01  8.00000000E-01  1.50000000E+00  8.00000000E-01  8.00000000E-01
  1.50000000E+00  8.00000000E-01  8.00000000E-01  1.50000000E+00  8.00000000E-01
  8.00000000E-01  1.50000000E+00  8.00000000E-01  8.00000000E-01  1.50000000E+00
  8.00000000E-01  8.00000000E-01  1.50000000E+00  8.00000000E-01  8.00000000E-01
  1.50000000E+00  8.00000000E-01  8.00000000E-01  1.50000000E+00  8.00000000E-01
  8.00000000E-01  1.50000000E+00  8.00000000E-01  8.00000000E-01  1.50000000E+00
  8.00000000E-01  8.00000000E-01  1.50000000E+00  8.00000000E-01  8.00000000E-01
  1.50000000E+00  8.00000000E-01  8.00000000E-01  1.50000000E+00  8.00000000E-01
  8.00000000E-01  1.50000000E+00  8.00000000E-01  8.00000000E-01  1.50000000E+00
  8.00000000E-01  8.00000000E-01  1.50000000E+00  8.00000000E-01  8.00000000E-01
  1.50000000E+00  8.00000000E-01  8.00000000E-01  1.50000000E+00  8.00000000E-01
  8.00000000E-01  1.50000000E+00  8.00000000E-01  8.00000000E-01  1.50000000E+00
  8.00000000E-01  8.00000000E-01  1.50000000E+00  8.00000000E-01  8.00000000E-01
  1.50000000E+00  8.00000000E-01  8.00000000E-01  1.50000000E+00  8.00000000E-01
  8.00000000E-01  1.50000000E+00  8.00000000E-01  8.00000000E-01  1.50000000E+00
  8.00000000E-01  8.00000000E-01  1.50000000E+00  8.00000000E-01  8.00000000E-01
  1.50000000E+00  8.00000000E-01  8.00000000E-01  1.50000000E+00  8.00000000E-01
  8.00000000E-01  1.50000000E+00  8.00000000E-01  8.00000000E-01  1.50000000E+00
  8.00000000E-01  8.00000000E-01  1.50000000E+00  8.00000000E-01  8.00000000E-01
  1.50000000E+00  8.00000000E-01  8.00000000E-01  1.50000000E+00  8.00000000E-01
  8.00000000E-01  1.50000000E+00  8.00000000E-01  8.00000000E-01  1.50000000E+00
  8.00000000E-01  8.00000000E-01  1.50000000E+00  8.00000000E-01  8.00000000E-01
  1.50000000E+00  8.00000000E-01  8.00000000E-01  1.50000000E+00  8.00000000E-01
  8.00000000E-01  1.50000000E+00  8.00000000E-01  8.00000000E-01  1.50000000E+00
  8.00000000E-01  8.00000000E-01  1.50000000E+00  8.00000000E-01  8.00000000E-01
  1.50000000E+00  8.00000000E-01  8.00000000E-01  1.50000000E+00  8.00000000E-01
  8.00000000E-01  1.50000000E+00  8.00000000E-01  8.00000000E-01  1.50000000E+00
  8.00000000E-01  8.00000000E-01  1.50000000E+00  8.00000000E-01  8.00000000E-01
  1.50000000E+00  8.00000000E-01  8.00000000E-01  1.50000000E+00  8.00000000E-01
  8.00000000E-01  1.50000000E+00  8.00000000E-01  8.00000000E-01  1.50000000E+00
  8.00000000E-01  8.00000000E-01  1.50000000E+00  8.00000000E-01  8.00000000E-01
  1.50000000E+00  8.00000000E-01  8.00000000E-01  1.50000000E+00  8.00000000E-01
  8.00000000E-01  1.50000000E+00  8.00000000E-01  8.00000000E-01  1.50000000E+00
  8.00000000E-01  8.00000000E-01  1.50000000E+00  8.00000000E-01  8.00000000E-01
  1.50000000E+00  8.00000000E-01  8.00000000E-01  1.50000000E+00  8.00000000E-01
  8.00000000E-01  1.50000000E+00  8.00000000E-01  8.00000000E-01  1.50000000E+00
  8.00000000E-01  8.00000000E-01  1.50000000E+00  8.00000000E-01  8.00000000E-01
  1.50000000E+00  8.00000000E-01  8.00000000E-01  1.50000000E+00  8.00000000E-01
  8.00000000E-01  1.50000000E+00  8.00000000E-01  8.00000000E-01  1.50000000E+00
  8.00000000E-01  8.00000000E-01  1.50000000E+00  8.00000000E-01  8.00000000E-01
  1.50000000E+00  8.00000000E-01  8.00000000E-01  1.50000000E+00  8.00000000E-01
  8.00000000E-01  1.50000000E+00  8.00000000E-01  8.00000000E-01  1.50000000E+00
  8.00000000E-01  8.00000000E-01  1.50000000E+00  8.00000000E-01  8.00000000E-01
  1.50000000E+00  8.00000000E-01  8.00000000E-01  1.50000000E+00  8.00000000E-01
  8.00000000E-01  1.50000000E+00  8.00000000E-01  8.00000000E-01  1.50000000E+00
  8.00000000E-01  8.00000000E-01  1.50000000E+00  8.00000000E-01  8.00000000E-01
  1.50000000E+00  8.00000000E-01  8.00000000E-01  1.50000000E+00  8.00000000E-01
  8.00000000E-01  1.50000000E+00  8.00000000E-01  8.00000000E-01  1.50000000E+00
  8.00000000E-01  8.00000000E-01  1.50000000E+00  8.00000000E-01  8.00000000E-01
  1.50000000E+00  8.00000000E-01  8.00000000E-01  1.50000000E+00  8.00000000E-01
  8.00000000E-01  1.50000000E+00  8.00000000E-01  8.00000000E-01  1.50000000E+00
  8.00000000E-01  8.00000000E-01  1.50000000E+00  8.00000000E-01  8.00000000E-01
  1.50000000E+00  8.00000000E-01  8.00000000E-01  1.50000000E+00  8.00000000E-01
  8.00000000E-01  1.50000000E+00  8.00000000E-01  8.00000000E-01  1.50000000E+00
  8.00000000E-01  8.00000000E-01  1.50000000E+00  8.00000000E-01  8.00000000E-01
  1.50000000E+00  8.00000000E-01  8.00000000E-01  1.50000000E+00  8.00000000E-01
  8.00000000E-01  1.50000000E+00  8.00000000E-01  8.00000000E-01  1.50000000E+00
  8.00000000E-01  8.00000000E-01  1.50000000E+00  8.00000000E-01  8.00000000E-01
  1.50000000E+00  8.00000000E-01  8.00000000E-01  1.50000000E+00  8.00000000E-01
  8.00000000E-01  1.50000000E+00  8.00000000E-01  8.00000000E-01  1.50000000E+00
  8.00000000E-01  8.00000000E-01  1.50000000E+00  8.00000000E-01  8.00000000E-01
  1.50000000E+00  8.00000000E-01  8.00000000E-01  1.50000000E+00  8.00000000E-01
  8.00000000E-01  1.50000000E+00  8.00000000E-01  8.00000000E-01  1.50000000E+00
  8.00000000E-01  8.00000000E-01  1.50000000E+00  8.00000000E-01  8.00000000E-01
  1.50000000E+00  8.00000000E-01  8.00000000E-01  1.50000000E+00  8.00000000E-01
  8.00000000E-01  1.50000000E+00  8.00000000E-01  8.00000000E-01  1.50000000E+00
  8.00000000E-01  8.00000000E-01  1.50000000E+00  8.00000000E-01  8.00000000E-01
  1.50000000E+00  8.00000000E-01  8.00000000E-01  1.50000000E+00  8.00000000E-01
  8.00000000E-01  1.50000000E+00  8.00000000E-01  8.00000000E-01  1.50000000E+00
  8.00000000E-01  8.00000000E-01  1.50000000E+00  8.00000000E-01  8.00000000E-01
  1.50000000E+00  8.00000000E-01  8.00000000E-01  1.50000000E+00  8.00000000E-01
  8.00000000E-01  1.50000000E+00  8.00000000E-01  8.00000000E-01  1.50000000E+00
  8.00000000E-01  8.00000000E-01  1.50000000E+00  8.00000000E-01  8.00000000E-01
  1.50000000E+00  8.00000000E-01  8.00000000E-01  1.50000000E+00  8.00000000E-01
  8.00000000E-01  1.50000000E+00  8.00000000E-01  8.00000000E-01  1.50000000E+00
  8.00000000E-01  8.00000000E-01  1.50000000E+00  8.00000000E-01  8.00000000E-01
  1.50000000E+00  8.00000000E-01  8.00000000E-01  1.50000000E+00  8.00000000E-01
  8.00000000E-01  1.50000000E+00  8.00000000E-01  8.00000000E-01  1.50000000E+00
  8.00000000E-01  8.00000000E-01  1.50000000E+00  8.00000000E-01  8.00000000E-01
  1.50000000E+00  8.00000000E-01  8.00000000E-01  1.50000000E+00  8.00000000E-01
  8.00000000E-01  1.50000000E+00  8.00000000E-01  8.00000000E-01  1.50000000E+00
  8.00000000E-01  8.00000000E-01  1.50000000E+00  8.00000000E-01  8.00000000E-01
  1.50000000E+00  8.00000000E-01  8.00000000E-01  1.50000000E+00  8.00000000E-01
  8.00000000E-01  1.50000000E+00  8.00000000E-01  8.00000000E-01  1.50000000E+00
  8.00000000E-01  8.00000000E-01  1.50000000E+00  8.00000000E-01  8.00000000E-01
  1.50000000E+00  8.00000000E-01  8.00000000E-01  1.50000000E+00  8.00000000E-01
  8.00000000E-01  1.50000000E+00  8.00000000E-01  8.00000000E-01  1.50000000E+00
  8.00000000E-01  8.00000000E-01  1.50000000E+00  8.00000000E-01  8.00000000E-01
  1.50000000E+00  8.00000000E-01  8.00000000E-01  1.50000000E+00  8.00000000E-01
  8.00000000E-01  1.50000000E+00  8.00000000E-01  8.00000000E-01  1.50000000E+00
  8.00000000E-01  8.00000000E-01  1.50000000E+00  8.00000000E-01  8.00000000E-01
  1.50000000E+00  8.00000000E-01  8.00000000E-01  1.50000000E+00  8.00000000E-01
  8.00000000E-01  1.50000000E+00  8.00000000E-01  8.00000000E-01  1.50000000E+00
  8.00000000E-01  8.00000000E-01  1.50000000E+00  8.00000000E-01  8.00000000E-01
  1.50000000E+00  8.00000000E-01  8.00000000E-01  1.50000000E+00  8.00000000E-01
  8.00000000E-01  1.50000000E+00  8.00000000E-01  8.00000000E-01  1.50000000E+00
  8.00000000E-01  8.00000000E-01  1.50000000E+00  8.00000000E-01  8.00000000E-01
  1.50000000E+00  8.00000000E-01  8.00000000E-01  1.50000000E+00  8.00000000E-01
  8.00000000E-01  1.50000000E+00  8.00000000E-01  8.00000000E-01  1.50000000E+00
  8.00000000E-01  8.00000000E-01  1.50000000E+00  8.00000000E-01  8.00000000E-01
  1.50000000E+00  8.00000000E-01  8.00000000E-01  1.50000000E+00  8.00000000E-01
  8.00000000E-01  1.50000000E+00  8.00000000E-01  8.00000000E-01  1.50000000E+00
  8.00000000E-01  8.00000000E-01  1.50000000E+00  8.00000000E-01  8.00000000E-01
  1.50000000E+00  8.00000000E-01  8.00000000E-01  1.50000000E+00  8.00000000E-01
  8.00000000E-01  1.50000000E+00  8.00000000E-01  8.00000000E-01  1.50000000E+00
  8.00000000E-01  8.00000000E-01  1.50000000E+00  8.00000000E-01  8.00000000E-01
  1.50000000E+00  8.00000000E-01  8.00000000E-01  1.50000000E+00  8.00000000E-01
  8.00000000E-01  1.50000000E+00  8.00000000E-01  8.00000000E-01  1.50000000E+00
  8.00000000E-01  8.00000000E-01  1.50000000E+00  8.00000000E-01  8.00000000E-01
  1.50000000E+00  8.00000000E-01  8.00000000E-01  1.50000000E+00  8.00000000E-01
  8.00000000E-01  1.50000000E+00  8.00000000E-01  8.00000000E-01  1.50000000E+00
  8.00000000E-01  8.00000000E-01  1.50000000E+00  8.00000000E-01  8.00000000E-01
  1.50000000E+00  8.00000000E-01  8.00000000E-01  1.50000000E+00  8.00000000E-01
  8.00000000E-01  1.50000000E+00  8.00000000E-01  8.00000000E-01  1.50000000E+00
  8.00000000E-01  8.00000000E-01  1.50000000E+00  8.00000000E-01  8.00000000E-01
  1.50000000E+00  8.00000000E-01  8.00000000E-01  1.50000000E+00  8.00000000E-01
  8.00000000E-01  1.50000000E+00  8.00000000E-01  8.00000000E-01  1.50000000E+00
  8.00000000E-01  8.00000000E-01  1.50000000E+00  8.00000000E-01  8.00000000E-01
  1.50000000E+00  8.00000000E-01  8.00000000E-01  1.50000000E+00  8.00000000E-01
  8.00000000E-01  1.50000000E+00  8.00000000E-01  8.00000000E-01  1.50000000E+00
  8.00000000E-01  8.00000000E-01  1.50000000E+00  8.00000000E-01  8.00000000E-01
  1.50000000E+00  8.00000000E-01  8.00000000E-01  1.50000000E+00  8.00000000E-01
  8.00000000E-01  1.50000000E+00  8.00000000E-01  8.00000000E-01  1.50000000E+00
  8.00000000E-01  8.00000000E-01  1.50000000E+00  8.00000000E-01  8.00000000E-01
  1.50000000E+00  8.00000000E-01  8.00000000E-01  1.50000000E+00  8.00000000E-01
  8.00000000E-01  1.50000000E+00  8.00000000E-01  8.00000000E-01  1.50000000E+00
  8.00000000E-01  8.00000000E-01  1.50000000E+00  8.00000000E-01  8.00000000E-01
  1.50000000E+00  8.00000000E-01  8.00000000E-01  1.50000000E+00  8.00000000E-01
  8.00000000E-01  1.50000000E+00  8.00000000E-01  8.00000000E-01  1.50000000E+00
  8.00000000E-01  8.00000000E-01  1.50000000E+00  8.00000000E-01  8.00000000E-01
  1.50000000E+00  8.00000000E-01  8.00000000E-01  1.50000000E+00  8.00000000E-01
  8.00000000E-01  1.50000000E+00  8.00000000E-01  8.00000000E-01  1.50000000E+00
  8.00000000E-01  8.00000000E-01  1.50000000E+00  8.00000000E-01  8.00000000E-01
  1.50000000E+00  8.00000000E-01  8.00000000E-01  1.50000000E+00  8.00000000E-01
  8.00000000E-01  1.50000000E+00  8.00000000E-01  8.00000000E-01  1.50000000E+00
  8.00000000E-01  8.00000000E-01  1.50000000E+00  8.00000000E-01  8.00000000E-01
  1.50000000E+00  8.00000000E-01  8.00000000E-01  1.50000000E+00  8.00000000E-01
  8.00000000E-01  1.50000000E+00  8.00000000E-01  8.00000000E-01  1.50000000E+00
  8.00000000E-01  8.00000000E-01  1.50000000E+00  8.00000000E-01  8.00000000E-01
  1.50000000E+00  8.00000000E-01  8.00000000E-01  1.50000000E+00  8.00000000E-01
  8.00000000E-01  1.50000000E+00  8.00000000E-01  8.00000000E-01  1.50000000E+00
  8.00000000E-01  8.00000000E-01  1.50000000E+00  8.00000000E-01  8.00000000E-01
  1.50000000E+00  8.00000000E-01  8.00000000E-01  1.50000000E+00  8.00000000E-01
  8.00000000E-01  1.50000000E+00  8.00000000E-01  8.00000000E-01  1.50000000E+00
  8.00000000E-01  8.00000000E-01  1.50000000E+00  8.00000000E-01  8.00000000E-01
  1.50000000E+00  8.00000000E-01  8.00000000E-01  1.50000000E+00  8.00000000E-01
  8.00000000E-01  1.50000000E+00  8.00000000E-01  8.00000000E-01  1.50000000E+00
  8.00000000E-01  8.00000000E-01  1.50000000E+00  8.00000000E-01  8.00000000E-01
  1.50000000E+00  8.00000000E-01  8.00000000E-01  1.50000000E+00  8.00000000E-01
  8.00000000E-01  1.50000000E+00  8.00000000E-01  8.00000000E-01  1.50000000E+00
  8.00000000E-01  8.00000000E-01  1.50000000E+00  8.00000000E-01  8.00000000E-01
  1.50000000E+00  8.00000000E-01  8.00000000E-01  1.50000000E+00  8.00000000E-01
  8.00000000E-01  1.50000000E+00  8.00000000E-01  8.00000000E-01  1.50000000E+00
  8.00000000E-01  8.00000000E-01  1.50000000E+00  8.00000000E-01  8.00000000E-01
  1.50000000E+00  8.00000000E-01  8.00000000E-01  1.50000000E+00  8.00000000E-01
  8.00000000E-01  1.50000000E+00  8.00000000E-01  8.00000000E-01  1.50000000E+00
  8.00000000E-01  8.00000000E-01  1.50000000E+00  8.00000000E-01  8.00000000E-01
  1.50000000E+00  8.00000000E-01  8.00000000E-01  1.50000000E+00  8.00000000E-01
  8.00000000E-01  1.50000000E+00  8.00000000E-01  8.00000000E-01  1.50000000E+00
  8.00000000E-01  8.00000000E-01  1.50000000E+00  8.00000000E-01  8.00000000E-01
  1.50000000E+00  8.00000000E-01  8.00000000E-01  1.50000000E+00  8.00000000E-01
  8.00000000E-01  1.50000000E+00  8.00000000E-01  8.00000000E-01  1.50000000E+00
  8.00000000E-01  8.00000000E-01  1.50000000E+00  8.00000000E-01  8.00000000E-01
  1.50000000E+00  8.00000000E-01  8.00000000E-01  1.50000000E+00  8.00000000E-01
  8.00000000E-01  1.50000000E+00  8.00000000E-01  8.00000000E-01  1.50000000E+00
  8.00000000E-01  8.00000000E-01  1.50000000E+00  8.00000000E-01  8.00000000E-01
  1.50000000E+00  8.00000000E-01  8.00000000E-01  1.50000000E+00  8.00000000E-01
  8.00000000E-01  1.50000000E+00  8.00000000E-01  8.00000000E-01  1.50000000E+00
  8.00000000E-01  8.00000000E-01  1.50000000E+00  8.00000000E-01  8.00000000E-01
  1.50000000E+00  8.00000000E-01  8.00000000E-01  1.50000000E+00  8.00000000E-01
  8.00000000E-01  1.50000000E+00  8.00000000E-01  8.00000000E-01  1.50000000E+00
  8.00000000E-01  8.00000000E-01  1.50000000E+00  8.00000000E-01  8.00000000E-01
  1.50000000E+00  8.00000000E-01  8.00000000E-01  1.50000000E+00  8.00000000E-01
  8.00000000E-01  1.50000000E+00  8.00000000E-01  8.00000000E-01  1.50000000E+00
  8.00000000E-01  8.00000000E-01  1.50000000E+00  8.00000000E-01  8.00000000E-01
  1.50000000E+00  8.00000000E-01  8.00000000E-01  1.50000000E+00  8.00000000E-01
  8.00000000E-01  1.50000000E+00  8.00000000E-01  8.00000000E-01  1.50000000E+00
  8.00000000E-01  8.00000000E-01  1.50000000E+00  8.00000000E-01  8.00000000E-01
  1.50000000E+00  8.00000000E-01  8.00000000E-01  1.50000000E+00  8.00000000E-01
  8.00000000E-01  1.50000000E+00  8.00000000E-01  8.00000000E-01  1.50000000E+00
  8.00000000E-01  8.00000000E-01  1.50000000E+00  8.00000000E-01  8.00000000E-01
  1.50000000E+00  8.00000000E-01  8.00000000E-01  1.50000000E+00  8.00000000E-01
  8.00000000E-01  1.50000000E+00  8.00000000E-01  8.00000000E-01  1.50000000E+00
  8.00000000E-01  8.00000000E-01  1.50000000E+00  8.00000000E-01  8.00000000E-01
  1.50000000E+00  8.00000000E-01  8.00000000E-01  1.50000000E+00  8.00000000E-01
  8.00000000E-01  1.50000000E+00  8.00000000E-01  8.00000000E-01  1.50000000E+00
  8.00000000E-01  8.00000000E-01  1.50000000E+00  8.00000000E-01  8.00000000E-01
  1.50000000E+00  8.00000000E-01  8.00000000E-01  1.50000000E+00  8.00000000E-01
  8.00000000E-01  1.50000000E+00  8.00000000E-01  8.00000000E-01  1.50000000E+00
  8.00000000E-01  8.00000000E-01  1.50000000E+00  8.00000000E-01  8.00000000E-01
  1.50000000E+00  8.00000000E-01  8.00000000E-01  1.50000000E+00  8.00000000E-01
  8.00000000E-01  1.50000000E+00  8.00000000E-01  8.00000000E-01  1.50000000E+00
  8.00000000E-01  8.00000000E-01  1.50000000E+00  8.00000000E-01  8.00000000E-01
  1.50000000E+00  8.00000000E-01  8.00000000E-01  1.50000000E+00  8.00000000E-01
  8.00000000E-01  1.50000000E+00  8.00000000E-01  8.00000000E-01  1.50000000E+00
  8.00000000E-01  8.00000000E-01  1.50000000E+00  8.00000000E-01  8.00000000E-01
  1.50000000E+00  8.00000000E-01  8.00000000E-01  1.50000000E+00  8.00000000E-01
  8.00000000E-01  1.50000000E+00  8.00000000E-01  8.00000000E-01  1.50000000E+00
  8.00000000E-01  8.00000000E-01  1.50000000E+00  8.00000000E-01  8.00000000E-01
  1.50000000E+00  8.00000000E-01  8.00000000E-01  1.50000000E+00  8.00000000E-01
  8.00000000E-01  1.50000000E+00  8.00000000E-01  8.00000000E-01  1.50000000E+00
  8.00000000E-01  8.00000000E-01  1.50000000E+00  8.00000000E-01  8.00000000E-01
  1.50000000E+00  8.00000000E-01  8.00000000E-01  1.50000000E+00  8.00000000E-01
  8.00000000E-01  1.50000000E+00  8.00000000E-01  8.00000000E-01  1.50000000E+00
  8.00000000E-01  8.00000000E-01  1.50000000E+00  8.00000000E-01  8.00000000E-01
  1.50000000E+00  8.00000000E-01  8.00000000E-01  1.50000000E+00  8.00000000E-01
  8.00000000E-01  1.50000000E+00  8.00000000E-01  8.00000000E-01  1.50000000E+00
  8.00000000E-01  8.00000000E-01  1.50000000E+00  8.00000000E-01  8.00000000E-01
  1.50000000E+00  8.00000000E-01  8.00000000E-01  1.50000000E+00  8.00000000E-01
  8.00000000E-01  1.50000000E+00  8.00000000E-01  8.00000000E-01  1.50000000E+00
  8.00000000E-01  8.00000000E-01  1.50000000E+00  8.00000000E-01  8.00000000E-01
  1.50000000E+00  8.00000000E-01  8.00000000E-01  1.50000000E+00  8.00000000E-01
  8.00000000E-01  1.50000000E+00  8.00000000E-01  8.00000000E-01  1.50000000E+00
  8.00000000E-01  8.00000000E-01  1.50000000E+00  8.00000000E-01  8.00000000E-01
  1.50000000E+00  8.00000000E-01  8.00000000E-01  1.50000000E+00  8.00000000E-01
  8.00000000E-01  1.50000000E+00  8.00000000E-01  8.00000000E-01  1.50000000E+00
  8.00000000E-01  8.00000000E-01  1.50000000E+00  8.00000000E-01  8.00000000E-01
  1.50000000E+00  8.00000000E-01  8.00000000E-01  1.50000000E+00  8.00000000E-01
  8.00000000E-01  1.50000000E+00  8.00000000E-01  8.00000000E-01  1.50000000E+00
  8.00000000E-01  8.00000000E-01  1.50000000E+00  8.00000000E-01  8.00000000E-01
  1.50000000E+00  8.00000000E-01  8.00000000E-01  1.50000000E+00  8.00000000E-01
  8.00000000E-01  1.50000000E+00  8.00000000E-01  8.00000000E-01  1.50000000E+00
  8.00000000E-01  8.00000000E-01  1.50000000E+00  8.00000000E-01  8.00000000E-01
  1.50000000E+00  8.00000000E-01  8.00000000E-01  1.50000000E+00  8.00000000E-01
  8.00000000E-01  1.50000000E+00  8.00000000E-01  8.00000000E-01  1.50000000E+00
  8.00000000E-01  8.00000000E-01  1.50000000E+00  8.00000000E-01  8.00000000E-01
  1.50000000E+00  8.00000000E-01  8.00000000E-01  1.50000000E+00  8.00000000E-01
  8.00000000E-01  1.50000000E+00  8.00000000E-01  8.00000000E-01  1.50000000E+00
  8.00000000E-01  8.00000000E-01  1.50000000E+00  8.00000000E-01  8.00000000E-01
  1.50000000E+00  8.00000000E-01  8.00000000E-01  1.50000000E+00  8.00000000E-01
  8.00000000E-01  1.50000000E+00  8.00000000E-01  8.00000000E-01  1.50000000E+00
  8.00000000E-01  8.00000000E-01  1.50000000E+00  8.00000000E-01  8.00000000E-01
  1.50000000E+00  8.00000000E-01  8.00000000E-01  1.50000000E+00  8.00000000E-01
  8.00000000E-01  1.50000000E+00  8.00000000E-01  8.00000000E-01  1.50000000E+00
  8.00000000E-01  8.00000000E-01  1.50000000E+00  8.00000000E-01  8.00000000E-01
  1.50000000E+00  8.00000000E-01  8.00000000E-01  1.50000000E+00  8.00000000E-01
  8.00000000E-01  1.50000000E+00  8.00000000E-01  8.00000000E-01  1.50000000E+00
  8.00000000E-01  8.00000000E-01  1.50000000E+00  8.00000000E-01  8.00000000E-01
  1.50000000E+00  8.00000000E-01  8.00000000E-01  1.50000000E+00  8.00000000E-01
  8.00000000E-01  1.50000000E+00  8.00000000E-01  8.00000000E-01  1.50000000E+00
  8.00000000E-01  8.00000000E-01  1.50000000E+00  8.00000000E-01  8.00000000E-01
  1.50000000E+00  8.00000000E-01  8.00000000E-01  1.50000000E+00  8.00000000E-01
  8.00000000E-01  1.50000000E+00  8.00000000E-01  8.00000000E-01  1.50000000E+00
  8.00000000E-01  8.00000000E-01  1.50000000E+00  8.00000000E-01  8.00000000E-01
  1.50000000E+00  8.00000000E-01  8.00000000E-01  1.50000000E+00  8.00000000E-01
  8.00000000E-01  1.50000000E+00  8.00000000E-01  8.00000000E-01  1.50000000E+00
  8.00000000E-01  8.00000000E-01  1.50000000E+00  8.00000000E-01  8.00000000E-01
  1.50000000E+00  8.00000000E-01  8.00000000E-01  1.50000000E+00  8.00000000E-01
  8.00000000E-01  1.50000000E+00  8.00000000E-01  8.00000000E-01  1.50000000E+00
  8.00000000E-01  8.00000000E-01  1.50000000E+00  8.00000000E-01  8.00000000E-01
  1.50000000E+00  8.00000000E-01  8.00000000E-01  1.50000000E+00  8.00000000E-01
  8.00000000E-01  1.50000000E+00  8.00000000E-01  8.00000000E-01  1.50000000E+00
  8.00000000E-01  8.00000000E-01  1.50000000E+00  8.00000000E-01  8.00000000E-01
  1.50000000E+00  8.00000000E-01  8.00000000E-01  1.50000000E+00  8.00000000E-01
  8.00000000E-01  1.50000000E+00  8.00000000E-01  8.00000000E-01  1.50000000E+00
  8.00000000E-01  8.00000000E-01  1.50000000E+00  8.00000000E-01  8.00000000E-01
  1.50000000E+00  8.00000000E-01  8.00000000E-01  1.50000000E+00  8.00000000E-01
  8.00000000E-01  1.50000000E+00  8.00000000E-01  8.00000000E-01  1.50000000E+00
  8.00000000E-01  8.00000000E-01  1.50000000E+00  8.00000000E-01  8.00000000E-01
  1.50000000E+00  8.00000000E-01  8.00000000E-01  1.50000000E+00  8.00000000E-01
  8.00000000E-01  1.50000000E+00  8.00000000E-01  8.00000000E-01  1.50000000E+00
  8.00000000E-01  8.00000000E-01  1.50000000E+00  8.00000000E-01  8.00000000E-01
  1.50000000E+00  8.00000000E-01  8.00000000E-01  1.50000000E+00  8.00000000E-01
  8.00000000E-01  1.50000000E+00  8.00000000E-01  8.00000000E-01  1.50000000E+00
  8.00000000E-01  8.00000000E-01  1.50000000E+00  8.00000000E-01  8.00000000E-01
  1.50000000E+00  8.00000000E-01  8.00000000E-01  1.50000000E+00  8.00000000E-01
  8.00000000E-01  1.50000000E+00  8.00000000E-01  8.00000000E-01  1.50000000E+00
  8.00000000E-01  8.00000000E-01  1.50000000E+00  8.00000000E-01  8.00000000E-01
  1.50000000E+00  8.00000000E-01  8.00000000E-01  1.50000000E+00  8.00000000E-01
  8.00000000E-01  1.50000000E+00  8.00000000E-01  8.00000000E-01  1.50000000E+00
  8.00000000E-01  8.00000000E-01  1.50000000E+00  8.00000000E-01  8.00000000E-01
  1.50000000E+00  8.00000000E-01  8.00000000E-01  1.50000000E+00  8.00000000E-01
  8.00000000E-01  1.50000000E+00  8.00000000E-01  8.00000000E-01  1.50000000E+00
  8.00000000E-01  8.00000000E-01  1.50000000E+00  8.00000000E-01  8.00000000E-01
  1.50000000E+00  8.00000000E-01  8.00000000E-01  1.50000000E+00  8.00000000E-01
  8.00000000E-01  1.50000000E+00  8.00000000E-01  8.00000000E-01  1.50000000E+00
  8.00000000E-01  8.00000000E-01  1.50000000E+00  8.00000000E-01  8.00000000E-01
  1.50000000E+00  8.00000000E-01  8.00000000E-01  1.50000000E+00  8.00000000E-01
  8.00000000E-01  1.50000000E+00  8.00000000E-01  8.00000000E-01  1.50000000E+00
  8.00000000E-01  8.00000000E-01  1.50000000E+00  8.00000000E-01  8.00000000E-01
  1.50000000E+00  8.00000000E-01  8.00000000E-01  1.50000000E+00  8.00000000E-01
  8.00000000E-01  1.50000000E+00  8.00000000E-01  8.00000000E-01  1.50000000E+00
  8.00000000E-01  8.00000000E-01  1.50000000E+00  8.00000000E-01  8.00000000E-01
  1.50000000E+00  8.00000000E-01  8.00000000E-01  1.50000000E+00  8.00000000E-01
  8.00000000E-01  1.50000000E+00  8.00000000E-01  8.00000000E-01  1.50000000E+00
  8.00000000E-01  8.00000000E-01  1.50000000E+00  8.00000000E-01  8.00000000E-01
  1.50000000E+00  8.00000000E-01  8.00000000E-01  1.50000000E+00  8.00000000E-01
  8.00000000E-01  1.50000000E+00  8.00000000E-01  8.00000000E-01  1.50000000E+00
  8.00000000E-01  8.00000000E-01  1.50000000E+00  8.00000000E-01  8.00000000E-01
  1.50000000E+00  8.00000000E-01  8.00000000E-01  1.50000000E+00  8.00000000E-01
  8.00000000E-01  1.50000000E+00  8.00000000E-01  8.00000000E-01  1.50000000E+00
  8.00000000E-01  8.00000000E-01  1.50000000E+00  8.00000000E-01  8.00000000E-01
  1.50000000E+00  8.00000000E-01  8.00000000E-01  1.50000000E+00  8.00000000E-01
  8.00000000E-01  1.50000000E+00  8.00000000E-01  8.00000000E-01  1.50000000E+00
  8.00000000E-01  8.00000000E-01  1.50000000E+00  8.00000000E-01  8.00000000E-01
  1.50000000E+00  8.00000000E-01  8.00000000E-01  1.50000000E+00  8.00000000E-01
  8.00000000E-01  1.50000000E+00  8.00000000E-01  8.00000000E-01  1.50000000E+00
  8.00000000E-01  8.00000000E-01  1.50000000E+00  8.00000000E-01  8.00000000E-01
  1.50000000E+00  8.00000000E-01  8.00000000E-01  1.50000000E+00  8.00000000E-01
  8.00000000E-01  1.50000000E+00  8.00000000E-01  8.00000000E-01  1.50000000E+00
  8.00000000E-01  8.00000000E-01  1.50000000E+00  8.00000000E-01  8.00000000E-01
  1.50000000E+00  8.00000000E-01  8.00000000E-01  1.50000000E+00  8.00000000E-01
  8.00000000E-01  1.50000000E+00  8.00000000E-01  8.00000000E-01  1.50000000E+00
  8.00000000E-01  8.00000000E-01  1.50000000E+00  8.00000000E-01  8.00000000E-01
  1.50000000E+00  8.00000000E-01  8.00000000E-01  1.50000000E+00  8.00000000E-01
  8.00000000E-01  1.50000000E+00  8.00000000E-01  8.00000000E-01  1.50000000E+00
  8.00000000E-01  8.00000000E-01  1.50000000E+00  8.00000000E-01  8.00000000E-01
  1.50000000E+00  8.00000000E-01  8.00000000E-01  1.50000000E+00  8.00000000E-01
  8.00000000E-01  1.50000000E+00  8.00000000E-01  8.00000000E-01  1.50000000E+00
  8.00000000E-01  8.00000000E-01  1.50000000E+00  8.00000000E-01  8.00000000E-01
  1.50000000E+00  8.00000000E-01  8.00000000E-01  1.50000000E+00  8.00000000E-01
  8.00000000E-01  1.50000000E+00  8.00000000E-01  8.00000000E-01  1.50000000E+00
  8.00000000E-01  8.00000000E-01  1.50000000E+00  8.00000000E-01  8.00000000E-01
  1.50000000E+00  8.00000000E-01  8.00000000E-01  1.50000000E+00  8.00000000E-01
  8.00000000E-01  1.50000000E+00  8.00000000E-01  8.00000000E-01  1.50000000E+00
  8.00000000E-01  8.00000000E-01  1.50000000E+00  8.00000000E-01  8.00000000E-01
  1.50000000E+00  8.00000000E-01  8.00000000E-01  1.50000000E+00  8.00000000E-01
  8.00000000E-01  1.50000000E+00  8.00000000E-01  8.00000000E-01  1.50000000E+00
  8.00000000E-01  8.00000000E-01  1.50000000E+00  8.00000000E-01  8.00000000E-01
  1.50000000E+00  8.00000000E-01  8.00000000E-01  1.50000000E+00  8.00000000E-01
  8.00000000E-01  1.50000000E+00  8.00000000E-01  8.00000000E-01  1.50000000E+00
  8.00000000E-01  8.00000000E-01  1.50000000E+00  8.00000000E-01  8.00000000E-01
  1.50000000E+00  8.00000000E-01  8.00000000E-01  1.50000000E+00  8.00000000E-01
  8.00000000E-01  1.50000000E+00  8.00000000E-01  8.00000000E-01  1.50000000E+00
  8.00000000E-01  8.00000000E-01  1.50000000E+00  8.00000000E-01  8.00000000E-01
  1.50000000E+00  8.00000000E-01  8.00000000E-01  1.50000000E+00  8.00000000E-01
  8.00000000E-01  1.50000000E+00  8.00000000E-01  8.00000000E-01  1.50000000E+00
  8.00000000E-01  8.00000000E-01  1.50000000E+00  8.00000000E-01  8.00000000E-01
  1.50000000E+00  8.00000000E-01  8.00000000E-01  1.50000000E+00  8.00000000E-01
  8.00000000E-01  1.50000000E+00  8.00000000E-01  8.00000000E-01  1.50000000E+00
  8.00000000E-01  8.00000000E-01  1.50000000E+00  8.00000000E-01  8.00000000E-01
  1.50000000E+00  8.00000000E-01  8.00000000E-01  1.50000000E+00  8.00000000E-01
  8.00000000E-01  1.50000000E+00  8.00000000E-01  8.00000000E-01  1.50000000E+00
  8.00000000E-01  8.00000000E-01  1.50000000E+00  8.00000000E-01  8.00000000E-01
  1.50000000E+00  8.00000000E-01  8.00000000E-01  1.50000000E+00  8.00000000E-01
  8.00000000E-01  1.50000000E+00  8.00000000E-01  8.00000000E-01  1.50000000E+00
  8.00000000E-01  8.00000000E-01  1.50000000E+00  8.00000000E-01  8.00000000E-01
  1.50000000E+00  8.00000000E-01  8.00000000E-01  1.50000000E+00  8.00000000E-01
  8.00000000E-01  1.50000000E+00  8.00000000E-01  8.00000000E-01  1.50000000E+00
  8.00000000E-01  8.00000000E-01  1.50000000E+00  8.00000000E-01  8.00000000E-01
  1.50000000E+00  8.00000000E-01  8.00000000E-01  1.50000000E+00  8.00000000E-01
  8.00000000E-01  1.50000000E+00  8.00000000E-01  8.00000000E-01  1.50000000E+00
  8.00000000E-01  8.00000000E-01  1.50000000E+00  8.00000000E-01  8.00000000E-01
  1.50000000E+00  8.00000000E-01  8.00000000E-01  1.50000000E+00  8.00000000E-01
  8.00000000E-01  1.50000000E+00  8.00000000E-01  8.00000000E-01  1.50000000E+00
  8.00000000E-01  8.00000000E-01  1.50000000E+00  8.00000000E-01  8.00000000E-01
  1.50000000E+00  8.00000000E-01  8.00000000E-01  1.50000000E+00  8.00000000E-01
  8.00000000E-01  1.50000000E+00  8.00000000E-01  8.00000000E-01  1.50000000E+00
  8.00000000E-01  8.00000000E-01  1.50000000E+00  8.00000000E-01  8.00000000E-01
  1.50000000E+00  8.00000000E-01  8.00000000E-01  1.50000000E+00  8.00000000E-01
  8.00000000E-01  1.50000000E+00  8.00000000E-01  8.00000000E-01  1.50000000E+00
  8.00000000E-01  8.00000000E-01  1.50000000E+00  8.00000000E-01  8.00000000E-01
  1.50000000E+00  8.00000000E-01  8.00000000E-01  1.50000000E+00  8.00000000E-01
  8.00000000E-01  1.50000000E+00  8.00000000E-01  8.00000000E-01  1.50000000E+00
  8.00000000E-01  8.00000000E-01  1.50000000E+00  8.00000000E-01  8.00000000E-01
  1.50000000E+00  8.00000000E-01  8.00000000E-01  1.50000000E+00  8.00000000E-01
  8.00000000E-01  1.50000000E+00  8.00000000E-01  8.00000000E-01  1.50000000E+00
  8.00000000E-01  8.00000000E-01  1.50000000E+00  8.00000000E-01  8.00000000E-01
  1.50000000E+00  8.00000000E-01  8.00000000E-01  1.50000000E+00  8.00000000E-01
  8.00000000E-01  1.50000000E+00  8.00000000E-01  8.00000000E-01  1.50000000E+00
  8.00000000E-01  8.00000000E-01  1.50000000E+00  8.00000000E-01  8.00000000E-01
  1.50000000E+00  8.00000000E-01  8.00000000E-01  1.50000000E+00  8.00000000E-01
  8.00000000E-01  1.50000000E+00  8.00000000E-01  8.00000000E-01  1.50000000E+00
  8.00000000E-01  8.00000000E-01  1.50000000E+00  8.00000000E-01  8.00000000E-01
  1.50000000E+00  8.00000000E-01  8.00000000E-01  1.50000000E+00  8.00000000E-01
  8.00000000E-01  1.50000000E+00  8.00000000E-01  8.00000000E-01  1.50000000E+00
  8.00000000E-01  8.00000000E-01  1.50000000E+00  8.00000000E-01  8.00000000E-01
  1.50000000E+00  8.00000000E-01  8.00000000E-01  1.50000000E+00  8.00000000E-01
  8.00000000E-01  1.50000000E+00  8.00000000E-01  8.00000000E-01  1.50000000E+00
  8.00000000E-01  8.00000000E-01  1.50000000E+00  8.00000000E-01  8.00000000E-01
  1.50000000E+00  8.00000000E-01  8.00000000E-01  1.50000000E+00  8.00000000E-01
  8.00000000E-01  1.50000000E+00  8.00000000E-01  8.00000000E-01  1.50000000E+00
  8.00000000E-01  8.00000000E-01  1.50000000E+00  8.00000000E-01  8.00000000E-01
  1.50000000E+00  8.00000000E-01  8.00000000E-01  1.50000000E+00  8.00000000E-01
  8.00000000E-01  1.50000000E+00  8.00000000E-01  8.00000000E-01  1.50000000E+00
  8.00000000E-01  8.00000000E-01  1.50000000E+00  8.00000000E-01  8.00000000E-01
  1.50000000E+00  8.00000000E-01  8.00000000E-01  1.50000000E+00  8.00000000E-01
  8.00000000E-01  1.50000000E+00  8.00000000E-01  8.00000000E-01  1.50000000E+00
  8.00000000E-01  8.00000000E-01  1.50000000E+00  8.00000000E-01  8.00000000E-01
  1.50000000E+00  8.00000000E-01  8.00000000E-01  1.50000000E+00  8.00000000E-01
  8.00000000E-01  1.50000000E+00  8.00000000E-01  8.00000000E-01  1.50000000E+00
  8.00000000E-01  8.00000000E-01  1.50000000E+00  8.00000000E-01  8.00000000E-01
  1.50000000E+00  8.00000000E-01  8.00000000E-01  1.50000000E+00  8.00000000E-01
  8.00000000E-01  1.50000000E+00  8.00000000E-01  8.00000000E-01  1.50000000E+00
  8.00000000E-01  8.00000000E-01  1.50000000E+00  8.00000000E-01  8.00000000E-01
  1.50000000E+00  8.00000000E-01  8.00000000E-01  1.50000000E+00  8.00000000E-01
  8.00000000E-01  1.50000000E+00  8.00000000E-01  8.00000000E-01  1.50000000E+00
  8.00000000E-01  8.00000000E-01  1.50000000E+00  8.00000000E-01  8.00000000E-01
  1.50000000E+00  8.00000000E-01  8.00000000E-01  1.50000000E+00  8.00000000E-01
  8.00000000E-01  1.50000000E+00  8.00000000E-01  8.00000000E-01  1.50000000E+00
  8.00000000E-01  8.00000000E-01  1.50000000E+00  8.00000000E-01  8.00000000E-01
  1.50000000E+00  8.00000000E-01  8.00000000E-01  1.50000000E+00  8.00000000E-01
  8.00000000E-01  1.50000000E+00  8.00000000E-01  8.00000000E-01  1.50000000E+00
  8.00000000E-01  8.00000000E-01  1.50000000E+00  8.00000000E-01  8.00000000E-01
  1.50000000E+00  8.00000000E-01  8.00000000E-01  1.50000000E+00  8.00000000E-01
  8.00000000E-01  1.50000000E+00  8.00000000E-01  8.00000000E-01  1.50000000E+00
  8.00000000E-01  8.00000000E-01  1.50000000E+00  8.00000000E-01  8.00000000E-01
  1.50000000E+00  8.00000000E-01  8.00000000E-01  1.50000000E+00  8.00000000E-01
  8.00000000E-01  1.50000000E+00  8.00000000E-01  8.00000000E-01  1.50000000E+00
  8.00000000E-01  8.00000000E-01  1.50000000E+00  8.00000000E-01  8.00000000E-01
  1.50000000E+00  8.00000000E-01  8.00000000E-01  1.50000000E+00  8.00000000E-01
  8.00000000E-01  1.50000000E+00  8.00000000E-01  8.00000000E-01  1.50000000E+00
  8.00000000E-01  8.00000000E-01  1.50000000E+00  8.00000000E-01  8.00000000E-01
  1.50000000E+00  8.00000000E-01  8.00000000E-01  1.50000000E+00  8.00000000E-01
  8.00000000E-01  1.50000000E+00  8.00000000E-01  8.00000000E-01  1.50000000E+00
  8.00000000E-01  8.00000000E-01  1.50000000E+00  8.00000000E-01  8.00000000E-01
  1.50000000E+00  8.00000000E-01  8.00000000E-01  1.50000000E+00  8.00000000E-01
  8.00000000E-01  1.50000000E+00  8.00000000E-01  8.00000000E-01  1.50000000E+00
  8.00000000E-01  8.00000000E-01  1.50000000E+00  8.00000000E-01  8.00000000E-01
  1.50000000E+00  8.00000000E-01  8.00000000E-01  1.50000000E+00  8.00000000E-01
  8.00000000E-01  1.50000000E+00  8.00000000E-01  8.00000000E-01  1.50000000E+00
  8.00000000E-01  8.00000000E-01  1.50000000E+00  8.00000000E-01  8.00000000E-01
  1.50000000E+00  8.00000000E-01  8.00000000E-01  1.50000000E+00  8.00000000E-01
  8.00000000E-01  1.50000000E+00  8.00000000E-01  8.00000000E-01  1.50000000E+00
  8.00000000E-01  8.00000000E-01  1.50000000E+00  8.00000000E-01  8.00000000E-01
  1.50000000E+00  8.00000000E-01  8.00000000E-01  1.50000000E+00  8.00000000E-01
  8.00000000E-01  1.50000000E+00  8.00000000E-01  8.00000000E-01  1.50000000E+00
  8.00000000E-01  8.00000000E-01  1.50000000E+00  8.00000000E-01  8.00000000E-01
  1.50000000E+00  8.00000000E-01  8.00000000E-01  1.50000000E+00  8.00000000E-01
  8.00000000E-01  1.50000000E+00  8.00000000E-01  8.00000000E-01  1.50000000E+00
  8.00000000E-01  8.00000000E-01  1.50000000E+00  8.00000000E-01  8.00000000E-01
  1.50000000E+00  8.00000000E-01  8.00000000E-01  1.50000000E+00  8.00000000E-01
  8.00000000E-01  1.50000000E+00  8.00000000E-01  8.00000000E-01  1.50000000E+00
  8.00000000E-01  8.00000000E-01  1.50000000E+00  8.00000000E-01  8.00000000E-01
  1.50000000E+00  8.00000000E-01  8.00000000E-01  1.50000000E+00  8.00000000E-01
  8.00000000E-01  1.50000000E+00  8.00000000E-01  8.00000000E-01  1.50000000E+00
  8.00000000E-01  8.00000000E-01  1.50000000E+00  8.00000000E-01  8.00000000E-01
  1.50000000E+00  8.00000000E-01  8.00000000E-01  1.50000000E+00  8.00000000E-01
  8.00000000E-01  1.50000000E+00  8.00000000E-01  8.00000000E-01  1.50000000E+00
  8.00000000E-01  8.00000000E-01  1.50000000E+00  8.00000000E-01  8.00000000E-01
  1.50000000E+00  8.00000000E-01  8.00000000E-01  1.50000000E+00  8.00000000E-01
  8.00000000E-01  1.50000000E+00  8.00000000E-01  8.00000000E-01  1.50000000E+00
  8.00000000E-01  8.00000000E-01  1.50000000E+00  8.00000000E-01  8.00000000E-01
  1.50000000E+00  8.00000000E-01  8.00000000E-01  1.50000000E+00  8.00000000E-01
  8.00000000E-01  1.50000000E+00  8.00000000E-01  8.00000000E-01  1.50000000E+00
  8.00000000E-01  8.00000000E-01  1.50000000E+00  8.00000000E-01  8.00000000E-01
  1.50000000E+00  8.00000000E-01  8.00000000E-01  1.50000000E+00  8.00000000E-01
  8.00000000E-01  1.50000000E+00  8.00000000E-01  8.00000000E-01  1.50000000E+00
  8.00000000E-01  8.00000000E-01  1.50000000E+00  8.00000000E-01  8.00000000E-01
  1.50000000E+00  8.00000000E-01  8.00000000E-01  1.50000000E+00  8.00000000E-01
  8.00000000E-01  1.50000000E+00  8.00000000E-01  8.00000000E-01  1.50000000E+00
  8.00000000E-01  8.00000000E-01  1.50000000E+00  8.00000000E-01  8.00000000E-01
  1.50000000E+00  8.00000000E-01  8.00000000E-01  1.50000000E+00  8.00000000E-01
  8.00000000E-01  1.50000000E+00  8.00000000E-01  8.00000000E-01  1.50000000E+00
  8.00000000E-01  8.00000000E-01  1.50000000E+00  8.00000000E-01  8.00000000E-01
  1.50000000E+00  8.00000000E-01  8.00000000E-01  1.50000000E+00  8.00000000E-01
  8.00000000E-01  1.50000000E+00  8.00000000E-01  8.00000000E-01  1.50000000E+00
  8.00000000E-01  8.00000000E-01  1.50000000E+00  8.00000000E-01  8.00000000E-01
  1.50000000E+00  8.00000000E-01  8.00000000E-01  1.50000000E+00  8.00000000E-01
  8.00000000E-01  1.50000000E+00  8.00000000E-01  8.00000000E-01  1.50000000E+00
  8.00000000E-01  8.00000000E-01  1.50000000E+00  8.00000000E-01  8.00000000E-01
  1.50000000E+00  8.00000000E-01  8.00000000E-01  1.50000000E+00  8.00000000E-01
  8.00000000E-01  1.50000000E+00  8.00000000E-01  8.00000000E-01  1.50000000E+00
  8.00000000E-01  8.00000000E-01  1.50000000E+00  8.00000000E-01  8.00000000E-01
  1.50000000E+00  8.00000000E-01  8.00000000E-01  1.50000000E+00  8.00000000E-01
  8.00000000E-01  1.50000000E+00  8.00000000E-01  8.00000000E-01  1.50000000E+00
  8.00000000E-01  8.00000000E-01  1.50000000E+00  8.00000000E-01  8.00000000E-01
  1.50000000E+00  8.00000000E-01  8.00000000E-01  1.50000000E+00  8.00000000E-01
  8.00000000E-01  1.50000000E+00  8.00000000E-01  8.00000000E-01  1.50000000E+00
  8.00000000E-01  8.00000000E-01  1.50000000E+00  8.00000000E-01  8.00000000E-01
  1.50000000E+00  8.00000000E-01  8.00000000E-01  1.50000000E+00  8.00000000E-01
  8.00000000E-01  1.50000000E+00  8.00000000E-01  8.00000000E-01  1.50000000E+00
  8.00000000E-01  8.00000000E-01  1.50000000E+00  8.00000000E-01  8.00000000E-01
  1.50000000E+00  8.00000000E-01  8.00000000E-01  1.50000000E+00  8.00000000E-01
  8.00000000E-01  1.50000000E+00  8.00000000E-01  8.00000000E-01  1.50000000E+00
  8.00000000E-01  8.00000000E-01  1.50000000E+00  8.00000000E-01  8.00000000E-01
  1.50000000E+00  8.00000000E-01  8.00000000E-01  1.50000000E+00  8.00000000E-01
  8.00000000E-01  1.50000000E+00  8.00000000E-01  8.00000000E-01  1.50000000E+00
  8.00000000E-01  8.00000000E-01  1.50000000E+00  8.00000000E-01  8.00000000E-01
  1.50000000E+00  8.00000000E-01  8.00000000E-01  1.50000000E+00  8.00000000E-01
  8.00000000E-01  1.50000000E+00  8.00000000E-01  8.00000000E-01  1.50000000E+00
  8.00000000E-01  8.00000000E-01  1.50000000E+00  8.00000000E-01  8.00000000E-01
  1.50000000E+00  8.00000000E-01  8.00000000E-01  1.50000000E+00  8.00000000E-01
  8.00000000E-01  1.50000000E+00  8.00000000E-01  8.00000000E-01  1.50000000E+00
  8.00000000E-01  8.00000000E-01  1.50000000E+00  8.00000000E-01  8.00000000E-01
  1.50000000E+00  8.00000000E-01  8.00000000E-01  1.50000000E+00  8.00000000E-01
  8.00000000E-01  1.50000000E+00  8.00000000E-01  8.00000000E-01  1.50000000E+00
  8.00000000E-01  8.00000000E-01  1.50000000E+00  8.00000000E-01  8.00000000E-01
  1.50000000E+00  8.00000000E-01  8.00000000E-01  1.50000000E+00  8.00000000E-01
  8.00000000E-01  1.50000000E+00  8.00000000E-01  8.00000000E-01  1.50000000E+00
  8.00000000E-01  8.00000000E-01  1.50000000E+00  8.00000000E-01  8.00000000E-01
  1.50000000E+00  8.00000000E-01  8.00000000E-01  1.50000000E+00  8.00000000E-01
  8.00000000E-01  1.50000000E+00  8.00000000E-01  8.00000000E-01  1.50000000E+00
  8.00000000E-01  8.00000000E-01  1.50000000E+00  8.00000000E-01  8.00000000E-01
  1.50000000E+00  8.00000000E-01  8.00000000E-01  1.50000000E+00  8.00000000E-01
  8.00000000E-01  1.50000000E+00  8.00000000E-01  8.00000000E-01  1.50000000E+00
  8.00000000E-01  8.00000000E-01  1.50000000E+00  8.00000000E-01  8.00000000E-01
  1.50000000E+00  8.00000000E-01  8.00000000E-01  1.50000000E+00  8.00000000E-01
  8.00000000E-01  1.50000000E+00  8.00000000E-01  8.00000000E-01  1.50000000E+00
  8.00000000E-01  8.00000000E-01  1.50000000E+00  8.00000000E-01  8.00000000E-01
  1.50000000E+00  8.00000000E-01  8.00000000E-01  1.50000000E+00  8.00000000E-01
  8.00000000E-01  1.50000000E+00  8.00000000E-01  8.00000000E-01  1.50000000E+00
  8.00000000E-01  8.00000000E-01  1.50000000E+00  8.00000000E-01  8.00000000E-01
  1.50000000E+00  8.00000000E-01  8.00000000E-01  1.50000000E+00  8.00000000E-01
  8.00000000E-01  1.50000000E+00  8.00000000E-01  8.00000000E-01  1.50000000E+00
  8.00000000E-01  8.00000000E-01  1.50000000E+00  8.00000000E-01  8.00000000E-01
  1.50000000E+00  8.00000000E-01  8.00000000E-01  1.50000000E+00  8.00000000E-01
  8.00000000E-01  1.50000000E+00  8.00000000E-01  8.00000000E-01  1.50000000E+00
  8.00000000E-01  8.00000000E-01  1.50000000E+00  8.00000000E-01  8.00000000E-01
  1.50000000E+00  8.00000000E-01  8.00000000E-01  1.50000000E+00  8.00000000E-01
  8.00000000E-01  1.50000000E+00  8.00000000E-01  8.00000000E-01  1.50000000E+00
  8.00000000E-01  8.00000000E-01  1.50000000E+00  8.00000000E-01  8.00000000E-01
  1.50000000E+00  8.00000000E-01  8.00000000E-01  1.50000000E+00  8.00000000E-01
  8.00000000E-01  1.50000000E+00  8.00000000E-01  8.00000000E-01  1.50000000E+00
  8.00000000E-01  8.00000000E-01  1.50000000E+00  8.00000000E-01  8.00000000E-01
  1.50000000E+00  8.00000000E-01  8.00000000E-01  1.50000000E+00  8.00000000E-01
  8.00000000E-01  1.50000000E+00  8.00000000E-01  8.00000000E-01  1.50000000E+00
  8.00000000E-01  8.00000000E-01  1.50000000E+00  8.00000000E-01  8.00000000E-01
  1.50000000E+00  8.00000000E-01  8.00000000E-01  1.50000000E+00  8.00000000E-01
  8.00000000E-01  1.50000000E+00  8.00000000E-01  8.00000000E-01  1.50000000E+00
  8.00000000E-01  8.00000000E-01  1.50000000E+00  8.00000000E-01  8.00000000E-01
  1.50000000E+00  8.00000000E-01  8.00000000E-01  1.50000000E+00  8.00000000E-01
  8.00000000E-01  1.50000000E+00  8.00000000E-01  8.00000000E-01  1.50000000E+00
  8.00000000E-01  8.00000000E-01  1.50000000E+00  8.00000000E-01  8.00000000E-01
  1.50000000E+00  8.00000000E-01  8.00000000E-01  1.50000000E+00  8.00000000E-01
  8.00000000E-01  1.50000000E+00  8.00000000E-01  8.00000000E-01  1.50000000E+00
  8.00000000E-01  8.00000000E-01  1.50000000E+00  8.00000000E-01  8.00000000E-01
  1.50000000E+00  8.00000000E-01  8.00000000E-01  1.50000000E+00  8.00000000E-01
  8.00000000E-01  1.50000000E+00  8.00000000E-01  8.00000000E-01  1.50000000E+00
  8.00000000E-01  8.00000000E-01  1.50000000E+00  8.00000000E-01  8.00000000E-01
  1.50000000E+00  8.00000000E-01  8.00000000E-01  1.50000000E+00  8.00000000E-01
  8.00000000E-01  1.50000000E+00  8.00000000E-01  8.00000000E-01  1.50000000E+00
  8.00000000E-01  8.00000000E-01  1.50000000E+00  8.00000000E-01  8.00000000E-01
  1.50000000E+00  8.00000000E-01  8.00000000E-01  1.50000000E+00  8.00000000E-01
  8.00000000E-01  1.50000000E+00  8.00000000E-01  8.00000000E-01  1.50000000E+00
  8.00000000E-01  8.00000000E-01  1.50000000E+00  8.00000000E-01  8.00000000E-01
  1.50000000E+00  8.00000000E-01  8.00000000E-01  1.50000000E+00  8.00000000E-01
  8.00000000E-01  1.50000000E+00  8.00000000E-01  8.00000000E-01  1.50000000E+00
  8.00000000E-01  8.00000000E-01  1.50000000E+00  8.00000000E-01  8.00000000E-01
  1.50000000E+00  8.00000000E-01  8.00000000E-01  1.50000000E+00  8.00000000E-01
  8.00000000E-01  1.50000000E+00  8.00000000E-01  8.00000000E-01  1.50000000E+00
  8.00000000E-01  8.00000000E-01  1.50000000E+00  8.00000000E-01  8.00000000E-01
  1.50000000E+00  8.00000000E-01  8.00000000E-01  1.50000000E+00  8.00000000E-01
  8.00000000E-01  1.50000000E+00  8.00000000E-01  8.00000000E-01  1.50000000E+00
  8.00000000E-01  8.00000000E-01  1.50000000E+00  8.00000000E-01  8.00000000E-01
  1.50000000E+00  8.00000000E-01  8.00000000E-01  1.50000000E+00  8.00000000E-01
  8.00000000E-01  1.50000000E+00  8.00000000E-01  8.00000000E-01  1.50000000E+00
  8.00000000E-01  8.00000000E-01  1.50000000E+00  8.00000000E-01  8.00000000E-01
  1.50000000E+00  8.00000000E-01  8.00000000E-01  1.50000000E+00  8.00000000E-01
  8.00000000E-01  1.50000000E+00  8.00000000E-01  8.00000000E-01  1.50000000E+00
  8.00000000E-01  8.00000000E-01  1.50000000E+00  8.00000000E-01  8.00000000E-01
  1.50000000E+00  8.00000000E-01  8.00000000E-01  1.50000000E+00  8.00000000E-01
  8.00000000E-01  1.50000000E+00  8.00000000E-01  8.00000000E-01  1.50000000E+00
  8.00000000E-01  8.00000000E-01  1.50000000E+00  8.00000000E-01  8.00000000E-01
  1.50000000E+00  8.00000000E-01  8.00000000E-01  1.50000000E+00  8.00000000E-01
  8.00000000E-01  1.50000000E+00  8.00000000E-01  8.00000000E-01  1.50000000E+00
  8.00000000E-01  8.00000000E-01  1.50000000E+00  8.00000000E-01  8.00000000E-01
  1.50000000E+00  8.00000000E-01  8.00000000E-01  1.50000000E+00  8.00000000E-01
  8.00000000E-01  1.50000000E+00  8.00000000E-01  8.00000000E-01  1.50000000E+00
  8.00000000E-01  8.00000000E-01  1.50000000E+00  8.00000000E-01  8.00000000E-01
  1.50000000E+00  8.00000000E-01  8.00000000E-01  1.50000000E+00  8.00000000E-01
  8.00000000E-01  1.50000000E+00  8.00000000E-01  8.00000000E-01  1.50000000E+00
  8.00000000E-01  8.00000000E-01  1.50000000E+00  8.00000000E-01  8.00000000E-01
  1.50000000E+00  8.00000000E-01  8.00000000E-01  1.50000000E+00  8.00000000E-01
  8.00000000E-01  1.50000000E+00  8.00000000E-01  8.00000000E-01  1.50000000E+00
  8.00000000E-01  8.00000000E-01  1.50000000E+00  8.00000000E-01  8.00000000E-01
  1.50000000E+00  8.00000000E-01  8.00000000E-01  1.50000000E+00  8.00000000E-01
  8.00000000E-01  1.50000000E+00  8.00000000E-01  8.00000000E-01  1.50000000E+00
  8.00000000E-01  8.00000000E-01  1.50000000E+00  8.00000000E-01  8.00000000E-01
  1.50000000E+00  8.00000000E-01  8.00000000E-01  1.50000000E+00  8.00000000E-01
  8.00000000E-01  1.50000000E+00  8.00000000E-01  8.00000000E-01  1.50000000E+00
  8.00000000E-01  8.00000000E-01  1.50000000E+00  8.00000000E-01  8.00000000E-01
  1.50000000E+00  8.00000000E-01  8.00000000E-01  1.50000000E+00  8.00000000E-01
  8.00000000E-01  1.50000000E+00  8.00000000E-01  8.00000000E-01  1.50000000E+00
  8.00000000E-01  8.00000000E-01  1.50000000E+00  8.00000000E-01  8.00000000E-01
  1.50000000E+00  8.00000000E-01  8.00000000E-01  1.50000000E+00  8.00000000E-01
  8.00000000E-01  1.50000000E+00  8.00000000E-01  8.00000000E-01  1.50000000E+00
  8.00000000E-01  8.00000000E-01  1.50000000E+00  8.00000000E-01  8.00000000E-01
  1.50000000E+00  8.00000000E-01  8.00000000E-01  1.50000000E+00  8.00000000E-01
  8.00000000E-01  1.50000000E+00  8.00000000E-01  8.00000000E-01  1.50000000E+00
  8.00000000E-01  8.00000000E-01  1.50000000E+00  8.00000000E-01  8.00000000E-01
  1.50000000E+00  8.00000000E-01  8.00000000E-01  1.50000000E+00  8.00000000E-01
  8.00000000E-01  1.50000000E+00  8.00000000E-01  8.00000000E-01  1.50000000E+00
  8.00000000E-01  8.00000000E-01  1.50000000E+00  8.00000000E-01  8.00000000E-01
  1.50000000E+00  8.00000000E-01  8.00000000E-01  1.50000000E+00  8.00000000E-01
  8.00000000E-01  1.50000000E+00  8.00000000E-01  8.00000000E-01  1.50000000E+00
  8.00000000E-01  8.00000000E-01  1.50000000E+00  8.00000000E-01  8.00000000E-01
  1.50000000E+00  8.00000000E-01  8.00000000E-01  1.50000000E+00  8.00000000E-01
  8.00000000E-01  1.50000000E+00  8.00000000E-01  8.00000000E-01  1.50000000E+00
  8.00000000E-01  8.00000000E-01  1.50000000E+00  8.00000000E-01  8.00000000E-01
  1.50000000E+00  8.00000000E-01  8.00000000E-01  1.50000000E+00  8.00000000E-01
  8.00000000E-01  1.50000000E+00  8.00000000E-01  8.00000000E-01  1.50000000E+00
  8.00000000E-01  8.00000000E-01  1.50000000E+00  8.00000000E-01  8.00000000E-01
  1.50000000E+00  8.00000000E-01  8.00000000E-01  1.50000000E+00  8.00000000E-01
  8.00000000E-01  1.50000000E+00  8.00000000E-01  8.00000000E-01  1.50000000E+00
  8.00000000E-01  8.00000000E-01  1.50000000E+00  8.00000000E-01  8.00000000E-01
  1.50000000E+00  8.00000000E-01  8.00000000E-01  1.50000000E+00  8.00000000E-01
  8.00000000E-01  1.50000000E+00  8.00000000E-01  8.00000000E-01  1.50000000E+00
  8.00000000E-01  8.00000000E-01  1.50000000E+00  8.00000000E-01  8.00000000E-01
  1.50000000E+00  8.00000000E-01  8.00000000E-01  1.50000000E+00  8.00000000E-01
  8.00000000E-01  1.50000000E+00  8.00000000E-01  8.00000000E-01  1.50000000E+00
  8.00000000E-01  8.00000000E-01  1.50000000E+00  8.00000000E-01  8.00000000E-01
  1.50000000E+00  8.00000000E-01  8.00000000E-01  1.50000000E+00  8.00000000E-01
  8.00000000E-01  1.50000000E+00  8.00000000E-01  8.00000000E-01  1.50000000E+00
  8.00000000E-01  8.00000000E-01  1.50000000E+00  8.00000000E-01  8.00000000E-01
  1.50000000E+00  8.00000000E-01  8.00000000E-01  1.50000000E+00  8.00000000E-01
  8.00000000E-01  1.50000000E+00  8.00000000E-01  8.00000000E-01  1.50000000E+00
  8.00000000E-01  8.00000000E-01  1.50000000E+00  8.00000000E-01  8.00000000E-01
  1.50000000E+00  8.00000000E-01  8.00000000E-01  1.50000000E+00  8.00000000E-01
  8.00000000E-01  1.50000000E+00  8.00000000E-01  8.00000000E-01  1.50000000E+00
  8.00000000E-01  8.00000000E-01  1.50000000E+00  8.00000000E-01  8.00000000E-01
  1.50000000E+00  8.00000000E-01  8.00000000E-01  1.50000000E+00  8.00000000E-01
  8.00000000E-01  1.50000000E+00  8.00000000E-01  8.00000000E-01  1.50000000E+00
  8.00000000E-01  8.00000000E-01  1.50000000E+00  8.00000000E-01  8.00000000E-01
  1.50000000E+00  8.00000000E-01  8.00000000E-01  1.50000000E+00  8.00000000E-01
  8.00000000E-01  1.50000000E+00  8.00000000E-01  8.00000000E-01  1.50000000E+00
  8.00000000E-01  8.00000000E-01  1.50000000E+00  8.00000000E-01  8.00000000E-01
  1.50000000E+00  8.00000000E-01  8.00000000E-01  1.50000000E+00  8.00000000E-01
  8.00000000E-01  1.50000000E+00  8.00000000E-01  8.00000000E-01  1.50000000E+00
  8.00000000E-01  8.00000000E-01  1.50000000E+00  8.00000000E-01  8.00000000E-01
  1.50000000E+00  8.00000000E-01  8.00000000E-01  1.50000000E+00  8.00000000E-01
  8.00000000E-01  1.50000000E+00  8.00000000E-01  8.00000000E-01  1.50000000E+00
  8.00000000E-01  8.00000000E-01  1.50000000E+00  8.00000000E-01  8.00000000E-01
  1.50000000E+00  8.00000000E-01  8.00000000E-01  1.50000000E+00  8.00000000E-01
  8.00000000E-01  1.50000000E+00  8.00000000E-01  8.00000000E-01  1.50000000E+00
  8.00000000E-01  8.00000000E-01  1.50000000E+00  8.00000000E-01  8.00000000E-01
  1.50000000E+00  8.00000000E-01  8.00000000E-01  1.50000000E+00  8.00000000E-01
  8.00000000E-01  1.50000000E+00  8.00000000E-01  8.00000000E-01  1.50000000E+00
  8.00000000E-01  8.00000000E-01  1.50000000E+00  8.00000000E-01  8.00000000E-01
  1.50000000E+00  8.00000000E-01  8.00000000E-01  1.50000000E+00  8.00000000E-01
  8.00000000E-01  1.50000000E+00  8.00000000E-01  8.00000000E-01  1.50000000E+00
  8.00000000E-01  8.00000000E-01  1.50000000E+00  8.00000000E-01  8.00000000E-01
  1.50000000E+00  8.00000000E-01  8.00000000E-01  1.50000000E+00  8.00000000E-01
  8.00000000E-01  1.50000000E+00  8.00000000E-01  8.00000000E-01  1.50000000E+00
  8.00000000E-01  8.00000000E-01  1.50000000E+00  8.00000000E-01  8.00000000E-01
  1.50000000E+00  8.00000000E-01  8.00000000E-01  1.50000000E+00  8.00000000E-01
  8.00000000E-01  1.50000000E+00  8.00000000E-01  8.00000000E-01  1.50000000E+00
  8.00000000E-01  8.00000000E-01  1.50000000E+00  8.00000000E-01  8.00000000E-01
  1.50000000E+00  8.00000000E-01  8.00000000E-01  1.50000000E+00  8.00000000E-01
  8.00000000E-01  1.50000000E+00  8.00000000E-01  8.00000000E-01  1.50000000E+00
  8.00000000E-01  8.00000000E-01  1.50000000E+00  8.00000000E-01  8.00000000E-01
  1.50000000E+00  8.00000000E-01  8.00000000E-01  1.50000000E+00  8.00000000E-01
  8.00000000E-01  1.50000000E+00  8.00000000E-01  8.00000000E-01  1.50000000E+00
  8.00000000E-01  8.00000000E-01  1.50000000E+00  8.00000000E-01  8.00000000E-01
  1.50000000E+00  8.00000000E-01  8.00000000E-01  1.50000000E+00  8.00000000E-01
  8.00000000E-01  1.50000000E+00  8.00000000E-01  8.00000000E-01  1.50000000E+00
  8.00000000E-01  8.00000000E-01  1.50000000E+00  8.00000000E-01  8.00000000E-01
  1.50000000E+00  8.00000000E-01  8.00000000E-01  1.50000000E+00  8.00000000E-01
  8.00000000E-01  1.50000000E+00  8.00000000E-01  8.00000000E-01  1.50000000E+00
  8.00000000E-01  8.00000000E-01  1.50000000E+00  8.00000000E-01  8.00000000E-01
  1.50000000E+00  8.00000000E-01  8.00000000E-01  1.50000000E+00  8.00000000E-01
  8.00000000E-01  1.50000000E+00  8.00000000E-01  8.00000000E-01  1.50000000E+00
  8.00000000E-01  8.00000000E-01  1.50000000E+00  8.00000000E-01  8.00000000E-01
  1.50000000E+00  8.00000000E-01  8.00000000E-01  1.50000000E+00  8.00000000E-01
  8.00000000E-01  1.50000000E+00  8.00000000E-01  8.00000000E-01  1.50000000E+00
  8.00000000E-01  8.00000000E-01  1.50000000E+00  8.00000000E-01  8.00000000E-01
  1.50000000E+00  8.00000000E-01  8.00000000E-01  1.50000000E+00  8.00000000E-01
  8.00000000E-01  1.50000000E+00  8.00000000E-01  8.00000000E-01  1.50000000E+00
  8.00000000E-01  8.00000000E-01  1.50000000E+00  8.00000000E-01  8.00000000E-01
  1.50000000E+00  8.00000000E-01  8.00000000E-01  1.50000000E+00  8.00000000E-01
  8.00000000E-01  1.50000000E+00  8.00000000E-01  8.00000000E-01  1.50000000E+00
  8.00000000E-01  8.00000000E-01  1.50000000E+00  8.00000000E-01  8.00000000E-01
  1.50000000E+00  8.00000000E-01  8.00000000E-01  1.50000000E+00  8.00000000E-01
  8.00000000E-01  1.50000000E+00  8.00000000E-01  8.00000000E-01  1.50000000E+00
  8.00000000E-01  8.00000000E-01  1.50000000E+00  8.00000000E-01  8.00000000E-01
  1.50000000E+00  8.00000000E-01  8.00000000E-01  1.50000000E+00  8.00000000E-01
  8.00000000E-01  1.50000000E+00  8.00000000E-01  8.00000000E-01  1.50000000E+00
  8.00000000E-01  8.00000000E-01  1.50000000E+00  8.00000000E-01  8.00000000E-01
  1.50000000E+00  8.00000000E-01  8.00000000E-01  1.50000000E+00  8.00000000E-01
  8.00000000E-01  1.50000000E+00  8.00000000E-01  8.00000000E-01  1.50000000E+00
  8.00000000E-01  8.00000000E-01  1.50000000E+00  8.00000000E-01  8.00000000E-01
  1.50000000E+00  8.00000000E-01  8.00000000E-01  1.50000000E+00  8.00000000E-01
  8.00000000E-01  1.50000000E+00  8.00000000E-01  8.00000000E-01  1.50000000E+00
  8.00000000E-01  8.00000000E-01  1.50000000E+00  8.00000000E-01  8.00000000E-01
  1.50000000E+00  8.00000000E-01  8.00000000E-01  1.50000000E+00  8.00000000E-01
  8.00000000E-01  1.50000000E+00  8.00000000E-01  8.00000000E-01  1.50000000E+00
  8.00000000E-01  8.00000000E-01  1.50000000E+00  8.00000000E-01  8.00000000E-01
  1.50000000E+00  8.00000000E-01  8.00000000E-01  1.50000000E+00  8.00000000E-01
  8.00000000E-01  1.50000000E+00  8.00000000E-01  8.00000000E-01  1.50000000E+00
  8.00000000E-01  8.00000000E-01  1.50000000E+00  8.00000000E-01  8.00000000E-01
  1.50000000E+00  8.00000000E-01  8.00000000E-01  1.50000000E+00  8.00000000E-01
  8.00000000E-01  1.50000000E+00  8.00000000E-01  8.00000000E-01  1.50000000E+00
  8.00000000E-01  8.00000000E-01  1.50000000E+00  8.00000000E-01  8.00000000E-01
  1.50000000E+00  8.00000000E-01  8.00000000E-01  1.50000000E+00  8.00000000E-01
  8.00000000E-01  1.50000000E+00  8.00000000E-01  8.00000000E-01  1.50000000E+00
  8.00000000E-01  8.00000000E-01  1.50000000E+00  8.00000000E-01  8.00000000E-01
  1.50000000E+00  8.00000000E-01  8.00000000E-01  1.50000000E+00  8.00000000E-01
  8.00000000E-01  1.50000000E+00  8.00000000E-01  8.00000000E-01  1.50000000E+00
  8.00000000E-01  8.00000000E-01  1.50000000E+00  8.00000000E-01  8.00000000E-01
  1.50000000E+00  8.00000000E-01  8.00000000E-01  1.50000000E+00  8.00000000E-01
  8.00000000E-01  1.50000000E+00  8.00000000E-01  8.00000000E-01  1.50000000E+00
  8.00000000E-01  8.00000000E-01  1.50000000E+00  8.00000000E-01  8.00000000E-01
  1.50000000E+00  8.00000000E-01  8.00000000E-01  1.50000000E+00  8.00000000E-01
  8.00000000E-01  1.50000000E+00  8.00000000E-01  8.00000000E-01  1.50000000E+00
  8.00000000E-01  8.00000000E-01  1.50000000E+00  8.00000000E-01  8.00000000E-01
  1.50000000E+00  8.00000000E-01  8.00000000E-01  1.50000000E+00  8.00000000E-01
  8.00000000E-01  1.50000000E+00  8.00000000E-01  8.00000000E-01  1.50000000E+00
  8.00000000E-01  8.00000000E-01  1.50000000E+00  8.00000000E-01  8.00000000E-01
  1.50000000E+00  8.00000000E-01  8.00000000E-01  1.50000000E+00  8.00000000E-01
  8.00000000E-01  1.50000000E+00  8.00000000E-01  8.00000000E-01  1.50000000E+00
  8.00000000E-01  8.00000000E-01  1.50000000E+00  8.00000000E-01  8.00000000E-01
  1.50000000E+00  8.00000000E-01  8.00000000E-01  1.50000000E+00  8.00000000E-01
  8.00000000E-01  1.50000000E+00  8.00000000E-01  8.00000000E-01  1.50000000E+00
  8.00000000E-01  8.00000000E-01  1.50000000E+00  8.00000000E-01  8.00000000E-01
  1.50000000E+00  8.00000000E-01  8.00000000E-01  1.50000000E+00  8.00000000E-01
  8.00000000E-01  1.50000000E+00  8.00000000E-01  8.00000000E-01  1.50000000E+00
  8.00000000E-01  8.00000000E-01  1.50000000E+00  8.00000000E-01  8.00000000E-01
  1.50000000E+00  8.00000000E-01  8.00000000E-01  1.50000000E+00  8.00000000E-01
  8.00000000E-01  1.50000000E+00  8.00000000E-01  8.00000000E-01  1.50000000E+00
  8.00000000E-01  8.00000000E-01  1.50000000E+00  8.00000000E-01  8.00000000E-01
  1.50000000E+00  8.00000000E-01  8.00000000E-01  1.50000000E+00  8.00000000E-01
  8.00000000E-01  1.50000000E+00  8.00000000E-01  8.00000000E-01  1.50000000E+00
  8.00000000E-01  8.00000000E-01  1.50000000E+00  8.00000000E-01  8.00000000E-01
  1.50000000E+00  8.00000000E-01  8.00000000E-01  1.50000000E+00  8.00000000E-01
  8.00000000E-01  1.50000000E+00  8.00000000E-01  8.00000000E-01  1.50000000E+00
  8.00000000E-01  8.00000000E-01  1.50000000E+00  8.00000000E-01  8.00000000E-01
  1.50000000E+00  8.00000000E-01  8.00000000E-01  1.50000000E+00  8.00000000E-01
  8.00000000E-01  1.50000000E+00  8.00000000E-01  8.00000000E-01  1.50000000E+00
  8.00000000E-01  8.00000000E-01  1.50000000E+00  8.00000000E-01  8.00000000E-01
  1.50000000E+00  8.00000000E-01  8.00000000E-01  1.50000000E+00  8.00000000E-01
  8.00000000E-01  1.50000000E+00  8.00000000E-01  8.00000000E-01  1.50000000E+00
  8.00000000E-01  8.00000000E-01  1.50000000E+00  8.00000000E-01  8.00000000E-01
  1.50000000E+00  8.00000000E-01  8.00000000E-01  1.50000000E+00  8.00000000E-01
  8.00000000E-01  1.50000000E+00  8.00000000E-01  8.00000000E-01  1.50000000E+00
  8.00000000E-01  8.00000000E-01  1.50000000E+00  8.00000000E-01  8.00000000E-01
  1.50000000E+00  8.00000000E-01  8.00000000E-01  1.50000000E+00  8.00000000E-01
  8.00000000E-01  1.50000000E+00  8.00000000E-01  8.00000000E-01  1.50000000E+00
  8.00000000E-01  8.00000000E-01  1.50000000E+00  8.00000000E-01  8.00000000E-01
  1.50000000E+00  8.00000000E-01  8.00000000E-01  1.50000000E+00  8.00000000E-01
  8.00000000E-01  1.50000000E+00  8.00000000E-01  8.00000000E-01  1.50000000E+00
  8.00000000E-01  8.00000000E-01  1.50000000E+00  8.00000000E-01  8.00000000E-01
  1.50000000E+00  8.00000000E-01  8.00000000E-01  1.50000000E+00  8.00000000E-01
  8.00000000E-01  1.50000000E+00  8.00000000E-01  8.00000000E-01  1.50000000E+00
  8.00000000E-01  8.00000000E-01  1.50000000E+00  8.00000000E-01  8.00000000E-01
  1.50000000E+00  8.00000000E-01  8.00000000E-01  1.50000000E+00  8.00000000E-01
  8.00000000E-01  1.50000000E+00  8.00000000E-01  8.00000000E-01  1.50000000E+00
  8.00000000E-01  8.00000000E-01  1.50000000E+00  8.00000000E-01  8.00000000E-01
  1.50000000E+00  8.00000000E-01  8.00000000E-01  1.50000000E+00  8.00000000E-01
  8.00000000E-01  1.50000000E+00  8.00000000E-01  8.00000000E-01  1.50000000E+00
  8.00000000E-01  8.00000000E-01  1.50000000E+00  8.00000000E-01  8.00000000E-01
  1.50000000E+00  8.00000000E-01  8.00000000E-01  1.50000000E+00  8.00000000E-01
  8.00000000E-01  1.50000000E+00  8.00000000E-01  8.00000000E-01  1.50000000E+00
  8.00000000E-01  8.00000000E-01  1.50000000E+00  8.00000000E-01  8.00000000E-01
  1.50000000E+00  8.00000000E-01  8.00000000E-01  1.50000000E+00  8.00000000E-01
  8.00000000E-01  1.50000000E+00  8.00000000E-01  8.00000000E-01  1.50000000E+00
  8.00000000E-01  8.00000000E-01  1.50000000E+00  8.00000000E-01  8.00000000E-01
  1.50000000E+00  8.00000000E-01  8.00000000E-01  1.50000000E+00  8.00000000E-01
  8.00000000E-01  1.50000000E+00  8.00000000E-01  8.00000000E-01  1.50000000E+00
  8.00000000E-01  8.00000000E-01  1.50000000E+00  8.00000000E-01  8.00000000E-01
  1.50000000E+00  8.00000000E-01  8.00000000E-01  1.50000000E+00  8.00000000E-01
  8.00000000E-01  1.50000000E+00  8.00000000E-01  8.00000000E-01  1.50000000E+00
  8.00000000E-01  8.00000000E-01  1.50000000E+00  8.00000000E-01  8.00000000E-01
  1.50000000E+00  8.00000000E-01  8.00000000E-01  1.50000000E+00  8.00000000E-01
  8.00000000E-01  1.50000000E+00  8.00000000E-01  8.00000000E-01  1.50000000E+00
  8.00000000E-01  8.00000000E-01  1.50000000E+00  8.00000000E-01  8.00000000E-01
  1.50000000E+00  8.00000000E-01  8.00000000E-01  1.50000000E+00  8.00000000E-01
  8.00000000E-01  1.50000000E+00  8.00000000E-01  8.00000000E-01  1.50000000E+00
  8.00000000E-01  8.00000000E-01  1.50000000E+00  8.00000000E-01  8.00000000E-01
  1.50000000E+00  8.00000000E-01  8.00000000E-01  1.50000000E+00  8.00000000E-01
  8.00000000E-01  1.50000000E+00  8.00000000E-01  8.00000000E-01  1.50000000E+00
  8.00000000E-01  8.00000000E-01  1.50000000E+00  8.00000000E-01  8.00000000E-01
  1.50000000E+00  8.00000000E-01  8.00000000E-01  1.50000000E+00  8.00000000E-01
  8.00000000E-01  1.50000000E+00  8.00000000E-01  8.00000000E-01  1.50000000E+00
  8.00000000E-01  8.00000000E-01  1.50000000E+00  8.00000000E-01  8.00000000E-01
  1.50000000E+00  8.00000000E-01  8.00000000E-01  1.50000000E+00  8.00000000E-01
  8.00000000E-01  1.50000000E+00  8.00000000E-01  8.00000000E-01  1.50000000E+00
  8.00000000E-01  8.00000000E-01  1.50000000E+00  8.00000000E-01  8.00000000E-01
  1.50000000E+00  8.00000000E-01  8.00000000E-01  1.50000000E+00  8.00000000E-01
  8.00000000E-01  1.50000000E+00  8.00000000E-01  8.00000000E-01  1.50000000E+00
  8.00000000E-01  8.00000000E-01  1.50000000E+00  8.00000000E-01  8.00000000E-01
  1.50000000E+00  8.00000000E-01  8.00000000E-01  1.50000000E+00  8.00000000E-01
  8.00000000E-01  1.50000000E+00  8.00000000E-01  8.00000000E-01  1.50000000E+00
  8.00000000E-01  8.00000000E-01  1.50000000E+00  8.00000000E-01  8.00000000E-01
  1.50000000E+00  8.00000000E-01  8.00000000E-01  1.50000000E+00  8.00000000E-01
  8.00000000E-01  1.50000000E+00  8.00000000E-01  8.00000000E-01  1.50000000E+00
  8.00000000E-01  8.00000000E-01  1.50000000E+00  8.00000000E-01  8.00000000E-01
  1.50000000E+00  8.00000000E-01  8.00000000E-01  1.50000000E+00  8.00000000E-01
  8.00000000E-01  1.50000000E+00  8.00000000E-01  8.00000000E-01  1.50000000E+00
  8.00000000E-01  8.00000000E-01  1.50000000E+00  8.00000000E-01  8.00000000E-01
  1.50000000E+00  8.00000000E-01  8.00000000E-01  1.50000000E+00  8.00000000E-01
  8.00000000E-01  1.50000000E+00  8.00000000E-01  8.00000000E-01  1.50000000E+00
  8.00000000E-01  8.00000000E-01  1.50000000E+00  8.00000000E-01  8.00000000E-01
  1.50000000E+00  8.00000000E-01  8.00000000E-01  1.50000000E+00  8.00000000E-01
  8.00000000E-01  1.50000000E+00  8.00000000E-01  8.00000000E-01  1.50000000E+00
  8.00000000E-01  8.00000000E-01  1.50000000E+00  8.00000000E-01  8.00000000E-01
  1.50000000E+00  8.00000000E-01  8.00000000E-01  1.50000000E+00  8.00000000E-01
  8.00000000E-01  1.50000000E+00  8.00000000E-01  8.00000000E-01  1.50000000E+00
  8.00000000E-01  8.00000000E-01  1.50000000E+00  8.00000000E-01  8.00000000E-01
  1.50000000E+00  8.00000000E-01  8.00000000E-01  1.50000000E+00  8.00000000E-01
  8.00000000E-01  1.50000000E+00  8.00000000E-01  8.00000000E-01  1.50000000E+00
  8.00000000E-01  8.00000000E-01  1.50000000E+00  8.00000000E-01  8.00000000E-01
  1.50000000E+00  8.00000000E-01  8.00000000E-01  1.50000000E+00  8.00000000E-01
  8.00000000E-01  1.50000000E+00  8.00000000E-01  8.00000000E-01  1.50000000E+00
  8.00000000E-01  8.00000000E-01  1.50000000E+00  8.00000000E-01  8.00000000E-01
  1.50000000E+00  8.00000000E-01  8.00000000E-01  1.50000000E+00  8.00000000E-01
  8.00000000E-01  1.50000000E+00  8.00000000E-01  8.00000000E-01  1.50000000E+00
  8.00000000E-01  8.00000000E-01  1.50000000E+00  8.00000000E-01  8.00000000E-01
  1.50000000E+00  8.00000000E-01  8.00000000E-01  1.50000000E+00  8.00000000E-01
  8.00000000E-01  1.50000000E+00  8.00000000E-01  8.00000000E-01  1.50000000E+00
  8.00000000E-01  8.00000000E-01  1.50000000E+00  8.00000000E-01  8.00000000E-01
  1.50000000E+00  8.00000000E-01  8.00000000E-01  1.50000000E+00  8.00000000E-01
  8.00000000E-01  1.50000000E+00  8.00000000E-01  8.00000000E-01  1.50000000E+00
  8.00000000E-01  8.00000000E-01  1.50000000E+00  8.00000000E-01  8.00000000E-01
  1.50000000E+00  8.00000000E-01  8.00000000E-01  1.50000000E+00  8.00000000E-01
  8.00000000E-01  1.50000000E+00  8.00000000E-01  8.00000000E-01  1.50000000E+00
  8.00000000E-01  8.00000000E-01  1.50000000E+00  8.00000000E-01  8.00000000E-01
  1.50000000E+00  8.00000000E-01  8.00000000E-01  1.50000000E+00  8.00000000E-01
  8.00000000E-01  1.50000000E+00  8.00000000E-01  8.00000000E-01  1.50000000E+00
  8.00000000E-01  8.00000000E-01  1.50000000E+00  8.00000000E-01  8.00000000E-01
  1.50000000E+00  8.00000000E-01  8.00000000E-01  1.50000000E+00  8.00000000E-01
  8.00000000E-01  1.50000000E+00  8.00000000E-01  8.00000000E-01  1.50000000E+00
  8.00000000E-01  8.00000000E-01  1.50000000E+00  8.00000000E-01  8.00000000E-01
  1.50000000E+00  8.00000000E-01  8.00000000E-01  1.50000000E+00  8.00000000E-01
  8.00000000E-01  1.50000000E+00  8.00000000E-01  8.00000000E-01  1.50000000E+00
  8.00000000E-01  8.00000000E-01  1.50000000E+00  8.00000000E-01  8.00000000E-01
  1.50000000E+00  8.00000000E-01  8.00000000E-01  1.50000000E+00  8.00000000E-01
  8.00000000E-01  1.50000000E+00  8.00000000E-01  8.00000000E-01  1.50000000E+00
  8.00000000E-01  8.00000000E-01  1.50000000E+00  8.00000000E-01  8.00000000E-01
  1.50000000E+00  8.00000000E-01  8.00000000E-01  1.50000000E+00  8.00000000E-01
  8.00000000E-01  1.50000000E+00  8.00000000E-01  8.00000000E-01  1.50000000E+00
  8.00000000E-01  8.00000000E-01  1.50000000E+00  8.00000000E-01  8.00000000E-01
  1.50000000E+00  8.00000000E-01  8.00000000E-01  1.50000000E+00  8.00000000E-01
  8.00000000E-01  1.50000000E+00  8.00000000E-01  8.00000000E-01  1.50000000E+00
  8.00000000E-01  8.00000000E-01  1.50000000E+00  8.00000000E-01  8.00000000E-01
  1.50000000E+00  8.00000000E-01  8.00000000E-01  1.50000000E+00  8.00000000E-01
  8.00000000E-01  1.50000000E+00  8.00000000E-01  8.00000000E-01  1.50000000E+00
  8.00000000E-01  8.00000000E-01  1.50000000E+00  8.00000000E-01  8.00000000E-01
  1.50000000E+00  8.00000000E-01  8.00000000E-01  1.50000000E+00  8.00000000E-01
  8.00000000E-01  1.50000000E+00  8.00000000E-01  8.00000000E-01  1.50000000E+00
  8.00000000E-01  8.00000000E-01  1.50000000E+00  8.00000000E-01  8.00000000E-01
  1.50000000E+00  8.00000000E-01  8.00000000E-01  1.50000000E+00  8.00000000E-01
  8.00000000E-01  1.50000000E+00  8.00000000E-01  8.00000000E-01  1.50000000E+00
  8.00000000E-01  8.00000000E-01  1.50000000E+00  8.00000000E-01  8.00000000E-01
  1.50000000E+00  8.00000000E-01  8.00000000E-01  1.50000000E+00  8.00000000E-01
  8.00000000E-01  1.50000000E+00  8.00000000E-01  8.00000000E-01  1.50000000E+00
  8.00000000E-01  8.00000000E-01  1.50000000E+00  8.00000000E-01  8.00000000E-01
  1.50000000E+00  8.00000000E-01  8.00000000E-01  1.50000000E+00  8.00000000E-01
  8.00000000E-01  1.50000000E+00  8.00000000E-01  8.00000000E-01  1.50000000E+00
  8.00000000E-01  8.00000000E-01  1.50000000E+00  8.00000000E-01  8.00000000E-01
  1.50000000E+00  8.00000000E-01  8.00000000E-01  1.50000000E+00  8.00000000E-01
  8.00000000E-01  1.50000000E+00  8.00000000E-01  8.00000000E-01  1.50000000E+00
  8.00000000E-01  8.00000000E-01  1.50000000E+00  8.00000000E-01  8.00000000E-01
  1.50000000E+00  8.00000000E-01  8.00000000E-01  1.50000000E+00  8.00000000E-01
  8.00000000E-01  1.50000000E+00  8.00000000E-01  8.00000000E-01  1.50000000E+00
  8.00000000E-01  8.00000000E-01  1.50000000E+00  8.00000000E-01  8.00000000E-01
  1.50000000E+00  8.00000000E-01  8.00000000E-01  1.50000000E+00  8.00000000E-01
  8.00000000E-01  1.50000000E+00  8.00000000E-01  8.00000000E-01  1.50000000E+00
  8.00000000E-01  8.00000000E-01  1.50000000E+00  8.00000000E-01  8.00000000E-01
  1.50000000E+00  8.00000000E-01  8.00000000E-01  1.50000000E+00  8.00000000E-01
  8.00000000E-01  1.50000000E+00  8.00000000E-01  8.00000000E-01  1.50000000E+00
  8.00000000E-01  8.00000000E-01  1.50000000E+00  8.00000000E-01  8.00000000E-01
  1.50000000E+00  8.00000000E-01  8.00000000E-01  1.50000000E+00  8.00000000E-01
  8.00000000E-01  1.50000000E+00  8.00000000E-01  8.00000000E-01  1.50000000E+00
  8.00000000E-01  8.00000000E-01  1.50000000E+00  8.00000000E-01  8.00000000E-01
  1.50000000E+00  8.00000000E-01  8.00000000E-01  1.50000000E+00  8.00000000E-01
  8.00000000E-01  1.50000000E+00  8.00000000E-01  8.00000000E-01  1.50000000E+00
  8.00000000E-01  8.00000000E-01  1.50000000E+00  8.00000000E-01  8.00000000E-01
  1.50000000E+00  8.00000000E-01  8.00000000E-01  1.50000000E+00  8.00000000E-01
  8.00000000E-01  1.50000000E+00  8.00000000E-01  8.00000000E-01  1.50000000E+00
  8.00000000E-01  8.00000000E-01  1.50000000E+00  8.00000000E-01  8.00000000E-01
  1.50000000E+00  8.00000000E-01  8.00000000E-01  1.50000000E+00  8.00000000E-01
  8.00000000E-01  1.50000000E+00  8.00000000E-01  8.00000000E-01  1.50000000E+00
  8.00000000E-01  8.00000000E-01  1.50000000E+00  8.00000000E-01  8.00000000E-01
  1.50000000E+00  8.00000000E-01  8.00000000E-01  1.50000000E+00  8.00000000E-01
  8.00000000E-01  1.50000000E+00  8.00000000E-01  8.00000000E-01  1.50000000E+00
  8.00000000E-01  8.00000000E-01  1.50000000E+00  8.00000000E-01  8.00000000E-01
  1.50000000E+00  8.00000000E-01  8.00000000E-01  1.50000000E+00  8.00000000E-01
  8.00000000E-01  1.50000000E+00  8.00000000E-01  8.00000000E-01  1.50000000E+00
  8.00000000E-01  8.00000000E-01  1.50000000E+00  8.00000000E-01  8.00000000E-01
  1.50000000E+00  8.00000000E-01  8.00000000E-01  1.50000000E+00  8.00000000E-01
  8.00000000E-01  1.50000000E+00  8.00000000E-01  8.00000000E-01  1.50000000E+00
  8.00000000E-01  8.00000000E-01  1.50000000E+00  8.00000000E-01  8.00000000E-01
  1.50000000E+00  8.00000000E-01  8.00000000E-01  1.50000000E+00  8.00000000E-01
  8.00000000E-01  1.50000000E+00  8.00000000E-01  8.00000000E-01  1.50000000E+00
  8.00000000E-01  8.00000000E-01  1.50000000E+00  8.00000000E-01  8.00000000E-01
  1.50000000E+00  8.00000000E-01  8.00000000E-01  1.50000000E+00  8.00000000E-01
  8.00000000E-01  1.50000000E+00  8.00000000E-01  8.00000000E-01  1.50000000E+00
  8.00000000E-01  8.00000000E-01  1.50000000E+00  8.00000000E-01  8.00000000E-01
  1.50000000E+00  8.00000000E-01  8.00000000E-01  1.50000000E+00  8.00000000E-01
  8.00000000E-01  1.50000000E+00  8.00000000E-01  8.00000000E-01  1.50000000E+00
  8.00000000E-01  8.00000000E-01  1.50000000E+00  8.00000000E-01  8.00000000E-01
  1.50000000E+00  8.00000000E-01  8.00000000E-01  1.50000000E+00  8.00000000E-01
  8.00000000E-01  1.50000000E+00  8.00000000E-01  8.00000000E-01  1.50000000E+00
  8.00000000E-01  8.00000000E-01  1.50000000E+00  8.00000000E-01  8.00000000E-01
  1.50000000E+00  8.00000000E-01  8.00000000E-01  1.50000000E+00  8.00000000E-01
  8.00000000E-01  1.50000000E+00  8.00000000E-01  8.00000000E-01  1.50000000E+00
  8.00000000E-01  8.00000000E-01  1.50000000E+00  8.00000000E-01  8.00000000E-01
  1.50000000E+00  8.00000000E-01  8.00000000E-01  1.50000000E+00  8.00000000E-01
  8.00000000E-01  1.50000000E+00  8.00000000E-01  8.00000000E-01  1.50000000E+00
  8.00000000E-01  8.00000000E-01  1.50000000E+00  8.00000000E-01  8.00000000E-01
  1.50000000E+00  8.00000000E-01  8.00000000E-01  1.50000000E+00  8.00000000E-01
  8.00000000E-01  1.50000000E+00  8.00000000E-01  8.00000000E-01  1.50000000E+00
  8.00000000E-01  8.00000000E-01  1.50000000E+00  8.00000000E-01  8.00000000E-01
  1.50000000E+00  8.00000000E-01  8.00000000E-01  1.50000000E+00  8.00000000E-01
  8.00000000E-01  1.50000000E+00  8.00000000E-01  8.00000000E-01  1.50000000E+00
  8.00000000E-01  8.00000000E-01  1.50000000E+00  8.00000000E-01  8.00000000E-01
  1.50000000E+00  8.00000000E-01  8.00000000E-01  1.50000000E+00  8.00000000E-01
  8.00000000E-01  1.50000000E+00  8.00000000E-01  8.00000000E-01  1.50000000E+00
  8.00000000E-01  8.00000000E-01  1.50000000E+00  8.00000000E-01  8.00000000E-01
  1.50000000E+00  8.00000000E-01  8.00000000E-01  1.50000000E+00  8.00000000E-01
  8.00000000E-01  1.50000000E+00  8.00000000E-01  8.00000000E-01  1.50000000E+00
  8.00000000E-01  8.00000000E-01  1.50000000E+00  8.00000000E-01  8.00000000E-01
  1.50000000E+00  8.00000000E-01  8.00000000E-01  1.50000000E+00  8.00000000E-01
  8.00000000E-01  1.50000000E+00  8.00000000E-01  8.00000000E-01  1.50000000E+00
  8.00000000E-01  8.00000000E-01  1.50000000E+00  8.00000000E-01  8.00000000E-01
  1.50000000E+00  8.00000000E-01  8.00000000E-01  1.50000000E+00  8.00000000E-01
  8.00000000E-01  1.50000000E+00  8.00000000E-01  8.00000000E-01  1.50000000E+00
  8.00000000E-01  8.00000000E-01  1.50000000E+00  8.00000000E-01  8.00000000E-01
  1.50000000E+00  8.00000000E-01  8.00000000E-01  1.50000000E+00  8.00000000E-01
  8.00000000E-01  1.50000000E+00  8.00000000E-01  8.00000000E-01  1.50000000E+00
  8.00000000E-01  8.00000000E-01  1.50000000E+00  8.00000000E-01  8.00000000E-01
  1.50000000E+00  8.00000000E-01  8.00000000E-01  1.50000000E+00  8.00000000E-01
  8.00000000E-01  1.50000000E+00  8.00000000E-01  8.00000000E-01  1.50000000E+00
  8.00000000E-01  8.00000000E-01  1.50000000E+00  8.00000000E-01  8.00000000E-01
  1.50000000E+00  8.00000000E-01  8.00000000E-01  1.50000000E+00  8.00000000E-01
  8.00000000E-01  1.50000000E+00  8.00000000E-01  8.00000000E-01  1.50000000E+00
  8.00000000E-01  8.00000000E-01  1.50000000E+00  8.00000000E-01  8.00000000E-01
  1.50000000E+00  8.00000000E-01  8.00000000E-01  1.50000000E+00  8.00000000E-01
  8.00000000E-01  1.50000000E+00  8.00000000E-01  8.00000000E-01  1.50000000E+00
  8.00000000E-01  8.00000000E-01  1.50000000E+00  8.00000000E-01  8.00000000E-01
  1.50000000E+00  8.00000000E-01  8.00000000E-01  1.50000000E+00  8.00000000E-01
  8.00000000E-01  1.50000000E+00  8.00000000E-01  8.00000000E-01  1.50000000E+00
  8.00000000E-01  8.00000000E-01  1.50000000E+00  8.00000000E-01  8.00000000E-01
  1.50000000E+00  8.00000000E-01  8.00000000E-01  1.50000000E+00  8.00000000E-01
  8.00000000E-01  1.50000000E+00  8.00000000E-01  8.00000000E-01  1.50000000E+00
  8.00000000E-01  8.00000000E-01  1.50000000E+00  8.00000000E-01  8.00000000E-01
  1.50000000E+00  8.00000000E-01  8.00000000E-01  1.50000000E+00  8.00000000E-01
  8.00000000E-01  1.50000000E+00  8.00000000E-01  8.00000000E-01  1.50000000E+00
  8.00000000E-01  8.00000000E-01  1.50000000E+00  8.00000000E-01  8.00000000E-01
  1.50000000E+00  8.00000000E-01  8.00000000E-01  1.50000000E+00  8.00000000E-01
  8.00000000E-01  1.50000000E+00  8.00000000E-01  8.00000000E-01  1.50000000E+00
  8.00000000E-01  8.00000000E-01  1.50000000E+00  8.00000000E-01  8.00000000E-01
  1.50000000E+00  8.00000000E-01  8.00000000E-01  1.50000000E+00  8.00000000E-01
  8.00000000E-01  1.50000000E+00  8.00000000E-01  8.00000000E-01  1.50000000E+00
  8.00000000E-01  8.00000000E-01  1.50000000E+00  8.00000000E-01  8.00000000E-01
  1.50000000E+00  8.00000000E-01  8.00000000E-01  1.50000000E+00  8.00000000E-01
  8.00000000E-01  1.50000000E+00  8.00000000E-01  8.00000000E-01  1.50000000E+00
  8.00000000E-01  8.00000000E-01  1.50000000E+00  8.00000000E-01  8.00000000E-01
  1.50000000E+00  8.00000000E-01  8.00000000E-01  1.50000000E+00  8.00000000E-01
  8.00000000E-01  1.50000000E+00  8.00000000E-01  8.00000000E-01  1.50000000E+00
  8.00000000E-01  8.00000000E-01  1.50000000E+00  8.00000000E-01  8.00000000E-01
  1.50000000E+00  8.00000000E-01  8.00000000E-01  1.50000000E+00  8.00000000E-01
  8.00000000E-01  1.50000000E+00  8.00000000E-01  8.00000000E-01  1.50000000E+00
  8.00000000E-01  8.00000000E-01  1.50000000E+00  8.00000000E-01  8.00000000E-01
  1.50000000E+00  8.00000000E-01  8.00000000E-01  1.50000000E+00  8.00000000E-01
  8.00000000E-01  1.50000000E+00  8.00000000E-01  8.00000000E-01  1.50000000E+00
  8.00000000E-01  8.00000000E-01  1.50000000E+00  8.00000000E-01  8.00000000E-01
  1.50000000E+00  8.00000000E-01  8.00000000E-01  1.50000000E+00  8.00000000E-01
  8.00000000E-01  1.50000000E+00  8.00000000E-01  8.00000000E-01  1.50000000E+00
  8.00000000E-01  8.00000000E-01  1.50000000E+00  8.00000000E-01  8.00000000E-01
  1.50000000E+00  8.00000000E-01  8.00000000E-01  1.50000000E+00  8.00000000E-01
  8.00000000E-01  1.50000000E+00  8.00000000E-01  8.00000000E-01  1.50000000E+00
  8.00000000E-01  8.00000000E-01  1.50000000E+00  8.00000000E-01  8.00000000E-01
  1.50000000E+00  8.00000000E-01  8.00000000E-01  1.50000000E+00  8.00000000E-01
  8.00000000E-01  1.50000000E+00  8.00000000E-01  8.00000000E-01  1.50000000E+00
  8.00000000E-01  8.00000000E-01  1.50000000E+00  8.00000000E-01  8.00000000E-01
  1.50000000E+00  8.00000000E-01  8.00000000E-01  1.50000000E+00  8.00000000E-01
  8.00000000E-01  1.50000000E+00  8.00000000E-01  8.00000000E-01  1.50000000E+00
  8.00000000E-01  8.00000000E-01  1.50000000E+00  8.00000000E-01  8.00000000E-01
  1.50000000E+00  8.00000000E-01  8.00000000E-01  1.50000000E+00  8.00000000E-01
  8.00000000E-01  1.50000000E+00  8.00000000E-01  8.00000000E-01  1.50000000E+00
  8.00000000E-01  8.00000000E-01  1.50000000E+00  8.00000000E-01  8.00000000E-01
  1.50000000E+00  8.00000000E-01  8.00000000E-01  1.50000000E+00  8.00000000E-01
  8.00000000E-01  1.50000000E+00  8.00000000E-01  8.00000000E-01  1.50000000E+00
  8.00000000E-01  8.00000000E-01  1.50000000E+00  8.00000000E-01  8.00000000E-01
  1.50000000E+00  8.00000000E-01  8.00000000E-01  1.50000000E+00  8.00000000E-01
  8.00000000E-01  1.50000000E+00  8.00000000E-01  8.00000000E-01  1.50000000E+00
  8.00000000E-01  8.00000000E-01  1.50000000E+00  8.00000000E-01  8.00000000E-01
  1.50000000E+00  8.00000000E-01  8.00000000E-01  1.50000000E+00  8.00000000E-01
  8.00000000E-01  1.50000000E+00  8.00000000E-01  8.00000000E-01  1.50000000E+00
  8.00000000E-01  8.00000000E-01  1.50000000E+00  8.00000000E-01  8.00000000E-01
  1.50000000E+00  8.00000000E-01  8.00000000E-01  1.50000000E+00  8.00000000E-01
  8.00000000E-01  1.50000000E+00  8.00000000E-01  8.00000000E-01  1.50000000E+00
  8.00000000E-01  8.00000000E-01  1.50000000E+00  8.00000000E-01  8.00000000E-01
  1.50000000E+00  8.00000000E-01  8.00000000E-01  1.50000000E+00  8.00000000E-01
  8.00000000E-01  1.50000000E+00  8.00000000E-01  8.00000000E-01  1.50000000E+00
  8.00000000E-01  8.00000000E-01  1.50000000E+00  8.00000000E-01  8.00000000E-01
  1.50000000E+00  8.00000000E-01  8.00000000E-01  1.50000000E+00  8.00000000E-01
  8.00000000E-01  1.50000000E+00  8.00000000E-01  8.00000000E-01  1.50000000E+00
  8.00000000E-01  8.00000000E-01  1.50000000E+00  8.00000000E-01  8.00000000E-01
  1.50000000E+00  8.00000000E-01  8.00000000E-01  1.50000000E+00  8.00000000E-01
  8.00000000E-01  1.50000000E+00  8.00000000E-01  8.00000000E-01  1.50000000E+00
  8.00000000E-01  8.00000000E-01  1.50000000E+00  8.00000000E-01  8.00000000E-01
  1.50000000E+00  8.00000000E-01  8.00000000E-01  1.50000000E+00  8.00000000E-01
  8.00000000E-01  1.50000000E+00  8.00000000E-01  8.00000000E-01  1.50000000E+00
  8.00000000E-01  8.00000000E-01  1.50000000E+00  8.00000000E-01  8.00000000E-01
  1.50000000E+00  8.00000000E-01  8.00000000E-01  1.50000000E+00  8.00000000E-01
  8.00000000E-01  1.50000000E+00  8.00000000E-01  8.00000000E-01  1.50000000E+00
  8.00000000E-01  8.00000000E-01  1.50000000E+00  8.00000000E-01  8.00000000E-01
  1.50000000E+00  8.00000000E-01  8.00000000E-01  1.50000000E+00  8.00000000E-01
  8.00000000E-01  1.50000000E+00  8.00000000E-01  8.00000000E-01  1.50000000E+00
  8.00000000E-01  8.00000000E-01  1.50000000E+00  8.00000000E-01  8.00000000E-01
  1.50000000E+00  8.00000000E-01  8.00000000E-01  1.50000000E+00  8.00000000E-01
  8.00000000E-01  1.50000000E+00  8.00000000E-01  8.00000000E-01  1.50000000E+00
  8.00000000E-01  8.00000000E-01  1.50000000E+00  8.00000000E-01  8.00000000E-01
  1.50000000E+00  8.00000000E-01  8.00000000E-01  1.50000000E+00  8.00000000E-01
  8.00000000E-01  1.50000000E+00  8.00000000E-01  8.00000000E-01  1.50000000E+00
  8.00000000E-01  8.00000000E-01  1.50000000E+00  8.00000000E-01  8.00000000E-01
  1.50000000E+00  8.00000000E-01  8.00000000E-01  1.50000000E+00  8.00000000E-01
  8.00000000E-01  1.50000000E+00  8.00000000E-01  8.00000000E-01  1.50000000E+00
  8.00000000E-01  8.00000000E-01  1.50000000E+00  8.00000000E-01  8.00000000E-01
  1.50000000E+00  8.00000000E-01  8.00000000E-01  1.50000000E+00  8.00000000E-01
  8.00000000E-01  1.50000000E+00  8.00000000E-01  8.00000000E-01  1.50000000E+00
  8.00000000E-01  8.00000000E-01  1.50000000E+00  8.00000000E-01  8.00000000E-01
  1.50000000E+00  8.00000000E-01  8.00000000E-01  1.50000000E+00  8.00000000E-01
  8.00000000E-01  1.50000000E+00  8.00000000E-01  8.00000000E-01  1.50000000E+00
  8.00000000E-01  8.00000000E-01  1.50000000E+00  8.00000000E-01  8.00000000E-01
  1.50000000E+00  8.00000000E-01  8.00000000E-01  1.50000000E+00  8.00000000E-01
  8.00000000E-01  1.50000000E+00  8.00000000E-01  8.00000000E-01  1.50000000E+00
  8.00000000E-01  8.00000000E-01  1.50000000E+00  8.00000000E-01  8.00000000E-01
  1.50000000E+00  8.00000000E-01  8.00000000E-01  1.50000000E+00  8.00000000E-01
  8.00000000E-01  1.50000000E+00  8.00000000E-01  8.00000000E-01  1.50000000E+00
  8.00000000E-01  8.00000000E-01  1.50000000E+00  8.00000000E-01  8.00000000E-01
  1.50000000E+00  8.00000000E-01  8.00000000E-01  1.50000000E+00  8.00000000E-01
  8.00000000E-01  1.50000000E+00  8.00000000E-01  8.00000000E-01  1.50000000E+00
  8.00000000E-01  8.00000000E-01  1.50000000E+00  8.00000000E-01  8.00000000E-01
  1.50000000E+00  8.00000000E-01  8.00000000E-01  1.50000000E+00  8.00000000E-01
  8.00000000E-01  1.50000000E+00  8.00000000E-01  8.00000000E-01  1.50000000E+00
  8.00000000E-01  8.00000000E-01  1.50000000E+00  8.00000000E-01  8.00000000E-01
  1.50000000E+00  8.00000000E-01  8.00000000E-01  1.50000000E+00  8.00000000E-01
  8.00000000E-01  1.50000000E+00  8.00000000E-01  8.00000000E-01  1.50000000E+00
  8.00000000E-01  8.00000000E-01  1.50000000E+00  8.00000000E-01  8.00000000E-01
  1.50000000E+00  8.00000000E-01  8.00000000E-01  1.50000000E+00  8.00000000E-01
  8.00000000E-01  1.50000000E+00  8.00000000E-01  8.00000000E-01  1.50000000E+00
  8.00000000E-01  8.00000000E-01  1.50000000E+00  8.00000000E-01  8.00000000E-01
  1.50000000E+00  8.00000000E-01  8.00000000E-01  1.50000000E+00  8.00000000E-01
  8.00000000E-01  1.50000000E+00  8.00000000E-01  8.00000000E-01  1.50000000E+00
  8.00000000E-01  8.00000000E-01  1.50000000E+00  8.00000000E-01  8.00000000E-01
  1.50000000E+00  8.00000000E-01  8.00000000E-01  1.50000000E+00  8.00000000E-01
  8.00000000E-01  1.50000000E+00  8.00000000E-01  8.00000000E-01  1.50000000E+00
  8.00000000E-01  8.00000000E-01  1.50000000E+00  8.00000000E-01  8.00000000E-01
  1.50000000E+00  8.00000000E-01  8.00000000E-01  1.50000000E+00  8.00000000E-01
  8.00000000E-01  1.50000000E+00  8.00000000E-01  8.00000000E-01  1.50000000E+00
  8.00000000E-01  8.00000000E-01  1.50000000E+00  8.00000000E-01  8.00000000E-01
  1.50000000E+00  8.00000000E-01  8.00000000E-01  1.50000000E+00  8.00000000E-01
  8.00000000E-01  1.50000000E+00  8.00000000E-01  8.00000000E-01  1.50000000E+00
  8.00000000E-01  8.00000000E-01  1.50000000E+00  8.00000000E-01  8.00000000E-01
  1.50000000E+00  8.00000000E-01  8.00000000E-01  1.50000000E+00  8.00000000E-01
  8.00000000E-01  1.50000000E+00  8.00000000E-01  8.00000000E-01  1.50000000E+00
  8.00000000E-01  8.00000000E-01  1.50000000E+00  8.00000000E-01  8.00000000E-01
  1.50000000E+00  8.00000000E-01  8.00000000E-01  1.50000000E+00  8.00000000E-01
  8.00000000E-01  1.50000000E+00  8.00000000E-01  8.00000000E-01  1.50000000E+00
  8.00000000E-01  8.00000000E-01  1.50000000E+00  8.00000000E-01  8.00000000E-01
  1.50000000E+00  8.00000000E-01  8.00000000E-01  1.50000000E+00  8.00000000E-01
  8.00000000E-01  1.50000000E+00  8.00000000E-01  8.00000000E-01  1.50000000E+00
  8.00000000E-01  8.00000000E-01  1.50000000E+00  8.00000000E-01  8.00000000E-01
  1.50000000E+00  8.00000000E-01  8.00000000E-01  1.50000000E+00  8.00000000E-01
  8.00000000E-01  1.50000000E+00  8.00000000E-01  8.00000000E-01  1.50000000E+00
  8.00000000E-01  8.00000000E-01  1.50000000E+00  8.00000000E-01  8.00000000E-01
  1.50000000E+00  8.00000000E-01  8.00000000E-01  1.50000000E+00  8.00000000E-01
  8.00000000E-01  1.50000000E+00  8.00000000E-01  8.00000000E-01  1.50000000E+00
  8.00000000E-01  8.00000000E-01  1.50000000E+00  8.00000000E-01  8.00000000E-01
  1.50000000E+00  8.00000000E-01  8.00000000E-01  1.50000000E+00  8.00000000E-01
  8.00000000E-01  1.50000000E+00  8.00000000E-01  8.00000000E-01  1.50000000E+00
  8.00000000E-01  8.00000000E-01  1.50000000E+00  8.00000000E-01  8.00000000E-01
  1.50000000E+00  8.00000000E-01  8.00000000E-01  1.50000000E+00  8.00000000E-01
  8.00000000E-01  1.50000000E+00  8.00000000E-01  8.00000000E-01  1.50000000E+00
  8.00000000E-01  8.00000000E-01  1.50000000E+00  8.00000000E-01  8.00000000E-01
  1.50000000E+00  8.00000000E-01  8.00000000E-01  1.50000000E+00  8.00000000E-01
  8.00000000E-01  1.50000000E+00  8.00000000E-01  8.00000000E-01  1.50000000E+00
  8.00000000E-01  8.00000000E-01  1.50000000E+00  8.00000000E-01  8.00000000E-01
  1.50000000E+00  8.00000000E-01  8.00000000E-01  1.50000000E+00  8.00000000E-01
  8.00000000E-01  1.50000000E+00  8.00000000E-01  8.00000000E-01  1.50000000E+00
  8.00000000E-01  8.00000000E-01  1.50000000E+00  8.00000000E-01  8.00000000E-01
  1.50000000E+00  8.00000000E-01  8.00000000E-01  1.50000000E+00  8.00000000E-01
  8.00000000E-01  1.50000000E+00  8.00000000E-01  8.00000000E-01  1.50000000E+00
  8.00000000E-01  8.00000000E-01  1.50000000E+00  8.00000000E-01  8.00000000E-01
  1.50000000E+00  8.00000000E-01  8.00000000E-01  1.50000000E+00  8.00000000E-01
  8.00000000E-01  1.50000000E+00  8.00000000E-01  8.00000000E-01  1.50000000E+00
  8.00000000E-01  8.00000000E-01  1.50000000E+00  8.00000000E-01  8.00000000E-01
  1.50000000E+00  8.00000000E-01  8.00000000E-01  1.50000000E+00  8.00000000E-01
  8.00000000E-01  1.50000000E+00  8.00000000E-01  8.00000000E-01  1.50000000E+00
  8.00000000E-01  8.00000000E-01  1.50000000E+00  8.00000000E-01  8.00000000E-01
  1.50000000E+00  8.00000000E-01  8.00000000E-01  1.50000000E+00  8.00000000E-01
  8.00000000E-01  1.50000000E+00  8.00000000E-01  8.00000000E-01  1.50000000E+00
  8.00000000E-01  8.00000000E-01  1.50000000E+00  8.00000000E-01  8.00000000E-01
  1.50000000E+00  8.00000000E-01  8.00000000E-01  1.50000000E+00  8.00000000E-01
  8.00000000E-01  1.50000000E+00  8.00000000E-01  8.00000000E-01  1.50000000E+00
  8.00000000E-01  8.00000000E-01  1.50000000E+00  8.00000000E-01  8.00000000E-01
  1.50000000E+00  8.00000000E-01  8.00000000E-01  1.50000000E+00  8.00000000E-01
  8.00000000E-01  1.50000000E+00  8.00000000E-01  8.00000000E-01  1.50000000E+00
  8.00000000E-01  8.00000000E-01  1.50000000E+00  8.00000000E-01  8.00000000E-01
  1.50000000E+00  8.00000000E-01  8.00000000E-01  1.50000000E+00  8.00000000E-01
  8.00000000E-01  1.50000000E+00  8.00000000E-01  8.00000000E-01  1.50000000E+00
  8.00000000E-01  8.00000000E-01  1.50000000E+00  8.00000000E-01  8.00000000E-01
  1.50000000E+00  8.00000000E-01  8.00000000E-01  1.50000000E+00  8.00000000E-01
  8.00000000E-01  1.50000000E+00  8.00000000E-01  8.00000000E-01  1.50000000E+00
  8.00000000E-01  8.00000000E-01  1.50000000E+00  8.00000000E-01  8.00000000E-01
  1.50000000E+00  8.00000000E-01  8.00000000E-01  1.50000000E+00  8.00000000E-01
  8.00000000E-01  1.50000000E+00  8.00000000E-01  8.00000000E-01  1.50000000E+00
  8.00000000E-01  8.00000000E-01  1.50000000E+00  8.00000000E-01  8.00000000E-01
  1.50000000E+00  8.00000000E-01  8.00000000E-01  1.50000000E+00  8.00000000E-01
  8.00000000E-01  1.50000000E+00  8.00000000E-01  8.00000000E-01  1.50000000E+00
  8.00000000E-01  8.00000000E-01  1.50000000E+00  8.00000000E-01  8.00000000E-01
  1.50000000E+00  8.00000000E-01  8.00000000E-01  1.50000000E+00  8.00000000E-01
  8.00000000E-01  1.50000000E+00  8.00000000E-01  8.00000000E-01  1.50000000E+00
  8.00000000E-01  8.00000000E-01  1.50000000E+00  8.00000000E-01  8.00000000E-01
  1.50000000E+00  8.00000000E-01  8.00000000E-01  1.50000000E+00  8.00000000E-01
  8.00000000E-01  1.50000000E+00  8.00000000E-01  8.00000000E-01  1.50000000E+00
  8.00000000E-01  8.00000000E-01  1.50000000E+00  8.00000000E-01  8.00000000E-01
  1.50000000E+00  8.00000000E-01  8.00000000E-01  1.50000000E+00  8.00000000E-01
  8.00000000E-01  1.50000000E+00  8.00000000E-01  8.00000000E-01  1.50000000E+00
  8.00000000E-01  8.00000000E-01  1.50000000E+00  8.00000000E-01  8.00000000E-01
  1.50000000E+00  8.00000000E-01  8.00000000E-01  1.50000000E+00  8.00000000E-01
  8.00000000E-01  1.50000000E+00  8.00000000E-01  8.00000000E-01  1.50000000E+00
  8.00000000E-01  8.00000000E-01  1.50000000E+00  8.00000000E-01  8.00000000E-01
  1.50000000E+00  8.00000000E-01  8.00000000E-01  1.50000000E+00  8.00000000E-01
  8.00000000E-01  1.50000000E+00  8.00000000E-01  8.00000000E-01  1.50000000E+00
  8.00000000E-01  8.00000000E-01  1.50000000E+00  8.00000000E-01  8.00000000E-01
  1.50000000E+00  8.00000000E-01  8.00000000E-01  1.50000000E+00  8.00000000E-01
  8.00000000E-01  1.50000000E+00  8.00000000E-01  8.00000000E-01  1.50000000E+00
  8.00000000E-01  8.00000000E-01  1.50000000E+00  8.00000000E-01  8.00000000E-01
  1.50000000E+00  8.00000000E-01  8.00000000E-01  1.50000000E+00  8.00000000E-01
  8.00000000E-01  1.50000000E+00  8.00000000E-01  8.00000000E-01  1.50000000E+00
  8.00000000E-01  8.00000000E-01  1.50000000E+00  8.00000000E-01  8.00000000E-01
  1.50000000E+00  8.00000000E-01  8.00000000E-01  1.50000000E+00  8.00000000E-01
  8.00000000E-01  1.50000000E+00  8.00000000E-01  8.00000000E-01  1.50000000E+00
  8.00000000E-01  8.00000000E-01  1.50000000E+00  8.00000000E-01  8.00000000E-01
  1.50000000E+00  8.00000000E-01  8.00000000E-01  1.50000000E+00  8.00000000E-01
  8.00000000E-01  1.50000000E+00  8.00000000E-01  8.00000000E-01  1.50000000E+00
  8.00000000E-01  8.00000000E-01  1.50000000E+00  8.00000000E-01  8.00000000E-01
  1.50000000E+00  8.00000000E-01  8.00000000E-01  1.50000000E+00  8.00000000E-01
  8.00000000E-01  1.50000000E+00  8.00000000E-01  8.00000000E-01  1.50000000E+00
  8.00000000E-01  8.00000000E-01  1.50000000E+00  8.00000000E-01  8.00000000E-01
  1.50000000E+00  8.00000000E-01  8.00000000E-01  1.50000000E+00  8.00000000E-01
  8.00000000E-01  1.50000000E+00  8.00000000E-01  8.00000000E-01  1.50000000E+00
  8.00000000E-01  8.00000000E-01  1.50000000E+00  8.00000000E-01  8.00000000E-01
  1.50000000E+00  8.00000000E-01  8.00000000E-01  1.50000000E+00  8.00000000E-01
  8.00000000E-01  1.50000000E+00  8.00000000E-01  8.00000000E-01  1.50000000E+00
  8.00000000E-01  8.00000000E-01  1.50000000E+00  8.00000000E-01  8.00000000E-01
  1.50000000E+00  8.00000000E-01  8.00000000E-01  1.50000000E+00  8.00000000E-01
  8.00000000E-01  1.50000000E+00  8.00000000E-01  8.00000000E-01  1.50000000E+00
  8.00000000E-01  8.00000000E-01  1.50000000E+00  8.00000000E-01  8.00000000E-01
  1.50000000E+00  8.00000000E-01  8.00000000E-01  1.50000000E+00  8.00000000E-01
  8.00000000E-01  1.50000000E+00  8.00000000E-01  8.00000000E-01  1.50000000E+00
  8.00000000E-01  8.00000000E-01  1.50000000E+00  8.00000000E-01  8.00000000E-01
  1.50000000E+00  8.00000000E-01  8.00000000E-01  1.50000000E+00  8.00000000E-01
  8.00000000E-01  1.50000000E+00  8.00000000E-01  8.00000000E-01  1.50000000E+00
  8.00000000E-01  8.00000000E-01  1.50000000E+00  8.00000000E-01  8.00000000E-01
  1.50000000E+00  8.00000000E-01  8.00000000E-01  1.50000000E+00  8.00000000E-01
  8.00000000E-01  1.50000000E+00  8.00000000E-01  8.00000000E-01  1.50000000E+00
  8.00000000E-01  8.00000000E-01  1.50000000E+00  8.00000000E-01  8.00000000E-01
  1.50000000E+00  8.00000000E-01  8.00000000E-01  1.50000000E+00  8.00000000E-01
  8.00000000E-01  1.50000000E+00  8.00000000E-01  8.00000000E-01  1.50000000E+00
  8.00000000E-01  8.00000000E-01  1.50000000E+00  8.00000000E-01  8.00000000E-01
  1.50000000E+00  8.00000000E-01  8.00000000E-01  1.50000000E+00  8.00000000E-01
  8.00000000E-01  1.50000000E+00  8.00000000E-01  8.00000000E-01  1.50000000E+00
  8.00000000E-01  8.00000000E-01  1.50000000E+00  8.00000000E-01  8.00000000E-01
  1.50000000E+00  8.00000000E-01  8.00000000E-01  1.50000000E+00  8.00000000E-01
  8.00000000E-01  1.50000000E+00  8.00000000E-01  8.00000000E-01  1.50000000E+00
  8.00000000E-01  8.00000000E-01  1.50000000E+00  8.00000000E-01  8.00000000E-01
  1.50000000E+00  8.00000000E-01  8.00000000E-01  1.50000000E+00  8.00000000E-01
  8.00000000E-01  1.50000000E+00  8.00000000E-01  8.00000000E-01  1.50000000E+00
  8.00000000E-01  8.00000000E-01  1.50000000E+00  8.00000000E-01  8.00000000E-01
  1.50000000E+00  8.00000000E-01  8.00000000E-01  1.50000000E+00  8.00000000E-01
  8.00000000E-01  1.50000000E+00  8.00000000E-01  8.00000000E-01  1.50000000E+00
  8.00000000E-01  8.00000000E-01  1.50000000E+00  8.00000000E-01  8.00000000E-01
  1.50000000E+00  8.00000000E-01  8.00000000E-01  1.50000000E+00  8.00000000E-01
  8.00000000E-01  1.50000000E+00  8.00000000E-01  8.00000000E-01  1.50000000E+00
  8.00000000E-01  8.00000000E-01  1.50000000E+00  8.00000000E-01  8.00000000E-01
  1.50000000E+00  8.00000000E-01  8.00000000E-01  1.50000000E+00  8.00000000E-01
  8.00000000E-01  1.50000000E+00  8.00000000E-01  8.00000000E-01  1.50000000E+00
  8.00000000E-01  8.00000000E-01  1.50000000E+00  8.00000000E-01  8.00000000E-01
  1.50000000E+00  8.00000000E-01  8.00000000E-01  1.50000000E+00  8.00000000E-01
  8.00000000E-01  1.50000000E+00  8.00000000E-01  8.00000000E-01  1.50000000E+00
  8.00000000E-01  8.00000000E-01  1.50000000E+00  8.00000000E-01  8.00000000E-01
  1.50000000E+00  8.00000000E-01  8.00000000E-01  1.50000000E+00  8.00000000E-01
  8.00000000E-01  1.50000000E+00  8.00000000E-01  8.00000000E-01  1.50000000E+00
  8.00000000E-01  8.00000000E-01  1.50000000E+00  8.00000000E-01  8.00000000E-01
  1.50000000E+00  8.00000000E-01  8.00000000E-01  1.50000000E+00  8.00000000E-01
  8.00000000E-01  1.50000000E+00  8.00000000E-01  8.00000000E-01  1.50000000E+00
  8.00000000E-01  8.00000000E-01  1.50000000E+00  8.00000000E-01  8.00000000E-01
  1.50000000E+00  8.00000000E-01  8.00000000E-01  1.50000000E+00  8.00000000E-01
  8.00000000E-01  1.50000000E+00  8.00000000E-01  8.00000000E-01  1.50000000E+00
  8.00000000E-01  8.00000000E-01  1.50000000E+00  8.00000000E-01  8.00000000E-01
  1.50000000E+00  8.00000000E-01  8.00000000E-01  1.50000000E+00  8.00000000E-01
  8.00000000E-01  1.50000000E+00  8.00000000E-01  8.00000000E-01  1.50000000E+00
  8.00000000E-01  8.00000000E-01  1.50000000E+00  8.00000000E-01  8.00000000E-01
  1.50000000E+00  8.00000000E-01  8.00000000E-01  1.50000000E+00  8.00000000E-01
  8.00000000E-01  1.50000000E+00  8.00000000E-01  8.00000000E-01  1.50000000E+00
  8.00000000E-01  8.00000000E-01  1.50000000E+00  8.00000000E-01  8.00000000E-01
  1.50000000E+00  8.00000000E-01  8.00000000E-01  1.50000000E+00  8.00000000E-01
  8.00000000E-01  1.50000000E+00  8.00000000E-01  8.00000000E-01  1.50000000E+00
  8.00000000E-01  8.00000000E-01  1.50000000E+00  8.00000000E-01  8.00000000E-01
  1.50000000E+00  8.00000000E-01  8.00000000E-01  1.50000000E+00  8.00000000E-01
  8.00000000E-01  1.50000000E+00  8.00000000E-01  8.00000000E-01  1.50000000E+00
  8.00000000E-01  8.00000000E-01  1.50000000E+00  8.00000000E-01  8.00000000E-01
  1.50000000E+00  8.00000000E-01  8.00000000E-01  1.50000000E+00  8.00000000E-01
  8.00000000E-01  1.50000000E+00  8.00000000E-01  8.00000000E-01  1.50000000E+00
  8.00000000E-01  8.00000000E-01  1.50000000E+00  8.00000000E-01  8.00000000E-01
  1.50000000E+00  8.00000000E-01  8.00000000E-01  1.50000000E+00  8.00000000E-01
  8.00000000E-01  1.50000000E+00  8.00000000E-01  8.00000000E-01  1.50000000E+00
  8.00000000E-01  8.00000000E-01  1.50000000E+00  8.00000000E-01  8.00000000E-01
  1.50000000E+00  8.00000000E-01  8.00000000E-01  1.50000000E+00  8.00000000E-01
  8.00000000E-01  1.50000000E+00  8.00000000E-01  8.00000000E-01  1.50000000E+00
  8.00000000E-01  8.00000000E-01  1.50000000E+00  8.00000000E-01  8.00000000E-01
  1.50000000E+00  8.00000000E-01  8.00000000E-01  1.50000000E+00  8.00000000E-01
  8.00000000E-01  1.50000000E+00  8.00000000E-01  8.00000000E-01  1.50000000E+00
  8.00000000E-01  8.00000000E-01  1.50000000E+00  8.00000000E-01  8.00000000E-01
  1.50000000E+00  8.00000000E-01  8.00000000E-01  1.50000000E+00  8.00000000E-01
  8.00000000E-01  1.50000000E+00  8.00000000E-01  8.00000000E-01  1.50000000E+00
  8.00000000E-01  8.00000000E-01  1.50000000E+00  8.00000000E-01  8.00000000E-01
  1.50000000E+00  8.00000000E-01  8.00000000E-01  1.50000000E+00  8.00000000E-01
  8.00000000E-01  1.50000000E+00  8.00000000E-01  8.00000000E-01  1.50000000E+00
  8.00000000E-01  8.00000000E-01  1.50000000E+00  8.00000000E-01  8.00000000E-01
  1.50000000E+00  8.00000000E-01  8.00000000E-01  1.50000000E+00  8.00000000E-01
  8.00000000E-01  1.50000000E+00  8.00000000E-01  8.00000000E-01  1.50000000E+00
  8.00000000E-01  8.00000000E-01  1.50000000E+00  8.00000000E-01  8.00000000E-01
  1.50000000E+00  8.00000000E-01  8.00000000E-01  1.50000000E+00  8.00000000E-01
  8.00000000E-01  1.50000000E+00  8.00000000E-01  8.00000000E-01  1.50000000E+00
  8.00000000E-01  8.00000000E-01  1.50000000E+00  8.00000000E-01  8.00000000E-01
  1.50000000E+00  8.00000000E-01  8.00000000E-01  1.50000000E+00  8.00000000E-01
  8.00000000E-01  1.50000000E+00  8.00000000E-01  8.00000000E-01  1.50000000E+00
  8.00000000E-01  8.00000000E-01  1.50000000E+00  8.00000000E-01  8.00000000E-01
  1.50000000E+00  8.00000000E-01  8.00000000E-01  1.50000000E+00  8.00000000E-01
  8.00000000E-01  1.50000000E+00  8.00000000E-01  8.00000000E-01  1.50000000E+00
  8.00000000E-01  8.00000000E-01  1.50000000E+00  8.00000000E-01  8.00000000E-01
  1.50000000E+00  8.00000000E-01  8.00000000E-01  1.50000000E+00  8.00000000E-01
  8.00000000E-01  1.50000000E+00  8.00000000E-01  8.00000000E-01  1.50000000E+00
  8.00000000E-01  8.00000000E-01  1.50000000E+00  8.00000000E-01  8.00000000E-01
  1.50000000E+00  8.00000000E-01  8.00000000E-01  1.50000000E+00  8.00000000E-01
  8.00000000E-01  1.50000000E+00  8.00000000E-01  8.00000000E-01  1.50000000E+00
  8.00000000E-01  8.00000000E-01  1.50000000E+00  8.00000000E-01  8.00000000E-01
  1.50000000E+00  8.00000000E-01  8.00000000E-01  1.50000000E+00  8.00000000E-01
  8.00000000E-01  1.50000000E+00  8.00000000E-01  8.00000000E-01  1.50000000E+00
  8.00000000E-01  8.00000000E-01  1.50000000E+00  8.00000000E-01  8.00000000E-01
  1.50000000E+00  8.00000000E-01  8.00000000E-01  1.50000000E+00  8.00000000E-01
  8.00000000E-01  1.50000000E+00  8.00000000E-01  8.00000000E-01  1.50000000E+00
  8.00000000E-01  8.00000000E-01  1.50000000E+00  8.00000000E-01  8.00000000E-01
  1.50000000E+00  8.00000000E-01  8.00000000E-01  1.50000000E+00  8.00000000E-01
  8.00000000E-01  1.50000000E+00  8.00000000E-01  8.00000000E-01  1.50000000E+00
  8.00000000E-01  8.00000000E-01  1.50000000E+00  8.00000000E-01  8.00000000E-01
  1.50000000E+00  8.00000000E-01  8.00000000E-01  1.50000000E+00  8.00000000E-01
  8.00000000E-01  1.50000000E+00  8.00000000E-01  8.00000000E-01  1.50000000E+00
  8.00000000E-01  8.00000000E-01  1.50000000E+00  8.00000000E-01  8.00000000E-01
  1.50000000E+00  8.00000000E-01  8.00000000E-01  1.50000000E+00  8.00000000E-01
  8.00000000E-01  1.50000000E+00  8.00000000E-01  8.00000000E-01  1.50000000E+00
  8.00000000E-01  8.00000000E-01  1.50000000E+00  8.00000000E-01  8.00000000E-01
  1.50000000E+00  8.00000000E-01  8.00000000E-01  1.50000000E+00  8.00000000E-01
  8.00000000E-01  1.50000000E+00  8.00000000E-01  8.00000000E-01  1.50000000E+00
  8.00000000E-01  8.00000000E-01  1.50000000E+00  8.00000000E-01  8.00000000E-01
  1.50000000E+00  8.00000000E-01  8.00000000E-01  1.50000000E+00  8.00000000E-01
  8.00000000E-01  1.50000000E+00  8.00000000E-01  8.00000000E-01  1.50000000E+00
  8.00000000E-01  8.00000000E-01  1.50000000E+00  8.00000000E-01  8.00000000E-01
  1.50000000E+00  8.00000000E-01  8.00000000E-01  1.50000000E+00  8.00000000E-01
  8.00000000E-01  1.50000000E+00  8.00000000E-01  8.00000000E-01  1.50000000E+00
  8.00000000E-01  8.00000000E-01  1.50000000E+00  8.00000000E-01  8.00000000E-01
  1.50000000E+00  8.00000000E-01  8.00000000E-01  1.50000000E+00  8.00000000E-01
  8.00000000E-01  1.50000000E+00  8.00000000E-01  8.00000000E-01  1.50000000E+00
  8.00000000E-01  8.00000000E-01  1.50000000E+00  8.00000000E-01  8.00000000E-01
  1.50000000E+00  8.00000000E-01  8.00000000E-01  1.50000000E+00  8.00000000E-01
  8.00000000E-01  1.50000000E+00  8.00000000E-01  8.00000000E-01  1.50000000E+00
  8.00000000E-01  8.00000000E-01  1.50000000E+00  8.00000000E-01  8.00000000E-01
  1.50000000E+00  8.00000000E-01  8.00000000E-01  1.50000000E+00  8.00000000E-01
  8.00000000E-01  1.50000000E+00  8.00000000E-01  8.00000000E-01  1.50000000E+00
  8.00000000E-01  8.00000000E-01  1.50000000E+00  8.00000000E-01  8.00000000E-01
  1.50000000E+00  8.00000000E-01  8.00000000E-01  1.50000000E+00  8.00000000E-01
  8.00000000E-01  1.50000000E+00  8.00000000E-01  8.00000000E-01  1.50000000E+00
  8.00000000E-01  8.00000000E-01  1.50000000E+00  8.00000000E-01  8.00000000E-01
  1.50000000E+00  8.00000000E-01  8.00000000E-01  1.50000000E+00  8.00000000E-01
  8.00000000E-01  1.50000000E+00  8.00000000E-01  8.00000000E-01  1.50000000E+00
  8.00000000E-01  8.00000000E-01  1.50000000E+00  8.00000000E-01  8.00000000E-01
  1.50000000E+00  8.00000000E-01  8.00000000E-01  1.50000000E+00  8.00000000E-01
  8.00000000E-01  1.50000000E+00  8.00000000E-01  8.00000000E-01  1.50000000E+00
  8.00000000E-01  8.00000000E-01  1.50000000E+00  8.00000000E-01  8.00000000E-01
  1.50000000E+00  8.00000000E-01  8.00000000E-01  1.50000000E+00  8.00000000E-01
  8.00000000E-01  1.50000000E+00  8.00000000E-01  8.00000000E-01  1.50000000E+00
  8.00000000E-01  8.00000000E-01  1.50000000E+00  8.00000000E-01  8.00000000E-01
  1.50000000E+00  8.00000000E-01  8.00000000E-01  1.50000000E+00  8.00000000E-01
  8.00000000E-01  1.50000000E+00  8.00000000E-01  8.00000000E-01  1.50000000E+00
  8.00000000E-01  8.00000000E-01  1.50000000E+00  8.00000000E-01  8.00000000E-01
  1.50000000E+00  8.00000000E-01  8.00000000E-01  1.50000000E+00  8.00000000E-01
  8.00000000E-01  1.50000000E+00  8.00000000E-01  8.00000000E-01  1.50000000E+00
  8.00000000E-01  8.00000000E-01  1.50000000E+00  8.00000000E-01  8.00000000E-01
  1.50000000E+00  8.00000000E-01  8.00000000E-01  1.50000000E+00  8.00000000E-01
  8.00000000E-01  1.50000000E+00  8.00000000E-01  8.00000000E-01  1.50000000E+00
  8.00000000E-01  8.00000000E-01  1.50000000E+00  8.00000000E-01  8.00000000E-01
  1.50000000E+00  8.00000000E-01  8.00000000E-01  1.50000000E+00  8.00000000E-01
  8.00000000E-01  1.50000000E+00  8.00000000E-01  8.00000000E-01  1.50000000E+00
  8.00000000E-01  8.00000000E-01  1.50000000E+00  8.00000000E-01  8.00000000E-01
  1.50000000E+00  8.00000000E-01  8.00000000E-01  1.50000000E+00  8.00000000E-01
  8.00000000E-01  1.50000000E+00  8.00000000E-01  8.00000000E-01  1.50000000E+00
  8.00000000E-01  8.00000000E-01  1.50000000E+00  8.00000000E-01  8.00000000E-01
  1.50000000E+00  8.00000000E-01  8.00000000E-01  1.50000000E+00  8.00000000E-01
  8.00000000E-01  1.50000000E+00  8.00000000E-01  8.00000000E-01  1.50000000E+00
  8.00000000E-01  8.00000000E-01  1.50000000E+00  8.00000000E-01  8.00000000E-01
  1.50000000E+00  8.00000000E-01  8.00000000E-01  1.50000000E+00  8.00000000E-01
  8.00000000E-01  1.50000000E+00  8.00000000E-01  8.00000000E-01  1.50000000E+00
  8.00000000E-01  8.00000000E-01  1.50000000E+00  8.00000000E-01  8.00000000E-01
  1.50000000E+00  8.00000000E-01  8.00000000E-01  1.50000000E+00  8.00000000E-01
  8.00000000E-01  1.50000000E+00  8.00000000E-01  8.00000000E-01  1.50000000E+00
  8.00000000E-01  8.00000000E-01  1.50000000E+00  8.00000000E-01  8.00000000E-01
  1.50000000E+00  8.00000000E-01  8.00000000E-01  1.50000000E+00  8.00000000E-01
  8.00000000E-01  1.50000000E+00  8.00000000E-01  8.00000000E-01  1.50000000E+00
  8.00000000E-01  8.00000000E-01  1.50000000E+00  8.00000000E-01  8.00000000E-01
  1.50000000E+00  8.00000000E-01  8.00000000E-01  1.50000000E+00  8.00000000E-01
  8.00000000E-01  1.50000000E+00  8.00000000E-01  8.00000000E-01  1.50000000E+00
  8.00000000E-01  8.00000000E-01  1.50000000E+00  8.00000000E-01  8.00000000E-01
  1.50000000E+00  8.00000000E-01  8.00000000E-01  1.50000000E+00  8.00000000E-01
  8.00000000E-01  1.50000000E+00  8.00000000E-01  8.00000000E-01  1.50000000E+00
  8.00000000E-01  8.00000000E-01  1.50000000E+00  8.00000000E-01  8.00000000E-01
  1.50000000E+00  8.00000000E-01  8.00000000E-01  1.50000000E+00  8.00000000E-01
  8.00000000E-01  1.50000000E+00  8.00000000E-01  8.00000000E-01  1.50000000E+00
  8.00000000E-01  8.00000000E-01  1.50000000E+00  8.00000000E-01  8.00000000E-01
  1.50000000E+00  8.00000000E-01  8.00000000E-01  1.50000000E+00  8.00000000E-01
  8.00000000E-01  1.50000000E+00  8.00000000E-01  8.00000000E-01  1.50000000E+00
  8.00000000E-01  8.00000000E-01  1.50000000E+00  8.00000000E-01  8.00000000E-01
  1.50000000E+00  8.00000000E-01  8.00000000E-01  1.50000000E+00  8.00000000E-01
  8.00000000E-01  1.50000000E+00  8.00000000E-01  8.00000000E-01  1.50000000E+00
  8.00000000E-01  8.00000000E-01  1.50000000E+00  8.00000000E-01  8.00000000E-01
  1.50000000E+00  8.00000000E-01  8.00000000E-01  1.50000000E+00  8.00000000E-01
  8.00000000E-01  1.50000000E+00  8.00000000E-01  8.00000000E-01  1.50000000E+00
  8.00000000E-01  8.00000000E-01  1.50000000E+00  8.00000000E-01  8.00000000E-01
  1.50000000E+00  8.00000000E-01  8.00000000E-01  1.50000000E+00  8.00000000E-01
  8.00000000E-01  1.50000000E+00  8.00000000E-01  8.00000000E-01  1.50000000E+00
  8.00000000E-01  8.00000000E-01  1.50000000E+00  8.00000000E-01  8.00000000E-01
  1.50000000E+00  8.00000000E-01  8.00000000E-01  1.50000000E+00  8.00000000E-01
  8.00000000E-01  1.50000000E+00  8.00000000E-01  8.00000000E-01  1.50000000E+00
  8.00000000E-01  8.00000000E-01  1.50000000E+00  8.00000000E-01  8.00000000E-01
  1.50000000E+00  8.00000000E-01  8.00000000E-01  1.50000000E+00  8.00000000E-01
  8.00000000E-01  1.50000000E+00  8.00000000E-01  8.00000000E-01  1.50000000E+00
  8.00000000E-01  8.00000000E-01  1.50000000E+00  8.00000000E-01  8.00000000E-01
  1.50000000E+00  8.00000000E-01  8.00000000E-01  1.50000000E+00  8.00000000E-01
  8.00000000E-01  1.50000000E+00  8.00000000E-01  8.00000000E-01  1.50000000E+00
  8.00000000E-01  8.00000000E-01  1.50000000E+00  8.00000000E-01  8.00000000E-01
  1.50000000E+00  8.00000000E-01  8.00000000E-01  1.50000000E+00  8.00000000E-01
  8.00000000E-01  1.50000000E+00  8.00000000E-01  8.00000000E-01  1.50000000E+00
  8.00000000E-01  8.00000000E-01  1.50000000E+00  8.00000000E-01  8.00000000E-01
  1.50000000E+00  8.00000000E-01  8.00000000E-01  1.50000000E+00  8.00000000E-01
  8.00000000E-01  1.50000000E+00  8.00000000E-01  8.00000000E-01  1.50000000E+00
  8.00000000E-01  8.00000000E-01  1.50000000E+00  8.00000000E-01  8.00000000E-01
  1.50000000E+00  8.00000000E-01  8.00000000E-01  1.50000000E+00  8.00000000E-01
  8.00000000E-01  1.50000000E+00  8.00000000E-01  8.00000000E-01  1.50000000E+00
  8.00000000E-01  8.00000000E-01  1.50000000E+00  8.00000000E-01  8.00000000E-01
  1.50000000E+00  8.00000000E-01  8.00000000E-01  1.50000000E+00  8.00000000E-01
  8.00000000E-01  1.50000000E+00  8.00000000E-01  8.00000000E-01  1.50000000E+00
  8.00000000E-01  8.00000000E-01  1.50000000E+00  8.00000000E-01  8.00000000E-01
  1.50000000E+00  8.00000000E-01  8.00000000E-01  1.50000000E+00  8.00000000E-01
  8.00000000E-01  1.50000000E+00  8.00000000E-01  8.00000000E-01  1.50000000E+00
  8.00000000E-01  8.00000000E-01  1.50000000E+00  8.00000000E-01  8.00000000E-01
  1.50000000E+00  8.00000000E-01  8.00000000E-01  1.50000000E+00  8.00000000E-01
  8.00000000E-01  1.50000000E+00  8.00000000E-01  8.00000000E-01  1.50000000E+00
  8.00000000E-01  8.00000000E-01  1.50000000E+00  8.00000000E-01  8.00000000E-01
  1.50000000E+00  8.00000000E-01  8.00000000E-01  1.50000000E+00  8.00000000E-01
  8.00000000E-01  1.50000000E+00  8.00000000E-01  8.00000000E-01  1.50000000E+00
  8.00000000E-01  8.00000000E-01  1.50000000E+00  8.00000000E-01  8.00000000E-01
  1.50000000E+00  8.00000000E-01  8.00000000E-01  1.50000000E+00  8.00000000E-01
  8.00000000E-01  1.50000000E+00  8.00000000E-01  8.00000000E-01  1.50000000E+00
  8.00000000E-01  8.00000000E-01  1.50000000E+00  8.00000000E-01  8.00000000E-01
  1.50000000E+00  8.00000000E-01  8.00000000E-01  1.50000000E+00  8.00000000E-01
  8.00000000E-01  1.50000000E+00  8.00000000E-01  8.00000000E-01  1.50000000E+00
  8.00000000E-01  8.00000000E-01  1.50000000E+00  8.00000000E-01  8.00000000E-01
  1.50000000E+00  8.00000000E-01  8.00000000E-01  1.50000000E+00  8.00000000E-01
  8.00000000E-01  1.50000000E+00  8.00000000E-01  8.00000000E-01  1.50000000E+00
  8.00000000E-01  8.00000000E-01  1.50000000E+00  8.00000000E-01  8.00000000E-01
  1.50000000E+00  8.00000000E-01  8.00000000E-01  1.50000000E+00  8.00000000E-01
  8.00000000E-01  1.50000000E+00  8.00000000E-01  8.00000000E-01  1.50000000E+00
  8.00000000E-01  8.00000000E-01  1.50000000E+00  8.00000000E-01  8.00000000E-01
  1.50000000E+00  8.00000000E-01  8.00000000E-01  1.50000000E+00  8.00000000E-01
  8.00000000E-01  1.50000000E+00  8.00000000E-01  8.00000000E-01  1.50000000E+00
  8.00000000E-01  8.00000000E-01  1.50000000E+00  8.00000000E-01  8.00000000E-01
  1.50000000E+00  8.00000000E-01  8.00000000E-01  1.50000000E+00  8.00000000E-01
  8.00000000E-01  1.50000000E+00  8.00000000E-01  8.00000000E-01  1.50000000E+00
  8.00000000E-01  8.00000000E-01  1.50000000E+00  8.00000000E-01  8.00000000E-01
  1.50000000E+00  8.00000000E-01  8.00000000E-01  1.50000000E+00  8.00000000E-01
  8.00000000E-01  1.50000000E+00  8.00000000E-01  8.00000000E-01  1.50000000E+00
  8.00000000E-01  8.00000000E-01  1.50000000E+00  8.00000000E-01  8.00000000E-01
  1.50000000E+00  8.00000000E-01  8.00000000E-01  1.50000000E+00  8.00000000E-01
  8.00000000E-01  1.50000000E+00  8.00000000E-01  8.00000000E-01  1.50000000E+00
  8.00000000E-01  8.00000000E-01  1.50000000E+00  8.00000000E-01  8.00000000E-01
  1.50000000E+00  8.00000000E-01  8.00000000E-01  1.50000000E+00  8.00000000E-01
  8.00000000E-01  1.50000000E+00  8.00000000E-01  8.00000000E-01  1.50000000E+00
  8.00000000E-01  8.00000000E-01  1.50000000E+00  8.00000000E-01  8.00000000E-01
  1.50000000E+00  8.00000000E-01  8.00000000E-01  1.50000000E+00  8.00000000E-01
  8.00000000E-01  1.50000000E+00  8.00000000E-01  8.00000000E-01  1.50000000E+00
  8.00000000E-01  8.00000000E-01  1.50000000E+00  8.00000000E-01  8.00000000E-01
  1.50000000E+00  8.00000000E-01  8.00000000E-01  1.50000000E+00  8.00000000E-01
  8.00000000E-01  1.50000000E+00  8.00000000E-01  8.00000000E-01  1.50000000E+00
  8.00000000E-01  8.00000000E-01  1.50000000E+00  8.00000000E-01  8.00000000E-01
  1.50000000E+00  8.00000000E-01  8.00000000E-01  1.50000000E+00  8.00000000E-01
  8.00000000E-01  1.50000000E+00  8.00000000E-01  8.00000000E-01  1.50000000E+00
  8.00000000E-01  8.00000000E-01  1.50000000E+00  8.00000000E-01  8.00000000E-01
  1.50000000E+00  8.00000000E-01  8.00000000E-01  1.50000000E+00  8.00000000E-01
  8.00000000E-01  1.50000000E+00  8.00000000E-01  8.00000000E-01  1.50000000E+00
  8.00000000E-01  8.00000000E-01  1.50000000E+00  8.00000000E-01  8.00000000E-01
  1.50000000E+00  8.00000000E-01  8.00000000E-01  1.50000000E+00  8.00000000E-01
  8.00000000E-01  1.50000000E+00  8.00000000E-01  8.00000000E-01  1.50000000E+00
  8.00000000E-01  8.00000000E-01  1.50000000E+00  8.00000000E-01  8.00000000E-01
  1.50000000E+00  8.00000000E-01  8.00000000E-01  1.50000000E+00  8.00000000E-01
  8.00000000E-01  1.50000000E+00  8.00000000E-01  8.00000000E-01  1.50000000E+00
  8.00000000E-01  8.00000000E-01  1.50000000E+00  8.00000000E-01  8.00000000E-01
  1.50000000E+00  8.00000000E-01  8.00000000E-01  1.50000000E+00  8.00000000E-01
  8.00000000E-01  1.50000000E+00  8.00000000E-01  8.00000000E-01  1.50000000E+00
  8.00000000E-01  8.00000000E-01  1.50000000E+00  8.00000000E-01  8.00000000E-01
  1.50000000E+00  8.00000000E-01  8.00000000E-01  1.50000000E+00  8.00000000E-01
  8.00000000E-01  1.50000000E+00  8.00000000E-01  8.00000000E-01  1.50000000E+00
  8.00000000E-01  8.00000000E-01  1.50000000E+00  8.00000000E-01  8.00000000E-01
  1.50000000E+00  8.00000000E-01  8.00000000E-01  1.50000000E+00  8.00000000E-01
  8.00000000E-01  1.50000000E+00  8.00000000E-01  8.00000000E-01  1.50000000E+00
  8.00000000E-01  8.00000000E-01  1.50000000E+00  8.00000000E-01  8.00000000E-01
  1.50000000E+00  8.00000000E-01  8.00000000E-01  1.50000000E+00  8.00000000E-01
  8.00000000E-01  1.50000000E+00  8.00000000E-01  8.00000000E-01  1.50000000E+00
  8.00000000E-01  8.00000000E-01  1.50000000E+00  8.00000000E-01  8.00000000E-01
  1.50000000E+00  8.00000000E-01  8.00000000E-01  1.50000000E+00  8.00000000E-01
  8.00000000E-01  1.50000000E+00  8.00000000E-01  8.00000000E-01  1.50000000E+00
  8.00000000E-01  8.00000000E-01  1.50000000E+00  8.00000000E-01  8.00000000E-01
  1.50000000E+00  8.00000000E-01  8.00000000E-01  1.50000000E+00  8.00000000E-01
  8.00000000E-01  1.50000000E+00  8.00000000E-01  8.00000000E-01  1.50000000E+00
  8.00000000E-01  8.00000000E-01  1.50000000E+00  8.00000000E-01  8.00000000E-01
  1.50000000E+00  8.00000000E-01  8.00000000E-01  1.50000000E+00  8.00000000E-01
  8.00000000E-01  1.50000000E+00  8.00000000E-01  8.00000000E-01  1.50000000E+00
  8.00000000E-01  8.00000000E-01  1.50000000E+00  8.00000000E-01  8.00000000E-01
  1.50000000E+00  8.00000000E-01  8.00000000E-01  1.50000000E+00  8.00000000E-01
  8.00000000E-01  1.50000000E+00  8.00000000E-01  8.00000000E-01  1.50000000E+00
  8.00000000E-01  8.00000000E-01  1.50000000E+00  8.00000000E-01  8.00000000E-01
  1.50000000E+00  8.00000000E-01  8.00000000E-01  1.50000000E+00  8.00000000E-01
  8.00000000E-01  1.50000000E+00  8.00000000E-01  8.00000000E-01  1.50000000E+00
  8.00000000E-01  8.00000000E-01  1.50000000E+00  8.00000000E-01  8.00000000E-01
  1.50000000E+00  8.00000000E-01  8.00000000E-01  1.50000000E+00  8.00000000E-01
  8.00000000E-01  1.50000000E+00  8.00000000E-01  8.00000000E-01  1.50000000E+00
  8.00000000E-01  8.00000000E-01  1.50000000E+00  8.00000000E-01  8.00000000E-01
  1.50000000E+00  8.00000000E-01  8.00000000E-01  1.50000000E+00  8.00000000E-01
  8.00000000E-01  1.50000000E+00  8.00000000E-01  8.00000000E-01  1.50000000E+00
  8.00000000E-01  8.00000000E-01  1.50000000E+00  8.00000000E-01  8.00000000E-01
  1.50000000E+00  8.00000000E-01  8.00000000E-01  1.50000000E+00  8.00000000E-01
  8.00000000E-01  1.50000000E+00  8.00000000E-01  8.00000000E-01  1.50000000E+00
  8.00000000E-01  8.00000000E-01  1.50000000E+00  8.00000000E-01  8.00000000E-01
  1.50000000E+00  8.00000000E-01  8.00000000E-01  1.50000000E+00  8.00000000E-01
  8.00000000E-01  1.50000000E+00  8.00000000E-01  8.00000000E-01  1.50000000E+00
  8.00000000E-01  8.00000000E-01  1.50000000E+00  8.00000000E-01  8.00000000E-01
  1.50000000E+00  8.00000000E-01  8.00000000E-01  1.50000000E+00  8.00000000E-01
  8.00000000E-01  1.50000000E+00  8.00000000E-01  8.00000000E-01  1.50000000E+00
  8.00000000E-01  8.00000000E-01  1.50000000E+00  8.00000000E-01  8.00000000E-01
  1.50000000E+00  8.00000000E-01  8.00000000E-01  1.50000000E+00  8.00000000E-01
  8.00000000E-01  1.50000000E+00  8.00000000E-01  8.00000000E-01  1.50000000E+00
  8.00000000E-01  8.00000000E-01  1.50000000E+00  8.00000000E-01  8.00000000E-01
  1.50000000E+00  8.00000000E-01  8.00000000E-01  1.50000000E+00  8.00000000E-01
  8.00000000E-01  1.50000000E+00  8.00000000E-01  8.00000000E-01  1.50000000E+00
  8.00000000E-01  8.00000000E-01  1.50000000E+00  8.00000000E-01  8.00000000E-01
  1.50000000E+00  8.00000000E-01  8.00000000E-01  1.50000000E+00  8.00000000E-01
  8.00000000E-01  1.50000000E+00  8.00000000E-01  8.00000000E-01  1.50000000E+00
  8.00000000E-01  8.00000000E-01  1.50000000E+00  8.00000000E-01  8.00000000E-01
  1.50000000E+00  8.00000000E-01  8.00000000E-01  1.50000000E+00  8.00000000E-01
  8.00000000E-01  1.50000000E+00  8.00000000E-01  8.00000000E-01  1.50000000E+00
  8.00000000E-01  8.00000000E-01  1.50000000E+00  8.00000000E-01  8.00000000E-01
  1.50000000E+00  8.00000000E-01  8.00000000E-01  1.50000000E+00  8.00000000E-01
  8.00000000E-01  1.50000000E+00  8.00000000E-01  8.00000000E-01  1.50000000E+00
  8.00000000E-01  8.00000000E-01  1.50000000E+00  8.00000000E-01  8.00000000E-01
  1.50000000E+00  8.00000000E-01  8.00000000E-01  1.50000000E+00  8.00000000E-01
  8.00000000E-01  1.50000000E+00  8.00000000E-01  8.00000000E-01  1.50000000E+00
  8.00000000E-01  8.00000000E-01  1.50000000E+00  8.00000000E-01  8.00000000E-01
  1.50000000E+00  8.00000000E-01  8.00000000E-01  1.50000000E+00  8.00000000E-01
  8.00000000E-01  1.50000000E+00  8.00000000E-01  8.00000000E-01  1.50000000E+00
  8.00000000E-01  8.00000000E-01  1.50000000E+00  8.00000000E-01  8.00000000E-01
  1.50000000E+00  8.00000000E-01  8.00000000E-01  1.50000000E+00  8.00000000E-01
  8.00000000E-01  1.50000000E+00  8.00000000E-01  8.00000000E-01  1.50000000E+00
  8.00000000E-01  8.00000000E-01  1.50000000E+00  8.00000000E-01  8.00000000E-01
  1.50000000E+00  8.00000000E-01  8.00000000E-01  1.50000000E+00  8.00000000E-01
  8.00000000E-01  1.50000000E+00  8.00000000E-01  8.00000000E-01  1.50000000E+00
  8.00000000E-01  8.00000000E-01  1.50000000E+00  8.00000000E-01  8.00000000E-01
  1.50000000E+00  8.00000000E-01  8.00000000E-01  1.50000000E+00  8.00000000E-01
  8.00000000E-01  1.50000000E+00  8.00000000E-01  8.00000000E-01  1.50000000E+00
  8.00000000E-01  8.00000000E-01  1.50000000E+00  8.00000000E-01  8.00000000E-01
  1.50000000E+00  8.00000000E-01  8.00000000E-01  1.50000000E+00  8.00000000E-01
  8.00000000E-01  1.50000000E+00  8.00000000E-01  8.00000000E-01  1.50000000E+00
  8.00000000E-01  8.00000000E-01  1.50000000E+00  8.00000000E-01  8.00000000E-01
  1.50000000E+00  8.00000000E-01  8.00000000E-01  1.50000000E+00  8.00000000E-01
  8.00000000E-01  1.50000000E+00  8.00000000E-01  8.00000000E-01  1.50000000E+00
  8.00000000E-01  8.00000000E-01  1.50000000E+00  8.00000000E-01  8.00000000E-01
  1.50000000E+00  8.00000000E-01  8.00000000E-01  1.50000000E+00  8.00000000E-01
  8.00000000E-01  1.50000000E+00  8.00000000E-01  8.00000000E-01  1.50000000E+00
  8.00000000E-01  8.00000000E-01  1.50000000E+00  8.00000000E-01  8.00000000E-01
  1.50000000E+00  8.00000000E-01  8.00000000E-01  1.50000000E+00  8.00000000E-01
  8.00000000E-01  1.50000000E+00  8.00000000E-01  8.00000000E-01  1.50000000E+00
  8.00000000E-01  8.00000000E-01  1.50000000E+00  8.00000000E-01  8.00000000E-01
  1.50000000E+00  8.00000000E-01  8.00000000E-01  1.50000000E+00  8.00000000E-01
  8.00000000E-01  1.50000000E+00  8.00000000E-01  8.00000000E-01  1.50000000E+00
  8.00000000E-01  8.00000000E-01  1.50000000E+00  8.00000000E-01  8.00000000E-01
  1.50000000E+00  8.00000000E-01  8.00000000E-01  1.50000000E+00  8.00000000E-01
  8.00000000E-01  1.50000000E+00  8.00000000E-01  8.00000000E-01  1.50000000E+00
  8.00000000E-01  8.00000000E-01  1.50000000E+00  8.00000000E-01  8.00000000E-01
  1.50000000E+00  8.00000000E-01  8.00000000E-01  1.50000000E+00  8.00000000E-01
  8.00000000E-01  1.50000000E+00  8.00000000E-01  8.00000000E-01  1.50000000E+00
  8.00000000E-01  8.00000000E-01  1.50000000E+00  8.00000000E-01  8.00000000E-01
  1.50000000E+00  8.00000000E-01  8.00000000E-01  1.50000000E+00  8.00000000E-01
  8.00000000E-01  1.50000000E+00  8.00000000E-01  8.00000000E-01  1.50000000E+00
  8.00000000E-01  8.00000000E-01  1.50000000E+00  8.00000000E-01  8.00000000E-01
  1.50000000E+00  8.00000000E-01  8.00000000E-01  1.50000000E+00  8.00000000E-01
  8.00000000E-01  1.50000000E+00  8.00000000E-01  8.00000000E-01  1.50000000E+00
  8.00000000E-01  8.00000000E-01  1.50000000E+00  8.00000000E-01  8.00000000E-01
  1.50000000E+00  8.00000000E-01  8.00000000E-01  1.50000000E+00  8.00000000E-01
  8.00000000E-01  1.50000000E+00  8.00000000E-01  8.00000000E-01  1.50000000E+00
  8.00000000E-01  8.00000000E-01  1.50000000E+00  8.00000000E-01  8.00000000E-01
  1.50000000E+00  8.00000000E-01  8.00000000E-01  1.50000000E+00  8.00000000E-01
  8.00000000E-01  1.50000000E+00  8.00000000E-01  8.00000000E-01  1.50000000E+00
  8.00000000E-01  8.00000000E-01  1.50000000E+00  8.00000000E-01  8.00000000E-01
  1.50000000E+00  8.00000000E-01  8.00000000E-01  1.50000000E+00  8.00000000E-01
  8.00000000E-01  1.50000000E+00  8.00000000E-01  8.00000000E-01  1.50000000E+00
  8.00000000E-01  8.00000000E-01  1.50000000E+00  8.00000000E-01  8.00000000E-01
  1.50000000E+00  8.00000000E-01  8.00000000E-01  1.50000000E+00  8.00000000E-01
  8.00000000E-01  1.50000000E+00  8.00000000E-01  8.00000000E-01  1.50000000E+00
  8.00000000E-01  8.00000000E-01  1.50000000E+00  8.00000000E-01  8.00000000E-01
  1.50000000E+00  8.00000000E-01  8.00000000E-01  1.50000000E+00  8.00000000E-01
  8.00000000E-01  1.50000000E+00  8.00000000E-01  8.00000000E-01  1.50000000E+00
  8.00000000E-01  8.00000000E-01  1.50000000E+00  8.00000000E-01  8.00000000E-01
  1.50000000E+00  8.00000000E-01  8.00000000E-01  1.50000000E+00  8.00000000E-01
  8.00000000E-01  1.50000000E+00  8.00000000E-01  8.00000000E-01  1.50000000E+00
  8.00000000E-01  8.00000000E-01  1.50000000E+00  8.00000000E-01  8.00000000E-01
  1.50000000E+00  8.00000000E-01  8.00000000E-01  1.50000000E+00  8.00000000E-01
  8.00000000E-01  1.50000000E+00  8.00000000E-01  8.00000000E-01  1.50000000E+00
  8.00000000E-01  8.00000000E-01  1.50000000E+00  8.00000000E-01  8.00000000E-01
  1.50000000E+00  8.00000000E-01  8.00000000E-01  1.50000000E+00  8.00000000E-01
  8.00000000E-01  1.50000000E+00  8.00000000E-01  8.00000000E-01  1.50000000E+00
  8.00000000E-01  8.00000000E-01  1.50000000E+00  8.00000000E-01  8.00000000E-01
  1.50000000E+00  8.00000000E-01  8.00000000E-01  1.50000000E+00  8.00000000E-01
  8.00000000E-01  1.50000000E+00  8.00000000E-01  8.00000000E-01  1.50000000E+00
  8.00000000E-01  8.00000000E-01  1.50000000E+00  8.00000000E-01  8.00000000E-01
  1.50000000E+00  8.00000000E-01  8.00000000E-01  1.50000000E+00  8.00000000E-01
  8.00000000E-01  1.50000000E+00  8.00000000E-01  8.00000000E-01  1.50000000E+00
  8.00000000E-01  8.00000000E-01  1.50000000E+00  8.00000000E-01  8.00000000E-01
  1.50000000E+00  8.00000000E-01  8.00000000E-01  1.50000000E+00  8.00000000E-01
  8.00000000E-01  1.50000000E+00  8.00000000E-01  8.00000000E-01  1.50000000E+00
  8.00000000E-01  8.00000000E-01  1.50000000E+00  8.00000000E-01  8.00000000E-01
  1.50000000E+00  8.00000000E-01  8.00000000E-01  1.50000000E+00  8.00000000E-01
  8.00000000E-01  1.50000000E+00  8.00000000E-01  8.00000000E-01  1.50000000E+00
  8.00000000E-01  8.00000000E-01  1.50000000E+00  8.00000000E-01  8.00000000E-01
  1.50000000E+00  8.00000000E-01  8.00000000E-01  1.50000000E+00  8.00000000E-01
  8.00000000E-01  1.50000000E+00  8.00000000E-01  8.00000000E-01  1.50000000E+00
  8.00000000E-01  8.00000000E-01  1.50000000E+00  8.00000000E-01  8.00000000E-01
  1.50000000E+00  8.00000000E-01  8.00000000E-01  1.50000000E+00  8.00000000E-01
  8.00000000E-01  1.50000000E+00  8.00000000E-01  8.00000000E-01  1.50000000E+00
  8.00000000E-01  8.00000000E-01  1.50000000E+00  8.00000000E-01  8.00000000E-01
  1.50000000E+00  8.00000000E-01  8.00000000E-01  1.50000000E+00  8.00000000E-01
  8.00000000E-01  1.50000000E+00  8.00000000E-01  8.00000000E-01  1.50000000E+00
  8.00000000E-01  8.00000000E-01  1.50000000E+00  8.00000000E-01  8.00000000E-01
  1.50000000E+00  8.00000000E-01  8.00000000E-01  1.50000000E+00  8.00000000E-01
  8.00000000E-01  1.50000000E+00  8.00000000E-01  8.00000000E-01  1.50000000E+00
  8.00000000E-01  8.00000000E-01  1.50000000E+00  8.00000000E-01  8.00000000E-01
  1.50000000E+00  8.00000000E-01  8.00000000E-01  1.50000000E+00  8.00000000E-01
  8.00000000E-01  1.50000000E+00  8.00000000E-01  8.00000000E-01  1.50000000E+00
  8.00000000E-01  8.00000000E-01  1.50000000E+00  8.00000000E-01  8.00000000E-01
  1.50000000E+00  8.00000000E-01  8.00000000E-01  1.50000000E+00  8.00000000E-01
  8.00000000E-01  1.50000000E+00  8.00000000E-01  8.00000000E-01  1.50000000E+00
  8.00000000E-01  8.00000000E-01  1.50000000E+00  8.00000000E-01  8.00000000E-01
  1.50000000E+00  8.00000000E-01  8.00000000E-01  1.50000000E+00  8.00000000E-01
  8.00000000E-01  1.50000000E+00  8.00000000E-01  8.00000000E-01  1.50000000E+00
  8.00000000E-01  8.00000000E-01  1.50000000E+00  8.00000000E-01  8.00000000E-01
  1.50000000E+00  8.00000000E-01  8.00000000E-01  1.50000000E+00  8.00000000E-01
  8.00000000E-01  1.50000000E+00  8.00000000E-01  8.00000000E-01  1.50000000E+00
  8.00000000E-01  8.00000000E-01  1.50000000E+00  8.00000000E-01  8.00000000E-01
  1.50000000E+00  8.00000000E-01  8.00000000E-01  1.50000000E+00  8.00000000E-01
  8.00000000E-01  1.50000000E+00  8.00000000E-01  8.00000000E-01  1.50000000E+00
  8.00000000E-01  8.00000000E-01  1.50000000E+00  8.00000000E-01  8.00000000E-01
  1.50000000E+00  8.00000000E-01  8.00000000E-01  1.50000000E+00  8.00000000E-01
  8.00000000E-01  1.50000000E+00  8.00000000E-01  8.00000000E-01  1.50000000E+00
  8.00000000E-01  8.00000000E-01  1.50000000E+00  8.00000000E-01  8.00000000E-01
  1.50000000E+00  8.00000000E-01  8.00000000E-01  1.50000000E+00  8.00000000E-01
  8.00000000E-01  1.50000000E+00  8.00000000E-01  8.00000000E-01  1.50000000E+00
  8.00000000E-01  8.00000000E-01  1.50000000E+00  8.00000000E-01  8.00000000E-01
  1.50000000E+00  8.00000000E-01  8.00000000E-01  1.50000000E+00  8.00000000E-01
  8.00000000E-01  1.50000000E+00  8.00000000E-01  8.00000000E-01  1.50000000E+00
  8.00000000E-01  8.00000000E-01  1.50000000E+00  8.00000000E-01  8.00000000E-01
  1.50000000E+00  8.00000000E-01  8.00000000E-01  1.50000000E+00  8.00000000E-01
  8.00000000E-01  1.50000000E+00  8.00000000E-01  8.00000000E-01  1.50000000E+00
  8.00000000E-01  8.00000000E-01  1.50000000E+00  8.00000000E-01  8.00000000E-01
  1.50000000E+00  8.00000000E-01  8.00000000E-01  1.50000000E+00  8.00000000E-01
  8.00000000E-01  1.50000000E+00  8.00000000E-01  8.00000000E-01  1.50000000E+00
  8.00000000E-01  8.00000000E-01  1.50000000E+00  8.00000000E-01  8.00000000E-01
  1.50000000E+00  8.00000000E-01  8.00000000E-01  1.50000000E+00  8.00000000E-01
  8.00000000E-01  1.50000000E+00  8.00000000E-01  8.00000000E-01  1.50000000E+00
  8.00000000E-01  8.00000000E-01  1.50000000E+00  8.00000000E-01  8.00000000E-01
  1.50000000E+00  8.00000000E-01  8.00000000E-01  1.50000000E+00  8.00000000E-01
  8.00000000E-01  1.50000000E+00  8.00000000E-01  8.00000000E-01  1.50000000E+00
  8.00000000E-01  8.00000000E-01  1.50000000E+00  8.00000000E-01  8.00000000E-01
  1.50000000E+00  8.00000000E-01  8.00000000E-01  1.50000000E+00  8.00000000E-01
  8.00000000E-01  1.50000000E+00  8.00000000E-01  8.00000000E-01  1.50000000E+00
  8.00000000E-01  8.00000000E-01  1.50000000E+00  8.00000000E-01  8.00000000E-01
  1.50000000E+00  8.00000000E-01  8.00000000E-01  1.50000000E+00  8.00000000E-01
  8.00000000E-01  1.50000000E+00  8.00000000E-01  8.00000000E-01  1.50000000E+00
  8.00000000E-01  8.00000000E-01  1.50000000E+00  8.00000000E-01  8.00000000E-01
  1.50000000E+00  8.00000000E-01  8.00000000E-01  1.50000000E+00  8.00000000E-01
  8.00000000E-01  1.50000000E+00  8.00000000E-01  8.00000000E-01  1.50000000E+00
  8.00000000E-01  8.00000000E-01  1.50000000E+00  8.00000000E-01  8.00000000E-01
  1.50000000E+00  8.00000000E-01  8.00000000E-01  1.50000000E+00  8.00000000E-01
  8.00000000E-01  1.50000000E+00  8.00000000E-01  8.00000000E-01  1.50000000E+00
  8.00000000E-01  8.00000000E-01  1.50000000E+00  8.00000000E-01  8.00000000E-01
  1.50000000E+00  8.00000000E-01  8.00000000E-01  1.50000000E+00  8.00000000E-01
  8.00000000E-01  1.50000000E+00  8.00000000E-01  8.00000000E-01  1.50000000E+00
  8.00000000E-01  8.00000000E-01  1.50000000E+00  8.00000000E-01  8.00000000E-01
  1.50000000E+00  8.00000000E-01  8.00000000E-01  1.50000000E+00  8.00000000E-01
  8.00000000E-01  1.50000000E+00  8.00000000E-01  8.00000000E-01  1.50000000E+00
  8.00000000E-01  8.00000000E-01  1.50000000E+00  8.00000000E-01  8.00000000E-01
  1.50000000E+00  8.00000000E-01  8.00000000E-01  1.50000000E+00  8.00000000E-01
  8.00000000E-01  1.50000000E+00  8.00000000E-01  8.00000000E-01  1.50000000E+00
  8.00000000E-01  8.00000000E-01  1.50000000E+00  8.00000000E-01  8.00000000E-01
  1.50000000E+00  8.00000000E-01  8.00000000E-01  1.50000000E+00  8.00000000E-01
  8.00000000E-01  1.50000000E+00  8.00000000E-01  8.00000000E-01  1.50000000E+00
  8.00000000E-01  8.00000000E-01  1.50000000E+00  8.00000000E-01  8.00000000E-01
  1.50000000E+00  8.00000000E-01  8.00000000E-01  1.50000000E+00  8.00000000E-01
  8.00000000E-01  1.50000000E+00  8.00000000E-01  8.00000000E-01  1.50000000E+00
  8.00000000E-01  8.00000000E-01  1.50000000E+00  8.00000000E-01  8.00000000E-01
  1.50000000E+00  8.00000000E-01  8.00000000E-01  1.50000000E+00  8.00000000E-01
  8.00000000E-01  1.50000000E+00  8.00000000E-01  8.00000000E-01  1.50000000E+00
  8.00000000E-01  8.00000000E-01  1.50000000E+00  8.00000000E-01  8.00000000E-01
  1.50000000E+00  8.00000000E-01  8.00000000E-01  1.50000000E+00  8.00000000E-01
  8.00000000E-01  1.50000000E+00  8.00000000E-01  8.00000000E-01  1.50000000E+00
  8.00000000E-01  8.00000000E-01  1.50000000E+00  8.00000000E-01  8.00000000E-01
  1.50000000E+00  8.00000000E-01  8.00000000E-01  1.50000000E+00  8.00000000E-01
  8.00000000E-01  1.50000000E+00  8.00000000E-01  8.00000000E-01  1.50000000E+00
  8.00000000E-01  8.00000000E-01  1.50000000E+00  8.00000000E-01  8.00000000E-01
  1.50000000E+00  8.00000000E-01  8.00000000E-01  1.50000000E+00  8.00000000E-01
  8.00000000E-01  1.50000000E+00  8.00000000E-01  8.00000000E-01  1.50000000E+00
  8.00000000E-01  8.00000000E-01  1.50000000E+00  8.00000000E-01  8.00000000E-01
  1.50000000E+00  8.00000000E-01  8.00000000E-01  1.50000000E+00  8.00000000E-01
  8.00000000E-01  1.50000000E+00  8.00000000E-01  8.00000000E-01  1.50000000E+00
  8.00000000E-01  8.00000000E-01  1.50000000E+00  8.00000000E-01  8.00000000E-01
  1.50000000E+00  8.00000000E-01  8.00000000E-01  1.50000000E+00  8.00000000E-01
  8.00000000E-01  1.50000000E+00  8.00000000E-01  8.00000000E-01  1.50000000E+00
  8.00000000E-01  8.00000000E-01  1.50000000E+00  8.00000000E-01  8.00000000E-01
  1.50000000E+00  8.00000000E-01  8.00000000E-01  1.50000000E+00  8.00000000E-01
  8.00000000E-01  1.50000000E+00  8.00000000E-01  8.00000000E-01  1.50000000E+00
  8.00000000E-01  8.00000000E-01  1.50000000E+00  8.00000000E-01  8.00000000E-01
  1.50000000E+00  8.00000000E-01  8.00000000E-01  1.50000000E+00  8.00000000E-01
  8.00000000E-01  1.50000000E+00  8.00000000E-01  8.00000000E-01  1.50000000E+00
  8.00000000E-01  8.00000000E-01  1.50000000E+00  8.00000000E-01  8.00000000E-01
  1.50000000E+00  8.00000000E-01  8.00000000E-01  1.50000000E+00  8.00000000E-01
  8.00000000E-01  1.50000000E+00  8.00000000E-01  8.00000000E-01  1.50000000E+00
  8.00000000E-01  8.00000000E-01  1.50000000E+00  8.00000000E-01  8.00000000E-01
  1.50000000E+00  8.00000000E-01  8.00000000E-01  1.50000000E+00  8.00000000E-01
  8.00000000E-01  1.50000000E+00  8.00000000E-01  8.00000000E-01  1.50000000E+00
  8.00000000E-01  8.00000000E-01  1.50000000E+00  8.00000000E-01  8.00000000E-01
  1.50000000E+00  8.00000000E-01  8.00000000E-01  1.50000000E+00  8.00000000E-01
  8.00000000E-01  1.50000000E+00  8.00000000E-01  8.00000000E-01  1.50000000E+00
  8.00000000E-01  8.00000000E-01  1.50000000E+00  8.00000000E-01  8.00000000E-01
  1.50000000E+00  8.00000000E-01  8.00000000E-01  1.50000000E+00  8.00000000E-01
  8.00000000E-01  1.50000000E+00  8.00000000E-01  8.00000000E-01  1.50000000E+00
  8.00000000E-01  8.00000000E-01  1.50000000E+00  8.00000000E-01  8.00000000E-01
  1.50000000E+00  8.00000000E-01  8.00000000E-01  1.50000000E+00  8.00000000E-01
  8.00000000E-01  1.50000000E+00  8.00000000E-01  8.00000000E-01  1.50000000E+00
  8.00000000E-01  8.00000000E-01  1.50000000E+00  8.00000000E-01  8.00000000E-01
  1.50000000E+00  8.00000000E-01  8.00000000E-01  1.50000000E+00  8.00000000E-01
  8.00000000E-01  1.50000000E+00  8.00000000E-01  8.00000000E-01  1.50000000E+00
  8.00000000E-01  8.00000000E-01  1.50000000E+00  8.00000000E-01  8.00000000E-01
  1.50000000E+00  8.00000000E-01  8.00000000E-01  1.50000000E+00  8.00000000E-01
  8.00000000E-01  1.50000000E+00  8.00000000E-01  8.00000000E-01  1.50000000E+00
  8.00000000E-01  8.00000000E-01  1.50000000E+00  8.00000000E-01  8.00000000E-01
  1.50000000E+00  8.00000000E-01  8.00000000E-01  1.50000000E+00  8.00000000E-01
  8.00000000E-01  1.50000000E+00  8.00000000E-01  8.00000000E-01  1.50000000E+00
  8.00000000E-01  8.00000000E-01  1.50000000E+00  8.00000000E-01  8.00000000E-01
  1.50000000E+00  8.00000000E-01  8.00000000E-01  1.50000000E+00  8.00000000E-01
  8.00000000E-01  1.50000000E+00  8.00000000E-01  8.00000000E-01  1.50000000E+00
  8.00000000E-01  8.00000000E-01  1.50000000E+00  8.00000000E-01  8.00000000E-01
  1.50000000E+00  8.00000000E-01  8.00000000E-01  1.50000000E+00  8.00000000E-01
  8.00000000E-01  1.50000000E+00  8.00000000E-01  8.00000000E-01  1.50000000E+00
  8.00000000E-01  8.00000000E-01  1.50000000E+00  8.00000000E-01  8.00000000E-01
  1.50000000E+00  8.00000000E-01  8.00000000E-01  1.50000000E+00  8.00000000E-01
  8.00000000E-01  1.50000000E+00  8.00000000E-01  8.00000000E-01  1.50000000E+00
  8.00000000E-01  8.00000000E-01  1.50000000E+00  8.00000000E-01  8.00000000E-01
  1.50000000E+00  8.00000000E-01  8.00000000E-01  1.50000000E+00  8.00000000E-01
  8.00000000E-01  1.50000000E+00  8.00000000E-01  8.00000000E-01  1.50000000E+00
  8.00000000E-01  8.00000000E-01  1.50000000E+00  8.00000000E-01  8.00000000E-01
  1.50000000E+00  8.00000000E-01  8.00000000E-01  1.50000000E+00  8.00000000E-01
  8.00000000E-01  1.50000000E+00  8.00000000E-01  8.00000000E-01  1.50000000E+00
  8.00000000E-01  8.00000000E-01  1.50000000E+00  8.00000000E-01  8.00000000E-01
  1.50000000E+00  8.00000000E-01  8.00000000E-01  1.50000000E+00  8.00000000E-01
  8.00000000E-01  1.50000000E+00  8.00000000E-01  8.00000000E-01  1.50000000E+00
  8.00000000E-01  8.00000000E-01  1.50000000E+00  8.00000000E-01  8.00000000E-01
  1.50000000E+00  8.00000000E-01  8.00000000E-01  1.50000000E+00  8.00000000E-01
  8.00000000E-01  1.50000000E+00  8.00000000E-01  8.00000000E-01  1.50000000E+00
  8.00000000E-01  8.00000000E-01  1.50000000E+00  8.00000000E-01  8.00000000E-01
  1.50000000E+00  8.00000000E-01  8.00000000E-01  1.50000000E+00  8.00000000E-01
  8.00000000E-01  1.50000000E+00  8.00000000E-01  8.00000000E-01  1.50000000E+00
  8.00000000E-01  8.00000000E-01  1.50000000E+00  8.00000000E-01  8.00000000E-01
  1.50000000E+00  8.00000000E-01  8.00000000E-01  1.50000000E+00  8.00000000E-01
  8.00000000E-01  1.50000000E+00  8.00000000E-01  8.00000000E-01  1.50000000E+00
  8.00000000E-01  8.00000000E-01  1.50000000E+00  8.00000000E-01  8.00000000E-01
  1.50000000E+00  8.00000000E-01  8.00000000E-01  1.50000000E+00  8.00000000E-01
  8.00000000E-01  1.50000000E+00  8.00000000E-01  8.00000000E-01  1.50000000E+00
  8.00000000E-01  8.00000000E-01  1.50000000E+00  8.00000000E-01  8.00000000E-01
  1.50000000E+00  8.00000000E-01  8.00000000E-01  1.50000000E+00  8.00000000E-01
  8.00000000E-01  1.50000000E+00  8.00000000E-01  8.00000000E-01  1.50000000E+00
  8.00000000E-01  8.00000000E-01  1.50000000E+00  8.00000000E-01  8.00000000E-01
  1.50000000E+00  8.00000000E-01  8.00000000E-01  1.50000000E+00  8.00000000E-01
  8.00000000E-01  1.50000000E+00  8.00000000E-01  8.00000000E-01  1.50000000E+00
  8.00000000E-01  8.00000000E-01  1.50000000E+00  8.00000000E-01  8.00000000E-01
  1.50000000E+00  8.00000000E-01  8.00000000E-01  1.50000000E+00  8.00000000E-01
  8.00000000E-01  1.50000000E+00  8.00000000E-01  8.00000000E-01  1.50000000E+00
  8.00000000E-01  8.00000000E-01  1.50000000E+00  8.00000000E-01  8.00000000E-01
  1.50000000E+00  8.00000000E-01  8.00000000E-01  1.50000000E+00  8.00000000E-01
  8.00000000E-01  1.50000000E+00  8.00000000E-01  8.00000000E-01  1.50000000E+00
  8.00000000E-01  8.00000000E-01  1.50000000E+00  8.00000000E-01  8.00000000E-01
  1.50000000E+00  8.00000000E-01  8.00000000E-01  1.50000000E+00  8.00000000E-01
  8.00000000E-01  1.50000000E+00  8.00000000E-01  8.00000000E-01  1.50000000E+00
  8.00000000E-01  8.00000000E-01  1.50000000E+00  8.00000000E-01  8.00000000E-01
  1.50000000E+00  8.00000000E-01  8.00000000E-01  1.50000000E+00  8.00000000E-01
  8.00000000E-01  1.50000000E+00  8.00000000E-01  8.00000000E-01  1.50000000E+00
  8.00000000E-01  8.00000000E-01  1.50000000E+00  8.00000000E-01  8.00000000E-01
  1.50000000E+00  8.00000000E-01  8.00000000E-01  1.50000000E+00  8.00000000E-01
  8.00000000E-01  1.50000000E+00  8.00000000E-01  8.00000000E-01  1.50000000E+00
  8.00000000E-01  8.00000000E-01  1.50000000E+00  8.00000000E-01  8.00000000E-01
  1.50000000E+00  8.00000000E-01  8.00000000E-01  1.50000000E+00  8.00000000E-01
  8.00000000E-01  1.50000000E+00  8.00000000E-01  8.00000000E-01  1.50000000E+00
  8.00000000E-01  8.00000000E-01  1.50000000E+00  8.00000000E-01  8.00000000E-01
  1.50000000E+00  8.00000000E-01  8.00000000E-01  1.50000000E+00  8.00000000E-01
  8.00000000E-01  1.50000000E+00  8.00000000E-01  8.00000000E-01  1.50000000E+00
  8.00000000E-01  8.00000000E-01  1.50000000E+00  8.00000000E-01  8.00000000E-01
  1.50000000E+00  8.00000000E-01  8.00000000E-01  1.50000000E+00  8.00000000E-01
  8.00000000E-01  1.50000000E+00  8.00000000E-01  8.00000000E-01  1.50000000E+00
  8.00000000E-01  8.00000000E-01  1.50000000E+00  8.00000000E-01  8.00000000E-01
  1.50000000E+00  8.00000000E-01  8.00000000E-01  1.50000000E+00  8.00000000E-01
  8.00000000E-01  1.50000000E+00  8.00000000E-01  8.00000000E-01  1.50000000E+00
  8.00000000E-01  8.00000000E-01  1.50000000E+00  8.00000000E-01  8.00000000E-01
  1.50000000E+00  8.00000000E-01  8.00000000E-01  1.50000000E+00  8.00000000E-01
  8.00000000E-01  1.50000000E+00  8.00000000E-01  8.00000000E-01  1.50000000E+00
  8.00000000E-01  8.00000000E-01  1.50000000E+00  8.00000000E-01  8.00000000E-01
  1.50000000E+00  8.00000000E-01  8.00000000E-01  1.50000000E+00  8.00000000E-01
  8.00000000E-01  1.50000000E+00  8.00000000E-01  8.00000000E-01  1.50000000E+00
  8.00000000E-01  8.00000000E-01  1.50000000E+00  8.00000000E-01  8.00000000E-01
  1.50000000E+00  8.00000000E-01  8.00000000E-01  1.50000000E+00  8.00000000E-01
  8.00000000E-01  1.50000000E+00  8.00000000E-01  8.00000000E-01  1.50000000E+00
  8.00000000E-01  8.00000000E-01  1.50000000E+00  8.00000000E-01  8.00000000E-01
  1.50000000E+00  8.00000000E-01  8.00000000E-01  1.50000000E+00  8.00000000E-01
  8.00000000E-01  1.50000000E+00  8.00000000E-01  8.00000000E-01  1.50000000E+00
  8.00000000E-01  8.00000000E-01  1.50000000E+00  8.00000000E-01  8.00000000E-01
  1.50000000E+00  8.00000000E-01  8.00000000E-01  1.50000000E+00  8.00000000E-01
  8.00000000E-01  1.50000000E+00  8.00000000E-01  8.00000000E-01  1.50000000E+00
  8.00000000E-01  8.00000000E-01  1.50000000E+00  8.00000000E-01  8.00000000E-01
  1.50000000E+00  8.00000000E-01  8.00000000E-01  1.50000000E+00  8.00000000E-01
  8.00000000E-01  1.50000000E+00  8.00000000E-01  8.00000000E-01  1.50000000E+00
  8.00000000E-01  8.00000000E-01  1.50000000E+00  8.00000000E-01  8.00000000E-01
  1.50000000E+00  8.00000000E-01  8.00000000E-01  1.50000000E+00  8.00000000E-01
  8.00000000E-01  1.50000000E+00  8.00000000E-01  8.00000000E-01  1.50000000E+00
  8.00000000E-01  8.00000000E-01  1.50000000E+00  8.00000000E-01  8.00000000E-01
  1.50000000E+00  8.00000000E-01  8.00000000E-01  1.50000000E+00  8.00000000E-01
  8.00000000E-01  1.50000000E+00  8.00000000E-01  8.00000000E-01  1.50000000E+00
  8.00000000E-01  8.00000000E-01  1.50000000E+00  8.00000000E-01  8.00000000E-01
  1.50000000E+00  8.00000000E-01  8.00000000E-01  1.50000000E+00  8.00000000E-01
  8.00000000E-01  1.50000000E+00  8.00000000E-01  8.00000000E-01  1.50000000E+00
  8.00000000E-01  8.00000000E-01  1.50000000E+00  8.00000000E-01  8.00000000E-01
  1.50000000E+00  8.00000000E-01  8.00000000E-01  1.50000000E+00  8.00000000E-01
  8.00000000E-01  1.50000000E+00  8.00000000E-01  8.00000000E-01  1.50000000E+00
  8.00000000E-01  8.00000000E-01  1.50000000E+00  8.00000000E-01  8.00000000E-01
  1.50000000E+00  8.00000000E-01  8.00000000E-01  1.50000000E+00  8.00000000E-01
  8.00000000E-01  1.50000000E+00  8.00000000E-01  8.00000000E-01  1.50000000E+00
  8.00000000E-01  8.00000000E-01  1.50000000E+00  8.00000000E-01  8.00000000E-01
  1.50000000E+00  8.00000000E-01  8.00000000E-01  1.50000000E+00  8.00000000E-01
  8.00000000E-01  1.50000000E+00  8.00000000E-01  8.00000000E-01  1.50000000E+00
  8.00000000E-01  8.00000000E-01  1.50000000E+00  8.00000000E-01  8.00000000E-01
  1.50000000E+00  8.00000000E-01  8.00000000E-01  1.50000000E+00  8.00000000E-01
  8.00000000E-01  1.50000000E+00  8.00000000E-01  8.00000000E-01  1.50000000E+00
  8.00000000E-01  8.00000000E-01  1.50000000E+00  8.00000000E-01  8.00000000E-01
  1.50000000E+00  8.00000000E-01  8.00000000E-01  1.50000000E+00  8.00000000E-01
  8.00000000E-01  1.50000000E+00  8.00000000E-01  8.00000000E-01  1.50000000E+00
  8.00000000E-01  8.00000000E-01  1.50000000E+00  8.00000000E-01  8.00000000E-01
  1.50000000E+00  8.00000000E-01  8.00000000E-01  1.50000000E+00  8.00000000E-01
  8.00000000E-01  1.50000000E+00  8.00000000E-01  8.00000000E-01  1.50000000E+00
  8.00000000E-01  8.00000000E-01  1.50000000E+00  8.00000000E-01  8.00000000E-01
  1.50000000E+00  8.00000000E-01  8.00000000E-01  1.50000000E+00  8.00000000E-01
  8.00000000E-01  1.50000000E+00  8.00000000E-01  8.00000000E-01  1.50000000E+00
  8.00000000E-01  8.00000000E-01  1.50000000E+00  8.00000000E-01  8.00000000E-01
  1.50000000E+00  8.00000000E-01  8.00000000E-01  1.50000000E+00  8.00000000E-01
  8.00000000E-01  1.50000000E+00  8.00000000E-01  8.00000000E-01  1.50000000E+00
  8.00000000E-01  8.00000000E-01  1.50000000E+00  8.00000000E-01  8.00000000E-01
  1.50000000E+00  8.00000000E-01  8.00000000E-01  1.50000000E+00  8.00000000E-01
  8.00000000E-01  1.50000000E+00  8.00000000E-01  8.00000000E-01  1.50000000E+00
  8.00000000E-01  8.00000000E-01  1.50000000E+00  8.00000000E-01  8.00000000E-01
  1.50000000E+00  8.00000000E-01  8.00000000E-01  1.50000000E+00  8.00000000E-01
  8.00000000E-01  1.50000000E+00  8.00000000E-01  8.00000000E-01  1.50000000E+00
  8.00000000E-01  8.00000000E-01  1.50000000E+00  8.00000000E-01  8.00000000E-01
  1.50000000E+00  8.00000000E-01  8.00000000E-01  1.50000000E+00  8.00000000E-01
  8.00000000E-01  1.50000000E+00  8.00000000E-01  8.00000000E-01  1.50000000E+00
  8.00000000E-01  8.00000000E-01  1.50000000E+00  8.00000000E-01  8.00000000E-01
  1.50000000E+00  8.00000000E-01  8.00000000E-01  1.50000000E+00  8.00000000E-01
  8.00000000E-01  1.50000000E+00  8.00000000E-01  8.00000000E-01  1.50000000E+00
  8.00000000E-01  8.00000000E-01  1.50000000E+00  8.00000000E-01  8.00000000E-01
  1.50000000E+00  8.00000000E-01  8.00000000E-01  1.50000000E+00  8.00000000E-01
  8.00000000E-01  1.50000000E+00  8.00000000E-01  8.00000000E-01  1.50000000E+00
  8.00000000E-01  8.00000000E-01  1.50000000E+00  8.00000000E-01  8.00000000E-01
  1.50000000E+00  8.00000000E-01  8.00000000E-01  1.50000000E+00  8.00000000E-01
  8.00000000E-01  1.50000000E+00  8.00000000E-01  8.00000000E-01  1.50000000E+00
  8.00000000E-01  8.00000000E-01  1.50000000E+00  8.00000000E-01  8.00000000E-01
  1.50000000E+00  8.00000000E-01  8.00000000E-01  1.50000000E+00  8.00000000E-01
  8.00000000E-01  1.50000000E+00  8.00000000E-01  8.00000000E-01  1.50000000E+00
  8.00000000E-01  8.00000000E-01  1.50000000E+00  8.00000000E-01  8.00000000E-01
  1.50000000E+00  8.00000000E-01  8.00000000E-01  1.50000000E+00  8.00000000E-01
  8.00000000E-01  1.50000000E+00  8.00000000E-01  8.00000000E-01  1.50000000E+00
  8.00000000E-01  8.00000000E-01  1.50000000E+00  8.00000000E-01  8.00000000E-01
  1.50000000E+00  8.00000000E-01  8.00000000E-01  1.50000000E+00  8.00000000E-01
  8.00000000E-01  1.50000000E+00  8.00000000E-01  8.00000000E-01  1.50000000E+00
  8.00000000E-01  8.00000000E-01  1.50000000E+00  8.00000000E-01  8.00000000E-01
  1.50000000E+00  8.00000000E-01  8.00000000E-01  1.50000000E+00  8.00000000E-01
  8.00000000E-01  1.50000000E+00  8.00000000E-01  8.00000000E-01  1.50000000E+00
  8.00000000E-01  8.00000000E-01  1.50000000E+00  8.00000000E-01  8.00000000E-01
  1.50000000E+00  8.00000000E-01  8.00000000E-01  1.50000000E+00  8.00000000E-01
  8.00000000E-01  1.50000000E+00  8.00000000E-01  8.00000000E-01  1.50000000E+00
  8.00000000E-01  8.00000000E-01  1.50000000E+00  8.00000000E-01  8.00000000E-01
  1.50000000E+00  8.00000000E-01  8.00000000E-01  1.50000000E+00  8.00000000E-01
  8.00000000E-01  1.50000000E+00  8.00000000E-01  8.00000000E-01  1.50000000E+00
  8.00000000E-01  8.00000000E-01  1.50000000E+00  8.00000000E-01  8.00000000E-01
  1.50000000E+00  8.00000000E-01  8.00000000E-01  1.50000000E+00  8.00000000E-01
  8.00000000E-01  1.50000000E+00  8.00000000E-01  8.00000000E-01  1.50000000E+00
  8.00000000E-01  8.00000000E-01  1.50000000E+00  8.00000000E-01  8.00000000E-01
  1.50000000E+00  8.00000000E-01  8.00000000E-01  1.50000000E+00  8.00000000E-01
  8.00000000E-01  1.50000000E+00  8.00000000E-01  8.00000000E-01  1.50000000E+00
  8.00000000E-01  8.00000000E-01  1.50000000E+00  8.00000000E-01  8.00000000E-01
  1.50000000E+00  8.00000000E-01  8.00000000E-01  1.50000000E+00  8.00000000E-01
  8.00000000E-01  1.50000000E+00  8.00000000E-01  8.00000000E-01  1.50000000E+00
  8.00000000E-01  8.00000000E-01  1.50000000E+00  8.00000000E-01  8.00000000E-01
  1.50000000E+00  8.00000000E-01  8.00000000E-01  1.50000000E+00  8.00000000E-01
  8.00000000E-01  1.50000000E+00  8.00000000E-01  8.00000000E-01  1.50000000E+00
  8.00000000E-01  8.00000000E-01  1.50000000E+00  8.00000000E-01  8.00000000E-01
  1.50000000E+00  8.00000000E-01  8.00000000E-01  1.50000000E+00  8.00000000E-01
  8.00000000E-01  1.50000000E+00  8.00000000E-01  8.00000000E-01  1.50000000E+00
  8.00000000E-01  8.00000000E-01  1.50000000E+00  8.00000000E-01  8.00000000E-01
  1.50000000E+00  8.00000000E-01  8.00000000E-01  1.50000000E+00  8.00000000E-01
  8.00000000E-01  1.50000000E+00  8.00000000E-01  8.00000000E-01  1.50000000E+00
  8.00000000E-01  8.00000000E-01  1.50000000E+00  8.00000000E-01  8.00000000E-01
  1.50000000E+00  8.00000000E-01  8.00000000E-01  1.50000000E+00  8.00000000E-01
  8.00000000E-01  1.50000000E+00  8.00000000E-01  8.00000000E-01  1.50000000E+00
  8.00000000E-01  8.00000000E-01  1.50000000E+00  8.00000000E-01  8.00000000E-01
  1.50000000E+00  8.00000000E-01  8.00000000E-01  1.50000000E+00  8.00000000E-01
  8.00000000E-01  1.50000000E+00  8.00000000E-01  8.00000000E-01  1.50000000E+00
  8.00000000E-01  8.00000000E-01  1.50000000E+00  8.00000000E-01  8.00000000E-01
  1.50000000E+00  8.00000000E-01  8.00000000E-01  1.50000000E+00  8.00000000E-01
  8.00000000E-01  1.50000000E+00  8.00000000E-01  8.00000000E-01  1.50000000E+00
  8.00000000E-01  8.00000000E-01  1.50000000E+00  8.00000000E-01  8.00000000E-01
  1.50000000E+00  8.00000000E-01  8.00000000E-01  1.50000000E+00  8.00000000E-01
  8.00000000E-01  1.50000000E+00  8.00000000E-01  8.00000000E-01  1.50000000E+00
  8.00000000E-01  8.00000000E-01  1.50000000E+00  8.00000000E-01  8.00000000E-01
  1.50000000E+00  8.00000000E-01  8.00000000E-01  1.50000000E+00  8.00000000E-01
  8.00000000E-01  1.50000000E+00  8.00000000E-01  8.00000000E-01  1.50000000E+00
  8.00000000E-01  8.00000000E-01  1.50000000E+00  8.00000000E-01  8.00000000E-01
  1.50000000E+00  8.00000000E-01  8.00000000E-01  1.50000000E+00  8.00000000E-01
  8.00000000E-01  1.50000000E+00  8.00000000E-01  8.00000000E-01  1.50000000E+00
  8.00000000E-01  8.00000000E-01  1.50000000E+00  8.00000000E-01  8.00000000E-01
  1.50000000E+00  8.00000000E-01  8.00000000E-01  1.50000000E+00  8.00000000E-01
  8.00000000E-01  1.50000000E+00  8.00000000E-01  8.00000000E-01  1.50000000E+00
  8.00000000E-01  8.00000000E-01  1.50000000E+00  8.00000000E-01  8.00000000E-01
  1.50000000E+00  8.00000000E-01  8.00000000E-01  1.50000000E+00  8.00000000E-01
  8.00000000E-01  1.50000000E+00  8.00000000E-01  8.00000000E-01  1.50000000E+00
  8.00000000E-01  8.00000000E-01  1.50000000E+00  8.00000000E-01  8.00000000E-01
  1.50000000E+00  8.00000000E-01  8.00000000E-01  1.50000000E+00  8.00000000E-01
  8.00000000E-01  1.50000000E+00  8.00000000E-01  8.00000000E-01  1.50000000E+00
  8.00000000E-01  8.00000000E-01  1.50000000E+00  8.00000000E-01  8.00000000E-01
  1.50000000E+00  8.00000000E-01  8.00000000E-01  1.50000000E+00  8.00000000E-01
  8.00000000E-01  1.50000000E+00  8.00000000E-01  8.00000000E-01  1.50000000E+00
  8.00000000E-01  8.00000000E-01  1.50000000E+00  8.00000000E-01  8.00000000E-01
  1.50000000E+00  8.00000000E-01  8.00000000E-01  1.50000000E+00  8.00000000E-01
  8.00000000E-01  1.50000000E+00  8.00000000E-01  8.00000000E-01  1.50000000E+00
  8.00000000E-01  8.00000000E-01  1.50000000E+00  8.00000000E-01  8.00000000E-01
  1.50000000E+00  8.00000000E-01  8.00000000E-01  1.50000000E+00  8.00000000E-01
  8.00000000E-01  1.50000000E+00  8.00000000E-01  8.00000000E-01  1.50000000E+00
  8.00000000E-01  8.00000000E-01  1.50000000E+00  8.00000000E-01  8.00000000E-01
  1.50000000E+00  8.00000000E-01  8.00000000E-01  1.50000000E+00  8.00000000E-01
  8.00000000E-01  1.50000000E+00  8.00000000E-01  8.00000000E-01  1.50000000E+00
  8.00000000E-01  8.00000000E-01  1.50000000E+00  8.00000000E-01  8.00000000E-01
  1.50000000E+00  8.00000000E-01  8.00000000E-01  1.50000000E+00  8.00000000E-01
  8.00000000E-01  1.50000000E+00  8.00000000E-01  8.00000000E-01  1.50000000E+00
  8.00000000E-01  8.00000000E-01  1.50000000E+00  8.00000000E-01  8.00000000E-01
  1.50000000E+00  8.00000000E-01  8.00000000E-01  1.50000000E+00  8.00000000E-01
  8.00000000E-01  1.50000000E+00  8.00000000E-01  8.00000000E-01  1.50000000E+00
  8.00000000E-01  8.00000000E-01  1.50000000E+00  8.00000000E-01  8.00000000E-01
  1.50000000E+00  8.00000000E-01  8.00000000E-01  1.50000000E+00  8.00000000E-01
  8.00000000E-01  1.50000000E+00  8.00000000E-01  8.00000000E-01  1.50000000E+00
  8.00000000E-01  8.00000000E-01  1.50000000E+00  8.00000000E-01  8.00000000E-01
  1.50000000E+00  8.00000000E-01  8.00000000E-01  1.50000000E+00  8.00000000E-01
  8.00000000E-01  1.50000000E+00  8.00000000E-01  8.00000000E-01  1.50000000E+00
  8.00000000E-01  8.00000000E-01  1.50000000E+00  8.00000000E-01  8.00000000E-01
  1.50000000E+00  8.00000000E-01  8.00000000E-01  1.50000000E+00  8.00000000E-01
  8.00000000E-01  1.50000000E+00  8.00000000E-01  8.00000000E-01  1.50000000E+00
  8.00000000E-01  8.00000000E-01  1.50000000E+00  8.00000000E-01  8.00000000E-01
  1.50000000E+00  8.00000000E-01  8.00000000E-01  1.50000000E+00  8.00000000E-01
  8.00000000E-01  1.50000000E+00  8.00000000E-01  8.00000000E-01  1.50000000E+00
  8.00000000E-01  8.00000000E-01  1.50000000E+00  8.00000000E-01  8.00000000E-01
  1.50000000E+00  8.00000000E-01  8.00000000E-01  1.50000000E+00  8.00000000E-01
  8.00000000E-01  1.50000000E+00  8.00000000E-01  8.00000000E-01  1.50000000E+00
  8.00000000E-01  8.00000000E-01  1.50000000E+00  8.00000000E-01  8.00000000E-01
  1.50000000E+00  8.00000000E-01  8.00000000E-01  1.50000000E+00  8.00000000E-01
  8.00000000E-01  1.50000000E+00  8.00000000E-01  8.00000000E-01  1.50000000E+00
  8.00000000E-01  8.00000000E-01  1.50000000E+00  8.00000000E-01  8.00000000E-01
  1.50000000E+00  8.00000000E-01  8.00000000E-01  1.50000000E+00  8.00000000E-01
  8.00000000E-01  1.50000000E+00  8.00000000E-01  8.00000000E-01  1.50000000E+00
  8.00000000E-01  8.00000000E-01  1.50000000E+00  8.00000000E-01  8.00000000E-01
  1.50000000E+00  8.00000000E-01  8.00000000E-01  1.50000000E+00  8.00000000E-01
  8.00000000E-01  1.50000000E+00  8.00000000E-01  8.00000000E-01  1.50000000E+00
  8.00000000E-01  8.00000000E-01  1.50000000E+00  8.00000000E-01  8.00000000E-01
  1.50000000E+00  8.00000000E-01  8.00000000E-01  1.50000000E+00  8.00000000E-01
  8.00000000E-01  1.50000000E+00  8.00000000E-01  8.00000000E-01  1.50000000E+00
  8.00000000E-01  8.00000000E-01  1.50000000E+00  8.00000000E-01  8.00000000E-01
  1.50000000E+00  8.00000000E-01  8.00000000E-01  1.50000000E+00  8.00000000E-01
  8.00000000E-01  1.50000000E+00  8.00000000E-01  8.00000000E-01  1.50000000E+00
  8.00000000E-01  8.00000000E-01  1.50000000E+00  8.00000000E-01  8.00000000E-01
  1.50000000E+00  8.00000000E-01  8.00000000E-01  1.50000000E+00  8.00000000E-01
  8.00000000E-01  1.50000000E+00  8.00000000E-01  8.00000000E-01  1.50000000E+00
  8.00000000E-01  8.00000000E-01  1.50000000E+00  8.00000000E-01  8.00000000E-01
  1.50000000E+00  8.00000000E-01  8.00000000E-01  1.50000000E+00  8.00000000E-01
  8.00000000E-01  1.50000000E+00  8.00000000E-01  8.00000000E-01  1.50000000E+00
  8.00000000E-01  8.00000000E-01  1.50000000E+00  8.00000000E-01  8.00000000E-01
  1.50000000E+00  8.00000000E-01  8.00000000E-01  1.50000000E+00  8.00000000E-01
  8.00000000E-01  1.50000000E+00  8.00000000E-01  8.00000000E-01  1.50000000E+00
  8.00000000E-01  8.00000000E-01  1.50000000E+00  8.00000000E-01  8.00000000E-01
  1.50000000E+00  8.00000000E-01  8.00000000E-01  1.50000000E+00  8.00000000E-01
  8.00000000E-01  1.50000000E+00  8.00000000E-01  8.00000000E-01  1.50000000E+00
  8.00000000E-01  8.00000000E-01  1.50000000E+00  8.00000000E-01  8.00000000E-01
  1.50000000E+00  8.00000000E-01  8.00000000E-01  1.50000000E+00  8.00000000E-01
  8.00000000E-01  1.50000000E+00  8.00000000E-01  8.00000000E-01  1.50000000E+00
  8.00000000E-01  8.00000000E-01  1.50000000E+00  8.00000000E-01  8.00000000E-01
  1.50000000E+00  8.00000000E-01  8.00000000E-01  1.50000000E+00  8.00000000E-01
  8.00000000E-01  1.50000000E+00  8.00000000E-01  8.00000000E-01  1.50000000E+00
  8.00000000E-01  8.00000000E-01  1.50000000E+00  8.00000000E-01  8.00000000E-01
  1.50000000E+00  8.00000000E-01  8.00000000E-01  1.50000000E+00  8.00000000E-01
  8.00000000E-01  1.50000000E+00  8.00000000E-01  8.00000000E-01  1.50000000E+00
  8.00000000E-01  8.00000000E-01  1.50000000E+00  8.00000000E-01  8.00000000E-01
  1.50000000E+00  8.00000000E-01  8.00000000E-01  1.50000000E+00  8.00000000E-01
  8.00000000E-01  1.50000000E+00  8.00000000E-01  8.00000000E-01  1.50000000E+00
  8.00000000E-01  8.00000000E-01  1.50000000E+00  8.00000000E-01  8.00000000E-01
  1.50000000E+00  8.00000000E-01  8.00000000E-01  1.50000000E+00  8.00000000E-01
  8.00000000E-01  1.50000000E+00  8.00000000E-01  8.00000000E-01  1.50000000E+00
  8.00000000E-01  8.00000000E-01  1.50000000E+00  8.00000000E-01  8.00000000E-01
  1.50000000E+00  8.00000000E-01  8.00000000E-01  1.50000000E+00  8.00000000E-01
  8.00000000E-01  1.50000000E+00  8.00000000E-01  8.00000000E-01  1.50000000E+00
  8.00000000E-01  8.00000000E-01  1.50000000E+00  8.00000000E-01  8.00000000E-01
  1.50000000E+00  8.00000000E-01  8.00000000E-01  1.50000000E+00  8.00000000E-01
  8.00000000E-01  1.50000000E+00  8.00000000E-01  8.00000000E-01  1.50000000E+00
  8.00000000E-01  8.00000000E-01  1.50000000E+00  8.00000000E-01  8.00000000E-01
  1.50000000E+00  8.00000000E-01  8.00000000E-01  1.50000000E+00  8.00000000E-01
  8.00000000E-01  1.50000000E+00  8.00000000E-01  8.00000000E-01  1.50000000E+00
  8.00000000E-01  8.00000000E-01  1.50000000E+00  8.00000000E-01  8.00000000E-01
  1.50000000E+00  8.00000000E-01  8.00000000E-01  1.50000000E+00  8.00000000E-01
  8.00000000E-01  1.50000000E+00  8.00000000E-01  8.00000000E-01  1.50000000E+00
  8.00000000E-01  8.00000000E-01  1.50000000E+00  8.00000000E-01  8.00000000E-01
  1.50000000E+00  8.00000000E-01  8.00000000E-01  1.50000000E+00  8.00000000E-01
  8.00000000E-01  1.50000000E+00  8.00000000E-01  8.00000000E-01  1.50000000E+00
  8.00000000E-01  8.00000000E-01  1.50000000E+00  8.00000000E-01  8.00000000E-01
  1.50000000E+00  8.00000000E-01  8.00000000E-01  1.50000000E+00  8.00000000E-01
  8.00000000E-01  1.50000000E+00  8.00000000E-01  8.00000000E-01  1.50000000E+00
  8.00000000E-01  8.00000000E-01  1.50000000E+00  8.00000000E-01  8.00000000E-01
  1.50000000E+00  8.00000000E-01  8.00000000E-01  1.50000000E+00  8.00000000E-01
  8.00000000E-01  1.50000000E+00  8.00000000E-01  8.00000000E-01  1.50000000E+00
  8.00000000E-01  8.00000000E-01  1.50000000E+00  8.00000000E-01  8.00000000E-01
  1.50000000E+00  8.00000000E-01  8.00000000E-01  1.50000000E+00  8.00000000E-01
  8.00000000E-01  1.50000000E+00  8.00000000E-01  8.00000000E-01  1.50000000E+00
  8.00000000E-01  8.00000000E-01  1.50000000E+00  8.00000000E-01  8.00000000E-01
  1.50000000E+00  8.00000000E-01  8.00000000E-01  1.50000000E+00  8.00000000E-01
  8.00000000E-01  1.50000000E+00  8.00000000E-01  8.00000000E-01  1.50000000E+00
  8.00000000E-01  8.00000000E-01  1.50000000E+00  8.00000000E-01  8.00000000E-01
  1.50000000E+00  8.00000000E-01  8.00000000E-01  1.50000000E+00  8.00000000E-01
  8.00000000E-01  1.50000000E+00  8.00000000E-01  8.00000000E-01  1.50000000E+00
  8.00000000E-01  8.00000000E-01  1.50000000E+00  8.00000000E-01  8.00000000E-01
  1.50000000E+00  8.00000000E-01  8.00000000E-01  1.50000000E+00  8.00000000E-01
  8.00000000E-01  1.50000000E+00  8.00000000E-01  8.00000000E-01  1.50000000E+00
  8.00000000E-01  8.00000000E-01  1.50000000E+00  8.00000000E-01  8.00000000E-01
  1.50000000E+00  8.00000000E-01  8.00000000E-01  1.50000000E+00  8.00000000E-01
  8.00000000E-01  1.50000000E+00  8.00000000E-01  8.00000000E-01  1.50000000E+00
  8.00000000E-01  8.00000000E-01  1.50000000E+00  8.00000000E-01  8.00000000E-01
  1.50000000E+00  8.00000000E-01  8.00000000E-01  1.50000000E+00  8.00000000E-01
  8.00000000E-01  1.50000000E+00  8.00000000E-01  8.00000000E-01  1.50000000E+00
  8.00000000E-01  8.00000000E-01  1.50000000E+00  8.00000000E-01  8.00000000E-01
  1.50000000E+00  8.00000000E-01  8.00000000E-01  1.50000000E+00  8.00000000E-01
  8.00000000E-01  1.50000000E+00  8.00000000E-01  8.00000000E-01  1.50000000E+00
  8.00000000E-01  8.00000000E-01  1.50000000E+00  8.00000000E-01  8.00000000E-01
  1.50000000E+00  8.00000000E-01  8.00000000E-01  1.50000000E+00  8.00000000E-01
  8.00000000E-01  1.50000000E+00  8.00000000E-01  8.00000000E-01  1.50000000E+00
  8.00000000E-01  8.00000000E-01  1.50000000E+00  8.00000000E-01  8.00000000E-01
  1.50000000E+00  8.00000000E-01  8.00000000E-01  1.50000000E+00  8.00000000E-01
  8.00000000E-01  1.50000000E+00  8.00000000E-01  8.00000000E-01  1.50000000E+00
  8.00000000E-01  8.00000000E-01  1.50000000E+00  8.00000000E-01  8.00000000E-01
  1.50000000E+00  8.00000000E-01  8.00000000E-01  1.50000000E+00  8.00000000E-01
  8.00000000E-01  1.50000000E+00  8.00000000E-01  8.00000000E-01  1.50000000E+00
  8.00000000E-01  8.00000000E-01  1.50000000E+00  8.00000000E-01  8.00000000E-01
  1.50000000E+00  8.00000000E-01  8.00000000E-01  1.50000000E+00  8.00000000E-01
  8.00000000E-01  1.50000000E+00  8.00000000E-01  8.00000000E-01  1.50000000E+00
  8.00000000E-01  8.00000000E-01  1.50000000E+00  8.00000000E-01  8.00000000E-01
  1.50000000E+00  8.00000000E-01  8.00000000E-01  1.50000000E+00  8.00000000E-01
  8.00000000E-01  1.50000000E+00  8.00000000E-01  8.00000000E-01  1.50000000E+00
  8.00000000E-01  8.00000000E-01  1.50000000E+00  8.00000000E-01  8.00000000E-01
  1.50000000E+00  8.00000000E-01  8.00000000E-01  1.50000000E+00  8.00000000E-01
  8.00000000E-01  1.50000000E+00  8.00000000E-01  8.00000000E-01  1.50000000E+00
  8.00000000E-01  8.00000000E-01  1.50000000E+00  8.00000000E-01  8.00000000E-01
  1.50000000E+00  8.00000000E-01  8.00000000E-01  1.50000000E+00  8.00000000E-01
  8.00000000E-01  1.50000000E+00  8.00000000E-01  8.00000000E-01  1.50000000E+00
  8.00000000E-01  8.00000000E-01  1.50000000E+00  8.00000000E-01  8.00000000E-01
  1.50000000E+00  8.00000000E-01  8.00000000E-01  1.50000000E+00  8.00000000E-01
  8.00000000E-01  1.50000000E+00  8.00000000E-01  8.00000000E-01  1.50000000E+00
  8.00000000E-01  8.00000000E-01  1.50000000E+00  8.00000000E-01  8.00000000E-01
  1.50000000E+00  8.00000000E-01  8.00000000E-01  1.50000000E+00  8.00000000E-01
  8.00000000E-01  1.50000000E+00  8.00000000E-01  8.00000000E-01  1.50000000E+00
  8.00000000E-01  8.00000000E-01  1.50000000E+00  8.00000000E-01  8.00000000E-01
  1.50000000E+00  8.00000000E-01  8.00000000E-01  1.50000000E+00  8.00000000E-01
  8.00000000E-01  1.50000000E+00  8.00000000E-01  8.00000000E-01  1.50000000E+00
  8.00000000E-01  8.00000000E-01  1.50000000E+00  8.00000000E-01  8.00000000E-01
  1.50000000E+00  8.00000000E-01  8.00000000E-01  1.50000000E+00  8.00000000E-01
  8.00000000E-01  1.50000000E+00  8.00000000E-01  8.00000000E-01  1.50000000E+00
  8.00000000E-01  8.00000000E-01  1.50000000E+00  8.00000000E-01  8.00000000E-01
  1.50000000E+00  8.00000000E-01  8.00000000E-01  1.50000000E+00  8.00000000E-01
  8.00000000E-01  1.50000000E+00  8.00000000E-01  8.00000000E-01  1.50000000E+00
  8.00000000E-01  8.00000000E-01  1.50000000E+00  8.00000000E-01  8.00000000E-01
  1.50000000E+00  8.00000000E-01  8.00000000E-01  1.50000000E+00  8.00000000E-01
  8.00000000E-01  1.50000000E+00  8.00000000E-01  8.00000000E-01  1.50000000E+00
  8.00000000E-01  8.00000000E-01  1.50000000E+00  8.00000000E-01  8.00000000E-01
  1.50000000E+00  8.00000000E-01  8.00000000E-01  1.50000000E+00  8.00000000E-01
  8.00000000E-01  1.50000000E+00  8.00000000E-01  8.00000000E-01  1.50000000E+00
  8.00000000E-01  8.00000000E-01  1.50000000E+00  8.00000000E-01  8.00000000E-01
  1.50000000E+00  8.00000000E-01  8.00000000E-01  1.50000000E+00  8.00000000E-01
  8.00000000E-01  1.50000000E+00  8.00000000E-01  8.00000000E-01  1.50000000E+00
  8.00000000E-01  8.00000000E-01  1.50000000E+00  8.00000000E-01  8.00000000E-01
  1.50000000E+00  8.00000000E-01  8.00000000E-01  1.50000000E+00  8.00000000E-01
  8.00000000E-01  1.50000000E+00  8.00000000E-01  8.00000000E-01  1.50000000E+00
  8.00000000E-01  8.00000000E-01  1.50000000E+00  8.00000000E-01  8.00000000E-01
  1.50000000E+00  8.00000000E-01  8.00000000E-01  1.50000000E+00  8.00000000E-01
  8.00000000E-01  1.50000000E+00  8.00000000E-01  8.00000000E-01  1.50000000E+00
  8.00000000E-01  8.00000000E-01  1.50000000E+00  8.00000000E-01  8.00000000E-01
  1.50000000E+00  8.00000000E-01  8.00000000E-01  1.50000000E+00  8.00000000E-01
  8.00000000E-01  1.50000000E+00  8.00000000E-01  8.00000000E-01  1.50000000E+00
  8.00000000E-01  8.00000000E-01  1.50000000E+00  8.00000000E-01  8.00000000E-01
  1.50000000E+00  8.00000000E-01  8.00000000E-01  1.50000000E+00  8.00000000E-01
  8.00000000E-01  1.50000000E+00  8.00000000E-01  8.00000000E-01  1.50000000E+00
  8.00000000E-01  8.00000000E-01  1.50000000E+00  8.00000000E-01  8.00000000E-01
  1.50000000E+00  8.00000000E-01  8.00000000E-01  1.50000000E+00  8.00000000E-01
  8.00000000E-01  1.50000000E+00  8.00000000E-01  8.00000000E-01  1.50000000E+00
  8.00000000E-01  8.00000000E-01  1.50000000E+00  8.00000000E-01  8.00000000E-01
  1.50000000E+00  8.00000000E-01  8.00000000E-01  1.50000000E+00  8.00000000E-01
  8.00000000E-01  1.50000000E+00  8.00000000E-01  8.00000000E-01  1.50000000E+00
  8.00000000E-01  8.00000000E-01  1.50000000E+00  8.00000000E-01  8.00000000E-01
  1.50000000E+00  8.00000000E-01  8.00000000E-01  1.50000000E+00  8.00000000E-01
  8.00000000E-01  1.50000000E+00  8.00000000E-01  8.00000000E-01  1.50000000E+00
  8.00000000E-01  8.00000000E-01  1.50000000E+00  8.00000000E-01  8.00000000E-01
  1.50000000E+00  8.00000000E-01  8.00000000E-01  1.50000000E+00  8.00000000E-01
  8.00000000E-01  1.50000000E+00  8.00000000E-01  8.00000000E-01  1.50000000E+00
  8.00000000E-01  8.00000000E-01  1.50000000E+00  8.00000000E-01  8.00000000E-01
  1.50000000E+00  8.00000000E-01  8.00000000E-01  1.50000000E+00  8.00000000E-01
  8.00000000E-01  1.50000000E+00  8.00000000E-01  8.00000000E-01  1.50000000E+00
  8.00000000E-01  8.00000000E-01  1.50000000E+00  8.00000000E-01  8.00000000E-01
  1.50000000E+00  8.00000000E-01  8.00000000E-01  1.50000000E+00  8.00000000E-01
  8.00000000E-01  1.50000000E+00  8.00000000E-01  8.00000000E-01  1.50000000E+00
  8.00000000E-01  8.00000000E-01  1.50000000E+00  8.00000000E-01  8.00000000E-01
  1.50000000E+00  8.00000000E-01  8.00000000E-01  1.50000000E+00  8.00000000E-01
  8.00000000E-01  1.50000000E+00  8.00000000E-01  8.00000000E-01  1.50000000E+00
  8.00000000E-01  8.00000000E-01  1.50000000E+00  8.00000000E-01  8.00000000E-01
  1.50000000E+00  8.00000000E-01  8.00000000E-01  1.50000000E+00  8.00000000E-01
  8.00000000E-01  1.50000000E+00  8.00000000E-01  8.00000000E-01  1.50000000E+00
  8.00000000E-01  8.00000000E-01  1.50000000E+00  8.00000000E-01  8.00000000E-01
  1.50000000E+00  8.00000000E-01  8.00000000E-01  1.50000000E+00  8.00000000E-01
  8.00000000E-01  1.50000000E+00  8.00000000E-01  8.00000000E-01  1.50000000E+00
  8.00000000E-01  8.00000000E-01  1.50000000E+00  8.00000000E-01  8.00000000E-01
  1.50000000E+00  8.00000000E-01  8.00000000E-01  1.50000000E+00  8.00000000E-01
  8.00000000E-01  1.50000000E+00  8.00000000E-01  8.00000000E-01  1.50000000E+00
  8.00000000E-01  8.00000000E-01  1.50000000E+00  8.00000000E-01  8.00000000E-01
  1.50000000E+00  8.00000000E-01  8.00000000E-01  1.50000000E+00  8.00000000E-01
  8.00000000E-01  1.50000000E+00  8.00000000E-01  8.00000000E-01  1.50000000E+00
  8.00000000E-01  8.00000000E-01  1.50000000E+00  8.00000000E-01  8.00000000E-01
  1.50000000E+00  8.00000000E-01  8.00000000E-01  1.50000000E+00  8.00000000E-01
  8.00000000E-01  1.50000000E+00  8.00000000E-01  8.00000000E-01  1.50000000E+00
  8.00000000E-01  8.00000000E-01  1.50000000E+00  8.00000000E-01  8.00000000E-01
  1.50000000E+00  8.00000000E-01  8.00000000E-01  1.50000000E+00  8.00000000E-01
  8.00000000E-01  1.50000000E+00  8.00000000E-01  8.00000000E-01  1.50000000E+00
  8.00000000E-01  8.00000000E-01  1.50000000E+00  8.00000000E-01  8.00000000E-01
  1.50000000E+00  8.00000000E-01  8.00000000E-01  1.50000000E+00  8.00000000E-01
  8.00000000E-01  1.50000000E+00  8.00000000E-01  8.00000000E-01  1.50000000E+00
  8.00000000E-01  8.00000000E-01  1.50000000E+00  8.00000000E-01  8.00000000E-01
  1.50000000E+00  8.00000000E-01  8.00000000E-01  1.50000000E+00  8.00000000E-01
  8.00000000E-01  1.50000000E+00  8.00000000E-01  8.00000000E-01  1.50000000E+00
  8.00000000E-01  8.00000000E-01  1.50000000E+00  8.00000000E-01  8.00000000E-01
  1.50000000E+00  8.00000000E-01  8.00000000E-01  1.50000000E+00  8.00000000E-01
  8.00000000E-01  1.50000000E+00  8.00000000E-01  8.00000000E-01  1.50000000E+00
  8.00000000E-01  8.00000000E-01  1.50000000E+00  8.00000000E-01  8.00000000E-01
  1.50000000E+00  8.00000000E-01  8.00000000E-01  1.50000000E+00  8.00000000E-01
  8.00000000E-01  1.50000000E+00  8.00000000E-01  8.00000000E-01  1.50000000E+00
  8.00000000E-01  8.00000000E-01  1.50000000E+00  8.00000000E-01  8.00000000E-01
  1.50000000E+00  8.00000000E-01  8.00000000E-01  1.50000000E+00  8.00000000E-01
  8.00000000E-01  1.50000000E+00  8.00000000E-01  8.00000000E-01  1.50000000E+00
  8.00000000E-01  8.00000000E-01  1.50000000E+00  8.00000000E-01  8.00000000E-01
  1.50000000E+00  8.00000000E-01  8.00000000E-01  1.50000000E+00  8.00000000E-01
  8.00000000E-01  1.50000000E+00  8.00000000E-01  8.00000000E-01  1.50000000E+00
  8.00000000E-01  8.00000000E-01  1.50000000E+00  8.00000000E-01  8.00000000E-01
  1.50000000E+00  8.00000000E-01  8.00000000E-01  1.50000000E+00  8.00000000E-01
  8.00000000E-01  1.50000000E+00  8.00000000E-01  8.00000000E-01  1.50000000E+00
  8.00000000E-01  8.00000000E-01  1.50000000E+00  8.00000000E-01  8.00000000E-01
  1.50000000E+00  8.00000000E-01  8.00000000E-01  1.50000000E+00  8.00000000E-01
  8.00000000E-01  1.50000000E+00  8.00000000E-01  8.00000000E-01  1.50000000E+00
  8.00000000E-01  8.00000000E-01  1.50000000E+00  8.00000000E-01  8.00000000E-01
  1.50000000E+00  8.00000000E-01  8.00000000E-01  1.50000000E+00  8.00000000E-01
  8.00000000E-01  1.50000000E+00  8.00000000E-01  8.00000000E-01  1.50000000E+00
  8.00000000E-01  8.00000000E-01  1.50000000E+00  8.00000000E-01  8.00000000E-01
  1.50000000E+00  8.00000000E-01  8.00000000E-01  1.50000000E+00  8.00000000E-01
  8.00000000E-01  1.50000000E+00  8.00000000E-01  8.00000000E-01  1.50000000E+00
  8.00000000E-01  8.00000000E-01  1.50000000E+00  8.00000000E-01  8.00000000E-01
  1.50000000E+00  8.00000000E-01  8.00000000E-01  1.50000000E+00  8.00000000E-01
  8.00000000E-01  1.50000000E+00  8.00000000E-01  8.00000000E-01  1.50000000E+00
  8.00000000E-01  8.00000000E-01  1.50000000E+00  8.00000000E-01  8.00000000E-01
  1.50000000E+00  8.00000000E-01  8.00000000E-01  1.50000000E+00  8.00000000E-01
  8.00000000E-01  1.50000000E+00  8.00000000E-01  8.00000000E-01  1.50000000E+00
  8.00000000E-01  8.00000000E-01  1.50000000E+00  8.00000000E-01  8.00000000E-01
  1.50000000E+00  8.00000000E-01  8.00000000E-01  1.50000000E+00  8.00000000E-01
  8.00000000E-01  1.50000000E+00  8.00000000E-01  8.00000000E-01  1.50000000E+00
  8.00000000E-01  8.00000000E-01  1.50000000E+00  8.00000000E-01  8.00000000E-01
  1.50000000E+00  8.00000000E-01  8.00000000E-01  1.50000000E+00  8.00000000E-01
  8.00000000E-01  1.50000000E+00  8.00000000E-01  8.00000000E-01  1.50000000E+00
  8.00000000E-01  8.00000000E-01  1.50000000E+00  8.00000000E-01  8.00000000E-01
  1.50000000E+00  8.00000000E-01  8.00000000E-01  1.50000000E+00  8.00000000E-01
  8.00000000E-01  1.50000000E+00  8.00000000E-01  8.00000000E-01  1.50000000E+00
  8.00000000E-01  8.00000000E-01  1.50000000E+00  8.00000000E-01  8.00000000E-01
  1.50000000E+00  8.00000000E-01  8.00000000E-01  1.50000000E+00  8.00000000E-01
  8.00000000E-01  1.50000000E+00  8.00000000E-01  8.00000000E-01  1.50000000E+00
  8.00000000E-01  8.00000000E-01  1.50000000E+00  8.00000000E-01  8.00000000E-01
  1.50000000E+00  8.00000000E-01  8.00000000E-01  1.50000000E+00  8.00000000E-01
  8.00000000E-01  1.50000000E+00  8.00000000E-01  8.00000000E-01  1.50000000E+00
  8.00000000E-01  8.00000000E-01  1.50000000E+00  8.00000000E-01  8.00000000E-01
  1.50000000E+00  8.00000000E-01  8.00000000E-01  1.50000000E+00  8.00000000E-01
  8.00000000E-01  1.50000000E+00  8.00000000E-01  8.00000000E-01  1.50000000E+00
  8.00000000E-01  8.00000000E-01  1.50000000E+00  8.00000000E-01  8.00000000E-01
  1.50000000E+00  8.00000000E-01  8.00000000E-01  1.50000000E+00  8.00000000E-01
  8.00000000E-01  1.50000000E+00  8.00000000E-01  8.00000000E-01  1.50000000E+00
  8.00000000E-01  8.00000000E-01  1.50000000E+00  8.00000000E-01  8.00000000E-01
  1.50000000E+00  8.00000000E-01  8.00000000E-01  1.50000000E+00  8.00000000E-01
  8.00000000E-01  1.50000000E+00  8.00000000E-01  8.00000000E-01  1.50000000E+00
  8.00000000E-01  8.00000000E-01  1.50000000E+00  8.00000000E-01  8.00000000E-01
  1.50000000E+00  8.00000000E-01  8.00000000E-01  1.50000000E+00  8.00000000E-01
  8.00000000E-01  1.50000000E+00  8.00000000E-01  8.00000000E-01  1.50000000E+00
  8.00000000E-01  8.00000000E-01  1.50000000E+00  8.00000000E-01  8.00000000E-01
  1.50000000E+00  8.00000000E-01  8.00000000E-01  1.50000000E+00  8.00000000E-01
  8.00000000E-01  1.50000000E+00  8.00000000E-01  8.00000000E-01  1.50000000E+00
  8.00000000E-01  8.00000000E-01  1.50000000E+00  8.00000000E-01  8.00000000E-01
  1.50000000E+00  8.00000000E-01  8.00000000E-01  1.50000000E+00  8.00000000E-01
  8.00000000E-01  1.50000000E+00  8.00000000E-01  8.00000000E-01  1.50000000E+00
  8.00000000E-01  8.00000000E-01  1.50000000E+00  8.00000000E-01  8.00000000E-01
  1.50000000E+00  8.00000000E-01  8.00000000E-01  1.50000000E+00  8.00000000E-01
  8.00000000E-01  1.50000000E+00  8.00000000E-01  8.00000000E-01  1.50000000E+00
  8.00000000E-01  8.00000000E-01  1.50000000E+00  8.00000000E-01  8.00000000E-01
  1.50000000E+00  8.00000000E-01  8.00000000E-01  1.50000000E+00  8.00000000E-01
  8.00000000E-01  1.50000000E+00  8.00000000E-01  8.00000000E-01  1.50000000E+00
  8.00000000E-01  8.00000000E-01  1.50000000E+00  8.00000000E-01  8.00000000E-01
  1.50000000E+00  8.00000000E-01  8.00000000E-01  1.50000000E+00  8.00000000E-01
  8.00000000E-01  1.50000000E+00  8.00000000E-01  8.00000000E-01  1.50000000E+00
  8.00000000E-01  8.00000000E-01  1.50000000E+00  8.00000000E-01  8.00000000E-01
  1.50000000E+00  8.00000000E-01  8.00000000E-01  1.50000000E+00  8.00000000E-01
  8.00000000E-01  1.50000000E+00  8.00000000E-01  8.00000000E-01  1.50000000E+00
  8.00000000E-01  8.00000000E-01  1.50000000E+00  8.00000000E-01  8.00000000E-01
  1.50000000E+00  8.00000000E-01  8.00000000E-01  1.50000000E+00  8.00000000E-01
  8.00000000E-01  1.50000000E+00  8.00000000E-01  8.00000000E-01  1.50000000E+00
  8.00000000E-01  8.00000000E-01  1.50000000E+00  8.00000000E-01  8.00000000E-01
  1.50000000E+00  8.00000000E-01  8.00000000E-01  1.50000000E+00  8.00000000E-01
  8.00000000E-01  1.50000000E+00  8.00000000E-01  8.00000000E-01  1.50000000E+00
  8.00000000E-01  8.00000000E-01  1.50000000E+00  8.00000000E-01  8.00000000E-01
  1.50000000E+00  8.00000000E-01  8.00000000E-01  1.50000000E+00  8.00000000E-01
  8.00000000E-01  1.50000000E+00  8.00000000E-01  8.00000000E-01  1.50000000E+00
  8.00000000E-01  8.00000000E-01  1.50000000E+00  8.00000000E-01  8.00000000E-01
  1.50000000E+00  8.00000000E-01  8.00000000E-01  1.50000000E+00  8.00000000E-01
  8.00000000E-01  1.50000000E+00  8.00000000E-01  8.00000000E-01  1.50000000E+00
  8.00000000E-01  8.00000000E-01  1.50000000E+00  8.00000000E-01  8.00000000E-01
  1.50000000E+00  8.00000000E-01  8.00000000E-01  1.50000000E+00  8.00000000E-01
  8.00000000E-01  1.50000000E+00  8.00000000E-01  8.00000000E-01  1.50000000E+00
  8.00000000E-01  8.00000000E-01  1.50000000E+00  8.00000000E-01  8.00000000E-01
  1.50000000E+00  8.00000000E-01  8.00000000E-01  1.50000000E+00  8.00000000E-01
  8.00000000E-01  1.50000000E+00  8.00000000E-01  8.00000000E-01  1.50000000E+00
  8.00000000E-01  8.00000000E-01  1.50000000E+00  8.00000000E-01  8.00000000E-01
  1.50000000E+00  8.00000000E-01  8.00000000E-01  1.50000000E+00  8.00000000E-01
  8.00000000E-01  1.50000000E+00  8.00000000E-01  8.00000000E-01  1.50000000E+00
  8.00000000E-01  8.00000000E-01  1.50000000E+00  8.00000000E-01  8.00000000E-01
  1.50000000E+00  8.00000000E-01  8.00000000E-01  1.50000000E+00  8.00000000E-01
  8.00000000E-01  1.50000000E+00  8.00000000E-01  8.00000000E-01  1.50000000E+00
  8.00000000E-01  8.00000000E-01  1.50000000E+00  8.00000000E-01  8.00000000E-01
  1.50000000E+00  8.00000000E-01  8.00000000E-01  1.50000000E+00  8.00000000E-01
  8.00000000E-01  1.50000000E+00  8.00000000E-01  8.00000000E-01  1.50000000E+00
  8.00000000E-01  8.00000000E-01  1.50000000E+00  8.00000000E-01  8.00000000E-01
  1.50000000E+00  8.00000000E-01  8.00000000E-01  1.50000000E+00  8.00000000E-01
  8.00000000E-01  1.50000000E+00  8.00000000E-01  8.00000000E-01  1.50000000E+00
  8.00000000E-01  8.00000000E-01  1.50000000E+00  8.00000000E-01  8.00000000E-01
  1.50000000E+00  8.00000000E-01  8.00000000E-01  1.50000000E+00  8.00000000E-01
  8.00000000E-01  1.50000000E+00  8.00000000E-01  8.00000000E-01  1.50000000E+00
  8.00000000E-01  8.00000000E-01  1.50000000E+00  8.00000000E-01  8.00000000E-01
  1.50000000E+00  8.00000000E-01  8.00000000E-01  1.50000000E+00  8.00000000E-01
  8.00000000E-01  1.50000000E+00  8.00000000E-01  8.00000000E-01  1.50000000E+00
  8.00000000E-01  8.00000000E-01  1.50000000E+00  8.00000000E-01  8.00000000E-01
  1.50000000E+00  8.00000000E-01  8.00000000E-01  1.50000000E+00  8.00000000E-01
  8.00000000E-01  1.50000000E+00  8.00000000E-01  8.00000000E-01  1.50000000E+00
  8.00000000E-01  8.00000000E-01  1.50000000E+00  8.00000000E-01  8.00000000E-01
  1.50000000E+00  8.00000000E-01  8.00000000E-01  1.50000000E+00  8.00000000E-01
  8.00000000E-01  1.50000000E+00  8.00000000E-01  8.00000000E-01  1.50000000E+00
  8.00000000E-01  8.00000000E-01  1.50000000E+00  8.00000000E-01  8.00000000E-01
  1.50000000E+00  8.00000000E-01  8.00000000E-01  1.50000000E+00  8.00000000E-01
  8.00000000E-01  1.50000000E+00  8.00000000E-01  8.00000000E-01  1.50000000E+00
  8.00000000E-01  8.00000000E-01  1.50000000E+00  8.00000000E-01  8.00000000E-01
  1.50000000E+00  8.00000000E-01  8.00000000E-01  1.50000000E+00  8.00000000E-01
  8.00000000E-01  1.50000000E+00  8.00000000E-01  8.00000000E-01  1.50000000E+00
  8.00000000E-01  8.00000000E-01  1.50000000E+00  8.00000000E-01  8.00000000E-01
  1.50000000E+00  8.00000000E-01  8.00000000E-01  1.50000000E+00  8.00000000E-01
  8.00000000E-01  1.50000000E+00  8.00000000E-01  8.00000000E-01  1.50000000E+00
  8.00000000E-01  8.00000000E-01  1.50000000E+00  8.00000000E-01  8.00000000E-01
  1.50000000E+00  8.00000000E-01  8.00000000E-01  1.50000000E+00  8.00000000E-01
  8.00000000E-01  1.50000000E+00  8.00000000E-01  8.00000000E-01  1.50000000E+00
  8.00000000E-01  8.00000000E-01  1.50000000E+00  8.00000000E-01  8.00000000E-01
  1.50000000E+00  8.00000000E-01  8.00000000E-01  1.50000000E+00  8.00000000E-01
  8.00000000E-01  1.50000000E+00  8.00000000E-01  8.00000000E-01  1.50000000E+00
  8.00000000E-01  8.00000000E-01  1.50000000E+00  8.00000000E-01  8.00000000E-01
  1.50000000E+00  8.00000000E-01  8.00000000E-01  1.50000000E+00  8.00000000E-01
  8.00000000E-01  1.50000000E+00  8.00000000E-01  8.00000000E-01  1.50000000E+00
  8.00000000E-01  8.00000000E-01  1.50000000E+00  8.00000000E-01  8.00000000E-01
  1.50000000E+00  8.00000000E-01  8.00000000E-01  1.50000000E+00  8.00000000E-01
  8.00000000E-01  1.50000000E+00  8.00000000E-01  8.00000000E-01  1.50000000E+00
  8.00000000E-01  8.00000000E-01  1.50000000E+00  8.00000000E-01  8.00000000E-01
  1.50000000E+00  8.00000000E-01  8.00000000E-01  1.50000000E+00  8.00000000E-01
  8.00000000E-01  1.50000000E+00  8.00000000E-01  8.00000000E-01  1.50000000E+00
  8.00000000E-01  8.00000000E-01  1.50000000E+00  8.00000000E-01  8.00000000E-01
  1.50000000E+00  8.00000000E-01  8.00000000E-01  1.50000000E+00  8.00000000E-01
  8.00000000E-01  1.50000000E+00  8.00000000E-01  8.00000000E-01  1.50000000E+00
  8.00000000E-01  8.00000000E-01  1.50000000E+00  8.00000000E-01  8.00000000E-01
  1.50000000E+00  8.00000000E-01  8.00000000E-01  1.50000000E+00  8.00000000E-01
  8.00000000E-01  1.50000000E+00  8.00000000E-01  8.00000000E-01  1.50000000E+00
  8.00000000E-01  8.00000000E-01  1.50000000E+00  8.00000000E-01  8.00000000E-01
  1.50000000E+00  8.00000000E-01  8.00000000E-01  1.50000000E+00  8.00000000E-01
  8.00000000E-01  1.50000000E+00  8.00000000E-01  8.00000000E-01  1.50000000E+00
  8.00000000E-01  8.00000000E-01  1.50000000E+00  8.00000000E-01  8.00000000E-01
  1.50000000E+00  8.00000000E-01  8.00000000E-01  1.50000000E+00  8.00000000E-01
  8.00000000E-01  1.50000000E+00  8.00000000E-01  8.00000000E-01  1.50000000E+00
  8.00000000E-01  8.00000000E-01  1.50000000E+00  8.00000000E-01  8.00000000E-01
  1.50000000E+00  8.00000000E-01  8.00000000E-01  1.50000000E+00  8.00000000E-01
  8.00000000E-01  1.50000000E+00  8.00000000E-01  8.00000000E-01  1.50000000E+00
  8.00000000E-01  8.00000000E-01  1.50000000E+00  8.00000000E-01  8.00000000E-01
  1.50000000E+00  8.00000000E-01  8.00000000E-01  1.50000000E+00  8.00000000E-01
  8.00000000E-01  1.50000000E+00  8.00000000E-01  8.00000000E-01  1.50000000E+00
  8.00000000E-01  8.00000000E-01  1.50000000E+00  8.00000000E-01  8.00000000E-01
  1.50000000E+00  8.00000000E-01  8.00000000E-01  1.50000000E+00  8.00000000E-01
  8.00000000E-01  1.50000000E+00  8.00000000E-01  8.00000000E-01  1.50000000E+00
  8.00000000E-01  8.00000000E-01  1.50000000E+00  8.00000000E-01  8.00000000E-01
  1.50000000E+00  8.00000000E-01  8.00000000E-01  1.50000000E+00  8.00000000E-01
  8.00000000E-01  1.50000000E+00  8.00000000E-01  8.00000000E-01  1.50000000E+00
  8.00000000E-01  8.00000000E-01  1.50000000E+00  8.00000000E-01  8.00000000E-01
  1.50000000E+00  8.00000000E-01  8.00000000E-01  1.50000000E+00  8.00000000E-01
  8.00000000E-01  1.50000000E+00  8.00000000E-01  8.00000000E-01  1.50000000E+00
  8.00000000E-01  8.00000000E-01  1.50000000E+00  8.00000000E-01  8.00000000E-01
  1.50000000E+00  8.00000000E-01  8.00000000E-01  1.50000000E+00  8.00000000E-01
  8.00000000E-01  1.50000000E+00  8.00000000E-01  8.00000000E-01  1.50000000E+00
  8.00000000E-01  8.00000000E-01  1.50000000E+00  8.00000000E-01  8.00000000E-01
  1.50000000E+00  8.00000000E-01  8.00000000E-01  1.50000000E+00  8.00000000E-01
  8.00000000E-01  1.50000000E+00  8.00000000E-01  8.00000000E-01  1.50000000E+00
  8.00000000E-01  8.00000000E-01  1.50000000E+00  8.00000000E-01  8.00000000E-01
  1.50000000E+00  8.00000000E-01  8.00000000E-01  1.50000000E+00  8.00000000E-01
  8.00000000E-01  1.50000000E+00  8.00000000E-01  8.00000000E-01  1.50000000E+00
  8.00000000E-01  8.00000000E-01  1.50000000E+00  8.00000000E-01  8.00000000E-01
  1.50000000E+00  8.00000000E-01  8.00000000E-01  1.50000000E+00  8.00000000E-01
  8.00000000E-01  1.50000000E+00  8.00000000E-01  8.00000000E-01  1.50000000E+00
  8.00000000E-01  8.00000000E-01  1.50000000E+00  8.00000000E-01  8.00000000E-01
  1.50000000E+00  8.00000000E-01  8.00000000E-01  1.50000000E+00  8.00000000E-01
  8.00000000E-01  1.50000000E+00  8.00000000E-01  8.00000000E-01  1.50000000E+00
  8.00000000E-01  8.00000000E-01  1.50000000E+00  8.00000000E-01  8.00000000E-01
  1.50000000E+00  8.00000000E-01  8.00000000E-01  1.50000000E+00  8.00000000E-01
  8.00000000E-01  1.50000000E+00  8.00000000E-01  8.00000000E-01  1.50000000E+00
  8.00000000E-01  8.00000000E-01  1.50000000E+00  8.00000000E-01  8.00000000E-01
  1.50000000E+00  8.00000000E-01  8.00000000E-01  1.50000000E+00  8.00000000E-01
  8.00000000E-01  1.50000000E+00  8.00000000E-01  8.00000000E-01  1.50000000E+00
  8.00000000E-01  8.00000000E-01  1.50000000E+00  8.00000000E-01  8.00000000E-01
  1.50000000E+00  8.00000000E-01  8.00000000E-01  1.50000000E+00  8.00000000E-01
  8.00000000E-01  1.50000000E+00  8.00000000E-01  8.00000000E-01  1.50000000E+00
  8.00000000E-01  8.00000000E-01  1.50000000E+00  8.00000000E-01  8.00000000E-01
  1.50000000E+00  8.00000000E-01  8.00000000E-01  1.50000000E+00  8.00000000E-01
  8.00000000E-01  1.50000000E+00  8.00000000E-01  8.00000000E-01  1.50000000E+00
  8.00000000E-01  8.00000000E-01  1.50000000E+00  8.00000000E-01  8.00000000E-01
  1.50000000E+00  8.00000000E-01  8.00000000E-01  1.50000000E+00  8.00000000E-01
  8.00000000E-01  1.50000000E+00  8.00000000E-01  8.00000000E-01  1.50000000E+00
  8.00000000E-01  8.00000000E-01  1.50000000E+00  8.00000000E-01  8.00000000E-01
  1.50000000E+00  8.00000000E-01  8.00000000E-01  1.50000000E+00  8.00000000E-01
  8.00000000E-01  1.50000000E+00  8.00000000E-01  8.00000000E-01  1.50000000E+00
  8.00000000E-01  8.00000000E-01  1.50000000E+00  8.00000000E-01  8.00000000E-01
  1.50000000E+00  8.00000000E-01  8.00000000E-01  1.50000000E+00  8.00000000E-01
  8.00000000E-01  1.50000000E+00  8.00000000E-01  8.00000000E-01  1.50000000E+00
  8.00000000E-01  8.00000000E-01  1.50000000E+00  8.00000000E-01  8.00000000E-01
  1.50000000E+00  8.00000000E-01  8.00000000E-01  1.50000000E+00  8.00000000E-01
  8.00000000E-01  1.50000000E+00  8.00000000E-01  8.00000000E-01  1.50000000E+00
  8.00000000E-01  8.00000000E-01  1.50000000E+00  8.00000000E-01  8.00000000E-01
  1.50000000E+00  8.00000000E-01  8.00000000E-01  1.50000000E+00  8.00000000E-01
  8.00000000E-01  1.50000000E+00  8.00000000E-01  8.00000000E-01  1.50000000E+00
  8.00000000E-01  8.00000000E-01  1.50000000E+00  8.00000000E-01  8.00000000E-01
  1.50000000E+00  8.00000000E-01  8.00000000E-01  1.50000000E+00  8.00000000E-01
  8.00000000E-01  1.50000000E+00  8.00000000E-01  8.00000000E-01  1.50000000E+00
  8.00000000E-01  8.00000000E-01  1.50000000E+00  8.00000000E-01  8.00000000E-01
  1.50000000E+00  8.00000000E-01  8.00000000E-01  1.50000000E+00  8.00000000E-01
  8.00000000E-01  1.50000000E+00  8.00000000E-01  8.00000000E-01  1.50000000E+00
  8.00000000E-01  8.00000000E-01  1.50000000E+00  8.00000000E-01  8.00000000E-01
  1.50000000E+00  8.00000000E-01  8.00000000E-01  1.50000000E+00  8.00000000E-01
  8.00000000E-01  1.50000000E+00  8.00000000E-01  8.00000000E-01  1.50000000E+00
  8.00000000E-01  8.00000000E-01  1.50000000E+00  8.00000000E-01  8.00000000E-01
  1.50000000E+00  8.00000000E-01  8.00000000E-01  1.50000000E+00  8.00000000E-01
  8.00000000E-01  1.50000000E+00  8.00000000E-01  8.00000000E-01  1.50000000E+00
  8.00000000E-01  8.00000000E-01  1.50000000E+00  8.00000000E-01  8.00000000E-01
  1.50000000E+00  8.00000000E-01  8.00000000E-01  1.50000000E+00  8.00000000E-01
  8.00000000E-01  1.50000000E+00  8.00000000E-01  8.00000000E-01  1.50000000E+00
  8.00000000E-01  8.00000000E-01  1.50000000E+00  8.00000000E-01  8.00000000E-01
  1.50000000E+00  8.00000000E-01  8.00000000E-01  1.50000000E+00  8.00000000E-01
  8.00000000E-01  1.50000000E+00  8.00000000E-01  8.00000000E-01  1.50000000E+00
  8.00000000E-01  8.00000000E-01  1.50000000E+00  8.00000000E-01  8.00000000E-01
  1.50000000E+00  8.00000000E-01  8.00000000E-01  1.50000000E+00  8.00000000E-01
  8.00000000E-01  1.50000000E+00  8.00000000E-01  8.00000000E-01  1.50000000E+00
  8.00000000E-01  8.00000000E-01  1.50000000E+00  8.00000000E-01  8.00000000E-01
  1.50000000E+00  8.00000000E-01  8.00000000E-01  1.50000000E+00  8.00000000E-01
  8.00000000E-01  1.50000000E+00  8.00000000E-01  8.00000000E-01  1.50000000E+00
  8.00000000E-01  8.00000000E-01  1.50000000E+00  8.00000000E-01  8.00000000E-01
  1.50000000E+00  8.00000000E-01  8.00000000E-01  1.50000000E+00  8.00000000E-01
  8.00000000E-01  1.50000000E+00  8.00000000E-01  8.00000000E-01  1.50000000E+00
  8.00000000E-01  8.00000000E-01  1.50000000E+00  8.00000000E-01  8.00000000E-01
  1.50000000E+00  8.00000000E-01  8.00000000E-01  1.50000000E+00  8.00000000E-01
  8.00000000E-01  1.50000000E+00  8.00000000E-01  8.00000000E-01  1.50000000E+00
  8.00000000E-01  8.00000000E-01  1.50000000E+00  8.00000000E-01  8.00000000E-01
  1.50000000E+00  8.00000000E-01  8.00000000E-01  1.50000000E+00  8.00000000E-01
  8.00000000E-01  1.50000000E+00  8.00000000E-01  8.00000000E-01  1.50000000E+00
  8.00000000E-01  8.00000000E-01  1.50000000E+00  8.00000000E-01  8.00000000E-01
  1.50000000E+00  8.00000000E-01  8.00000000E-01  1.50000000E+00  8.00000000E-01
  8.00000000E-01  1.50000000E+00  8.00000000E-01  8.00000000E-01  1.50000000E+00
  8.00000000E-01  8.00000000E-01  1.50000000E+00  8.00000000E-01  8.00000000E-01
  1.50000000E+00  8.00000000E-01  8.00000000E-01  1.50000000E+00  8.00000000E-01
  8.00000000E-01  1.50000000E+00  8.00000000E-01  8.00000000E-01  1.50000000E+00
  8.00000000E-01  8.00000000E-01  1.50000000E+00  8.00000000E-01  8.00000000E-01
  1.50000000E+00  8.00000000E-01  8.00000000E-01  1.50000000E+00  8.00000000E-01
  8.00000000E-01  1.50000000E+00  8.00000000E-01  8.00000000E-01  1.50000000E+00
  8.00000000E-01  8.00000000E-01  1.50000000E+00  8.00000000E-01  8.00000000E-01
  1.50000000E+00  8.00000000E-01  8.00000000E-01  1.50000000E+00  8.00000000E-01
  8.00000000E-01  1.50000000E+00  8.00000000E-01  8.00000000E-01  1.50000000E+00
  8.00000000E-01  8.00000000E-01  1.50000000E+00  8.00000000E-01  8.00000000E-01
  1.50000000E+00  8.00000000E-01  8.00000000E-01  1.50000000E+00  8.00000000E-01
  8.00000000E-01  1.50000000E+00  8.00000000E-01  8.00000000E-01  1.50000000E+00
  8.00000000E-01  8.00000000E-01  1.50000000E+00  8.00000000E-01  8.00000000E-01
  1.50000000E+00  8.00000000E-01  8.00000000E-01  1.50000000E+00  8.00000000E-01
  8.00000000E-01  1.50000000E+00  8.00000000E-01  8.00000000E-01  1.50000000E+00
  8.00000000E-01  8.00000000E-01  1.50000000E+00  8.00000000E-01  8.00000000E-01
  1.50000000E+00  8.00000000E-01  8.00000000E-01  1.50000000E+00  8.00000000E-01
  8.00000000E-01  1.50000000E+00  8.00000000E-01  8.00000000E-01  1.50000000E+00
  8.00000000E-01  8.00000000E-01  1.50000000E+00  8.00000000E-01  8.00000000E-01
  1.50000000E+00  8.00000000E-01  8.00000000E-01  1.50000000E+00  8.00000000E-01
  8.00000000E-01  1.50000000E+00  8.00000000E-01  8.00000000E-01  1.50000000E+00
  8.00000000E-01  8.00000000E-01  1.50000000E+00  8.00000000E-01  8.00000000E-01
  1.50000000E+00  8.00000000E-01  8.00000000E-01  1.50000000E+00  8.00000000E-01
  8.00000000E-01  1.50000000E+00  8.00000000E-01  8.00000000E-01  1.50000000E+00
  8.00000000E-01  8.00000000E-01  1.50000000E+00  8.00000000E-01  8.00000000E-01
  1.50000000E+00  8.00000000E-01  8.00000000E-01  1.50000000E+00  8.00000000E-01
  8.00000000E-01  1.50000000E+00  8.00000000E-01  8.00000000E-01  1.50000000E+00
  8.00000000E-01  8.00000000E-01  1.50000000E+00  8.00000000E-01  8.00000000E-01
  1.50000000E+00  8.00000000E-01  8.00000000E-01  1.50000000E+00  8.00000000E-01
  8.00000000E-01  1.50000000E+00  8.00000000E-01  8.00000000E-01  1.50000000E+00
  8.00000000E-01  8.00000000E-01  1.50000000E+00  8.00000000E-01  8.00000000E-01
  1.50000000E+00  8.00000000E-01  8.00000000E-01  1.50000000E+00  8.00000000E-01
  8.00000000E-01  1.50000000E+00  8.00000000E-01  8.00000000E-01  1.50000000E+00
  8.00000000E-01  8.00000000E-01  1.50000000E+00  8.00000000E-01  8.00000000E-01
  1.50000000E+00  8.00000000E-01  8.00000000E-01  1.50000000E+00  8.00000000E-01
  8.00000000E-01  1.50000000E+00  8.00000000E-01  8.00000000E-01  1.50000000E+00
  8.00000000E-01  8.00000000E-01  1.50000000E+00  8.00000000E-01  8.00000000E-01
  1.50000000E+00  8.00000000E-01  8.00000000E-01  1.50000000E+00  8.00000000E-01
  8.00000000E-01  1.50000000E+00  8.00000000E-01  8.00000000E-01  1.50000000E+00
  8.00000000E-01  8.00000000E-01  1.50000000E+00  8.00000000E-01  8.00000000E-01
  1.50000000E+00  8.00000000E-01  8.00000000E-01  1.50000000E+00  8.00000000E-01
  8.00000000E-01  1.50000000E+00  8.00000000E-01  8.00000000E-01  1.50000000E+00
  8.00000000E-01  8.00000000E-01  1.50000000E+00  8.00000000E-01  8.00000000E-01
  1.50000000E+00  8.00000000E-01  8.00000000E-01  1.50000000E+00  8.00000000E-01
  8.00000000E-01  1.50000000E+00  8.00000000E-01  8.00000000E-01  1.50000000E+00
  8.00000000E-01  8.00000000E-01  1.50000000E+00  8.00000000E-01  8.00000000E-01
  1.50000000E+00  8.00000000E-01  8.00000000E-01  1.50000000E+00  8.00000000E-01
  8.00000000E-01  1.50000000E+00  8.00000000E-01  8.00000000E-01  1.50000000E+00
  8.00000000E-01  8.00000000E-01  1.50000000E+00  8.00000000E-01  8.00000000E-01
  1.50000000E+00  8.00000000E-01  8.00000000E-01  1.50000000E+00  8.00000000E-01
  8.00000000E-01  1.50000000E+00  8.00000000E-01  8.00000000E-01  1.50000000E+00
  8.00000000E-01  8.00000000E-01  1.50000000E+00  8.00000000E-01  8.00000000E-01
  1.50000000E+00  8.00000000E-01  8.00000000E-01  1.50000000E+00  8.00000000E-01
  8.00000000E-01  1.50000000E+00  8.00000000E-01  8.00000000E-01  1.50000000E+00
  8.00000000E-01  8.00000000E-01  1.50000000E+00  8.00000000E-01  8.00000000E-01
  1.50000000E+00  8.00000000E-01  8.00000000E-01  1.50000000E+00  8.00000000E-01
  8.00000000E-01  1.50000000E+00  8.00000000E-01  8.00000000E-01  1.50000000E+00
  8.00000000E-01  8.00000000E-01  1.50000000E+00  8.00000000E-01  8.00000000E-01
  1.50000000E+00  8.00000000E-01  8.00000000E-01  1.50000000E+00  8.00000000E-01
  8.00000000E-01  1.50000000E+00  8.00000000E-01  8.00000000E-01  1.50000000E+00
  8.00000000E-01  8.00000000E-01  1.50000000E+00  8.00000000E-01  8.00000000E-01
  1.50000000E+00  8.00000000E-01  8.00000000E-01  1.50000000E+00  8.00000000E-01
  8.00000000E-01  1.50000000E+00  8.00000000E-01  8.00000000E-01  1.50000000E+00
  8.00000000E-01  8.00000000E-01  1.50000000E+00  8.00000000E-01  8.00000000E-01
  1.50000000E+00  8.00000000E-01  8.00000000E-01  1.50000000E+00  8.00000000E-01
  8.00000000E-01  1.50000000E+00  8.00000000E-01  8.00000000E-01  1.50000000E+00
  8.00000000E-01  8.00000000E-01  1.50000000E+00  8.00000000E-01  8.00000000E-01
  1.50000000E+00  8.00000000E-01  8.00000000E-01  1.50000000E+00  8.00000000E-01
  8.00000000E-01  1.50000000E+00  8.00000000E-01  8.00000000E-01  1.50000000E+00
  8.00000000E-01  8.00000000E-01  1.50000000E+00  8.00000000E-01  8.00000000E-01
  1.50000000E+00  8.00000000E-01  8.00000000E-01  1.50000000E+00  8.00000000E-01
  8.00000000E-01  1.50000000E+00  8.00000000E-01  8.00000000E-01  1.50000000E+00
  8.00000000E-01  8.00000000E-01  1.50000000E+00  8.00000000E-01  8.00000000E-01
  1.50000000E+00  8.00000000E-01  8.00000000E-01  1.50000000E+00  8.00000000E-01
  8.00000000E-01  1.50000000E+00  8.00000000E-01  8.00000000E-01  1.50000000E+00
  8.00000000E-01  8.00000000E-01  1.50000000E+00  8.00000000E-01  8.00000000E-01
  1.50000000E+00  8.00000000E-01  8.00000000E-01  1.50000000E+00  8.00000000E-01
  8.00000000E-01  1.50000000E+00  8.00000000E-01  8.00000000E-01  1.50000000E+00
  8.00000000E-01  8.00000000E-01  1.50000000E+00  8.00000000E-01  8.00000000E-01
  1.50000000E+00  8.00000000E-01  8.00000000E-01  1.50000000E+00  8.00000000E-01
  8.00000000E-01  1.50000000E+00  8.00000000E-01  8.00000000E-01  1.50000000E+00
  8.00000000E-01  8.00000000E-01  1.50000000E+00  8.00000000E-01  8.00000000E-01
  1.50000000E+00  8.00000000E-01  8.00000000E-01  1.50000000E+00  8.00000000E-01
  8.00000000E-01  1.50000000E+00  8.00000000E-01  8.00000000E-01  1.50000000E+00
  8.00000000E-01  8.00000000E-01  1.50000000E+00  8.00000000E-01  8.00000000E-01
  1.50000000E+00  8.00000000E-01  8.00000000E-01  1.50000000E+00  8.00000000E-01
  8.00000000E-01  1.50000000E+00  8.00000000E-01  8.00000000E-01  1.50000000E+00
  8.00000000E-01  8.00000000E-01  1.50000000E+00  8.00000000E-01  8.00000000E-01
  1.50000000E+00  8.00000000E-01  8.00000000E-01  1.50000000E+00  8.00000000E-01
  8.00000000E-01  1.50000000E+00  8.00000000E-01  8.00000000E-01  1.50000000E+00
  8.00000000E-01  8.00000000E-01  1.50000000E+00  8.00000000E-01  8.00000000E-01
  1.50000000E+00  8.00000000E-01  8.00000000E-01  1.50000000E+00  8.00000000E-01
  8.00000000E-01  1.50000000E+00  8.00000000E-01  8.00000000E-01  1.50000000E+00
  8.00000000E-01  8.00000000E-01  1.50000000E+00  8.00000000E-01  8.00000000E-01
  1.50000000E+00  8.00000000E-01  8.00000000E-01  1.50000000E+00  8.00000000E-01
  8.00000000E-01  1.50000000E+00  8.00000000E-01  8.00000000E-01  1.50000000E+00
  8.00000000E-01  8.00000000E-01  1.50000000E+00  8.00000000E-01  8.00000000E-01
  1.50000000E+00  8.00000000E-01  8.00000000E-01  1.50000000E+00  8.00000000E-01
  8.00000000E-01  1.50000000E+00  8.00000000E-01  8.00000000E-01  1.50000000E+00
  8.00000000E-01  8.00000000E-01  1.50000000E+00  8.00000000E-01  8.00000000E-01
  1.50000000E+00  8.00000000E-01  8.00000000E-01  1.50000000E+00  8.00000000E-01
  8.00000000E-01  1.50000000E+00  8.00000000E-01  8.00000000E-01  1.50000000E+00
  8.00000000E-01  8.00000000E-01  1.50000000E+00  8.00000000E-01  8.00000000E-01
  1.50000000E+00  8.00000000E-01  8.00000000E-01  1.50000000E+00  8.00000000E-01
  8.00000000E-01  1.50000000E+00  8.00000000E-01  8.00000000E-01  1.50000000E+00
  8.00000000E-01  8.00000000E-01  1.50000000E+00  8.00000000E-01  8.00000000E-01
  1.50000000E+00  8.00000000E-01  8.00000000E-01  1.50000000E+00  8.00000000E-01
  8.00000000E-01  1.50000000E+00  8.00000000E-01  8.00000000E-01  1.50000000E+00
  8.00000000E-01  8.00000000E-01  1.50000000E+00  8.00000000E-01  8.00000000E-01
  1.50000000E+00  8.00000000E-01  8.00000000E-01  1.50000000E+00  8.00000000E-01
  8.00000000E-01  1.50000000E+00  8.00000000E-01  8.00000000E-01  1.50000000E+00
  8.00000000E-01  8.00000000E-01  1.50000000E+00  8.00000000E-01  8.00000000E-01
  1.50000000E+00  8.00000000E-01  8.00000000E-01  1.50000000E+00  8.00000000E-01
  8.00000000E-01  1.50000000E+00  8.00000000E-01  8.00000000E-01  1.50000000E+00
  8.00000000E-01  8.00000000E-01  1.50000000E+00  8.00000000E-01  8.00000000E-01
  1.50000000E+00  8.00000000E-01  8.00000000E-01  1.50000000E+00  8.00000000E-01
  8.00000000E-01  1.50000000E+00  8.00000000E-01  8.00000000E-01  1.50000000E+00
  8.00000000E-01  8.00000000E-01  1.50000000E+00  8.00000000E-01  8.00000000E-01
  1.50000000E+00  8.00000000E-01  8.00000000E-01  1.50000000E+00  8.00000000E-01
  8.00000000E-01  1.50000000E+00  8.00000000E-01  8.00000000E-01  1.50000000E+00
  8.00000000E-01  8.00000000E-01  1.50000000E+00  8.00000000E-01  8.00000000E-01
  1.50000000E+00  8.00000000E-01  8.00000000E-01  1.50000000E+00  8.00000000E-01
  8.00000000E-01  1.50000000E+00  8.00000000E-01  8.00000000E-01  1.50000000E+00
  8.00000000E-01  8.00000000E-01  1.50000000E+00  8.00000000E-01  8.00000000E-01
  1.50000000E+00  8.00000000E-01  8.00000000E-01  1.50000000E+00  8.00000000E-01
  8.00000000E-01  1.50000000E+00  8.00000000E-01  8.00000000E-01  1.50000000E+00
  8.00000000E-01  8.00000000E-01  1.50000000E+00  8.00000000E-01  8.00000000E-01
  1.50000000E+00  8.00000000E-01  8.00000000E-01  1.50000000E+00  8.00000000E-01
  8.00000000E-01  1.50000000E+00  8.00000000E-01  8.00000000E-01  1.50000000E+00
  8.00000000E-01  8.00000000E-01  1.50000000E+00  8.00000000E-01  8.00000000E-01
  1.50000000E+00  8.00000000E-01  8.00000000E-01  1.50000000E+00  8.00000000E-01
  8.00000000E-01  1.50000000E+00  8.00000000E-01  8.00000000E-01  1.50000000E+00
  8.00000000E-01  8.00000000E-01  1.50000000E+00  8.00000000E-01  8.00000000E-01
  1.50000000E+00  8.00000000E-01  8.00000000E-01  1.50000000E+00  8.00000000E-01
  8.00000000E-01  1.50000000E+00  8.00000000E-01  8.00000000E-01  1.50000000E+00
  8.00000000E-01  8.00000000E-01  1.50000000E+00  8.00000000E-01  8.00000000E-01
  1.50000000E+00  8.00000000E-01  8.00000000E-01  1.50000000E+00  8.00000000E-01
  8.00000000E-01  1.50000000E+00  8.00000000E-01  8.00000000E-01  1.50000000E+00
  8.00000000E-01  8.00000000E-01  1.50000000E+00  8.00000000E-01  8.00000000E-01
  1.50000000E+00  8.00000000E-01  8.00000000E-01  1.50000000E+00  8.00000000E-01
  8.00000000E-01  1.50000000E+00  8.00000000E-01  8.00000000E-01  1.50000000E+00
  8.00000000E-01  8.00000000E-01  1.50000000E+00  8.00000000E-01  8.00000000E-01
  1.50000000E+00  8.00000000E-01  8.00000000E-01  1.50000000E+00  8.00000000E-01
  8.00000000E-01  1.50000000E+00  8.00000000E-01  8.00000000E-01  1.50000000E+00
  8.00000000E-01  8.00000000E-01  1.50000000E+00  8.00000000E-01  8.00000000E-01
  1.50000000E+00  8.00000000E-01  8.00000000E-01  1.50000000E+00  8.00000000E-01
  8.00000000E-01  1.50000000E+00  8.00000000E-01  8.00000000E-01  1.50000000E+00
  8.00000000E-01  8.00000000E-01  1.50000000E+00  8.00000000E-01  8.00000000E-01
  1.50000000E+00  8.00000000E-01  8.00000000E-01  1.50000000E+00  8.00000000E-01
  8.00000000E-01  1.50000000E+00  8.00000000E-01  8.00000000E-01  1.50000000E+00
  8.00000000E-01  8.00000000E-01  1.50000000E+00  8.00000000E-01  8.00000000E-01
  1.50000000E+00  8.00000000E-01  8.00000000E-01  1.50000000E+00  8.00000000E-01
  8.00000000E-01  1.50000000E+00  8.00000000E-01  8.00000000E-01  1.50000000E+00
  8.00000000E-01  8.00000000E-01  1.50000000E+00  8.00000000E-01  8.00000000E-01
  1.50000000E+00  8.00000000E-01  8.00000000E-01  1.50000000E+00  8.00000000E-01
  8.00000000E-01  1.50000000E+00  8.00000000E-01  8.00000000E-01  1.50000000E+00
  8.00000000E-01  8.00000000E-01  1.50000000E+00  8.00000000E-01  8.00000000E-01
  1.50000000E+00  8.00000000E-01  8.00000000E-01  1.50000000E+00  8.00000000E-01
  8.00000000E-01  1.50000000E+00  8.00000000E-01  8.00000000E-01  1.50000000E+00
  8.00000000E-01  8.00000000E-01  1.50000000E+00  8.00000000E-01  8.00000000E-01
  1.50000000E+00  8.00000000E-01  8.00000000E-01  1.50000000E+00  8.00000000E-01
  8.00000000E-01  1.50000000E+00  8.00000000E-01  8.00000000E-01  1.50000000E+00
  8.00000000E-01  8.00000000E-01  1.50000000E+00  8.00000000E-01  8.00000000E-01
  1.50000000E+00  8.00000000E-01  8.00000000E-01  1.50000000E+00  8.00000000E-01
  8.00000000E-01  1.50000000E+00  8.00000000E-01  8.00000000E-01  1.50000000E+00
  8.00000000E-01  8.00000000E-01  1.50000000E+00  8.00000000E-01  8.00000000E-01
  1.50000000E+00  8.00000000E-01  8.00000000E-01  1.50000000E+00  8.00000000E-01
  8.00000000E-01  1.50000000E+00  8.00000000E-01  8.00000000E-01  1.50000000E+00
  8.00000000E-01  8.00000000E-01  1.50000000E+00  8.00000000E-01  8.00000000E-01
  1.50000000E+00  8.00000000E-01  8.00000000E-01  1.50000000E+00  8.00000000E-01
  8.00000000E-01  1.50000000E+00  8.00000000E-01  8.00000000E-01  1.50000000E+00
  8.00000000E-01  8.00000000E-01  1.50000000E+00  8.00000000E-01  8.00000000E-01
  1.50000000E+00  8.00000000E-01  8.00000000E-01  1.50000000E+00  8.00000000E-01
  8.00000000E-01  1.50000000E+00  8.00000000E-01  8.00000000E-01  1.50000000E+00
  8.00000000E-01  8.00000000E-01  1.50000000E+00  8.00000000E-01  8.00000000E-01
  1.50000000E+00  8.00000000E-01  8.00000000E-01  1.50000000E+00  8.00000000E-01
  8.00000000E-01  1.50000000E+00  8.00000000E-01  8.00000000E-01  1.50000000E+00
  8.00000000E-01  8.00000000E-01  1.50000000E+00  8.00000000E-01  8.00000000E-01
  1.50000000E+00  8.00000000E-01  8.00000000E-01  1.50000000E+00  8.00000000E-01
  8.00000000E-01  1.50000000E+00  8.00000000E-01  8.00000000E-01  1.50000000E+00
  8.00000000E-01  8.00000000E-01  1.50000000E+00  8.00000000E-01  8.00000000E-01
  1.50000000E+00  8.00000000E-01  8.00000000E-01  1.50000000E+00  8.00000000E-01
  8.00000000E-01  1.50000000E+00  8.00000000E-01  8.00000000E-01  1.50000000E+00
  8.00000000E-01  8.00000000E-01  1.50000000E+00  8.00000000E-01  8.00000000E-01
  1.50000000E+00  8.00000000E-01  8.00000000E-01  1.50000000E+00  8.00000000E-01
  8.00000000E-01  1.50000000E+00  8.00000000E-01  8.00000000E-01  1.50000000E+00
  8.00000000E-01  8.00000000E-01  1.50000000E+00  8.00000000E-01  8.00000000E-01
  1.50000000E+00  8.00000000E-01  8.00000000E-01  1.50000000E+00  8.00000000E-01
  8.00000000E-01  1.50000000E+00  8.00000000E-01  8.00000000E-01  1.50000000E+00
  8.00000000E-01  8.00000000E-01  1.50000000E+00  8.00000000E-01  8.00000000E-01
  1.50000000E+00  8.00000000E-01  8.00000000E-01  1.50000000E+00  8.00000000E-01
  8.00000000E-01  1.50000000E+00  8.00000000E-01  8.00000000E-01  1.50000000E+00
  8.00000000E-01  8.00000000E-01  1.50000000E+00  8.00000000E-01  8.00000000E-01
  1.50000000E+00  8.00000000E-01  8.00000000E-01  1.50000000E+00  8.00000000E-01
  8.00000000E-01  1.50000000E+00  8.00000000E-01  8.00000000E-01  1.50000000E+00
  8.00000000E-01  8.00000000E-01  1.50000000E+00  8.00000000E-01  8.00000000E-01
  1.50000000E+00  8.00000000E-01  8.00000000E-01  1.50000000E+00  8.00000000E-01
  8.00000000E-01  1.50000000E+00  8.00000000E-01  8.00000000E-01  1.50000000E+00
  8.00000000E-01  8.00000000E-01  1.50000000E+00  8.00000000E-01  8.00000000E-01
  1.50000000E+00  8.00000000E-01  8.00000000E-01  1.50000000E+00  8.00000000E-01
  8.00000000E-01  1.50000000E+00  8.00000000E-01  8.00000000E-01  1.50000000E+00
  8.00000000E-01  8.00000000E-01  1.50000000E+00  8.00000000E-01  8.00000000E-01
  1.50000000E+00  8.00000000E-01  8.00000000E-01  1.50000000E+00  8.00000000E-01
  8.00000000E-01  1.50000000E+00  8.00000000E-01  8.00000000E-01  1.50000000E+00
  8.00000000E-01  8.00000000E-01  1.50000000E+00  8.00000000E-01  8.00000000E-01
  1.50000000E+00  8.00000000E-01  8.00000000E-01  1.50000000E+00  8.00000000E-01
  8.00000000E-01  1.50000000E+00  8.00000000E-01  8.00000000E-01  1.50000000E+00
  8.00000000E-01  8.00000000E-01  1.50000000E+00  8.00000000E-01  8.00000000E-01
  1.50000000E+00  8.00000000E-01  8.00000000E-01  1.50000000E+00  8.00000000E-01
  8.00000000E-01  1.50000000E+00  8.00000000E-01  8.00000000E-01  1.50000000E+00
  8.00000000E-01  8.00000000E-01  1.50000000E+00  8.00000000E-01  8.00000000E-01
  1.50000000E+00  8.00000000E-01  8.00000000E-01  1.50000000E+00  8.00000000E-01
  8.00000000E-01  1.50000000E+00  8.00000000E-01  8.00000000E-01  1.50000000E+00
  8.00000000E-01  8.00000000E-01  1.50000000E+00  8.00000000E-01  8.00000000E-01
  1.50000000E+00  8.00000000E-01  8.00000000E-01  1.50000000E+00  8.00000000E-01
  8.00000000E-01  1.50000000E+00  8.00000000E-01  8.00000000E-01  1.50000000E+00
  8.00000000E-01  8.00000000E-01  1.50000000E+00  8.00000000E-01  8.00000000E-01
  1.50000000E+00  8.00000000E-01  8.00000000E-01  1.50000000E+00  8.00000000E-01
  8.00000000E-01  1.50000000E+00  8.00000000E-01  8.00000000E-01  1.50000000E+00
  8.00000000E-01  8.00000000E-01  1.50000000E+00  8.00000000E-01  8.00000000E-01
  1.50000000E+00  8.00000000E-01  8.00000000E-01  1.50000000E+00  8.00000000E-01
  8.00000000E-01  1.50000000E+00  8.00000000E-01  8.00000000E-01  1.50000000E+00
  8.00000000E-01  8.00000000E-01  1.50000000E+00  8.00000000E-01  8.00000000E-01
  1.50000000E+00  8.00000000E-01  8.00000000E-01  1.50000000E+00  8.00000000E-01
  8.00000000E-01  1.50000000E+00  8.00000000E-01  8.00000000E-01  1.50000000E+00
  8.00000000E-01  8.00000000E-01  1.50000000E+00  8.00000000E-01  8.00000000E-01
  1.50000000E+00  8.00000000E-01  8.00000000E-01  1.50000000E+00  8.00000000E-01
  8.00000000E-01  1.50000000E+00  8.00000000E-01  8.00000000E-01  1.50000000E+00
  8.00000000E-01  8.00000000E-01  1.50000000E+00  8.00000000E-01  8.00000000E-01
  1.50000000E+00  8.00000000E-01  8.00000000E-01  1.50000000E+00  8.00000000E-01
  8.00000000E-01  1.50000000E+00  8.00000000E-01  8.00000000E-01  1.50000000E+00
  8.00000000E-01  8.00000000E-01  1.50000000E+00  8.00000000E-01  8.00000000E-01
  1.50000000E+00  8.00000000E-01  8.00000000E-01  1.50000000E+00  8.00000000E-01
  8.00000000E-01  1.50000000E+00  8.00000000E-01  8.00000000E-01  1.50000000E+00
  8.00000000E-01  8.00000000E-01  1.50000000E+00  8.00000000E-01  8.00000000E-01
  1.50000000E+00  8.00000000E-01  8.00000000E-01  1.50000000E+00  8.00000000E-01
  8.00000000E-01  1.50000000E+00  8.00000000E-01  8.00000000E-01  1.50000000E+00
  8.00000000E-01  8.00000000E-01  1.50000000E+00  8.00000000E-01  8.00000000E-01
  1.50000000E+00  8.00000000E-01  8.00000000E-01  1.50000000E+00  8.00000000E-01
  8.00000000E-01  1.50000000E+00  8.00000000E-01  8.00000000E-01  1.50000000E+00
  8.00000000E-01  8.00000000E-01  1.50000000E+00  8.00000000E-01  8.00000000E-01
  1.50000000E+00  8.00000000E-01  8.00000000E-01  1.50000000E+00  8.00000000E-01
  8.00000000E-01  1.50000000E+00  8.00000000E-01  8.00000000E-01  1.50000000E+00
  8.00000000E-01  8.00000000E-01  1.50000000E+00  8.00000000E-01  8.00000000E-01
  1.50000000E+00  8.00000000E-01  8.00000000E-01  1.50000000E+00  8.00000000E-01
  8.00000000E-01  1.50000000E+00  8.00000000E-01  8.00000000E-01  1.50000000E+00
  8.00000000E-01  8.00000000E-01  1.50000000E+00  8.00000000E-01  8.00000000E-01
  1.50000000E+00  8.00000000E-01  8.00000000E-01  1.50000000E+00  8.00000000E-01
  8.00000000E-01  1.50000000E+00  8.00000000E-01  8.00000000E-01  1.50000000E+00
  8.00000000E-01  8.00000000E-01  1.50000000E+00  8.00000000E-01  8.00000000E-01
  1.50000000E+00  8.00000000E-01  8.00000000E-01  1.50000000E+00  8.00000000E-01
  8.00000000E-01  1.50000000E+00  8.00000000E-01  8.00000000E-01  1.50000000E+00
  8.00000000E-01  8.00000000E-01  1.50000000E+00  8.00000000E-01  8.00000000E-01
  1.50000000E+00  8.00000000E-01  8.00000000E-01  1.50000000E+00  8.00000000E-01
  8.00000000E-01  1.50000000E+00  8.00000000E-01  8.00000000E-01  1.50000000E+00
  8.00000000E-01  8.00000000E-01  1.50000000E+00  8.00000000E-01  8.00000000E-01
  1.50000000E+00  8.00000000E-01  8.00000000E-01  1.50000000E+00  8.00000000E-01
  8.00000000E-01  1.50000000E+00  8.00000000E-01  8.00000000E-01  1.50000000E+00
  8.00000000E-01  8.00000000E-01  1.50000000E+00  8.00000000E-01  8.00000000E-01
  1.50000000E+00  8.00000000E-01  8.00000000E-01  1.50000000E+00  8.00000000E-01
  8.00000000E-01  1.50000000E+00  8.00000000E-01  8.00000000E-01  1.50000000E+00
  8.00000000E-01  8.00000000E-01  1.50000000E+00  8.00000000E-01  8.00000000E-01
  1.50000000E+00  8.00000000E-01  8.00000000E-01  1.50000000E+00  8.00000000E-01
  8.00000000E-01  1.50000000E+00  8.00000000E-01  8.00000000E-01  1.50000000E+00
  8.00000000E-01  8.00000000E-01  1.50000000E+00  8.00000000E-01  8.00000000E-01
  1.50000000E+00  8.00000000E-01  8.00000000E-01  1.50000000E+00  8.00000000E-01
  8.00000000E-01  1.50000000E+00  8.00000000E-01  8.00000000E-01  1.50000000E+00
  8.00000000E-01  8.00000000E-01  1.50000000E+00  8.00000000E-01  8.00000000E-01
  1.50000000E+00  8.00000000E-01  8.00000000E-01  1.50000000E+00  8.00000000E-01
  8.00000000E-01  1.50000000E+00  8.00000000E-01  8.00000000E-01  1.50000000E+00
  8.00000000E-01  8.00000000E-01  1.50000000E+00  8.00000000E-01  8.00000000E-01
  1.50000000E+00  8.00000000E-01  8.00000000E-01  1.50000000E+00  8.00000000E-01
  8.00000000E-01  1.50000000E+00  8.00000000E-01  8.00000000E-01  1.50000000E+00
  8.00000000E-01  8.00000000E-01  1.50000000E+00  8.00000000E-01  8.00000000E-01
  1.50000000E+00  8.00000000E-01  8.00000000E-01  1.50000000E+00  8.00000000E-01
  8.00000000E-01  1.50000000E+00  8.00000000E-01  8.00000000E-01  1.50000000E+00
  8.00000000E-01  8.00000000E-01  1.50000000E+00  8.00000000E-01  8.00000000E-01
  1.50000000E+00  8.00000000E-01  8.00000000E-01  1.50000000E+00  8.00000000E-01
  8.00000000E-01  1.50000000E+00  8.00000000E-01  8.00000000E-01  1.50000000E+00
  8.00000000E-01  8.00000000E-01  1.50000000E+00  8.00000000E-01  8.00000000E-01
  1.50000000E+00  8.00000000E-01  8.00000000E-01  1.50000000E+00  8.00000000E-01
  8.00000000E-01  1.50000000E+00  8.00000000E-01  8.00000000E-01  1.50000000E+00
  8.00000000E-01  8.00000000E-01  1.50000000E+00  8.00000000E-01  8.00000000E-01
  1.50000000E+00  8.00000000E-01  8.00000000E-01  1.50000000E+00  8.00000000E-01
  8.00000000E-01  1.50000000E+00  8.00000000E-01  8.00000000E-01  1.50000000E+00
  8.00000000E-01  8.00000000E-01  1.50000000E+00  8.00000000E-01  8.00000000E-01
  1.50000000E+00  8.00000000E-01  8.00000000E-01  1.50000000E+00  8.00000000E-01
  8.00000000E-01  1.50000000E+00  8.00000000E-01  8.00000000E-01  1.50000000E+00
  8.00000000E-01  8.00000000E-01  1.50000000E+00  8.00000000E-01  8.00000000E-01
  1.50000000E+00  8.00000000E-01  8.00000000E-01  1.50000000E+00  8.00000000E-01
  8.00000000E-01  1.50000000E+00  8.00000000E-01  8.00000000E-01  1.50000000E+00
  8.00000000E-01  8.00000000E-01  1.50000000E+00  8.00000000E-01  8.00000000E-01
  1.50000000E+00  8.00000000E-01  8.00000000E-01  1.50000000E+00  8.00000000E-01
  8.00000000E-01  1.50000000E+00  8.00000000E-01  8.00000000E-01  1.50000000E+00
  8.00000000E-01  8.00000000E-01  1.50000000E+00  8.00000000E-01  8.00000000E-01
  1.50000000E+00  8.00000000E-01  8.00000000E-01  1.50000000E+00  8.00000000E-01
  8.00000000E-01  1.50000000E+00  8.00000000E-01  8.00000000E-01  1.50000000E+00
  8.00000000E-01  8.00000000E-01  1.50000000E+00  8.00000000E-01  8.00000000E-01
  1.50000000E+00  8.00000000E-01  8.00000000E-01  1.50000000E+00  8.00000000E-01
  8.00000000E-01  1.50000000E+00  8.00000000E-01  8.00000000E-01  1.50000000E+00
  8.00000000E-01  8.00000000E-01  1.50000000E+00  8.00000000E-01  8.00000000E-01
  1.50000000E+00  8.00000000E-01  8.00000000E-01  1.50000000E+00  8.00000000E-01
  8.00000000E-01  1.50000000E+00  8.00000000E-01  8.00000000E-01  1.50000000E+00
  8.00000000E-01  8.00000000E-01  1.50000000E+00  8.00000000E-01  8.00000000E-01
  1.50000000E+00  8.00000000E-01  8.00000000E-01  1.50000000E+00  8.00000000E-01
  8.00000000E-01  1.50000000E+00  8.00000000E-01  8.00000000E-01  1.50000000E+00
  8.00000000E-01  8.00000000E-01  1.50000000E+00  8.00000000E-01  8.00000000E-01
  1.50000000E+00  8.00000000E-01  8.00000000E-01  1.50000000E+00  8.00000000E-01
  8.00000000E-01  1.50000000E+00  8.00000000E-01  8.00000000E-01  1.50000000E+00
  8.00000000E-01  8.00000000E-01  1.50000000E+00  8.00000000E-01  8.00000000E-01
  1.50000000E+00  8.00000000E-01  8.00000000E-01  1.50000000E+00  8.00000000E-01
  8.00000000E-01  1.50000000E+00  8.00000000E-01  8.00000000E-01  1.50000000E+00
  8.00000000E-01  8.00000000E-01  1.50000000E+00  8.00000000E-01  8.00000000E-01
  1.50000000E+00  8.00000000E-01  8.00000000E-01  1.50000000E+00  8.00000000E-01
  8.00000000E-01  1.50000000E+00  8.00000000E-01  8.00000000E-01  1.50000000E+00
  8.00000000E-01  8.00000000E-01  1.50000000E+00  8.00000000E-01  8.00000000E-01
  1.50000000E+00  8.00000000E-01  8.00000000E-01  1.50000000E+00  8.00000000E-01
  8.00000000E-01  1.50000000E+00  8.00000000E-01  8.00000000E-01  1.50000000E+00
  8.00000000E-01  8.00000000E-01  1.50000000E+00  8.00000000E-01  8.00000000E-01
  1.50000000E+00  8.00000000E-01  8.00000000E-01  1.50000000E+00  8.00000000E-01
  8.00000000E-01  1.50000000E+00  8.00000000E-01  8.00000000E-01  1.50000000E+00
  8.00000000E-01  8.00000000E-01  1.50000000E+00  8.00000000E-01  8.00000000E-01
  1.50000000E+00  8.00000000E-01  8.00000000E-01  1.50000000E+00  8.00000000E-01
  8.00000000E-01  1.50000000E+00  8.00000000E-01  8.00000000E-01  1.50000000E+00
  8.00000000E-01  8.00000000E-01  1.50000000E+00  8.00000000E-01  8.00000000E-01
  1.50000000E+00  8.00000000E-01  8.00000000E-01  1.50000000E+00  8.00000000E-01
  8.00000000E-01  1.50000000E+00  8.00000000E-01  8.00000000E-01  1.50000000E+00
  8.00000000E-01  8.00000000E-01  1.50000000E+00  8.00000000E-01  8.00000000E-01
  1.50000000E+00  8.00000000E-01  8.00000000E-01  1.50000000E+00  8.00000000E-01
  8.00000000E-01  1.50000000E+00  8.00000000E-01  8.00000000E-01  1.50000000E+00
  8.00000000E-01  8.00000000E-01  1.50000000E+00  8.00000000E-01  8.00000000E-01
  1.50000000E+00  8.00000000E-01  8.00000000E-01  1.50000000E+00  8.00000000E-01
  8.00000000E-01  1.50000000E+00  8.00000000E-01  8.00000000E-01  1.50000000E+00
  8.00000000E-01  8.00000000E-01  1.50000000E+00  8.00000000E-01  8.00000000E-01
  1.50000000E+00  8.00000000E-01  8.00000000E-01  1.50000000E+00  8.00000000E-01
  8.00000000E-01  1.50000000E+00  8.00000000E-01  8.00000000E-01  1.50000000E+00
  8.00000000E-01  8.00000000E-01  1.50000000E+00  8.00000000E-01  8.00000000E-01
  1.50000000E+00  8.00000000E-01  8.00000000E-01  1.50000000E+00  8.00000000E-01
  8.00000000E-01  1.50000000E+00  8.00000000E-01  8.00000000E-01  1.50000000E+00
  8.00000000E-01  8.00000000E-01  1.50000000E+00  8.00000000E-01  8.00000000E-01
  1.50000000E+00  8.00000000E-01  8.00000000E-01  1.50000000E+00  8.00000000E-01
  8.00000000E-01  1.50000000E+00  8.00000000E-01  8.00000000E-01  1.50000000E+00
  8.00000000E-01  8.00000000E-01  1.50000000E+00  8.00000000E-01  8.00000000E-01
  1.50000000E+00  8.00000000E-01  8.00000000E-01  1.50000000E+00  8.00000000E-01
  8.00000000E-01  1.50000000E+00  8.00000000E-01  8.00000000E-01  1.50000000E+00
  8.00000000E-01  8.00000000E-01  1.50000000E+00  8.00000000E-01  8.00000000E-01
  1.50000000E+00  8.00000000E-01  8.00000000E-01  1.50000000E+00  8.00000000E-01
  8.00000000E-01  1.50000000E+00  8.00000000E-01  8.00000000E-01  1.50000000E+00
  8.00000000E-01  8.00000000E-01  1.50000000E+00  8.00000000E-01  8.00000000E-01
  1.50000000E+00  8.00000000E-01  8.00000000E-01  1.50000000E+00  8.00000000E-01
  8.00000000E-01  1.50000000E+00  8.00000000E-01  8.00000000E-01  1.50000000E+00
  8.00000000E-01  8.00000000E-01  1.50000000E+00  8.00000000E-01  8.00000000E-01
  1.50000000E+00  8.00000000E-01  8.00000000E-01  1.50000000E+00  8.00000000E-01
  8.00000000E-01  1.50000000E+00  8.00000000E-01  8.00000000E-01  1.50000000E+00
  8.00000000E-01  8.00000000E-01  1.50000000E+00  8.00000000E-01  8.00000000E-01
  1.50000000E+00  8.00000000E-01  8.00000000E-01  1.50000000E+00  8.00000000E-01
  8.00000000E-01  1.50000000E+00  8.00000000E-01  8.00000000E-01  1.50000000E+00
  8.00000000E-01  8.00000000E-01  1.50000000E+00  8.00000000E-01  8.00000000E-01
  1.50000000E+00  8.00000000E-01  8.00000000E-01  1.50000000E+00  8.00000000E-01
  8.00000000E-01  1.50000000E+00  8.00000000E-01  8.00000000E-01  1.50000000E+00
  8.00000000E-01  8.00000000E-01  1.50000000E+00  8.00000000E-01  8.00000000E-01
  1.50000000E+00  8.00000000E-01  8.00000000E-01  1.50000000E+00  8.00000000E-01
  8.00000000E-01  1.50000000E+00  8.00000000E-01  8.00000000E-01  1.50000000E+00
  8.00000000E-01  8.00000000E-01  1.50000000E+00  8.00000000E-01  8.00000000E-01
  1.50000000E+00  8.00000000E-01  8.00000000E-01  1.50000000E+00  8.00000000E-01
  8.00000000E-01  1.50000000E+00  8.00000000E-01  8.00000000E-01  1.50000000E+00
  8.00000000E-01  8.00000000E-01  1.50000000E+00  8.00000000E-01  8.00000000E-01
  1.50000000E+00  8.00000000E-01  8.00000000E-01  1.50000000E+00  8.00000000E-01
  8.00000000E-01  1.50000000E+00  8.00000000E-01  8.00000000E-01  1.50000000E+00
  8.00000000E-01  8.00000000E-01  1.50000000E+00  8.00000000E-01  8.00000000E-01
  1.50000000E+00  8.00000000E-01  8.00000000E-01  1.50000000E+00  8.00000000E-01
  8.00000000E-01  1.50000000E+00  8.00000000E-01  8.00000000E-01  1.50000000E+00
  8.00000000E-01  8.00000000E-01  1.50000000E+00  8.00000000E-01  8.00000000E-01
  1.50000000E+00  8.00000000E-01  8.00000000E-01  1.50000000E+00  8.00000000E-01
  8.00000000E-01  1.50000000E+00  8.00000000E-01  8.00000000E-01  1.50000000E+00
  8.00000000E-01  8.00000000E-01  1.50000000E+00  8.00000000E-01  8.00000000E-01
  1.50000000E+00  8.00000000E-01  8.00000000E-01  1.50000000E+00  8.00000000E-01
  8.00000000E-01  1.50000000E+00  8.00000000E-01  8.00000000E-01  1.50000000E+00
  8.00000000E-01  8.00000000E-01  1.50000000E+00  8.00000000E-01  8.00000000E-01
  1.50000000E+00  8.00000000E-01  8.00000000E-01  1.50000000E+00  8.00000000E-01
  8.00000000E-01  1.50000000E+00  8.00000000E-01  8.00000000E-01  1.50000000E+00
  8.00000000E-01  8.00000000E-01  1.50000000E+00  8.00000000E-01  8.00000000E-01
  1.50000000E+00  8.00000000E-01  8.00000000E-01  1.50000000E+00  8.00000000E-01
  8.00000000E-01  1.50000000E+00  8.00000000E-01  8.00000000E-01  1.50000000E+00
  8.00000000E-01  8.00000000E-01  1.50000000E+00  8.00000000E-01  8.00000000E-01
  1.50000000E+00  8.00000000E-01  8.00000000E-01  1.50000000E+00  8.00000000E-01
  8.00000000E-01  1.50000000E+00  8.00000000E-01  8.00000000E-01  1.50000000E+00
  8.00000000E-01  8.00000000E-01  1.50000000E+00  8.00000000E-01  8.00000000E-01
  1.50000000E+00  8.00000000E-01  8.00000000E-01  1.50000000E+00  8.00000000E-01
  8.00000000E-01  1.50000000E+00  8.00000000E-01  8.00000000E-01  1.50000000E+00
  8.00000000E-01  8.00000000E-01  1.50000000E+00  8.00000000E-01  8.00000000E-01
  1.50000000E+00  8.00000000E-01  8.00000000E-01  1.50000000E+00  8.00000000E-01
  8.00000000E-01  1.50000000E+00  8.00000000E-01  8.00000000E-01  1.50000000E+00
  8.00000000E-01  8.00000000E-01  1.50000000E+00  8.00000000E-01  8.00000000E-01
  1.50000000E+00  8.00000000E-01  8.00000000E-01  1.50000000E+00  8.00000000E-01
  8.00000000E-01  1.50000000E+00  8.00000000E-01  8.00000000E-01  1.50000000E+00
  8.00000000E-01  8.00000000E-01  1.50000000E+00  8.00000000E-01  8.00000000E-01
  1.50000000E+00  8.00000000E-01  8.00000000E-01  1.50000000E+00  8.00000000E-01
  8.00000000E-01  1.50000000E+00  8.00000000E-01  8.00000000E-01  1.50000000E+00
  8.00000000E-01  8.00000000E-01  1.50000000E+00  8.00000000E-01  8.00000000E-01
  1.50000000E+00  8.00000000E-01  8.00000000E-01  1.50000000E+00  8.00000000E-01
  8.00000000E-01  1.50000000E+00  8.00000000E-01  8.00000000E-01  1.50000000E+00
  8.00000000E-01  8.00000000E-01  1.50000000E+00  8.00000000E-01  8.00000000E-01
  1.50000000E+00  8.00000000E-01  8.00000000E-01  1.50000000E+00  8.00000000E-01
  8.00000000E-01  1.50000000E+00  8.00000000E-01  8.00000000E-01  1.50000000E+00
  8.00000000E-01  8.00000000E-01  1.50000000E+00  8.00000000E-01  8.00000000E-01
  1.50000000E+00  8.00000000E-01  8.00000000E-01  1.50000000E+00  8.00000000E-01
  8.00000000E-01  1.50000000E+00  8.00000000E-01  8.00000000E-01  1.50000000E+00
  8.00000000E-01  8.00000000E-01  1.50000000E+00  8.00000000E-01  8.00000000E-01
  1.50000000E+00  8.00000000E-01  8.00000000E-01  1.50000000E+00  8.00000000E-01
  8.00000000E-01  1.50000000E+00  8.00000000E-01  8.00000000E-01  1.50000000E+00
  8.00000000E-01  8.00000000E-01  1.50000000E+00  8.00000000E-01  8.00000000E-01
  1.50000000E+00  8.00000000E-01  8.00000000E-01  1.50000000E+00  8.00000000E-01
  8.00000000E-01  1.50000000E+00  8.00000000E-01  8.00000000E-01  1.50000000E+00
  8.00000000E-01  8.00000000E-01  1.50000000E+00  8.00000000E-01  8.00000000E-01
  1.50000000E+00  8.00000000E-01  8.00000000E-01  1.50000000E+00  8.00000000E-01
  8.00000000E-01  1.50000000E+00  8.00000000E-01  8.00000000E-01  1.50000000E+00
  8.00000000E-01  8.00000000E-01  1.50000000E+00  8.00000000E-01  8.00000000E-01
  1.50000000E+00  8.00000000E-01  8.00000000E-01  1.50000000E+00  8.00000000E-01
  8.00000000E-01  1.50000000E+00  8.00000000E-01  8.00000000E-01  1.50000000E+00
  8.00000000E-01  8.00000000E-01  1.50000000E+00  8.00000000E-01  8.00000000E-01
  1.50000000E+00  8.00000000E-01  8.00000000E-01  1.50000000E+00  8.00000000E-01
  8.00000000E-01  1.50000000E+00  8.00000000E-01  8.00000000E-01  1.50000000E+00
  8.00000000E-01  8.00000000E-01  1.50000000E+00  8.00000000E-01  8.00000000E-01
  1.50000000E+00  8.00000000E-01  8.00000000E-01  1.50000000E+00  8.00000000E-01
  8.00000000E-01  1.50000000E+00  8.00000000E-01  8.00000000E-01  1.50000000E+00
  8.00000000E-01  8.00000000E-01  1.50000000E+00  8.00000000E-01  8.00000000E-01
  1.50000000E+00  8.00000000E-01  8.00000000E-01  1.50000000E+00  8.00000000E-01
  8.00000000E-01  1.50000000E+00  8.00000000E-01  8.00000000E-01  1.50000000E+00
  8.00000000E-01  8.00000000E-01  1.50000000E+00  8.00000000E-01  8.00000000E-01
  1.50000000E+00  8.00000000E-01  8.00000000E-01  1.50000000E+00  8.00000000E-01
  8.00000000E-01  1.50000000E+00  8.00000000E-01  8.00000000E-01  1.50000000E+00
  8.00000000E-01  8.00000000E-01  1.50000000E+00  8.00000000E-01  8.00000000E-01
  1.50000000E+00  8.00000000E-01  8.00000000E-01  1.50000000E+00  8.00000000E-01
  8.00000000E-01  1.50000000E+00  8.00000000E-01  8.00000000E-01  1.50000000E+00
  8.00000000E-01  8.00000000E-01  1.50000000E+00  8.00000000E-01  8.00000000E-01
  1.50000000E+00  8.00000000E-01  8.00000000E-01  1.50000000E+00  8.00000000E-01
  8.00000000E-01  1.50000000E+00  8.00000000E-01  8.00000000E-01  1.50000000E+00
  8.00000000E-01  8.00000000E-01  1.50000000E+00  8.00000000E-01  8.00000000E-01
  1.50000000E+00  8.00000000E-01  8.00000000E-01  1.50000000E+00  8.00000000E-01
  8.00000000E-01  1.50000000E+00  8.00000000E-01  8.00000000E-01  1.50000000E+00
  8.00000000E-01  8.00000000E-01  1.50000000E+00  8.00000000E-01  8.00000000E-01
  1.50000000E+00  8.00000000E-01  8.00000000E-01  1.50000000E+00  8.00000000E-01
  8.00000000E-01  1.50000000E+00  8.00000000E-01  8.00000000E-01  1.50000000E+00
  8.00000000E-01  8.00000000E-01  1.50000000E+00  8.00000000E-01  8.00000000E-01
  1.50000000E+00  8.00000000E-01  8.00000000E-01  1.50000000E+00  8.00000000E-01
  8.00000000E-01  1.50000000E+00  8.00000000E-01  8.00000000E-01  1.50000000E+00
  8.00000000E-01  8.00000000E-01  1.50000000E+00  8.00000000E-01  8.00000000E-01
  1.50000000E+00  8.00000000E-01  8.00000000E-01  1.50000000E+00  8.00000000E-01
  8.00000000E-01  1.50000000E+00  8.00000000E-01  8.00000000E-01  1.50000000E+00
  8.00000000E-01  8.00000000E-01  1.50000000E+00  8.00000000E-01  8.00000000E-01
  1.50000000E+00  8.00000000E-01  8.00000000E-01  1.50000000E+00  8.00000000E-01
  8.00000000E-01  1.50000000E+00  8.00000000E-01  8.00000000E-01  1.50000000E+00
  8.00000000E-01  8.00000000E-01  1.50000000E+00  8.00000000E-01  8.00000000E-01
  1.50000000E+00  8.00000000E-01  8.00000000E-01  1.50000000E+00  8.00000000E-01
  8.00000000E-01  1.50000000E+00  8.00000000E-01  8.00000000E-01  1.50000000E+00
  8.00000000E-01  8.00000000E-01  1.50000000E+00  8.00000000E-01  8.00000000E-01
  1.50000000E+00  8.00000000E-01  8.00000000E-01  1.50000000E+00  8.00000000E-01
  8.00000000E-01  1.50000000E+00  8.00000000E-01  8.00000000E-01  1.50000000E+00
  8.00000000E-01  8.00000000E-01  1.50000000E+00  8.00000000E-01  8.00000000E-01
  1.50000000E+00  8.00000000E-01  8.00000000E-01  1.50000000E+00  8.00000000E-01
  8.00000000E-01  1.50000000E+00  8.00000000E-01  8.00000000E-01  1.50000000E+00
  8.00000000E-01  8.00000000E-01  1.50000000E+00  8.00000000E-01  8.00000000E-01
  1.50000000E+00  8.00000000E-01  8.00000000E-01  1.50000000E+00  8.00000000E-01
  8.00000000E-01  1.50000000E+00  8.00000000E-01  8.00000000E-01  1.50000000E+00
  8.00000000E-01  8.00000000E-01  1.50000000E+00  8.00000000E-01  8.00000000E-01
  1.50000000E+00  8.00000000E-01  8.00000000E-01  1.50000000E+00  8.00000000E-01
  8.00000000E-01  1.50000000E+00  8.00000000E-01  8.00000000E-01  1.50000000E+00
  8.00000000E-01  8.00000000E-01  1.50000000E+00  8.00000000E-01  8.00000000E-01
  1.50000000E+00  8.00000000E-01  8.00000000E-01  1.50000000E+00  8.00000000E-01
  8.00000000E-01  1.50000000E+00  8.00000000E-01  8.00000000E-01  1.50000000E+00
  8.00000000E-01  8.00000000E-01  1.50000000E+00  8.00000000E-01  8.00000000E-01
  1.50000000E+00  8.00000000E-01  8.00000000E-01  1.50000000E+00  8.00000000E-01
  8.00000000E-01  1.50000000E+00  8.00000000E-01  8.00000000E-01  1.50000000E+00
  8.00000000E-01  8.00000000E-01  1.50000000E+00  8.00000000E-01  8.00000000E-01
  1.50000000E+00  8.00000000E-01  8.00000000E-01  1.50000000E+00  8.00000000E-01
  8.00000000E-01  1.50000000E+00  8.00000000E-01  8.00000000E-01  1.50000000E+00
  8.00000000E-01  8.00000000E-01  1.50000000E+00  8.00000000E-01  8.00000000E-01
  1.50000000E+00  8.00000000E-01  8.00000000E-01  1.50000000E+00  8.00000000E-01
  8.00000000E-01  1.50000000E+00  8.00000000E-01  8.00000000E-01  1.50000000E+00
  8.00000000E-01  8.00000000E-01  1.50000000E+00  8.00000000E-01  8.00000000E-01
  1.50000000E+00  8.00000000E-01  8.00000000E-01  1.50000000E+00  8.00000000E-01
  8.00000000E-01  1.50000000E+00  8.00000000E-01  8.00000000E-01  1.50000000E+00
  8.00000000E-01  8.00000000E-01  1.50000000E+00  8.00000000E-01  8.00000000E-01
  1.50000000E+00  8.00000000E-01  8.00000000E-01  1.50000000E+00  8.00000000E-01
  8.00000000E-01  1.50000000E+00  8.00000000E-01  8.00000000E-01  1.50000000E+00
  8.00000000E-01  8.00000000E-01  1.50000000E+00  8.00000000E-01  8.00000000E-01
  1.50000000E+00  8.00000000E-01  8.00000000E-01  1.50000000E+00  8.00000000E-01
  8.00000000E-01  1.50000000E+00  8.00000000E-01  8.00000000E-01  1.50000000E+00
  8.00000000E-01  8.00000000E-01  1.50000000E+00  8.00000000E-01  8.00000000E-01
  1.50000000E+00  8.00000000E-01  8.00000000E-01  1.50000000E+00  8.00000000E-01
  8.00000000E-01  1.50000000E+00  8.00000000E-01  8.00000000E-01  1.50000000E+00
  8.00000000E-01  8.00000000E-01  1.50000000E+00  8.00000000E-01  8.00000000E-01
  1.50000000E+00  8.00000000E-01  8.00000000E-01  1.50000000E+00  8.00000000E-01
  8.00000000E-01  1.50000000E+00  8.00000000E-01  8.00000000E-01  1.50000000E+00
  8.00000000E-01  8.00000000E-01  1.50000000E+00  8.00000000E-01  8.00000000E-01
  1.50000000E+00  8.00000000E-01  8.00000000E-01  1.50000000E+00  8.00000000E-01
  8.00000000E-01  1.50000000E+00  8.00000000E-01  8.00000000E-01  1.50000000E+00
  8.00000000E-01  8.00000000E-01  1.50000000E+00  8.00000000E-01  8.00000000E-01
  1.50000000E+00  8.00000000E-01  8.00000000E-01  1.50000000E+00  8.00000000E-01
  8.00000000E-01  1.50000000E+00  8.00000000E-01  8.00000000E-01  1.50000000E+00
  8.00000000E-01  8.00000000E-01  1.50000000E+00  8.00000000E-01  8.00000000E-01
  1.50000000E+00  8.00000000E-01  8.00000000E-01  1.50000000E+00  8.00000000E-01
  8.00000000E-01  1.50000000E+00  8.00000000E-01  8.00000000E-01  1.50000000E+00
  8.00000000E-01  8.00000000E-01  1.50000000E+00  8.00000000E-01  8.00000000E-01
  1.50000000E+00  8.00000000E-01  8.00000000E-01  1.50000000E+00  8.00000000E-01
  8.00000000E-01  1.50000000E+00  8.00000000E-01  8.00000000E-01  1.50000000E+00
  8.00000000E-01  8.00000000E-01  1.50000000E+00  8.00000000E-01  8.00000000E-01
  1.50000000E+00  8.00000000E-01  8.00000000E-01  1.50000000E+00  8.00000000E-01
  8.00000000E-01  1.50000000E+00  8.00000000E-01  8.00000000E-01  1.50000000E+00
  8.00000000E-01  8.00000000E-01  1.50000000E+00  8.00000000E-01  8.00000000E-01
  1.50000000E+00  8.00000000E-01  8.00000000E-01  1.50000000E+00  8.00000000E-01
  8.00000000E-01  1.50000000E+00  8.00000000E-01  8.00000000E-01  1.50000000E+00
  8.00000000E-01  8.00000000E-01  1.50000000E+00  8.00000000E-01  8.00000000E-01
  1.50000000E+00  8.00000000E-01  8.00000000E-01  1.50000000E+00  8.00000000E-01
  8.00000000E-01  1.50000000E+00  8.00000000E-01  8.00000000E-01  1.50000000E+00
  8.00000000E-01  8.00000000E-01  1.50000000E+00  8.00000000E-01  8.00000000E-01
  1.50000000E+00  8.00000000E-01  8.00000000E-01  1.50000000E+00  8.00000000E-01
  8.00000000E-01  1.50000000E+00  8.00000000E-01  8.00000000E-01  1.50000000E+00
  8.00000000E-01  8.00000000E-01  1.50000000E+00  8.00000000E-01  8.00000000E-01
  1.50000000E+00  8.00000000E-01  8.00000000E-01  1.50000000E+00  8.00000000E-01
  8.00000000E-01  1.50000000E+00  8.00000000E-01  8.00000000E-01  1.50000000E+00
  8.00000000E-01  8.00000000E-01  1.50000000E+00  8.00000000E-01  8.00000000E-01
  1.50000000E+00  8.00000000E-01  8.00000000E-01  1.50000000E+00  8.00000000E-01
  8.00000000E-01  1.50000000E+00  8.00000000E-01  8.00000000E-01  1.50000000E+00
  8.00000000E-01  8.00000000E-01  1.50000000E+00  8.00000000E-01  8.00000000E-01
  1.50000000E+00  8.00000000E-01  8.00000000E-01  1.50000000E+00  8.00000000E-01
  8.00000000E-01  1.50000000E+00  8.00000000E-01  8.00000000E-01  1.50000000E+00
  8.00000000E-01  8.00000000E-01  1.50000000E+00  8.00000000E-01  8.00000000E-01
  1.50000000E+00  8.00000000E-01  8.00000000E-01  1.50000000E+00  8.00000000E-01
  8.00000000E-01  1.50000000E+00  8.00000000E-01  8.00000000E-01  1.50000000E+00
  8.00000000E-01  8.00000000E-01  1.50000000E+00  8.00000000E-01  8.00000000E-01
  1.50000000E+00  8.00000000E-01  8.00000000E-01  1.50000000E+00  8.00000000E-01
  8.00000000E-01  1.50000000E+00  8.00000000E-01  8.00000000E-01  1.50000000E+00
  8.00000000E-01  8.00000000E-01  1.50000000E+00  8.00000000E-01  8.00000000E-01
  1.50000000E+00  8.00000000E-01  8.00000000E-01  1.50000000E+00  8.00000000E-01
  8.00000000E-01  1.50000000E+00  8.00000000E-01  8.00000000E-01  1.50000000E+00
  8.00000000E-01  8.00000000E-01  1.50000000E+00  8.00000000E-01  8.00000000E-01
  1.50000000E+00  8.00000000E-01  8.00000000E-01  1.50000000E+00  8.00000000E-01
  8.00000000E-01  1.50000000E+00  8.00000000E-01  8.00000000E-01  1.50000000E+00
  8.00000000E-01  8.00000000E-01  1.50000000E+00  8.00000000E-01  8.00000000E-01
  1.50000000E+00  8.00000000E-01  8.00000000E-01  1.50000000E+00  8.00000000E-01
  8.00000000E-01  1.50000000E+00  8.00000000E-01  8.00000000E-01  1.50000000E+00
  8.00000000E-01  8.00000000E-01  1.50000000E+00  8.00000000E-01  8.00000000E-01
  1.50000000E+00  8.00000000E-01  8.00000000E-01  1.50000000E+00  8.00000000E-01
  8.00000000E-01  1.50000000E+00  8.00000000E-01  8.00000000E-01  1.50000000E+00
  8.00000000E-01  8.00000000E-01  1.50000000E+00  8.00000000E-01  8.00000000E-01
  1.50000000E+00  8.00000000E-01  8.00000000E-01  1.50000000E+00  8.00000000E-01
  8.00000000E-01  1.50000000E+00  8.00000000E-01  8.00000000E-01  1.50000000E+00
  8.00000000E-01  8.00000000E-01  1.50000000E+00  8.00000000E-01  8.00000000E-01
  1.50000000E+00  8.00000000E-01  8.00000000E-01  1.50000000E+00  8.00000000E-01
  8.00000000E-01  1.50000000E+00  8.00000000E-01  8.00000000E-01  1.50000000E+00
  8.00000000E-01  8.00000000E-01  1.50000000E+00  8.00000000E-01  8.00000000E-01
  1.50000000E+00  8.00000000E-01  8.00000000E-01  1.50000000E+00  8.00000000E-01
  8.00000000E-01  1.50000000E+00  8.00000000E-01  8.00000000E-01  1.50000000E+00
  8.00000000E-01  8.00000000E-01  1.50000000E+00  8.00000000E-01  8.00000000E-01
  1.50000000E+00  8.00000000E-01  8.00000000E-01  1.50000000E+00  8.00000000E-01
  8.00000000E-01  1.50000000E+00  8.00000000E-01  8.00000000E-01  1.50000000E+00
  8.00000000E-01  8.00000000E-01  1.50000000E+00  8.00000000E-01  8.00000000E-01
  1.50000000E+00  8.00000000E-01  8.00000000E-01  1.50000000E+00  8.00000000E-01
  8.00000000E-01  1.50000000E+00  8.00000000E-01  8.00000000E-01  1.50000000E+00
  8.00000000E-01  8.00000000E-01  1.50000000E+00  8.00000000E-01  8.00000000E-01
  1.50000000E+00  8.00000000E-01  8.00000000E-01  1.50000000E+00  8.00000000E-01
  8.00000000E-01  1.50000000E+00  8.00000000E-01  8.00000000E-01  1.50000000E+00
  8.00000000E-01  8.00000000E-01  1.50000000E+00  8.00000000E-01  8.00000000E-01
  1.50000000E+00  8.00000000E-01  8.00000000E-01  1.50000000E+00  8.00000000E-01
  8.00000000E-01  1.50000000E+00  8.00000000E-01  8.00000000E-01  1.50000000E+00
  8.00000000E-01  8.00000000E-01  1.50000000E+00  8.00000000E-01  8.00000000E-01
  1.50000000E+00  8.00000000E-01  8.00000000E-01  1.50000000E+00  8.00000000E-01
  8.00000000E-01  1.50000000E+00  8.00000000E-01  8.00000000E-01  1.50000000E+00
  8.00000000E-01  8.00000000E-01  1.50000000E+00  8.00000000E-01  8.00000000E-01
  1.50000000E+00  8.00000000E-01  8.00000000E-01  1.50000000E+00  8.00000000E-01
  8.00000000E-01  1.50000000E+00  8.00000000E-01  8.00000000E-01  1.50000000E+00
  8.00000000E-01  8.00000000E-01  1.50000000E+00  8.00000000E-01  8.00000000E-01
  1.50000000E+00  8.00000000E-01  8.00000000E-01  1.50000000E+00  8.00000000E-01
  8.00000000E-01  1.50000000E+00  8.00000000E-01  8.00000000E-01  1.50000000E+00
  8.00000000E-01  8.00000000E-01  1.50000000E+00  8.00000000E-01  8.00000000E-01
  1.50000000E+00  8.00000000E-01  8.00000000E-01  1.50000000E+00  8.00000000E-01
  8.00000000E-01  1.50000000E+00  8.00000000E-01  8.00000000E-01  1.50000000E+00
  8.00000000E-01  8.00000000E-01  1.50000000E+00  8.00000000E-01  8.00000000E-01
  1.50000000E+00  8.00000000E-01  8.00000000E-01  1.50000000E+00  8.00000000E-01
  8.00000000E-01  1.50000000E+00  8.00000000E-01  8.00000000E-01  1.50000000E+00
  8.00000000E-01  8.00000000E-01  1.50000000E+00  8.00000000E-01  8.00000000E-01
  1.50000000E+00  8.00000000E-01  8.00000000E-01  1.50000000E+00  8.00000000E-01
  8.00000000E-01  1.50000000E+00  8.00000000E-01  8.00000000E-01  1.50000000E+00
  8.00000000E-01  8.00000000E-01  1.50000000E+00  8.00000000E-01  8.00000000E-01
  1.50000000E+00  8.00000000E-01  8.00000000E-01  1.50000000E+00  8.00000000E-01
  8.00000000E-01  1.50000000E+00  8.00000000E-01  8.00000000E-01  1.50000000E+00
  8.00000000E-01  8.00000000E-01  1.50000000E+00  8.00000000E-01  8.00000000E-01
  1.50000000E+00  8.00000000E-01  8.00000000E-01  1.50000000E+00  8.00000000E-01
  8.00000000E-01  1.50000000E+00  8.00000000E-01  8.00000000E-01  1.50000000E+00
  8.00000000E-01  8.00000000E-01  1.50000000E+00  8.00000000E-01  8.00000000E-01
  1.50000000E+00  8.00000000E-01  8.00000000E-01  1.50000000E+00  8.00000000E-01
  8.00000000E-01  1.50000000E+00  8.00000000E-01  8.00000000E-01  1.50000000E+00
  8.00000000E-01  8.00000000E-01  1.50000000E+00  8.00000000E-01  8.00000000E-01
  1.50000000E+00  8.00000000E-01  8.00000000E-01  1.50000000E+00  8.00000000E-01
  8.00000000E-01  1.50000000E+00  8.00000000E-01  8.00000000E-01  1.50000000E+00
  8.00000000E-01  8.00000000E-01  1.50000000E+00  8.00000000E-01  8.00000000E-01
  1.50000000E+00  8.00000000E-01  8.00000000E-01  1.50000000E+00  8.00000000E-01
  8.00000000E-01  1.50000000E+00  8.00000000E-01  8.00000000E-01  1.50000000E+00
  8.00000000E-01  8.00000000E-01  1.50000000E+00  8.00000000E-01  8.00000000E-01
  1.50000000E+00  8.00000000E-01  8.00000000E-01  1.50000000E+00  8.00000000E-01
  8.00000000E-01  1.50000000E+00  8.00000000E-01  8.00000000E-01  1.50000000E+00
  8.00000000E-01  8.00000000E-01  1.50000000E+00  8.00000000E-01  8.00000000E-01
  1.50000000E+00  8.00000000E-01  8.00000000E-01  1.50000000E+00  8.00000000E-01
  8.00000000E-01  1.50000000E+00  8.00000000E-01  8.00000000E-01  1.50000000E+00
  8.00000000E-01  8.00000000E-01  1.50000000E+00  8.00000000E-01  8.00000000E-01
  1.50000000E+00  8.00000000E-01  8.00000000E-01  1.50000000E+00  8.00000000E-01
  8.00000000E-01  1.50000000E+00  8.00000000E-01  8.00000000E-01  1.50000000E+00
  8.00000000E-01  8.00000000E-01  1.50000000E+00  8.00000000E-01  8.00000000E-01
  1.50000000E+00  8.00000000E-01  8.00000000E-01  1.50000000E+00  8.00000000E-01
  8.00000000E-01  1.50000000E+00  8.00000000E-01  8.00000000E-01  1.50000000E+00
  8.00000000E-01  8.00000000E-01  1.50000000E+00  8.00000000E-01  8.00000000E-01
  1.50000000E+00  8.00000000E-01  8.00000000E-01  1.50000000E+00  8.00000000E-01
  8.00000000E-01  1.50000000E+00  8.00000000E-01  8.00000000E-01  1.50000000E+00
  8.00000000E-01  8.00000000E-01  1.50000000E+00  8.00000000E-01  8.00000000E-01
  1.50000000E+00  8.00000000E-01  8.00000000E-01  1.50000000E+00  8.00000000E-01
  8.00000000E-01  1.50000000E+00  8.00000000E-01  8.00000000E-01  1.50000000E+00
  8.00000000E-01  8.00000000E-01  1.50000000E+00  8.00000000E-01  8.00000000E-01
  1.50000000E+00  8.00000000E-01  8.00000000E-01  1.50000000E+00  8.00000000E-01
  8.00000000E-01  1.50000000E+00  8.00000000E-01  8.00000000E-01  1.50000000E+00
  8.00000000E-01  8.00000000E-01  1.50000000E+00  8.00000000E-01  8.00000000E-01
  1.50000000E+00  8.00000000E-01  8.00000000E-01  1.50000000E+00  8.00000000E-01
  8.00000000E-01  1.50000000E+00  8.00000000E-01  8.00000000E-01  1.50000000E+00
  8.00000000E-01  8.00000000E-01  1.50000000E+00  8.00000000E-01  8.00000000E-01
  1.50000000E+00  8.00000000E-01  8.00000000E-01  1.50000000E+00  8.00000000E-01
  8.00000000E-01  1.50000000E+00  8.00000000E-01  8.00000000E-01  1.50000000E+00
  8.00000000E-01  8.00000000E-01  1.50000000E+00  8.00000000E-01  8.00000000E-01
  1.50000000E+00  8.00000000E-01  8.00000000E-01  1.50000000E+00  8.00000000E-01
  8.00000000E-01  1.50000000E+00  8.00000000E-01  8.00000000E-01  1.50000000E+00
  8.00000000E-01  8.00000000E-01  1.50000000E+00  8.00000000E-01  8.00000000E-01
  1.50000000E+00  8.00000000E-01  8.00000000E-01  1.50000000E+00  8.00000000E-01
  8.00000000E-01  1.50000000E+00  8.00000000E-01  8.00000000E-01  1.50000000E+00
  8.00000000E-01  8.00000000E-01  1.50000000E+00  8.00000000E-01  8.00000000E-01
  1.50000000E+00  8.00000000E-01  8.00000000E-01  1.50000000E+00  8.00000000E-01
  8.00000000E-01  1.50000000E+00  8.00000000E-01  8.00000000E-01  1.50000000E+00
  8.00000000E-01  8.00000000E-01  1.50000000E+00  8.00000000E-01  8.00000000E-01
  1.50000000E+00  8.00000000E-01  8.00000000E-01  1.50000000E+00  8.00000000E-01
  8.00000000E-01  1.50000000E+00  8.00000000E-01  8.00000000E-01  1.50000000E+00
  8.00000000E-01  8.00000000E-01  1.50000000E+00  8.00000000E-01  8.00000000E-01
  1.50000000E+00  8.00000000E-01  8.00000000E-01  1.50000000E+00  8.00000000E-01
  8.00000000E-01  1.50000000E+00  8.00000000E-01  8.00000000E-01  1.50000000E+00
  8.00000000E-01  8.00000000E-01  1.50000000E+00  8.00000000E-01  8.00000000E-01
  1.50000000E+00  8.00000000E-01  8.00000000E-01  1.50000000E+00  8.00000000E-01
  8.00000000E-01  1.50000000E+00  8.00000000E-01  8.00000000E-01  1.50000000E+00
  8.00000000E-01  8.00000000E-01  1.50000000E+00  8.00000000E-01  8.00000000E-01
  1.50000000E+00  8.00000000E-01  8.00000000E-01  1.50000000E+00  8.00000000E-01
  8.00000000E-01  1.50000000E+00  8.00000000E-01  8.00000000E-01  1.50000000E+00
  8.00000000E-01  8.00000000E-01  1.50000000E+00  8.00000000E-01  8.00000000E-01
  1.50000000E+00  8.00000000E-01  8.00000000E-01  1.50000000E+00  8.00000000E-01
  8.00000000E-01  1.50000000E+00  8.00000000E-01  8.00000000E-01  1.50000000E+00
  8.00000000E-01  8.00000000E-01  1.50000000E+00  8.00000000E-01  8.00000000E-01
  1.50000000E+00  8.00000000E-01  8.00000000E-01  1.50000000E+00  8.00000000E-01
  8.00000000E-01  1.50000000E+00  8.00000000E-01  8.00000000E-01  1.50000000E+00
  8.00000000E-01  8.00000000E-01  1.50000000E+00  8.00000000E-01  8.00000000E-01
  1.50000000E+00  8.00000000E-01  8.00000000E-01  1.50000000E+00  8.00000000E-01
  8.00000000E-01  1.50000000E+00  8.00000000E-01  8.00000000E-01  1.50000000E+00
  8.00000000E-01  8.00000000E-01  1.50000000E+00  8.00000000E-01  8.00000000E-01
  1.50000000E+00  8.00000000E-01  8.00000000E-01  1.50000000E+00  8.00000000E-01
  8.00000000E-01  1.50000000E+00  8.00000000E-01  8.00000000E-01  1.50000000E+00
  8.00000000E-01  8.00000000E-01  1.50000000E+00  8.00000000E-01  8.00000000E-01
  1.50000000E+00  8.00000000E-01  8.00000000E-01  1.50000000E+00  8.00000000E-01
  8.00000000E-01  1.50000000E+00  8.00000000E-01  8.00000000E-01  1.50000000E+00
  8.00000000E-01  8.00000000E-01  1.50000000E+00  8.00000000E-01  8.00000000E-01
  1.50000000E+00  8.00000000E-01  8.00000000E-01  1.50000000E+00  8.00000000E-01
  8.00000000E-01  1.50000000E+00  8.00000000E-01  8.00000000E-01  1.50000000E+00
  8.00000000E-01  8.00000000E-01  1.50000000E+00  8.00000000E-01  8.00000000E-01
  1.50000000E+00  8.00000000E-01  8.00000000E-01  1.50000000E+00  8.00000000E-01
  8.00000000E-01  1.50000000E+00  8.00000000E-01  8.00000000E-01  1.50000000E+00
  8.00000000E-01  8.00000000E-01  1.50000000E+00  8.00000000E-01  8.00000000E-01
  1.50000000E+00  8.00000000E-01  8.00000000E-01  1.50000000E+00  8.00000000E-01
  8.00000000E-01  1.50000000E+00  8.00000000E-01  8.00000000E-01  1.50000000E+00
  8.00000000E-01  8.00000000E-01  1.50000000E+00  8.00000000E-01  8.00000000E-01
  1.50000000E+00  8.00000000E-01  8.00000000E-01  1.50000000E+00  8.00000000E-01
  8.00000000E-01  1.50000000E+00  8.00000000E-01  8.00000000E-01  1.50000000E+00
  8.00000000E-01  8.00000000E-01  1.50000000E+00  8.00000000E-01  8.00000000E-01
  1.50000000E+00  8.00000000E-01  8.00000000E-01  1.50000000E+00  8.00000000E-01
  8.00000000E-01  1.50000000E+00  8.00000000E-01  8.00000000E-01  1.50000000E+00
  8.00000000E-01  8.00000000E-01  1.50000000E+00  8.00000000E-01  8.00000000E-01
  1.50000000E+00  8.00000000E-01  8.00000000E-01  1.50000000E+00  8.00000000E-01
  8.00000000E-01  1.50000000E+00  8.00000000E-01  8.00000000E-01  1.50000000E+00
  8.00000000E-01  8.00000000E-01  1.50000000E+00  8.00000000E-01  8.00000000E-01
  1.50000000E+00  8.00000000E-01  8.00000000E-01  1.50000000E+00  8.00000000E-01
  8.00000000E-01  1.50000000E+00  8.00000000E-01  8.00000000E-01  1.50000000E+00
  8.00000000E-01  8.00000000E-01  1.50000000E+00  8.00000000E-01  8.00000000E-01
  1.50000000E+00  8.00000000E-01  8.00000000E-01  1.50000000E+00  8.00000000E-01
  8.00000000E-01  1.50000000E+00  8.00000000E-01  8.00000000E-01  1.50000000E+00
  8.00000000E-01  8.00000000E-01  1.50000000E+00  8.00000000E-01  8.00000000E-01
  1.50000000E+00  8.00000000E-01  8.00000000E-01  1.50000000E+00  8.00000000E-01
  8.00000000E-01  1.50000000E+00  8.00000000E-01  8.00000000E-01  1.50000000E+00
  8.00000000E-01  8.00000000E-01  1.50000000E+00  8.00000000E-01  8.00000000E-01
  1.50000000E+00  8.00000000E-01  8.00000000E-01  1.50000000E+00  8.00000000E-01
  8.00000000E-01  1.50000000E+00  8.00000000E-01  8.00000000E-01  1.50000000E+00
  8.00000000E-01  8.00000000E-01  1.50000000E+00  8.00000000E-01  8.00000000E-01
  1.50000000E+00  8.00000000E-01  8.00000000E-01  1.50000000E+00  8.00000000E-01
  8.00000000E-01  1.50000000E+00  8.00000000E-01  8.00000000E-01  1.50000000E+00
  8.00000000E-01  8.00000000E-01  1.50000000E+00  8.00000000E-01  8.00000000E-01
  1.50000000E+00  8.00000000E-01  8.00000000E-01  1.50000000E+00  8.00000000E-01
  8.00000000E-01  1.50000000E+00  8.00000000E-01  8.00000000E-01  1.50000000E+00
  8.00000000E-01  8.00000000E-01  1.50000000E+00  8.00000000E-01  8.00000000E-01
  1.50000000E+00  8.00000000E-01  8.00000000E-01  1.50000000E+00  8.00000000E-01
  8.00000000E-01  1.50000000E+00  8.00000000E-01  8.00000000E-01  1.50000000E+00
  8.00000000E-01  8.00000000E-01  1.50000000E+00  8.00000000E-01  8.00000000E-01
  1.50000000E+00  8.00000000E-01  8.00000000E-01  1.50000000E+00  8.00000000E-01
  8.00000000E-01  1.50000000E+00  8.00000000E-01  8.00000000E-01  1.50000000E+00
  8.00000000E-01  8.00000000E-01  1.50000000E+00  8.00000000E-01  8.00000000E-01
  1.50000000E+00  8.00000000E-01  8.00000000E-01  1.50000000E+00  8.00000000E-01
  8.00000000E-01  1.50000000E+00  8.00000000E-01  8.00000000E-01  1.50000000E+00
  8.00000000E-01  8.00000000E-01  1.50000000E+00  8.00000000E-01  8.00000000E-01
  1.50000000E+00  8.00000000E-01  8.00000000E-01  1.50000000E+00  8.00000000E-01
  8.00000000E-01  1.50000000E+00  8.00000000E-01  8.00000000E-01  1.50000000E+00
  8.00000000E-01  8.00000000E-01  1.50000000E+00  8.00000000E-01  8.00000000E-01
  1.50000000E+00  8.00000000E-01  8.00000000E-01  1.50000000E+00  8.00000000E-01
  8.00000000E-01  1.50000000E+00  8.00000000E-01  8.00000000E-01  1.50000000E+00
  8.00000000E-01  8.00000000E-01  1.50000000E+00  8.00000000E-01  8.00000000E-01
  1.50000000E+00  8.00000000E-01  8.00000000E-01  1.50000000E+00  8.00000000E-01
  8.00000000E-01  1.50000000E+00  8.00000000E-01  8.00000000E-01  1.50000000E+00
  8.00000000E-01  8.00000000E-01  1.50000000E+00  8.00000000E-01  8.00000000E-01
  1.50000000E+00  8.00000000E-01  8.00000000E-01  1.50000000E+00  8.00000000E-01
  8.00000000E-01  1.50000000E+00  8.00000000E-01  8.00000000E-01  1.50000000E+00
  8.00000000E-01  8.00000000E-01  1.50000000E+00  8.00000000E-01  8.00000000E-01
  1.50000000E+00  8.00000000E-01  8.00000000E-01  1.50000000E+00  8.00000000E-01
  8.00000000E-01  1.50000000E+00  8.00000000E-01  8.00000000E-01  1.50000000E+00
  8.00000000E-01  8.00000000E-01  1.50000000E+00  8.00000000E-01  8.00000000E-01
  1.50000000E+00  8.00000000E-01  8.00000000E-01  1.50000000E+00  8.00000000E-01
  8.00000000E-01  1.50000000E+00  8.00000000E-01  8.00000000E-01  1.50000000E+00
  8.00000000E-01  8.00000000E-01  1.50000000E+00  8.00000000E-01  8.00000000E-01
  1.50000000E+00  8.00000000E-01  8.00000000E-01  1.50000000E+00  8.00000000E-01
  8.00000000E-01  1.50000000E+00  8.00000000E-01  8.00000000E-01  1.50000000E+00
  8.00000000E-01  8.00000000E-01  1.50000000E+00  8.00000000E-01  8.00000000E-01
  1.50000000E+00  8.00000000E-01  8.00000000E-01  1.50000000E+00  8.00000000E-01
  8.00000000E-01  1.50000000E+00  8.00000000E-01  8.00000000E-01  1.50000000E+00
  8.00000000E-01  8.00000000E-01  1.50000000E+00  8.00000000E-01  8.00000000E-01
  1.50000000E+00  8.00000000E-01  8.00000000E-01  1.50000000E+00  8.00000000E-01
  8.00000000E-01  1.50000000E+00  8.00000000E-01  8.00000000E-01  1.50000000E+00
  8.00000000E-01  8.00000000E-01  1.50000000E+00  8.00000000E-01  8.00000000E-01
  1.50000000E+00  8.00000000E-01  8.00000000E-01  1.50000000E+00  8.00000000E-01
  8.00000000E-01  1.50000000E+00  8.00000000E-01  8.00000000E-01  1.50000000E+00
  8.00000000E-01  8.00000000E-01  1.50000000E+00  8.00000000E-01  8.00000000E-01
  1.50000000E+00  8.00000000E-01  8.00000000E-01  1.50000000E+00  8.00000000E-01
  8.00000000E-01  1.50000000E+00  8.00000000E-01  8.00000000E-01  1.50000000E+00
  8.00000000E-01  8.00000000E-01  1.50000000E+00  8.00000000E-01  8.00000000E-01
  1.50000000E+00  8.00000000E-01  8.00000000E-01  1.50000000E+00  8.00000000E-01
  8.00000000E-01  1.50000000E+00  8.00000000E-01  8.00000000E-01  1.50000000E+00
  8.00000000E-01  8.00000000E-01  1.50000000E+00  8.00000000E-01  8.00000000E-01
  1.50000000E+00  8.00000000E-01  8.00000000E-01  1.50000000E+00  8.00000000E-01
  8.00000000E-01  1.50000000E+00  8.00000000E-01  8.00000000E-01  1.50000000E+00
  8.00000000E-01  8.00000000E-01  1.50000000E+00  8.00000000E-01  8.00000000E-01
  1.50000000E+00  8.00000000E-01  8.00000000E-01  1.50000000E+00  8.00000000E-01
  8.00000000E-01  1.50000000E+00  8.00000000E-01  8.00000000E-01  1.50000000E+00
  8.00000000E-01  8.00000000E-01  1.50000000E+00  8.00000000E-01  8.00000000E-01
  1.50000000E+00  8.00000000E-01  8.00000000E-01  1.50000000E+00  8.00000000E-01
  8.00000000E-01  1.50000000E+00  8.00000000E-01  8.00000000E-01  1.50000000E+00
  8.00000000E-01  8.00000000E-01  1.50000000E+00  8.00000000E-01  8.00000000E-01
  1.50000000E+00  8.00000000E-01  8.00000000E-01  1.50000000E+00  8.00000000E-01
  8.00000000E-01  1.50000000E+00  8.00000000E-01  8.00000000E-01  1.50000000E+00
  8.00000000E-01  8.00000000E-01  1.50000000E+00  8.00000000E-01  8.00000000E-01
  1.50000000E+00  8.00000000E-01  8.00000000E-01  1.50000000E+00  8.00000000E-01
  8.00000000E-01  1.50000000E+00  8.00000000E-01  8.00000000E-01  1.50000000E+00
  8.00000000E-01  8.00000000E-01  1.50000000E+00  8.00000000E-01  8.00000000E-01
  1.50000000E+00  8.00000000E-01  8.00000000E-01  1.50000000E+00  8.00000000E-01
  8.00000000E-01  1.50000000E+00  8.00000000E-01  8.00000000E-01  1.50000000E+00
  8.00000000E-01  8.00000000E-01  1.50000000E+00  8.00000000E-01  8.00000000E-01
  1.50000000E+00  8.00000000E-01  8.00000000E-01  1.50000000E+00  8.00000000E-01
  8.00000000E-01  1.50000000E+00  8.00000000E-01  8.00000000E-01  1.50000000E+00
  8.00000000E-01  8.00000000E-01  1.50000000E+00  8.00000000E-01  8.00000000E-01
  1.50000000E+00  8.00000000E-01  8.00000000E-01  1.50000000E+00  8.00000000E-01
  8.00000000E-01  1.50000000E+00  8.00000000E-01  8.00000000E-01  1.50000000E+00
  8.00000000E-01  8.00000000E-01  1.50000000E+00  8.00000000E-01  8.00000000E-01
  1.50000000E+00  8.00000000E-01  8.00000000E-01  1.50000000E+00  8.00000000E-01
  8.00000000E-01  1.50000000E+00  8.00000000E-01  8.00000000E-01  1.50000000E+00
  8.00000000E-01  8.00000000E-01  1.50000000E+00  8.00000000E-01  8.00000000E-01
  1.50000000E+00  8.00000000E-01  8.00000000E-01  1.50000000E+00  8.00000000E-01
  8.00000000E-01  1.50000000E+00  8.00000000E-01  8.00000000E-01  1.50000000E+00
  8.00000000E-01  8.00000000E-01  1.50000000E+00  8.00000000E-01  8.00000000E-01
  1.50000000E+00  8.00000000E-01  8.00000000E-01  1.50000000E+00  8.00000000E-01
  8.00000000E-01  1.50000000E+00  8.00000000E-01  8.00000000E-01  1.50000000E+00
  8.00000000E-01  8.00000000E-01  1.50000000E+00  8.00000000E-01  8.00000000E-01
  1.50000000E+00  8.00000000E-01  8.00000000E-01  1.50000000E+00  8.00000000E-01
  8.00000000E-01  1.50000000E+00  8.00000000E-01  8.00000000E-01  1.50000000E+00
  8.00000000E-01  8.00000000E-01  1.50000000E+00  8.00000000E-01  8.00000000E-01
  1.50000000E+00  8.00000000E-01  8.00000000E-01  1.50000000E+00  8.00000000E-01
  8.00000000E-01  1.50000000E+00  8.00000000E-01  8.00000000E-01  1.50000000E+00
  8.00000000E-01  8.00000000E-01  1.50000000E+00  8.00000000E-01  8.00000000E-01
  1.50000000E+00  8.00000000E-01  8.00000000E-01  1.50000000E+00  8.00000000E-01
  8.00000000E-01  1.50000000E+00  8.00000000E-01  8.00000000E-01  1.50000000E+00
  8.00000000E-01  8.00000000E-01  1.50000000E+00  8.00000000E-01  8.00000000E-01
  1.50000000E+00  8.00000000E-01  8.00000000E-01  1.50000000E+00  8.00000000E-01
  8.00000000E-01  1.50000000E+00  8.00000000E-01  8.00000000E-01  1.50000000E+00
  8.00000000E-01  8.00000000E-01  1.50000000E+00  8.00000000E-01  8.00000000E-01
  1.50000000E+00  8.00000000E-01  8.00000000E-01  1.50000000E+00  8.00000000E-01
  8.00000000E-01  1.50000000E+00  8.00000000E-01  8.00000000E-01  1.50000000E+00
  8.00000000E-01  8.00000000E-01  1.50000000E+00  8.00000000E-01  8.00000000E-01
  1.50000000E+00  8.00000000E-01  8.00000000E-01  1.50000000E+00  8.00000000E-01
  8.00000000E-01  1.50000000E+00  8.00000000E-01  8.00000000E-01  1.50000000E+00
  8.00000000E-01  8.00000000E-01  1.50000000E+00  8.00000000E-01  8.00000000E-01
  1.50000000E+00  8.00000000E-01  8.00000000E-01  1.50000000E+00  8.00000000E-01
  8.00000000E-01  1.50000000E+00  8.00000000E-01  8.00000000E-01  1.50000000E+00
  8.00000000E-01  8.00000000E-01  1.50000000E+00  8.00000000E-01  8.00000000E-01
  1.50000000E+00  8.00000000E-01  8.00000000E-01  1.50000000E+00  8.00000000E-01
  8.00000000E-01  1.50000000E+00  8.00000000E-01  8.00000000E-01  1.50000000E+00
  8.00000000E-01  8.00000000E-01  1.50000000E+00  8.00000000E-01  8.00000000E-01
  1.50000000E+00  8.00000000E-01  8.00000000E-01  1.50000000E+00  8.00000000E-01
  8.00000000E-01  1.50000000E+00  8.00000000E-01  8.00000000E-01  1.50000000E+00
  8.00000000E-01  8.00000000E-01  1.50000000E+00  8.00000000E-01  8.00000000E-01
  1.50000000E+00  8.00000000E-01  8.00000000E-01  1.50000000E+00  8.00000000E-01
  8.00000000E-01  1.50000000E+00  8.00000000E-01  8.00000000E-01  1.50000000E+00
  8.00000000E-01  8.00000000E-01  1.50000000E+00  8.00000000E-01  8.00000000E-01
  1.50000000E+00  8.00000000E-01  8.00000000E-01  1.50000000E+00  8.00000000E-01
  8.00000000E-01  1.50000000E+00  8.00000000E-01  8.00000000E-01  1.50000000E+00
  8.00000000E-01  8.00000000E-01  1.50000000E+00  8.00000000E-01  8.00000000E-01
  1.50000000E+00  8.00000000E-01  8.00000000E-01  1.50000000E+00  8.00000000E-01
  8.00000000E-01  1.50000000E+00  8.00000000E-01  8.00000000E-01  1.50000000E+00
  8.00000000E-01  8.00000000E-01  1.50000000E+00  8.00000000E-01  8.00000000E-01
  1.50000000E+00  8.00000000E-01  8.00000000E-01  1.50000000E+00  8.00000000E-01
  8.00000000E-01  1.50000000E+00  8.00000000E-01  8.00000000E-01  1.50000000E+00
  8.00000000E-01  8.00000000E-01  1.50000000E+00  8.00000000E-01  8.00000000E-01
  1.50000000E+00  8.00000000E-01  8.00000000E-01  1.50000000E+00  8.00000000E-01
  8.00000000E-01  1.50000000E+00  8.00000000E-01  8.00000000E-01  1.50000000E+00
  8.00000000E-01  8.00000000E-01  1.50000000E+00  8.00000000E-01  8.00000000E-01
  1.50000000E+00  8.00000000E-01  8.00000000E-01  1.50000000E+00  8.00000000E-01
  8.00000000E-01  1.50000000E+00  8.00000000E-01  8.00000000E-01  1.50000000E+00
  8.00000000E-01  8.00000000E-01  1.50000000E+00  8.00000000E-01  8.00000000E-01
  1.50000000E+00  8.00000000E-01  8.00000000E-01  1.50000000E+00  8.00000000E-01
  8.00000000E-01  1.50000000E+00  8.00000000E-01  8.00000000E-01  1.50000000E+00
  8.00000000E-01  8.00000000E-01  1.50000000E+00  8.00000000E-01  8.00000000E-01
  1.50000000E+00  8.00000000E-01  8.00000000E-01  1.50000000E+00  8.00000000E-01
  8.00000000E-01  1.50000000E+00  8.00000000E-01  8.00000000E-01  1.50000000E+00
  8.00000000E-01  8.00000000E-01  1.50000000E+00  8.00000000E-01  8.00000000E-01
  1.50000000E+00  8.00000000E-01  8.00000000E-01  1.50000000E+00  8.00000000E-01
  8.00000000E-01  1.50000000E+00  8.00000000E-01  8.00000000E-01  1.50000000E+00
  8.00000000E-01  8.00000000E-01  1.50000000E+00  8.00000000E-01  8.00000000E-01
  1.50000000E+00  8.00000000E-01  8.00000000E-01  1.50000000E+00  8.00000000E-01
  8.00000000E-01  1.50000000E+00  8.00000000E-01  8.00000000E-01  1.50000000E+00
  8.00000000E-01  8.00000000E-01  1.50000000E+00  8.00000000E-01  8.00000000E-01
  1.50000000E+00  8.00000000E-01  8.00000000E-01  1.50000000E+00  8.00000000E-01
  8.00000000E-01  1.50000000E+00  8.00000000E-01  8.00000000E-01  1.50000000E+00
  8.00000000E-01  8.00000000E-01  1.50000000E+00  8.00000000E-01  8.00000000E-01
  1.50000000E+00  8.00000000E-01  8.00000000E-01  1.50000000E+00  8.00000000E-01
  8.00000000E-01  1.50000000E+00  8.00000000E-01  8.00000000E-01  1.50000000E+00
  8.00000000E-01  8.00000000E-01  1.50000000E+00  8.00000000E-01  8.00000000E-01
  1.50000000E+00  8.00000000E-01  8.00000000E-01  1.50000000E+00  8.00000000E-01
  8.00000000E-01  1.50000000E+00  8.00000000E-01  8.00000000E-01  1.50000000E+00
  8.00000000E-01  8.00000000E-01  1.50000000E+00  8.00000000E-01  8.00000000E-01
  1.50000000E+00  8.00000000E-01  8.00000000E-01  1.50000000E+00  8.00000000E-01
  8.00000000E-01  1.50000000E+00  8.00000000E-01  8.00000000E-01  1.50000000E+00
  8.00000000E-01  8.00000000E-01  1.50000000E+00  8.00000000E-01  8.00000000E-01
  1.50000000E+00  8.00000000E-01  8.00000000E-01  1.50000000E+00  8.00000000E-01
  8.00000000E-01  1.50000000E+00  8.00000000E-01  8.00000000E-01  1.50000000E+00
  8.00000000E-01  8.00000000E-01  1.50000000E+00  8.00000000E-01  8.00000000E-01
  1.50000000E+00  8.00000000E-01  8.00000000E-01  1.50000000E+00  8.00000000E-01
  8.00000000E-01  1.50000000E+00  8.00000000E-01  8.00000000E-01  1.50000000E+00
  8.00000000E-01  8.00000000E-01  1.50000000E+00  8.00000000E-01  8.00000000E-01
  1.50000000E+00  8.00000000E-01  8.00000000E-01  1.50000000E+00  8.00000000E-01
  8.00000000E-01  1.50000000E+00  8.00000000E-01  8.00000000E-01  1.50000000E+00
  8.00000000E-01  8.00000000E-01  1.50000000E+00  8.00000000E-01  8.00000000E-01
  1.50000000E+00  8.00000000E-01  8.00000000E-01  1.50000000E+00  8.00000000E-01
  8.00000000E-01  1.50000000E+00  8.00000000E-01  8.00000000E-01  1.50000000E+00
  8.00000000E-01  8.00000000E-01  1.50000000E+00  8.00000000E-01  8.00000000E-01
  1.50000000E+00  8.00000000E-01  8.00000000E-01  1.50000000E+00  8.00000000E-01
  8.00000000E-01  1.50000000E+00  8.00000000E-01  8.00000000E-01  1.50000000E+00
  8.00000000E-01  8.00000000E-01  1.50000000E+00  8.00000000E-01  8.00000000E-01
  1.50000000E+00  8.00000000E-01  8.00000000E-01  1.50000000E+00  8.00000000E-01
  8.00000000E-01  1.50000000E+00  8.00000000E-01  8.00000000E-01  1.50000000E+00
  8.00000000E-01  8.00000000E-01  1.50000000E+00  8.00000000E-01  8.00000000E-01
  1.50000000E+00  8.00000000E-01  8.00000000E-01  1.50000000E+00  8.00000000E-01
  8.00000000E-01  1.50000000E+00  8.00000000E-01  8.00000000E-01  1.50000000E+00
  8.00000000E-01  8.00000000E-01  1.50000000E+00  8.00000000E-01  8.00000000E-01
  1.50000000E+00  8.00000000E-01  8.00000000E-01  1.50000000E+00  8.00000000E-01
  8.00000000E-01  1.50000000E+00  8.00000000E-01  8.00000000E-01  1.50000000E+00
  8.00000000E-01  8.00000000E-01  1.50000000E+00  8.00000000E-01  8.00000000E-01
  1.50000000E+00  8.00000000E-01  8.00000000E-01  1.50000000E+00  8.00000000E-01
  8.00000000E-01  1.50000000E+00  8.00000000E-01  8.00000000E-01  1.50000000E+00
  8.00000000E-01  8.00000000E-01  1.50000000E+00  8.00000000E-01  8.00000000E-01
  1.50000000E+00  8.00000000E-01  8.00000000E-01  1.50000000E+00  8.00000000E-01
  8.00000000E-01  1.50000000E+00  8.00000000E-01  8.00000000E-01  1.50000000E+00
  8.00000000E-01  8.00000000E-01  1.50000000E+00  8.00000000E-01  8.00000000E-01
  1.50000000E+00  8.00000000E-01  8.00000000E-01  1.50000000E+00  8.00000000E-01
  8.00000000E-01  1.50000000E+00  8.00000000E-01  8.00000000E-01  1.50000000E+00
  8.00000000E-01  8.00000000E-01  1.50000000E+00  8.00000000E-01  8.00000000E-01
  1.50000000E+00  8.00000000E-01  8.00000000E-01  1.50000000E+00  8.00000000E-01
  8.00000000E-01  1.50000000E+00  8.00000000E-01  8.00000000E-01  1.50000000E+00
  8.00000000E-01  8.00000000E-01  1.50000000E+00  8.00000000E-01  8.00000000E-01
  1.50000000E+00  8.00000000E-01  8.00000000E-01  1.50000000E+00  8.00000000E-01
  8.00000000E-01  1.50000000E+00  8.00000000E-01  8.00000000E-01  1.50000000E+00
  8.00000000E-01  8.00000000E-01  1.50000000E+00  8.00000000E-01  8.00000000E-01
  1.50000000E+00  8.00000000E-01  8.00000000E-01  1.50000000E+00  8.00000000E-01
  8.00000000E-01  1.50000000E+00  8.00000000E-01  8.00000000E-01  1.50000000E+00
  8.00000000E-01  8.00000000E-01  1.50000000E+00  8.00000000E-01  8.00000000E-01
  1.50000000E+00  8.00000000E-01  8.00000000E-01  1.50000000E+00  8.00000000E-01
  8.00000000E-01  1.50000000E+00  8.00000000E-01  8.00000000E-01  1.50000000E+00
  8.00000000E-01  8.00000000E-01  1.50000000E+00  8.00000000E-01  8.00000000E-01
  1.50000000E+00  8.00000000E-01  8.00000000E-01  1.50000000E+00  8.00000000E-01
  8.00000000E-01  1.50000000E+00  8.00000000E-01  8.00000000E-01  1.50000000E+00
  8.00000000E-01  8.00000000E-01  1.50000000E+00  8.00000000E-01  8.00000000E-01
  1.50000000E+00  8.00000000E-01  8.00000000E-01  1.50000000E+00  8.00000000E-01
  8.00000000E-01  1.50000000E+00  8.00000000E-01  8.00000000E-01  1.50000000E+00
  8.00000000E-01  8.00000000E-01  1.50000000E+00  8.00000000E-01  8.00000000E-01
  1.50000000E+00  8.00000000E-01  8.00000000E-01  1.50000000E+00  8.00000000E-01
  8.00000000E-01  1.50000000E+00  8.00000000E-01  8.00000000E-01  1.50000000E+00
  8.00000000E-01  8.00000000E-01  1.50000000E+00  8.00000000E-01  8.00000000E-01
  1.50000000E+00  8.00000000E-01  8.00000000E-01  1.50000000E+00  8.00000000E-01
  8.00000000E-01  1.50000000E+00  8.00000000E-01  8.00000000E-01  1.50000000E+00
  8.00000000E-01  8.00000000E-01  1.50000000E+00  8.00000000E-01  8.00000000E-01
  1.50000000E+00  8.00000000E-01  8.00000000E-01  1.50000000E+00  8.00000000E-01
  8.00000000E-01  1.50000000E+00  8.00000000E-01  8.00000000E-01  1.50000000E+00
  8.00000000E-01  8.00000000E-01  1.50000000E+00  8.00000000E-01  8.00000000E-01
  1.50000000E+00  8.00000000E-01  8.00000000E-01  1.50000000E+00  8.00000000E-01
  8.00000000E-01  1.50000000E+00  8.00000000E-01  8.00000000E-01  1.50000000E+00
  8.00000000E-01  8.00000000E-01  1.50000000E+00  8.00000000E-01  8.00000000E-01
  1.50000000E+00  8.00000000E-01  8.00000000E-01  1.50000000E+00  8.00000000E-01
  8.00000000E-01  1.50000000E+00  8.00000000E-01  8.00000000E-01  1.50000000E+00
  8.00000000E-01  8.00000000E-01  1.50000000E+00  8.00000000E-01  8.00000000E-01
  1.50000000E+00  8.00000000E-01  8.00000000E-01  1.50000000E+00  8.00000000E-01
  8.00000000E-01  1.50000000E+00  8.00000000E-01  8.00000000E-01  1.50000000E+00
  8.00000000E-01  8.00000000E-01  1.50000000E+00  8.00000000E-01  8.00000000E-01
  1.50000000E+00  8.00000000E-01  8.00000000E-01  1.50000000E+00  8.00000000E-01
  8.00000000E-01  1.50000000E+00  8.00000000E-01  8.00000000E-01  1.50000000E+00
  8.00000000E-01  8.00000000E-01  1.50000000E+00  8.00000000E-01  8.00000000E-01
  1.50000000E+00  8.00000000E-01  8.00000000E-01  1.50000000E+00  8.00000000E-01
  8.00000000E-01  1.50000000E+00  8.00000000E-01  8.00000000E-01  1.50000000E+00
  8.00000000E-01  8.00000000E-01  1.50000000E+00  8.00000000E-01  8.00000000E-01
  1.50000000E+00  8.00000000E-01  8.00000000E-01  1.50000000E+00  8.00000000E-01
  8.00000000E-01  1.50000000E+00  8.00000000E-01  8.00000000E-01  1.50000000E+00
  8.00000000E-01  8.00000000E-01  1.50000000E+00  8.00000000E-01  8.00000000E-01
  1.50000000E+00  8.00000000E-01  8.00000000E-01  1.50000000E+00  8.00000000E-01
  8.00000000E-01  1.50000000E+00  8.00000000E-01  8.00000000E-01  1.50000000E+00
  8.00000000E-01  8.00000000E-01  1.50000000E+00  8.00000000E-01  8.00000000E-01
  1.50000000E+00  8.00000000E-01  8.00000000E-01  1.50000000E+00  8.00000000E-01
  8.00000000E-01  1.50000000E+00  8.00000000E-01  8.00000000E-01  1.50000000E+00
  8.00000000E-01  8.00000000E-01  1.50000000E+00  8.00000000E-01  8.00000000E-01
  1.50000000E+00  8.00000000E-01  8.00000000E-01  1.50000000E+00  8.00000000E-01
  8.00000000E-01  1.50000000E+00  8.00000000E-01  8.00000000E-01  1.50000000E+00
  8.00000000E-01  8.00000000E-01  1.50000000E+00  8.00000000E-01  8.00000000E-01
  1.50000000E+00  8.00000000E-01  8.00000000E-01  1.50000000E+00  8.00000000E-01
  8.00000000E-01  1.50000000E+00  8.00000000E-01  8.00000000E-01  1.50000000E+00
  8.00000000E-01  8.00000000E-01  1.50000000E+00  8.00000000E-01  8.00000000E-01
  1.50000000E+00  8.00000000E-01  8.00000000E-01  1.50000000E+00  8.00000000E-01
  8.00000000E-01  1.50000000E+00  8.00000000E-01  8.00000000E-01  1.50000000E+00
  8.00000000E-01  8.00000000E-01  1.50000000E+00  8.00000000E-01  8.00000000E-01
  1.50000000E+00  8.00000000E-01  8.00000000E-01  1.50000000E+00  8.00000000E-01
  8.00000000E-01  1.50000000E+00  8.00000000E-01  8.00000000E-01  1.50000000E+00
  8.00000000E-01  8.00000000E-01  1.50000000E+00  8.00000000E-01  8.00000000E-01
  1.50000000E+00  8.00000000E-01  8.00000000E-01  1.50000000E+00  8.00000000E-01
  8.00000000E-01  1.50000000E+00  8.00000000E-01  8.00000000E-01  1.50000000E+00
  8.00000000E-01  8.00000000E-01  1.50000000E+00  8.00000000E-01  8.00000000E-01
  1.50000000E+00  8.00000000E-01  8.00000000E-01  1.50000000E+00  8.00000000E-01
  8.00000000E-01  1.50000000E+00  8.00000000E-01  8.00000000E-01  1.50000000E+00
  8.00000000E-01  8.00000000E-01  1.50000000E+00  8.00000000E-01  8.00000000E-01
  1.50000000E+00  8.00000000E-01  8.00000000E-01  1.50000000E+00  8.00000000E-01
  8.00000000E-01  1.50000000E+00  8.00000000E-01  8.00000000E-01  1.50000000E+00
  8.00000000E-01  8.00000000E-01  1.50000000E+00  8.00000000E-01  8.00000000E-01
  1.50000000E+00  8.00000000E-01  8.00000000E-01  1.50000000E+00  8.00000000E-01
  8.00000000E-01  1.50000000E+00  8.00000000E-01  8.00000000E-01  1.50000000E+00
  8.00000000E-01  8.00000000E-01  1.50000000E+00  8.00000000E-01  8.00000000E-01
  1.50000000E+00  8.00000000E-01  8.00000000E-01  1.50000000E+00  8.00000000E-01
  8.00000000E-01  1.50000000E+00  8.00000000E-01  8.00000000E-01  1.50000000E+00
  8.00000000E-01  8.00000000E-01  1.50000000E+00  8.00000000E-01  8.00000000E-01
  1.50000000E+00  8.00000000E-01  8.00000000E-01  1.50000000E+00  8.00000000E-01
  8.00000000E-01  1.50000000E+00  8.00000000E-01  8.00000000E-01  1.50000000E+00
  8.00000000E-01  8.00000000E-01  1.50000000E+00  8.00000000E-01  8.00000000E-01
  1.50000000E+00  8.00000000E-01  8.00000000E-01  1.50000000E+00  8.00000000E-01
  8.00000000E-01  1.50000000E+00  8.00000000E-01  8.00000000E-01  1.50000000E+00
  8.00000000E-01  8.00000000E-01  1.50000000E+00  8.00000000E-01  8.00000000E-01
  1.50000000E+00  8.00000000E-01  8.00000000E-01  1.50000000E+00  8.00000000E-01
  8.00000000E-01  1.50000000E+00  8.00000000E-01  8.00000000E-01  1.50000000E+00
  8.00000000E-01  8.00000000E-01  1.50000000E+00  8.00000000E-01  8.00000000E-01
  1.50000000E+00  8.00000000E-01  8.00000000E-01  1.50000000E+00  8.00000000E-01
  8.00000000E-01  1.50000000E+00  8.00000000E-01  8.00000000E-01  1.50000000E+00
  8.00000000E-01  8.00000000E-01  1.50000000E+00  8.00000000E-01  8.00000000E-01
  1.50000000E+00  8.00000000E-01  8.00000000E-01  1.50000000E+00  8.00000000E-01
  8.00000000E-01  1.50000000E+00  8.00000000E-01  8.00000000E-01  1.50000000E+00
  8.00000000E-01  8.00000000E-01  1.50000000E+00  8.00000000E-01  8.00000000E-01
  1.50000000E+00  8.00000000E-01  8.00000000E-01  1.50000000E+00  8.00000000E-01
  8.00000000E-01  1.50000000E+00  8.00000000E-01  8.00000000E-01  1.50000000E+00
  8.00000000E-01  8.00000000E-01  1.50000000E+00  8.00000000E-01  8.00000000E-01
  1.50000000E+00  8.00000000E-01  8.00000000E-01  1.50000000E+00  8.00000000E-01
  8.00000000E-01  1.50000000E+00  8.00000000E-01  8.00000000E-01  1.50000000E+00
  8.00000000E-01  8.00000000E-01  1.50000000E+00  8.00000000E-01  8.00000000E-01
  1.50000000E+00  8.00000000E-01  8.00000000E-01  1.50000000E+00  8.00000000E-01
  8.00000000E-01  1.50000000E+00  8.00000000E-01  8.00000000E-01  1.50000000E+00
  8.00000000E-01  8.00000000E-01  1.50000000E+00  8.00000000E-01  8.00000000E-01
  1.50000000E+00  8.00000000E-01  8.00000000E-01  1.50000000E+00  8.00000000E-01
  8.00000000E-01  1.50000000E+00  8.00000000E-01  8.00000000E-01  1.50000000E+00
  8.00000000E-01  8.00000000E-01  1.50000000E+00  8.00000000E-01  8.00000000E-01
  1.50000000E+00  8.00000000E-01  8.00000000E-01  1.50000000E+00  8.00000000E-01
  8.00000000E-01  1.50000000E+00  8.00000000E-01  8.00000000E-01  1.50000000E+00
  8.00000000E-01  8.00000000E-01  1.50000000E+00  8.00000000E-01  8.00000000E-01
  1.50000000E+00  8.00000000E-01  8.00000000E-01  1.50000000E+00  8.00000000E-01
  8.00000000E-01  1.50000000E+00  8.00000000E-01  8.00000000E-01  1.50000000E+00
  8.00000000E-01  8.00000000E-01  1.50000000E+00  8.00000000E-01  8.00000000E-01
  1.50000000E+00  8.00000000E-01  8.00000000E-01  1.50000000E+00  8.00000000E-01
  8.00000000E-01  1.50000000E+00  8.00000000E-01  8.00000000E-01  1.50000000E+00
  8.00000000E-01  8.00000000E-01  1.50000000E+00  8.00000000E-01  8.00000000E-01
  1.50000000E+00  8.00000000E-01  8.00000000E-01  1.50000000E+00  8.00000000E-01
  8.00000000E-01  1.50000000E+00  8.00000000E-01  8.00000000E-01  1.50000000E+00
  8.00000000E-01  8.00000000E-01  1.50000000E+00  8.00000000E-01  8.00000000E-01
  1.50000000E+00  8.00000000E-01  8.00000000E-01  1.50000000E+00  8.00000000E-01
  8.00000000E-01  1.50000000E+00  8.00000000E-01  8.00000000E-01  1.50000000E+00
  8.00000000E-01  8.00000000E-01  1.50000000E+00  8.00000000E-01  8.00000000E-01
  1.50000000E+00  8.00000000E-01  8.00000000E-01  1.50000000E+00  8.00000000E-01
  8.00000000E-01  1.50000000E+00  8.00000000E-01  8.00000000E-01  1.50000000E+00
  8.00000000E-01  8.00000000E-01  1.50000000E+00  8.00000000E-01  8.00000000E-01
  1.50000000E+00  8.00000000E-01  8.00000000E-01  1.50000000E+00  8.00000000E-01
  8.00000000E-01  1.50000000E+00  8.00000000E-01  8.00000000E-01  1.50000000E+00
  8.00000000E-01  8.00000000E-01  1.50000000E+00  8.00000000E-01  8.00000000E-01
  1.50000000E+00  8.00000000E-01  8.00000000E-01  1.50000000E+00  8.00000000E-01
  8.00000000E-01  1.50000000E+00  8.00000000E-01  8.00000000E-01  1.50000000E+00
  8.00000000E-01  8.00000000E-01  1.50000000E+00  8.00000000E-01  8.00000000E-01
  1.50000000E+00  8.00000000E-01  8.00000000E-01  1.50000000E+00  8.00000000E-01
  8.00000000E-01  1.50000000E+00  8.00000000E-01  8.00000000E-01  1.50000000E+00
  8.00000000E-01  8.00000000E-01  1.50000000E+00  8.00000000E-01  8.00000000E-01
  1.50000000E+00  8.00000000E-01  8.00000000E-01  1.50000000E+00  8.00000000E-01
  8.00000000E-01  1.50000000E+00  8.00000000E-01  8.00000000E-01  1.50000000E+00
  8.00000000E-01  8.00000000E-01  1.50000000E+00  8.00000000E-01  8.00000000E-01
  1.50000000E+00  8.00000000E-01  8.00000000E-01  1.50000000E+00  8.00000000E-01
  8.00000000E-01  1.50000000E+00  8.00000000E-01  8.00000000E-01  1.50000000E+00
  8.00000000E-01  8.00000000E-01  1.50000000E+00  8.00000000E-01  8.00000000E-01
  1.50000000E+00  8.00000000E-01  8.00000000E-01  1.50000000E+00  8.00000000E-01
  8.00000000E-01  1.50000000E+00  8.00000000E-01  8.00000000E-01  1.50000000E+00
  8.00000000E-01  8.00000000E-01  1.50000000E+00  8.00000000E-01  8.00000000E-01
  1.50000000E+00  8.00000000E-01  8.00000000E-01  1.50000000E+00  8.00000000E-01
  8.00000000E-01  1.50000000E+00  8.00000000E-01  8.00000000E-01  1.50000000E+00
  8.00000000E-01  8.00000000E-01  1.50000000E+00  8.00000000E-01  8.00000000E-01
  1.50000000E+00  8.00000000E-01  8.00000000E-01  1.50000000E+00  8.00000000E-01
  8.00000000E-01  1.50000000E+00  8.00000000E-01  8.00000000E-01  1.50000000E+00
  8.00000000E-01  8.00000000E-01  1.50000000E+00  8.00000000E-01  8.00000000E-01
  1.50000000E+00  8.00000000E-01  8.00000000E-01  1.50000000E+00  8.00000000E-01
  8.00000000E-01  1.50000000E+00  8.00000000E-01  8.00000000E-01  1.50000000E+00
  8.00000000E-01  8.00000000E-01  1.50000000E+00  8.00000000E-01  8.00000000E-01
  1.50000000E+00  8.00000000E-01  8.00000000E-01  1.50000000E+00  8.00000000E-01
  8.00000000E-01  1.50000000E+00  8.00000000E-01  8.00000000E-01  1.50000000E+00
  8.00000000E-01  8.00000000E-01  1.50000000E+00  8.00000000E-01  8.00000000E-01
  1.50000000E+00  8.00000000E-01  8.00000000E-01  1.50000000E+00  8.00000000E-01
  8.00000000E-01  1.50000000E+00  8.00000000E-01  8.00000000E-01  1.50000000E+00
  8.00000000E-01  8.00000000E-01  1.50000000E+00  8.00000000E-01  8.00000000E-01
  1.50000000E+00  8.00000000E-01  8.00000000E-01  1.50000000E+00  8.00000000E-01
  8.00000000E-01  1.50000000E+00  8.00000000E-01  8.00000000E-01  1.50000000E+00
  8.00000000E-01  8.00000000E-01  1.50000000E+00  8.00000000E-01  8.00000000E-01
  1.50000000E+00  8.00000000E-01  8.00000000E-01  1.50000000E+00  8.00000000E-01
  8.00000000E-01  1.50000000E+00  8.00000000E-01  8.00000000E-01  1.50000000E+00
  8.00000000E-01  8.00000000E-01  1.50000000E+00  8.00000000E-01  8.00000000E-01
  1.50000000E+00  8.00000000E-01  8.00000000E-01  1.50000000E+00  8.00000000E-01
  8.00000000E-01  1.50000000E+00  8.00000000E-01  8.00000000E-01  1.50000000E+00
  8.00000000E-01  8.00000000E-01  1.50000000E+00  8.00000000E-01  8.00000000E-01
  1.50000000E+00  8.00000000E-01  8.00000000E-01  1.50000000E+00  8.00000000E-01
  8.00000000E-01  1.50000000E+00  8.00000000E-01  8.00000000E-01  1.50000000E+00
  8.00000000E-01  8.00000000E-01  1.50000000E+00  8.00000000E-01  8.00000000E-01
  1.50000000E+00  8.00000000E-01  8.00000000E-01  1.50000000E+00  8.00000000E-01
  8.00000000E-01  1.50000000E+00  8.00000000E-01  8.00000000E-01  1.50000000E+00
  8.00000000E-01  8.00000000E-01  1.50000000E+00  8.00000000E-01  8.00000000E-01
  1.50000000E+00  8.00000000E-01  8.00000000E-01  1.50000000E+00  8.00000000E-01
  8.00000000E-01  1.50000000E+00  8.00000000E-01  8.00000000E-01  1.50000000E+00
  8.00000000E-01  8.00000000E-01  1.50000000E+00  8.00000000E-01  8.00000000E-01
  1.50000000E+00  8.00000000E-01  8.00000000E-01  1.50000000E+00  8.00000000E-01
  8.00000000E-01  1.50000000E+00  8.00000000E-01  8.00000000E-01  1.50000000E+00
  8.00000000E-01  8.00000000E-01  1.50000000E+00  8.00000000E-01  8.00000000E-01
  1.50000000E+00  8.00000000E-01  8.00000000E-01  1.50000000E+00  8.00000000E-01
  8.00000000E-01  1.50000000E+00  8.00000000E-01  8.00000000E-01  1.50000000E+00
  8.00000000E-01  8.00000000E-01  1.50000000E+00  8.00000000E-01  8.00000000E-01
  1.50000000E+00  8.00000000E-01  8.00000000E-01  1.50000000E+00  8.00000000E-01
  8.00000000E-01  1.50000000E+00  8.00000000E-01  8.00000000E-01  1.50000000E+00
  8.00000000E-01  8.00000000E-01  1.50000000E+00  8.00000000E-01  8.00000000E-01
  1.50000000E+00  8.00000000E-01  8.00000000E-01  1.50000000E+00  8.00000000E-01
  8.00000000E-01  1.50000000E+00  8.00000000E-01  8.00000000E-01  1.50000000E+00
  8.00000000E-01  8.00000000E-01  1.50000000E+00  8.00000000E-01  8.00000000E-01
  1.50000000E+00  8.00000000E-01  8.00000000E-01  1.50000000E+00  8.00000000E-01
  8.00000000E-01  1.50000000E+00  8.00000000E-01  8.00000000E-01  1.50000000E+00
  8.00000000E-01  8.00000000E-01  1.50000000E+00  8.00000000E-01  8.00000000E-01
  1.50000000E+00  8.00000000E-01  8.00000000E-01  1.50000000E+00  8.00000000E-01
  8.00000000E-01  1.50000000E+00  8.00000000E-01  8.00000000E-01  1.50000000E+00
  8.00000000E-01  8.00000000E-01  1.50000000E+00  8.00000000E-01  8.00000000E-01
  1.50000000E+00  8.00000000E-01  8.00000000E-01  1.50000000E+00  8.00000000E-01
  8.00000000E-01  1.50000000E+00  8.00000000E-01  8.00000000E-01  1.50000000E+00
  8.00000000E-01  8.00000000E-01  1.50000000E+00  8.00000000E-01  8.00000000E-01
  1.50000000E+00  8.00000000E-01  8.00000000E-01  1.50000000E+00  8.00000000E-01
  8.00000000E-01  1.50000000E+00  8.00000000E-01  8.00000000E-01  1.50000000E+00
  8.00000000E-01  8.00000000E-01  1.50000000E+00  8.00000000E-01  8.00000000E-01
  1.50000000E+00  8.00000000E-01  8.00000000E-01  1.50000000E+00  8.00000000E-01
  8.00000000E-01  1.50000000E+00  8.00000000E-01  8.00000000E-01  1.50000000E+00
  8.00000000E-01  8.00000000E-01  1.50000000E+00  8.00000000E-01  8.00000000E-01
  1.50000000E+00  8.00000000E-01  8.00000000E-01  1.50000000E+00  8.00000000E-01
  8.00000000E-01  1.50000000E+00  8.00000000E-01  8.00000000E-01  1.50000000E+00
  8.00000000E-01  8.00000000E-01  1.50000000E+00  8.00000000E-01  8.00000000E-01
  1.50000000E+00  8.00000000E-01  8.00000000E-01  1.50000000E+00  8.00000000E-01
  8.00000000E-01  1.50000000E+00  8.00000000E-01  8.00000000E-01  1.50000000E+00
  8.00000000E-01  8.00000000E-01  1.50000000E+00  8.00000000E-01  8.00000000E-01
  1.50000000E+00  8.00000000E-01  8.00000000E-01  1.50000000E+00  8.00000000E-01
  8.00000000E-01  1.50000000E+00  8.00000000E-01  8.00000000E-01  1.50000000E+00
  8.00000000E-01  8.00000000E-01  1.50000000E+00  8.00000000E-01  8.00000000E-01
  1.50000000E+00  8.00000000E-01  8.00000000E-01  1.50000000E+00  8.00000000E-01
  8.00000000E-01  1.50000000E+00  8.00000000E-01  8.00000000E-01  1.50000000E+00
  8.00000000E-01  8.00000000E-01  1.50000000E+00  8.00000000E-01  8.00000000E-01
  1.50000000E+00  8.00000000E-01  8.00000000E-01  1.50000000E+00  8.00000000E-01
  8.00000000E-01  1.50000000E+00  8.00000000E-01  8.00000000E-01  1.50000000E+00
  8.00000000E-01  8.00000000E-01  1.50000000E+00  8.00000000E-01  8.00000000E-01
  1.50000000E+00  8.00000000E-01  8.00000000E-01  1.50000000E+00  8.00000000E-01
  8.00000000E-01  1.50000000E+00  8.00000000E-01  8.00000000E-01  1.50000000E+00
  8.00000000E-01  8.00000000E-01  1.50000000E+00  8.00000000E-01  8.00000000E-01
  1.50000000E+00  8.00000000E-01  8.00000000E-01  1.50000000E+00  8.00000000E-01
  8.00000000E-01  1.50000000E+00  8.00000000E-01  8.00000000E-01  1.50000000E+00
  8.00000000E-01  8.00000000E-01  1.50000000E+00  8.00000000E-01  8.00000000E-01
  1.50000000E+00  8.00000000E-01  8.00000000E-01  1.50000000E+00  8.00000000E-01
  8.00000000E-01  1.50000000E+00  8.00000000E-01  8.00000000E-01  1.50000000E+00
  8.00000000E-01  8.00000000E-01  1.50000000E+00  8.00000000E-01  8.00000000E-01
  1.50000000E+00  8.00000000E-01  8.00000000E-01  1.50000000E+00  8.00000000E-01
  8.00000000E-01  1.50000000E+00  8.00000000E-01  8.00000000E-01  1.50000000E+00
  8.00000000E-01  8.00000000E-01  1.50000000E+00  8.00000000E-01  8.00000000E-01
  1.50000000E+00  8.00000000E-01  8.00000000E-01  1.50000000E+00  8.00000000E-01
  8.00000000E-01  1.50000000E+00  8.00000000E-01  8.00000000E-01  1.50000000E+00
  8.00000000E-01  8.00000000E-01  1.50000000E+00  8.00000000E-01  8.00000000E-01
  1.50000000E+00  8.00000000E-01  8.00000000E-01  1.50000000E+00  8.00000000E-01
  8.00000000E-01  1.50000000E+00  8.00000000E-01  8.00000000E-01  1.50000000E+00
  8.00000000E-01  8.00000000E-01  1.50000000E+00  8.00000000E-01  8.00000000E-01
  1.50000000E+00  8.00000000E-01  8.00000000E-01  1.50000000E+00  8.00000000E-01
  8.00000000E-01  1.50000000E+00  8.00000000E-01  8.00000000E-01  1.50000000E+00
  8.00000000E-01  8.00000000E-01  1.50000000E+00  8.00000000E-01  8.00000000E-01
  1.50000000E+00  8.00000000E-01  8.00000000E-01  1.50000000E+00  8.00000000E-01
  8.00000000E-01  1.50000000E+00  8.00000000E-01  8.00000000E-01  1.50000000E+00
  8.00000000E-01  8.00000000E-01  1.50000000E+00  8.00000000E-01  8.00000000E-01
  1.50000000E+00  8.00000000E-01  8.00000000E-01  1.50000000E+00  8.00000000E-01
  8.00000000E-01  1.50000000E+00  8.00000000E-01  8.00000000E-01  1.50000000E+00
  8.00000000E-01  8.00000000E-01  1.50000000E+00  8.00000000E-01  8.00000000E-01
  1.50000000E+00  8.00000000E-01  8.00000000E-01  1.50000000E+00  8.00000000E-01
  8.00000000E-01  1.50000000E+00  8.00000000E-01  8.00000000E-01  1.50000000E+00
  8.00000000E-01  8.00000000E-01  1.50000000E+00  8.00000000E-01  8.00000000E-01
  1.50000000E+00  8.00000000E-01  8.00000000E-01  1.50000000E+00  8.00000000E-01
  8.00000000E-01  1.50000000E+00  8.00000000E-01  8.00000000E-01  1.50000000E+00
  8.00000000E-01  8.00000000E-01  1.50000000E+00  8.00000000E-01  8.00000000E-01
  1.50000000E+00  8.00000000E-01  8.00000000E-01  1.50000000E+00  8.00000000E-01
  8.00000000E-01  1.50000000E+00  8.00000000E-01  8.00000000E-01  1.50000000E+00
  8.00000000E-01  8.00000000E-01  1.50000000E+00  8.00000000E-01  8.00000000E-01
  1.50000000E+00  8.00000000E-01  8.00000000E-01  1.50000000E+00  8.00000000E-01
  8.00000000E-01  1.50000000E+00  8.00000000E-01  8.00000000E-01  1.50000000E+00
  8.00000000E-01  8.00000000E-01  1.50000000E+00  8.00000000E-01  8.00000000E-01
  1.50000000E+00  8.00000000E-01  8.00000000E-01  1.50000000E+00  8.00000000E-01
  8.00000000E-01  1.50000000E+00  8.00000000E-01  8.00000000E-01  1.50000000E+00
  8.00000000E-01  8.00000000E-01  1.50000000E+00  8.00000000E-01  8.00000000E-01
  1.50000000E+00  8.00000000E-01  8.00000000E-01  1.50000000E+00  8.00000000E-01
  8.00000000E-01  1.50000000E+00  8.00000000E-01  8.00000000E-01  1.50000000E+00
  8.00000000E-01  8.00000000E-01  1.50000000E+00  8.00000000E-01  8.00000000E-01
  1.50000000E+00  8.00000000E-01  8.00000000E-01  1.50000000E+00  8.00000000E-01
  8.00000000E-01  1.50000000E+00  8.00000000E-01  8.00000000E-01  1.50000000E+00
  8.00000000E-01  8.00000000E-01  1.50000000E+00  8.00000000E-01  8.00000000E-01
  1.50000000E+00  8.00000000E-01  8.00000000E-01  1.50000000E+00  8.00000000E-01
  8.00000000E-01  1.50000000E+00  8.00000000E-01  8.00000000E-01  1.50000000E+00
  8.00000000E-01  8.00000000E-01  1.50000000E+00  8.00000000E-01  8.00000000E-01
  1.50000000E+00  8.00000000E-01  8.00000000E-01  1.50000000E+00  8.00000000E-01
  8.00000000E-01  1.50000000E+00  8.00000000E-01  8.00000000E-01  1.50000000E+00
  8.00000000E-01  8.00000000E-01  1.50000000E+00  8.00000000E-01  8.00000000E-01
  1.50000000E+00  8.00000000E-01  8.00000000E-01  1.50000000E+00  8.00000000E-01
  8.00000000E-01  1.50000000E+00  8.00000000E-01  8.00000000E-01  1.50000000E+00
  8.00000000E-01  8.00000000E-01  1.50000000E+00  8.00000000E-01  8.00000000E-01
  1.50000000E+00  8.00000000E-01  8.00000000E-01  1.50000000E+00  8.00000000E-01
  8.00000000E-01  1.50000000E+00  8.00000000E-01  8.00000000E-01  1.50000000E+00
  8.00000000E-01  8.00000000E-01  1.50000000E+00  8.00000000E-01  8.00000000E-01
  1.50000000E+00  8.00000000E-01  8.00000000E-01  1.50000000E+00  8.00000000E-01
  8.00000000E-01  1.50000000E+00  8.00000000E-01  8.00000000E-01  1.50000000E+00
  8.00000000E-01  8.00000000E-01  1.50000000E+00  8.00000000E-01  8.00000000E-01
  1.50000000E+00  8.00000000E-01  8.00000000E-01  1.50000000E+00  8.00000000E-01
  8.00000000E-01  1.50000000E+00  8.00000000E-01  8.00000000E-01  1.50000000E+00
  8.00000000E-01  8.00000000E-01  1.50000000E+00  8.00000000E-01  8.00000000E-01
  1.50000000E+00  8.00000000E-01  8.00000000E-01  1.50000000E+00  8.00000000E-01
  8.00000000E-01  1.50000000E+00  8.00000000E-01  8.00000000E-01  1.50000000E+00
  8.00000000E-01  8.00000000E-01  1.50000000E+00  8.00000000E-01  8.00000000E-01
  1.50000000E+00  8.00000000E-01  8.00000000E-01  1.50000000E+00  8.00000000E-01
  8.00000000E-01  1.50000000E+00  8.00000000E-01  8.00000000E-01  1.50000000E+00
  8.00000000E-01  8.00000000E-01  1.50000000E+00  8.00000000E-01  8.00000000E-01
  1.50000000E+00  8.00000000E-01  8.00000000E-01  1.50000000E+00  8.00000000E-01
  8.00000000E-01  1.50000000E+00  8.00000000E-01  8.00000000E-01  1.50000000E+00
  8.00000000E-01  8.00000000E-01  1.50000000E+00  8.00000000E-01  8.00000000E-01
  1.50000000E+00  8.00000000E-01  8.00000000E-01  1.50000000E+00  8.00000000E-01
  8.00000000E-01  1.50000000E+00  8.00000000E-01  8.00000000E-01  1.50000000E+00
  8.00000000E-01  8.00000000E-01  1.50000000E+00  8.00000000E-01  8.00000000E-01
  1.50000000E+00  8.00000000E-01  8.00000000E-01  1.50000000E+00  8.00000000E-01
  8.00000000E-01  1.50000000E+00  8.00000000E-01  8.00000000E-01  1.50000000E+00
  8.00000000E-01  8.00000000E-01  1.50000000E+00  8.00000000E-01  8.00000000E-01
  1.50000000E+00  8.00000000E-01  8.00000000E-01  1.50000000E+00  8.00000000E-01
  8.00000000E-01  1.50000000E+00  8.00000000E-01  8.00000000E-01  1.50000000E+00
  8.00000000E-01  8.00000000E-01  1.50000000E+00  8.00000000E-01  8.00000000E-01
  1.50000000E+00  8.00000000E-01  8.00000000E-01  1.50000000E+00  8.00000000E-01
  8.00000000E-01  1.50000000E+00  8.00000000E-01  8.00000000E-01  1.50000000E+00
  8.00000000E-01  8.00000000E-01  1.50000000E+00  8.00000000E-01  8.00000000E-01
  1.50000000E+00  8.00000000E-01  8.00000000E-01  1.50000000E+00  8.00000000E-01
  8.00000000E-01  1.50000000E+00  8.00000000E-01  8.00000000E-01  1.50000000E+00
  8.00000000E-01  8.00000000E-01  1.50000000E+00  8.00000000E-01  8.00000000E-01
  1.50000000E+00  8.00000000E-01  8.00000000E-01  1.50000000E+00  8.00000000E-01
  8.00000000E-01  1.50000000E+00  8.00000000E-01  8.00000000E-01  1.50000000E+00
  8.00000000E-01  8.00000000E-01  1.50000000E+00  8.00000000E-01  8.00000000E-01
  1.50000000E+00  8.00000000E-01  8.00000000E-01  1.50000000E+00  8.00000000E-01
  8.00000000E-01  1.50000000E+00  8.00000000E-01  8.00000000E-01  1.50000000E+00
  8.00000000E-01  8.00000000E-01  1.50000000E+00  8.00000000E-01  8.00000000E-01
  1.50000000E+00  8.00000000E-01  8.00000000E-01  1.50000000E+00  8.00000000E-01
  8.00000000E-01  1.50000000E+00  8.00000000E-01  8.00000000E-01  1.50000000E+00
  8.00000000E-01  8.00000000E-01  1.50000000E+00  8.00000000E-01  8.00000000E-01
  1.50000000E+00  8.00000000E-01  8.00000000E-01  1.50000000E+00  8.00000000E-01
  8.00000000E-01  1.50000000E+00  8.00000000E-01  8.00000000E-01  1.50000000E+00
  8.00000000E-01  8.00000000E-01  1.50000000E+00  8.00000000E-01  8.00000000E-01
  1.50000000E+00  8.00000000E-01  8.00000000E-01  1.50000000E+00  8.00000000E-01
  8.00000000E-01  1.50000000E+00  8.00000000E-01  8.00000000E-01  1.50000000E+00
  8.00000000E-01  8.00000000E-01  1.50000000E+00  8.00000000E-01  8.00000000E-01
  1.50000000E+00  8.00000000E-01  8.00000000E-01  1.50000000E+00  8.00000000E-01
  8.00000000E-01  1.50000000E+00  8.00000000E-01  8.00000000E-01  1.50000000E+00
  8.00000000E-01  8.00000000E-01  1.50000000E+00  8.00000000E-01  8.00000000E-01
  1.50000000E+00  8.00000000E-01  8.00000000E-01  1.50000000E+00  8.00000000E-01
  8.00000000E-01  1.50000000E+00  8.00000000E-01  8.00000000E-01  1.50000000E+00
  8.00000000E-01  8.00000000E-01  1.50000000E+00  8.00000000E-01  8.00000000E-01
  1.50000000E+00  8.00000000E-01  8.00000000E-01  1.50000000E+00  8.00000000E-01
  8.00000000E-01  1.50000000E+00  8.00000000E-01  8.00000000E-01  1.50000000E+00
  8.00000000E-01  8.00000000E-01  1.50000000E+00  8.00000000E-01  8.00000000E-01
  1.50000000E+00  8.00000000E-01  8.00000000E-01  1.50000000E+00  8.00000000E-01
  8.00000000E-01  1.50000000E+00  8.00000000E-01  8.00000000E-01  1.50000000E+00
  8.00000000E-01  8.00000000E-01  1.50000000E+00  8.00000000E-01  8.00000000E-01
  1.50000000E+00  8.00000000E-01  8.00000000E-01  1.50000000E+00  8.00000000E-01
  8.00000000E-01  1.50000000E+00  8.00000000E-01  8.00000000E-01  1.50000000E+00
  8.00000000E-01  8.00000000E-01  1.50000000E+00  8.00000000E-01  8.00000000E-01
  1.50000000E+00  8.00000000E-01  8.00000000E-01  1.50000000E+00  8.00000000E-01
  8.00000000E-01  1.50000000E+00  8.00000000E-01  8.00000000E-01  1.50000000E+00
  8.00000000E-01  8.00000000E-01  1.50000000E+00  8.00000000E-01  8.00000000E-01
  1.50000000E+00  8.00000000E-01  8.00000000E-01  1.50000000E+00  8.00000000E-01
  8.00000000E-01  1.50000000E+00  8.00000000E-01  8.00000000E-01  1.50000000E+00
  8.00000000E-01  8.00000000E-01  1.50000000E+00  8.00000000E-01  8.00000000E-01
  1.50000000E+00  8.00000000E-01  8.00000000E-01  1.50000000E+00  8.00000000E-01
  8.00000000E-01  1.50000000E+00  8.00000000E-01  8.00000000E-01  1.50000000E+00
  8.00000000E-01  8.00000000E-01  1.50000000E+00  8.00000000E-01  8.00000000E-01
  1.50000000E+00  8.00000000E-01  8.00000000E-01  1.50000000E+00  8.00000000E-01
  8.00000000E-01  1.50000000E+00  8.00000000E-01  8.00000000E-01  1.50000000E+00
  8.00000000E-01  8.00000000E-01  1.50000000E+00  8.00000000E-01  8.00000000E-01
  1.50000000E+00  8.00000000E-01  8.00000000E-01  1.50000000E+00  8.00000000E-01
  8.00000000E-01  1.50000000E+00  8.00000000E-01  8.00000000E-01  1.50000000E+00
  8.00000000E-01  8.00000000E-01  1.50000000E+00  8.00000000E-01  8.00000000E-01
  1.50000000E+00  8.00000000E-01  8.00000000E-01  1.50000000E+00  8.00000000E-01
  8.00000000E-01  1.50000000E+00  8.00000000E-01  8.00000000E-01  1.50000000E+00
  8.00000000E-01  8.00000000E-01  1.50000000E+00  8.00000000E-01  8.00000000E-01
  1.50000000E+00  8.00000000E-01  8.00000000E-01  1.50000000E+00  8.00000000E-01
  8.00000000E-01  1.50000000E+00  8.00000000E-01  8.00000000E-01  1.50000000E+00
  8.00000000E-01  8.00000000E-01  1.50000000E+00  8.00000000E-01  8.00000000E-01
  1.50000000E+00  8.00000000E-01  8.00000000E-01  1.50000000E+00  8.00000000E-01
  8.00000000E-01  1.50000000E+00  8.00000000E-01  8.00000000E-01  1.50000000E+00
  8.00000000E-01  8.00000000E-01  1.50000000E+00  8.00000000E-01  8.00000000E-01
  1.50000000E+00  8.00000000E-01  8.00000000E-01  1.50000000E+00  8.00000000E-01
  8.00000000E-01  1.50000000E+00  8.00000000E-01  8.00000000E-01  1.50000000E+00
  8.00000000E-01  8.00000000E-01  1.50000000E+00  8.00000000E-01  8.00000000E-01
  1.50000000E+00  8.00000000E-01  8.00000000E-01  1.50000000E+00  8.00000000E-01
  8.00000000E-01  1.50000000E+00  8.00000000E-01  8.00000000E-01  1.50000000E+00
  8.00000000E-01  8.00000000E-01  1.50000000E+00  8.00000000E-01  8.00000000E-01
  1.50000000E+00  8.00000000E-01  8.00000000E-01  1.50000000E+00  8.00000000E-01
  8.00000000E-01  1.50000000E+00  8.00000000E-01  8.00000000E-01  1.50000000E+00
  8.00000000E-01  8.00000000E-01  1.50000000E+00  8.00000000E-01  8.00000000E-01
  1.50000000E+00  8.00000000E-01  8.00000000E-01  1.50000000E+00  8.00000000E-01
  8.00000000E-01  1.50000000E+00  8.00000000E-01  8.00000000E-01  1.50000000E+00
  8.00000000E-01  8.00000000E-01  1.50000000E+00  8.00000000E-01  8.00000000E-01
  1.50000000E+00  8.00000000E-01  8.00000000E-01  1.50000000E+00  8.00000000E-01
  8.00000000E-01  1.50000000E+00  8.00000000E-01  8.00000000E-01  1.50000000E+00
  8.00000000E-01  8.00000000E-01  1.50000000E+00  8.00000000E-01  8.00000000E-01
  1.50000000E+00  8.00000000E-01  8.00000000E-01  1.50000000E+00  8.00000000E-01
  8.00000000E-01  1.50000000E+00  8.00000000E-01  8.00000000E-01  1.50000000E+00
  8.00000000E-01  8.00000000E-01  1.50000000E+00  8.00000000E-01  8.00000000E-01
  1.50000000E+00  8.00000000E-01  8.00000000E-01  1.50000000E+00  8.00000000E-01
  8.00000000E-01  1.50000000E+00  8.00000000E-01  8.00000000E-01  1.50000000E+00
  8.00000000E-01  8.00000000E-01  1.50000000E+00  8.00000000E-01  8.00000000E-01
  1.50000000E+00  8.00000000E-01  8.00000000E-01  1.50000000E+00  8.00000000E-01
  8.00000000E-01  1.50000000E+00  8.00000000E-01  8.00000000E-01  1.50000000E+00
  8.00000000E-01  8.00000000E-01  1.50000000E+00  8.00000000E-01  8.00000000E-01
  1.50000000E+00  8.00000000E-01  8.00000000E-01  1.50000000E+00  8.00000000E-01
  8.00000000E-01  1.50000000E+00  8.00000000E-01  8.00000000E-01  1.50000000E+00
  8.00000000E-01  8.00000000E-01  1.50000000E+00  8.00000000E-01  8.00000000E-01
  1.50000000E+00  8.00000000E-01  8.00000000E-01  1.50000000E+00  8.00000000E-01
  8.00000000E-01  1.50000000E+00  8.00000000E-01  8.00000000E-01  1.50000000E+00
  8.00000000E-01  8.00000000E-01  1.50000000E+00  8.00000000E-01  8.00000000E-01
  1.50000000E+00  8.00000000E-01  8.00000000E-01  1.50000000E+00  8.00000000E-01
  8.00000000E-01  1.50000000E+00  8.00000000E-01  8.00000000E-01  1.50000000E+00
  8.00000000E-01  8.00000000E-01  1.50000000E+00  8.00000000E-01  8.00000000E-01
  1.50000000E+00  8.00000000E-01  8.00000000E-01  1.50000000E+00  8.00000000E-01
  8.00000000E-01  1.50000000E+00  8.00000000E-01  8.00000000E-01  1.50000000E+00
  8.00000000E-01  8.00000000E-01  1.50000000E+00  8.00000000E-01  8.00000000E-01
  1.50000000E+00  8.00000000E-01  8.00000000E-01  1.50000000E+00  8.00000000E-01
  8.00000000E-01  1.50000000E+00  8.00000000E-01  8.00000000E-01  1.50000000E+00
  8.00000000E-01  8.00000000E-01  1.50000000E+00  8.00000000E-01  8.00000000E-01
  1.50000000E+00  8.00000000E-01  8.00000000E-01  1.50000000E+00  8.00000000E-01
  8.00000000E-01  1.50000000E+00  8.00000000E-01  8.00000000E-01  1.50000000E+00
  8.00000000E-01  8.00000000E-01  1.50000000E+00  8.00000000E-01  8.00000000E-01
  1.50000000E+00  8.00000000E-01  8.00000000E-01  1.50000000E+00  8.00000000E-01
  8.00000000E-01  1.50000000E+00  8.00000000E-01  8.00000000E-01  1.50000000E+00
  8.00000000E-01  8.00000000E-01  1.50000000E+00  8.00000000E-01  8.00000000E-01
  1.50000000E+00  8.00000000E-01  8.00000000E-01  1.50000000E+00  8.00000000E-01
  8.00000000E-01  1.50000000E+00  8.00000000E-01  8.00000000E-01  1.50000000E+00
  8.00000000E-01  8.00000000E-01  1.50000000E+00  8.00000000E-01  8.00000000E-01
  1.50000000E+00  8.00000000E-01  8.00000000E-01  1.50000000E+00  8.00000000E-01
  8.00000000E-01  1.50000000E+00  8.00000000E-01  8.00000000E-01  1.50000000E+00
  8.00000000E-01  8.00000000E-01  1.50000000E+00  8.00000000E-01  8.00000000E-01
  1.50000000E+00  8.00000000E-01  8.00000000E-01  1.50000000E+00  8.00000000E-01
  8.00000000E-01  1.50000000E+00  8.00000000E-01  8.00000000E-01  1.50000000E+00
  8.00000000E-01  8.00000000E-01  1.50000000E+00  8.00000000E-01  8.00000000E-01
  1.50000000E+00  8.00000000E-01  8.00000000E-01  1.50000000E+00  8.00000000E-01
  8.00000000E-01  1.50000000E+00  8.00000000E-01  8.00000000E-01  1.50000000E+00
  8.00000000E-01  8.00000000E-01  1.50000000E+00  8.00000000E-01  8.00000000E-01
  1.50000000E+00  8.00000000E-01  8.00000000E-01  1.50000000E+00  8.00000000E-01
  8.00000000E-01  1.50000000E+00  8.00000000E-01  8.00000000E-01  1.50000000E+00
  8.00000000E-01  8.00000000E-01  1.50000000E+00  8.00000000E-01  8.00000000E-01
  1.50000000E+00  8.00000000E-01  8.00000000E-01  1.50000000E+00  8.00000000E-01
  8.00000000E-01  1.50000000E+00  8.00000000E-01  8.00000000E-01  1.50000000E+00
  8.00000000E-01  8.00000000E-01  1.50000000E+00  8.00000000E-01  8.00000000E-01
  1.50000000E+00  8.00000000E-01  8.00000000E-01  1.50000000E+00  8.00000000E-01
  8.00000000E-01  1.50000000E+00  8.00000000E-01  8.00000000E-01  1.50000000E+00
  8.00000000E-01  8.00000000E-01  1.50000000E+00  8.00000000E-01  8.00000000E-01
  1.50000000E+00  8.00000000E-01  8.00000000E-01  1.50000000E+00  8.00000000E-01
  8.00000000E-01  1.50000000E+00  8.00000000E-01  8.00000000E-01  1.50000000E+00
  8.00000000E-01  8.00000000E-01  1.50000000E+00  8.00000000E-01  8.00000000E-01
  1.50000000E+00  8.00000000E-01  8.00000000E-01  1.50000000E+00  8.00000000E-01
  8.00000000E-01  1.50000000E+00  8.00000000E-01  8.00000000E-01  1.50000000E+00
  8.00000000E-01  8.00000000E-01  1.50000000E+00  8.00000000E-01  8.00000000E-01
  1.50000000E+00  8.00000000E-01  8.00000000E-01  1.50000000E+00  8.00000000E-01
  8.00000000E-01  1.50000000E+00  8.00000000E-01  8.00000000E-01  1.50000000E+00
  8.00000000E-01  8.00000000E-01  1.50000000E+00  8.00000000E-01  8.00000000E-01
  1.50000000E+00  8.00000000E-01  8.00000000E-01  1.50000000E+00  8.00000000E-01
  8.00000000E-01  1.50000000E+00  8.00000000E-01  8.00000000E-01  1.50000000E+00
  8.00000000E-01  8.00000000E-01  1.50000000E+00  8.00000000E-01  8.00000000E-01
  1.50000000E+00  8.00000000E-01  8.00000000E-01  1.50000000E+00  8.00000000E-01
  8.00000000E-01  1.50000000E+00  8.00000000E-01  8.00000000E-01  1.50000000E+00
  8.00000000E-01  8.00000000E-01  1.50000000E+00  8.00000000E-01  8.00000000E-01
  1.50000000E+00  8.00000000E-01  8.00000000E-01  1.50000000E+00  8.00000000E-01
  8.00000000E-01  1.50000000E+00  8.00000000E-01  8.00000000E-01  1.50000000E+00
  8.00000000E-01  8.00000000E-01  1.50000000E+00  8.00000000E-01  8.00000000E-01
  1.50000000E+00  8.00000000E-01  8.00000000E-01  1.50000000E+00  8.00000000E-01
  8.00000000E-01  1.50000000E+00  8.00000000E-01  8.00000000E-01  1.50000000E+00
  8.00000000E-01  8.00000000E-01  1.50000000E+00  8.00000000E-01  8.00000000E-01
  1.50000000E+00  8.00000000E-01  8.00000000E-01  1.50000000E+00  8.00000000E-01
  8.00000000E-01  1.50000000E+00  8.00000000E-01  8.00000000E-01  1.50000000E+00
  8.00000000E-01  8.00000000E-01  1.50000000E+00  8.00000000E-01  8.00000000E-01
  1.50000000E+00  8.00000000E-01  8.00000000E-01  1.50000000E+00  8.00000000E-01
  8.00000000E-01  1.50000000E+00  8.00000000E-01  8.00000000E-01  1.50000000E+00
  8.00000000E-01  8.00000000E-01  1.50000000E+00  8.00000000E-01  8.00000000E-01
  1.50000000E+00  8.00000000E-01  8.00000000E-01  1.50000000E+00  8.00000000E-01
  8.00000000E-01  1.50000000E+00  8.00000000E-01  8.00000000E-01  1.50000000E+00
  8.00000000E-01  8.00000000E-01  1.50000000E+00  8.00000000E-01  8.00000000E-01
  1.50000000E+00  8.00000000E-01  8.00000000E-01  1.50000000E+00  8.00000000E-01
  8.00000000E-01  1.50000000E+00  8.00000000E-01  8.00000000E-01  1.50000000E+00
  8.00000000E-01  8.00000000E-01  1.50000000E+00  8.00000000E-01  8.00000000E-01
  1.50000000E+00  8.00000000E-01  8.00000000E-01  1.50000000E+00  8.00000000E-01
  8.00000000E-01  1.50000000E+00  8.00000000E-01  8.00000000E-01  1.50000000E+00
  8.00000000E-01  8.00000000E-01  1.50000000E+00  8.00000000E-01  8.00000000E-01
  1.50000000E+00  8.00000000E-01  8.00000000E-01  1.50000000E+00  8.00000000E-01
  8.00000000E-01  1.50000000E+00  8.00000000E-01  8.00000000E-01  1.50000000E+00
  8.00000000E-01  8.00000000E-01  1.50000000E+00  8.00000000E-01  8.00000000E-01
  1.50000000E+00  8.00000000E-01  8.00000000E-01  1.50000000E+00  8.00000000E-01
  8.00000000E-01  1.50000000E+00  8.00000000E-01  8.00000000E-01  1.50000000E+00
  8.00000000E-01  8.00000000E-01  1.50000000E+00  8.00000000E-01  8.00000000E-01
  1.50000000E+00  8.00000000E-01  8.00000000E-01  1.50000000E+00  8.00000000E-01
  8.00000000E-01  1.50000000E+00  8.00000000E-01  8.00000000E-01  1.50000000E+00
  8.00000000E-01  8.00000000E-01  1.50000000E+00  8.00000000E-01  8.00000000E-01
  1.50000000E+00  8.00000000E-01  8.00000000E-01  1.50000000E+00  8.00000000E-01
  8.00000000E-01  1.50000000E+00  8.00000000E-01  8.00000000E-01  1.50000000E+00
  8.00000000E-01  8.00000000E-01  1.50000000E+00  8.00000000E-01  8.00000000E-01
  1.50000000E+00  8.00000000E-01  8.00000000E-01  1.50000000E+00  8.00000000E-01
  8.00000000E-01  1.50000000E+00  8.00000000E-01  8.00000000E-01  1.50000000E+00
  8.00000000E-01  8.00000000E-01  1.50000000E+00  8.00000000E-01  8.00000000E-01
  1.50000000E+00  8.00000000E-01  8.00000000E-01  1.50000000E+00  8.00000000E-01
  8.00000000E-01  1.50000000E+00  8.00000000E-01  8.00000000E-01  1.50000000E+00
  8.00000000E-01  8.00000000E-01  1.50000000E+00  8.00000000E-01  8.00000000E-01
  1.50000000E+00  8.00000000E-01  8.00000000E-01  1.50000000E+00  8.00000000E-01
  8.00000000E-01  1.50000000E+00  8.00000000E-01  8.00000000E-01  1.50000000E+00
  8.00000000E-01  8.00000000E-01  1.50000000E+00  8.00000000E-01  8.00000000E-01
  1.50000000E+00  8.00000000E-01  8.00000000E-01  1.50000000E+00  8.00000000E-01
  8.00000000E-01  1.50000000E+00  8.00000000E-01  8.00000000E-01  1.50000000E+00
  8.00000000E-01  8.00000000E-01  1.50000000E+00  8.00000000E-01  8.00000000E-01
  1.50000000E+00  8.00000000E-01  8.00000000E-01  1.50000000E+00  8.00000000E-01
  8.00000000E-01  1.50000000E+00  8.00000000E-01  8.00000000E-01  1.50000000E+00
  8.00000000E-01  8.00000000E-01  1.50000000E+00  8.00000000E-01  8.00000000E-01
  1.50000000E+00  8.00000000E-01  8.00000000E-01  1.50000000E+00  8.00000000E-01
  8.00000000E-01  1.50000000E+00  8.00000000E-01  8.00000000E-01  1.50000000E+00
  8.00000000E-01  8.00000000E-01  1.50000000E+00  8.00000000E-01  8.00000000E-01
  1.50000000E+00  8.00000000E-01  8.00000000E-01  1.50000000E+00  8.00000000E-01
  8.00000000E-01  1.50000000E+00  8.00000000E-01  8.00000000E-01  1.50000000E+00
  8.00000000E-01  8.00000000E-01  1.50000000E+00  8.00000000E-01  8.00000000E-01
  1.50000000E+00  8.00000000E-01  8.00000000E-01  1.50000000E+00  8.00000000E-01
  8.00000000E-01  1.50000000E+00  8.00000000E-01  8.00000000E-01  1.50000000E+00
  8.00000000E-01  8.00000000E-01  1.50000000E+00  8.00000000E-01  8.00000000E-01
  1.50000000E+00  8.00000000E-01  8.00000000E-01  1.50000000E+00  8.00000000E-01
  8.00000000E-01  1.50000000E+00  8.00000000E-01  8.00000000E-01  1.50000000E+00
  8.00000000E-01  8.00000000E-01  1.50000000E+00  8.00000000E-01  8.00000000E-01
  1.50000000E+00  8.00000000E-01  8.00000000E-01  1.50000000E+00  8.00000000E-01
  8.00000000E-01  1.50000000E+00  8.00000000E-01  8.00000000E-01  1.50000000E+00
  8.00000000E-01  8.00000000E-01  1.50000000E+00  8.00000000E-01  8.00000000E-01
  1.50000000E+00  8.00000000E-01  8.00000000E-01  1.50000000E+00  8.00000000E-01
  8.00000000E-01  1.50000000E+00  8.00000000E-01  8.00000000E-01  1.50000000E+00
  8.00000000E-01  8.00000000E-01  1.50000000E+00  8.00000000E-01  8.00000000E-01
  1.50000000E+00  8.00000000E-01  8.00000000E-01  1.50000000E+00  8.00000000E-01
  8.00000000E-01  1.50000000E+00  8.00000000E-01  8.00000000E-01  1.50000000E+00
  8.00000000E-01  8.00000000E-01  1.50000000E+00  8.00000000E-01  8.00000000E-01
  1.50000000E+00  8.00000000E-01  8.00000000E-01  1.50000000E+00  8.00000000E-01
  8.00000000E-01  1.50000000E+00  8.00000000E-01  8.00000000E-01  1.50000000E+00
  8.00000000E-01  8.00000000E-01  1.50000000E+00  8.00000000E-01  8.00000000E-01
  1.50000000E+00  8.00000000E-01  8.00000000E-01  1.50000000E+00  8.00000000E-01
  8.00000000E-01  1.50000000E+00  8.00000000E-01  8.00000000E-01  1.50000000E+00
  8.00000000E-01  8.00000000E-01  1.50000000E+00  8.00000000E-01  8.00000000E-01
  1.50000000E+00  8.00000000E-01  8.00000000E-01  1.50000000E+00  8.00000000E-01
  8.00000000E-01  1.50000000E+00  8.00000000E-01  8.00000000E-01  1.50000000E+00
  8.00000000E-01  8.00000000E-01  1.50000000E+00  8.00000000E-01  8.00000000E-01
  1.50000000E+00  8.00000000E-01  8.00000000E-01  1.50000000E+00  8.00000000E-01
  8.00000000E-01  1.50000000E+00  8.00000000E-01  8.00000000E-01  1.50000000E+00
  8.00000000E-01  8.00000000E-01  1.50000000E+00  8.00000000E-01  8.00000000E-01
  1.50000000E+00  8.00000000E-01  8.00000000E-01  1.50000000E+00  8.00000000E-01
  8.00000000E-01  1.50000000E+00  8.00000000E-01  8.00000000E-01  1.50000000E+00
  8.00000000E-01  8.00000000E-01  1.50000000E+00  8.00000000E-01  8.00000000E-01
  1.50000000E+00  8.00000000E-01  8.00000000E-01  1.50000000E+00  8.00000000E-01
  8.00000000E-01  1.50000000E+00  8.00000000E-01  8.00000000E-01  1.50000000E+00
  8.00000000E-01  8.00000000E-01  1.50000000E+00  8.00000000E-01  8.00000000E-01
  1.50000000E+00  8.00000000E-01  8.00000000E-01  1.50000000E+00  8.00000000E-01
  8.00000000E-01  1.50000000E+00  8.00000000E-01  8.00000000E-01  1.50000000E+00
  8.00000000E-01  8.00000000E-01  1.50000000E+00  8.00000000E-01  8.00000000E-01
  1.50000000E+00  8.00000000E-01  8.00000000E-01  1.50000000E+00  8.00000000E-01
  8.00000000E-01  1.50000000E+00  8.00000000E-01  8.00000000E-01  1.50000000E+00
  8.00000000E-01  8.00000000E-01  1.50000000E+00  8.00000000E-01  8.00000000E-01
  1.50000000E+00  8.00000000E-01  8.00000000E-01  1.50000000E+00  8.00000000E-01
  8.00000000E-01  1.50000000E+00  8.00000000E-01  8.00000000E-01  1.50000000E+00
  8.00000000E-01  8.00000000E-01  1.50000000E+00  8.00000000E-01  8.00000000E-01
  1.50000000E+00  8.00000000E-01  8.00000000E-01  1.50000000E+00  8.00000000E-01
  8.00000000E-01  1.50000000E+00  8.00000000E-01  8.00000000E-01  1.50000000E+00
  8.00000000E-01  8.00000000E-01  1.50000000E+00  8.00000000E-01  8.00000000E-01
  1.50000000E+00  8.00000000E-01  8.00000000E-01  1.50000000E+00  8.00000000E-01
  8.00000000E-01  1.50000000E+00  8.00000000E-01  8.00000000E-01  1.50000000E+00
  8.00000000E-01  8.00000000E-01  1.50000000E+00  8.00000000E-01  8.00000000E-01
  1.50000000E+00  8.00000000E-01  8.00000000E-01  1.50000000E+00  8.00000000E-01
  8.00000000E-01  1.50000000E+00  8.00000000E-01  8.00000000E-01  1.50000000E+00
  8.00000000E-01  8.00000000E-01  1.50000000E+00  8.00000000E-01  8.00000000E-01
  1.50000000E+00  8.00000000E-01  8.00000000E-01  1.50000000E+00  8.00000000E-01
  8.00000000E-01  1.50000000E+00  8.00000000E-01  8.00000000E-01  1.50000000E+00
  8.00000000E-01  8.00000000E-01  1.50000000E+00  8.00000000E-01  8.00000000E-01
  1.50000000E+00  8.00000000E-01  8.00000000E-01  1.50000000E+00  8.00000000E-01
  8.00000000E-01  1.50000000E+00  8.00000000E-01  8.00000000E-01  1.50000000E+00
  8.00000000E-01  8.00000000E-01  1.50000000E+00  8.00000000E-01  8.00000000E-01
  1.50000000E+00  8.00000000E-01  8.00000000E-01  1.50000000E+00  8.00000000E-01
  8.00000000E-01  1.50000000E+00  8.00000000E-01  8.00000000E-01  1.50000000E+00
  8.00000000E-01  8.00000000E-01  1.50000000E+00  8.00000000E-01  8.00000000E-01
  1.50000000E+00  8.00000000E-01  8.00000000E-01  1.50000000E+00  8.00000000E-01
  8.00000000E-01  1.50000000E+00  8.00000000E-01  8.00000000E-01  1.50000000E+00
  8.00000000E-01  8.00000000E-01  1.50000000E+00  8.00000000E-01  8.00000000E-01
  1.50000000E+00  8.00000000E-01  8.00000000E-01  1.50000000E+00  8.00000000E-01
  8.00000000E-01  1.50000000E+00  8.00000000E-01  8.00000000E-01  1.50000000E+00
  8.00000000E-01  8.00000000E-01  1.50000000E+00  8.00000000E-01  8.00000000E-01
  1.50000000E+00  8.00000000E-01  8.00000000E-01  1.50000000E+00  8.00000000E-01
  8.00000000E-01  1.50000000E+00  8.00000000E-01  8.00000000E-01  1.50000000E+00
  8.00000000E-01  8.00000000E-01  1.50000000E+00  8.00000000E-01  8.00000000E-01
  1.50000000E+00  8.00000000E-01  8.00000000E-01  1.50000000E+00  8.00000000E-01
  8.00000000E-01  1.50000000E+00  8.00000000E-01  8.00000000E-01  1.50000000E+00
  8.00000000E-01  8.00000000E-01  1.50000000E+00  8.00000000E-01  8.00000000E-01
  1.50000000E+00  8.00000000E-01  8.00000000E-01  1.50000000E+00  8.00000000E-01
  8.00000000E-01  1.50000000E+00  8.00000000E-01  8.00000000E-01  1.50000000E+00
  8.00000000E-01  8.00000000E-01  1.50000000E+00  8.00000000E-01  8.00000000E-01
  1.50000000E+00  8.00000000E-01  8.00000000E-01  1.50000000E+00  8.00000000E-01
  8.00000000E-01  1.50000000E+00  8.00000000E-01  8.00000000E-01  1.50000000E+00
  8.00000000E-01  8.00000000E-01  1.50000000E+00  8.00000000E-01  8.00000000E-01
  1.50000000E+00  8.00000000E-01  8.00000000E-01  1.50000000E+00  8.00000000E-01
  8.00000000E-01  1.50000000E+00  8.00000000E-01  8.00000000E-01  1.50000000E+00
  8.00000000E-01  8.00000000E-01  1.50000000E+00  8.00000000E-01  8.00000000E-01
  1.50000000E+00  8.00000000E-01  8.00000000E-01  1.50000000E+00  8.00000000E-01
  8.00000000E-01  1.50000000E+00  8.00000000E-01  8.00000000E-01  1.50000000E+00
  8.00000000E-01  8.00000000E-01  1.50000000E+00  8.00000000E-01  8.00000000E-01
  1.50000000E+00  8.00000000E-01  8.00000000E-01  1.50000000E+00  8.00000000E-01
  8.00000000E-01  1.50000000E+00  8.00000000E-01  8.00000000E-01  1.50000000E+00
  8.00000000E-01  8.00000000E-01  1.50000000E+00  8.00000000E-01  8.00000000E-01
  1.50000000E+00  8.00000000E-01  8.00000000E-01  1.50000000E+00  8.00000000E-01
  8.00000000E-01  1.50000000E+00  8.00000000E-01  8.00000000E-01  1.50000000E+00
  8.00000000E-01  8.00000000E-01  1.50000000E+00  8.00000000E-01  8.00000000E-01
  1.50000000E+00  8.00000000E-01  8.00000000E-01  1.50000000E+00  8.00000000E-01
  8.00000000E-01  1.50000000E+00  8.00000000E-01  8.00000000E-01  1.50000000E+00
  8.00000000E-01  8.00000000E-01  1.50000000E+00  8.00000000E-01  8.00000000E-01
  1.50000000E+00  8.00000000E-01  8.00000000E-01  1.50000000E+00  8.00000000E-01
  8.00000000E-01  1.50000000E+00  8.00000000E-01  8.00000000E-01  1.50000000E+00
  8.00000000E-01  8.00000000E-01  1.50000000E+00  8.00000000E-01  8.00000000E-01
  1.50000000E+00  8.00000000E-01  8.00000000E-01  1.50000000E+00  8.00000000E-01
  8.00000000E-01  1.50000000E+00  8.00000000E-01  8.00000000E-01  1.50000000E+00
  8.00000000E-01  8.00000000E-01  1.50000000E+00  8.00000000E-01  8.00000000E-01
  1.50000000E+00  8.00000000E-01  8.00000000E-01  1.50000000E+00  8.00000000E-01
  8.00000000E-01  1.50000000E+00  8.00000000E-01  8.00000000E-01  1.50000000E+00
  8.00000000E-01  8.00000000E-01  1.50000000E+00  8.00000000E-01  8.00000000E-01
  1.50000000E+00  8.00000000E-01  8.00000000E-01  1.50000000E+00  8.00000000E-01
  8.00000000E-01  1.50000000E+00  8.00000000E-01  8.00000000E-01  1.50000000E+00
  8.00000000E-01  8.00000000E-01  1.50000000E+00  8.00000000E-01  8.00000000E-01
  1.50000000E+00  8.00000000E-01  8.00000000E-01  1.50000000E+00  8.00000000E-01
  8.00000000E-01  1.50000000E+00  8.00000000E-01  8.00000000E-01  1.50000000E+00
  8.00000000E-01  8.00000000E-01  1.50000000E+00  8.00000000E-01  8.00000000E-01
  1.50000000E+00  8.00000000E-01  8.00000000E-01  1.50000000E+00  8.00000000E-01
  8.00000000E-01  1.50000000E+00  8.00000000E-01  8.00000000E-01  1.50000000E+00
  8.00000000E-01  8.00000000E-01  1.50000000E+00  8.00000000E-01  8.00000000E-01
  1.50000000E+00  8.00000000E-01  8.00000000E-01  1.50000000E+00  8.00000000E-01
  8.00000000E-01  1.50000000E+00  8.00000000E-01  8.00000000E-01  1.50000000E+00
  8.00000000E-01  8.00000000E-01  1.50000000E+00  8.00000000E-01  8.00000000E-01
  1.50000000E+00  8.00000000E-01  8.00000000E-01  1.50000000E+00  8.00000000E-01
  8.00000000E-01  1.50000000E+00  8.00000000E-01  8.00000000E-01  1.50000000E+00
  8.00000000E-01  8.00000000E-01  1.50000000E+00  8.00000000E-01  8.00000000E-01
  1.50000000E+00  8.00000000E-01  8.00000000E-01  1.50000000E+00  8.00000000E-01
  8.00000000E-01  1.50000000E+00  8.00000000E-01  8.00000000E-01  1.50000000E+00
  8.00000000E-01  8.00000000E-01  1.50000000E+00  8.00000000E-01  8.00000000E-01
  1.50000000E+00  8.00000000E-01  8.00000000E-01  1.50000000E+00  8.00000000E-01
  8.00000000E-01  1.50000000E+00  8.00000000E-01  8.00000000E-01  1.50000000E+00
  8.00000000E-01  8.00000000E-01  1.50000000E+00  8.00000000E-01  8.00000000E-01
  1.50000000E+00  8.00000000E-01  8.00000000E-01  1.50000000E+00  8.00000000E-01
  8.00000000E-01  1.50000000E+00  8.00000000E-01  8.00000000E-01  1.50000000E+00
  8.00000000E-01  8.00000000E-01  1.50000000E+00  8.00000000E-01  8.00000000E-01
  1.50000000E+00  8.00000000E-01  8.00000000E-01  1.50000000E+00  8.00000000E-01
  8.00000000E-01  1.50000000E+00  8.00000000E-01  8.00000000E-01  1.50000000E+00
  8.00000000E-01  8.00000000E-01  1.50000000E+00  8.00000000E-01  8.00000000E-01
  1.50000000E+00  8.00000000E-01  8.00000000E-01  1.50000000E+00  8.00000000E-01
  8.00000000E-01  1.50000000E+00  8.00000000E-01  8.00000000E-01  1.50000000E+00
  8.00000000E-01  8.00000000E-01  1.50000000E+00  8.00000000E-01  8.00000000E-01
  1.50000000E+00  8.00000000E-01  8.00000000E-01  1.50000000E+00  8.00000000E-01
  8.00000000E-01  1.50000000E+00  8.00000000E-01  8.00000000E-01  1.50000000E+00
  8.00000000E-01  8.00000000E-01  1.50000000E+00  8.00000000E-01  8.00000000E-01
  1.50000000E+00  8.00000000E-01  8.00000000E-01  1.50000000E+00  8.00000000E-01
  8.00000000E-01  1.50000000E+00  8.00000000E-01  8.00000000E-01  1.50000000E+00
  8.00000000E-01  8.00000000E-01  1.50000000E+00  8.00000000E-01  8.00000000E-01
  1.50000000E+00  8.00000000E-01  8.00000000E-01  1.50000000E+00  8.00000000E-01
  8.00000000E-01  1.50000000E+00  8.00000000E-01  8.00000000E-01  1.50000000E+00
  8.00000000E-01  8.00000000E-01  1.50000000E+00  8.00000000E-01  8.00000000E-01
  1.50000000E+00  8.00000000E-01  8.00000000E-01  1.50000000E+00  8.00000000E-01
  8.00000000E-01  1.50000000E+00  8.00000000E-01  8.00000000E-01  1.50000000E+00
  8.00000000E-01  8.00000000E-01  1.50000000E+00  8.00000000E-01  8.00000000E-01
  1.50000000E+00  8.00000000E-01  8.00000000E-01  1.50000000E+00  8.00000000E-01
  8.00000000E-01  1.50000000E+00  8.00000000E-01  8.00000000E-01  1.50000000E+00
  8.00000000E-01  8.00000000E-01  1.50000000E+00  8.00000000E-01  8.00000000E-01
  1.50000000E+00  8.00000000E-01  8.00000000E-01  1.50000000E+00  8.00000000E-01
  8.00000000E-01  1.50000000E+00  8.00000000E-01  8.00000000E-01  1.50000000E+00
  8.00000000E-01  8.00000000E-01  1.50000000E+00  8.00000000E-01  8.00000000E-01
  1.50000000E+00  8.00000000E-01  8.00000000E-01  1.50000000E+00  8.00000000E-01
  8.00000000E-01  1.50000000E+00  8.00000000E-01  8.00000000E-01  1.50000000E+00
  8.00000000E-01  8.00000000E-01  1.50000000E+00  8.00000000E-01  8.00000000E-01
  1.50000000E+00  8.00000000E-01  8.00000000E-01  1.50000000E+00  8.00000000E-01
  8.00000000E-01  1.50000000E+00  8.00000000E-01  8.00000000E-01  1.50000000E+00
  8.00000000E-01  8.00000000E-01  1.50000000E+00  8.00000000E-01  8.00000000E-01
  1.50000000E+00  8.00000000E-01  8.00000000E-01  1.50000000E+00  8.00000000E-01
  8.00000000E-01  1.50000000E+00  8.00000000E-01  8.00000000E-01  1.50000000E+00
  8.00000000E-01  8.00000000E-01  1.50000000E+00  8.00000000E-01  8.00000000E-01
  1.50000000E+00  8.00000000E-01  8.00000000E-01  1.50000000E+00  8.00000000E-01
  8.00000000E-01  1.50000000E+00  8.00000000E-01  8.00000000E-01  1.50000000E+00
  8.00000000E-01  8.00000000E-01  1.50000000E+00  8.00000000E-01  8.00000000E-01
  1.50000000E+00  8.00000000E-01  8.00000000E-01  1.50000000E+00  8.00000000E-01
  8.00000000E-01  1.50000000E+00  8.00000000E-01  8.00000000E-01  1.50000000E+00
  8.00000000E-01  8.00000000E-01  1.50000000E+00  8.00000000E-01  8.00000000E-01
  1.50000000E+00  8.00000000E-01  8.00000000E-01  1.50000000E+00  8.00000000E-01
  8.00000000E-01  1.50000000E+00  8.00000000E-01  8.00000000E-01  1.50000000E+00
  8.00000000E-01  8.00000000E-01  1.50000000E+00  8.00000000E-01  8.00000000E-01
  1.50000000E+00  8.00000000E-01  8.00000000E-01  1.50000000E+00  8.00000000E-01
  8.00000000E-01  1.50000000E+00  8.00000000E-01  8.00000000E-01  1.50000000E+00
  8.00000000E-01  8.00000000E-01  1.50000000E+00  8.00000000E-01  8.00000000E-01
  1.50000000E+00  8.00000000E-01  8.00000000E-01  1.50000000E+00  8.00000000E-01
  8.00000000E-01  1.50000000E+00  8.00000000E-01  8.00000000E-01  1.50000000E+00
  8.00000000E-01  8.00000000E-01  1.50000000E+00  8.00000000E-01  8.00000000E-01
  1.50000000E+00  8.00000000E-01  8.00000000E-01  1.50000000E+00  8.00000000E-01
  8.00000000E-01  1.50000000E+00  8.00000000E-01  8.00000000E-01  1.50000000E+00
  8.00000000E-01  8.00000000E-01  1.50000000E+00  8.00000000E-01  8.00000000E-01
  1.50000000E+00  8.00000000E-01  8.00000000E-01  1.50000000E+00  8.00000000E-01
  8.00000000E-01  1.50000000E+00  8.00000000E-01  8.00000000E-01  1.50000000E+00
  8.00000000E-01  8.00000000E-01  1.50000000E+00  8.00000000E-01  8.00000000E-01
  1.50000000E+00  8.00000000E-01  8.00000000E-01  1.50000000E+00  8.00000000E-01
  8.00000000E-01  1.50000000E+00  8.00000000E-01  8.00000000E-01  1.50000000E+00
  8.00000000E-01  8.00000000E-01  1.50000000E+00  8.00000000E-01  8.00000000E-01
  1.50000000E+00  8.00000000E-01  8.00000000E-01  1.50000000E+00  8.00000000E-01
  8.00000000E-01  1.50000000E+00  8.00000000E-01  8.00000000E-01  1.50000000E+00
  8.00000000E-01  8.00000000E-01  1.50000000E+00  8.00000000E-01  8.00000000E-01
  1.50000000E+00  8.00000000E-01  8.00000000E-01  1.50000000E+00  8.00000000E-01
  8.00000000E-01  1.50000000E+00  8.00000000E-01  8.00000000E-01  1.50000000E+00
  8.00000000E-01  8.00000000E-01  1.50000000E+00  8.00000000E-01  8.00000000E-01
  1.50000000E+00  8.00000000E-01  8.00000000E-01  1.50000000E+00  8.00000000E-01
  8.00000000E-01  1.50000000E+00  8.00000000E-01  8.00000000E-01  1.50000000E+00
  8.00000000E-01  8.00000000E-01  1.50000000E+00  8.00000000E-01  8.00000000E-01
  1.50000000E+00  8.00000000E-01  8.00000000E-01  1.50000000E+00  8.00000000E-01
  8.00000000E-01  1.50000000E+00  8.00000000E-01  8.00000000E-01  1.50000000E+00
  8.00000000E-01  8.00000000E-01  1.50000000E+00  8.00000000E-01  8.00000000E-01
  1.50000000E+00  8.00000000E-01  8.00000000E-01  1.50000000E+00  8.00000000E-01
  8.00000000E-01  1.50000000E+00  8.00000000E-01  8.00000000E-01  1.50000000E+00
  8.00000000E-01  8.00000000E-01  1.50000000E+00  8.00000000E-01  8.00000000E-01
  1.50000000E+00  8.00000000E-01  8.00000000E-01  1.50000000E+00  8.00000000E-01
  8.00000000E-01  1.50000000E+00  8.00000000E-01  8.00000000E-01  1.50000000E+00
  8.00000000E-01  8.00000000E-01  1.50000000E+00  8.00000000E-01  8.00000000E-01
  1.50000000E+00  8.00000000E-01  8.00000000E-01  1.50000000E+00  8.00000000E-01
  8.00000000E-01  1.50000000E+00  8.00000000E-01  8.00000000E-01  1.50000000E+00
  8.00000000E-01  8.00000000E-01  1.50000000E+00  8.00000000E-01  8.00000000E-01
  1.50000000E+00  8.00000000E-01  8.00000000E-01  1.50000000E+00  8.00000000E-01
  8.00000000E-01  1.50000000E+00  8.00000000E-01  8.00000000E-01  1.50000000E+00
  8.00000000E-01  8.00000000E-01  1.50000000E+00  8.00000000E-01  8.00000000E-01
  1.50000000E+00  8.00000000E-01  8.00000000E-01  1.50000000E+00  8.00000000E-01
  8.00000000E-01  1.50000000E+00  8.00000000E-01  8.00000000E-01  1.50000000E+00
  8.00000000E-01  8.00000000E-01  1.50000000E+00  8.00000000E-01  8.00000000E-01
  1.50000000E+00  8.00000000E-01  8.00000000E-01  1.50000000E+00  8.00000000E-01
  8.00000000E-01  1.50000000E+00  8.00000000E-01  8.00000000E-01  1.50000000E+00
  8.00000000E-01  8.00000000E-01  1.50000000E+00  8.00000000E-01  8.00000000E-01
  1.50000000E+00  8.00000000E-01  8.00000000E-01  1.50000000E+00  8.00000000E-01
  8.00000000E-01  1.50000000E+00  8.00000000E-01  8.00000000E-01  1.50000000E+00
  8.00000000E-01  8.00000000E-01  1.50000000E+00  8.00000000E-01  8.00000000E-01
  1.50000000E+00  8.00000000E-01  8.00000000E-01  1.50000000E+00  8.00000000E-01
  8.00000000E-01  1.50000000E+00  8.00000000E-01  8.00000000E-01  1.50000000E+00
  8.00000000E-01  8.00000000E-01  1.50000000E+00  8.00000000E-01  8.00000000E-01
  1.50000000E+00  8.00000000E-01  8.00000000E-01  1.50000000E+00  8.00000000E-01
  8.00000000E-01  1.50000000E+00  8.00000000E-01  8.00000000E-01  1.50000000E+00
  8.00000000E-01  8.00000000E-01  1.50000000E+00  8.00000000E-01  8.00000000E-01
  1.50000000E+00  8.00000000E-01  8.00000000E-01  1.50000000E+00  8.00000000E-01
  8.00000000E-01  1.50000000E+00  8.00000000E-01  8.00000000E-01  1.50000000E+00
  8.00000000E-01  8.00000000E-01  1.50000000E+00  8.00000000E-01  8.00000000E-01
  1.50000000E+00  8.00000000E-01  8.00000000E-01  1.50000000E+00  8.00000000E-01
  8.00000000E-01  1.50000000E+00  8.00000000E-01  8.00000000E-01  1.50000000E+00
  8.00000000E-01  8.00000000E-01  1.50000000E+00  8.00000000E-01  8.00000000E-01
  1.50000000E+00  8.00000000E-01  8.00000000E-01  1.50000000E+00  8.00000000E-01
  8.00000000E-01  1.50000000E+00  8.00000000E-01  8.00000000E-01  1.50000000E+00
  8.00000000E-01  8.00000000E-01  1.50000000E+00  8.00000000E-01  8.00000000E-01
  1.50000000E+00  8.00000000E-01  8.00000000E-01  1.50000000E+00  8.00000000E-01
  8.00000000E-01  1.50000000E+00  8.00000000E-01  8.00000000E-01  1.50000000E+00
  8.00000000E-01  8.00000000E-01  1.50000000E+00  8.00000000E-01  8.00000000E-01
  1.50000000E+00  8.00000000E-01  8.00000000E-01  1.50000000E+00  8.00000000E-01
  8.00000000E-01  1.50000000E+00  8.00000000E-01  8.00000000E-01  1.50000000E+00
  8.00000000E-01  8.00000000E-01  1.50000000E+00  8.00000000E-01  8.00000000E-01
  1.50000000E+00  8.00000000E-01  8.00000000E-01  1.50000000E+00  8.00000000E-01
  8.00000000E-01  1.50000000E+00  8.00000000E-01  8.00000000E-01  1.50000000E+00
  8.00000000E-01  8.00000000E-01  1.50000000E+00  8.00000000E-01  8.00000000E-01
  1.50000000E+00  8.00000000E-01  8.00000000E-01  1.50000000E+00  8.00000000E-01
  8.00000000E-01  1.50000000E+00  8.00000000E-01  8.00000000E-01  1.50000000E+00
  8.00000000E-01  8.00000000E-01  1.50000000E+00  8.00000000E-01  8.00000000E-01
  1.50000000E+00  8.00000000E-01  8.00000000E-01  1.50000000E+00  8.00000000E-01
  8.00000000E-01  1.50000000E+00  8.00000000E-01  8.00000000E-01  1.50000000E+00
  8.00000000E-01  8.00000000E-01  1.50000000E+00  8.00000000E-01  8.00000000E-01
  1.50000000E+00  8.00000000E-01  8.00000000E-01  1.50000000E+00  8.00000000E-01
  8.00000000E-01  1.50000000E+00  8.00000000E-01  8.00000000E-01  1.50000000E+00
  8.00000000E-01  8.00000000E-01  1.50000000E+00  8.00000000E-01  8.00000000E-01
  1.50000000E+00  8.00000000E-01  8.00000000E-01  1.50000000E+00  8.00000000E-01
  8.00000000E-01  1.50000000E+00  8.00000000E-01  8.00000000E-01  1.50000000E+00
  8.00000000E-01  8.00000000E-01  1.50000000E+00  8.00000000E-01  8.00000000E-01
  1.50000000E+00  8.00000000E-01  8.00000000E-01  1.50000000E+00  8.00000000E-01
  8.00000000E-01  1.50000000E+00  8.00000000E-01  8.00000000E-01  1.50000000E+00
  8.00000000E-01  8.00000000E-01  1.50000000E+00  8.00000000E-01  8.00000000E-01
  1.50000000E+00  8.00000000E-01  8.00000000E-01  1.50000000E+00  8.00000000E-01
  8.00000000E-01  1.50000000E+00  8.00000000E-01  8.00000000E-01  1.50000000E+00
  8.00000000E-01  8.00000000E-01  1.50000000E+00  8.00000000E-01  8.00000000E-01
  1.50000000E+00  8.00000000E-01  8.00000000E-01  1.50000000E+00  8.00000000E-01
  8.00000000E-01  1.50000000E+00  8.00000000E-01  8.00000000E-01  1.50000000E+00
  8.00000000E-01  8.00000000E-01  1.50000000E+00  8.00000000E-01  8.00000000E-01
  1.50000000E+00  8.00000000E-01  8.00000000E-01  1.50000000E+00  8.00000000E-01
  8.00000000E-01  1.50000000E+00  8.00000000E-01  8.00000000E-01  1.50000000E+00
  8.00000000E-01  8.00000000E-01  1.50000000E+00  8.00000000E-01  8.00000000E-01
  1.50000000E+00  8.00000000E-01  8.00000000E-01  1.50000000E+00  8.00000000E-01
  8.00000000E-01  1.50000000E+00  8.00000000E-01  8.00000000E-01  1.50000000E+00
  8.00000000E-01  8.00000000E-01  1.50000000E+00  8.00000000E-01  8.00000000E-01
  1.50000000E+00  8.00000000E-01  8.00000000E-01  1.50000000E+00  8.00000000E-01
  8.00000000E-01  1.50000000E+00  8.00000000E-01  8.00000000E-01  1.50000000E+00
  8.00000000E-01  8.00000000E-01  1.50000000E+00  8.00000000E-01  8.00000000E-01
  1.50000000E+00  8.00000000E-01  8.00000000E-01  1.50000000E+00  8.00000000E-01
  8.00000000E-01  1.50000000E+00  8.00000000E-01  8.00000000E-01  1.50000000E+00
  8.00000000E-01  8.00000000E-01  1.50000000E+00  8.00000000E-01  8.00000000E-01
  1.50000000E+00  8.00000000E-01  8.00000000E-01  1.50000000E+00  8.00000000E-01
  8.00000000E-01  1.50000000E+00  8.00000000E-01  8.00000000E-01  1.50000000E+00
  8.00000000E-01  8.00000000E-01  1.50000000E+00  8.00000000E-01  8.00000000E-01
  1.50000000E+00  8.00000000E-01  8.00000000E-01  1.50000000E+00  8.00000000E-01
  8.00000000E-01  1.50000000E+00  8.00000000E-01  8.00000000E-01  1.50000000E+00
  8.00000000E-01  8.00000000E-01  1.50000000E+00  8.00000000E-01  8.00000000E-01
  1.50000000E+00  8.00000000E-01  8.00000000E-01  1.50000000E+00  8.00000000E-01
  8.00000000E-01  1.50000000E+00  8.00000000E-01  8.00000000E-01  1.50000000E+00
  8.00000000E-01  8.00000000E-01  1.50000000E+00  8.00000000E-01  8.00000000E-01
  1.50000000E+00  8.00000000E-01  8.00000000E-01  1.50000000E+00  8.00000000E-01
  8.00000000E-01  1.50000000E+00  8.00000000E-01  8.00000000E-01  1.50000000E+00
  8.00000000E-01  8.00000000E-01  1.50000000E+00  8.00000000E-01  8.00000000E-01
  1.50000000E+00  8.00000000E-01  8.00000000E-01  1.50000000E+00  8.00000000E-01
  8.00000000E-01  1.50000000E+00  8.00000000E-01  8.00000000E-01  1.50000000E+00
  8.00000000E-01  8.00000000E-01  1.50000000E+00  8.00000000E-01  8.00000000E-01
  1.50000000E+00  8.00000000E-01  8.00000000E-01  1.50000000E+00  8.00000000E-01
  8.00000000E-01  1.50000000E+00  8.00000000E-01  8.00000000E-01  1.50000000E+00
  8.00000000E-01  8.00000000E-01  1.50000000E+00  8.00000000E-01  8.00000000E-01
  1.50000000E+00  8.00000000E-01  8.00000000E-01  1.50000000E+00  8.00000000E-01
  8.00000000E-01  1.50000000E+00  8.00000000E-01  8.00000000E-01  1.50000000E+00
  8.00000000E-01  8.00000000E-01  1.50000000E+00  8.00000000E-01  8.00000000E-01
  1.50000000E+00  8.00000000E-01  8.00000000E-01  1.50000000E+00  8.00000000E-01
  8.00000000E-01  1.50000000E+00  8.00000000E-01  8.00000000E-01  1.50000000E+00
  8.00000000E-01  8.00000000E-01  1.50000000E+00  8.00000000E-01  8.00000000E-01
  1.50000000E+00  8.00000000E-01  8.00000000E-01  1.50000000E+00  8.00000000E-01
  8.00000000E-01  1.50000000E+00  8.00000000E-01  8.00000000E-01  1.50000000E+00
  8.00000000E-01  8.00000000E-01  1.50000000E+00  8.00000000E-01  8.00000000E-01
  1.50000000E+00  8.00000000E-01  8.00000000E-01  1.50000000E+00  8.00000000E-01
  8.00000000E-01  1.50000000E+00  8.00000000E-01  8.00000000E-01  1.50000000E+00
  8.00000000E-01  8.00000000E-01  1.50000000E+00  8.00000000E-01  8.00000000E-01
  1.50000000E+00  8.00000000E-01  8.00000000E-01  1.50000000E+00  8.00000000E-01
  8.00000000E-01  1.50000000E+00  8.00000000E-01  8.00000000E-01  1.50000000E+00
  8.00000000E-01  8.00000000E-01  1.50000000E+00  8.00000000E-01  8.00000000E-01
  1.50000000E+00  8.00000000E-01  8.00000000E-01  1.50000000E+00  8.00000000E-01
  8.00000000E-01  1.50000000E+00  8.00000000E-01  8.00000000E-01  1.50000000E+00
  8.00000000E-01  8.00000000E-01  1.50000000E+00  8.00000000E-01  8.00000000E-01
  1.50000000E+00  8.00000000E-01  8.00000000E-01  1.50000000E+00  8.00000000E-01
  8.00000000E-01  1.50000000E+00  8.00000000E-01  8.00000000E-01  1.50000000E+00
  8.00000000E-01  8.00000000E-01  1.50000000E+00  8.00000000E-01  8.00000000E-01
  1.50000000E+00  8.00000000E-01  8.00000000E-01  1.50000000E+00  8.00000000E-01
  8.00000000E-01  1.50000000E+00  8.00000000E-01  8.00000000E-01  1.50000000E+00
  8.00000000E-01  8.00000000E-01  1.50000000E+00  8.00000000E-01  8.00000000E-01
  1.50000000E+00  8.00000000E-01  8.00000000E-01  1.50000000E+00  8.00000000E-01
  8.00000000E-01  1.50000000E+00  8.00000000E-01  8.00000000E-01  1.50000000E+00
  8.00000000E-01  8.00000000E-01  1.50000000E+00  8.00000000E-01  8.00000000E-01
  1.50000000E+00  8.00000000E-01  8.00000000E-01  1.50000000E+00  8.00000000E-01
  8.00000000E-01  1.50000000E+00  8.00000000E-01  8.00000000E-01  1.50000000E+00
  8.00000000E-01  8.00000000E-01  1.50000000E+00  8.00000000E-01  8.00000000E-01
  1.50000000E+00  8.00000000E-01  8.00000000E-01  1.50000000E+00  8.00000000E-01
  8.00000000E-01  1.50000000E+00  8.00000000E-01  8.00000000E-01  1.50000000E+00
  8.00000000E-01  8.00000000E-01  1.50000000E+00  8.00000000E-01  8.00000000E-01
  1.50000000E+00  8.00000000E-01  8.00000000E-01  1.50000000E+00  8.00000000E-01
  8.00000000E-01  1.50000000E+00  8.00000000E-01  8.00000000E-01  1.50000000E+00
  8.00000000E-01  8.00000000E-01  1.50000000E+00  8.00000000E-01  8.00000000E-01
  1.50000000E+00  8.00000000E-01  8.00000000E-01  1.50000000E+00  8.00000000E-01
  8.00000000E-01  1.50000000E+00  8.00000000E-01  8.00000000E-01  1.50000000E+00
  8.00000000E-01  8.00000000E-01  1.50000000E+00  8.00000000E-01  8.00000000E-01
  1.50000000E+00  8.00000000E-01  8.00000000E-01  1.50000000E+00  8.00000000E-01
  8.00000000E-01  1.50000000E+00  8.00000000E-01  8.00000000E-01  1.50000000E+00
  8.00000000E-01  8.00000000E-01  1.50000000E+00  8.00000000E-01  8.00000000E-01
  1.50000000E+00  8.00000000E-01  8.00000000E-01  1.50000000E+00  8.00000000E-01
  8.00000000E-01  1.50000000E+00  8.00000000E-01  8.00000000E-01  1.50000000E+00
  8.00000000E-01  8.00000000E-01  1.50000000E+00  8.00000000E-01  8.00000000E-01
  1.50000000E+00  8.00000000E-01  8.00000000E-01  1.50000000E+00  8.00000000E-01
  8.00000000E-01  1.50000000E+00  8.00000000E-01  8.00000000E-01  1.50000000E+00
  8.00000000E-01  8.00000000E-01  1.50000000E+00  8.00000000E-01  8.00000000E-01
  1.50000000E+00  8.00000000E-01  8.00000000E-01  1.50000000E+00  8.00000000E-01
  8.00000000E-01  1.50000000E+00  8.00000000E-01  8.00000000E-01  1.50000000E+00
  8.00000000E-01  8.00000000E-01  1.50000000E+00  8.00000000E-01  8.00000000E-01
  1.50000000E+00  8.00000000E-01  8.00000000E-01  1.50000000E+00  8.00000000E-01
  8.00000000E-01  1.50000000E+00  8.00000000E-01  8.00000000E-01  1.50000000E+00
  8.00000000E-01  8.00000000E-01  1.50000000E+00  8.00000000E-01  8.00000000E-01
  1.50000000E+00  8.00000000E-01  8.00000000E-01  1.50000000E+00  8.00000000E-01
  8.00000000E-01  1.50000000E+00  8.00000000E-01  8.00000000E-01  1.50000000E+00
  8.00000000E-01  8.00000000E-01  1.50000000E+00  8.00000000E-01  8.00000000E-01
  1.50000000E+00  8.00000000E-01  8.00000000E-01  1.50000000E+00  8.00000000E-01
  8.00000000E-01  1.50000000E+00  8.00000000E-01  8.00000000E-01  1.50000000E+00
  8.00000000E-01  8.00000000E-01  1.50000000E+00  8.00000000E-01  8.00000000E-01
  1.50000000E+00  8.00000000E-01  8.00000000E-01  1.50000000E+00  8.00000000E-01
  8.00000000E-01  1.50000000E+00  8.00000000E-01  8.00000000E-01  1.50000000E+00
  8.00000000E-01  8.00000000E-01  1.50000000E+00  8.00000000E-01  8.00000000E-01
  1.50000000E+00  8.00000000E-01  8.00000000E-01  1.50000000E+00  8.00000000E-01
  8.00000000E-01  1.50000000E+00  8.00000000E-01  8.00000000E-01  1.50000000E+00
  8.00000000E-01  8.00000000E-01  1.50000000E+00  8.00000000E-01  8.00000000E-01
  1.50000000E+00  8.00000000E-01  8.00000000E-01  1.50000000E+00  8.00000000E-01
  8.00000000E-01  1.50000000E+00  8.00000000E-01  8.00000000E-01  1.50000000E+00
  8.00000000E-01  8.00000000E-01  1.50000000E+00  8.00000000E-01  8.00000000E-01
  1.50000000E+00  8.00000000E-01  8.00000000E-01  1.50000000E+00  8.00000000E-01
  8.00000000E-01  1.50000000E+00  8.00000000E-01  8.00000000E-01  1.50000000E+00
  8.00000000E-01  8.00000000E-01  1.50000000E+00  8.00000000E-01  8.00000000E-01
  1.50000000E+00  8.00000000E-01  8.00000000E-01  1.50000000E+00  8.00000000E-01
  8.00000000E-01  1.50000000E+00  8.00000000E-01  8.00000000E-01  1.50000000E+00
  8.00000000E-01  8.00000000E-01  1.50000000E+00  8.00000000E-01  8.00000000E-01
  1.50000000E+00  8.00000000E-01  8.00000000E-01  1.50000000E+00  8.00000000E-01
  8.00000000E-01  1.50000000E+00  8.00000000E-01  8.00000000E-01  1.50000000E+00
  8.00000000E-01  8.00000000E-01  1.50000000E+00  8.00000000E-01  8.00000000E-01
  1.50000000E+00  8.00000000E-01  8.00000000E-01  1.50000000E+00  8.00000000E-01
  8.00000000E-01  1.50000000E+00  8.00000000E-01  8.00000000E-01  1.50000000E+00
  8.00000000E-01  8.00000000E-01  1.50000000E+00  8.00000000E-01  8.00000000E-01
  1.50000000E+00  8.00000000E-01  8.00000000E-01  1.50000000E+00  8.00000000E-01
  8.00000000E-01  1.50000000E+00  8.00000000E-01  8.00000000E-01  1.50000000E+00
  8.00000000E-01  8.00000000E-01  1.50000000E+00  8.00000000E-01  8.00000000E-01
  1.50000000E+00  8.00000000E-01  8.00000000E-01  1.50000000E+00  8.00000000E-01
  8.00000000E-01  1.50000000E+00  8.00000000E-01  8.00000000E-01  1.50000000E+00
  8.00000000E-01  8.00000000E-01  1.50000000E+00  8.00000000E-01  8.00000000E-01
  1.50000000E+00  8.00000000E-01  8.00000000E-01  1.50000000E+00  8.00000000E-01
  8.00000000E-01  1.50000000E+00  8.00000000E-01  8.00000000E-01  1.50000000E+00
  8.00000000E-01  8.00000000E-01  1.50000000E+00  8.00000000E-01  8.00000000E-01
  1.50000000E+00  8.00000000E-01  8.00000000E-01  1.50000000E+00  8.00000000E-01
  8.00000000E-01  1.50000000E+00  8.00000000E-01  8.00000000E-01  1.50000000E+00
  8.00000000E-01  8.00000000E-01  1.50000000E+00  8.00000000E-01  8.00000000E-01
  1.50000000E+00  8.00000000E-01  8.00000000E-01  1.50000000E+00  8.00000000E-01
  8.00000000E-01  1.50000000E+00  8.00000000E-01  8.00000000E-01  1.50000000E+00
  8.00000000E-01  8.00000000E-01  1.50000000E+00  8.00000000E-01  8.00000000E-01
  1.50000000E+00  8.00000000E-01  8.00000000E-01  1.50000000E+00  8.00000000E-01
  8.00000000E-01  1.50000000E+00  8.00000000E-01  8.00000000E-01  1.50000000E+00
  8.00000000E-01  8.00000000E-01  1.50000000E+00  8.00000000E-01  8.00000000E-01
  1.50000000E+00  8.00000000E-01  8.00000000E-01  1.50000000E+00  8.00000000E-01
  8.00000000E-01  1.50000000E+00  8.00000000E-01  8.00000000E-01  1.50000000E+00
  8.00000000E-01  8.00000000E-01  1.50000000E+00  8.00000000E-01  8.00000000E-01
  1.50000000E+00  8.00000000E-01  8.00000000E-01  1.50000000E+00  8.00000000E-01
  8.00000000E-01  1.50000000E+00  8.00000000E-01  8.00000000E-01  1.50000000E+00
  8.00000000E-01  8.00000000E-01  1.50000000E+00  8.00000000E-01  8.00000000E-01
  1.50000000E+00  8.00000000E-01  8.00000000E-01  1.50000000E+00  8.00000000E-01
  8.00000000E-01  1.50000000E+00  8.00000000E-01  8.00000000E-01  1.50000000E+00
  8.00000000E-01  8.00000000E-01  1.50000000E+00  8.00000000E-01  8.00000000E-01
  1.50000000E+00  8.00000000E-01  8.00000000E-01  1.50000000E+00  8.00000000E-01
  8.00000000E-01  1.50000000E+00  8.00000000E-01  8.00000000E-01  1.50000000E+00
  8.00000000E-01  8.00000000E-01  1.50000000E+00  8.00000000E-01  8.00000000E-01
  1.50000000E+00  8.00000000E-01  8.00000000E-01  1.50000000E+00  8.00000000E-01
  8.00000000E-01  1.50000000E+00  8.00000000E-01  8.00000000E-01  1.50000000E+00
  8.00000000E-01  8.00000000E-01  1.50000000E+00  8.00000000E-01  8.00000000E-01
  1.50000000E+00  8.00000000E-01  8.00000000E-01  1.50000000E+00  8.00000000E-01
  8.00000000E-01  1.50000000E+00  8.00000000E-01  8.00000000E-01  1.50000000E+00
  8.00000000E-01  8.00000000E-01  1.50000000E+00  8.00000000E-01  8.00000000E-01
  1.50000000E+00  8.00000000E-01  8.00000000E-01  1.50000000E+00  8.00000000E-01
  8.00000000E-01  1.50000000E+00  8.00000000E-01  8.00000000E-01  1.50000000E+00
  8.00000000E-01  8.00000000E-01  1.50000000E+00  8.00000000E-01  8.00000000E-01
  1.50000000E+00  8.00000000E-01  8.00000000E-01  1.50000000E+00  8.00000000E-01
  8.00000000E-01  1.50000000E+00  8.00000000E-01  8.00000000E-01  1.50000000E+00
  8.00000000E-01  8.00000000E-01  1.50000000E+00  8.00000000E-01  8.00000000E-01
  1.50000000E+00  8.00000000E-01  8.00000000E-01  1.50000000E+00  8.00000000E-01
  8.00000000E-01  1.50000000E+00  8.00000000E-01  8.00000000E-01  1.50000000E+00
  8.00000000E-01  8.00000000E-01  1.50000000E+00  8.00000000E-01  8.00000000E-01
  1.50000000E+00  8.00000000E-01  8.00000000E-01  1.50000000E+00  8.00000000E-01
  8.00000000E-01  1.50000000E+00  8.00000000E-01  8.00000000E-01  1.50000000E+00
  8.00000000E-01  8.00000000E-01  1.50000000E+00  8.00000000E-01  8.00000000E-01
  1.50000000E+00  8.00000000E-01  8.00000000E-01  1.50000000E+00  8.00000000E-01
  8.00000000E-01  1.50000000E+00  8.00000000E-01  8.00000000E-01  1.50000000E+00
  8.00000000E-01  8.00000000E-01  1.50000000E+00  8.00000000E-01  8.00000000E-01
  1.50000000E+00  8.00000000E-01  8.00000000E-01  1.50000000E+00  8.00000000E-01
  8.00000000E-01  1.50000000E+00  8.00000000E-01  8.00000000E-01  1.50000000E+00
  8.00000000E-01  8.00000000E-01  1.50000000E+00  8.00000000E-01  8.00000000E-01
  1.50000000E+00  8.00000000E-01  8.00000000E-01  1.50000000E+00  8.00000000E-01
  8.00000000E-01  1.50000000E+00  8.00000000E-01  8.00000000E-01  1.50000000E+00
  8.00000000E-01  8.00000000E-01  1.50000000E+00  8.00000000E-01  8.00000000E-01
  1.50000000E+00  8.00000000E-01  8.00000000E-01  1.50000000E+00  8.00000000E-01
  8.00000000E-01  1.50000000E+00  8.00000000E-01  8.00000000E-01  1.50000000E+00
  8.00000000E-01  8.00000000E-01  1.50000000E+00  8.00000000E-01  8.00000000E-01
  1.50000000E+00  8.00000000E-01  8.00000000E-01  1.50000000E+00  8.00000000E-01
  8.00000000E-01  1.50000000E+00  8.00000000E-01  8.00000000E-01  1.50000000E+00
  8.00000000E-01  8.00000000E-01  1.50000000E+00  8.00000000E-01  8.00000000E-01
  1.50000000E+00  8.00000000E-01  8.00000000E-01  1.50000000E+00  8.00000000E-01
  8.00000000E-01  1.50000000E+00  8.00000000E-01  8.00000000E-01  1.50000000E+00
  8.00000000E-01  8.00000000E-01  1.50000000E+00  8.00000000E-01  8.00000000E-01
  1.50000000E+00  8.00000000E-01  8.00000000E-01  1.50000000E+00  8.00000000E-01
  8.00000000E-01  1.50000000E+00  8.00000000E-01  8.00000000E-01  1.50000000E+00
  8.00000000E-01  8.00000000E-01  1.50000000E+00  8.00000000E-01  8.00000000E-01
  1.50000000E+00  8.00000000E-01  8.00000000E-01  1.50000000E+00  8.00000000E-01
  8.00000000E-01  1.50000000E+00  8.00000000E-01  8.00000000E-01  1.50000000E+00
  8.00000000E-01  8.00000000E-01  1.50000000E+00  8.00000000E-01  8.00000000E-01
  1.50000000E+00  8.00000000E-01  8.00000000E-01  1.50000000E+00  8.00000000E-01
  8.00000000E-01  1.50000000E+00  8.00000000E-01  8.00000000E-01  1.50000000E+00
  8.00000000E-01  8.00000000E-01  1.50000000E+00  8.00000000E-01  8.00000000E-01
  1.50000000E+00  8.00000000E-01  8.00000000E-01  1.50000000E+00  8.00000000E-01
  8.00000000E-01  1.50000000E+00  8.00000000E-01  8.00000000E-01  1.50000000E+00
  8.00000000E-01  8.00000000E-01  1.50000000E+00  8.00000000E-01  8.00000000E-01
  1.50000000E+00  8.00000000E-01  8.00000000E-01  1.50000000E+00  8.00000000E-01
  8.00000000E-01  1.50000000E+00  8.00000000E-01  8.00000000E-01  1.50000000E+00
  8.00000000E-01  8.00000000E-01  1.50000000E+00  8.00000000E-01  8.00000000E-01
  1.50000000E+00  8.00000000E-01  8.00000000E-01  1.50000000E+00  8.00000000E-01
  8.00000000E-01  1.50000000E+00  8.00000000E-01  8.00000000E-01  1.50000000E+00
  8.00000000E-01  8.00000000E-01  1.50000000E+00  8.00000000E-01  8.00000000E-01
  1.50000000E+00  8.00000000E-01  8.00000000E-01  1.50000000E+00  8.00000000E-01
  8.00000000E-01  1.50000000E+00  8.00000000E-01  8.00000000E-01  1.50000000E+00
  8.00000000E-01  8.00000000E-01  1.50000000E+00  8.00000000E-01  8.00000000E-01
  1.50000000E+00  8.00000000E-01  8.00000000E-01  1.50000000E+00  8.00000000E-01
  8.00000000E-01  1.50000000E+00  8.00000000E-01  8.00000000E-01  1.50000000E+00
  8.00000000E-01  8.00000000E-01  1.50000000E+00  8.00000000E-01  8.00000000E-01
  1.50000000E+00  8.00000000E-01  8.00000000E-01  1.50000000E+00  8.00000000E-01
  8.00000000E-01  1.50000000E+00  8.00000000E-01  8.00000000E-01  1.50000000E+00
  8.00000000E-01  8.00000000E-01  1.50000000E+00  8.00000000E-01  8.00000000E-01
  1.50000000E+00  8.00000000E-01  8.00000000E-01  1.50000000E+00  8.00000000E-01
  8.00000000E-01  1.50000000E+00  8.00000000E-01  8.00000000E-01  1.50000000E+00
  8.00000000E-01  8.00000000E-01  1.50000000E+00  8.00000000E-01  8.00000000E-01
  1.50000000E+00  8.00000000E-01  8.00000000E-01  1.50000000E+00  8.00000000E-01
  8.00000000E-01  1.50000000E+00  8.00000000E-01  8.00000000E-01  1.50000000E+00
  8.00000000E-01  8.00000000E-01  1.50000000E+00  8.00000000E-01  8.00000000E-01
  1.50000000E+00  8.00000000E-01  8.00000000E-01  1.50000000E+00  8.00000000E-01
  8.00000000E-01  1.50000000E+00  8.00000000E-01  8.00000000E-01  1.50000000E+00
  8.00000000E-01  8.00000000E-01  1.50000000E+00  8.00000000E-01  8.00000000E-01
  1.50000000E+00  8.00000000E-01  8.00000000E-01  1.50000000E+00  8.00000000E-01
  8.00000000E-01  1.50000000E+00  8.00000000E-01  8.00000000E-01  1.50000000E+00
  8.00000000E-01  8.00000000E-01  1.50000000E+00  8.00000000E-01  8.00000000E-01
  1.50000000E+00  8.00000000E-01  8.00000000E-01  1.50000000E+00  8.00000000E-01
  8.00000000E-01  1.50000000E+00  8.00000000E-01  8.00000000E-01  1.50000000E+00
  8.00000000E-01  8.00000000E-01  1.50000000E+00  8.00000000E-01  8.00000000E-01
  1.50000000E+00  8.00000000E-01  8.00000000E-01  1.50000000E+00  8.00000000E-01
  8.00000000E-01  1.50000000E+00  8.00000000E-01  8.00000000E-01  1.50000000E+00
  8.00000000E-01  8.00000000E-01  1.50000000E+00  8.00000000E-01  8.00000000E-01
  1.50000000E+00  8.00000000E-01  8.00000000E-01  1.50000000E+00  8.00000000E-01
  8.00000000E-01  1.50000000E+00  8.00000000E-01  8.00000000E-01  1.50000000E+00
  8.00000000E-01  8.00000000E-01  1.50000000E+00  8.00000000E-01  8.00000000E-01
  1.50000000E+00  8.00000000E-01  8.00000000E-01  1.50000000E+00  8.00000000E-01
  8.00000000E-01  1.50000000E+00  8.00000000E-01  8.00000000E-01  1.50000000E+00
  8.00000000E-01  8.00000000E-01  1.50000000E+00  8.00000000E-01  8.00000000E-01
  1.50000000E+00  8.00000000E-01  8.00000000E-01  1.50000000E+00  8.00000000E-01
  8.00000000E-01  1.50000000E+00  8.00000000E-01  8.00000000E-01  1.50000000E+00
  8.00000000E-01  8.00000000E-01  1.50000000E+00  8.00000000E-01  8.00000000E-01
  1.50000000E+00  8.00000000E-01  8.00000000E-01  1.50000000E+00  8.00000000E-01
  8.00000000E-01  1.50000000E+00  8.00000000E-01  8.00000000E-01  1.50000000E+00
  8.00000000E-01  8.00000000E-01  1.50000000E+00  8.00000000E-01  8.00000000E-01
  1.50000000E+00  8.00000000E-01  8.00000000E-01  1.50000000E+00  8.00000000E-01
  8.00000000E-01  1.50000000E+00  8.00000000E-01  8.00000000E-01  1.50000000E+00
  8.00000000E-01  8.00000000E-01  1.50000000E+00  8.00000000E-01  8.00000000E-01
  1.50000000E+00  8.00000000E-01  8.00000000E-01  1.50000000E+00  8.00000000E-01
  8.00000000E-01  1.50000000E+00  8.00000000E-01  8.00000000E-01  1.50000000E+00
  8.00000000E-01  8.00000000E-01  1.50000000E+00  8.00000000E-01  8.00000000E-01
  1.50000000E+00  8.00000000E-01  8.00000000E-01  1.50000000E+00  8.00000000E-01
  8.00000000E-01  1.50000000E+00  8.00000000E-01  8.00000000E-01  1.50000000E+00
  8.00000000E-01  8.00000000E-01  1.50000000E+00  8.00000000E-01  8.00000000E-01
  1.50000000E+00  8.00000000E-01  8.00000000E-01  1.50000000E+00  8.00000000E-01
  8.00000000E-01  1.50000000E+00  8.00000000E-01  8.00000000E-01  1.50000000E+00
  8.00000000E-01  8.00000000E-01  1.50000000E+00  8.00000000E-01  8.00000000E-01
  1.50000000E+00  8.00000000E-01  8.00000000E-01  1.50000000E+00  8.00000000E-01
  8.00000000E-01  1.50000000E+00  8.00000000E-01  8.00000000E-01  1.50000000E+00
  8.00000000E-01  8.00000000E-01  1.50000000E+00  8.00000000E-01  8.00000000E-01
  1.50000000E+00  8.00000000E-01  8.00000000E-01  1.50000000E+00  8.00000000E-01
  8.00000000E-01  1.50000000E+00  8.00000000E-01  8.00000000E-01  1.50000000E+00
  8.00000000E-01  8.00000000E-01  1.50000000E+00  8.00000000E-01  8.00000000E-01
  1.50000000E+00  8.00000000E-01  8.00000000E-01  1.50000000E+00  8.00000000E-01
  8.00000000E-01  1.50000000E+00  8.00000000E-01  8.00000000E-01  1.50000000E+00
  8.00000000E-01  8.00000000E-01  1.50000000E+00  8.00000000E-01  8.00000000E-01
  1.50000000E+00  8.00000000E-01  8.00000000E-01  1.50000000E+00  8.00000000E-01
  8.00000000E-01  1.50000000E+00  8.00000000E-01  8.00000000E-01  1.50000000E+00
  8.00000000E-01  8.00000000E-01  1.50000000E+00  8.00000000E-01  8.00000000E-01
  1.50000000E+00  8.00000000E-01  8.00000000E-01  1.50000000E+00  8.00000000E-01
  8.00000000E-01  1.50000000E+00  8.00000000E-01  8.00000000E-01  1.50000000E+00
  8.00000000E-01  8.00000000E-01  1.50000000E+00  8.00000000E-01  8.00000000E-01
  1.50000000E+00  8.00000000E-01  8.00000000E-01  1.50000000E+00  8.00000000E-01
  8.00000000E-01  1.50000000E+00  8.00000000E-01  8.00000000E-01  1.50000000E+00
  8.00000000E-01  8.00000000E-01  1.50000000E+00  8.00000000E-01  8.00000000E-01
  1.50000000E+00  8.00000000E-01  8.00000000E-01  1.50000000E+00  8.00000000E-01
  8.00000000E-01  1.50000000E+00  8.00000000E-01  8.00000000E-01  1.50000000E+00
  8.00000000E-01  8.00000000E-01  1.50000000E+00  8.00000000E-01  8.00000000E-01
  1.50000000E+00  8.00000000E-01  8.00000000E-01  1.50000000E+00  8.00000000E-01
  8.00000000E-01  1.50000000E+00  8.00000000E-01  8.00000000E-01  1.50000000E+00
  8.00000000E-01  8.00000000E-01  1.50000000E+00  8.00000000E-01  8.00000000E-01
  1.50000000E+00  8.00000000E-01  8.00000000E-01  1.50000000E+00  8.00000000E-01
  8.00000000E-01  1.50000000E+00  8.00000000E-01  8.00000000E-01  1.50000000E+00
  8.00000000E-01  8.00000000E-01  1.50000000E+00  8.00000000E-01  8.00000000E-01
  1.50000000E+00  8.00000000E-01  8.00000000E-01  1.50000000E+00  8.00000000E-01
  8.00000000E-01  1.50000000E+00  8.00000000E-01  8.00000000E-01  1.50000000E+00
  8.00000000E-01  8.00000000E-01  1.50000000E+00  8.00000000E-01  8.00000000E-01
  1.50000000E+00  8.00000000E-01  8.00000000E-01  1.50000000E+00  8.00000000E-01
  8.00000000E-01  1.50000000E+00  8.00000000E-01  8.00000000E-01  1.50000000E+00
  8.00000000E-01  8.00000000E-01  1.50000000E+00  8.00000000E-01  8.00000000E-01
  1.50000000E+00  8.00000000E-01  8.00000000E-01  1.50000000E+00  8.00000000E-01
  8.00000000E-01  1.50000000E+00  8.00000000E-01  8.00000000E-01  1.50000000E+00
  8.00000000E-01  8.00000000E-01  1.50000000E+00  8.00000000E-01  8.00000000E-01
  1.50000000E+00  8.00000000E-01  8.00000000E-01  1.50000000E+00  8.00000000E-01
  8.00000000E-01  1.50000000E+00  8.00000000E-01  8.00000000E-01  1.50000000E+00
  8.00000000E-01  8.00000000E-01  1.50000000E+00  8.00000000E-01  8.00000000E-01
  1.50000000E+00  8.00000000E-01  8.00000000E-01  1.50000000E+00  8.00000000E-01
  8.00000000E-01  1.50000000E+00  8.00000000E-01  8.00000000E-01  1.50000000E+00
  8.00000000E-01  8.00000000E-01  1.50000000E+00  8.00000000E-01  8.00000000E-01
  1.50000000E+00  8.00000000E-01  8.00000000E-01  1.50000000E+00  8.00000000E-01
  8.00000000E-01  1.50000000E+00  8.00000000E-01  8.00000000E-01  1.50000000E+00
  8.00000000E-01  8.00000000E-01  1.50000000E+00  8.00000000E-01  8.00000000E-01
  1.50000000E+00  8.00000000E-01  8.00000000E-01  1.50000000E+00  8.00000000E-01
  8.00000000E-01  1.50000000E+00  8.00000000E-01  8.00000000E-01  1.50000000E+00
  8.00000000E-01  8.00000000E-01  1.50000000E+00  8.00000000E-01  8.00000000E-01
  1.50000000E+00  8.00000000E-01  8.00000000E-01  1.50000000E+00  8.00000000E-01
  8.00000000E-01  1.50000000E+00  8.00000000E-01  8.00000000E-01  1.50000000E+00
  8.00000000E-01  8.00000000E-01  1.50000000E+00  8.00000000E-01  8.00000000E-01
  1.50000000E+00  8.00000000E-01  8.00000000E-01  1.50000000E+00  8.00000000E-01
  8.00000000E-01  1.50000000E+00  8.00000000E-01  8.00000000E-01  1.50000000E+00
  8.00000000E-01  8.00000000E-01  1.50000000E+00  8.00000000E-01  8.00000000E-01
  1.50000000E+00  8.00000000E-01  8.00000000E-01  1.50000000E+00  8.00000000E-01
  8.00000000E-01  1.50000000E+00  8.00000000E-01  8.00000000E-01  1.50000000E+00
  8.00000000E-01  8.00000000E-01  1.50000000E+00  8.00000000E-01  8.00000000E-01
  1.50000000E+00  8.00000000E-01  8.00000000E-01  1.50000000E+00  8.00000000E-01
  8.00000000E-01  1.50000000E+00  8.00000000E-01  8.00000000E-01  1.50000000E+00
  8.00000000E-01  8.00000000E-01  1.50000000E+00  8.00000000E-01  8.00000000E-01
  1.50000000E+00  8.00000000E-01  8.00000000E-01  1.50000000E+00  8.00000000E-01
  8.00000000E-01  1.50000000E+00  8.00000000E-01  8.00000000E-01  1.50000000E+00
  8.00000000E-01  8.00000000E-01  1.50000000E+00  8.00000000E-01  8.00000000E-01
  1.50000000E+00  8.00000000E-01  8.00000000E-01  1.50000000E+00  8.00000000E-01
  8.00000000E-01  1.50000000E+00  8.00000000E-01  8.00000000E-01  1.50000000E+00
  8.00000000E-01  8.00000000E-01  1.50000000E+00  8.00000000E-01  8.00000000E-01
  1.50000000E+00  8.00000000E-01  8.00000000E-01  1.50000000E+00  8.00000000E-01
  8.00000000E-01  1.50000000E+00  8.00000000E-01  8.00000000E-01  1.50000000E+00
  8.00000000E-01  8.00000000E-01  1.50000000E+00  8.00000000E-01  8.00000000E-01
  1.50000000E+00  8.00000000E-01  8.00000000E-01  1.50000000E+00  8.00000000E-01
  8.00000000E-01  1.50000000E+00  8.00000000E-01  8.00000000E-01  1.50000000E+00
  8.00000000E-01  8.00000000E-01  1.50000000E+00  8.00000000E-01  8.00000000E-01
  1.50000000E+00  8.00000000E-01  8.00000000E-01  1.50000000E+00  8.00000000E-01
  8.00000000E-01  1.50000000E+00  8.00000000E-01  8.00000000E-01  1.50000000E+00
  8.00000000E-01  8.00000000E-01  1.50000000E+00  8.00000000E-01  8.00000000E-01
  1.50000000E+00  8.00000000E-01  8.00000000E-01  1.50000000E+00  8.00000000E-01
  8.00000000E-01  1.50000000E+00  8.00000000E-01  8.00000000E-01  1.50000000E+00
  8.00000000E-01  8.00000000E-01  1.50000000E+00  8.00000000E-01  8.00000000E-01
  1.50000000E+00  8.00000000E-01  8.00000000E-01  1.50000000E+00  8.00000000E-01
  8.00000000E-01  1.50000000E+00  8.00000000E-01  8.00000000E-01  1.50000000E+00
  8.00000000E-01  8.00000000E-01  1.50000000E+00  8.00000000E-01  8.00000000E-01
  1.50000000E+00  8.00000000E-01  8.00000000E-01  1.50000000E+00  8.00000000E-01
  8.00000000E-01  1.50000000E+00  8.00000000E-01  8.00000000E-01  1.50000000E+00
  8.00000000E-01  8.00000000E-01  1.50000000E+00  8.00000000E-01  8.00000000E-01
  1.50000000E+00  8.00000000E-01  8.00000000E-01  1.50000000E+00  8.00000000E-01
  8.00000000E-01  1.50000000E+00  8.00000000E-01  8.00000000E-01  1.50000000E+00
  8.00000000E-01  8.00000000E-01  1.50000000E+00  8.00000000E-01  8.00000000E-01
  1.50000000E+00  8.00000000E-01  8.00000000E-01  1.50000000E+00  8.00000000E-01
  8.00000000E-01  1.50000000E+00  8.00000000E-01  8.00000000E-01  1.50000000E+00
  8.00000000E-01  8.00000000E-01  1.50000000E+00  8.00000000E-01  8.00000000E-01
  1.50000000E+00  8.00000000E-01  8.00000000E-01  1.50000000E+00  8.00000000E-01
  8.00000000E-01  1.50000000E+00  8.00000000E-01  8.00000000E-01  1.50000000E+00
  8.00000000E-01  8.00000000E-01  1.50000000E+00  8.00000000E-01  8.00000000E-01
  1.50000000E+00  8.00000000E-01  8.00000000E-01  1.50000000E+00  8.00000000E-01
  8.00000000E-01  1.50000000E+00  8.00000000E-01  8.00000000E-01  1.50000000E+00
  8.00000000E-01  8.00000000E-01  1.50000000E+00  8.00000000E-01  8.00000000E-01
  1.50000000E+00  8.00000000E-01  8.00000000E-01  1.50000000E+00  8.00000000E-01
  8.00000000E-01  1.50000000E+00  8.00000000E-01  8.00000000E-01  1.50000000E+00
  8.00000000E-01  8.00000000E-01  1.50000000E+00  8.00000000E-01  8.00000000E-01
  1.50000000E+00  8.00000000E-01  8.00000000E-01  1.50000000E+00  8.00000000E-01
  8.00000000E-01  1.50000000E+00  8.00000000E-01  8.00000000E-01  1.50000000E+00
  8.00000000E-01  8.00000000E-01  1.50000000E+00  8.00000000E-01  8.00000000E-01
  1.50000000E+00  8.00000000E-01  8.00000000E-01  1.50000000E+00  8.00000000E-01
  8.00000000E-01  1.50000000E+00  8.00000000E-01  8.00000000E-01  1.50000000E+00
  8.00000000E-01  8.00000000E-01  1.50000000E+00  8.00000000E-01  8.00000000E-01
  1.50000000E+00  8.00000000E-01  8.00000000E-01  1.50000000E+00  8.00000000E-01
  8.00000000E-01  1.50000000E+00  8.00000000E-01  8.00000000E-01  1.50000000E+00
  8.00000000E-01  8.00000000E-01  1.50000000E+00  8.00000000E-01  8.00000000E-01
  1.50000000E+00  8.00000000E-01  8.00000000E-01  1.50000000E+00  8.00000000E-01
  8.00000000E-01  1.50000000E+00  8.00000000E-01  8.00000000E-01  1.50000000E+00
  8.00000000E-01  8.00000000E-01  1.50000000E+00  8.00000000E-01  8.00000000E-01
  1.50000000E+00  8.00000000E-01  8.00000000E-01  1.50000000E+00  8.00000000E-01
  8.00000000E-01  1.50000000E+00  8.00000000E-01  8.00000000E-01  1.50000000E+00
  8.00000000E-01  8.00000000E-01  1.50000000E+00  8.00000000E-01  8.00000000E-01
  1.50000000E+00  8.00000000E-01  8.00000000E-01  1.50000000E+00  8.00000000E-01
  8.00000000E-01  1.50000000E+00  8.00000000E-01  8.00000000E-01  1.50000000E+00
  8.00000000E-01  8.00000000E-01  1.50000000E+00  8.00000000E-01  8.00000000E-01
  1.50000000E+00  8.00000000E-01  8.00000000E-01  1.50000000E+00  8.00000000E-01
  8.00000000E-01  1.50000000E+00  8.00000000E-01  8.00000000E-01  1.50000000E+00
  8.00000000E-01  8.00000000E-01  1.50000000E+00  8.00000000E-01  8.00000000E-01
  1.50000000E+00  8.00000000E-01  8.00000000E-01  1.50000000E+00  8.00000000E-01
  8.00000000E-01  1.50000000E+00  8.00000000E-01  8.00000000E-01  1.50000000E+00
  8.00000000E-01  8.00000000E-01  1.50000000E+00  8.00000000E-01  8.00000000E-01
  1.50000000E+00  8.00000000E-01  8.00000000E-01  1.50000000E+00  8.00000000E-01
  8.00000000E-01  1.50000000E+00  8.00000000E-01  8.00000000E-01  1.50000000E+00
  8.00000000E-01  8.00000000E-01  1.50000000E+00  8.00000000E-01  8.00000000E-01
  1.50000000E+00  8.00000000E-01  8.00000000E-01  1.50000000E+00  8.00000000E-01
  8.00000000E-01  1.50000000E+00  8.00000000E-01  8.00000000E-01  1.50000000E+00
  8.00000000E-01  8.00000000E-01  1.50000000E+00  8.00000000E-01  8.00000000E-01
  1.50000000E+00  8.00000000E-01  8.00000000E-01  1.50000000E+00  8.00000000E-01
  8.00000000E-01  1.50000000E+00  8.00000000E-01  8.00000000E-01  1.50000000E+00
  8.00000000E-01  8.00000000E-01  1.50000000E+00  8.00000000E-01  8.00000000E-01
  1.50000000E+00  8.00000000E-01  8.00000000E-01  1.50000000E+00  8.00000000E-01
  8.00000000E-01  1.50000000E+00  8.00000000E-01  8.00000000E-01  1.50000000E+00
  8.00000000E-01  8.00000000E-01  1.50000000E+00  8.00000000E-01  8.00000000E-01
  1.50000000E+00  8.00000000E-01  8.00000000E-01  1.50000000E+00  8.00000000E-01
  8.00000000E-01  1.50000000E+00  8.00000000E-01  8.00000000E-01  1.50000000E+00
  8.00000000E-01  8.00000000E-01  1.50000000E+00  8.00000000E-01  8.00000000E-01
  1.50000000E+00  8.00000000E-01  8.00000000E-01  1.50000000E+00  8.00000000E-01
  8.00000000E-01  1.50000000E+00  8.00000000E-01  8.00000000E-01  1.50000000E+00
  8.00000000E-01  8.00000000E-01  1.50000000E+00  8.00000000E-01  8.00000000E-01
  1.50000000E+00  8.00000000E-01  8.00000000E-01  1.50000000E+00  8.00000000E-01
  8.00000000E-01  1.50000000E+00  8.00000000E-01  8.00000000E-01  1.50000000E+00
  8.00000000E-01  8.00000000E-01  1.50000000E+00  8.00000000E-01  8.00000000E-01
  1.50000000E+00  8.00000000E-01  8.00000000E-01  1.50000000E+00  8.00000000E-01
  8.00000000E-01  1.50000000E+00  8.00000000E-01  8.00000000E-01  1.50000000E+00
  8.00000000E-01  8.00000000E-01  1.50000000E+00  8.00000000E-01  8.00000000E-01
  1.50000000E+00  8.00000000E-01  8.00000000E-01  1.50000000E+00  8.00000000E-01
  8.00000000E-01  1.50000000E+00  8.00000000E-01  8.00000000E-01  1.50000000E+00
  8.00000000E-01  8.00000000E-01  1.50000000E+00  8.00000000E-01  8.00000000E-01
  1.50000000E+00  8.00000000E-01  8.00000000E-01  1.50000000E+00  8.00000000E-01
  8.00000000E-01  1.50000000E+00  8.00000000E-01  8.00000000E-01  1.50000000E+00
  8.00000000E-01  8.00000000E-01  1.50000000E+00  8.00000000E-01  8.00000000E-01
  1.50000000E+00  8.00000000E-01  8.00000000E-01  1.50000000E+00  8.00000000E-01
  8.00000000E-01  1.50000000E+00  8.00000000E-01  8.00000000E-01  1.50000000E+00
  8.00000000E-01  8.00000000E-01  1.50000000E+00  8.00000000E-01  8.00000000E-01
  1.50000000E+00  8.00000000E-01  8.00000000E-01  1.50000000E+00  8.00000000E-01
  8.00000000E-01  1.50000000E+00  8.00000000E-01  8.00000000E-01  1.50000000E+00
  8.00000000E-01  8.00000000E-01  1.50000000E+00  8.00000000E-01  8.00000000E-01
  1.50000000E+00  8.00000000E-01  8.00000000E-01  1.50000000E+00  8.00000000E-01
  8.00000000E-01  1.50000000E+00  8.00000000E-01  8.00000000E-01  1.50000000E+00
  8.00000000E-01  8.00000000E-01  1.50000000E+00  8.00000000E-01  8.00000000E-01
  1.50000000E+00  8.00000000E-01  8.00000000E-01  1.50000000E+00  8.00000000E-01
  8.00000000E-01  1.50000000E+00  8.00000000E-01  8.00000000E-01  1.50000000E+00
  8.00000000E-01  8.00000000E-01  1.50000000E+00  8.00000000E-01  8.00000000E-01
  1.50000000E+00  8.00000000E-01  8.00000000E-01  1.50000000E+00  8.00000000E-01
  8.00000000E-01  1.50000000E+00  8.00000000E-01  8.00000000E-01  1.50000000E+00
  8.00000000E-01  8.00000000E-01  1.50000000E+00  8.00000000E-01  8.00000000E-01
  1.50000000E+00  8.00000000E-01  8.00000000E-01  1.50000000E+00  8.00000000E-01
  8.00000000E-01  1.50000000E+00  8.00000000E-01  8.00000000E-01  1.50000000E+00
  8.00000000E-01  8.00000000E-01  1.50000000E+00  8.00000000E-01  8.00000000E-01
  1.50000000E+00  8.00000000E-01  8.00000000E-01  1.50000000E+00  8.00000000E-01
  8.00000000E-01  1.50000000E+00  8.00000000E-01  8.00000000E-01  1.50000000E+00
  8.00000000E-01  8.00000000E-01  1.50000000E+00  8.00000000E-01  8.00000000E-01
  1.50000000E+00  8.00000000E-01  8.00000000E-01  1.50000000E+00  8.00000000E-01
  8.00000000E-01  1.50000000E+00  8.00000000E-01  8.00000000E-01  1.50000000E+00
  8.00000000E-01  8.00000000E-01  1.50000000E+00  8.00000000E-01  8.00000000E-01
  1.50000000E+00  8.00000000E-01  8.00000000E-01  1.50000000E+00  8.00000000E-01
  8.00000000E-01  1.50000000E+00  8.00000000E-01  8.00000000E-01  1.50000000E+00
  8.00000000E-01  8.00000000E-01  1.50000000E+00  8.00000000E-01  8.00000000E-01
  1.50000000E+00  8.00000000E-01  8.00000000E-01  1.50000000E+00  8.00000000E-01
  8.00000000E-01  1.50000000E+00  8.00000000E-01  8.00000000E-01  1.50000000E+00
  8.00000000E-01  8.00000000E-01  1.50000000E+00  8.00000000E-01  8.00000000E-01
  1.50000000E+00  8.00000000E-01  8.00000000E-01  1.50000000E+00  8.00000000E-01
  8.00000000E-01  1.50000000E+00  8.00000000E-01  8.00000000E-01  1.50000000E+00
  8.00000000E-01  8.00000000E-01  1.50000000E+00  8.00000000E-01  8.00000000E-01
  1.50000000E+00  8.00000000E-01  8.00000000E-01  1.50000000E+00  8.00000000E-01
  8.00000000E-01  1.50000000E+00  8.00000000E-01  8.00000000E-01  1.50000000E+00
  8.00000000E-01  8.00000000E-01  1.50000000E+00  8.00000000E-01  8.00000000E-01
  1.50000000E+00  8.00000000E-01  8.00000000E-01  1.50000000E+00  8.00000000E-01
  8.00000000E-01  1.50000000E+00  8.00000000E-01  8.00000000E-01  1.50000000E+00
  8.00000000E-01  8.00000000E-01  1.50000000E+00  8.00000000E-01  8.00000000E-01
  1.50000000E+00  8.00000000E-01  8.00000000E-01  1.50000000E+00  8.00000000E-01
  8.00000000E-01  1.50000000E+00  8.00000000E-01  8.00000000E-01  1.50000000E+00
  8.00000000E-01  8.00000000E-01  1.50000000E+00  8.00000000E-01  8.00000000E-01
  1.50000000E+00  8.00000000E-01  8.00000000E-01  1.50000000E+00  8.00000000E-01
  8.00000000E-01  1.50000000E+00  8.00000000E-01  8.00000000E-01  1.50000000E+00
  8.00000000E-01  8.00000000E-01  1.50000000E+00  8.00000000E-01  8.00000000E-01
  1.50000000E+00  8.00000000E-01  8.00000000E-01  1.50000000E+00  8.00000000E-01
  8.00000000E-01  1.50000000E+00  8.00000000E-01  8.00000000E-01  1.50000000E+00
  8.00000000E-01  8.00000000E-01  1.50000000E+00  8.00000000E-01  8.00000000E-01
  1.50000000E+00  8.00000000E-01  8.00000000E-01  1.50000000E+00  8.00000000E-01
  8.00000000E-01  1.50000000E+00  8.00000000E-01  8.00000000E-01  1.50000000E+00
  8.00000000E-01  8.00000000E-01  1.50000000E+00  8.00000000E-01  8.00000000E-01
  1.50000000E+00  8.00000000E-01  8.00000000E-01  1.50000000E+00  8.00000000E-01
  8.00000000E-01  1.50000000E+00  8.00000000E-01  8.00000000E-01  1.50000000E+00
  8.00000000E-01  8.00000000E-01  1.50000000E+00  8.00000000E-01  8.00000000E-01
  1.50000000E+00  8.00000000E-01  8.00000000E-01  1.50000000E+00  8.00000000E-01
  8.00000000E-01  1.50000000E+00  8.00000000E-01  8.00000000E-01  1.50000000E+00
  8.00000000E-01  8.00000000E-01  1.50000000E+00  8.00000000E-01  8.00000000E-01
  1.50000000E+00  8.00000000E-01  8.00000000E-01  1.50000000E+00  8.00000000E-01
  8.00000000E-01  1.50000000E+00  8.00000000E-01  8.00000000E-01  1.50000000E+00
  8.00000000E-01  8.00000000E-01  1.50000000E+00  8.00000000E-01  8.00000000E-01
  1.50000000E+00  8.00000000E-01  8.00000000E-01  1.50000000E+00  8.00000000E-01
  8.00000000E-01  1.50000000E+00  8.00000000E-01  8.00000000E-01  1.50000000E+00
  8.00000000E-01  8.00000000E-01  1.50000000E+00  8.00000000E-01  8.00000000E-01
  1.50000000E+00  8.00000000E-01  8.00000000E-01  1.50000000E+00  8.00000000E-01
  8.00000000E-01  1.50000000E+00  8.00000000E-01  8.00000000E-01  1.50000000E+00
  8.00000000E-01  8.00000000E-01  1.50000000E+00  8.00000000E-01  8.00000000E-01
  1.50000000E+00  8.00000000E-01  8.00000000E-01  1.50000000E+00  8.00000000E-01
  8.00000000E-01  1.50000000E+00  8.00000000E-01  8.00000000E-01  1.50000000E+00
  8.00000000E-01  8.00000000E-01  1.50000000E+00  8.00000000E-01  8.00000000E-01
  1.50000000E+00  8.00000000E-01  8.00000000E-01  1.50000000E+00  8.00000000E-01
  8.00000000E-01  1.50000000E+00  8.00000000E-01  8.00000000E-01  1.50000000E+00
  8.00000000E-01  8.00000000E-01  1.50000000E+00  8.00000000E-01  8.00000000E-01
  1.50000000E+00  8.00000000E-01  8.00000000E-01  1.50000000E+00  8.00000000E-01
  8.00000000E-01  1.50000000E+00  8.00000000E-01  8.00000000E-01  1.50000000E+00
  8.00000000E-01  8.00000000E-01  1.50000000E+00  8.00000000E-01  8.00000000E-01
  1.50000000E+00  8.00000000E-01  8.00000000E-01  1.50000000E+00  8.00000000E-01
  8.00000000E-01  1.50000000E+00  8.00000000E-01  8.00000000E-01  1.50000000E+00
  8.00000000E-01  8.00000000E-01  1.50000000E+00  8.00000000E-01  8.00000000E-01
  1.50000000E+00  8.00000000E-01  8.00000000E-01  1.50000000E+00  8.00000000E-01
  8.00000000E-01  1.50000000E+00  8.00000000E-01  8.00000000E-01  1.50000000E+00
  8.00000000E-01  8.00000000E-01  1.50000000E+00  8.00000000E-01  8.00000000E-01
  1.50000000E+00  8.00000000E-01  8.00000000E-01  1.50000000E+00  8.00000000E-01
  8.00000000E-01  1.50000000E+00  8.00000000E-01  8.00000000E-01  1.50000000E+00
  8.00000000E-01  8.00000000E-01  1.50000000E+00  8.00000000E-01  8.00000000E-01
  1.50000000E+00  8.00000000E-01  8.00000000E-01  1.50000000E+00  8.00000000E-01
  8.00000000E-01  1.50000000E+00  8.00000000E-01  8.00000000E-01  1.50000000E+00
  8.00000000E-01  8.00000000E-01  1.50000000E+00  8.00000000E-01  8.00000000E-01
  1.50000000E+00  8.00000000E-01  8.00000000E-01  1.50000000E+00  8.00000000E-01
  8.00000000E-01  1.50000000E+00  8.00000000E-01  8.00000000E-01  1.50000000E+00
  8.00000000E-01  8.00000000E-01  1.50000000E+00  8.00000000E-01  8.00000000E-01
  1.50000000E+00  8.00000000E-01  8.00000000E-01  1.50000000E+00  8.00000000E-01
  8.00000000E-01  1.50000000E+00  8.00000000E-01  8.00000000E-01  1.50000000E+00
  8.00000000E-01  8.00000000E-01  1.50000000E+00  8.00000000E-01  8.00000000E-01
  1.50000000E+00  8.00000000E-01  8.00000000E-01  1.50000000E+00  8.00000000E-01
  8.00000000E-01  1.50000000E+00  8.00000000E-01  8.00000000E-01  1.50000000E+00
  8.00000000E-01  8.00000000E-01  1.50000000E+00  8.00000000E-01  8.00000000E-01
  1.50000000E+00  8.00000000E-01  8.00000000E-01  1.50000000E+00  8.00000000E-01
  8.00000000E-01  1.50000000E+00  8.00000000E-01  8.00000000E-01  1.50000000E+00
  8.00000000E-01  8.00000000E-01  1.50000000E+00  8.00000000E-01  8.00000000E-01
  1.50000000E+00  8.00000000E-01  8.00000000E-01  1.50000000E+00  8.00000000E-01
  8.00000000E-01  1.50000000E+00  8.00000000E-01  8.00000000E-01  1.50000000E+00
  8.00000000E-01  8.00000000E-01  1.50000000E+00  8.00000000E-01  8.00000000E-01
  1.50000000E+00  8.00000000E-01  8.00000000E-01  1.50000000E+00  8.00000000E-01
  8.00000000E-01  1.50000000E+00  8.00000000E-01  8.00000000E-01  1.50000000E+00
  8.00000000E-01  8.00000000E-01  1.50000000E+00  8.00000000E-01  8.00000000E-01
  1.50000000E+00  8.00000000E-01  8.00000000E-01  1.50000000E+00  8.00000000E-01
  8.00000000E-01  1.50000000E+00  8.00000000E-01  8.00000000E-01  1.50000000E+00
  8.00000000E-01  8.00000000E-01  1.50000000E+00  8.00000000E-01  8.00000000E-01
  1.50000000E+00  8.00000000E-01  8.00000000E-01  1.50000000E+00  8.00000000E-01
  8.00000000E-01  1.50000000E+00  8.00000000E-01  8.00000000E-01  1.50000000E+00
  8.00000000E-01  8.00000000E-01  1.50000000E+00  8.00000000E-01  8.00000000E-01
  1.50000000E+00  8.00000000E-01  8.00000000E-01  1.50000000E+00  8.00000000E-01
  8.00000000E-01  1.50000000E+00  8.00000000E-01  8.00000000E-01  1.50000000E+00
  8.00000000E-01  8.00000000E-01  1.50000000E+00  8.00000000E-01  8.00000000E-01
  1.50000000E+00  8.00000000E-01  8.00000000E-01  1.50000000E+00  8.00000000E-01
  8.00000000E-01  1.50000000E+00  8.00000000E-01  8.00000000E-01  1.50000000E+00
  8.00000000E-01  8.00000000E-01  1.50000000E+00  8.00000000E-01  8.00000000E-01
  1.50000000E+00  8.00000000E-01  8.00000000E-01  1.50000000E+00  8.00000000E-01
  8.00000000E-01  1.50000000E+00  8.00000000E-01  8.00000000E-01  1.50000000E+00
  8.00000000E-01  8.00000000E-01  1.50000000E+00  8.00000000E-01  8.00000000E-01
  1.50000000E+00  8.00000000E-01  8.00000000E-01  1.50000000E+00  8.00000000E-01
  8.00000000E-01  1.50000000E+00  8.00000000E-01  8.00000000E-01  1.50000000E+00
  8.00000000E-01  8.00000000E-01  1.50000000E+00  8.00000000E-01  8.00000000E-01
  1.50000000E+00  8.00000000E-01  8.00000000E-01  1.50000000E+00  8.00000000E-01
  8.00000000E-01  1.50000000E+00  8.00000000E-01  8.00000000E-01  1.50000000E+00
  8.00000000E-01  8.00000000E-01  1.50000000E+00  8.00000000E-01  8.00000000E-01
  1.50000000E+00  8.00000000E-01  8.00000000E-01  1.50000000E+00  8.00000000E-01
  8.00000000E-01  1.50000000E+00  8.00000000E-01  8.00000000E-01  1.50000000E+00
  8.00000000E-01  8.00000000E-01  1.50000000E+00  8.00000000E-01  8.00000000E-01
  1.50000000E+00  8.00000000E-01  8.00000000E-01  1.50000000E+00  8.00000000E-01
  8.00000000E-01  1.50000000E+00  8.00000000E-01  8.00000000E-01  1.50000000E+00
  8.00000000E-01  8.00000000E-01  1.50000000E+00  8.00000000E-01  8.00000000E-01
  1.50000000E+00  8.00000000E-01  8.00000000E-01  1.50000000E+00  8.00000000E-01
  8.00000000E-01  1.50000000E+00  8.00000000E-01  8.00000000E-01  1.50000000E+00
  8.00000000E-01  8.00000000E-01  1.50000000E+00  8.00000000E-01  8.00000000E-01
  1.50000000E+00  8.00000000E-01  8.00000000E-01  1.50000000E+00  8.00000000E-01
  8.00000000E-01  1.50000000E+00  8.00000000E-01  8.00000000E-01  1.50000000E+00
  8.00000000E-01  8.00000000E-01  1.50000000E+00  8.00000000E-01  8.00000000E-01
  1.50000000E+00  8.00000000E-01  8.00000000E-01  1.50000000E+00  8.00000000E-01
  8.00000000E-01  1.50000000E+00  8.00000000E-01  8.00000000E-01  1.50000000E+00
  8.00000000E-01  8.00000000E-01  1.50000000E+00  8.00000000E-01  8.00000000E-01
  1.50000000E+00  8.00000000E-01  8.00000000E-01  1.50000000E+00  8.00000000E-01
  8.00000000E-01  1.50000000E+00  8.00000000E-01  8.00000000E-01  1.50000000E+00
  8.00000000E-01  8.00000000E-01  1.50000000E+00  8.00000000E-01  8.00000000E-01
  1.50000000E+00  8.00000000E-01  8.00000000E-01  1.50000000E+00  8.00000000E-01
  8.00000000E-01  1.50000000E+00  8.00000000E-01  8.00000000E-01  1.50000000E+00
  8.00000000E-01  8.00000000E-01  1.50000000E+00  8.00000000E-01  8.00000000E-01
  1.50000000E+00  8.00000000E-01  8.00000000E-01  1.50000000E+00  8.00000000E-01
  8.00000000E-01  1.50000000E+00  8.00000000E-01  8.00000000E-01  1.50000000E+00
  8.00000000E-01  8.00000000E-01  1.50000000E+00  8.00000000E-01  8.00000000E-01
  1.50000000E+00  8.00000000E-01  8.00000000E-01  1.50000000E+00  8.00000000E-01
  8.00000000E-01  1.50000000E+00  8.00000000E-01  8.00000000E-01  1.50000000E+00
  8.00000000E-01  8.00000000E-01  1.50000000E+00  8.00000000E-01  8.00000000E-01
  1.50000000E+00  8.00000000E-01  8.00000000E-01  1.50000000E+00  8.00000000E-01
  8.00000000E-01  1.50000000E+00  8.00000000E-01  8.00000000E-01  1.50000000E+00
  8.00000000E-01  8.00000000E-01  1.50000000E+00  8.00000000E-01  8.00000000E-01
  1.50000000E+00  8.00000000E-01  8.00000000E-01  1.50000000E+00  8.00000000E-01
  8.00000000E-01  1.50000000E+00  8.00000000E-01  8.00000000E-01  1.50000000E+00
  8.00000000E-01  8.00000000E-01  1.50000000E+00  8.00000000E-01  8.00000000E-01
  1.50000000E+00  8.00000000E-01  8.00000000E-01  1.50000000E+00  8.00000000E-01
  8.00000000E-01  1.50000000E+00  8.00000000E-01  8.00000000E-01  1.50000000E+00
  8.00000000E-01  8.00000000E-01  1.50000000E+00  8.00000000E-01  8.00000000E-01
  1.50000000E+00  8.00000000E-01  8.00000000E-01  1.50000000E+00  8.00000000E-01
  8.00000000E-01  1.50000000E+00  8.00000000E-01  8.00000000E-01  1.50000000E+00
  8.00000000E-01  8.00000000E-01  1.50000000E+00  8.00000000E-01  8.00000000E-01
  1.50000000E+00  8.00000000E-01  8.00000000E-01  1.50000000E+00  8.00000000E-01
  8.00000000E-01  1.50000000E+00  8.00000000E-01  8.00000000E-01  1.50000000E+00
  8.00000000E-01  8.00000000E-01  1.50000000E+00  8.00000000E-01  8.00000000E-01
  1.50000000E+00  8.00000000E-01  8.00000000E-01  1.50000000E+00  8.00000000E-01
  8.00000000E-01  1.50000000E+00  8.00000000E-01  8.00000000E-01  1.50000000E+00
  8.00000000E-01  8.00000000E-01  1.50000000E+00  8.00000000E-01  8.00000000E-01
  1.50000000E+00  8.00000000E-01  8.00000000E-01  1.50000000E+00  8.00000000E-01
  8.00000000E-01  1.50000000E+00  8.00000000E-01  8.00000000E-01  1.50000000E+00
  8.00000000E-01  8.00000000E-01  1.50000000E+00  8.00000000E-01  8.00000000E-01
  1.50000000E+00  8.00000000E-01  8.00000000E-01  1.50000000E+00  8.00000000E-01
  8.00000000E-01  1.50000000E+00  8.00000000E-01  8.00000000E-01  1.50000000E+00
  8.00000000E-01  8.00000000E-01  1.50000000E+00  8.00000000E-01  8.00000000E-01
  1.50000000E+00  8.00000000E-01  8.00000000E-01  1.50000000E+00  8.00000000E-01
  8.00000000E-01  1.50000000E+00  8.00000000E-01  8.00000000E-01  1.50000000E+00
  8.00000000E-01  8.00000000E-01  1.50000000E+00  8.00000000E-01  8.00000000E-01
  1.50000000E+00  8.00000000E-01  8.00000000E-01  1.50000000E+00  8.00000000E-01
  8.00000000E-01  1.50000000E+00  8.00000000E-01  8.00000000E-01  1.50000000E+00
  8.00000000E-01  8.00000000E-01  1.50000000E+00  8.00000000E-01  8.00000000E-01
  1.50000000E+00  8.00000000E-01  8.00000000E-01  1.50000000E+00  8.00000000E-01
  8.00000000E-01  1.50000000E+00  8.00000000E-01  8.00000000E-01  1.50000000E+00
  8.00000000E-01  8.00000000E-01  1.50000000E+00  8.00000000E-01  8.00000000E-01
  1.50000000E+00  8.00000000E-01  8.00000000E-01  1.50000000E+00  8.00000000E-01
  8.00000000E-01  1.50000000E+00  8.00000000E-01  8.00000000E-01  1.50000000E+00
  8.00000000E-01  8.00000000E-01  1.50000000E+00  8.00000000E-01  8.00000000E-01
  1.50000000E+00  8.00000000E-01  8.00000000E-01  1.50000000E+00  8.00000000E-01
  8.00000000E-01  1.50000000E+00  8.00000000E-01  8.00000000E-01  1.50000000E+00
  8.00000000E-01  8.00000000E-01  1.50000000E+00  8.00000000E-01  8.00000000E-01
  1.50000000E+00  8.00000000E-01  8.00000000E-01  1.50000000E+00  8.00000000E-01
  8.00000000E-01  1.50000000E+00  8.00000000E-01  8.00000000E-01  1.50000000E+00
  8.00000000E-01  8.00000000E-01  1.50000000E+00  8.00000000E-01  8.00000000E-01
  1.50000000E+00  8.00000000E-01  8.00000000E-01  1.50000000E+00  8.00000000E-01
  8.00000000E-01  1.50000000E+00  8.00000000E-01  8.00000000E-01  1.50000000E+00
  8.00000000E-01  8.00000000E-01  1.50000000E+00  8.00000000E-01  8.00000000E-01
  1.50000000E+00  8.00000000E-01  8.00000000E-01  1.50000000E+00  8.00000000E-01
  8.00000000E-01  1.50000000E+00  8.00000000E-01  8.00000000E-01  1.50000000E+00
  8.00000000E-01  8.00000000E-01  1.50000000E+00  8.00000000E-01  8.00000000E-01
  1.50000000E+00  8.00000000E-01  8.00000000E-01  1.50000000E+00  8.00000000E-01
  8.00000000E-01  1.50000000E+00  8.00000000E-01  8.00000000E-01  1.50000000E+00
  8.00000000E-01  8.00000000E-01  1.50000000E+00  8.00000000E-01  8.00000000E-01
  1.50000000E+00  8.00000000E-01  8.00000000E-01  1.50000000E+00  8.00000000E-01
  8.00000000E-01  1.50000000E+00  8.00000000E-01  8.00000000E-01  1.50000000E+00
  8.00000000E-01  8.00000000E-01  1.50000000E+00  8.00000000E-01  8.00000000E-01
  1.50000000E+00  8.00000000E-01  8.00000000E-01  1.50000000E+00  8.00000000E-01
  8.00000000E-01  1.50000000E+00  8.00000000E-01  8.00000000E-01  1.50000000E+00
  8.00000000E-01  8.00000000E-01  1.50000000E+00  8.00000000E-01  8.00000000E-01
  1.50000000E+00  8.00000000E-01  8.00000000E-01  1.50000000E+00  8.00000000E-01
  8.00000000E-01  1.50000000E+00  8.00000000E-01  8.00000000E-01  1.50000000E+00
  8.00000000E-01  8.00000000E-01  1.50000000E+00  8.00000000E-01  8.00000000E-01
  1.50000000E+00  8.00000000E-01  8.00000000E-01  1.50000000E+00  8.00000000E-01
  8.00000000E-01  1.50000000E+00  8.00000000E-01  8.00000000E-01  1.50000000E+00
  8.00000000E-01  8.00000000E-01  1.50000000E+00  8.00000000E-01  8.00000000E-01
  1.50000000E+00  8.00000000E-01  8.00000000E-01  1.50000000E+00  8.00000000E-01
  8.00000000E-01  1.50000000E+00  8.00000000E-01  8.00000000E-01  1.50000000E+00
  8.00000000E-01  8.00000000E-01  1.50000000E+00  8.00000000E-01  8.00000000E-01
  1.50000000E+00  8.00000000E-01  8.00000000E-01  1.50000000E+00  8.00000000E-01
  8.00000000E-01  1.50000000E+00  8.00000000E-01  8.00000000E-01  1.50000000E+00
  8.00000000E-01  8.00000000E-01  1.50000000E+00  8.00000000E-01  8.00000000E-01
  1.50000000E+00  8.00000000E-01  8.00000000E-01  1.50000000E+00  8.00000000E-01
  8.00000000E-01  1.50000000E+00  8.00000000E-01  8.00000000E-01  1.50000000E+00
  8.00000000E-01  8.00000000E-01  1.50000000E+00  8.00000000E-01  8.00000000E-01
  1.50000000E+00  8.00000000E-01  8.00000000E-01  1.50000000E+00  8.00000000E-01
  8.00000000E-01  1.50000000E+00  8.00000000E-01  8.00000000E-01  1.50000000E+00
  8.00000000E-01  8.00000000E-01  1.50000000E+00  8.00000000E-01  8.00000000E-01
  1.50000000E+00  8.00000000E-01  8.00000000E-01  1.50000000E+00  8.00000000E-01
  8.00000000E-01  1.50000000E+00  8.00000000E-01  8.00000000E-01  1.50000000E+00
  8.00000000E-01  8.00000000E-01  1.50000000E+00  8.00000000E-01  8.00000000E-01
  1.50000000E+00  8.00000000E-01  8.00000000E-01  1.50000000E+00  8.00000000E-01
  8.00000000E-01  1.50000000E+00  8.00000000E-01  8.00000000E-01  1.50000000E+00
  8.00000000E-01  8.00000000E-01  1.50000000E+00  8.00000000E-01  8.00000000E-01
  1.50000000E+00  8.00000000E-01  8.00000000E-01  1.50000000E+00  8.00000000E-01
  8.00000000E-01  1.50000000E+00  8.00000000E-01  8.00000000E-01  1.50000000E+00
  8.00000000E-01  8.00000000E-01  1.50000000E+00  8.00000000E-01  8.00000000E-01
  1.50000000E+00  8.00000000E-01  8.00000000E-01  1.50000000E+00  8.00000000E-01
  8.00000000E-01  1.50000000E+00  8.00000000E-01  8.00000000E-01  1.50000000E+00
  8.00000000E-01  8.00000000E-01  1.50000000E+00  8.00000000E-01  8.00000000E-01
  1.50000000E+00  8.00000000E-01  8.00000000E-01  1.50000000E+00  8.00000000E-01
  8.00000000E-01  1.50000000E+00  8.00000000E-01  8.00000000E-01  1.50000000E+00
  8.00000000E-01  8.00000000E-01  1.50000000E+00  8.00000000E-01  8.00000000E-01
  1.50000000E+00  8.00000000E-01  8.00000000E-01  1.50000000E+00  8.00000000E-01
  8.00000000E-01  1.50000000E+00  8.00000000E-01  8.00000000E-01  1.50000000E+00
  8.00000000E-01  8.00000000E-01  1.50000000E+00  8.00000000E-01  8.00000000E-01
  1.50000000E+00  8.00000000E-01  8.00000000E-01  1.50000000E+00  8.00000000E-01
  8.00000000E-01  1.50000000E+00  8.00000000E-01  8.00000000E-01  1.50000000E+00
  8.00000000E-01  8.00000000E-01  1.50000000E+00  8.00000000E-01  8.00000000E-01
  1.50000000E+00  8.00000000E-01  8.00000000E-01  1.50000000E+00  8.00000000E-01
  8.00000000E-01  1.50000000E+00  8.00000000E-01  8.00000000E-01  1.50000000E+00
  8.00000000E-01  8.00000000E-01  1.50000000E+00  8.00000000E-01  8.00000000E-01
  1.50000000E+00  8.00000000E-01  8.00000000E-01  1.50000000E+00  8.00000000E-01
  8.00000000E-01  1.50000000E+00  8.00000000E-01  8.00000000E-01  1.50000000E+00
  8.00000000E-01  8.00000000E-01  1.50000000E+00  8.00000000E-01  8.00000000E-01
  1.50000000E+00  8.00000000E-01  8.00000000E-01  1.50000000E+00  8.00000000E-01
  8.00000000E-01  1.50000000E+00  8.00000000E-01  8.00000000E-01  1.50000000E+00
  8.00000000E-01  8.00000000E-01  1.50000000E+00  8.00000000E-01  8.00000000E-01
  1.50000000E+00  8.00000000E-01  8.00000000E-01  1.50000000E+00  8.00000000E-01
  8.00000000E-01  1.50000000E+00  8.00000000E-01  8.00000000E-01  1.50000000E+00
  8.00000000E-01  8.00000000E-01  1.50000000E+00  8.00000000E-01  8.00000000E-01
  1.50000000E+00  8.00000000E-01  8.00000000E-01  1.50000000E+00  8.00000000E-01
  8.00000000E-01  1.50000000E+00  8.00000000E-01  8.00000000E-01  1.50000000E+00
  8.00000000E-01  8.00000000E-01  1.50000000E+00  8.00000000E-01  8.00000000E-01
  1.50000000E+00  8.00000000E-01  8.00000000E-01  1.50000000E+00  8.00000000E-01
  8.00000000E-01  1.50000000E+00  8.00000000E-01  8.00000000E-01  1.50000000E+00
  8.00000000E-01  8.00000000E-01  1.50000000E+00  8.00000000E-01  8.00000000E-01
  1.50000000E+00  8.00000000E-01  8.00000000E-01  1.50000000E+00  8.00000000E-01
  8.00000000E-01  1.50000000E+00  8.00000000E-01  8.00000000E-01  1.50000000E+00
  8.00000000E-01  8.00000000E-01  1.50000000E+00  8.00000000E-01  8.00000000E-01
  1.50000000E+00  8.00000000E-01  8.00000000E-01  1.50000000E+00  8.00000000E-01
  8.00000000E-01  1.50000000E+00  8.00000000E-01  8.00000000E-01  1.50000000E+00
  8.00000000E-01  8.00000000E-01  1.50000000E+00  8.00000000E-01  8.00000000E-01
  1.50000000E+00  8.00000000E-01  8.00000000E-01  1.50000000E+00  8.00000000E-01
  8.00000000E-01  1.50000000E+00  8.00000000E-01  8.00000000E-01  1.50000000E+00
  8.00000000E-01  8.00000000E-01  1.50000000E+00  8.00000000E-01  8.00000000E-01
  1.50000000E+00  8.00000000E-01  8.00000000E-01  1.50000000E+00  8.00000000E-01
  8.00000000E-01  1.50000000E+00  8.00000000E-01  8.00000000E-01  1.50000000E+00
  8.00000000E-01  8.00000000E-01  1.50000000E+00  8.00000000E-01  8.00000000E-01
  1.50000000E+00  8.00000000E-01  8.00000000E-01  1.50000000E+00  8.00000000E-01
  8.00000000E-01  1.50000000E+00  8.00000000E-01  8.00000000E-01  1.50000000E+00
  8.00000000E-01  8.00000000E-01  1.50000000E+00  8.00000000E-01  8.00000000E-01
  1.50000000E+00  8.00000000E-01  8.00000000E-01  1.50000000E+00  8.00000000E-01
  8.00000000E-01  1.50000000E+00  8.00000000E-01  8.00000000E-01  1.50000000E+00
  8.00000000E-01  8.00000000E-01  1.50000000E+00  8.00000000E-01  8.00000000E-01
  1.50000000E+00  8.00000000E-01  8.00000000E-01  1.50000000E+00  8.00000000E-01
  8.00000000E-01  1.50000000E+00  8.00000000E-01  8.00000000E-01  1.50000000E+00
  8.00000000E-01  8.00000000E-01  1.50000000E+00  8.00000000E-01  8.00000000E-01
  1.50000000E+00  8.00000000E-01  8.00000000E-01  1.50000000E+00  8.00000000E-01
  8.00000000E-01  1.50000000E+00  8.00000000E-01  8.00000000E-01  1.50000000E+00
  8.00000000E-01  8.00000000E-01  1.50000000E+00  8.00000000E-01  8.00000000E-01
  1.50000000E+00  8.00000000E-01  8.00000000E-01  1.50000000E+00  8.00000000E-01
  8.00000000E-01  1.50000000E+00  8.00000000E-01  8.00000000E-01  1.50000000E+00
  8.00000000E-01  8.00000000E-01  1.50000000E+00  8.00000000E-01  8.00000000E-01
  1.50000000E+00  8.00000000E-01  8.00000000E-01  1.50000000E+00  8.00000000E-01
  8.00000000E-01  1.50000000E+00  8.00000000E-01  8.00000000E-01  1.50000000E+00
  8.00000000E-01  8.00000000E-01  1.50000000E+00  8.00000000E-01  8.00000000E-01
  1.50000000E+00  8.00000000E-01  8.00000000E-01  1.50000000E+00  8.00000000E-01
  8.00000000E-01  1.50000000E+00  8.00000000E-01  8.00000000E-01  1.50000000E+00
  8.00000000E-01  8.00000000E-01  1.50000000E+00  8.00000000E-01  8.00000000E-01
  1.50000000E+00  8.00000000E-01  8.00000000E-01  1.50000000E+00  8.00000000E-01
  8.00000000E-01  1.50000000E+00  8.00000000E-01  8.00000000E-01  1.50000000E+00
  8.00000000E-01  8.00000000E-01  1.50000000E+00  8.00000000E-01  8.00000000E-01
  1.50000000E+00  8.00000000E-01  8.00000000E-01  1.50000000E+00  8.00000000E-01
  8.00000000E-01  1.50000000E+00  8.00000000E-01  8.00000000E-01  1.50000000E+00
  8.00000000E-01  8.00000000E-01  1.50000000E+00  8.00000000E-01  8.00000000E-01
  1.50000000E+00  8.00000000E-01  8.00000000E-01  1.50000000E+00  8.00000000E-01
  8.00000000E-01  1.50000000E+00  8.00000000E-01  8.00000000E-01  1.50000000E+00
  8.00000000E-01  8.00000000E-01  1.50000000E+00  8.00000000E-01  8.00000000E-01
  1.50000000E+00  8.00000000E-01  8.00000000E-01  1.50000000E+00  8.00000000E-01
  8.00000000E-01  1.50000000E+00  8.00000000E-01  8.00000000E-01  1.50000000E+00
  8.00000000E-01  8.00000000E-01  1.50000000E+00  8.00000000E-01  8.00000000E-01
  1.50000000E+00  8.00000000E-01  8.00000000E-01  1.50000000E+00  8.00000000E-01
  8.00000000E-01  1.50000000E+00  8.00000000E-01  8.00000000E-01  1.50000000E+00
  8.00000000E-01  8.00000000E-01  1.50000000E+00  8.00000000E-01  8.00000000E-01
  1.50000000E+00  8.00000000E-01  8.00000000E-01  1.50000000E+00  8.00000000E-01
  8.00000000E-01  1.50000000E+00  8.00000000E-01  8.00000000E-01  1.50000000E+00
  8.00000000E-01  8.00000000E-01  1.50000000E+00  8.00000000E-01  8.00000000E-01
  1.50000000E+00  8.00000000E-01  8.00000000E-01  1.50000000E+00  8.00000000E-01
  8.00000000E-01  1.50000000E+00  8.00000000E-01  8.00000000E-01  1.50000000E+00
  8.00000000E-01  8.00000000E-01  1.50000000E+00  8.00000000E-01  8.00000000E-01
  1.50000000E+00  8.00000000E-01  8.00000000E-01  1.50000000E+00  8.00000000E-01
  8.00000000E-01  1.50000000E+00  8.00000000E-01  8.00000000E-01  1.50000000E+00
  8.00000000E-01  8.00000000E-01  1.50000000E+00  8.00000000E-01  8.00000000E-01
  1.50000000E+00  8.00000000E-01  8.00000000E-01  1.50000000E+00  8.00000000E-01
  8.00000000E-01  1.50000000E+00  8.00000000E-01  8.00000000E-01  1.50000000E+00
  8.00000000E-01  8.00000000E-01  1.50000000E+00  8.00000000E-01  8.00000000E-01
  1.50000000E+00  8.00000000E-01  8.00000000E-01  1.50000000E+00  8.00000000E-01
  8.00000000E-01  1.50000000E+00  8.00000000E-01  8.00000000E-01  1.50000000E+00
  8.00000000E-01  8.00000000E-01  1.50000000E+00  8.00000000E-01  8.00000000E-01
  1.50000000E+00  8.00000000E-01  8.00000000E-01  1.50000000E+00  8.00000000E-01
  8.00000000E-01  1.50000000E+00  8.00000000E-01  8.00000000E-01  1.50000000E+00
  8.00000000E-01  8.00000000E-01  1.50000000E+00  8.00000000E-01  8.00000000E-01
  1.50000000E+00  8.00000000E-01  8.00000000E-01  1.50000000E+00  8.00000000E-01
  8.00000000E-01  1.50000000E+00  8.00000000E-01  8.00000000E-01  1.50000000E+00
  8.00000000E-01  8.00000000E-01  1.50000000E+00  8.00000000E-01  8.00000000E-01
  1.50000000E+00  8.00000000E-01  8.00000000E-01  1.50000000E+00  8.00000000E-01
  8.00000000E-01  1.50000000E+00  8.00000000E-01  8.00000000E-01  1.50000000E+00
  8.00000000E-01  8.00000000E-01  1.50000000E+00  8.00000000E-01  8.00000000E-01
  1.50000000E+00  8.00000000E-01  8.00000000E-01  1.50000000E+00  8.00000000E-01
  8.00000000E-01  1.50000000E+00  8.00000000E-01  8.00000000E-01  1.50000000E+00
  8.00000000E-01  8.00000000E-01  1.50000000E+00  8.00000000E-01  8.00000000E-01
  1.50000000E+00  8.00000000E-01  8.00000000E-01  1.50000000E+00  8.00000000E-01
  8.00000000E-01  1.50000000E+00  8.00000000E-01  8.00000000E-01  1.50000000E+00
  8.00000000E-01  8.00000000E-01  1.50000000E+00  8.00000000E-01  8.00000000E-01
  1.50000000E+00  8.00000000E-01  8.00000000E-01  1.50000000E+00  8.00000000E-01
  8.00000000E-01  1.50000000E+00  8.00000000E-01  8.00000000E-01  1.50000000E+00
  8.00000000E-01  8.00000000E-01  1.50000000E+00  8.00000000E-01  8.00000000E-01
  1.50000000E+00  8.00000000E-01  8.00000000E-01  1.50000000E+00  8.00000000E-01
  8.00000000E-01  1.50000000E+00  8.00000000E-01  8.00000000E-01  1.50000000E+00
  8.00000000E-01  8.00000000E-01  1.50000000E+00  8.00000000E-01  8.00000000E-01
  1.50000000E+00  8.00000000E-01  8.00000000E-01  1.50000000E+00  8.00000000E-01
  8.00000000E-01  1.50000000E+00  8.00000000E-01  8.00000000E-01  1.50000000E+00
  8.00000000E-01  8.00000000E-01  1.50000000E+00  8.00000000E-01  8.00000000E-01
  1.50000000E+00  8.00000000E-01  8.00000000E-01  1.50000000E+00  8.00000000E-01
  8.00000000E-01  1.50000000E+00  8.00000000E-01  8.00000000E-01  1.50000000E+00
  8.00000000E-01  8.00000000E-01  1.50000000E+00  8.00000000E-01  8.00000000E-01
  1.50000000E+00  8.00000000E-01  8.00000000E-01  1.50000000E+00  8.00000000E-01
  8.00000000E-01  1.50000000E+00  8.00000000E-01  8.00000000E-01  1.50000000E+00
  8.00000000E-01  8.00000000E-01  1.50000000E+00  8.00000000E-01  8.00000000E-01
  1.50000000E+00  8.00000000E-01  8.00000000E-01  1.50000000E+00  8.00000000E-01
  8.00000000E-01  1.50000000E+00  8.00000000E-01  8.00000000E-01  1.50000000E+00
  8.00000000E-01  8.00000000E-01  1.50000000E+00  8.00000000E-01  8.00000000E-01
  1.50000000E+00  8.00000000E-01  8.00000000E-01  1.50000000E+00  8.00000000E-01
  8.00000000E-01  1.50000000E+00  8.00000000E-01  8.00000000E-01  1.50000000E+00
  8.00000000E-01  8.00000000E-01  1.50000000E+00  8.00000000E-01  8.00000000E-01
  1.50000000E+00  8.00000000E-01  8.00000000E-01  1.50000000E+00  8.00000000E-01
  8.00000000E-01  1.50000000E+00  8.00000000E-01  8.00000000E-01  1.50000000E+00
  8.00000000E-01  8.00000000E-01  1.50000000E+00  8.00000000E-01  8.00000000E-01
  1.50000000E+00  8.00000000E-01  8.00000000E-01  1.50000000E+00  8.00000000E-01
  8.00000000E-01  1.50000000E+00  8.00000000E-01  8.00000000E-01  1.50000000E+00
  8.00000000E-01  8.00000000E-01  1.50000000E+00  8.00000000E-01  8.00000000E-01
  1.50000000E+00  8.00000000E-01  8.00000000E-01  1.50000000E+00  8.00000000E-01
  8.00000000E-01  1.50000000E+00  8.00000000E-01  8.00000000E-01  1.50000000E+00
  8.00000000E-01  8.00000000E-01  1.50000000E+00  8.00000000E-01  8.00000000E-01
  1.50000000E+00  8.00000000E-01  8.00000000E-01  1.50000000E+00  8.00000000E-01
  8.00000000E-01  1.50000000E+00  8.00000000E-01  8.00000000E-01  1.50000000E+00
  8.00000000E-01  8.00000000E-01  1.50000000E+00  8.00000000E-01  8.00000000E-01
  1.50000000E+00  8.00000000E-01  8.00000000E-01  1.50000000E+00  8.00000000E-01
  8.00000000E-01  1.50000000E+00  8.00000000E-01  8.00000000E-01  1.50000000E+00
  8.00000000E-01  8.00000000E-01  1.50000000E+00  8.00000000E-01  8.00000000E-01
  1.50000000E+00  8.00000000E-01  8.00000000E-01  1.50000000E+00  8.00000000E-01
  8.00000000E-01  1.50000000E+00  8.00000000E-01  8.00000000E-01  1.50000000E+00
  8.00000000E-01  8.00000000E-01  1.50000000E+00  8.00000000E-01  8.00000000E-01
  1.50000000E+00  8.00000000E-01  8.00000000E-01  1.50000000E+00  8.00000000E-01
  8.00000000E-01  1.50000000E+00  8.00000000E-01  8.00000000E-01  1.50000000E+00
  8.00000000E-01  8.00000000E-01  1.50000000E+00  8.00000000E-01  8.00000000E-01
  1.50000000E+00  8.00000000E-01  8.00000000E-01  1.50000000E+00  8.00000000E-01
  8.00000000E-01  1.50000000E+00  8.00000000E-01  8.00000000E-01  1.50000000E+00
  8.00000000E-01  8.00000000E-01  1.50000000E+00  8.00000000E-01  8.00000000E-01
  1.50000000E+00  8.00000000E-01  8.00000000E-01  1.50000000E+00  8.00000000E-01
  8.00000000E-01  1.50000000E+00  8.00000000E-01  8.00000000E-01  1.50000000E+00
  8.00000000E-01  8.00000000E-01  1.50000000E+00  8.00000000E-01  8.00000000E-01
  1.50000000E+00  8.00000000E-01  8.00000000E-01  1.50000000E+00  8.00000000E-01
  8.00000000E-01  1.50000000E+00  8.00000000E-01  8.00000000E-01  1.50000000E+00
  8.00000000E-01  8.00000000E-01  1.50000000E+00  8.00000000E-01  8.00000000E-01
  1.50000000E+00  8.00000000E-01  8.00000000E-01  1.50000000E+00  8.00000000E-01
  8.00000000E-01  1.50000000E+00  8.00000000E-01  8.00000000E-01  1.50000000E+00
  8.00000000E-01  8.00000000E-01  1.50000000E+00  8.00000000E-01  8.00000000E-01
  1.50000000E+00  8.00000000E-01  8.00000000E-01  1.50000000E+00  8.00000000E-01
  8.00000000E-01  1.50000000E+00  8.00000000E-01  8.00000000E-01  1.50000000E+00
  8.00000000E-01  8.00000000E-01  1.50000000E+00  8.00000000E-01  8.00000000E-01
  1.50000000E+00  8.00000000E-01  8.00000000E-01  1.50000000E+00  8.00000000E-01
  8.00000000E-01  1.50000000E+00  8.00000000E-01  8.00000000E-01  1.50000000E+00
  8.00000000E-01  8.00000000E-01  1.50000000E+00  8.00000000E-01  8.00000000E-01
  1.50000000E+00  8.00000000E-01  8.00000000E-01  1.50000000E+00  8.00000000E-01
  8.00000000E-01  1.50000000E+00  8.00000000E-01  8.00000000E-01  1.50000000E+00
  8.00000000E-01  8.00000000E-01  1.50000000E+00  8.00000000E-01  8.00000000E-01
  1.50000000E+00  8.00000000E-01  8.00000000E-01  1.50000000E+00  8.00000000E-01
  8.00000000E-01  1.50000000E+00  8.00000000E-01  8.00000000E-01  1.50000000E+00
  8.00000000E-01  8.00000000E-01  1.50000000E+00  8.00000000E-01  8.00000000E-01
  1.50000000E+00  8.00000000E-01  8.00000000E-01  1.50000000E+00  8.00000000E-01
  8.00000000E-01  1.50000000E+00  8.00000000E-01  8.00000000E-01  1.50000000E+00
  8.00000000E-01  8.00000000E-01  1.50000000E+00  8.00000000E-01  8.00000000E-01
  1.50000000E+00  8.00000000E-01  8.00000000E-01  1.50000000E+00  8.00000000E-01
  8.00000000E-01  1.50000000E+00  8.00000000E-01  8.00000000E-01  1.50000000E+00
  8.00000000E-01  8.00000000E-01  1.50000000E+00  8.00000000E-01  8.00000000E-01
  1.50000000E+00  8.00000000E-01  8.00000000E-01  1.50000000E+00  8.00000000E-01
  8.00000000E-01  1.50000000E+00  8.00000000E-01  8.00000000E-01  1.50000000E+00
  8.00000000E-01  8.00000000E-01  1.50000000E+00  8.00000000E-01  8.00000000E-01
  1.50000000E+00  8.00000000E-01  8.00000000E-01  1.50000000E+00  8.00000000E-01
  8.00000000E-01  1.50000000E+00  8.00000000E-01  8.00000000E-01  1.50000000E+00
  8.00000000E-01  8.00000000E-01  1.50000000E+00  8.00000000E-01  8.00000000E-01
  1.50000000E+00  8.00000000E-01  8.00000000E-01  1.50000000E+00  8.00000000E-01
  8.00000000E-01  1.50000000E+00  8.00000000E-01  8.00000000E-01  1.50000000E+00
  8.00000000E-01  8.00000000E-01  1.50000000E+00  8.00000000E-01  8.00000000E-01
  1.50000000E+00  8.00000000E-01  8.00000000E-01  1.50000000E+00  8.00000000E-01
  8.00000000E-01  1.50000000E+00  8.00000000E-01  8.00000000E-01  1.50000000E+00
  8.00000000E-01  8.00000000E-01  1.50000000E+00  8.00000000E-01  8.00000000E-01
  1.50000000E+00  8.00000000E-01  8.00000000E-01  1.50000000E+00  8.00000000E-01
  8.00000000E-01  1.50000000E+00  8.00000000E-01  8.00000000E-01  1.50000000E+00
  8.00000000E-01  8.00000000E-01  1.50000000E+00  8.00000000E-01  8.00000000E-01
  1.50000000E+00  8.00000000E-01  8.00000000E-01  1.50000000E+00  8.00000000E-01
  8.00000000E-01  1.50000000E+00  8.00000000E-01  8.00000000E-01  1.50000000E+00
  8.00000000E-01  8.00000000E-01  1.50000000E+00  8.00000000E-01  8.00000000E-01
  1.50000000E+00  8.00000000E-01  8.00000000E-01  1.50000000E+00  8.00000000E-01
  8.00000000E-01  1.50000000E+00  8.00000000E-01  8.00000000E-01  1.50000000E+00
  8.00000000E-01  8.00000000E-01  1.50000000E+00  8.00000000E-01  8.00000000E-01
  1.50000000E+00  8.00000000E-01  8.00000000E-01  1.50000000E+00  8.00000000E-01
  8.00000000E-01  1.50000000E+00  8.00000000E-01  8.00000000E-01  1.50000000E+00
  8.00000000E-01  8.00000000E-01  1.50000000E+00  8.00000000E-01  8.00000000E-01
  1.50000000E+00  8.00000000E-01  8.00000000E-01  1.50000000E+00  8.00000000E-01
  8.00000000E-01  1.50000000E+00  8.00000000E-01  8.00000000E-01  1.50000000E+00
  8.00000000E-01  8.00000000E-01  1.50000000E+00  8.00000000E-01  8.00000000E-01
  1.50000000E+00  8.00000000E-01  8.00000000E-01  1.50000000E+00  8.00000000E-01
  8.00000000E-01  1.50000000E+00  8.00000000E-01  8.00000000E-01  1.50000000E+00
  8.00000000E-01  8.00000000E-01  1.50000000E+00  8.00000000E-01  8.00000000E-01
  1.50000000E+00  8.00000000E-01  8.00000000E-01  1.50000000E+00  8.00000000E-01
  8.00000000E-01  1.50000000E+00  8.00000000E-01  8.00000000E-01  1.50000000E+00
  8.00000000E-01  8.00000000E-01  1.50000000E+00  8.00000000E-01  8.00000000E-01
  1.50000000E+00  8.00000000E-01  8.00000000E-01  1.50000000E+00  8.00000000E-01
  8.00000000E-01  1.50000000E+00  8.00000000E-01  8.00000000E-01  1.50000000E+00
  8.00000000E-01  8.00000000E-01  1.50000000E+00  8.00000000E-01  8.00000000E-01
  1.50000000E+00  8.00000000E-01  8.00000000E-01  1.50000000E+00  8.00000000E-01
  8.00000000E-01  1.50000000E+00  8.00000000E-01  8.00000000E-01  1.50000000E+00
  8.00000000E-01  8.00000000E-01  1.50000000E+00  8.00000000E-01  8.00000000E-01
  1.50000000E+00  8.00000000E-01  8.00000000E-01  1.50000000E+00  8.00000000E-01
  8.00000000E-01  1.50000000E+00  8.00000000E-01  8.00000000E-01  1.50000000E+00
  8.00000000E-01  8.00000000E-01  1.50000000E+00  8.00000000E-01  8.00000000E-01
  1.50000000E+00  8.00000000E-01  8.00000000E-01  1.50000000E+00  8.00000000E-01
  8.00000000E-01  1.50000000E+00  8.00000000E-01  8.00000000E-01  1.50000000E+00
  8.00000000E-01  8.00000000E-01  1.50000000E+00  8.00000000E-01  8.00000000E-01
  1.50000000E+00  8.00000000E-01  8.00000000E-01  1.50000000E+00  8.00000000E-01
  8.00000000E-01  1.50000000E+00  8.00000000E-01  8.00000000E-01  1.50000000E+00
  8.00000000E-01  8.00000000E-01  1.50000000E+00  8.00000000E-01  8.00000000E-01
  1.50000000E+00  8.00000000E-01  8.00000000E-01  1.50000000E+00  8.00000000E-01
  8.00000000E-01  1.50000000E+00  8.00000000E-01  8.00000000E-01  1.50000000E+00
  8.00000000E-01  8.00000000E-01  1.50000000E+00  8.00000000E-01  8.00000000E-01
  1.50000000E+00  8.00000000E-01  8.00000000E-01  1.50000000E+00  8.00000000E-01
  8.00000000E-01  1.50000000E+00  8.00000000E-01  8.00000000E-01  1.50000000E+00
  8.00000000E-01  8.00000000E-01  1.50000000E+00  8.00000000E-01  8.00000000E-01
  1.50000000E+00  8.00000000E-01  8.00000000E-01  1.50000000E+00  8.00000000E-01
  8.00000000E-01  1.50000000E+00  8.00000000E-01  8.00000000E-01  1.50000000E+00
  8.00000000E-01  8.00000000E-01  1.50000000E+00  8.00000000E-01  8.00000000E-01
  1.50000000E+00  8.00000000E-01  8.00000000E-01  1.50000000E+00  8.00000000E-01
  8.00000000E-01  1.50000000E+00  8.00000000E-01  8.00000000E-01  1.50000000E+00
  8.00000000E-01  8.00000000E-01  1.50000000E+00  8.00000000E-01  8.00000000E-01
  1.50000000E+00  8.00000000E-01  8.00000000E-01  1.50000000E+00  8.00000000E-01
  8.00000000E-01  1.50000000E+00  8.00000000E-01  8.00000000E-01  1.50000000E+00
  8.00000000E-01  8.00000000E-01  1.50000000E+00  8.00000000E-01  8.00000000E-01
  1.50000000E+00  8.00000000E-01  8.00000000E-01  1.50000000E+00  8.00000000E-01
  8.00000000E-01  1.50000000E+00  8.00000000E-01  8.00000000E-01  1.50000000E+00
  8.00000000E-01  8.00000000E-01  1.50000000E+00  8.00000000E-01  8.00000000E-01
  1.50000000E+00  8.00000000E-01  8.00000000E-01  1.50000000E+00  8.00000000E-01
  8.00000000E-01  1.50000000E+00  8.00000000E-01  8.00000000E-01  1.50000000E+00
  8.00000000E-01  8.00000000E-01  1.50000000E+00  8.00000000E-01  8.00000000E-01
  1.50000000E+00  8.00000000E-01  8.00000000E-01  1.50000000E+00  8.00000000E-01
  8.00000000E-01  1.50000000E+00  8.00000000E-01  8.00000000E-01  1.50000000E+00
  8.00000000E-01  8.00000000E-01  1.50000000E+00  8.00000000E-01  8.00000000E-01
  1.50000000E+00  8.00000000E-01  8.00000000E-01  1.50000000E+00  8.00000000E-01
  8.00000000E-01  1.50000000E+00  8.00000000E-01  8.00000000E-01  1.50000000E+00
  8.00000000E-01  8.00000000E-01  1.50000000E+00  8.00000000E-01  8.00000000E-01
  1.50000000E+00  8.00000000E-01  8.00000000E-01  1.50000000E+00  8.00000000E-01
  8.00000000E-01  1.50000000E+00  8.00000000E-01  8.00000000E-01  1.50000000E+00
  8.00000000E-01  8.00000000E-01  1.50000000E+00  8.00000000E-01  8.00000000E-01
  1.50000000E+00  8.00000000E-01  8.00000000E-01  1.50000000E+00  8.00000000E-01
  8.00000000E-01  1.50000000E+00  8.00000000E-01  8.00000000E-01  1.50000000E+00
  8.00000000E-01  8.00000000E-01  1.50000000E+00  8.00000000E-01  8.00000000E-01
  1.50000000E+00  8.00000000E-01  8.00000000E-01  1.50000000E+00  8.00000000E-01
  8.00000000E-01  1.50000000E+00  8.00000000E-01  8.00000000E-01  1.50000000E+00
  8.00000000E-01  8.00000000E-01  1.50000000E+00  8.00000000E-01  8.00000000E-01
  1.50000000E+00  8.00000000E-01  8.00000000E-01  1.50000000E+00  8.00000000E-01
  8.00000000E-01  1.50000000E+00  8.00000000E-01  8.00000000E-01  1.50000000E+00
  8.00000000E-01  8.00000000E-01  1.50000000E+00  8.00000000E-01  8.00000000E-01
  1.50000000E+00  8.00000000E-01  8.00000000E-01  1.50000000E+00  8.00000000E-01
  8.00000000E-01  1.50000000E+00  8.00000000E-01  8.00000000E-01  1.50000000E+00
  8.00000000E-01  8.00000000E-01  1.50000000E+00  8.00000000E-01  8.00000000E-01
  1.50000000E+00  8.00000000E-01  8.00000000E-01  1.50000000E+00  8.00000000E-01
  8.00000000E-01  1.50000000E+00  8.00000000E-01  8.00000000E-01  1.50000000E+00
  8.00000000E-01  8.00000000E-01  1.50000000E+00  8.00000000E-01  8.00000000E-01
  1.50000000E+00  8.00000000E-01  8.00000000E-01  1.50000000E+00  8.00000000E-01
  8.00000000E-01  1.50000000E+00  8.00000000E-01  8.00000000E-01  1.50000000E+00
  8.00000000E-01  8.00000000E-01  1.50000000E+00  8.00000000E-01  8.00000000E-01
  1.50000000E+00  8.00000000E-01  8.00000000E-01  1.50000000E+00  8.00000000E-01
  8.00000000E-01  1.50000000E+00  8.00000000E-01  8.00000000E-01  1.50000000E+00
  8.00000000E-01  8.00000000E-01  1.50000000E+00  8.00000000E-01  8.00000000E-01
  1.50000000E+00  8.00000000E-01  8.00000000E-01  1.50000000E+00  8.00000000E-01
  8.00000000E-01  1.50000000E+00  8.00000000E-01  8.00000000E-01  1.50000000E+00
  8.00000000E-01  8.00000000E-01  1.50000000E+00  8.00000000E-01  8.00000000E-01
  1.50000000E+00  8.00000000E-01  8.00000000E-01  1.50000000E+00  8.00000000E-01
  8.00000000E-01  1.50000000E+00  8.00000000E-01  8.00000000E-01  1.50000000E+00
  8.00000000E-01  8.00000000E-01  1.50000000E+00  8.00000000E-01  8.00000000E-01
  1.50000000E+00  8.00000000E-01  8.00000000E-01  1.50000000E+00  8.00000000E-01
  8.00000000E-01  1.50000000E+00  8.00000000E-01  8.00000000E-01  1.50000000E+00
  8.00000000E-01  8.00000000E-01  1.50000000E+00  8.00000000E-01  8.00000000E-01
  1.50000000E+00  8.00000000E-01  8.00000000E-01  1.50000000E+00  8.00000000E-01
  8.00000000E-01  1.50000000E+00  8.00000000E-01  8.00000000E-01  1.50000000E+00
  8.00000000E-01  8.00000000E-01  1.50000000E+00  8.00000000E-01  8.00000000E-01
  1.50000000E+00  8.00000000E-01  8.00000000E-01  1.50000000E+00  8.00000000E-01
  8.00000000E-01  1.50000000E+00  8.00000000E-01  8.00000000E-01  1.50000000E+00
  8.00000000E-01  8.00000000E-01  1.50000000E+00  8.00000000E-01  8.00000000E-01
  1.50000000E+00  8.00000000E-01  8.00000000E-01  1.50000000E+00  8.00000000E-01
  8.00000000E-01  1.50000000E+00  8.00000000E-01  8.00000000E-01  1.50000000E+00
  8.00000000E-01  8.00000000E-01  1.50000000E+00  8.00000000E-01  8.00000000E-01
  1.50000000E+00  8.00000000E-01  8.00000000E-01  1.50000000E+00  8.00000000E-01
  8.00000000E-01  1.50000000E+00  8.00000000E-01  8.00000000E-01  1.50000000E+00
  8.00000000E-01  8.00000000E-01  1.50000000E+00  8.00000000E-01  8.00000000E-01
  1.50000000E+00  8.00000000E-01  8.00000000E-01  1.50000000E+00  8.00000000E-01
  8.00000000E-01  1.50000000E+00  8.00000000E-01  8.00000000E-01  1.50000000E+00
  8.00000000E-01  8.00000000E-01  1.50000000E+00  8.00000000E-01  8.00000000E-01
  1.50000000E+00  8.00000000E-01  8.00000000E-01  1.50000000E+00  8.00000000E-01
  8.00000000E-01  1.50000000E+00  8.00000000E-01  8.00000000E-01  1.50000000E+00
  8.00000000E-01  8.00000000E-01  1.50000000E+00  8.00000000E-01  8.00000000E-01
  1.50000000E+00  8.00000000E-01  8.00000000E-01  1.50000000E+00  8.00000000E-01
  8.00000000E-01  1.50000000E+00  8.00000000E-01  8.00000000E-01  1.50000000E+00
  8.00000000E-01  8.00000000E-01  1.50000000E+00  8.00000000E-01  8.00000000E-01
  1.50000000E+00  8.00000000E-01  8.00000000E-01  1.50000000E+00  8.00000000E-01
  8.00000000E-01  1.50000000E+00  8.00000000E-01  8.00000000E-01  1.50000000E+00
  8.00000000E-01  8.00000000E-01  1.50000000E+00  8.00000000E-01  8.00000000E-01
  1.50000000E+00  8.00000000E-01  8.00000000E-01  1.50000000E+00  8.00000000E-01
  8.00000000E-01  1.50000000E+00  8.00000000E-01  8.00000000E-01  1.50000000E+00
  8.00000000E-01  8.00000000E-01  1.50000000E+00  8.00000000E-01  8.00000000E-01
  1.50000000E+00  8.00000000E-01  8.00000000E-01  1.50000000E+00  8.00000000E-01
  8.00000000E-01  1.50000000E+00  8.00000000E-01  8.00000000E-01  1.50000000E+00
  8.00000000E-01  8.00000000E-01  1.50000000E+00  8.00000000E-01  8.00000000E-01
  1.50000000E+00  8.00000000E-01  8.00000000E-01  1.50000000E+00  8.00000000E-01
  8.00000000E-01  1.50000000E+00  8.00000000E-01  8.00000000E-01  1.50000000E+00
  8.00000000E-01  8.00000000E-01  1.50000000E+00  8.00000000E-01  8.00000000E-01
  1.50000000E+00  8.00000000E-01  8.00000000E-01  1.50000000E+00  8.00000000E-01
  8.00000000E-01  1.50000000E+00  8.00000000E-01  8.00000000E-01  1.50000000E+00
  8.00000000E-01  8.00000000E-01  1.50000000E+00  8.00000000E-01  8.00000000E-01
  1.50000000E+00  8.00000000E-01  8.00000000E-01  1.50000000E+00  8.00000000E-01
  8.00000000E-01  1.50000000E+00  8.00000000E-01  8.00000000E-01  1.50000000E+00
  8.00000000E-01  8.00000000E-01  1.50000000E+00  8.00000000E-01  8.00000000E-01
  1.50000000E+00  8.00000000E-01  8.00000000E-01  1.50000000E+00  8.00000000E-01
  8.00000000E-01  1.50000000E+00  8.00000000E-01  8.00000000E-01  1.50000000E+00
  8.00000000E-01  8.00000000E-01  1.50000000E+00  8.00000000E-01  8.00000000E-01
  1.50000000E+00  8.00000000E-01  8.00000000E-01  1.50000000E+00  8.00000000E-01
  8.00000000E-01  1.50000000E+00  8.00000000E-01  8.00000000E-01  1.50000000E+00
  8.00000000E-01  8.00000000E-01  1.50000000E+00  8.00000000E-01  8.00000000E-01
  1.50000000E+00  8.00000000E-01  8.00000000E-01  1.50000000E+00  8.00000000E-01
  8.00000000E-01  1.50000000E+00  8.00000000E-01  8.00000000E-01  1.50000000E+00
  8.00000000E-01  8.00000000E-01  1.50000000E+00  8.00000000E-01  8.00000000E-01
  1.50000000E+00  8.00000000E-01  8.00000000E-01  1.50000000E+00  8.00000000E-01
  8.00000000E-01  1.50000000E+00  8.00000000E-01  8.00000000E-01  1.50000000E+00
  8.00000000E-01  8.00000000E-01  1.50000000E+00  8.00000000E-01  8.00000000E-01
  1.50000000E+00  8.00000000E-01  8.00000000E-01  1.50000000E+00  8.00000000E-01
  8.00000000E-01  1.50000000E+00  8.00000000E-01  8.00000000E-01  1.50000000E+00
  8.00000000E-01  8.00000000E-01  1.50000000E+00  8.00000000E-01  8.00000000E-01
  1.50000000E+00  8.00000000E-01  8.00000000E-01  1.50000000E+00  8.00000000E-01
  8.00000000E-01  1.50000000E+00  8.00000000E-01  8.00000000E-01  1.50000000E+00
  8.00000000E-01  8.00000000E-01  1.50000000E+00  8.00000000E-01  8.00000000E-01
  1.50000000E+00  8.00000000E-01  8.00000000E-01  1.50000000E+00  8.00000000E-01
  8.00000000E-01  1.50000000E+00  8.00000000E-01  8.00000000E-01  1.50000000E+00
  8.00000000E-01  8.00000000E-01  1.50000000E+00  8.00000000E-01  8.00000000E-01
  1.50000000E+00  8.00000000E-01  8.00000000E-01  1.50000000E+00  8.00000000E-01
  8.00000000E-01  1.50000000E+00  8.00000000E-01  8.00000000E-01  1.50000000E+00
  8.00000000E-01  8.00000000E-01  1.50000000E+00  8.00000000E-01  8.00000000E-01
  1.50000000E+00  8.00000000E-01  8.00000000E-01  1.50000000E+00  8.00000000E-01
  8.00000000E-01  1.50000000E+00  8.00000000E-01  8.00000000E-01  1.50000000E+00
  8.00000000E-01  8.00000000E-01  1.50000000E+00  8.00000000E-01  8.00000000E-01
  1.50000000E+00  8.00000000E-01  8.00000000E-01  1.50000000E+00  8.00000000E-01
  8.00000000E-01  1.50000000E+00  8.00000000E-01  8.00000000E-01  1.50000000E+00
  8.00000000E-01  8.00000000E-01  1.50000000E+00  8.00000000E-01  8.00000000E-01
  1.50000000E+00  8.00000000E-01  8.00000000E-01  1.50000000E+00  8.00000000E-01
  8.00000000E-01  1.50000000E+00  8.00000000E-01  8.00000000E-01  1.50000000E+00
  8.00000000E-01  8.00000000E-01  1.50000000E+00  8.00000000E-01  8.00000000E-01
  1.50000000E+00  8.00000000E-01  8.00000000E-01  1.50000000E+00  8.00000000E-01
  8.00000000E-01  1.50000000E+00  8.00000000E-01  8.00000000E-01  1.50000000E+00
  8.00000000E-01  8.00000000E-01  1.50000000E+00  8.00000000E-01  8.00000000E-01
  1.50000000E+00  8.00000000E-01  8.00000000E-01  1.50000000E+00  8.00000000E-01
  8.00000000E-01  1.50000000E+00  8.00000000E-01  8.00000000E-01  1.50000000E+00
  8.00000000E-01  8.00000000E-01  1.50000000E+00  8.00000000E-01  8.00000000E-01
  1.50000000E+00  8.00000000E-01  8.00000000E-01  1.50000000E+00  8.00000000E-01
  8.00000000E-01  1.50000000E+00  8.00000000E-01  8.00000000E-01  1.50000000E+00
  8.00000000E-01  8.00000000E-01  1.50000000E+00  8.00000000E-01  8.00000000E-01
  1.50000000E+00  8.00000000E-01  8.00000000E-01  1.50000000E+00  8.00000000E-01
  8.00000000E-01  1.50000000E+00  8.00000000E-01  8.00000000E-01  1.50000000E+00
  8.00000000E-01  8.00000000E-01  1.50000000E+00  8.00000000E-01  8.00000000E-01
  1.50000000E+00  8.00000000E-01  8.00000000E-01  1.50000000E+00  8.00000000E-01
  8.00000000E-01  1.50000000E+00  8.00000000E-01  8.00000000E-01  1.50000000E+00
  8.00000000E-01  8.00000000E-01  1.50000000E+00  8.00000000E-01  8.00000000E-01
  1.50000000E+00  8.00000000E-01  8.00000000E-01  1.50000000E+00  8.00000000E-01
  8.00000000E-01  1.50000000E+00  8.00000000E-01  8.00000000E-01  1.50000000E+00
  8.00000000E-01  8.00000000E-01  1.50000000E+00  8.00000000E-01  8.00000000E-01
  1.50000000E+00  8.00000000E-01  8.00000000E-01  1.50000000E+00  8.00000000E-01
  8.00000000E-01  1.50000000E+00  8.00000000E-01  8.00000000E-01  1.50000000E+00
  8.00000000E-01  8.00000000E-01  1.50000000E+00  8.00000000E-01  8.00000000E-01
  1.50000000E+00  8.00000000E-01  8.00000000E-01  1.50000000E+00  8.00000000E-01
  8.00000000E-01  1.50000000E+00  8.00000000E-01  8.00000000E-01  1.50000000E+00
  8.00000000E-01  8.00000000E-01  1.50000000E+00  8.00000000E-01  8.00000000E-01
  1.50000000E+00  8.00000000E-01  8.00000000E-01  1.50000000E+00  8.00000000E-01
  8.00000000E-01  1.50000000E+00  8.00000000E-01  8.00000000E-01  1.50000000E+00
  8.00000000E-01  8.00000000E-01  1.50000000E+00  8.00000000E-01  8.00000000E-01
  1.50000000E+00  8.00000000E-01  8.00000000E-01  1.50000000E+00  8.00000000E-01
  8.00000000E-01  1.50000000E+00  8.00000000E-01  8.00000000E-01  1.50000000E+00
  8.00000000E-01  8.00000000E-01  1.50000000E+00  8.00000000E-01  8.00000000E-01
  1.50000000E+00  8.00000000E-01  8.00000000E-01  1.50000000E+00  8.00000000E-01
  8.00000000E-01  1.50000000E+00  8.00000000E-01  8.00000000E-01  1.50000000E+00
  8.00000000E-01  8.00000000E-01  1.50000000E+00  8.00000000E-01  8.00000000E-01
  1.50000000E+00  8.00000000E-01  8.00000000E-01  1.50000000E+00  8.00000000E-01
  8.00000000E-01  1.50000000E+00  8.00000000E-01  8.00000000E-01  1.50000000E+00
  8.00000000E-01  8.00000000E-01  1.50000000E+00  8.00000000E-01  8.00000000E-01
  1.50000000E+00  8.00000000E-01  8.00000000E-01  1.50000000E+00  8.00000000E-01
  8.00000000E-01  1.50000000E+00  8.00000000E-01  8.00000000E-01  1.50000000E+00
  8.00000000E-01  8.00000000E-01  1.50000000E+00  8.00000000E-01  8.00000000E-01
  1.50000000E+00  8.00000000E-01  8.00000000E-01  1.50000000E+00  8.00000000E-01
  8.00000000E-01  1.50000000E+00  8.00000000E-01  8.00000000E-01  1.50000000E+00
  8.00000000E-01  8.00000000E-01  1.50000000E+00  8.00000000E-01  8.00000000E-01
  1.50000000E+00  8.00000000E-01  8.00000000E-01  1.50000000E+00  8.00000000E-01
  8.00000000E-01  1.50000000E+00  8.00000000E-01  8.00000000E-01  1.50000000E+00
  8.00000000E-01  8.00000000E-01  1.50000000E+00  8.00000000E-01  8.00000000E-01
  1.50000000E+00  8.00000000E-01  8.00000000E-01  1.50000000E+00  8.00000000E-01
  8.00000000E-01  1.50000000E+00  8.00000000E-01  8.00000000E-01  1.50000000E+00
  8.00000000E-01  8.00000000E-01  1.50000000E+00  8.00000000E-01  8.00000000E-01
  1.50000000E+00  8.00000000E-01  8.00000000E-01  1.50000000E+00  8.00000000E-01
  8.00000000E-01  1.50000000E+00  8.00000000E-01  8.00000000E-01  1.50000000E+00
  8.00000000E-01  8.00000000E-01  1.50000000E+00  8.00000000E-01  8.00000000E-01
  1.50000000E+00  8.00000000E-01  8.00000000E-01  1.50000000E+00  8.00000000E-01
  8.00000000E-01  1.50000000E+00  8.00000000E-01  8.00000000E-01  1.50000000E+00
  8.00000000E-01  8.00000000E-01  1.50000000E+00  8.00000000E-01  8.00000000E-01
  1.50000000E+00  8.00000000E-01  8.00000000E-01  1.50000000E+00  8.00000000E-01
  8.00000000E-01  1.50000000E+00  8.00000000E-01  8.00000000E-01  1.50000000E+00
  8.00000000E-01  8.00000000E-01  1.50000000E+00  8.00000000E-01  8.00000000E-01
  1.50000000E+00  8.00000000E-01  8.00000000E-01  1.50000000E+00  8.00000000E-01
  8.00000000E-01  1.50000000E+00  8.00000000E-01  8.00000000E-01  1.50000000E+00
  8.00000000E-01  8.00000000E-01  1.50000000E+00  8.00000000E-01  8.00000000E-01
  1.50000000E+00  8.00000000E-01  8.00000000E-01  1.50000000E+00  8.00000000E-01
  8.00000000E-01  1.50000000E+00  8.00000000E-01  8.00000000E-01  1.50000000E+00
  8.00000000E-01  8.00000000E-01  1.50000000E+00  8.00000000E-01  8.00000000E-01
  1.50000000E+00  8.00000000E-01  8.00000000E-01  1.50000000E+00  8.00000000E-01
  8.00000000E-01  1.50000000E+00  8.00000000E-01  8.00000000E-01  1.50000000E+00
  8.00000000E-01  8.00000000E-01  1.50000000E+00  8.00000000E-01  8.00000000E-01
  1.50000000E+00  8.00000000E-01  8.00000000E-01  1.50000000E+00  8.00000000E-01
  8.00000000E-01  1.50000000E+00  8.00000000E-01  8.00000000E-01  1.50000000E+00
  8.00000000E-01  8.00000000E-01  1.50000000E+00  8.00000000E-01  8.00000000E-01
  1.50000000E+00  8.00000000E-01  8.00000000E-01  1.50000000E+00  8.00000000E-01
  8.00000000E-01  1.50000000E+00  8.00000000E-01  8.00000000E-01  1.50000000E+00
  8.00000000E-01  8.00000000E-01  1.50000000E+00  8.00000000E-01  8.00000000E-01
  1.50000000E+00  8.00000000E-01  8.00000000E-01  1.50000000E+00  8.00000000E-01
  8.00000000E-01  1.50000000E+00  8.00000000E-01  8.00000000E-01  1.50000000E+00
  8.00000000E-01  8.00000000E-01  1.50000000E+00  8.00000000E-01  8.00000000E-01
  1.50000000E+00  8.00000000E-01  8.00000000E-01  1.50000000E+00  8.00000000E-01
  8.00000000E-01  1.50000000E+00  8.00000000E-01  8.00000000E-01  1.50000000E+00
  8.00000000E-01  8.00000000E-01  1.50000000E+00  8.00000000E-01  8.00000000E-01
  1.50000000E+00  8.00000000E-01  8.00000000E-01  1.50000000E+00  8.00000000E-01
  8.00000000E-01  1.50000000E+00  8.00000000E-01  8.00000000E-01  1.50000000E+00
  8.00000000E-01  8.00000000E-01  1.50000000E+00  8.00000000E-01  8.00000000E-01
  1.50000000E+00  8.00000000E-01  8.00000000E-01  1.50000000E+00  8.00000000E-01
  8.00000000E-01  1.50000000E+00  8.00000000E-01  8.00000000E-01  1.50000000E+00
  8.00000000E-01  8.00000000E-01  1.50000000E+00  8.00000000E-01  8.00000000E-01
  1.50000000E+00  8.00000000E-01  8.00000000E-01  1.50000000E+00  8.00000000E-01
  8.00000000E-01  1.50000000E+00  8.00000000E-01  8.00000000E-01  1.50000000E+00
  8.00000000E-01  8.00000000E-01  1.50000000E+00  8.00000000E-01  8.00000000E-01
  1.50000000E+00  8.00000000E-01  8.00000000E-01  1.50000000E+00  8.00000000E-01
  8.00000000E-01  1.50000000E+00  8.00000000E-01  8.00000000E-01  1.50000000E+00
  8.00000000E-01  8.00000000E-01  1.50000000E+00  8.00000000E-01  8.00000000E-01
  1.50000000E+00  8.00000000E-01  8.00000000E-01  1.50000000E+00  8.00000000E-01
  8.00000000E-01  1.50000000E+00  8.00000000E-01  8.00000000E-01  1.50000000E+00
  8.00000000E-01  8.00000000E-01  1.50000000E+00  8.00000000E-01  8.00000000E-01
  1.50000000E+00  8.00000000E-01  8.00000000E-01  1.50000000E+00  8.00000000E-01
  8.00000000E-01  1.50000000E+00  8.00000000E-01  8.00000000E-01  1.50000000E+00
  8.00000000E-01  8.00000000E-01  1.50000000E+00  8.00000000E-01  8.00000000E-01
  1.50000000E+00  8.00000000E-01  8.00000000E-01  1.50000000E+00  8.00000000E-01
  8.00000000E-01  1.50000000E+00  8.00000000E-01  8.00000000E-01  1.50000000E+00
  8.00000000E-01  8.00000000E-01  1.50000000E+00  8.00000000E-01  8.00000000E-01
  1.50000000E+00  8.00000000E-01  8.00000000E-01  1.50000000E+00  8.00000000E-01
  8.00000000E-01  1.50000000E+00  8.00000000E-01  8.00000000E-01  1.50000000E+00
  8.00000000E-01  8.00000000E-01  1.50000000E+00  8.00000000E-01  8.00000000E-01
  1.50000000E+00  8.00000000E-01  8.00000000E-01  1.50000000E+00  8.00000000E-01
  8.00000000E-01  1.50000000E+00  8.00000000E-01  8.00000000E-01  1.50000000E+00
  8.00000000E-01  8.00000000E-01  1.50000000E+00  8.00000000E-01  8.00000000E-01
  1.50000000E+00  8.00000000E-01  8.00000000E-01  1.50000000E+00  8.00000000E-01
  8.00000000E-01  1.50000000E+00  8.00000000E-01  8.00000000E-01  1.50000000E+00
  8.00000000E-01  8.00000000E-01  1.50000000E+00  8.00000000E-01  8.00000000E-01
  1.50000000E+00  8.00000000E-01  8.00000000E-01  1.50000000E+00  8.00000000E-01
  8.00000000E-01  1.50000000E+00  8.00000000E-01  8.00000000E-01  1.50000000E+00
  8.00000000E-01  8.00000000E-01  1.50000000E+00  8.00000000E-01  8.00000000E-01
  1.50000000E+00  8.00000000E-01  8.00000000E-01  1.50000000E+00  8.00000000E-01
  8.00000000E-01  1.50000000E+00  8.00000000E-01  8.00000000E-01  1.50000000E+00
  8.00000000E-01  8.00000000E-01  1.50000000E+00  8.00000000E-01  8.00000000E-01
  1.50000000E+00  8.00000000E-01  8.00000000E-01  1.50000000E+00  8.00000000E-01
  8.00000000E-01  1.50000000E+00  8.00000000E-01  8.00000000E-01  1.50000000E+00
  8.00000000E-01  8.00000000E-01  1.50000000E+00  8.00000000E-01  8.00000000E-01
  1.50000000E+00  8.00000000E-01  8.00000000E-01  1.50000000E+00  8.00000000E-01
  8.00000000E-01  1.50000000E+00  8.00000000E-01  8.00000000E-01  1.50000000E+00
  8.00000000E-01  8.00000000E-01  1.50000000E+00  8.00000000E-01  8.00000000E-01
  1.50000000E+00  8.00000000E-01  8.00000000E-01  1.50000000E+00  8.00000000E-01
  8.00000000E-01  1.50000000E+00  8.00000000E-01  8.00000000E-01  1.50000000E+00
  8.00000000E-01  8.00000000E-01  1.50000000E+00  8.00000000E-01  8.00000000E-01
  1.50000000E+00  8.00000000E-01  8.00000000E-01  1.50000000E+00  8.00000000E-01
  8.00000000E-01  1.50000000E+00  8.00000000E-01  8.00000000E-01  1.50000000E+00
  8.00000000E-01  8.00000000E-01  1.50000000E+00  8.00000000E-01  8.00000000E-01
  1.50000000E+00  8.00000000E-01  8.00000000E-01  1.50000000E+00  8.00000000E-01
  8.00000000E-01  1.50000000E+00  8.00000000E-01  8.00000000E-01  1.50000000E+00
  8.00000000E-01  8.00000000E-01  1.50000000E+00  8.00000000E-01  8.00000000E-01
  1.50000000E+00  8.00000000E-01  8.00000000E-01  1.50000000E+00  8.00000000E-01
  8.00000000E-01  1.50000000E+00  8.00000000E-01  8.00000000E-01  1.50000000E+00
  8.00000000E-01  8.00000000E-01  1.50000000E+00  8.00000000E-01  8.00000000E-01
  1.50000000E+00  8.00000000E-01  8.00000000E-01  1.50000000E+00  8.00000000E-01
  8.00000000E-01  1.50000000E+00  8.00000000E-01  8.00000000E-01  1.50000000E+00
  8.00000000E-01  8.00000000E-01  1.50000000E+00  8.00000000E-01  8.00000000E-01
  1.50000000E+00  8.00000000E-01  8.00000000E-01  1.50000000E+00  8.00000000E-01
  8.00000000E-01  1.50000000E+00  8.00000000E-01  8.00000000E-01  1.50000000E+00
  8.00000000E-01  8.00000000E-01  1.50000000E+00  8.00000000E-01  8.00000000E-01
  1.50000000E+00  8.00000000E-01  8.00000000E-01  1.50000000E+00  8.00000000E-01
  8.00000000E-01  1.50000000E+00  8.00000000E-01  8.00000000E-01  1.50000000E+00
  8.00000000E-01  8.00000000E-01  1.50000000E+00  8.00000000E-01  8.00000000E-01
  1.50000000E+00  8.00000000E-01  8.00000000E-01  1.50000000E+00  8.00000000E-01
  8.00000000E-01  1.50000000E+00  8.00000000E-01  8.00000000E-01  1.50000000E+00
  8.00000000E-01  8.00000000E-01  1.50000000E+00  8.00000000E-01  8.00000000E-01
  1.50000000E+00  8.00000000E-01  8.00000000E-01  1.50000000E+00  8.00000000E-01
  8.00000000E-01  1.50000000E+00  8.00000000E-01  8.00000000E-01  1.50000000E+00
  8.00000000E-01  8.00000000E-01  1.50000000E+00  8.00000000E-01  8.00000000E-01
  1.50000000E+00  8.00000000E-01  8.00000000E-01  1.50000000E+00  8.00000000E-01
  8.00000000E-01  1.50000000E+00  8.00000000E-01  8.00000000E-01  1.50000000E+00
  8.00000000E-01  8.00000000E-01  1.50000000E+00  8.00000000E-01  8.00000000E-01
  1.50000000E+00  8.00000000E-01  8.00000000E-01  1.50000000E+00  8.00000000E-01
  8.00000000E-01  1.50000000E+00  8.00000000E-01  8.00000000E-01  1.50000000E+00
  8.00000000E-01  8.00000000E-01  1.50000000E+00  8.00000000E-01  8.00000000E-01
  1.50000000E+00  8.00000000E-01  8.00000000E-01  1.50000000E+00  8.00000000E-01
  8.00000000E-01  1.50000000E+00  8.00000000E-01  8.00000000E-01  1.50000000E+00
  8.00000000E-01  8.00000000E-01  1.50000000E+00  8.00000000E-01  8.00000000E-01
  1.50000000E+00  8.00000000E-01  8.00000000E-01  1.50000000E+00  8.00000000E-01
  8.00000000E-01  1.50000000E+00  8.00000000E-01  8.00000000E-01  1.50000000E+00
  8.00000000E-01  8.00000000E-01  1.50000000E+00  8.00000000E-01  8.00000000E-01
  1.50000000E+00  8.00000000E-01  8.00000000E-01  1.50000000E+00  8.00000000E-01
  8.00000000E-01  1.50000000E+00  8.00000000E-01  8.00000000E-01  1.50000000E+00
  8.00000000E-01  8.00000000E-01  1.50000000E+00  8.00000000E-01  8.00000000E-01
  1.50000000E+00  8.00000000E-01  8.00000000E-01  1.50000000E+00  8.00000000E-01
  8.00000000E-01  1.50000000E+00  8.00000000E-01  8.00000000E-01  1.50000000E+00
  8.00000000E-01  8.00000000E-01  1.50000000E+00  8.00000000E-01  8.00000000E-01
  1.50000000E+00  8.00000000E-01  8.00000000E-01  1.50000000E+00  8.00000000E-01
  8.00000000E-01  1.50000000E+00  8.00000000E-01  8.00000000E-01  1.50000000E+00
  8.00000000E-01  8.00000000E-01  1.50000000E+00  8.00000000E-01  8.00000000E-01
  1.50000000E+00  8.00000000E-01  8.00000000E-01  1.50000000E+00  8.00000000E-01
  8.00000000E-01  1.50000000E+00  8.00000000E-01  8.00000000E-01  1.50000000E+00
  8.00000000E-01  8.00000000E-01  1.50000000E+00  8.00000000E-01  8.00000000E-01
  1.50000000E+00  8.00000000E-01  8.00000000E-01  1.50000000E+00  8.00000000E-01
  8.00000000E-01  1.50000000E+00  8.00000000E-01  8.00000000E-01  1.50000000E+00
  8.00000000E-01  8.00000000E-01  1.50000000E+00  8.00000000E-01  8.00000000E-01
  1.50000000E+00  8.00000000E-01  8.00000000E-01  1.50000000E+00  8.00000000E-01
  8.00000000E-01  1.50000000E+00  8.00000000E-01  8.00000000E-01  1.50000000E+00
  8.00000000E-01  8.00000000E-01  1.50000000E+00  8.00000000E-01  8.00000000E-01
  1.50000000E+00  8.00000000E-01  8.00000000E-01  1.50000000E+00  8.00000000E-01
  8.00000000E-01  1.50000000E+00  8.00000000E-01  8.00000000E-01  1.50000000E+00
  8.00000000E-01  8.00000000E-01  1.50000000E+00  8.00000000E-01  8.00000000E-01
  1.50000000E+00  8.00000000E-01  8.00000000E-01  1.50000000E+00  8.00000000E-01
  8.00000000E-01  1.50000000E+00  8.00000000E-01  8.00000000E-01  1.50000000E+00
  8.00000000E-01  8.00000000E-01  1.50000000E+00  8.00000000E-01  8.00000000E-01
  1.50000000E+00  8.00000000E-01  8.00000000E-01  1.50000000E+00  8.00000000E-01
  8.00000000E-01  1.50000000E+00  8.00000000E-01  8.00000000E-01  1.50000000E+00
  8.00000000E-01  8.00000000E-01  1.50000000E+00  8.00000000E-01  8.00000000E-01
  1.50000000E+00  8.00000000E-01  8.00000000E-01  1.50000000E+00  8.00000000E-01
  8.00000000E-01  1.50000000E+00  8.00000000E-01  8.00000000E-01  1.50000000E+00
  8.00000000E-01  8.00000000E-01  1.50000000E+00  8.00000000E-01  8.00000000E-01
  1.50000000E+00  8.00000000E-01  8.00000000E-01  1.50000000E+00  8.00000000E-01
  8.00000000E-01  1.50000000E+00  8.00000000E-01  8.00000000E-01  1.50000000E+00
  8.00000000E-01  8.00000000E-01  1.50000000E+00  8.00000000E-01  8.00000000E-01
  1.50000000E+00  8.00000000E-01  8.00000000E-01  1.50000000E+00  8.00000000E-01
  8.00000000E-01  1.50000000E+00  8.00000000E-01  8.00000000E-01  1.50000000E+00
  8.00000000E-01  8.00000000E-01  1.50000000E+00  8.00000000E-01  8.00000000E-01
  1.50000000E+00  8.00000000E-01  8.00000000E-01  1.50000000E+00  8.00000000E-01
  8.00000000E-01  1.50000000E+00  8.00000000E-01  8.00000000E-01  1.50000000E+00
  8.00000000E-01  8.00000000E-01  1.50000000E+00  8.00000000E-01  8.00000000E-01
  1.50000000E+00  8.00000000E-01  8.00000000E-01  1.50000000E+00  8.00000000E-01
  8.00000000E-01  1.50000000E+00  8.00000000E-01  8.00000000E-01  1.50000000E+00
  8.00000000E-01  8.00000000E-01  1.50000000E+00  8.00000000E-01  8.00000000E-01
  1.50000000E+00  8.00000000E-01  8.00000000E-01  1.50000000E+00  8.00000000E-01
  8.00000000E-01  1.50000000E+00  8.00000000E-01  8.00000000E-01  1.50000000E+00
  8.00000000E-01  8.00000000E-01  1.50000000E+00  8.00000000E-01  8.00000000E-01
  1.50000000E+00  8.00000000E-01  8.00000000E-01  1.50000000E+00  8.00000000E-01
  8.00000000E-01  1.50000000E+00  8.00000000E-01  8.00000000E-01  1.50000000E+00
  8.00000000E-01  8.00000000E-01  1.50000000E+00  8.00000000E-01  8.00000000E-01
  1.50000000E+00  8.00000000E-01  8.00000000E-01  1.50000000E+00  8.00000000E-01
  8.00000000E-01  1.50000000E+00  8.00000000E-01  8.00000000E-01  1.50000000E+00
  8.00000000E-01  8.00000000E-01  1.50000000E+00  8.00000000E-01  8.00000000E-01
  1.50000000E+00  8.00000000E-01  8.00000000E-01  1.50000000E+00  8.00000000E-01
  8.00000000E-01  1.50000000E+00  8.00000000E-01  8.00000000E-01  1.50000000E+00
  8.00000000E-01  8.00000000E-01  1.50000000E+00  8.00000000E-01  8.00000000E-01
  1.50000000E+00  8.00000000E-01  8.00000000E-01  1.50000000E+00  8.00000000E-01
  8.00000000E-01  1.50000000E+00  8.00000000E-01  8.00000000E-01  1.50000000E+00
  8.00000000E-01  8.00000000E-01  1.50000000E+00  8.00000000E-01  8.00000000E-01
  1.50000000E+00  8.00000000E-01  8.00000000E-01  1.50000000E+00  8.00000000E-01
  8.00000000E-01  1.50000000E+00  8.00000000E-01  8.00000000E-01  1.50000000E+00
  8.00000000E-01  8.00000000E-01  1.50000000E+00  8.00000000E-01  8.00000000E-01
  1.50000000E+00  8.00000000E-01  8.00000000E-01  1.50000000E+00  8.00000000E-01
  8.00000000E-01  1.50000000E+00  8.00000000E-01  8.00000000E-01  1.50000000E+00
  8.00000000E-01  8.00000000E-01  1.50000000E+00  8.00000000E-01  8.00000000E-01
  1.50000000E+00  8.00000000E-01  8.00000000E-01  1.50000000E+00  8.00000000E-01
  8.00000000E-01  1.50000000E+00  8.00000000E-01  8.00000000E-01  1.50000000E+00
  8.00000000E-01  8.00000000E-01  1.50000000E+00  8.00000000E-01  8.00000000E-01
  1.50000000E+00  8.00000000E-01  8.00000000E-01  1.50000000E+00  8.00000000E-01
  8.00000000E-01  1.50000000E+00  8.00000000E-01  8.00000000E-01  1.50000000E+00
  8.00000000E-01  8.00000000E-01  1.50000000E+00  8.00000000E-01  8.00000000E-01
  1.50000000E+00  8.00000000E-01  8.00000000E-01  1.50000000E+00  8.00000000E-01
  8.00000000E-01  1.50000000E+00  8.00000000E-01  8.00000000E-01  1.50000000E+00
  8.00000000E-01  8.00000000E-01  1.50000000E+00  8.00000000E-01  8.00000000E-01
  1.50000000E+00  8.00000000E-01  8.00000000E-01  1.50000000E+00  8.00000000E-01
  8.00000000E-01  1.50000000E+00  8.00000000E-01  8.00000000E-01  1.50000000E+00
  8.00000000E-01  8.00000000E-01  1.50000000E+00  8.00000000E-01  8.00000000E-01
  1.50000000E+00  8.00000000E-01  8.00000000E-01  1.50000000E+00  8.00000000E-01
  8.00000000E-01  1.50000000E+00  8.00000000E-01  8.00000000E-01  1.50000000E+00
  8.00000000E-01  8.00000000E-01  1.50000000E+00  8.00000000E-01  8.00000000E-01
  1.50000000E+00  8.00000000E-01  8.00000000E-01  1.50000000E+00  8.00000000E-01
  8.00000000E-01  1.50000000E+00  8.00000000E-01  8.00000000E-01  1.50000000E+00
  8.00000000E-01  8.00000000E-01  1.50000000E+00  8.00000000E-01  8.00000000E-01
  1.50000000E+00  8.00000000E-01  8.00000000E-01  1.50000000E+00  8.00000000E-01
  8.00000000E-01  1.50000000E+00  8.00000000E-01  8.00000000E-01  1.50000000E+00
  8.00000000E-01  8.00000000E-01  1.50000000E+00  8.00000000E-01  8.00000000E-01
  1.50000000E+00  8.00000000E-01  8.00000000E-01  1.50000000E+00  8.00000000E-01
  8.00000000E-01  1.50000000E+00  8.00000000E-01  8.00000000E-01  1.50000000E+00
  8.00000000E-01  8.00000000E-01  1.50000000E+00  8.00000000E-01  8.00000000E-01
  1.50000000E+00  8.00000000E-01  8.00000000E-01  1.50000000E+00  8.00000000E-01
  8.00000000E-01  1.50000000E+00  8.00000000E-01  8.00000000E-01  1.50000000E+00
  8.00000000E-01  8.00000000E-01  1.50000000E+00  8.00000000E-01  8.00000000E-01
  1.50000000E+00  8.00000000E-01  8.00000000E-01  1.50000000E+00  8.00000000E-01
  8.00000000E-01  1.50000000E+00  8.00000000E-01  8.00000000E-01  1.50000000E+00
  8.00000000E-01  8.00000000E-01  1.50000000E+00  8.00000000E-01  8.00000000E-01
  1.50000000E+00  8.00000000E-01  8.00000000E-01  1.50000000E+00  8.00000000E-01
  8.00000000E-01  1.50000000E+00  8.00000000E-01  8.00000000E-01  1.50000000E+00
  8.00000000E-01  8.00000000E-01  1.50000000E+00  8.00000000E-01  8.00000000E-01
  1.50000000E+00  8.00000000E-01  8.00000000E-01  1.50000000E+00  8.00000000E-01
  8.00000000E-01  1.50000000E+00  8.00000000E-01  8.00000000E-01  1.50000000E+00
  8.00000000E-01  8.00000000E-01  1.50000000E+00  8.00000000E-01  8.00000000E-01
  1.50000000E+00  8.00000000E-01  8.00000000E-01  1.50000000E+00  8.00000000E-01
  8.00000000E-01  1.50000000E+00  8.00000000E-01  8.00000000E-01  1.50000000E+00
  8.00000000E-01  8.00000000E-01  1.50000000E+00  8.00000000E-01  8.00000000E-01
  1.50000000E+00  8.00000000E-01  8.00000000E-01  1.50000000E+00  8.00000000E-01
  8.00000000E-01  1.50000000E+00  8.00000000E-01  8.00000000E-01  1.50000000E+00
  8.00000000E-01  8.00000000E-01  1.50000000E+00  8.00000000E-01  8.00000000E-01
  1.50000000E+00  8.00000000E-01  8.00000000E-01  1.50000000E+00  8.00000000E-01
  8.00000000E-01  1.50000000E+00  8.00000000E-01  8.00000000E-01  1.50000000E+00
  8.00000000E-01  8.00000000E-01  1.50000000E+00  8.00000000E-01  8.00000000E-01
  1.50000000E+00  8.00000000E-01  8.00000000E-01  1.50000000E+00  8.00000000E-01
  8.00000000E-01  1.50000000E+00  8.00000000E-01  8.00000000E-01  1.50000000E+00
  8.00000000E-01  8.00000000E-01  1.50000000E+00  8.00000000E-01  8.00000000E-01
  1.50000000E+00  8.00000000E-01  8.00000000E-01  1.50000000E+00  8.00000000E-01
  8.00000000E-01  1.50000000E+00  8.00000000E-01  8.00000000E-01  1.50000000E+00
  8.00000000E-01  8.00000000E-01  1.50000000E+00  8.00000000E-01  8.00000000E-01
  1.50000000E+00  8.00000000E-01  8.00000000E-01  1.50000000E+00  8.00000000E-01
  8.00000000E-01  1.50000000E+00  8.00000000E-01  8.00000000E-01  1.50000000E+00
  8.00000000E-01  8.00000000E-01  1.50000000E+00  8.00000000E-01  8.00000000E-01
  1.50000000E+00  8.00000000E-01  8.00000000E-01  1.50000000E+00  8.00000000E-01
  8.00000000E-01  1.50000000E+00  8.00000000E-01  8.00000000E-01  1.50000000E+00
  8.00000000E-01  8.00000000E-01  1.50000000E+00  8.00000000E-01  8.00000000E-01
  1.50000000E+00  8.00000000E-01  8.00000000E-01  1.50000000E+00  8.00000000E-01
  8.00000000E-01  1.50000000E+00  8.00000000E-01  8.00000000E-01  1.50000000E+00
  8.00000000E-01  8.00000000E-01  1.50000000E+00  8.00000000E-01  8.00000000E-01
  1.50000000E+00  8.00000000E-01  8.00000000E-01  1.50000000E+00  8.00000000E-01
  8.00000000E-01  1.50000000E+00  8.00000000E-01  8.00000000E-01  1.50000000E+00
  8.00000000E-01  8.00000000E-01  1.50000000E+00  8.00000000E-01  8.00000000E-01
  1.50000000E+00  8.00000000E-01  8.00000000E-01  1.50000000E+00  8.00000000E-01
  8.00000000E-01  1.50000000E+00  8.00000000E-01  8.00000000E-01  1.50000000E+00
  8.00000000E-01  8.00000000E-01  1.50000000E+00  8.00000000E-01  8.00000000E-01
  1.50000000E+00  8.00000000E-01  8.00000000E-01  1.50000000E+00  8.00000000E-01
  8.00000000E-01  1.50000000E+00  8.00000000E-01  8.00000000E-01  1.50000000E+00
  8.00000000E-01  8.00000000E-01  1.50000000E+00  8.00000000E-01  8.00000000E-01
  1.50000000E+00  8.00000000E-01  8.00000000E-01  1.50000000E+00  8.00000000E-01
  8.00000000E-01  1.50000000E+00  8.00000000E-01  8.00000000E-01  1.50000000E+00
  8.00000000E-01  8.00000000E-01  1.50000000E+00  8.00000000E-01  8.00000000E-01
  1.50000000E+00  8.00000000E-01  8.00000000E-01  1.50000000E+00  8.00000000E-01
  8.00000000E-01  1.50000000E+00  8.00000000E-01  8.00000000E-01  1.50000000E+00
  8.00000000E-01  8.00000000E-01  1.50000000E+00  8.00000000E-01  8.00000000E-01
  1.50000000E+00  8.00000000E-01  8.00000000E-01  1.50000000E+00  8.00000000E-01
  8.00000000E-01  1.50000000E+00  8.00000000E-01  8.00000000E-01  1.50000000E+00
  8.00000000E-01  8.00000000E-01  1.50000000E+00  8.00000000E-01  8.00000000E-01
  1.50000000E+00  8.00000000E-01  8.00000000E-01  1.50000000E+00  8.00000000E-01
  8.00000000E-01  1.50000000E+00  8.00000000E-01  8.00000000E-01  1.50000000E+00
  8.00000000E-01  8.00000000E-01  1.50000000E+00  8.00000000E-01  8.00000000E-01
  1.50000000E+00  8.00000000E-01  8.00000000E-01  1.50000000E+00  8.00000000E-01
  8.00000000E-01  1.50000000E+00  8.00000000E-01  8.00000000E-01  1.50000000E+00
  8.00000000E-01  8.00000000E-01  1.50000000E+00  8.00000000E-01  8.00000000E-01
  1.50000000E+00  8.00000000E-01  8.00000000E-01  1.50000000E+00  8.00000000E-01
  8.00000000E-01  1.50000000E+00  8.00000000E-01  8.00000000E-01  1.50000000E+00
  8.00000000E-01  8.00000000E-01  1.50000000E+00  8.00000000E-01  8.00000000E-01
  1.50000000E+00  8.00000000E-01  8.00000000E-01  1.50000000E+00  8.00000000E-01
  8.00000000E-01  1.50000000E+00  8.00000000E-01  8.00000000E-01  1.50000000E+00
  8.00000000E-01  8.00000000E-01  1.50000000E+00  8.00000000E-01  8.00000000E-01
  1.50000000E+00  8.00000000E-01  8.00000000E-01  1.50000000E+00  8.00000000E-01
  8.00000000E-01  1.50000000E+00  8.00000000E-01  8.00000000E-01  1.50000000E+00
  8.00000000E-01  8.00000000E-01  1.50000000E+00  8.00000000E-01  8.00000000E-01
  1.50000000E+00  8.00000000E-01  8.00000000E-01  1.50000000E+00  8.00000000E-01
  8.00000000E-01  1.50000000E+00  8.00000000E-01  8.00000000E-01  1.50000000E+00
  8.00000000E-01  8.00000000E-01  1.50000000E+00  8.00000000E-01  8.00000000E-01
  1.50000000E+00  8.00000000E-01  8.00000000E-01  1.50000000E+00  8.00000000E-01
  8.00000000E-01  1.50000000E+00  8.00000000E-01  8.00000000E-01  1.50000000E+00
  8.00000000E-01  8.00000000E-01  1.50000000E+00  8.00000000E-01  8.00000000E-01
  1.50000000E+00  8.00000000E-01  8.00000000E-01  1.50000000E+00  8.00000000E-01
  8.00000000E-01  1.50000000E+00  8.00000000E-01  8.00000000E-01  1.50000000E+00
  8.00000000E-01  8.00000000E-01  1.50000000E+00  8.00000000E-01  8.00000000E-01
  1.50000000E+00  8.00000000E-01  8.00000000E-01  1.50000000E+00  8.00000000E-01
  8.00000000E-01  1.50000000E+00  8.00000000E-01  8.00000000E-01  1.50000000E+00
  8.00000000E-01  8.00000000E-01  1.50000000E+00  8.00000000E-01  8.00000000E-01
  1.50000000E+00  8.00000000E-01  8.00000000E-01  1.50000000E+00  8.00000000E-01
  8.00000000E-01  1.50000000E+00  8.00000000E-01  8.00000000E-01  1.50000000E+00
  8.00000000E-01  8.00000000E-01  1.50000000E+00  8.00000000E-01  8.00000000E-01
  1.50000000E+00  8.00000000E-01  8.00000000E-01  1.50000000E+00  8.00000000E-01
  8.00000000E-01  1.50000000E+00  8.00000000E-01  8.00000000E-01  1.50000000E+00
  8.00000000E-01  8.00000000E-01  1.50000000E+00  8.00000000E-01  8.00000000E-01
  1.50000000E+00  8.00000000E-01  8.00000000E-01  1.50000000E+00  8.00000000E-01
  8.00000000E-01  1.50000000E+00  8.00000000E-01  8.00000000E-01  1.50000000E+00
  8.00000000E-01  8.00000000E-01  1.50000000E+00  8.00000000E-01  8.00000000E-01
  1.50000000E+00  8.00000000E-01  8.00000000E-01  1.50000000E+00  8.00000000E-01
  8.00000000E-01  1.50000000E+00  8.00000000E-01  8.00000000E-01  1.50000000E+00
  8.00000000E-01  8.00000000E-01  1.50000000E+00  8.00000000E-01  8.00000000E-01
  1.50000000E+00  8.00000000E-01  8.00000000E-01  1.50000000E+00  8.00000000E-01
  8.00000000E-01  1.50000000E+00  8.00000000E-01  8.00000000E-01  1.50000000E+00
  8.00000000E-01  8.00000000E-01  1.50000000E+00  8.00000000E-01  8.00000000E-01
  1.50000000E+00  8.00000000E-01  8.00000000E-01  1.50000000E+00  8.00000000E-01
  8.00000000E-01  1.50000000E+00  8.00000000E-01  8.00000000E-01  1.50000000E+00
  8.00000000E-01  8.00000000E-01  1.50000000E+00  8.00000000E-01  8.00000000E-01
  1.50000000E+00  8.00000000E-01  8.00000000E-01  1.50000000E+00  8.00000000E-01
  8.00000000E-01  1.50000000E+00  8.00000000E-01  8.00000000E-01  1.50000000E+00
  8.00000000E-01  8.00000000E-01  1.50000000E+00  8.00000000E-01  8.00000000E-01
  1.50000000E+00  8.00000000E-01  8.00000000E-01  1.50000000E+00  8.00000000E-01
  8.00000000E-01  1.50000000E+00  8.00000000E-01  8.00000000E-01  1.50000000E+00
  8.00000000E-01  8.00000000E-01  1.50000000E+00  8.00000000E-01  8.00000000E-01
  1.50000000E+00  8.00000000E-01  8.00000000E-01  1.50000000E+00  8.00000000E-01
  8.00000000E-01  1.50000000E+00  8.00000000E-01  8.00000000E-01  1.50000000E+00
  8.00000000E-01  8.00000000E-01  1.50000000E+00  8.00000000E-01  8.00000000E-01
  1.50000000E+00  8.00000000E-01  8.00000000E-01  1.50000000E+00  8.00000000E-01
  8.00000000E-01  1.50000000E+00  8.00000000E-01  8.00000000E-01  1.50000000E+00
  8.00000000E-01  8.00000000E-01  1.50000000E+00  8.00000000E-01  8.00000000E-01
  1.50000000E+00  8.00000000E-01  8.00000000E-01  1.50000000E+00  8.00000000E-01
  8.00000000E-01  1.50000000E+00  8.00000000E-01  8.00000000E-01  1.50000000E+00
  8.00000000E-01  8.00000000E-01  1.50000000E+00  8.00000000E-01  8.00000000E-01
  1.50000000E+00  8.00000000E-01  8.00000000E-01  1.50000000E+00  8.00000000E-01
  8.00000000E-01  1.50000000E+00  8.00000000E-01  8.00000000E-01  1.50000000E+00
  8.00000000E-01  8.00000000E-01  1.50000000E+00  8.00000000E-01  8.00000000E-01
  1.50000000E+00  8.00000000E-01  8.00000000E-01  1.50000000E+00  8.00000000E-01
  8.00000000E-01  1.50000000E+00  8.00000000E-01  8.00000000E-01  1.50000000E+00
  8.00000000E-01  8.00000000E-01  1.50000000E+00  8.00000000E-01  8.00000000E-01
  1.50000000E+00  8.00000000E-01  8.00000000E-01  1.50000000E+00  8.00000000E-01
  8.00000000E-01  1.50000000E+00  8.00000000E-01  8.00000000E-01  1.50000000E+00
  8.00000000E-01  8.00000000E-01  1.50000000E+00  8.00000000E-01  8.00000000E-01
  1.50000000E+00  8.00000000E-01  8.00000000E-01  1.50000000E+00  8.00000000E-01
  8.00000000E-01  1.50000000E+00  8.00000000E-01  8.00000000E-01  1.50000000E+00
  8.00000000E-01  8.00000000E-01  1.50000000E+00  8.00000000E-01  8.00000000E-01
  1.50000000E+00  8.00000000E-01  8.00000000E-01  1.50000000E+00  8.00000000E-01
  8.00000000E-01  1.50000000E+00  8.00000000E-01  8.00000000E-01  1.50000000E+00
  8.00000000E-01  8.00000000E-01  1.50000000E+00  8.00000000E-01  8.00000000E-01
  1.50000000E+00  8.00000000E-01  8.00000000E-01  1.50000000E+00  8.00000000E-01
  8.00000000E-01  1.50000000E+00  8.00000000E-01  8.00000000E-01  1.50000000E+00
  8.00000000E-01  8.00000000E-01  1.50000000E+00  8.00000000E-01  8.00000000E-01
  1.50000000E+00  8.00000000E-01  8.00000000E-01  1.50000000E+00  8.00000000E-01
  8.00000000E-01  1.50000000E+00  8.00000000E-01  8.00000000E-01  1.50000000E+00
  8.00000000E-01  8.00000000E-01  1.50000000E+00  8.00000000E-01  8.00000000E-01
  1.50000000E+00  8.00000000E-01  8.00000000E-01  1.50000000E+00  8.00000000E-01
  8.00000000E-01  1.50000000E+00  8.00000000E-01  8.00000000E-01  1.50000000E+00
  8.00000000E-01  8.00000000E-01  1.50000000E+00  8.00000000E-01  8.00000000E-01
  1.50000000E+00  8.00000000E-01  8.00000000E-01  1.50000000E+00  8.00000000E-01
  8.00000000E-01  1.50000000E+00  8.00000000E-01  8.00000000E-01  1.50000000E+00
  8.00000000E-01  8.00000000E-01  1.50000000E+00  8.00000000E-01  8.00000000E-01
  1.50000000E+00  8.00000000E-01  8.00000000E-01  1.50000000E+00  8.00000000E-01
  8.00000000E-01  1.50000000E+00  8.00000000E-01  8.00000000E-01  1.50000000E+00
  8.00000000E-01  8.00000000E-01  1.50000000E+00  8.00000000E-01  8.00000000E-01
  1.50000000E+00  8.00000000E-01  8.00000000E-01  1.50000000E+00  8.00000000E-01
  8.00000000E-01  1.50000000E+00  8.00000000E-01  8.00000000E-01  1.50000000E+00
  8.00000000E-01  8.00000000E-01  1.50000000E+00  8.00000000E-01  8.00000000E-01
  1.50000000E+00  8.00000000E-01  8.00000000E-01  1.50000000E+00  8.00000000E-01
  8.00000000E-01  1.50000000E+00  8.00000000E-01  8.00000000E-01  1.50000000E+00
  8.00000000E-01  8.00000000E-01  1.50000000E+00  8.00000000E-01  8.00000000E-01
  1.50000000E+00  8.00000000E-01  8.00000000E-01  1.50000000E+00  8.00000000E-01
  8.00000000E-01  1.50000000E+00  8.00000000E-01  8.00000000E-01  1.50000000E+00
  8.00000000E-01  8.00000000E-01  1.50000000E+00  8.00000000E-01  8.00000000E-01
  1.50000000E+00  8.00000000E-01  8.00000000E-01  1.50000000E+00  8.00000000E-01
  8.00000000E-01  1.50000000E+00  8.00000000E-01  8.00000000E-01  1.50000000E+00
  8.00000000E-01  8.00000000E-01  1.50000000E+00  8.00000000E-01  8.00000000E-01
  1.50000000E+00  8.00000000E-01  8.00000000E-01  1.50000000E+00  8.00000000E-01
  8.00000000E-01  1.50000000E+00  8.00000000E-01  8.00000000E-01  1.50000000E+00
  8.00000000E-01  8.00000000E-01  1.50000000E+00  8.00000000E-01  8.00000000E-01
  1.50000000E+00  8.00000000E-01  8.00000000E-01  1.50000000E+00  8.00000000E-01
  8.00000000E-01  1.50000000E+00  8.00000000E-01  8.00000000E-01  1.50000000E+00
  8.00000000E-01  8.00000000E-01  1.50000000E+00  8.00000000E-01  8.00000000E-01
  1.50000000E+00  8.00000000E-01  8.00000000E-01  1.50000000E+00  8.00000000E-01
  8.00000000E-01  1.50000000E+00  8.00000000E-01  8.00000000E-01  1.50000000E+00
  8.00000000E-01  8.00000000E-01  1.50000000E+00  8.00000000E-01  8.00000000E-01
  1.50000000E+00  8.00000000E-01  8.00000000E-01  1.50000000E+00  8.00000000E-01
  8.00000000E-01  1.50000000E+00  8.00000000E-01  8.00000000E-01  1.50000000E+00
  8.00000000E-01  8.00000000E-01  1.50000000E+00  8.00000000E-01  8.00000000E-01
  1.50000000E+00  8.00000000E-01  8.00000000E-01  1.50000000E+00  8.00000000E-01
  8.00000000E-01  1.50000000E+00  8.00000000E-01  8.00000000E-01  1.50000000E+00
  8.00000000E-01  8.00000000E-01  1.50000000E+00  8.00000000E-01  8.00000000E-01
  1.50000000E+00  8.00000000E-01  8.00000000E-01  1.50000000E+00  8.00000000E-01
  8.00000000E-01  1.50000000E+00  8.00000000E-01  8.00000000E-01  1.50000000E+00
  8.00000000E-01  8.00000000E-01  1.50000000E+00  8.00000000E-01  8.00000000E-01
  1.50000000E+00  8.00000000E-01  8.00000000E-01  1.50000000E+00  8.00000000E-01
  8.00000000E-01  1.50000000E+00  8.00000000E-01  8.00000000E-01  1.50000000E+00
  8.00000000E-01  8.00000000E-01  1.50000000E+00  8.00000000E-01  8.00000000E-01
  1.50000000E+00  8.00000000E-01  8.00000000E-01  1.50000000E+00  8.00000000E-01
  8.00000000E-01  1.50000000E+00  8.00000000E-01  8.00000000E-01  1.50000000E+00
  8.00000000E-01  8.00000000E-01  1.50000000E+00  8.00000000E-01  8.00000000E-01
  1.50000000E+00  8.00000000E-01  8.00000000E-01  1.50000000E+00  8.00000000E-01
  8.00000000E-01  1.50000000E+00  8.00000000E-01  8.00000000E-01  1.50000000E+00
  8.00000000E-01  8.00000000E-01  1.50000000E+00  8.00000000E-01  8.00000000E-01
  1.50000000E+00  8.00000000E-01  8.00000000E-01  1.50000000E+00  8.00000000E-01
  8.00000000E-01  1.50000000E+00  8.00000000E-01  8.00000000E-01  1.50000000E+00
  8.00000000E-01  8.00000000E-01  1.50000000E+00  8.00000000E-01  8.00000000E-01
  1.50000000E+00  8.00000000E-01  8.00000000E-01  1.50000000E+00  8.00000000E-01
  8.00000000E-01  1.50000000E+00  8.00000000E-01  8.00000000E-01  1.50000000E+00
  8.00000000E-01  8.00000000E-01  1.50000000E+00  8.00000000E-01  8.00000000E-01
  1.50000000E+00  8.00000000E-01  8.00000000E-01  1.50000000E+00  8.00000000E-01
  8.00000000E-01  1.50000000E+00  8.00000000E-01  8.00000000E-01  1.50000000E+00
  8.00000000E-01  8.00000000E-01  1.50000000E+00  8.00000000E-01  8.00000000E-01
  1.50000000E+00  8.00000000E-01  8.00000000E-01  1.50000000E+00  8.00000000E-01
  8.00000000E-01  1.50000000E+00  8.00000000E-01  8.00000000E-01  1.50000000E+00
  8.00000000E-01  8.00000000E-01  1.50000000E+00  8.00000000E-01  8.00000000E-01
  1.50000000E+00  8.00000000E-01  8.00000000E-01  1.50000000E+00  8.00000000E-01
  8.00000000E-01  1.50000000E+00  8.00000000E-01  8.00000000E-01  1.50000000E+00
  8.00000000E-01  8.00000000E-01  1.50000000E+00  8.00000000E-01  8.00000000E-01
  1.50000000E+00  8.00000000E-01  8.00000000E-01  1.50000000E+00  8.00000000E-01
  8.00000000E-01  1.50000000E+00  8.00000000E-01  8.00000000E-01  1.50000000E+00
  8.00000000E-01  8.00000000E-01  1.50000000E+00  8.00000000E-01  8.00000000E-01
  1.50000000E+00  8.00000000E-01  8.00000000E-01  1.50000000E+00  8.00000000E-01
  8.00000000E-01  1.50000000E+00  8.00000000E-01  8.00000000E-01  1.50000000E+00
  8.00000000E-01  8.00000000E-01  1.50000000E+00  8.00000000E-01  8.00000000E-01
  1.50000000E+00  8.00000000E-01  8.00000000E-01  1.50000000E+00  8.00000000E-01
  8.00000000E-01  1.50000000E+00  8.00000000E-01  8.00000000E-01  1.50000000E+00
  8.00000000E-01  8.00000000E-01  1.50000000E+00  8.00000000E-01  8.00000000E-01
  1.50000000E+00  8.00000000E-01  8.00000000E-01  1.50000000E+00  8.00000000E-01
  8.00000000E-01  1.50000000E+00  8.00000000E-01  8.00000000E-01  1.50000000E+00
  8.00000000E-01  8.00000000E-01  1.50000000E+00  8.00000000E-01  8.00000000E-01
  1.50000000E+00  8.00000000E-01  8.00000000E-01  1.50000000E+00  8.00000000E-01
  8.00000000E-01  1.50000000E+00  8.00000000E-01  8.00000000E-01  1.50000000E+00
  8.00000000E-01  8.00000000E-01  1.50000000E+00  8.00000000E-01  8.00000000E-01
  1.50000000E+00  8.00000000E-01  8.00000000E-01  1.50000000E+00  8.00000000E-01
  8.00000000E-01  1.50000000E+00  8.00000000E-01  8.00000000E-01  1.50000000E+00
  8.00000000E-01  8.00000000E-01  1.50000000E+00  8.00000000E-01  8.00000000E-01
  1.50000000E+00  8.00000000E-01  8.00000000E-01  1.50000000E+00  8.00000000E-01
  8.00000000E-01  1.50000000E+00  8.00000000E-01  8.00000000E-01  1.50000000E+00
  8.00000000E-01  8.00000000E-01  1.50000000E+00  8.00000000E-01  8.00000000E-01
  1.50000000E+00  8.00000000E-01  8.00000000E-01  1.50000000E+00  8.00000000E-01
  8.00000000E-01  1.50000000E+00  8.00000000E-01  8.00000000E-01  1.50000000E+00
  8.00000000E-01  8.00000000E-01  1.50000000E+00  8.00000000E-01  8.00000000E-01
  1.50000000E+00  8.00000000E-01  8.00000000E-01  1.50000000E+00  8.00000000E-01
  8.00000000E-01  1.50000000E+00  8.00000000E-01  8.00000000E-01  1.50000000E+00
  8.00000000E-01  8.00000000E-01  1.50000000E+00  8.00000000E-01  8.00000000E-01
  1.50000000E+00  8.00000000E-01  8.00000000E-01  1.50000000E+00  8.00000000E-01
  8.00000000E-01  1.50000000E+00  8.00000000E-01  8.00000000E-01  1.50000000E+00
  8.00000000E-01  8.00000000E-01  1.50000000E+00  8.00000000E-01  8.00000000E-01
  1.50000000E+00  8.00000000E-01  8.00000000E-01  1.50000000E+00  8.00000000E-01
  8.00000000E-01  1.50000000E+00  8.00000000E-01  8.00000000E-01  1.50000000E+00
  8.00000000E-01  8.00000000E-01  1.50000000E+00  8.00000000E-01  8.00000000E-01
  1.50000000E+00  8.00000000E-01  8.00000000E-01  1.50000000E+00  8.00000000E-01
  8.00000000E-01  1.50000000E+00  8.00000000E-01  8.00000000E-01  1.50000000E+00
  8.00000000E-01  8.00000000E-01  1.50000000E+00  8.00000000E-01  8.00000000E-01
  1.50000000E+00  8.00000000E-01  8.00000000E-01  1.50000000E+00  8.00000000E-01
  8.00000000E-01  1.50000000E+00  8.00000000E-01  8.00000000E-01  1.50000000E+00
  8.00000000E-01  8.00000000E-01  1.50000000E+00  8.00000000E-01  8.00000000E-01
  1.50000000E+00  8.00000000E-01  8.00000000E-01  1.50000000E+00  8.00000000E-01
  8.00000000E-01  1.50000000E+00  8.00000000E-01  8.00000000E-01  1.50000000E+00
  8.00000000E-01  8.00000000E-01  1.50000000E+00  8.00000000E-01  8.00000000E-01
  1.50000000E+00  8.00000000E-01  8.00000000E-01  1.50000000E+00  8.00000000E-01
  8.00000000E-01  1.50000000E+00  8.00000000E-01  8.00000000E-01  1.50000000E+00
  8.00000000E-01  8.00000000E-01  1.50000000E+00  8.00000000E-01  8.00000000E-01
  1.50000000E+00  8.00000000E-01  8.00000000E-01  1.50000000E+00  8.00000000E-01
  8.00000000E-01  1.50000000E+00  8.00000000E-01  8.00000000E-01  1.50000000E+00
  8.00000000E-01  8.00000000E-01  1.50000000E+00  8.00000000E-01  8.00000000E-01
  1.50000000E+00  8.00000000E-01  8.00000000E-01  1.50000000E+00  8.00000000E-01
  8.00000000E-01  1.50000000E+00  8.00000000E-01  8.00000000E-01  1.50000000E+00
  8.00000000E-01  8.00000000E-01  1.50000000E+00  8.00000000E-01  8.00000000E-01
  1.50000000E+00  8.00000000E-01  8.00000000E-01  1.50000000E+00  8.00000000E-01
  8.00000000E-01  1.50000000E+00  8.00000000E-01  8.00000000E-01  1.50000000E+00
  8.00000000E-01  8.00000000E-01  1.50000000E+00  8.00000000E-01  8.00000000E-01
  1.50000000E+00  8.00000000E-01  8.00000000E-01  1.50000000E+00  8.00000000E-01
  8.00000000E-01  1.50000000E+00  8.00000000E-01  8.00000000E-01  1.50000000E+00
  8.00000000E-01  8.00000000E-01  1.50000000E+00  8.00000000E-01  8.00000000E-01
  1.50000000E+00  8.00000000E-01  8.00000000E-01  1.50000000E+00  8.00000000E-01
  8.00000000E-01  1.50000000E+00  8.00000000E-01  8.00000000E-01  1.50000000E+00
  8.00000000E-01  8.00000000E-01  1.50000000E+00  8.00000000E-01  8.00000000E-01
  1.50000000E+00  8.00000000E-01  8.00000000E-01  1.50000000E+00  8.00000000E-01
  8.00000000E-01  1.50000000E+00  8.00000000E-01  8.00000000E-01  1.50000000E+00
  8.00000000E-01  8.00000000E-01  1.50000000E+00  8.00000000E-01  8.00000000E-01
  1.50000000E+00  8.00000000E-01  8.00000000E-01  1.50000000E+00  8.00000000E-01
  8.00000000E-01  1.50000000E+00  8.00000000E-01  8.00000000E-01  1.50000000E+00
  8.00000000E-01  8.00000000E-01  1.50000000E+00  8.00000000E-01  8.00000000E-01
  1.50000000E+00  8.00000000E-01  8.00000000E-01  1.50000000E+00  8.00000000E-01
  8.00000000E-01  1.50000000E+00  8.00000000E-01  8.00000000E-01  1.50000000E+00
  8.00000000E-01  8.00000000E-01  1.50000000E+00  8.00000000E-01  8.00000000E-01
  1.50000000E+00  8.00000000E-01  8.00000000E-01  1.50000000E+00  8.00000000E-01
  8.00000000E-01  1.50000000E+00  8.00000000E-01  8.00000000E-01  1.50000000E+00
  8.00000000E-01  8.00000000E-01  1.50000000E+00  8.00000000E-01  8.00000000E-01
  1.50000000E+00  8.00000000E-01  8.00000000E-01  1.50000000E+00  8.00000000E-01
  8.00000000E-01  1.50000000E+00  8.00000000E-01  8.00000000E-01  1.50000000E+00
  8.00000000E-01  8.00000000E-01  1.50000000E+00  8.00000000E-01  8.00000000E-01
  1.50000000E+00  8.00000000E-01  8.00000000E-01  1.50000000E+00  8.00000000E-01
  8.00000000E-01  1.50000000E+00  8.00000000E-01  8.00000000E-01  1.50000000E+00
  8.00000000E-01  8.00000000E-01  1.50000000E+00  8.00000000E-01  8.00000000E-01
  1.50000000E+00  8.00000000E-01  8.00000000E-01  1.50000000E+00  8.00000000E-01
  8.00000000E-01  1.50000000E+00  8.00000000E-01  8.00000000E-01  1.50000000E+00
  8.00000000E-01  8.00000000E-01  1.50000000E+00  8.00000000E-01  8.00000000E-01
  1.50000000E+00  8.00000000E-01  8.00000000E-01  1.50000000E+00  8.00000000E-01
  8.00000000E-01  1.50000000E+00  8.00000000E-01  8.00000000E-01  1.50000000E+00
  8.00000000E-01  8.00000000E-01  1.50000000E+00  8.00000000E-01  8.00000000E-01
  1.50000000E+00  8.00000000E-01  8.00000000E-01  1.50000000E+00  8.00000000E-01
  8.00000000E-01  1.50000000E+00  8.00000000E-01  8.00000000E-01  1.50000000E+00
  8.00000000E-01  8.00000000E-01  1.50000000E+00  8.00000000E-01  8.00000000E-01
  1.50000000E+00  8.00000000E-01  8.00000000E-01  1.50000000E+00  8.00000000E-01
  8.00000000E-01  1.50000000E+00  8.00000000E-01  8.00000000E-01  1.50000000E+00
  8.00000000E-01  8.00000000E-01  1.50000000E+00  8.00000000E-01  8.00000000E-01
  1.50000000E+00  8.00000000E-01  8.00000000E-01  1.50000000E+00  8.00000000E-01
  8.00000000E-01  1.50000000E+00  8.00000000E-01  8.00000000E-01  1.50000000E+00
  8.00000000E-01  8.00000000E-01  1.50000000E+00  8.00000000E-01  8.00000000E-01
  1.50000000E+00  8.00000000E-01  8.00000000E-01  1.50000000E+00  8.00000000E-01
  8.00000000E-01  1.50000000E+00  8.00000000E-01  8.00000000E-01  1.50000000E+00
  8.00000000E-01  8.00000000E-01  1.50000000E+00  8.00000000E-01  8.00000000E-01
  1.50000000E+00  8.00000000E-01  8.00000000E-01  1.50000000E+00  8.00000000E-01
  8.00000000E-01  1.50000000E+00  8.00000000E-01  8.00000000E-01  1.50000000E+00
  8.00000000E-01  8.00000000E-01  1.50000000E+00  8.00000000E-01  8.00000000E-01
  1.50000000E+00  8.00000000E-01  8.00000000E-01  1.50000000E+00  8.00000000E-01
  8.00000000E-01  1.50000000E+00  8.00000000E-01  8.00000000E-01  1.50000000E+00
  8.00000000E-01  8.00000000E-01  1.50000000E+00  8.00000000E-01  8.00000000E-01
  1.50000000E+00  8.00000000E-01  8.00000000E-01  1.50000000E+00  8.00000000E-01
  8.00000000E-01  1.50000000E+00  8.00000000E-01  8.00000000E-01  1.50000000E+00
  8.00000000E-01  8.00000000E-01  1.50000000E+00  8.00000000E-01  8.00000000E-01
  1.50000000E+00  8.00000000E-01  8.00000000E-01  1.50000000E+00  8.00000000E-01
  8.00000000E-01  1.50000000E+00  8.00000000E-01  8.00000000E-01  1.50000000E+00
  8.00000000E-01  8.00000000E-01  1.50000000E+00  8.00000000E-01  8.00000000E-01
  1.50000000E+00  8.00000000E-01  8.00000000E-01  1.50000000E+00  8.00000000E-01
  8.00000000E-01  1.50000000E+00  8.00000000E-01  8.00000000E-01  1.50000000E+00
  8.00000000E-01  8.00000000E-01  1.50000000E+00  8.00000000E-01  8.00000000E-01
  1.50000000E+00  8.00000000E-01  8.00000000E-01  1.50000000E+00  8.00000000E-01
  8.00000000E-01  1.50000000E+00  8.00000000E-01  8.00000000E-01  1.50000000E+00
  8.00000000E-01  8.00000000E-01  1.50000000E+00  8.00000000E-01  8.00000000E-01
  1.50000000E+00  8.00000000E-01  8.00000000E-01  1.50000000E+00  8.00000000E-01
  8.00000000E-01  1.50000000E+00  8.00000000E-01  8.00000000E-01  1.50000000E+00
  8.00000000E-01  8.00000000E-01  1.50000000E+00  8.00000000E-01  8.00000000E-01
  1.50000000E+00  8.00000000E-01  8.00000000E-01  1.50000000E+00  8.00000000E-01
  8.00000000E-01  1.50000000E+00  8.00000000E-01  8.00000000E-01  1.50000000E+00
  8.00000000E-01  8.00000000E-01  1.50000000E+00  8.00000000E-01  8.00000000E-01
  1.50000000E+00  8.00000000E-01  8.00000000E-01  1.50000000E+00  8.00000000E-01
  8.00000000E-01  1.50000000E+00  8.00000000E-01  8.00000000E-01  1.50000000E+00
  8.00000000E-01  8.00000000E-01  1.50000000E+00  8.00000000E-01  8.00000000E-01
  1.50000000E+00  8.00000000E-01  8.00000000E-01  1.50000000E+00  8.00000000E-01
  8.00000000E-01  1.50000000E+00  8.00000000E-01  8.00000000E-01  1.50000000E+00
  8.00000000E-01  8.00000000E-01  1.50000000E+00  8.00000000E-01  8.00000000E-01
  1.50000000E+00  8.00000000E-01  8.00000000E-01  1.50000000E+00  8.00000000E-01
  8.00000000E-01  1.50000000E+00  8.00000000E-01  8.00000000E-01  1.50000000E+00
  8.00000000E-01  8.00000000E-01  1.50000000E+00  8.00000000E-01  8.00000000E-01
  1.50000000E+00  8.00000000E-01  8.00000000E-01  1.50000000E+00  8.00000000E-01
  8.00000000E-01  1.50000000E+00  8.00000000E-01  8.00000000E-01  1.50000000E+00
  8.00000000E-01  8.00000000E-01  1.50000000E+00  8.00000000E-01  8.00000000E-01
  1.50000000E+00  8.00000000E-01  8.00000000E-01  1.50000000E+00  8.00000000E-01
  8.00000000E-01  1.50000000E+00  8.00000000E-01  8.00000000E-01  1.50000000E+00
  8.00000000E-01  8.00000000E-01  1.50000000E+00  8.00000000E-01  8.00000000E-01
  1.50000000E+00  8.00000000E-01  8.00000000E-01  1.50000000E+00  8.00000000E-01
  8.00000000E-01  1.50000000E+00  8.00000000E-01  8.00000000E-01  1.50000000E+00
  8.00000000E-01  8.00000000E-01  1.50000000E+00  8.00000000E-01  8.00000000E-01
  1.50000000E+00  8.00000000E-01  8.00000000E-01  1.50000000E+00  8.00000000E-01
  8.00000000E-01  1.50000000E+00  8.00000000E-01  8.00000000E-01  1.50000000E+00
  8.00000000E-01  8.00000000E-01  1.50000000E+00  8.00000000E-01  8.00000000E-01
  1.50000000E+00  8.00000000E-01  8.00000000E-01  1.50000000E+00  8.00000000E-01
  8.00000000E-01  1.50000000E+00  8.00000000E-01  8.00000000E-01  1.50000000E+00
  8.00000000E-01  8.00000000E-01  1.50000000E+00  8.00000000E-01  8.00000000E-01
  1.50000000E+00  8.00000000E-01  8.00000000E-01  1.50000000E+00  8.00000000E-01
  8.00000000E-01  1.50000000E+00  8.00000000E-01  8.00000000E-01  1.50000000E+00
  8.00000000E-01  8.00000000E-01  1.50000000E+00  8.00000000E-01  8.00000000E-01
  1.50000000E+00  8.00000000E-01  8.00000000E-01  1.50000000E+00  8.00000000E-01
  8.00000000E-01  1.50000000E+00  8.00000000E-01  8.00000000E-01  1.50000000E+00
  8.00000000E-01  8.00000000E-01  1.50000000E+00  8.00000000E-01  8.00000000E-01
  1.50000000E+00  8.00000000E-01  8.00000000E-01  1.50000000E+00  8.00000000E-01
  8.00000000E-01  1.50000000E+00  8.00000000E-01  8.00000000E-01  1.50000000E+00
  8.00000000E-01  8.00000000E-01  1.50000000E+00  8.00000000E-01  8.00000000E-01
  1.50000000E+00  8.00000000E-01  8.00000000E-01  1.50000000E+00  8.00000000E-01
  8.00000000E-01  1.50000000E+00  8.00000000E-01  8.00000000E-01  1.50000000E+00
  8.00000000E-01  8.00000000E-01  1.50000000E+00  8.00000000E-01  8.00000000E-01
  1.50000000E+00  8.00000000E-01  8.00000000E-01  1.50000000E+00  8.00000000E-01
  8.00000000E-01  1.50000000E+00  8.00000000E-01  8.00000000E-01  1.50000000E+00
  8.00000000E-01  8.00000000E-01  1.50000000E+00  8.00000000E-01  8.00000000E-01
  1.50000000E+00  8.00000000E-01  8.00000000E-01  1.50000000E+00  8.00000000E-01
  8.00000000E-01  1.50000000E+00  8.00000000E-01  8.00000000E-01  1.50000000E+00
  8.00000000E-01  8.00000000E-01  1.50000000E+00  8.00000000E-01  8.00000000E-01
  1.50000000E+00  8.00000000E-01  8.00000000E-01  1.50000000E+00  8.00000000E-01
  8.00000000E-01  1.50000000E+00  8.00000000E-01  8.00000000E-01  1.50000000E+00
  8.00000000E-01  8.00000000E-01  1.50000000E+00  8.00000000E-01  8.00000000E-01
  1.50000000E+00  8.00000000E-01  8.00000000E-01  1.50000000E+00  8.00000000E-01
  8.00000000E-01  1.50000000E+00  8.00000000E-01  8.00000000E-01  1.50000000E+00
  8.00000000E-01  8.00000000E-01  1.50000000E+00  8.00000000E-01  8.00000000E-01
  1.50000000E+00  8.00000000E-01  8.00000000E-01  1.50000000E+00  8.00000000E-01
  8.00000000E-01  1.50000000E+00  8.00000000E-01  8.00000000E-01  1.50000000E+00
  8.00000000E-01  8.00000000E-01  1.50000000E+00  8.00000000E-01  8.00000000E-01
  1.50000000E+00  8.00000000E-01  8.00000000E-01  1.50000000E+00  8.00000000E-01
  8.00000000E-01  1.50000000E+00  8.00000000E-01  8.00000000E-01  1.50000000E+00
  8.00000000E-01  8.00000000E-01  1.50000000E+00  8.00000000E-01  8.00000000E-01
  1.50000000E+00  8.00000000E-01  8.00000000E-01  1.50000000E+00  8.00000000E-01
  8.00000000E-01  1.50000000E+00  8.00000000E-01  8.00000000E-01  1.50000000E+00
  8.00000000E-01  8.00000000E-01  1.50000000E+00  8.00000000E-01  8.00000000E-01
  1.50000000E+00  8.00000000E-01  8.00000000E-01  1.50000000E+00  8.00000000E-01
  8.00000000E-01  1.50000000E+00  8.00000000E-01  8.00000000E-01  1.50000000E+00
  8.00000000E-01  8.00000000E-01  1.50000000E+00  8.00000000E-01  8.00000000E-01
  1.50000000E+00  8.00000000E-01  8.00000000E-01  1.50000000E+00  8.00000000E-01
  8.00000000E-01  1.50000000E+00  8.00000000E-01  8.00000000E-01  1.50000000E+00
  8.00000000E-01  8.00000000E-01  1.50000000E+00  8.00000000E-01  8.00000000E-01
  1.50000000E+00  8.00000000E-01  8.00000000E-01  1.50000000E+00  8.00000000E-01
  8.00000000E-01  1.50000000E+00  8.00000000E-01  8.00000000E-01  1.50000000E+00
  8.00000000E-01  8.00000000E-01  1.50000000E+00  8.00000000E-01  8.00000000E-01
  1.50000000E+00  8.00000000E-01  8.00000000E-01  1.50000000E+00  8.00000000E-01
  8.00000000E-01  1.50000000E+00  8.00000000E-01  8.00000000E-01  1.50000000E+00
  8.00000000E-01  8.00000000E-01  1.50000000E+00  8.00000000E-01  8.00000000E-01
  1.50000000E+00  8.00000000E-01  8.00000000E-01  1.50000000E+00  8.00000000E-01
  8.00000000E-01  1.50000000E+00  8.00000000E-01  8.00000000E-01  1.50000000E+00
  8.00000000E-01  8.00000000E-01  1.50000000E+00  8.00000000E-01  8.00000000E-01
  1.50000000E+00  8.00000000E-01  8.00000000E-01  1.50000000E+00  8.00000000E-01
  8.00000000E-01  1.50000000E+00  8.00000000E-01  8.00000000E-01  1.50000000E+00
  8.00000000E-01  8.00000000E-01  1.50000000E+00  8.00000000E-01  8.00000000E-01
  1.50000000E+00  8.00000000E-01  8.00000000E-01  1.50000000E+00  8.00000000E-01
  8.00000000E-01  1.50000000E+00  8.00000000E-01  8.00000000E-01  1.50000000E+00
  8.00000000E-01  8.00000000E-01  1.50000000E+00  8.00000000E-01  8.00000000E-01
  1.50000000E+00  8.00000000E-01  8.00000000E-01  1.50000000E+00  8.00000000E-01
  8.00000000E-01  1.50000000E+00  8.00000000E-01  8.00000000E-01  1.50000000E+00
  8.00000000E-01  8.00000000E-01  1.50000000E+00  8.00000000E-01  8.00000000E-01
  1.50000000E+00  8.00000000E-01  8.00000000E-01  1.50000000E+00  8.00000000E-01
  8.00000000E-01  1.50000000E+00  8.00000000E-01  8.00000000E-01  1.50000000E+00
  8.00000000E-01  8.00000000E-01  1.50000000E+00  8.00000000E-01  8.00000000E-01
  1.50000000E+00  8.00000000E-01  8.00000000E-01  1.50000000E+00  8.00000000E-01
  8.00000000E-01  1.50000000E+00  8.00000000E-01  8.00000000E-01  1.50000000E+00
  8.00000000E-01  8.00000000E-01  1.50000000E+00  8.00000000E-01  8.00000000E-01
  1.50000000E+00  8.00000000E-01  8.00000000E-01  1.50000000E+00  8.00000000E-01
  8.00000000E-01  1.50000000E+00  8.00000000E-01  8.00000000E-01  1.50000000E+00
  8.00000000E-01  8.00000000E-01  1.50000000E+00  8.00000000E-01  8.00000000E-01
  1.50000000E+00  8.00000000E-01  8.00000000E-01  1.50000000E+00  8.00000000E-01
  8.00000000E-01  1.50000000E+00  8.00000000E-01  8.00000000E-01  1.50000000E+00
  8.00000000E-01  8.00000000E-01  1.50000000E+00  8.00000000E-01  8.00000000E-01
  1.50000000E+00  8.00000000E-01  8.00000000E-01  1.50000000E+00  8.00000000E-01
  8.00000000E-01  1.50000000E+00  8.00000000E-01  8.00000000E-01  1.50000000E+00
  8.00000000E-01  8.00000000E-01  1.50000000E+00  8.00000000E-01  8.00000000E-01
  1.50000000E+00  8.00000000E-01  8.00000000E-01  1.50000000E+00  8.00000000E-01
  8.00000000E-01  1.50000000E+00  8.00000000E-01  8.00000000E-01  1.50000000E+00
  8.00000000E-01  8.00000000E-01  1.50000000E+00  8.00000000E-01  8.00000000E-01
  1.50000000E+00  8.00000000E-01  8.00000000E-01  1.50000000E+00  8.00000000E-01
  8.00000000E-01  1.50000000E+00  8.00000000E-01  8.00000000E-01  1.50000000E+00
  8.00000000E-01  8.00000000E-01  1.50000000E+00  8.00000000E-01  8.00000000E-01
  1.50000000E+00  8.00000000E-01  8.00000000E-01  1.50000000E+00  8.00000000E-01
  8.00000000E-01  1.50000000E+00  8.00000000E-01  8.00000000E-01  1.50000000E+00
  8.00000000E-01  8.00000000E-01  1.50000000E+00  8.00000000E-01  8.00000000E-01
  1.50000000E+00  8.00000000E-01  8.00000000E-01  1.50000000E+00  8.00000000E-01
  8.00000000E-01  1.50000000E+00  8.00000000E-01  8.00000000E-01  1.50000000E+00
  8.00000000E-01  8.00000000E-01  1.50000000E+00  8.00000000E-01  8.00000000E-01
  1.50000000E+00  8.00000000E-01  8.00000000E-01  1.50000000E+00  8.00000000E-01
  8.00000000E-01  1.50000000E+00  8.00000000E-01  8.00000000E-01  1.50000000E+00
  8.00000000E-01  8.00000000E-01  1.50000000E+00  8.00000000E-01  8.00000000E-01
  1.50000000E+00  8.00000000E-01  8.00000000E-01  1.50000000E+00  8.00000000E-01
  8.00000000E-01  1.50000000E+00  8.00000000E-01  8.00000000E-01  1.50000000E+00
  8.00000000E-01  8.00000000E-01  1.50000000E+00  8.00000000E-01  8.00000000E-01
  1.50000000E+00  8.00000000E-01  8.00000000E-01  1.50000000E+00  8.00000000E-01
  8.00000000E-01  1.50000000E+00  8.00000000E-01  8.00000000E-01  1.50000000E+00
  8.00000000E-01  8.00000000E-01  1.50000000E+00  8.00000000E-01  8.00000000E-01
  1.50000000E+00  8.00000000E-01  8.00000000E-01  1.50000000E+00  8.00000000E-01
  8.00000000E-01  1.50000000E+00  8.00000000E-01  8.00000000E-01  1.50000000E+00
  8.00000000E-01  8.00000000E-01  1.50000000E+00  8.00000000E-01  8.00000000E-01
  1.50000000E+00  8.00000000E-01  8.00000000E-01  1.50000000E+00  8.00000000E-01
  8.00000000E-01  1.50000000E+00  8.00000000E-01  8.00000000E-01  1.50000000E+00
  8.00000000E-01  8.00000000E-01  1.50000000E+00  8.00000000E-01  8.00000000E-01
  1.50000000E+00  8.00000000E-01  8.00000000E-01  1.50000000E+00  8.00000000E-01
  8.00000000E-01  1.50000000E+00  8.00000000E-01  8.00000000E-01  1.50000000E+00
  8.00000000E-01  8.00000000E-01  1.50000000E+00  8.00000000E-01  8.00000000E-01
  1.50000000E+00  8.00000000E-01  8.00000000E-01  1.50000000E+00  8.00000000E-01
  8.00000000E-01  1.50000000E+00  8.00000000E-01  8.00000000E-01  1.50000000E+00
  8.00000000E-01  8.00000000E-01  1.50000000E+00  8.00000000E-01  8.00000000E-01
  1.50000000E+00  8.00000000E-01  8.00000000E-01  1.50000000E+00  8.00000000E-01
  8.00000000E-01  1.50000000E+00  8.00000000E-01  8.00000000E-01  1.50000000E+00
  8.00000000E-01  8.00000000E-01  1.50000000E+00  8.00000000E-01  8.00000000E-01
  1.50000000E+00  8.00000000E-01  8.00000000E-01  1.50000000E+00  8.00000000E-01
  8.00000000E-01  1.50000000E+00  8.00000000E-01  8.00000000E-01  1.50000000E+00
  8.00000000E-01  8.00000000E-01  1.50000000E+00  8.00000000E-01  8.00000000E-01
  1.50000000E+00  8.00000000E-01  8.00000000E-01  1.50000000E+00  8.00000000E-01
  8.00000000E-01  1.50000000E+00  8.00000000E-01  8.00000000E-01  1.50000000E+00
  8.00000000E-01  8.00000000E-01  1.50000000E+00  8.00000000E-01  8.00000000E-01
  1.50000000E+00  8.00000000E-01  8.00000000E-01  1.50000000E+00  8.00000000E-01
  8.00000000E-01  1.50000000E+00  8.00000000E-01  8.00000000E-01  1.50000000E+00
  8.00000000E-01  8.00000000E-01  1.50000000E+00  8.00000000E-01  8.00000000E-01
  1.50000000E+00  8.00000000E-01  8.00000000E-01  1.50000000E+00  8.00000000E-01
  8.00000000E-01  1.50000000E+00  8.00000000E-01  8.00000000E-01  1.50000000E+00
  8.00000000E-01  8.00000000E-01  1.50000000E+00  8.00000000E-01  8.00000000E-01
  1.50000000E+00  8.00000000E-01  8.00000000E-01  1.50000000E+00  8.00000000E-01
  8.00000000E-01  1.50000000E+00  8.00000000E-01  8.00000000E-01  1.50000000E+00
  8.00000000E-01  8.00000000E-01  1.50000000E+00  8.00000000E-01  8.00000000E-01
  1.50000000E+00  8.00000000E-01  8.00000000E-01  1.50000000E+00  8.00000000E-01
  8.00000000E-01  1.50000000E+00  8.00000000E-01  8.00000000E-01  1.50000000E+00
  8.00000000E-01  8.00000000E-01  1.50000000E+00  8.00000000E-01  8.00000000E-01
  1.50000000E+00  8.00000000E-01  8.00000000E-01  1.50000000E+00  8.00000000E-01
  8.00000000E-01  1.50000000E+00  8.00000000E-01  8.00000000E-01  1.50000000E+00
  8.00000000E-01  8.00000000E-01  1.50000000E+00  8.00000000E-01  8.00000000E-01
  1.50000000E+00  8.00000000E-01  8.00000000E-01  1.50000000E+00  8.00000000E-01
  8.00000000E-01  1.50000000E+00  8.00000000E-01  8.00000000E-01  1.50000000E+00
  8.00000000E-01  8.00000000E-01  1.50000000E+00  8.00000000E-01  8.00000000E-01
  1.50000000E+00  8.00000000E-01  8.00000000E-01  1.50000000E+00  8.00000000E-01
  8.00000000E-01  1.50000000E+00  8.00000000E-01  8.00000000E-01  1.50000000E+00
  8.00000000E-01  8.00000000E-01  1.50000000E+00  8.00000000E-01  8.00000000E-01
  1.50000000E+00  8.00000000E-01  8.00000000E-01  1.50000000E+00  8.00000000E-01
  8.00000000E-01  1.50000000E+00  8.00000000E-01  8.00000000E-01  1.50000000E+00
  8.00000000E-01  8.00000000E-01  1.50000000E+00  8.00000000E-01  8.00000000E-01
  1.50000000E+00  8.00000000E-01  8.00000000E-01  1.50000000E+00  8.00000000E-01
  8.00000000E-01  1.50000000E+00  8.00000000E-01  8.00000000E-01  1.50000000E+00
  8.00000000E-01  8.00000000E-01  1.50000000E+00  8.00000000E-01  8.00000000E-01
  1.50000000E+00  8.00000000E-01  8.00000000E-01  1.50000000E+00  8.00000000E-01
  8.00000000E-01  1.50000000E+00  8.00000000E-01  8.00000000E-01  1.50000000E+00
  8.00000000E-01  8.00000000E-01  1.50000000E+00  8.00000000E-01  8.00000000E-01
  1.50000000E+00  8.00000000E-01  8.00000000E-01  1.50000000E+00  8.00000000E-01
  8.00000000E-01  1.50000000E+00  8.00000000E-01  8.00000000E-01  1.50000000E+00
  8.00000000E-01  8.00000000E-01  1.50000000E+00  8.00000000E-01  8.00000000E-01
  1.50000000E+00  8.00000000E-01  8.00000000E-01  1.50000000E+00  8.00000000E-01
  8.00000000E-01  1.50000000E+00  8.00000000E-01  8.00000000E-01  1.50000000E+00
  8.00000000E-01  8.00000000E-01  1.50000000E+00  8.00000000E-01  8.00000000E-01
  1.50000000E+00  8.00000000E-01  8.00000000E-01  1.50000000E+00  8.00000000E-01
  8.00000000E-01  1.50000000E+00  8.00000000E-01  8.00000000E-01  1.50000000E+00
  8.00000000E-01  8.00000000E-01  1.50000000E+00  8.00000000E-01  8.00000000E-01
  1.50000000E+00  8.00000000E-01  8.00000000E-01  1.50000000E+00  8.00000000E-01
  8.00000000E-01  1.50000000E+00  8.00000000E-01  8.00000000E-01  1.50000000E+00
  8.00000000E-01  8.00000000E-01  1.50000000E+00  8.00000000E-01  8.00000000E-01
  1.50000000E+00  8.00000000E-01  8.00000000E-01  1.50000000E+00  8.00000000E-01
  8.00000000E-01  1.50000000E+00  8.00000000E-01  8.00000000E-01  1.50000000E+00
  8.00000000E-01  8.00000000E-01  1.50000000E+00  8.00000000E-01  8.00000000E-01
  1.50000000E+00  8.00000000E-01  8.00000000E-01  1.50000000E+00  8.00000000E-01
  8.00000000E-01  1.50000000E+00  8.00000000E-01  8.00000000E-01  1.50000000E+00
  8.00000000E-01  8.00000000E-01  1.50000000E+00  8.00000000E-01  8.00000000E-01
  1.50000000E+00  8.00000000E-01  8.00000000E-01  1.50000000E+00  8.00000000E-01
  8.00000000E-01  1.50000000E+00  8.00000000E-01  8.00000000E-01  1.50000000E+00
  8.00000000E-01  8.00000000E-01  1.50000000E+00  8.00000000E-01  8.00000000E-01
  1.50000000E+00  8.00000000E-01  8.00000000E-01  1.50000000E+00  8.00000000E-01
  8.00000000E-01  1.50000000E+00  8.00000000E-01  8.00000000E-01  1.50000000E+00
  8.00000000E-01  8.00000000E-01  1.50000000E+00  8.00000000E-01  8.00000000E-01
  1.50000000E+00  8.00000000E-01  8.00000000E-01  1.50000000E+00  8.00000000E-01
  8.00000000E-01  1.50000000E+00  8.00000000E-01  8.00000000E-01  1.50000000E+00
  8.00000000E-01  8.00000000E-01  1.50000000E+00  8.00000000E-01  8.00000000E-01
  1.50000000E+00  8.00000000E-01  8.00000000E-01  1.50000000E+00  8.00000000E-01
  8.00000000E-01  1.50000000E+00  8.00000000E-01  8.00000000E-01  1.50000000E+00
  8.00000000E-01  8.00000000E-01  1.50000000E+00  8.00000000E-01  8.00000000E-01
  1.50000000E+00  8.00000000E-01  8.00000000E-01  1.50000000E+00  8.00000000E-01
  8.00000000E-01  1.50000000E+00  8.00000000E-01  8.00000000E-01  1.50000000E+00
  8.00000000E-01  8.00000000E-01  1.50000000E+00  8.00000000E-01  8.00000000E-01
  1.50000000E+00  8.00000000E-01  8.00000000E-01  1.50000000E+00  8.00000000E-01
  8.00000000E-01  1.50000000E+00  8.00000000E-01  8.00000000E-01  1.50000000E+00
  8.00000000E-01  8.00000000E-01  1.50000000E+00  8.00000000E-01  8.00000000E-01
  1.50000000E+00  8.00000000E-01  8.00000000E-01  1.50000000E+00  8.00000000E-01
  8.00000000E-01  1.50000000E+00  8.00000000E-01  8.00000000E-01  1.50000000E+00
  8.00000000E-01  8.00000000E-01  1.50000000E+00  8.00000000E-01  8.00000000E-01
  1.50000000E+00  8.00000000E-01  8.00000000E-01  1.50000000E+00  8.00000000E-01
  8.00000000E-01  1.50000000E+00  8.00000000E-01  8.00000000E-01  1.50000000E+00
  8.00000000E-01  8.00000000E-01  1.50000000E+00  8.00000000E-01  8.00000000E-01
  1.50000000E+00  8.00000000E-01  8.00000000E-01  1.50000000E+00  8.00000000E-01
  8.00000000E-01  1.50000000E+00  8.00000000E-01  8.00000000E-01  1.50000000E+00
  8.00000000E-01  8.00000000E-01  1.50000000E+00  8.00000000E-01  8.00000000E-01
  1.50000000E+00  8.00000000E-01  8.00000000E-01  1.50000000E+00  8.00000000E-01
  8.00000000E-01  1.50000000E+00  8.00000000E-01  8.00000000E-01  1.50000000E+00
  8.00000000E-01  8.00000000E-01  1.50000000E+00  8.00000000E-01  8.00000000E-01
  1.50000000E+00  8.00000000E-01  8.00000000E-01  1.50000000E+00  8.00000000E-01
  8.00000000E-01  1.50000000E+00  8.00000000E-01  8.00000000E-01  1.50000000E+00
  8.00000000E-01  8.00000000E-01  1.50000000E+00  8.00000000E-01  8.00000000E-01
  1.50000000E+00  8.00000000E-01  8.00000000E-01  1.50000000E+00  8.00000000E-01
  8.00000000E-01  1.50000000E+00  8.00000000E-01  8.00000000E-01  1.50000000E+00
  8.00000000E-01  8.00000000E-01  1.50000000E+00  8.00000000E-01  8.00000000E-01
  1.50000000E+00  8.00000000E-01  8.00000000E-01  1.50000000E+00  8.00000000E-01
  8.00000000E-01  1.50000000E+00  8.00000000E-01  8.00000000E-01  1.50000000E+00
  8.00000000E-01  8.00000000E-01  1.50000000E+00  8.00000000E-01  8.00000000E-01
  1.50000000E+00  8.00000000E-01  8.00000000E-01  1.50000000E+00  8.00000000E-01
  8.00000000E-01  1.50000000E+00  8.00000000E-01  8.00000000E-01  1.50000000E+00
  8.00000000E-01  8.00000000E-01  1.50000000E+00  8.00000000E-01  8.00000000E-01
  1.50000000E+00  8.00000000E-01  8.00000000E-01  1.50000000E+00  8.00000000E-01
  8.00000000E-01  1.50000000E+00  8.00000000E-01  8.00000000E-01  1.50000000E+00
  8.00000000E-01  8.00000000E-01  1.50000000E+00  8.00000000E-01  8.00000000E-01
  1.50000000E+00  8.00000000E-01  8.00000000E-01  1.50000000E+00  8.00000000E-01
  8.00000000E-01  1.50000000E+00  8.00000000E-01  8.00000000E-01  1.50000000E+00
  8.00000000E-01  8.00000000E-01  1.50000000E+00  8.00000000E-01  8.00000000E-01
  1.50000000E+00  8.00000000E-01  8.00000000E-01  1.50000000E+00  8.00000000E-01
  8.00000000E-01  1.50000000E+00  8.00000000E-01  8.00000000E-01  1.50000000E+00
  8.00000000E-01  8.00000000E-01  1.50000000E+00  8.00000000E-01  8.00000000E-01
  1.50000000E+00  8.00000000E-01  8.00000000E-01  1.50000000E+00  8.00000000E-01
  8.00000000E-01  1.50000000E+00  8.00000000E-01  8.00000000E-01  1.50000000E+00
  8.00000000E-01  8.00000000E-01  1.50000000E+00  8.00000000E-01  8.00000000E-01
  1.50000000E+00  8.00000000E-01  8.00000000E-01  1.50000000E+00  8.00000000E-01
  8.00000000E-01  1.50000000E+00  8.00000000E-01  8.00000000E-01  1.50000000E+00
  8.00000000E-01  8.00000000E-01  1.50000000E+00  8.00000000E-01  8.00000000E-01
  1.50000000E+00  8.00000000E-01  8.00000000E-01  1.50000000E+00  8.00000000E-01
  8.00000000E-01  1.50000000E+00  8.00000000E-01  8.00000000E-01  1.50000000E+00
  8.00000000E-01  8.00000000E-01  1.50000000E+00  8.00000000E-01  8.00000000E-01
  1.50000000E+00  8.00000000E-01  8.00000000E-01  1.50000000E+00  8.00000000E-01
  8.00000000E-01  1.50000000E+00  8.00000000E-01  8.00000000E-01  1.50000000E+00
  8.00000000E-01  8.00000000E-01  1.50000000E+00  8.00000000E-01  8.00000000E-01
  1.50000000E+00  8.00000000E-01  8.00000000E-01  1.50000000E+00  8.00000000E-01
  8.00000000E-01  1.50000000E+00  8.00000000E-01  8.00000000E-01  1.50000000E+00
  8.00000000E-01  8.00000000E-01  1.50000000E+00  8.00000000E-01  8.00000000E-01
  1.50000000E+00  8.00000000E-01  8.00000000E-01  1.50000000E+00  8.00000000E-01
  8.00000000E-01  1.50000000E+00  8.00000000E-01  8.00000000E-01  1.50000000E+00
  8.00000000E-01  8.00000000E-01  1.50000000E+00  8.00000000E-01  8.00000000E-01
  1.50000000E+00  8.00000000E-01  8.00000000E-01  1.50000000E+00  8.00000000E-01
  8.00000000E-01  1.50000000E+00  8.00000000E-01  8.00000000E-01  1.50000000E+00
  8.00000000E-01  8.00000000E-01  1.50000000E+00  8.00000000E-01  8.00000000E-01
  1.50000000E+00  8.00000000E-01  8.00000000E-01  1.50000000E+00  8.00000000E-01
  8.00000000E-01  1.50000000E+00  8.00000000E-01  8.00000000E-01  1.50000000E+00
  8.00000000E-01  8.00000000E-01  1.50000000E+00  8.00000000E-01  8.00000000E-01
  1.50000000E+00  8.00000000E-01  8.00000000E-01  1.50000000E+00  8.00000000E-01
  8.00000000E-01  1.50000000E+00  8.00000000E-01  8.00000000E-01  1.50000000E+00
  8.00000000E-01  8.00000000E-01  1.50000000E+00  8.00000000E-01  8.00000000E-01
  1.50000000E+00  8.00000000E-01  8.00000000E-01  1.50000000E+00  8.00000000E-01
  8.00000000E-01  1.50000000E+00  8.00000000E-01  8.00000000E-01  1.50000000E+00
  8.00000000E-01  8.00000000E-01  1.50000000E+00  8.00000000E-01  8.00000000E-01
  1.50000000E+00  8.00000000E-01  8.00000000E-01  1.50000000E+00  8.00000000E-01
  8.00000000E-01  1.50000000E+00  8.00000000E-01  8.00000000E-01  1.50000000E+00
  8.00000000E-01  8.00000000E-01  1.50000000E+00  8.00000000E-01  8.00000000E-01
  1.50000000E+00  8.00000000E-01  8.00000000E-01  1.50000000E+00  8.00000000E-01
  8.00000000E-01  1.50000000E+00  8.00000000E-01  8.00000000E-01  1.50000000E+00
  8.00000000E-01  8.00000000E-01  1.50000000E+00  8.00000000E-01  8.00000000E-01
  1.50000000E+00  8.00000000E-01  8.00000000E-01  1.50000000E+00  8.00000000E-01
  8.00000000E-01  1.50000000E+00  8.00000000E-01  8.00000000E-01  1.50000000E+00
  8.00000000E-01  8.00000000E-01  1.50000000E+00  8.00000000E-01  8.00000000E-01
  1.50000000E+00  8.00000000E-01  8.00000000E-01  1.50000000E+00  8.00000000E-01
  8.00000000E-01  1.50000000E+00  8.00000000E-01  8.00000000E-01  1.50000000E+00
  8.00000000E-01  8.00000000E-01  1.50000000E+00  8.00000000E-01  8.00000000E-01
  1.50000000E+00  8.00000000E-01  8.00000000E-01  1.50000000E+00  8.00000000E-01
  8.00000000E-01  1.50000000E+00  8.00000000E-01  8.00000000E-01  1.50000000E+00
  8.00000000E-01  8.00000000E-01  1.50000000E+00  8.00000000E-01  8.00000000E-01
  1.50000000E+00  8.00000000E-01  8.00000000E-01  1.50000000E+00  8.00000000E-01
  8.00000000E-01  1.50000000E+00  8.00000000E-01  8.00000000E-01  1.50000000E+00
  8.00000000E-01  8.00000000E-01  1.50000000E+00  8.00000000E-01  8.00000000E-01
  1.50000000E+00  8.00000000E-01  8.00000000E-01  1.50000000E+00  8.00000000E-01
  8.00000000E-01  1.50000000E+00  8.00000000E-01  8.00000000E-01  1.50000000E+00
  8.00000000E-01  8.00000000E-01  1.50000000E+00  8.00000000E-01  8.00000000E-01
  1.50000000E+00  8.00000000E-01  8.00000000E-01  1.50000000E+00  8.00000000E-01
  8.00000000E-01  1.50000000E+00  8.00000000E-01  8.00000000E-01  1.50000000E+00
  8.00000000E-01  8.00000000E-01  1.50000000E+00  8.00000000E-01  8.00000000E-01
  1.50000000E+00  8.00000000E-01  8.00000000E-01  1.50000000E+00  8.00000000E-01
  8.00000000E-01  1.50000000E+00  8.00000000E-01  8.00000000E-01  1.50000000E+00
  8.00000000E-01  8.00000000E-01  1.50000000E+00  8.00000000E-01  8.00000000E-01
  1.50000000E+00  8.00000000E-01  8.00000000E-01  1.50000000E+00  8.00000000E-01
  8.00000000E-01  1.50000000E+00  8.00000000E-01  8.00000000E-01  1.50000000E+00
  8.00000000E-01  8.00000000E-01  1.50000000E+00  8.00000000E-01  8.00000000E-01
  1.50000000E+00  8.00000000E-01  8.00000000E-01  1.50000000E+00  8.00000000E-01
  8.00000000E-01  1.50000000E+00  8.00000000E-01  8.00000000E-01  1.50000000E+00
  8.00000000E-01  8.00000000E-01  1.50000000E+00  8.00000000E-01  8.00000000E-01
  1.50000000E+00  8.00000000E-01  8.00000000E-01  1.50000000E+00  8.00000000E-01
  8.00000000E-01  1.50000000E+00  8.00000000E-01  8.00000000E-01  1.50000000E+00
  8.00000000E-01  8.00000000E-01  1.50000000E+00  8.00000000E-01  8.00000000E-01
  1.50000000E+00  8.00000000E-01  8.00000000E-01  1.50000000E+00  8.00000000E-01
  8.00000000E-01  1.50000000E+00  8.00000000E-01  8.00000000E-01  1.50000000E+00
  8.00000000E-01  8.00000000E-01  1.50000000E+00  8.00000000E-01  8.00000000E-01
  1.50000000E+00  8.00000000E-01  8.00000000E-01  1.50000000E+00  8.00000000E-01
  8.00000000E-01  1.50000000E+00  8.00000000E-01  8.00000000E-01  1.50000000E+00
  8.00000000E-01  8.00000000E-01  1.50000000E+00  8.00000000E-01  8.00000000E-01
  1.50000000E+00  8.00000000E-01  8.00000000E-01  1.50000000E+00  8.00000000E-01
  8.00000000E-01  1.50000000E+00  8.00000000E-01  8.00000000E-01  1.50000000E+00
  8.00000000E-01  8.00000000E-01  1.50000000E+00  8.00000000E-01  8.00000000E-01
  1.50000000E+00  8.00000000E-01  8.00000000E-01  1.50000000E+00  8.00000000E-01
  8.00000000E-01  1.50000000E+00  8.00000000E-01  8.00000000E-01  1.50000000E+00
  8.00000000E-01  8.00000000E-01  1.50000000E+00  8.00000000E-01  8.00000000E-01
  1.50000000E+00  8.00000000E-01  8.00000000E-01  1.50000000E+00  8.00000000E-01
  8.00000000E-01  1.50000000E+00  8.00000000E-01  8.00000000E-01  1.50000000E+00
  8.00000000E-01  8.00000000E-01  1.50000000E+00  8.00000000E-01  8.00000000E-01
  1.50000000E+00  8.00000000E-01  8.00000000E-01  1.50000000E+00  8.00000000E-01
  8.00000000E-01  1.50000000E+00  8.00000000E-01  8.00000000E-01  1.50000000E+00
  8.00000000E-01  8.00000000E-01  1.50000000E+00  8.00000000E-01  8.00000000E-01
  1.50000000E+00  8.00000000E-01  8.00000000E-01  1.50000000E+00  8.00000000E-01
  8.00000000E-01  1.50000000E+00  8.00000000E-01  8.00000000E-01  1.50000000E+00
  8.00000000E-01  8.00000000E-01  1.50000000E+00  8.00000000E-01  8.00000000E-01
  1.50000000E+00  8.00000000E-01  8.00000000E-01  1.50000000E+00  8.00000000E-01
  8.00000000E-01  1.50000000E+00  8.00000000E-01  8.00000000E-01  1.50000000E+00
  8.00000000E-01  8.00000000E-01  1.50000000E+00  8.00000000E-01  8.00000000E-01
  1.50000000E+00  8.00000000E-01  8.00000000E-01  1.50000000E+00  8.00000000E-01
  8.00000000E-01  1.50000000E+00  8.00000000E-01  8.00000000E-01  1.50000000E+00
  8.00000000E-01  8.00000000E-01  1.50000000E+00  8.00000000E-01  8.00000000E-01
  1.50000000E+00  8.00000000E-01  8.00000000E-01  1.50000000E+00  8.00000000E-01
  8.00000000E-01  1.50000000E+00  8.00000000E-01  8.00000000E-01  1.50000000E+00
  8.00000000E-01  8.00000000E-01  1.50000000E+00  8.00000000E-01  8.00000000E-01
  1.50000000E+00  8.00000000E-01  8.00000000E-01  1.50000000E+00  8.00000000E-01
  8.00000000E-01  1.50000000E+00  8.00000000E-01  8.00000000E-01  1.50000000E+00
  8.00000000E-01  8.00000000E-01  1.50000000E+00  8.00000000E-01  8.00000000E-01
  1.50000000E+00  8.00000000E-01  8.00000000E-01  1.50000000E+00  8.00000000E-01
  8.00000000E-01  1.50000000E+00  8.00000000E-01  8.00000000E-01  1.50000000E+00
  8.00000000E-01  8.00000000E-01  1.50000000E+00  8.00000000E-01  8.00000000E-01
  1.50000000E+00  8.00000000E-01  8.00000000E-01  1.50000000E+00  8.00000000E-01
  8.00000000E-01  1.50000000E+00  8.00000000E-01  8.00000000E-01  1.50000000E+00
  8.00000000E-01  8.00000000E-01  1.50000000E+00  8.00000000E-01  8.00000000E-01
  1.50000000E+00  8.00000000E-01  8.00000000E-01  1.50000000E+00  8.00000000E-01
  8.00000000E-01  1.50000000E+00  8.00000000E-01  8.00000000E-01  1.50000000E+00
  8.00000000E-01  8.00000000E-01  1.50000000E+00  8.00000000E-01  8.00000000E-01
  1.50000000E+00  8.00000000E-01  8.00000000E-01  1.50000000E+00  8.00000000E-01
  8.00000000E-01  1.50000000E+00  8.00000000E-01  8.00000000E-01  1.50000000E+00
  8.00000000E-01  8.00000000E-01  1.50000000E+00  8.00000000E-01  8.00000000E-01
  1.50000000E+00  8.00000000E-01  8.00000000E-01  1.50000000E+00  8.00000000E-01
  8.00000000E-01  1.50000000E+00  8.00000000E-01  8.00000000E-01  1.50000000E+00
  8.00000000E-01  8.00000000E-01  1.50000000E+00  8.00000000E-01  8.00000000E-01
  1.50000000E+00  8.00000000E-01  8.00000000E-01  1.50000000E+00  8.00000000E-01
  8.00000000E-01  1.50000000E+00  8.00000000E-01  8.00000000E-01  1.50000000E+00
  8.00000000E-01  8.00000000E-01  1.50000000E+00  8.00000000E-01  8.00000000E-01
  1.50000000E+00  8.00000000E-01  8.00000000E-01  1.50000000E+00  8.00000000E-01
  8.00000000E-01  1.50000000E+00  8.00000000E-01  8.00000000E-01  1.50000000E+00
  8.00000000E-01  8.00000000E-01  1.50000000E+00  8.00000000E-01  8.00000000E-01
  1.50000000E+00  8.00000000E-01  8.00000000E-01  1.50000000E+00  8.00000000E-01
  8.00000000E-01  1.50000000E+00  8.00000000E-01  8.00000000E-01  1.50000000E+00
  8.00000000E-01  8.00000000E-01  1.50000000E+00  8.00000000E-01  8.00000000E-01
  1.50000000E+00  8.00000000E-01  8.00000000E-01  1.50000000E+00  8.00000000E-01
  8.00000000E-01  1.50000000E+00  8.00000000E-01  8.00000000E-01  1.50000000E+00
  8.00000000E-01  8.00000000E-01  1.50000000E+00  8.00000000E-01  8.00000000E-01
  1.50000000E+00  8.00000000E-01  8.00000000E-01  1.50000000E+00  8.00000000E-01
  8.00000000E-01  1.50000000E+00  8.00000000E-01  8.00000000E-01  1.50000000E+00
  8.00000000E-01  8.00000000E-01  1.50000000E+00  8.00000000E-01  8.00000000E-01
  1.50000000E+00  8.00000000E-01  8.00000000E-01  1.50000000E+00  8.00000000E-01
  8.00000000E-01  1.50000000E+00  8.00000000E-01  8.00000000E-01  1.50000000E+00
  8.00000000E-01  8.00000000E-01  1.50000000E+00  8.00000000E-01  8.00000000E-01
  1.50000000E+00  8.00000000E-01  8.00000000E-01  1.50000000E+00  8.00000000E-01
  8.00000000E-01  1.50000000E+00  8.00000000E-01  8.00000000E-01  1.50000000E+00
  8.00000000E-01  8.00000000E-01  1.50000000E+00  8.00000000E-01  8.00000000E-01
  1.50000000E+00  8.00000000E-01  8.00000000E-01  1.50000000E+00  8.00000000E-01
  8.00000000E-01  1.50000000E+00  8.00000000E-01  8.00000000E-01  1.50000000E+00
  8.00000000E-01  8.00000000E-01  1.50000000E+00  8.00000000E-01  8.00000000E-01
  1.50000000E+00  8.00000000E-01  8.00000000E-01  1.50000000E+00  8.00000000E-01
  8.00000000E-01  1.50000000E+00  8.00000000E-01  8.00000000E-01  1.50000000E+00
  8.00000000E-01  8.00000000E-01  1.50000000E+00  8.00000000E-01  8.00000000E-01
  1.50000000E+00  8.00000000E-01  8.00000000E-01  1.50000000E+00  8.00000000E-01
  8.00000000E-01  1.50000000E+00  8.00000000E-01  8.00000000E-01  1.50000000E+00
  8.00000000E-01  8.00000000E-01  1.50000000E+00  8.00000000E-01  8.00000000E-01
  1.50000000E+00  8.00000000E-01  8.00000000E-01  1.50000000E+00  8.00000000E-01
  8.00000000E-01  1.50000000E+00  8.00000000E-01  8.00000000E-01  1.50000000E+00
  8.00000000E-01  8.00000000E-01  1.50000000E+00  8.00000000E-01  8.00000000E-01
  1.50000000E+00  8.00000000E-01  8.00000000E-01  1.50000000E+00  8.00000000E-01
  8.00000000E-01  1.50000000E+00  8.00000000E-01  8.00000000E-01  1.50000000E+00
  8.00000000E-01  8.00000000E-01  1.50000000E+00  8.00000000E-01  8.00000000E-01
  1.50000000E+00  8.00000000E-01  8.00000000E-01  1.50000000E+00  8.00000000E-01
  8.00000000E-01  1.50000000E+00  8.00000000E-01  8.00000000E-01  1.50000000E+00
  8.00000000E-01  8.00000000E-01  1.50000000E+00  8.00000000E-01  8.00000000E-01
  1.50000000E+00  8.00000000E-01  8.00000000E-01  1.50000000E+00  8.00000000E-01
  8.00000000E-01  1.50000000E+00  8.00000000E-01  8.00000000E-01  1.50000000E+00
  8.00000000E-01  8.00000000E-01  1.50000000E+00  8.00000000E-01  8.00000000E-01
  1.50000000E+00  8.00000000E-01  8.00000000E-01  1.50000000E+00  8.00000000E-01
  8.00000000E-01  1.50000000E+00  8.00000000E-01  8.00000000E-01  1.50000000E+00
  8.00000000E-01  8.00000000E-01  1.50000000E+00  8.00000000E-01  8.00000000E-01
  1.50000000E+00  8.00000000E-01  8.00000000E-01  1.50000000E+00  8.00000000E-01
  8.00000000E-01  1.50000000E+00  8.00000000E-01  8.00000000E-01  1.50000000E+00
  8.00000000E-01  8.00000000E-01  1.50000000E+00  8.00000000E-01  8.00000000E-01
  1.50000000E+00  8.00000000E-01  8.00000000E-01  1.50000000E+00  8.00000000E-01
  8.00000000E-01  1.50000000E+00  8.00000000E-01  8.00000000E-01  1.50000000E+00
  8.00000000E-01  8.00000000E-01  1.50000000E+00  8.00000000E-01  8.00000000E-01
  1.50000000E+00  8.00000000E-01  8.00000000E-01  1.50000000E+00  8.00000000E-01
  8.00000000E-01  1.50000000E+00  8.00000000E-01  8.00000000E-01  1.50000000E+00
  8.00000000E-01  8.00000000E-01  1.50000000E+00  8.00000000E-01  8.00000000E-01
  1.50000000E+00  8.00000000E-01  8.00000000E-01  1.50000000E+00  8.00000000E-01
  8.00000000E-01  1.50000000E+00  8.00000000E-01  8.00000000E-01  1.50000000E+00
  8.00000000E-01  8.00000000E-01  1.50000000E+00  8.00000000E-01  8.00000000E-01
  1.50000000E+00  8.00000000E-01  8.00000000E-01  1.50000000E+00  8.00000000E-01
  8.00000000E-01  1.50000000E+00  8.00000000E-01  8.00000000E-01  1.50000000E+00
  8.00000000E-01  8.00000000E-01  1.50000000E+00  8.00000000E-01  8.00000000E-01
  1.50000000E+00  8.00000000E-01  8.00000000E-01  1.50000000E+00  8.00000000E-01
  8.00000000E-01  1.50000000E+00  8.00000000E-01  8.00000000E-01  1.50000000E+00
  8.00000000E-01  8.00000000E-01  1.50000000E+00  8.00000000E-01  8.00000000E-01
  1.50000000E+00  8.00000000E-01  8.00000000E-01  1.50000000E+00  8.00000000E-01
  8.00000000E-01  1.50000000E+00  8.00000000E-01  8.00000000E-01  1.50000000E+00
  8.00000000E-01  8.00000000E-01  1.50000000E+00  8.00000000E-01  8.00000000E-01
  1.50000000E+00  8.00000000E-01  8.00000000E-01  1.50000000E+00  8.00000000E-01
  8.00000000E-01  1.50000000E+00  8.00000000E-01  8.00000000E-01  1.50000000E+00
  8.00000000E-01  8.00000000E-01  1.50000000E+00  8.00000000E-01  8.00000000E-01
  1.50000000E+00  8.00000000E-01  8.00000000E-01  1.50000000E+00  8.00000000E-01
  8.00000000E-01  1.50000000E+00  8.00000000E-01  8.00000000E-01  1.50000000E+00
  8.00000000E-01  8.00000000E-01  1.50000000E+00  8.00000000E-01  8.00000000E-01
  1.50000000E+00  8.00000000E-01  8.00000000E-01  1.50000000E+00  8.00000000E-01
  8.00000000E-01  1.50000000E+00  8.00000000E-01  8.00000000E-01  1.50000000E+00
  8.00000000E-01  8.00000000E-01  1.50000000E+00  8.00000000E-01  8.00000000E-01
  1.50000000E+00  8.00000000E-01  8.00000000E-01  1.50000000E+00  8.00000000E-01
  8.00000000E-01  1.50000000E+00  8.00000000E-01  8.00000000E-01  1.50000000E+00
  8.00000000E-01  8.00000000E-01  1.50000000E+00  8.00000000E-01  8.00000000E-01
  1.50000000E+00  8.00000000E-01  8.00000000E-01  1.50000000E+00  8.00000000E-01
  8.00000000E-01  1.50000000E+00  8.00000000E-01  8.00000000E-01  1.50000000E+00
  8.00000000E-01  8.00000000E-01  1.50000000E+00  8.00000000E-01  8.00000000E-01
  1.50000000E+00  8.00000000E-01  8.00000000E-01  1.50000000E+00  8.00000000E-01
  8.00000000E-01  1.50000000E+00  8.00000000E-01  8.00000000E-01  1.50000000E+00
  8.00000000E-01  8.00000000E-01  1.50000000E+00  8.00000000E-01  8.00000000E-01
  1.50000000E+00  8.00000000E-01  8.00000000E-01  1.50000000E+00  8.00000000E-01
  8.00000000E-01  1.50000000E+00  8.00000000E-01  8.00000000E-01  1.50000000E+00
  8.00000000E-01  8.00000000E-01  1.50000000E+00  8.00000000E-01  8.00000000E-01
  1.50000000E+00  8.00000000E-01  8.00000000E-01  1.50000000E+00  8.00000000E-01
  8.00000000E-01  1.50000000E+00  8.00000000E-01  8.00000000E-01  1.50000000E+00
  8.00000000E-01  8.00000000E-01  1.50000000E+00  8.00000000E-01  8.00000000E-01
  1.50000000E+00  8.00000000E-01  8.00000000E-01  1.50000000E+00  8.00000000E-01
  8.00000000E-01  1.50000000E+00  8.00000000E-01  8.00000000E-01  1.50000000E+00
  8.00000000E-01  8.00000000E-01  1.50000000E+00  8.00000000E-01  8.00000000E-01
  1.50000000E+00  8.00000000E-01  8.00000000E-01  1.50000000E+00  8.00000000E-01
  8.00000000E-01  1.50000000E+00  8.00000000E-01  8.00000000E-01  1.50000000E+00
  8.00000000E-01  8.00000000E-01  1.50000000E+00  8.00000000E-01  8.00000000E-01
  1.50000000E+00  8.00000000E-01  8.00000000E-01  1.50000000E+00  8.00000000E-01
  8.00000000E-01  1.50000000E+00  8.00000000E-01  8.00000000E-01  1.50000000E+00
  8.00000000E-01  8.00000000E-01  1.50000000E+00  8.00000000E-01  8.00000000E-01
  1.50000000E+00  8.00000000E-01  8.00000000E-01  1.50000000E+00  8.00000000E-01
  8.00000000E-01  1.50000000E+00  8.00000000E-01  8.00000000E-01  1.50000000E+00
  8.00000000E-01  8.00000000E-01  1.50000000E+00  8.00000000E-01  8.00000000E-01
  1.50000000E+00  8.00000000E-01  8.00000000E-01  1.50000000E+00  8.00000000E-01
  8.00000000E-01  1.50000000E+00  8.00000000E-01  8.00000000E-01  1.50000000E+00
  8.00000000E-01  8.00000000E-01  1.50000000E+00  8.00000000E-01  8.00000000E-01
  1.50000000E+00  8.00000000E-01  8.00000000E-01  1.50000000E+00  8.00000000E-01
  8.00000000E-01  1.50000000E+00  8.00000000E-01  8.00000000E-01  1.50000000E+00
  8.00000000E-01  8.00000000E-01  1.50000000E+00  8.00000000E-01  8.00000000E-01
  1.50000000E+00  8.00000000E-01  8.00000000E-01  1.50000000E+00  8.00000000E-01
  8.00000000E-01  1.50000000E+00  8.00000000E-01  8.00000000E-01  1.50000000E+00
  8.00000000E-01  8.00000000E-01  1.50000000E+00  8.00000000E-01  8.00000000E-01
  1.50000000E+00  8.00000000E-01  8.00000000E-01  1.50000000E+00  8.00000000E-01
  8.00000000E-01  1.50000000E+00  8.00000000E-01  8.00000000E-01  1.50000000E+00
  8.00000000E-01  8.00000000E-01  1.50000000E+00  8.00000000E-01  8.00000000E-01
  1.50000000E+00  8.00000000E-01  8.00000000E-01  1.50000000E+00  8.00000000E-01
  8.00000000E-01  1.50000000E+00  8.00000000E-01  8.00000000E-01  1.50000000E+00
  8.00000000E-01  8.00000000E-01  1.50000000E+00  8.00000000E-01  8.00000000E-01
  1.50000000E+00  8.00000000E-01  8.00000000E-01  1.50000000E+00  8.00000000E-01
  8.00000000E-01  1.50000000E+00  8.00000000E-01  8.00000000E-01  1.50000000E+00
  8.00000000E-01  8.00000000E-01  1.50000000E+00  8.00000000E-01  8.00000000E-01
  1.50000000E+00  8.00000000E-01  8.00000000E-01  1.50000000E+00  8.00000000E-01
  8.00000000E-01  1.50000000E+00  8.00000000E-01  8.00000000E-01  1.50000000E+00
  8.00000000E-01  8.00000000E-01  1.50000000E+00  8.00000000E-01  8.00000000E-01
  1.50000000E+00  8.00000000E-01  8.00000000E-01  1.50000000E+00  8.00000000E-01
  8.00000000E-01  1.50000000E+00  8.00000000E-01  8.00000000E-01  1.50000000E+00
  8.00000000E-01  8.00000000E-01  1.50000000E+00  8.00000000E-01  8.00000000E-01
  1.50000000E+00  8.00000000E-01  8.00000000E-01  1.50000000E+00  8.00000000E-01
  8.00000000E-01  1.50000000E+00  8.00000000E-01  8.00000000E-01  1.50000000E+00
  8.00000000E-01  8.00000000E-01  1.50000000E+00  8.00000000E-01  8.00000000E-01
  1.50000000E+00  8.00000000E-01  8.00000000E-01  1.50000000E+00  8.00000000E-01
  8.00000000E-01  1.50000000E+00  8.00000000E-01  8.00000000E-01  1.50000000E+00
  8.00000000E-01  8.00000000E-01  1.50000000E+00  8.00000000E-01  8.00000000E-01
  1.50000000E+00  8.00000000E-01  8.00000000E-01  1.50000000E+00  8.00000000E-01
  8.00000000E-01  1.50000000E+00  8.00000000E-01  8.00000000E-01  1.50000000E+00
  8.00000000E-01  8.00000000E-01  1.50000000E+00  8.00000000E-01  8.00000000E-01
  1.50000000E+00  8.00000000E-01  8.00000000E-01  1.50000000E+00  8.00000000E-01
  8.00000000E-01  1.50000000E+00  8.00000000E-01  8.00000000E-01  1.50000000E+00
  8.00000000E-01  8.00000000E-01  1.50000000E+00  8.00000000E-01  8.00000000E-01
  1.50000000E+00  8.00000000E-01  8.00000000E-01  1.50000000E+00  8.00000000E-01
  8.00000000E-01  1.50000000E+00  8.00000000E-01  8.00000000E-01  1.50000000E+00
  8.00000000E-01  8.00000000E-01  1.50000000E+00  8.00000000E-01  8.00000000E-01
  1.50000000E+00  8.00000000E-01  8.00000000E-01  1.50000000E+00  8.00000000E-01
  8.00000000E-01  1.50000000E+00  8.00000000E-01  8.00000000E-01  1.50000000E+00
  8.00000000E-01  8.00000000E-01  1.50000000E+00  8.00000000E-01  8.00000000E-01
  1.50000000E+00  8.00000000E-01  8.00000000E-01  1.50000000E+00  8.00000000E-01
  8.00000000E-01  1.50000000E+00  8.00000000E-01  8.00000000E-01  1.50000000E+00
  8.00000000E-01  8.00000000E-01  1.50000000E+00  8.00000000E-01  8.00000000E-01
  1.50000000E+00  8.00000000E-01  8.00000000E-01  1.50000000E+00  8.00000000E-01
  8.00000000E-01  1.50000000E+00  8.00000000E-01  8.00000000E-01  1.50000000E+00
  8.00000000E-01  8.00000000E-01  1.50000000E+00  8.00000000E-01  8.00000000E-01
  1.50000000E+00  8.00000000E-01  8.00000000E-01  1.50000000E+00  8.00000000E-01
  8.00000000E-01  1.50000000E+00  8.00000000E-01  8.00000000E-01  1.50000000E+00
  8.00000000E-01  8.00000000E-01  1.50000000E+00  8.00000000E-01  8.00000000E-01
  1.50000000E+00  8.00000000E-01  8.00000000E-01  1.50000000E+00  8.00000000E-01
  8.00000000E-01  1.50000000E+00  8.00000000E-01  8.00000000E-01  1.50000000E+00
  8.00000000E-01  8.00000000E-01  1.50000000E+00  8.00000000E-01  8.00000000E-01
  1.50000000E+00  8.00000000E-01  8.00000000E-01  1.50000000E+00  8.00000000E-01
  8.00000000E-01  1.50000000E+00  8.00000000E-01  8.00000000E-01  1.50000000E+00
  8.00000000E-01  8.00000000E-01  1.50000000E+00  8.00000000E-01  8.00000000E-01
  1.50000000E+00  8.00000000E-01  8.00000000E-01  1.50000000E+00  8.00000000E-01
  8.00000000E-01  1.50000000E+00  8.00000000E-01  8.00000000E-01  1.50000000E+00
  8.00000000E-01  8.00000000E-01  1.50000000E+00  8.00000000E-01  8.00000000E-01
  1.50000000E+00  8.00000000E-01  8.00000000E-01  1.50000000E+00  8.00000000E-01
  8.00000000E-01  1.50000000E+00  8.00000000E-01  8.00000000E-01  1.50000000E+00
  8.00000000E-01  8.00000000E-01  1.50000000E+00  8.00000000E-01  8.00000000E-01
  1.50000000E+00  8.00000000E-01  8.00000000E-01  1.50000000E+00  8.00000000E-01
  8.00000000E-01  1.50000000E+00  8.00000000E-01  8.00000000E-01  1.50000000E+00
  8.00000000E-01  8.00000000E-01  1.50000000E+00  8.00000000E-01  8.00000000E-01
  1.50000000E+00  8.00000000E-01  8.00000000E-01  1.50000000E+00  8.00000000E-01
  8.00000000E-01  1.50000000E+00  8.00000000E-01  8.00000000E-01  1.50000000E+00
  8.00000000E-01  8.00000000E-01  1.50000000E+00  8.00000000E-01  8.00000000E-01
  1.50000000E+00  8.00000000E-01  8.00000000E-01  1.50000000E+00  8.00000000E-01
  8.00000000E-01  1.50000000E+00  8.00000000E-01  8.00000000E-01  1.50000000E+00
  8.00000000E-01  8.00000000E-01  1.50000000E+00  8.00000000E-01  8.00000000E-01
  1.50000000E+00  8.00000000E-01  8.00000000E-01  1.50000000E+00  8.00000000E-01
  8.00000000E-01  1.50000000E+00  8.00000000E-01  8.00000000E-01  1.50000000E+00
  8.00000000E-01  8.00000000E-01  1.50000000E+00  8.00000000E-01  8.00000000E-01
  1.50000000E+00  8.00000000E-01  8.00000000E-01  1.50000000E+00  8.00000000E-01
  8.00000000E-01  1.50000000E+00  8.00000000E-01  8.00000000E-01  1.50000000E+00
  8.00000000E-01  8.00000000E-01  1.50000000E+00  8.00000000E-01  8.00000000E-01
  1.50000000E+00  8.00000000E-01  8.00000000E-01  1.50000000E+00  8.00000000E-01
  8.00000000E-01  1.50000000E+00  8.00000000E-01  8.00000000E-01  1.50000000E+00
  8.00000000E-01  8.00000000E-01  1.50000000E+00  8.00000000E-01  8.00000000E-01
  1.50000000E+00  8.00000000E-01  8.00000000E-01  1.50000000E+00  8.00000000E-01
  8.00000000E-01  1.50000000E+00  8.00000000E-01  8.00000000E-01  1.50000000E+00
  8.00000000E-01  8.00000000E-01  1.50000000E+00  8.00000000E-01  8.00000000E-01
  1.50000000E+00  8.00000000E-01  8.00000000E-01  1.50000000E+00  8.00000000E-01
  8.00000000E-01  1.50000000E+00  8.00000000E-01  8.00000000E-01  1.50000000E+00
  8.00000000E-01  8.00000000E-01  1.50000000E+00  8.00000000E-01  8.00000000E-01
  1.50000000E+00  8.00000000E-01  8.00000000E-01  1.50000000E+00  8.00000000E-01
  8.00000000E-01  1.50000000E+00  8.00000000E-01  8.00000000E-01  1.50000000E+00
  8.00000000E-01  8.00000000E-01  1.50000000E+00  8.00000000E-01  8.00000000E-01
  1.50000000E+00  8.00000000E-01  8.00000000E-01  1.50000000E+00  8.00000000E-01
  8.00000000E-01  1.50000000E+00  8.00000000E-01  8.00000000E-01  1.50000000E+00
  8.00000000E-01  8.00000000E-01  1.50000000E+00  8.00000000E-01  8.00000000E-01
  1.50000000E+00  8.00000000E-01  8.00000000E-01  1.50000000E+00  8.00000000E-01
  8.00000000E-01  1.50000000E+00  8.00000000E-01  8.00000000E-01  1.50000000E+00
  8.00000000E-01  8.00000000E-01  1.50000000E+00  8.00000000E-01  8.00000000E-01
  1.50000000E+00  8.00000000E-01  8.00000000E-01  1.50000000E+00  8.00000000E-01
  8.00000000E-01  1.50000000E+00  8.00000000E-01  8.00000000E-01  1.50000000E+00
  8.00000000E-01  8.00000000E-01  1.50000000E+00  8.00000000E-01  8.00000000E-01
  1.50000000E+00  8.00000000E-01  8.00000000E-01  1.50000000E+00  8.00000000E-01
  8.00000000E-01  1.50000000E+00  8.00000000E-01  8.00000000E-01  1.50000000E+00
  8.00000000E-01  8.00000000E-01  1.50000000E+00  8.00000000E-01  8.00000000E-01
  1.50000000E+00  8.00000000E-01  8.00000000E-01  1.50000000E+00  8.00000000E-01
  8.00000000E-01  1.50000000E+00  8.00000000E-01  8.00000000E-01  1.50000000E+00
  8.00000000E-01  8.00000000E-01  1.50000000E+00  8.00000000E-01  8.00000000E-01
  1.50000000E+00  8.00000000E-01  8.00000000E-01  1.50000000E+00  8.00000000E-01
  8.00000000E-01  1.50000000E+00  8.00000000E-01  8.00000000E-01  1.50000000E+00
  8.00000000E-01  8.00000000E-01  1.50000000E+00  8.00000000E-01  8.00000000E-01
  1.50000000E+00  8.00000000E-01  8.00000000E-01  1.50000000E+00  8.00000000E-01
  8.00000000E-01  1.50000000E+00  8.00000000E-01  8.00000000E-01  1.50000000E+00
  8.00000000E-01  8.00000000E-01  1.50000000E+00  8.00000000E-01  8.00000000E-01
  1.50000000E+00  8.00000000E-01  8.00000000E-01  1.50000000E+00  8.00000000E-01
  8.00000000E-01  1.50000000E+00  8.00000000E-01  8.00000000E-01  1.50000000E+00
  8.00000000E-01  8.00000000E-01  1.50000000E+00  8.00000000E-01  8.00000000E-01
  1.50000000E+00  8.00000000E-01  8.00000000E-01  1.50000000E+00  8.00000000E-01
  8.00000000E-01  1.50000000E+00  8.00000000E-01  8.00000000E-01  1.50000000E+00
  8.00000000E-01  8.00000000E-01  1.50000000E+00  8.00000000E-01  8.00000000E-01
  1.50000000E+00  8.00000000E-01  8.00000000E-01  1.50000000E+00  8.00000000E-01
  8.00000000E-01  1.50000000E+00  8.00000000E-01  8.00000000E-01  1.50000000E+00
  8.00000000E-01  8.00000000E-01  1.50000000E+00  8.00000000E-01  8.00000000E-01
  1.50000000E+00  8.00000000E-01  8.00000000E-01  1.50000000E+00  8.00000000E-01
  8.00000000E-01  1.50000000E+00  8.00000000E-01  8.00000000E-01  1.50000000E+00
  8.00000000E-01  8.00000000E-01  1.50000000E+00  8.00000000E-01  8.00000000E-01
  1.50000000E+00  8.00000000E-01  8.00000000E-01  1.50000000E+00  8.00000000E-01
  8.00000000E-01  1.50000000E+00  8.00000000E-01  8.00000000E-01  1.50000000E+00
  8.00000000E-01  8.00000000E-01  1.50000000E+00  8.00000000E-01  8.00000000E-01
  1.50000000E+00  8.00000000E-01  8.00000000E-01  1.50000000E+00  8.00000000E-01
  8.00000000E-01  1.50000000E+00  8.00000000E-01  8.00000000E-01  1.50000000E+00
  8.00000000E-01  8.00000000E-01  1.50000000E+00  8.00000000E-01  8.00000000E-01
  1.50000000E+00  8.00000000E-01  8.00000000E-01  1.50000000E+00  8.00000000E-01
  8.00000000E-01  1.50000000E+00  8.00000000E-01  8.00000000E-01  1.50000000E+00
  8.00000000E-01  8.00000000E-01  1.50000000E+00  8.00000000E-01  8.00000000E-01
  1.50000000E+00  8.00000000E-01  8.00000000E-01  1.50000000E+00  8.00000000E-01
  8.00000000E-01  1.50000000E+00  8.00000000E-01  8.00000000E-01  1.50000000E+00
  8.00000000E-01  8.00000000E-01  1.50000000E+00  8.00000000E-01  8.00000000E-01
  1.50000000E+00  8.00000000E-01  8.00000000E-01  1.50000000E+00  8.00000000E-01
  8.00000000E-01  1.50000000E+00  8.00000000E-01  8.00000000E-01  1.50000000E+00
  8.00000000E-01  8.00000000E-01  1.50000000E+00  8.00000000E-01  8.00000000E-01
  1.50000000E+00  8.00000000E-01  8.00000000E-01  1.50000000E+00  8.00000000E-01
  8.00000000E-01  1.50000000E+00  8.00000000E-01  8.00000000E-01  1.50000000E+00
  8.00000000E-01  8.00000000E-01  1.50000000E+00  8.00000000E-01  8.00000000E-01
  1.50000000E+00  8.00000000E-01  8.00000000E-01  1.50000000E+00  8.00000000E-01
  8.00000000E-01  1.50000000E+00  8.00000000E-01  8.00000000E-01  1.50000000E+00
  8.00000000E-01  8.00000000E-01  1.50000000E+00  8.00000000E-01  8.00000000E-01
  1.50000000E+00  8.00000000E-01  8.00000000E-01  1.50000000E+00  8.00000000E-01
  8.00000000E-01  1.50000000E+00  8.00000000E-01  8.00000000E-01  1.50000000E+00
  8.00000000E-01  8.00000000E-01  1.50000000E+00  8.00000000E-01  8.00000000E-01
  1.50000000E+00  8.00000000E-01  8.00000000E-01  1.50000000E+00  8.00000000E-01
  8.00000000E-01  1.50000000E+00  8.00000000E-01  8.00000000E-01  1.50000000E+00
  8.00000000E-01  8.00000000E-01  1.50000000E+00  8.00000000E-01  8.00000000E-01
  1.50000000E+00  8.00000000E-01  8.00000000E-01  1.50000000E+00  8.00000000E-01
  8.00000000E-01  1.50000000E+00  8.00000000E-01  8.00000000E-01  1.50000000E+00
  8.00000000E-01  8.00000000E-01  1.50000000E+00  8.00000000E-01  8.00000000E-01
  1.50000000E+00  8.00000000E-01  8.00000000E-01  1.50000000E+00  8.00000000E-01
  8.00000000E-01  1.50000000E+00  8.00000000E-01  8.00000000E-01  1.50000000E+00
  8.00000000E-01  8.00000000E-01  1.50000000E+00  8.00000000E-01  8.00000000E-01
  1.50000000E+00  8.00000000E-01  8.00000000E-01  1.50000000E+00  8.00000000E-01
  8.00000000E-01  1.50000000E+00  8.00000000E-01  8.00000000E-01  1.50000000E+00
  8.00000000E-01  8.00000000E-01  1.50000000E+00  8.00000000E-01  8.00000000E-01
  1.50000000E+00  8.00000000E-01  8.00000000E-01  1.50000000E+00  8.00000000E-01
  8.00000000E-01  1.50000000E+00  8.00000000E-01  8.00000000E-01  1.50000000E+00
  8.00000000E-01  8.00000000E-01  1.50000000E+00  8.00000000E-01  8.00000000E-01
  1.50000000E+00  8.00000000E-01  8.00000000E-01  1.50000000E+00  8.00000000E-01
  8.00000000E-01  1.50000000E+00  8.00000000E-01  8.00000000E-01  1.50000000E+00
  8.00000000E-01  8.00000000E-01  1.50000000E+00  8.00000000E-01  8.00000000E-01
  1.50000000E+00  8.00000000E-01  8.00000000E-01  1.50000000E+00  8.00000000E-01
  8.00000000E-01  1.50000000E+00  8.00000000E-01  8.00000000E-01  1.50000000E+00
  8.00000000E-01  8.00000000E-01  1.50000000E+00  8.00000000E-01  8.00000000E-01
  1.50000000E+00  8.00000000E-01  8.00000000E-01  1.50000000E+00  8.00000000E-01
  8.00000000E-01  1.50000000E+00  8.00000000E-01  8.00000000E-01  1.50000000E+00
  8.00000000E-01  8.00000000E-01  1.50000000E+00  8.00000000E-01  8.00000000E-01
  1.50000000E+00  8.00000000E-01  8.00000000E-01  1.50000000E+00  8.00000000E-01
  8.00000000E-01  1.50000000E+00  8.00000000E-01  8.00000000E-01  1.50000000E+00
  8.00000000E-01  8.00000000E-01  1.50000000E+00  8.00000000E-01  8.00000000E-01
  1.50000000E+00  8.00000000E-01  8.00000000E-01  1.50000000E+00  8.00000000E-01
  8.00000000E-01  1.50000000E+00  8.00000000E-01  8.00000000E-01  1.50000000E+00
  8.00000000E-01  8.00000000E-01  1.50000000E+00  8.00000000E-01  8.00000000E-01
  1.50000000E+00  8.00000000E-01  8.00000000E-01  1.50000000E+00  8.00000000E-01
  8.00000000E-01  1.50000000E+00  8.00000000E-01  8.00000000E-01  1.50000000E+00
  8.00000000E-01  8.00000000E-01  1.50000000E+00  8.00000000E-01  8.00000000E-01
  1.50000000E+00  8.00000000E-01  8.00000000E-01  1.50000000E+00  8.00000000E-01
  8.00000000E-01  1.50000000E+00  8.00000000E-01  8.00000000E-01  1.50000000E+00
  8.00000000E-01  8.00000000E-01  1.50000000E+00  8.00000000E-01  8.00000000E-01
  1.50000000E+00  8.00000000E-01  8.00000000E-01  1.50000000E+00  8.00000000E-01
  8.00000000E-01  1.50000000E+00  8.00000000E-01  8.00000000E-01  1.50000000E+00
  8.00000000E-01  8.00000000E-01  1.50000000E+00  8.00000000E-01  8.00000000E-01
  1.50000000E+00  8.00000000E-01  8.00000000E-01  1.50000000E+00  8.00000000E-01
  8.00000000E-01  1.50000000E+00  8.00000000E-01  8.00000000E-01  1.50000000E+00
  8.00000000E-01  8.00000000E-01  1.50000000E+00  8.00000000E-01  8.00000000E-01
  1.50000000E+00  8.00000000E-01  8.00000000E-01  1.50000000E+00  8.00000000E-01
  8.00000000E-01  1.50000000E+00  8.00000000E-01  8.00000000E-01  1.50000000E+00
  8.00000000E-01  8.00000000E-01  1.50000000E+00  8.00000000E-01  8.00000000E-01
  1.50000000E+00  8.00000000E-01  8.00000000E-01  1.50000000E+00  8.00000000E-01
  8.00000000E-01  1.50000000E+00  8.00000000E-01  8.00000000E-01  1.50000000E+00
  8.00000000E-01  8.00000000E-01  1.50000000E+00  8.00000000E-01  8.00000000E-01
  1.50000000E+00  8.00000000E-01  8.00000000E-01  1.50000000E+00  8.00000000E-01
  8.00000000E-01  1.50000000E+00  8.00000000E-01  8.00000000E-01  1.50000000E+00
  8.00000000E-01  8.00000000E-01  1.50000000E+00  8.00000000E-01  8.00000000E-01
  1.50000000E+00  8.00000000E-01  8.00000000E-01  1.50000000E+00  8.00000000E-01
  8.00000000E-01  1.50000000E+00  8.00000000E-01  8.00000000E-01  1.50000000E+00
  8.00000000E-01  8.00000000E-01  1.50000000E+00  8.00000000E-01  8.00000000E-01
  1.50000000E+00  8.00000000E-01  8.00000000E-01  1.50000000E+00  8.00000000E-01
  8.00000000E-01  1.50000000E+00  8.00000000E-01  8.00000000E-01  1.50000000E+00
  8.00000000E-01  8.00000000E-01  1.50000000E+00  8.00000000E-01  8.00000000E-01
  1.50000000E+00  8.00000000E-01  8.00000000E-01  1.50000000E+00  8.00000000E-01
  8.00000000E-01  1.50000000E+00  8.00000000E-01  8.00000000E-01  1.50000000E+00
  8.00000000E-01  8.00000000E-01  1.50000000E+00  8.00000000E-01  8.00000000E-01
  1.50000000E+00  8.00000000E-01  8.00000000E-01  1.50000000E+00  8.00000000E-01
  8.00000000E-01  1.50000000E+00  8.00000000E-01  8.00000000E-01  1.50000000E+00
  8.00000000E-01  8.00000000E-01  1.50000000E+00  8.00000000E-01  8.00000000E-01
  1.50000000E+00  8.00000000E-01  8.00000000E-01  1.50000000E+00  8.00000000E-01
  8.00000000E-01  1.50000000E+00  8.00000000E-01  8.00000000E-01  1.50000000E+00
  8.00000000E-01  8.00000000E-01  1.50000000E+00  8.00000000E-01  8.00000000E-01
  1.50000000E+00  8.00000000E-01  8.00000000E-01  1.50000000E+00  8.00000000E-01
  8.00000000E-01  1.50000000E+00  8.00000000E-01  8.00000000E-01  1.50000000E+00
  8.00000000E-01  8.00000000E-01  1.50000000E+00  8.00000000E-01  8.00000000E-01
  1.50000000E+00  8.00000000E-01  8.00000000E-01  1.50000000E+00  8.00000000E-01
  8.00000000E-01  1.50000000E+00  8.00000000E-01  8.00000000E-01  1.50000000E+00
  8.00000000E-01  8.00000000E-01  1.50000000E+00  8.00000000E-01  8.00000000E-01
  1.50000000E+00  8.00000000E-01  8.00000000E-01  1.50000000E+00  8.00000000E-01
  8.00000000E-01  1.50000000E+00  8.00000000E-01  8.00000000E-01  1.50000000E+00
  8.00000000E-01  8.00000000E-01  1.50000000E+00  8.00000000E-01  8.00000000E-01
  1.50000000E+00  8.00000000E-01  8.00000000E-01  1.50000000E+00  8.00000000E-01
  8.00000000E-01  1.50000000E+00  8.00000000E-01  8.00000000E-01  1.50000000E+00
  8.00000000E-01  8.00000000E-01  1.50000000E+00  8.00000000E-01  8.00000000E-01
  1.50000000E+00  8.00000000E-01  8.00000000E-01  1.50000000E+00  8.00000000E-01
  8.00000000E-01  1.50000000E+00  8.00000000E-01  8.00000000E-01  1.50000000E+00
  8.00000000E-01  8.00000000E-01  1.50000000E+00  8.00000000E-01  8.00000000E-01
  1.50000000E+00  8.00000000E-01  8.00000000E-01  1.50000000E+00  8.00000000E-01
  8.00000000E-01  1.50000000E+00  8.00000000E-01  8.00000000E-01  1.50000000E+00
  8.00000000E-01  8.00000000E-01  1.50000000E+00  8.00000000E-01  8.00000000E-01
  1.50000000E+00  8.00000000E-01  8.00000000E-01  1.50000000E+00  8.00000000E-01
  8.00000000E-01  1.50000000E+00  8.00000000E-01  8.00000000E-01  1.50000000E+00
  8.00000000E-01  8.00000000E-01  1.50000000E+00  8.00000000E-01  8.00000000E-01
  1.50000000E+00  8.00000000E-01  8.00000000E-01  1.50000000E+00  8.00000000E-01
  8.00000000E-01  1.50000000E+00  8.00000000E-01  8.00000000E-01  1.50000000E+00
  8.00000000E-01  8.00000000E-01  1.50000000E+00  8.00000000E-01  8.00000000E-01
  1.50000000E+00  8.00000000E-01  8.00000000E-01  1.50000000E+00  8.00000000E-01
  8.00000000E-01  1.50000000E+00  8.00000000E-01  8.00000000E-01  1.50000000E+00
  8.00000000E-01  8.00000000E-01  1.50000000E+00  8.00000000E-01  8.00000000E-01
  1.50000000E+00  8.00000000E-01  8.00000000E-01  1.50000000E+00  8.00000000E-01
  8.00000000E-01  1.50000000E+00  8.00000000E-01  8.00000000E-01  1.50000000E+00
  8.00000000E-01  8.00000000E-01  1.50000000E+00  8.00000000E-01  8.00000000E-01
  1.50000000E+00  8.00000000E-01  8.00000000E-01  1.50000000E+00  8.00000000E-01
  8.00000000E-01  1.50000000E+00  8.00000000E-01  8.00000000E-01  1.50000000E+00
  8.00000000E-01  8.00000000E-01  1.50000000E+00  8.00000000E-01  8.00000000E-01
  1.50000000E+00  8.00000000E-01  8.00000000E-01  1.50000000E+00  8.00000000E-01
  8.00000000E-01  1.50000000E+00  8.00000000E-01  8.00000000E-01  1.50000000E+00
  8.00000000E-01  8.00000000E-01  1.50000000E+00  8.00000000E-01  8.00000000E-01
  1.50000000E+00  8.00000000E-01  8.00000000E-01  1.50000000E+00  8.00000000E-01
  8.00000000E-01  1.50000000E+00  8.00000000E-01  8.00000000E-01  1.50000000E+00
  8.00000000E-01  8.00000000E-01  1.50000000E+00  8.00000000E-01  8.00000000E-01
  1.50000000E+00  8.00000000E-01  8.00000000E-01  1.50000000E+00  8.00000000E-01
  8.00000000E-01  1.50000000E+00  8.00000000E-01  8.00000000E-01  1.50000000E+00
  8.00000000E-01  8.00000000E-01  1.50000000E+00  8.00000000E-01  8.00000000E-01
  1.50000000E+00  8.00000000E-01  8.00000000E-01  1.50000000E+00  8.00000000E-01
  8.00000000E-01  1.50000000E+00  8.00000000E-01  8.00000000E-01  1.50000000E+00
  8.00000000E-01  8.00000000E-01  1.50000000E+00  8.00000000E-01  8.00000000E-01
  1.50000000E+00  8.00000000E-01  8.00000000E-01  1.50000000E+00  8.00000000E-01
  8.00000000E-01  1.50000000E+00  8.00000000E-01  8.00000000E-01  1.50000000E+00
  8.00000000E-01  8.00000000E-01  1.50000000E+00  8.00000000E-01  8.00000000E-01
  1.50000000E+00  8.00000000E-01  8.00000000E-01  1.50000000E+00  8.00000000E-01
  8.00000000E-01  1.50000000E+00  8.00000000E-01  8.00000000E-01  1.50000000E+00
  8.00000000E-01  8.00000000E-01  1.50000000E+00  8.00000000E-01  8.00000000E-01
  1.50000000E+00  8.00000000E-01  8.00000000E-01  1.50000000E+00  8.00000000E-01
  8.00000000E-01  1.50000000E+00  8.00000000E-01  8.00000000E-01  1.50000000E+00
  8.00000000E-01  8.00000000E-01  1.50000000E+00  8.00000000E-01  8.00000000E-01
  1.50000000E+00  8.00000000E-01  8.00000000E-01  1.50000000E+00  8.00000000E-01
  8.00000000E-01  1.50000000E+00  8.00000000E-01  8.00000000E-01  1.50000000E+00
  8.00000000E-01  8.00000000E-01  1.50000000E+00  8.00000000E-01  8.00000000E-01
  1.50000000E+00  8.00000000E-01  8.00000000E-01  1.50000000E+00  8.00000000E-01
  8.00000000E-01  1.50000000E+00  8.00000000E-01  8.00000000E-01  1.50000000E+00
  8.00000000E-01  8.00000000E-01  1.50000000E+00  8.00000000E-01  8.00000000E-01
  1.50000000E+00  8.00000000E-01  8.00000000E-01  1.50000000E+00  8.00000000E-01
  8.00000000E-01  1.50000000E+00  8.00000000E-01  8.00000000E-01  1.50000000E+00
  8.00000000E-01  8.00000000E-01  1.50000000E+00  8.00000000E-01  8.00000000E-01
  1.50000000E+00  8.00000000E-01  8.00000000E-01  1.50000000E+00  8.00000000E-01
  8.00000000E-01  1.50000000E+00  8.00000000E-01  8.00000000E-01  1.50000000E+00
  8.00000000E-01  8.00000000E-01  1.50000000E+00  8.00000000E-01  8.00000000E-01
  1.50000000E+00  8.00000000E-01  8.00000000E-01  1.50000000E+00  8.00000000E-01
  8.00000000E-01  1.50000000E+00  8.00000000E-01  8.00000000E-01  1.50000000E+00
  8.00000000E-01  8.00000000E-01  1.50000000E+00  8.00000000E-01  8.00000000E-01
  1.50000000E+00  8.00000000E-01  8.00000000E-01  1.50000000E+00  8.00000000E-01
  8.00000000E-01  1.50000000E+00  8.00000000E-01  8.00000000E-01  1.50000000E+00
  8.00000000E-01  8.00000000E-01  1.50000000E+00  8.00000000E-01  8.00000000E-01
  1.50000000E+00  8.00000000E-01  8.00000000E-01  1.50000000E+00  8.00000000E-01
  8.00000000E-01  1.50000000E+00  8.00000000E-01  8.00000000E-01  1.50000000E+00
  8.00000000E-01  8.00000000E-01  1.50000000E+00  8.00000000E-01  8.00000000E-01
  1.50000000E+00  8.00000000E-01  8.00000000E-01  1.50000000E+00  8.00000000E-01
  8.00000000E-01  1.50000000E+00  8.00000000E-01  8.00000000E-01  1.50000000E+00
  8.00000000E-01  8.00000000E-01  1.50000000E+00  8.00000000E-01  8.00000000E-01
  1.50000000E+00  8.00000000E-01  8.00000000E-01  1.50000000E+00  8.00000000E-01
  8.00000000E-01  1.50000000E+00  8.00000000E-01  8.00000000E-01  1.50000000E+00
  8.00000000E-01  8.00000000E-01  1.50000000E+00  8.00000000E-01  8.00000000E-01
  1.50000000E+00  8.00000000E-01  8.00000000E-01  1.50000000E+00  8.00000000E-01
  8.00000000E-01  1.50000000E+00  8.00000000E-01  8.00000000E-01  1.50000000E+00
  8.00000000E-01  8.00000000E-01  1.50000000E+00  8.00000000E-01  8.00000000E-01
  1.50000000E+00  8.00000000E-01  8.00000000E-01  1.50000000E+00  8.00000000E-01
  8.00000000E-01  1.50000000E+00  8.00000000E-01  8.00000000E-01  1.50000000E+00
  8.00000000E-01  8.00000000E-01  1.50000000E+00  8.00000000E-01  8.00000000E-01
  1.50000000E+00  8.00000000E-01  8.00000000E-01  1.50000000E+00  8.00000000E-01
  8.00000000E-01  1.50000000E+00  8.00000000E-01  8.00000000E-01  1.50000000E+00
  8.00000000E-01  8.00000000E-01  1.50000000E+00  8.00000000E-01  8.00000000E-01
  1.50000000E+00  8.00000000E-01  8.00000000E-01  1.50000000E+00  8.00000000E-01
  8.00000000E-01  1.50000000E+00  8.00000000E-01  8.00000000E-01  1.50000000E+00
  8.00000000E-01  8.00000000E-01  1.50000000E+00  8.00000000E-01  8.00000000E-01
  1.50000000E+00  8.00000000E-01  8.00000000E-01  1.50000000E+00  8.00000000E-01
  8.00000000E-01  1.50000000E+00  8.00000000E-01  8.00000000E-01  1.50000000E+00
  8.00000000E-01  8.00000000E-01  1.50000000E+00  8.00000000E-01  8.00000000E-01
  1.50000000E+00  8.00000000E-01  8.00000000E-01  1.50000000E+00  8.00000000E-01
  8.00000000E-01  1.50000000E+00  8.00000000E-01  8.00000000E-01  1.50000000E+00
  8.00000000E-01  8.00000000E-01  1.50000000E+00  8.00000000E-01  8.00000000E-01
  1.50000000E+00  8.00000000E-01  8.00000000E-01  1.50000000E+00  8.00000000E-01
  8.00000000E-01  1.50000000E+00  8.00000000E-01  8.00000000E-01  1.50000000E+00
  8.00000000E-01  8.00000000E-01  1.50000000E+00  8.00000000E-01  8.00000000E-01
  1.50000000E+00  8.00000000E-01  8.00000000E-01  1.50000000E+00  8.00000000E-01
  8.00000000E-01  1.50000000E+00  8.00000000E-01  8.00000000E-01  1.50000000E+00
  8.00000000E-01  8.00000000E-01  1.50000000E+00  8.00000000E-01  8.00000000E-01
  1.50000000E+00  8.00000000E-01  8.00000000E-01  1.50000000E+00  8.00000000E-01
  8.00000000E-01  1.50000000E+00  8.00000000E-01  8.00000000E-01  1.50000000E+00
  8.00000000E-01  8.00000000E-01  1.50000000E+00  8.00000000E-01  8.00000000E-01
  1.50000000E+00  8.00000000E-01  8.00000000E-01  1.50000000E+00  8.00000000E-01
  8.00000000E-01  1.50000000E+00  8.00000000E-01  8.00000000E-01  1.50000000E+00
  8.00000000E-01  8.00000000E-01  1.50000000E+00  8.00000000E-01  8.00000000E-01
  1.50000000E+00  8.00000000E-01  8.00000000E-01  1.50000000E+00  8.00000000E-01
  8.00000000E-01  1.50000000E+00  8.00000000E-01  8.00000000E-01  1.50000000E+00
  8.00000000E-01  8.00000000E-01  1.50000000E+00  8.00000000E-01  8.00000000E-01
  1.50000000E+00  8.00000000E-01  8.00000000E-01  1.50000000E+00  8.00000000E-01
  8.00000000E-01  1.50000000E+00  8.00000000E-01  8.00000000E-01  1.50000000E+00
  8.00000000E-01  8.00000000E-01  1.50000000E+00  8.00000000E-01  8.00000000E-01
  1.50000000E+00  8.00000000E-01  8.00000000E-01  1.50000000E+00  8.00000000E-01
  8.00000000E-01  1.50000000E+00  8.00000000E-01  8.00000000E-01  1.50000000E+00
  8.00000000E-01  8.00000000E-01  1.50000000E+00  8.00000000E-01  8.00000000E-01
  1.50000000E+00  8.00000000E-01  8.00000000E-01  1.50000000E+00  8.00000000E-01
  8.00000000E-01  1.50000000E+00  8.00000000E-01  8.00000000E-01  1.50000000E+00
  8.00000000E-01  8.00000000E-01  1.50000000E+00  8.00000000E-01  8.00000000E-01
  1.50000000E+00  8.00000000E-01  8.00000000E-01  1.50000000E+00  8.00000000E-01
  8.00000000E-01  1.50000000E+00  8.00000000E-01  8.00000000E-01  1.50000000E+00
  8.00000000E-01  8.00000000E-01  1.50000000E+00  8.00000000E-01  8.00000000E-01
  1.50000000E+00  8.00000000E-01  8.00000000E-01  1.50000000E+00  8.00000000E-01
  8.00000000E-01  1.50000000E+00  8.00000000E-01  8.00000000E-01  1.50000000E+00
  8.00000000E-01  8.00000000E-01  1.50000000E+00  8.00000000E-01  8.00000000E-01
  1.50000000E+00  8.00000000E-01  8.00000000E-01  1.50000000E+00  8.00000000E-01
  8.00000000E-01  1.50000000E+00  8.00000000E-01  8.00000000E-01  1.50000000E+00
  8.00000000E-01  8.00000000E-01  1.50000000E+00  8.00000000E-01  8.00000000E-01
  1.50000000E+00  8.00000000E-01  8.00000000E-01  1.50000000E+00  8.00000000E-01
  8.00000000E-01  1.50000000E+00  8.00000000E-01  8.00000000E-01  1.50000000E+00
  8.00000000E-01  8.00000000E-01  1.50000000E+00  8.00000000E-01  8.00000000E-01
  1.50000000E+00  8.00000000E-01  8.00000000E-01  1.50000000E+00  8.00000000E-01
  8.00000000E-01  1.50000000E+00  8.00000000E-01  8.00000000E-01  1.50000000E+00
  8.00000000E-01  8.00000000E-01  1.50000000E+00  8.00000000E-01  8.00000000E-01
  1.50000000E+00  8.00000000E-01  8.00000000E-01  1.50000000E+00  8.00000000E-01
  8.00000000E-01  1.50000000E+00  8.00000000E-01  8.00000000E-01  1.50000000E+00
  8.00000000E-01  8.00000000E-01  1.50000000E+00  8.00000000E-01  8.00000000E-01
  1.50000000E+00  8.00000000E-01  8.00000000E-01  1.50000000E+00  8.00000000E-01
  8.00000000E-01  1.50000000E+00  8.00000000E-01  8.00000000E-01  1.50000000E+00
  8.00000000E-01  8.00000000E-01  1.50000000E+00  8.00000000E-01  8.00000000E-01
  1.50000000E+00  8.00000000E-01  8.00000000E-01  1.50000000E+00  8.00000000E-01
  8.00000000E-01  1.50000000E+00  8.00000000E-01  8.00000000E-01  1.50000000E+00
  8.00000000E-01  8.00000000E-01  1.50000000E+00  8.00000000E-01  8.00000000E-01
  1.50000000E+00  8.00000000E-01  8.00000000E-01  1.50000000E+00  8.00000000E-01
  8.00000000E-01  1.50000000E+00  8.00000000E-01  8.00000000E-01  1.50000000E+00
  8.00000000E-01  8.00000000E-01  1.50000000E+00  8.00000000E-01  8.00000000E-01
  1.50000000E+00  8.00000000E-01  8.00000000E-01  1.50000000E+00  8.00000000E-01
  8.00000000E-01  1.50000000E+00  8.00000000E-01  8.00000000E-01  1.50000000E+00
  8.00000000E-01  8.00000000E-01  1.50000000E+00  8.00000000E-01  8.00000000E-01
  1.50000000E+00  8.00000000E-01  8.00000000E-01  1.50000000E+00  8.00000000E-01
  8.00000000E-01  1.50000000E+00  8.00000000E-01  8.00000000E-01  1.50000000E+00
  8.00000000E-01  8.00000000E-01  1.50000000E+00  8.00000000E-01  8.00000000E-01
  1.50000000E+00  8.00000000E-01  8.00000000E-01  1.50000000E+00  8.00000000E-01
  8.00000000E-01  1.50000000E+00  8.00000000E-01  8.00000000E-01  1.50000000E+00
  8.00000000E-01  8.00000000E-01  1.50000000E+00  8.00000000E-01  8.00000000E-01
  1.50000000E+00  8.00000000E-01  8.00000000E-01  1.50000000E+00  8.00000000E-01
  8.00000000E-01  1.50000000E+00  8.00000000E-01  8.00000000E-01  1.50000000E+00
  8.00000000E-01  8.00000000E-01  1.50000000E+00  8.00000000E-01  8.00000000E-01
  1.50000000E+00  8.00000000E-01  8.00000000E-01  1.50000000E+00  8.00000000E-01
  8.00000000E-01  1.50000000E+00  8.00000000E-01  8.00000000E-01  1.50000000E+00
  8.00000000E-01  8.00000000E-01  1.50000000E+00  8.00000000E-01  8.00000000E-01
  1.50000000E+00  8.00000000E-01  8.00000000E-01  1.50000000E+00  8.00000000E-01
  8.00000000E-01  1.50000000E+00  8.00000000E-01  8.00000000E-01  1.50000000E+00
  8.00000000E-01  8.00000000E-01  1.50000000E+00  8.00000000E-01  8.00000000E-01
  1.50000000E+00  8.00000000E-01  8.00000000E-01  1.50000000E+00  8.00000000E-01
  8.00000000E-01  1.50000000E+00  8.00000000E-01  8.00000000E-01  1.50000000E+00
  8.00000000E-01  8.00000000E-01  1.50000000E+00  8.00000000E-01  8.00000000E-01
  1.50000000E+00  8.00000000E-01  8.00000000E-01  1.50000000E+00  8.00000000E-01
  8.00000000E-01  1.50000000E+00  8.00000000E-01  8.00000000E-01  1.50000000E+00
  8.00000000E-01  8.00000000E-01  1.50000000E+00  8.00000000E-01  8.00000000E-01
  1.50000000E+00  8.00000000E-01  8.00000000E-01  1.50000000E+00  8.00000000E-01
  8.00000000E-01  1.50000000E+00  8.00000000E-01  8.00000000E-01  1.50000000E+00
  8.00000000E-01  8.00000000E-01  1.50000000E+00  8.00000000E-01  8.00000000E-01
  1.50000000E+00  8.00000000E-01  8.00000000E-01  1.50000000E+00  8.00000000E-01
  8.00000000E-01  1.50000000E+00  8.00000000E-01  8.00000000E-01  1.50000000E+00
  8.00000000E-01  8.00000000E-01  1.50000000E+00  8.00000000E-01  8.00000000E-01
  1.50000000E+00  8.00000000E-01  8.00000000E-01  1.50000000E+00  8.00000000E-01
  8.00000000E-01  1.50000000E+00  8.00000000E-01  8.00000000E-01  1.50000000E+00
  8.00000000E-01  8.00000000E-01  1.50000000E+00  8.00000000E-01  8.00000000E-01
  1.50000000E+00  8.00000000E-01  8.00000000E-01  1.50000000E+00  8.00000000E-01
  8.00000000E-01  1.50000000E+00  8.00000000E-01  8.00000000E-01  1.50000000E+00
  8.00000000E-01  8.00000000E-01  1.50000000E+00  8.00000000E-01  8.00000000E-01
  1.50000000E+00  8.00000000E-01  8.00000000E-01  1.50000000E+00  8.00000000E-01
  8.00000000E-01  1.50000000E+00  8.00000000E-01  8.00000000E-01  1.50000000E+00
  8.00000000E-01  8.00000000E-01  1.50000000E+00  8.00000000E-01  8.00000000E-01
  1.50000000E+00  8.00000000E-01  8.00000000E-01  1.50000000E+00  8.00000000E-01
  8.00000000E-01  1.50000000E+00  8.00000000E-01  8.00000000E-01  1.50000000E+00
  8.00000000E-01  8.00000000E-01  1.50000000E+00  8.00000000E-01  8.00000000E-01
  1.50000000E+00  8.00000000E-01  8.00000000E-01  1.50000000E+00  8.00000000E-01
  8.00000000E-01  1.50000000E+00  8.00000000E-01  8.00000000E-01  1.50000000E+00
  8.00000000E-01  8.00000000E-01  1.50000000E+00  8.00000000E-01  8.00000000E-01
  1.50000000E+00  8.00000000E-01  8.00000000E-01  1.50000000E+00  8.00000000E-01
  8.00000000E-01  1.50000000E+00  8.00000000E-01  8.00000000E-01  1.50000000E+00
  8.00000000E-01  8.00000000E-01  1.50000000E+00  8.00000000E-01  8.00000000E-01
  1.50000000E+00  8.00000000E-01  8.00000000E-01  1.50000000E+00  8.00000000E-01
  8.00000000E-01  1.50000000E+00  8.00000000E-01  8.00000000E-01  1.50000000E+00
  8.00000000E-01  8.00000000E-01  1.50000000E+00  8.00000000E-01  8.00000000E-01
  1.50000000E+00  8.00000000E-01  8.00000000E-01  1.50000000E+00  8.00000000E-01
  8.00000000E-01  1.50000000E+00  8.00000000E-01  8.00000000E-01  1.50000000E+00
  8.00000000E-01  8.00000000E-01  1.50000000E+00  8.00000000E-01  8.00000000E-01
  1.50000000E+00  8.00000000E-01  8.00000000E-01  1.50000000E+00  8.00000000E-01
  8.00000000E-01  1.50000000E+00  8.00000000E-01  8.00000000E-01  1.50000000E+00
  8.00000000E-01  8.00000000E-01  1.50000000E+00  8.00000000E-01  8.00000000E-01
  1.50000000E+00  8.00000000E-01  8.00000000E-01  1.50000000E+00  8.00000000E-01
  8.00000000E-01  1.50000000E+00  8.00000000E-01  8.00000000E-01  1.50000000E+00
  8.00000000E-01  8.00000000E-01  1.50000000E+00  8.00000000E-01  8.00000000E-01
  1.50000000E+00  8.00000000E-01  8.00000000E-01  1.50000000E+00  8.00000000E-01
  8.00000000E-01  1.50000000E+00  8.00000000E-01  8.00000000E-01  1.50000000E+00
  8.00000000E-01  8.00000000E-01  1.50000000E+00  8.00000000E-01  8.00000000E-01
  1.50000000E+00  8.00000000E-01  8.00000000E-01  1.50000000E+00  8.00000000E-01
  8.00000000E-01  1.50000000E+00  8.00000000E-01  8.00000000E-01  1.50000000E+00
  8.00000000E-01  8.00000000E-01  1.50000000E+00  8.00000000E-01  8.00000000E-01
  1.50000000E+00  8.00000000E-01  8.00000000E-01  1.50000000E+00  8.00000000E-01
  8.00000000E-01  1.50000000E+00  8.00000000E-01  8.00000000E-01  1.50000000E+00
  8.00000000E-01  8.00000000E-01  1.50000000E+00  8.00000000E-01  8.00000000E-01
  1.50000000E+00  8.00000000E-01  8.00000000E-01  1.50000000E+00  8.00000000E-01
  8.00000000E-01  1.50000000E+00  8.00000000E-01  8.00000000E-01  1.50000000E+00
  8.00000000E-01  8.00000000E-01  1.50000000E+00  8.00000000E-01  8.00000000E-01
  1.50000000E+00  8.00000000E-01  8.00000000E-01  1.50000000E+00  8.00000000E-01
  8.00000000E-01  1.50000000E+00  8.00000000E-01  8.00000000E-01  1.50000000E+00
  8.00000000E-01  8.00000000E-01  1.50000000E+00  8.00000000E-01  8.00000000E-01
  1.50000000E+00  8.00000000E-01  8.00000000E-01  1.50000000E+00  8.00000000E-01
  8.00000000E-01  1.50000000E+00  8.00000000E-01  8.00000000E-01  1.50000000E+00
  8.00000000E-01  8.00000000E-01  1.50000000E+00  8.00000000E-01  8.00000000E-01
  1.50000000E+00  8.00000000E-01  8.00000000E-01  1.50000000E+00  8.00000000E-01
  8.00000000E-01  1.50000000E+00  8.00000000E-01  8.00000000E-01  1.50000000E+00
  8.00000000E-01  8.00000000E-01  1.50000000E+00  8.00000000E-01  8.00000000E-01
  1.50000000E+00  8.00000000E-01  8.00000000E-01  1.50000000E+00  8.00000000E-01
  8.00000000E-01  1.50000000E+00  8.00000000E-01  8.00000000E-01  1.50000000E+00
  8.00000000E-01  8.00000000E-01  1.50000000E+00  8.00000000E-01  8.00000000E-01
  1.50000000E+00  8.00000000E-01  8.00000000E-01  1.50000000E+00  8.00000000E-01
  8.00000000E-01  1.50000000E+00  8.00000000E-01  8.00000000E-01  1.50000000E+00
  8.00000000E-01  8.00000000E-01  1.50000000E+00  8.00000000E-01  8.00000000E-01
  1.50000000E+00  8.00000000E-01  8.00000000E-01  1.50000000E+00  8.00000000E-01
  8.00000000E-01  1.50000000E+00  8.00000000E-01  8.00000000E-01  1.50000000E+00
  8.00000000E-01  8.00000000E-01  1.50000000E+00  8.00000000E-01  8.00000000E-01
  1.50000000E+00  8.00000000E-01  8.00000000E-01  1.50000000E+00  8.00000000E-01
  8.00000000E-01  1.50000000E+00  8.00000000E-01  8.00000000E-01  1.50000000E+00
  8.00000000E-01  8.00000000E-01  1.50000000E+00  8.00000000E-01  8.00000000E-01
  1.50000000E+00  8.00000000E-01  8.00000000E-01  1.50000000E+00  8.00000000E-01
  8.00000000E-01  1.50000000E+00  8.00000000E-01  8.00000000E-01  1.50000000E+00
  8.00000000E-01  8.00000000E-01  1.50000000E+00  8.00000000E-01  8.00000000E-01
  1.50000000E+00  8.00000000E-01  8.00000000E-01  1.50000000E+00  8.00000000E-01
  8.00000000E-01  1.50000000E+00  8.00000000E-01  8.00000000E-01  1.50000000E+00
  8.00000000E-01  8.00000000E-01  1.50000000E+00  8.00000000E-01  8.00000000E-01
  1.50000000E+00  8.00000000E-01  8.00000000E-01  1.50000000E+00  8.00000000E-01
  8.00000000E-01  1.50000000E+00  8.00000000E-01  8.00000000E-01  1.50000000E+00
  8.00000000E-01  8.00000000E-01  1.50000000E+00  8.00000000E-01  8.00000000E-01
  1.50000000E+00  8.00000000E-01  8.00000000E-01  1.50000000E+00  8.00000000E-01
  8.00000000E-01  1.50000000E+00  8.00000000E-01  8.00000000E-01  1.50000000E+00
  8.00000000E-01  8.00000000E-01  1.50000000E+00  8.00000000E-01  8.00000000E-01
  1.50000000E+00  8.00000000E-01  8.00000000E-01  1.50000000E+00  8.00000000E-01
  8.00000000E-01  1.50000000E+00  8.00000000E-01  8.00000000E-01  1.50000000E+00
  8.00000000E-01  8.00000000E-01  1.50000000E+00  8.00000000E-01  8.00000000E-01
  1.50000000E+00  8.00000000E-01  8.00000000E-01  1.50000000E+00  8.00000000E-01
  8.00000000E-01  1.50000000E+00  8.00000000E-01  8.00000000E-01  1.50000000E+00
  8.00000000E-01  8.00000000E-01  1.50000000E+00  8.00000000E-01  8.00000000E-01
  1.50000000E+00  8.00000000E-01  8.00000000E-01  1.50000000E+00  8.00000000E-01
  8.00000000E-01  1.50000000E+00  8.00000000E-01  8.00000000E-01  1.50000000E+00
  8.00000000E-01  8.00000000E-01  1.50000000E+00  8.00000000E-01  8.00000000E-01
  1.50000000E+00  8.00000000E-01  8.00000000E-01  1.50000000E+00  8.00000000E-01
  8.00000000E-01  1.50000000E+00  8.00000000E-01  8.00000000E-01  1.50000000E+00
  8.00000000E-01  8.00000000E-01  1.50000000E+00  8.00000000E-01  8.00000000E-01
  1.50000000E+00  8.00000000E-01  8.00000000E-01  1.50000000E+00  8.00000000E-01
  8.00000000E-01  1.50000000E+00  8.00000000E-01  8.00000000E-01  1.50000000E+00
  8.00000000E-01  8.00000000E-01  1.50000000E+00  8.00000000E-01  8.00000000E-01
  1.50000000E+00  8.00000000E-01  8.00000000E-01  1.50000000E+00  8.00000000E-01
  8.00000000E-01  1.50000000E+00  8.00000000E-01  8.00000000E-01  1.50000000E+00
  8.00000000E-01  8.00000000E-01  1.50000000E+00  8.00000000E-01  8.00000000E-01
  1.50000000E+00  8.00000000E-01  8.00000000E-01  1.50000000E+00  8.00000000E-01
  8.00000000E-01  1.50000000E+00  8.00000000E-01  8.00000000E-01  1.50000000E+00
  8.00000000E-01  8.00000000E-01  1.50000000E+00  8.00000000E-01  8.00000000E-01
  1.50000000E+00  8.00000000E-01  8.00000000E-01  1.50000000E+00  8.00000000E-01
  8.00000000E-01  1.50000000E+00  8.00000000E-01  8.00000000E-01  1.50000000E+00
  8.00000000E-01  8.00000000E-01  1.50000000E+00  8.00000000E-01  8.00000000E-01
  1.50000000E+00  8.00000000E-01  8.00000000E-01  1.50000000E+00  8.00000000E-01
  8.00000000E-01  1.50000000E+00  8.00000000E-01  8.00000000E-01  1.50000000E+00
  8.00000000E-01  8.00000000E-01  1.50000000E+00  8.00000000E-01  8.00000000E-01
  1.50000000E+00  8.00000000E-01  8.00000000E-01  1.50000000E+00  8.00000000E-01
  8.00000000E-01  1.50000000E+00  8.00000000E-01  8.00000000E-01  1.50000000E+00
  8.00000000E-01  8.00000000E-01  1.50000000E+00  8.00000000E-01  8.00000000E-01
  1.50000000E+00  8.00000000E-01  8.00000000E-01  1.50000000E+00  8.00000000E-01
  8.00000000E-01  1.50000000E+00  8.00000000E-01  8.00000000E-01  1.50000000E+00
  8.00000000E-01  8.00000000E-01  1.50000000E+00  8.00000000E-01  8.00000000E-01
  1.50000000E+00  8.00000000E-01  8.00000000E-01  1.50000000E+00  8.00000000E-01
  8.00000000E-01  1.50000000E+00  8.00000000E-01  8.00000000E-01  1.50000000E+00
  8.00000000E-01  8.00000000E-01  1.50000000E+00  8.00000000E-01  8.00000000E-01
  1.50000000E+00  8.00000000E-01  8.00000000E-01  1.50000000E+00  8.00000000E-01
  8.00000000E-01  1.50000000E+00  8.00000000E-01  8.00000000E-01  1.50000000E+00
  8.00000000E-01  8.00000000E-01  1.50000000E+00  8.00000000E-01  8.00000000E-01
  1.50000000E+00  8.00000000E-01  8.00000000E-01  1.50000000E+00  8.00000000E-01
  8.00000000E-01  1.50000000E+00  8.00000000E-01  8.00000000E-01  1.50000000E+00
  8.00000000E-01  8.00000000E-01  1.50000000E+00  8.00000000E-01  8.00000000E-01
  1.50000000E+00  8.00000000E-01  8.00000000E-01  1.50000000E+00  8.00000000E-01
  8.00000000E-01  1.50000000E+00  8.00000000E-01  8.00000000E-01  1.50000000E+00
  8.00000000E-01  8.00000000E-01  1.50000000E+00  8.00000000E-01  8.00000000E-01
  1.50000000E+00  8.00000000E-01  8.00000000E-01  1.50000000E+00  8.00000000E-01
  8.00000000E-01  1.50000000E+00  8.00000000E-01  8.00000000E-01  1.50000000E+00
  8.00000000E-01  8.00000000E-01  1.50000000E+00  8.00000000E-01  8.00000000E-01
  1.50000000E+00  8.00000000E-01  8.00000000E-01  1.50000000E+00  8.00000000E-01
  8.00000000E-01  1.50000000E+00  8.00000000E-01  8.00000000E-01  1.50000000E+00
  8.00000000E-01  8.00000000E-01  1.50000000E+00  8.00000000E-01  8.00000000E-01
  1.50000000E+00  8.00000000E-01  8.00000000E-01  1.50000000E+00  8.00000000E-01
  8.00000000E-01  1.50000000E+00  8.00000000E-01  8.00000000E-01  1.50000000E+00
  8.00000000E-01  8.00000000E-01  1.50000000E+00  8.00000000E-01  8.00000000E-01
  1.50000000E+00  8.00000000E-01  8.00000000E-01  1.50000000E+00  8.00000000E-01
  8.00000000E-01  1.50000000E+00  8.00000000E-01  8.00000000E-01  1.50000000E+00
  8.00000000E-01  8.00000000E-01  1.50000000E+00  8.00000000E-01  8.00000000E-01
  1.50000000E+00  8.00000000E-01  8.00000000E-01  1.50000000E+00  8.00000000E-01
  8.00000000E-01  1.50000000E+00  8.00000000E-01  8.00000000E-01  1.50000000E+00
  8.00000000E-01  8.00000000E-01  1.50000000E+00  8.00000000E-01  8.00000000E-01
  1.50000000E+00  8.00000000E-01  8.00000000E-01  1.50000000E+00  8.00000000E-01
  8.00000000E-01  1.50000000E+00  8.00000000E-01  8.00000000E-01  1.50000000E+00
  8.00000000E-01  8.00000000E-01  1.50000000E+00  8.00000000E-01  8.00000000E-01
  1.50000000E+00  8.00000000E-01  8.00000000E-01  1.50000000E+00  8.00000000E-01
  8.00000000E-01  1.50000000E+00  8.00000000E-01  8.00000000E-01  1.50000000E+00
  8.00000000E-01  8.00000000E-01  1.50000000E+00  8.00000000E-01  8.00000000E-01
  1.50000000E+00  8.00000000E-01  8.00000000E-01  1.50000000E+00  8.00000000E-01
  8.00000000E-01  1.50000000E+00  8.00000000E-01  8.00000000E-01  1.50000000E+00
  8.00000000E-01  8.00000000E-01  1.50000000E+00  8.00000000E-01  8.00000000E-01
  1.50000000E+00  8.00000000E-01  8.00000000E-01  1.50000000E+00  8.00000000E-01
  8.00000000E-01  1.50000000E+00  8.00000000E-01  8.00000000E-01  1.50000000E+00
  8.00000000E-01  8.00000000E-01  1.50000000E+00  8.00000000E-01  8.00000000E-01
  1.50000000E+00  8.00000000E-01  8.00000000E-01  1.50000000E+00  8.00000000E-01
  8.00000000E-01  1.50000000E+00  8.00000000E-01  8.00000000E-01  1.50000000E+00
  8.00000000E-01  8.00000000E-01  1.50000000E+00  8.00000000E-01  8.00000000E-01
  1.50000000E+00  8.00000000E-01  8.00000000E-01  1.50000000E+00  8.00000000E-01
  8.00000000E-01  1.50000000E+00  8.00000000E-01  8.00000000E-01  1.50000000E+00
  8.00000000E-01  8.00000000E-01  1.50000000E+00  8.00000000E-01  8.00000000E-01
  1.50000000E+00  8.00000000E-01  8.00000000E-01  1.50000000E+00  8.00000000E-01
  8.00000000E-01  1.50000000E+00  8.00000000E-01  8.00000000E-01  1.50000000E+00
  8.00000000E-01  8.00000000E-01  1.50000000E+00  8.00000000E-01  8.00000000E-01
  1.50000000E+00  8.00000000E-01  8.00000000E-01  1.50000000E+00  8.00000000E-01
  8.00000000E-01  1.50000000E+00  8.00000000E-01  8.00000000E-01  1.50000000E+00
  8.00000000E-01  8.00000000E-01  1.50000000E+00  8.00000000E-01  8.00000000E-01
  1.50000000E+00  8.00000000E-01  8.00000000E-01  1.50000000E+00  8.00000000E-01
  8.00000000E-01  1.50000000E+00  8.00000000E-01  8.00000000E-01  1.50000000E+00
  8.00000000E-01  8.00000000E-01  1.50000000E+00  8.00000000E-01  8.00000000E-01
  1.50000000E+00  8.00000000E-01  8.00000000E-01  1.50000000E+00  8.00000000E-01
  8.00000000E-01  1.50000000E+00  8.00000000E-01  8.00000000E-01  1.50000000E+00
  8.00000000E-01  8.00000000E-01  1.50000000E+00  8.00000000E-01  8.00000000E-01
  1.50000000E+00  8.00000000E-01  8.00000000E-01  1.50000000E+00  8.00000000E-01
  8.00000000E-01  1.50000000E+00  8.00000000E-01  8.00000000E-01  1.50000000E+00
  8.00000000E-01  8.00000000E-01  1.50000000E+00  8.00000000E-01  8.00000000E-01
  1.50000000E+00  8.00000000E-01  8.00000000E-01  1.50000000E+00  8.00000000E-01
  8.00000000E-01  1.50000000E+00  8.00000000E-01  8.00000000E-01  1.50000000E+00
  8.00000000E-01  8.00000000E-01  1.50000000E+00  8.00000000E-01  8.00000000E-01
  1.50000000E+00  8.00000000E-01  8.00000000E-01  1.50000000E+00  8.00000000E-01
  8.00000000E-01  1.50000000E+00  8.00000000E-01  8.00000000E-01  1.50000000E+00
  8.00000000E-01  8.00000000E-01  1.50000000E+00  8.00000000E-01  8.00000000E-01
  1.50000000E+00  8.00000000E-01  8.00000000E-01  1.50000000E+00  8.00000000E-01
  8.00000000E-01  1.50000000E+00  8.00000000E-01  8.00000000E-01  1.50000000E+00
  8.00000000E-01  8.00000000E-01  1.50000000E+00  8.00000000E-01  8.00000000E-01
  1.50000000E+00  8.00000000E-01  8.00000000E-01  1.50000000E+00  8.00000000E-01
  8.00000000E-01  1.50000000E+00  8.00000000E-01  8.00000000E-01  1.50000000E+00
  8.00000000E-01  8.00000000E-01  1.50000000E+00  8.00000000E-01  8.00000000E-01
  1.50000000E+00  8.00000000E-01  8.00000000E-01  1.50000000E+00  8.00000000E-01
  8.00000000E-01  1.50000000E+00  8.00000000E-01  8.00000000E-01  1.50000000E+00
  8.00000000E-01  8.00000000E-01  1.50000000E+00  8.00000000E-01  8.00000000E-01
  1.50000000E+00  8.00000000E-01  8.00000000E-01  1.50000000E+00  8.00000000E-01
  8.00000000E-01  1.50000000E+00  8.00000000E-01  8.00000000E-01  1.50000000E+00
  8.00000000E-01  8.00000000E-01  1.50000000E+00  8.00000000E-01  8.00000000E-01
  1.50000000E+00  8.00000000E-01  8.00000000E-01  1.50000000E+00  8.00000000E-01
  8.00000000E-01  1.50000000E+00  8.00000000E-01  8.00000000E-01  1.50000000E+00
  8.00000000E-01  8.00000000E-01  1.50000000E+00  8.00000000E-01  8.00000000E-01
  1.50000000E+00  8.00000000E-01  8.00000000E-01  1.50000000E+00  8.00000000E-01
  8.00000000E-01  1.50000000E+00  8.00000000E-01  8.00000000E-01  1.50000000E+00
  8.00000000E-01  8.00000000E-01  1.50000000E+00  8.00000000E-01  8.00000000E-01
  1.50000000E+00  8.00000000E-01  8.00000000E-01  1.50000000E+00  8.00000000E-01
  8.00000000E-01  1.50000000E+00  8.00000000E-01  8.00000000E-01  1.50000000E+00
  8.00000000E-01  8.00000000E-01  1.50000000E+00  8.00000000E-01  8.00000000E-01
  1.50000000E+00  8.00000000E-01  8.00000000E-01  1.50000000E+00  8.00000000E-01
  8.00000000E-01  1.50000000E+00  8.00000000E-01  8.00000000E-01  1.50000000E+00
  8.00000000E-01  8.00000000E-01  1.50000000E+00  8.00000000E-01  8.00000000E-01
  1.50000000E+00  8.00000000E-01  8.00000000E-01  1.50000000E+00  8.00000000E-01
  8.00000000E-01  1.50000000E+00  8.00000000E-01  8.00000000E-01  1.50000000E+00
  8.00000000E-01  8.00000000E-01  1.50000000E+00  8.00000000E-01  8.00000000E-01
  1.50000000E+00  8.00000000E-01  8.00000000E-01  1.50000000E+00  8.00000000E-01
  8.00000000E-01  1.50000000E+00  8.00000000E-01  8.00000000E-01  1.50000000E+00
  8.00000000E-01  8.00000000E-01  1.50000000E+00  8.00000000E-01  8.00000000E-01
  1.50000000E+00  8.00000000E-01  8.00000000E-01  1.50000000E+00  8.00000000E-01
  8.00000000E-01  1.50000000E+00  8.00000000E-01  8.00000000E-01  1.50000000E+00
  8.00000000E-01  8.00000000E-01  1.50000000E+00  8.00000000E-01  8.00000000E-01
  1.50000000E+00  8.00000000E-01  8.00000000E-01  1.50000000E+00  8.00000000E-01
  8.00000000E-01  1.50000000E+00  8.00000000E-01  8.00000000E-01  1.50000000E+00
  8.00000000E-01  8.00000000E-01  1.50000000E+00  8.00000000E-01  8.00000000E-01
  1.50000000E+00  8.00000000E-01  8.00000000E-01  1.50000000E+00  8.00000000E-01
  8.00000000E-01  1.50000000E+00  8.00000000E-01  8.00000000E-01  1.50000000E+00
  8.00000000E-01  8.00000000E-01  1.50000000E+00  8.00000000E-01  8.00000000E-01
  1.50000000E+00  8.00000000E-01  8.00000000E-01  1.50000000E+00  8.00000000E-01
  8.00000000E-01  1.50000000E+00  8.00000000E-01  8.00000000E-01  1.50000000E+00
  8.00000000E-01  8.00000000E-01  1.50000000E+00  8.00000000E-01  8.00000000E-01
  1.50000000E+00  8.00000000E-01  8.00000000E-01  1.50000000E+00  8.00000000E-01
  8.00000000E-01  1.50000000E+00  8.00000000E-01  8.00000000E-01  1.50000000E+00
  8.00000000E-01  8.00000000E-01  1.50000000E+00  8.00000000E-01  8.00000000E-01
  1.50000000E+00  8.00000000E-01  8.00000000E-01  1.50000000E+00  8.00000000E-01
  8.00000000E-01  1.50000000E+00  8.00000000E-01  8.00000000E-01  1.50000000E+00
  8.00000000E-01  8.00000000E-01  1.50000000E+00  8.00000000E-01  8.00000000E-01
  1.50000000E+00  8.00000000E-01  8.00000000E-01  1.50000000E+00  8.00000000E-01
  8.00000000E-01  1.50000000E+00  8.00000000E-01  8.00000000E-01  1.50000000E+00
  8.00000000E-01  8.00000000E-01  1.50000000E+00  8.00000000E-01  8.00000000E-01
  1.50000000E+00  8.00000000E-01  8.00000000E-01  1.50000000E+00  8.00000000E-01
  8.00000000E-01  1.50000000E+00  8.00000000E-01  8.00000000E-01  1.50000000E+00
  8.00000000E-01  8.00000000E-01  1.50000000E+00  8.00000000E-01  8.00000000E-01
  1.50000000E+00  8.00000000E-01  8.00000000E-01  1.50000000E+00  8.00000000E-01
  8.00000000E-01  1.50000000E+00  8.00000000E-01  8.00000000E-01  1.50000000E+00
  8.00000000E-01  8.00000000E-01  1.50000000E+00  8.00000000E-01  8.00000000E-01
  1.50000000E+00  8.00000000E-01  8.00000000E-01  1.50000000E+00  8.00000000E-01
  8.00000000E-01  1.50000000E+00  8.00000000E-01  8.00000000E-01  1.50000000E+00
  8.00000000E-01  8.00000000E-01  1.50000000E+00  8.00000000E-01  8.00000000E-01
  1.50000000E+00  8.00000000E-01  8.00000000E-01  1.50000000E+00  8.00000000E-01
  8.00000000E-01  1.50000000E+00  8.00000000E-01  8.00000000E-01  1.50000000E+00
  8.00000000E-01  8.00000000E-01  1.50000000E+00  8.00000000E-01  8.00000000E-01
  1.50000000E+00  8.00000000E-01  8.00000000E-01  1.50000000E+00  8.00000000E-01
  8.00000000E-01  1.50000000E+00  8.00000000E-01  8.00000000E-01  1.50000000E+00
  8.00000000E-01  8.00000000E-01  1.50000000E+00  8.00000000E-01  8.00000000E-01
  1.50000000E+00  8.00000000E-01  8.00000000E-01  1.50000000E+00  8.00000000E-01
  8.00000000E-01  1.50000000E+00  8.00000000E-01  8.00000000E-01  1.50000000E+00
  8.00000000E-01  8.00000000E-01  1.50000000E+00  8.00000000E-01  8.00000000E-01
  1.50000000E+00  8.00000000E-01  8.00000000E-01  1.50000000E+00  8.00000000E-01
  8.00000000E-01  1.50000000E+00  8.00000000E-01  8.00000000E-01  1.50000000E+00
  8.00000000E-01  8.00000000E-01  1.50000000E+00  8.00000000E-01  8.00000000E-01
  1.50000000E+00  8.00000000E-01  8.00000000E-01  1.50000000E+00  8.00000000E-01
  8.00000000E-01  1.50000000E+00  8.00000000E-01  8.00000000E-01  1.50000000E+00
  8.00000000E-01  8.00000000E-01  1.50000000E+00  8.00000000E-01  8.00000000E-01
  1.50000000E+00  8.00000000E-01  8.00000000E-01  1.50000000E+00  8.00000000E-01
  8.00000000E-01  1.50000000E+00  8.00000000E-01  8.00000000E-01  1.50000000E+00
  8.00000000E-01  8.00000000E-01  1.50000000E+00  8.00000000E-01  8.00000000E-01
  1.50000000E+00  8.00000000E-01  8.00000000E-01  1.50000000E+00  8.00000000E-01
  8.00000000E-01  1.50000000E+00  8.00000000E-01  8.00000000E-01  1.50000000E+00
  8.00000000E-01  8.00000000E-01  1.50000000E+00  8.00000000E-01  8.00000000E-01
  1.50000000E+00  8.00000000E-01  8.00000000E-01  1.50000000E+00  8.00000000E-01
  8.00000000E-01  1.50000000E+00  8.00000000E-01  8.00000000E-01  1.50000000E+00
  8.00000000E-01  8.00000000E-01  1.50000000E+00  8.00000000E-01  8.00000000E-01
  1.50000000E+00  8.00000000E-01  8.00000000E-01  1.50000000E+00  8.00000000E-01
  8.00000000E-01  1.50000000E+00  8.00000000E-01  8.00000000E-01  1.50000000E+00
  8.00000000E-01  8.00000000E-01  1.50000000E+00  8.00000000E-01  8.00000000E-01
  1.50000000E+00  8.00000000E-01  8.00000000E-01  1.50000000E+00  8.00000000E-01
  8.00000000E-01  1.50000000E+00  8.00000000E-01  8.00000000E-01  1.50000000E+00
  8.00000000E-01  8.00000000E-01  1.50000000E+00  8.00000000E-01  8.00000000E-01
  1.50000000E+00  8.00000000E-01  8.00000000E-01  1.50000000E+00  8.00000000E-01
  8.00000000E-01  1.50000000E+00  8.00000000E-01  8.00000000E-01  1.50000000E+00
  8.00000000E-01  8.00000000E-01  1.50000000E+00  8.00000000E-01  8.00000000E-01
  1.50000000E+00  8.00000000E-01  8.00000000E-01  1.50000000E+00  8.00000000E-01
  8.00000000E-01  1.50000000E+00  8.00000000E-01  8.00000000E-01  1.50000000E+00
  8.00000000E-01  8.00000000E-01  1.50000000E+00  8.00000000E-01  8.00000000E-01
  1.50000000E+00  8.00000000E-01  8.00000000E-01  1.50000000E+00  8.00000000E-01
  8.00000000E-01  1.50000000E+00  8.00000000E-01  8.00000000E-01  1.50000000E+00
  8.00000000E-01  8.00000000E-01  1.50000000E+00  8.00000000E-01  8.00000000E-01
  1.50000000E+00  8.00000000E-01  8.00000000E-01  1.50000000E+00  8.00000000E-01
  8.00000000E-01  1.50000000E+00  8.00000000E-01  8.00000000E-01  1.50000000E+00
  8.00000000E-01  8.00000000E-01  1.50000000E+00  8.00000000E-01  8.00000000E-01
  1.50000000E+00  8.00000000E-01  8.00000000E-01  1.50000000E+00  8.00000000E-01
  8.00000000E-01  1.50000000E+00  8.00000000E-01  8.00000000E-01  1.50000000E+00
  8.00000000E-01  8.00000000E-01  1.50000000E+00  8.00000000E-01  8.00000000E-01
  1.50000000E+00  8.00000000E-01  8.00000000E-01  1.50000000E+00  8.00000000E-01
  8.00000000E-01  1.50000000E+00  8.00000000E-01  8.00000000E-01  1.50000000E+00
  8.00000000E-01  8.00000000E-01  1.50000000E+00  8.00000000E-01  8.00000000E-01
  1.50000000E+00  8.00000000E-01  8.00000000E-01  1.50000000E+00  8.00000000E-01
  8.00000000E-01  1.50000000E+00  8.00000000E-01  8.00000000E-01  1.50000000E+00
  8.00000000E-01  8.00000000E-01  1.50000000E+00  8.00000000E-01  8.00000000E-01
  1.50000000E+00  8.00000000E-01  8.00000000E-01  1.50000000E+00  8.00000000E-01
  8.00000000E-01  1.50000000E+00  8.00000000E-01  8.00000000E-01  1.50000000E+00
  8.00000000E-01  8.00000000E-01  1.50000000E+00  8.00000000E-01  8.00000000E-01
  1.50000000E+00  8.00000000E-01  8.00000000E-01  1.50000000E+00  8.00000000E-01
  8.00000000E-01  1.50000000E+00  8.00000000E-01  8.00000000E-01  1.50000000E+00
  8.00000000E-01  8.00000000E-01  1.50000000E+00  8.00000000E-01  8.00000000E-01
  1.50000000E+00  8.00000000E-01  8.00000000E-01  1.50000000E+00  8.00000000E-01
  8.00000000E-01  1.50000000E+00  8.00000000E-01  8.00000000E-01  1.50000000E+00
  8.00000000E-01  8.00000000E-01  1.50000000E+00  8.00000000E-01  8.00000000E-01
  1.50000000E+00  8.00000000E-01  8.00000000E-01  1.50000000E+00  8.00000000E-01
  8.00000000E-01  1.50000000E+00  8.00000000E-01  8.00000000E-01  1.50000000E+00
  8.00000000E-01  8.00000000E-01  1.50000000E+00  8.00000000E-01  8.00000000E-01
  1.50000000E+00  8.00000000E-01  8.00000000E-01  1.50000000E+00  8.00000000E-01
  8.00000000E-01  1.50000000E+00  8.00000000E-01  8.00000000E-01  1.50000000E+00
  8.00000000E-01  8.00000000E-01  1.50000000E+00  8.00000000E-01  8.00000000E-01
  1.50000000E+00  8.00000000E-01  8.00000000E-01  1.50000000E+00  8.00000000E-01
  8.00000000E-01  1.50000000E+00  8.00000000E-01  8.00000000E-01  1.50000000E+00
  8.00000000E-01  8.00000000E-01  1.50000000E+00  8.00000000E-01  8.00000000E-01
  1.50000000E+00  8.00000000E-01  8.00000000E-01  1.50000000E+00  8.00000000E-01
  8.00000000E-01  1.50000000E+00  8.00000000E-01  8.00000000E-01  1.50000000E+00
  8.00000000E-01  8.00000000E-01  1.50000000E+00  8.00000000E-01  8.00000000E-01
  1.50000000E+00  8.00000000E-01  8.00000000E-01  1.50000000E+00  8.00000000E-01
  8.00000000E-01  1.50000000E+00  8.00000000E-01  8.00000000E-01  1.50000000E+00
  8.00000000E-01  8.00000000E-01  1.50000000E+00  8.00000000E-01  8.00000000E-01
  1.50000000E+00  8.00000000E-01  8.00000000E-01  1.50000000E+00  8.00000000E-01
  8.00000000E-01  1.50000000E+00  8.00000000E-01  8.00000000E-01  1.50000000E+00
  8.00000000E-01  8.00000000E-01  1.50000000E+00  8.00000000E-01  8.00000000E-01
  1.50000000E+00  8.00000000E-01  8.00000000E-01  1.50000000E+00  8.00000000E-01
  8.00000000E-01  1.50000000E+00  8.00000000E-01  8.00000000E-01  1.50000000E+00
  8.00000000E-01  8.00000000E-01  1.50000000E+00  8.00000000E-01  8.00000000E-01
  1.50000000E+00  8.00000000E-01  8.00000000E-01  1.50000000E+00  8.00000000E-01
  8.00000000E-01  1.50000000E+00  8.00000000E-01  8.00000000E-01  1.50000000E+00
  8.00000000E-01  8.00000000E-01  1.50000000E+00  8.00000000E-01  8.00000000E-01
  1.50000000E+00  8.00000000E-01  8.00000000E-01  1.50000000E+00  8.00000000E-01
  8.00000000E-01  1.50000000E+00  8.00000000E-01  8.00000000E-01  1.50000000E+00
  8.00000000E-01  8.00000000E-01  1.50000000E+00  8.00000000E-01  8.00000000E-01
  1.50000000E+00  8.00000000E-01  8.00000000E-01  1.50000000E+00  8.00000000E-01
  8.00000000E-01  1.50000000E+00  8.00000000E-01  8.00000000E-01  1.50000000E+00
  8.00000000E-01  8.00000000E-01  1.50000000E+00  8.00000000E-01  8.00000000E-01
  1.50000000E+00  8.00000000E-01  8.00000000E-01  1.50000000E+00  8.00000000E-01
  8.00000000E-01  1.50000000E+00  8.00000000E-01  8.00000000E-01  1.50000000E+00
  8.00000000E-01  8.00000000E-01  1.50000000E+00  8.00000000E-01  8.00000000E-01
  1.50000000E+00  8.00000000E-01  8.00000000E-01  1.50000000E+00  8.00000000E-01
  8.00000000E-01  1.50000000E+00  8.00000000E-01  8.00000000E-01  1.50000000E+00
  8.00000000E-01  8.00000000E-01  1.50000000E+00  8.00000000E-01  8.00000000E-01
  1.50000000E+00  8.00000000E-01  8.00000000E-01  1.50000000E+00  8.00000000E-01
  8.00000000E-01  1.50000000E+00  8.00000000E-01  8.00000000E-01  1.50000000E+00
  8.00000000E-01  8.00000000E-01  1.50000000E+00  8.00000000E-01  8.00000000E-01
  1.50000000E+00  8.00000000E-01  8.00000000E-01  1.50000000E+00  8.00000000E-01
  8.00000000E-01  1.50000000E+00  8.00000000E-01  8.00000000E-01  1.50000000E+00
  8.00000000E-01  8.00000000E-01  1.50000000E+00  8.00000000E-01  8.00000000E-01
  1.50000000E+00  8.00000000E-01  8.00000000E-01  1.50000000E+00  8.00000000E-01
  8.00000000E-01  1.50000000E+00  8.00000000E-01  8.00000000E-01  1.50000000E+00
  8.00000000E-01  8.00000000E-01  1.50000000E+00  8.00000000E-01  8.00000000E-01
  1.50000000E+00  8.00000000E-01  8.00000000E-01  1.50000000E+00  8.00000000E-01
  8.00000000E-01  1.50000000E+00  8.00000000E-01  8.00000000E-01  1.50000000E+00
  8.00000000E-01  8.00000000E-01  1.50000000E+00  8.00000000E-01  8.00000000E-01
  1.50000000E+00  8.00000000E-01  8.00000000E-01  1.50000000E+00  8.00000000E-01
  8.00000000E-01  1.50000000E+00  8.00000000E-01  8.00000000E-01  1.50000000E+00
  8.00000000E-01  8.00000000E-01  1.50000000E+00  8.00000000E-01  8.00000000E-01
  1.50000000E+00  8.00000000E-01  8.00000000E-01  1.50000000E+00  8.00000000E-01
  8.00000000E-01  1.50000000E+00  8.00000000E-01  8.00000000E-01  1.50000000E+00
  8.00000000E-01  8.00000000E-01  1.50000000E+00  8.00000000E-01  8.00000000E-01
  1.50000000E+00  8.00000000E-01  8.00000000E-01  1.50000000E+00  8.00000000E-01
  8.00000000E-01  1.50000000E+00  8.00000000E-01  8.00000000E-01  1.50000000E+00
  8.00000000E-01  8.00000000E-01  1.50000000E+00  8.00000000E-01  8.00000000E-01
  1.50000000E+00  8.00000000E-01  8.00000000E-01  1.50000000E+00  8.00000000E-01
  8.00000000E-01  1.50000000E+00  8.00000000E-01  8.00000000E-01  1.50000000E+00
  8.00000000E-01  8.00000000E-01  1.50000000E+00  8.00000000E-01  8.00000000E-01
  1.50000000E+00  8.00000000E-01  8.00000000E-01  1.50000000E+00  8.00000000E-01
  8.00000000E-01  1.50000000E+00  8.00000000E-01  8.00000000E-01  1.50000000E+00
  8.00000000E-01  8.00000000E-01  1.50000000E+00  8.00000000E-01  8.00000000E-01
  1.50000000E+00  8.00000000E-01  8.00000000E-01  1.50000000E+00  8.00000000E-01
  8.00000000E-01  1.50000000E+00  8.00000000E-01  8.00000000E-01  1.50000000E+00
  8.00000000E-01  8.00000000E-01  1.50000000E+00  8.00000000E-01  8.00000000E-01
  1.50000000E+00  8.00000000E-01  8.00000000E-01  1.50000000E+00  8.00000000E-01
  8.00000000E-01  1.50000000E+00  8.00000000E-01  8.00000000E-01  1.50000000E+00
  8.00000000E-01  8.00000000E-01  1.50000000E+00  8.00000000E-01  8.00000000E-01
  1.50000000E+00  8.00000000E-01  8.00000000E-01  1.50000000E+00  8.00000000E-01
  8.00000000E-01  1.50000000E+00  8.00000000E-01  8.00000000E-01  1.50000000E+00
  8.00000000E-01  8.00000000E-01  1.50000000E+00  8.00000000E-01  8.00000000E-01
  1.50000000E+00  8.00000000E-01  8.00000000E-01  1.50000000E+00  8.00000000E-01
  8.00000000E-01  1.50000000E+00  8.00000000E-01  8.00000000E-01  1.50000000E+00
  8.00000000E-01  8.00000000E-01  1.50000000E+00  8.00000000E-01  8.00000000E-01
  1.50000000E+00  8.00000000E-01  8.00000000E-01  1.50000000E+00  8.00000000E-01
  8.00000000E-01  1.50000000E+00  8.00000000E-01  8.00000000E-01  1.50000000E+00
  8.00000000E-01  8.00000000E-01  1.50000000E+00  8.00000000E-01  8.00000000E-01
  1.50000000E+00  8.00000000E-01  8.00000000E-01  1.50000000E+00  8.00000000E-01
  8.00000000E-01  1.50000000E+00  8.00000000E-01  8.00000000E-01  1.50000000E+00
  8.00000000E-01  8.00000000E-01  1.50000000E+00  8.00000000E-01  8.00000000E-01
  1.50000000E+00  8.00000000E-01  8.00000000E-01  1.50000000E+00  8.00000000E-01
  8.00000000E-01  1.50000000E+00  8.00000000E-01  8.00000000E-01  1.50000000E+00
  8.00000000E-01  8.00000000E-01  1.50000000E+00  8.00000000E-01  8.00000000E-01
  1.50000000E+00  8.00000000E-01  8.00000000E-01  1.50000000E+00  8.00000000E-01
  8.00000000E-01  1.50000000E+00  8.00000000E-01  8.00000000E-01  1.50000000E+00
  8.00000000E-01  8.00000000E-01  1.50000000E+00  8.00000000E-01  8.00000000E-01
  1.50000000E+00  8.00000000E-01  8.00000000E-01  1.50000000E+00  8.00000000E-01
  8.00000000E-01  1.50000000E+00  8.00000000E-01  8.00000000E-01  1.50000000E+00
  8.00000000E-01  8.00000000E-01  1.50000000E+00  8.00000000E-01  8.00000000E-01
  1.50000000E+00  8.00000000E-01  8.00000000E-01  1.50000000E+00  8.00000000E-01
  8.00000000E-01  1.50000000E+00  8.00000000E-01  8.00000000E-01  1.50000000E+00
  8.00000000E-01  8.00000000E-01  1.50000000E+00  8.00000000E-01  8.00000000E-01
  1.50000000E+00  8.00000000E-01  8.00000000E-01  1.50000000E+00  8.00000000E-01
  8.00000000E-01  1.50000000E+00  8.00000000E-01  8.00000000E-01  1.50000000E+00
  8.00000000E-01  8.00000000E-01  1.50000000E+00  8.00000000E-01  8.00000000E-01
  1.50000000E+00  8.00000000E-01  8.00000000E-01  1.50000000E+00  8.00000000E-01
  8.00000000E-01  1.50000000E+00  8.00000000E-01  8.00000000E-01  1.50000000E+00
  8.00000000E-01  8.00000000E-01  1.50000000E+00  8.00000000E-01  8.00000000E-01
  1.50000000E+00  8.00000000E-01  8.00000000E-01  1.50000000E+00  8.00000000E-01
  8.00000000E-01  1.50000000E+00  8.00000000E-01  8.00000000E-01  1.50000000E+00
  8.00000000E-01  8.00000000E-01  1.50000000E+00  8.00000000E-01  8.00000000E-01
  1.50000000E+00  8.00000000E-01  8.00000000E-01  1.50000000E+00  8.00000000E-01
  8.00000000E-01  1.50000000E+00  8.00000000E-01  8.00000000E-01  1.50000000E+00
  8.00000000E-01  8.00000000E-01  1.50000000E+00  8.00000000E-01  8.00000000E-01
  1.50000000E+00  8.00000000E-01  8.00000000E-01  1.50000000E+00  8.00000000E-01
  8.00000000E-01  1.50000000E+00  8.00000000E-01  8.00000000E-01  1.50000000E+00
  8.00000000E-01  8.00000000E-01  1.50000000E+00  8.00000000E-01  8.00000000E-01
  1.50000000E+00  8.00000000E-01  8.00000000E-01  1.50000000E+00  8.00000000E-01
  8.00000000E-01  1.50000000E+00  8.00000000E-01  8.00000000E-01  1.50000000E+00
  8.00000000E-01  8.00000000E-01  1.50000000E+00  8.00000000E-01  8.00000000E-01
  1.50000000E+00  8.00000000E-01  8.00000000E-01  1.50000000E+00  8.00000000E-01
  8.00000000E-01  1.50000000E+00  8.00000000E-01  8.00000000E-01  1.50000000E+00
  8.00000000E-01  8.00000000E-01  1.50000000E+00  8.00000000E-01  8.00000000E-01
  1.50000000E+00  8.00000000E-01  8.00000000E-01  1.50000000E+00  8.00000000E-01
  8.00000000E-01  1.50000000E+00  8.00000000E-01  8.00000000E-01  1.50000000E+00
  8.00000000E-01  8.00000000E-01  1.50000000E+00  8.00000000E-01  8.00000000E-01
  1.50000000E+00  8.00000000E-01  8.00000000E-01  1.50000000E+00  8.00000000E-01
  8.00000000E-01  1.50000000E+00  8.00000000E-01  8.00000000E-01  1.50000000E+00
  8.00000000E-01  8.00000000E-01  1.50000000E+00  8.00000000E-01  8.00000000E-01
  1.50000000E+00  8.00000000E-01  8.00000000E-01  1.50000000E+00  8.00000000E-01
  8.00000000E-01  1.50000000E+00  8.00000000E-01  8.00000000E-01  1.50000000E+00
  8.00000000E-01  8.00000000E-01  1.50000000E+00  8.00000000E-01  8.00000000E-01
  1.50000000E+00  8.00000000E-01  8.00000000E-01  1.50000000E+00  8.00000000E-01
  8.00000000E-01  1.50000000E+00  8.00000000E-01  8.00000000E-01  1.50000000E+00
  8.00000000E-01  8.00000000E-01  1.50000000E+00  8.00000000E-01  8.00000000E-01
  1.50000000E+00  8.00000000E-01  8.00000000E-01  1.50000000E+00  8.00000000E-01
  8.00000000E-01  1.50000000E+00  8.00000000E-01  8.00000000E-01  1.50000000E+00
  8.00000000E-01  8.00000000E-01  1.50000000E+00  8.00000000E-01  8.00000000E-01
  1.50000000E+00  8.00000000E-01  8.00000000E-01  1.50000000E+00  8.00000000E-01
  8.00000000E-01  1.50000000E+00  8.00000000E-01  8.00000000E-01  1.50000000E+00
  8.00000000E-01  8.00000000E-01  1.50000000E+00  8.00000000E-01  8.00000000E-01
  1.50000000E+00  8.00000000E-01  8.00000000E-01  1.50000000E+00  8.00000000E-01
  8.00000000E-01  1.50000000E+00  8.00000000E-01  8.00000000E-01  1.50000000E+00
  8.00000000E-01  8.00000000E-01  1.50000000E+00  8.00000000E-01  8.00000000E-01
  1.50000000E+00  8.00000000E-01  8.00000000E-01  1.50000000E+00  8.00000000E-01
  8.00000000E-01  1.50000000E+00  8.00000000E-01  8.00000000E-01  1.50000000E+00
  8.00000000E-01  8.00000000E-01  1.50000000E+00  8.00000000E-01  8.00000000E-01
  1.50000000E+00  8.00000000E-01  8.00000000E-01  1.50000000E+00  8.00000000E-01
  8.00000000E-01  1.50000000E+00  8.00000000E-01  8.00000000E-01  1.50000000E+00
  8.00000000E-01  8.00000000E-01  1.50000000E+00  8.00000000E-01  8.00000000E-01
  1.50000000E+00  8.00000000E-01  8.00000000E-01  1.50000000E+00  8.00000000E-01
  8.00000000E-01  1.50000000E+00  8.00000000E-01  8.00000000E-01  1.50000000E+00
  8.00000000E-01  8.00000000E-01  1.50000000E+00  8.00000000E-01  8.00000000E-01
  1.50000000E+00  8.00000000E-01  8.00000000E-01  1.50000000E+00  8.00000000E-01
  8.00000000E-01  1.50000000E+00  8.00000000E-01  8.00000000E-01  1.50000000E+00
  8.00000000E-01  8.00000000E-01  1.50000000E+00  8.00000000E-01  8.00000000E-01
  1.50000000E+00  8.00000000E-01  8.00000000E-01  1.50000000E+00  8.00000000E-01
  8.00000000E-01  1.50000000E+00  8.00000000E-01  8.00000000E-01  1.50000000E+00
  8.00000000E-01  8.00000000E-01  1.50000000E+00  8.00000000E-01  8.00000000E-01
  1.50000000E+00  8.00000000E-01  8.00000000E-01  1.50000000E+00  8.00000000E-01
  8.00000000E-01  1.50000000E+00  8.00000000E-01  8.00000000E-01  1.50000000E+00
  8.00000000E-01  8.00000000E-01  1.50000000E+00  8.00000000E-01  8.00000000E-01
  1.50000000E+00  8.00000000E-01  8.00000000E-01  1.50000000E+00  8.00000000E-01
  8.00000000E-01  1.50000000E+00  8.00000000E-01  8.00000000E-01  1.50000000E+00
  8.00000000E-01  8.00000000E-01  1.50000000E+00  8.00000000E-01  8.00000000E-01
  1.50000000E+00  8.00000000E-01  8.00000000E-01  1.50000000E+00  8.00000000E-01
  8.00000000E-01  1.50000000E+00  8.00000000E-01  8.00000000E-01  1.50000000E+00
  8.00000000E-01  8.00000000E-01  1.50000000E+00  8.00000000E-01  8.00000000E-01
  1.50000000E+00  8.00000000E-01  8.00000000E-01  1.50000000E+00  8.00000000E-01
  8.00000000E-01  1.50000000E+00  8.00000000E-01  8.00000000E-01  1.50000000E+00
  8.00000000E-01  8.00000000E-01  1.50000000E+00  8.00000000E-01  8.00000000E-01
  1.50000000E+00  8.00000000E-01  8.00000000E-01  1.50000000E+00  8.00000000E-01
  8.00000000E-01  1.50000000E+00  8.00000000E-01  8.00000000E-01  1.50000000E+00
  8.00000000E-01  8.00000000E-01  1.50000000E+00  8.00000000E-01  8.00000000E-01
  1.50000000E+00  8.00000000E-01  8.00000000E-01  1.50000000E+00  8.00000000E-01
  8.00000000E-01  1.50000000E+00  8.00000000E-01  8.00000000E-01  1.50000000E+00
  8.00000000E-01  8.00000000E-01  1.50000000E+00  8.00000000E-01  8.00000000E-01
  1.50000000E+00  8.00000000E-01  8.00000000E-01  1.50000000E+00  8.00000000E-01
  8.00000000E-01  1.50000000E+00  8.00000000E-01  8.00000000E-01  1.50000000E+00
  8.00000000E-01  8.00000000E-01  1.50000000E+00  8.00000000E-01  8.00000000E-01
  1.50000000E+00  8.00000000E-01  8.00000000E-01  1.50000000E+00  8.00000000E-01
  8.00000000E-01  1.50000000E+00  8.00000000E-01  8.00000000E-01  1.50000000E+00
  8.00000000E-01  8.00000000E-01  1.50000000E+00  8.00000000E-01  8.00000000E-01
  1.50000000E+00  8.00000000E-01  8.00000000E-01  1.50000000E+00  8.00000000E-01
  8.00000000E-01  1.50000000E+00  8.00000000E-01  8.00000000E-01  1.50000000E+00
  8.00000000E-01  8.00000000E-01  1.50000000E+00  8.00000000E-01  8.00000000E-01
  1.50000000E+00  8.00000000E-01  8.00000000E-01  1.50000000E+00  8.00000000E-01
  8.00000000E-01  1.50000000E+00  8.00000000E-01  8.00000000E-01  1.50000000E+00
  8.00000000E-01  8.00000000E-01  1.50000000E+00  8.00000000E-01  8.00000000E-01
  1.50000000E+00  8.00000000E-01  8.00000000E-01  1.50000000E+00  8.00000000E-01
  8.00000000E-01  1.50000000E+00  8.00000000E-01  8.00000000E-01  1.50000000E+00
  8.00000000E-01  8.00000000E-01  1.50000000E+00  8.00000000E-01  8.00000000E-01
  1.50000000E+00  8.00000000E-01  8.00000000E-01  1.50000000E+00  8.00000000E-01
  8.00000000E-01  1.50000000E+00  8.00000000E-01  8.00000000E-01  1.50000000E+00
  8.00000000E-01  8.00000000E-01  1.50000000E+00  8.00000000E-01  8.00000000E-01
  1.50000000E+00  8.00000000E-01  8.00000000E-01  1.50000000E+00  8.00000000E-01
  8.00000000E-01  1.50000000E+00  8.00000000E-01  8.00000000E-01  1.50000000E+00
  8.00000000E-01  8.00000000E-01  1.50000000E+00  8.00000000E-01  8.00000000E-01
  1.50000000E+00  8.00000000E-01  8.00000000E-01  1.50000000E+00  8.00000000E-01
  8.00000000E-01  1.50000000E+00  8.00000000E-01  8.00000000E-01  1.50000000E+00
  8.00000000E-01  8.00000000E-01  1.50000000E+00  8.00000000E-01  8.00000000E-01
  1.50000000E+00  8.00000000E-01  8.00000000E-01  1.50000000E+00  8.00000000E-01
  8.00000000E-01  1.50000000E+00  8.00000000E-01  8.00000000E-01  1.50000000E+00
  8.00000000E-01  8.00000000E-01  1.50000000E+00  8.00000000E-01  8.00000000E-01
  1.50000000E+00  8.00000000E-01  8.00000000E-01  1.50000000E+00  8.00000000E-01
  8.00000000E-01  1.50000000E+00  8.00000000E-01  8.00000000E-01  1.50000000E+00
  8.00000000E-01  8.00000000E-01  1.50000000E+00  8.00000000E-01  8.00000000E-01
  1.50000000E+00  8.00000000E-01  8.00000000E-01  1.50000000E+00  8.00000000E-01
  8.00000000E-01  1.50000000E+00  8.00000000E-01  8.00000000E-01  1.50000000E+00
  8.00000000E-01  8.00000000E-01  1.50000000E+00  8.00000000E-01  8.00000000E-01
  1.50000000E+00  8.00000000E-01  8.00000000E-01  1.50000000E+00  8.00000000E-01
  8.00000000E-01  1.50000000E+00  8.00000000E-01  8.00000000E-01  1.50000000E+00
  8.00000000E-01  8.00000000E-01  1.50000000E+00  8.00000000E-01  8.00000000E-01
  1.50000000E+00  8.00000000E-01  8.00000000E-01  1.50000000E+00  8.00000000E-01
  8.00000000E-01  1.50000000E+00  8.00000000E-01  8.00000000E-01  1.50000000E+00
  8.00000000E-01  8.00000000E-01  1.50000000E+00  8.00000000E-01  8.00000000E-01
  1.50000000E+00  8.00000000E-01  8.00000000E-01  1.50000000E+00  8.00000000E-01
  8.00000000E-01  1.50000000E+00  8.00000000E-01  8.00000000E-01  1.50000000E+00
  8.00000000E-01  8.00000000E-01  1.50000000E+00  8.00000000E-01  8.00000000E-01
  1.50000000E+00  8.00000000E-01  8.00000000E-01  1.50000000E+00  8.00000000E-01
  8.00000000E-01  1.50000000E+00  8.00000000E-01  8.00000000E-01  1.50000000E+00
  8.00000000E-01  8.00000000E-01  1.50000000E+00  8.00000000E-01  8.00000000E-01
  1.50000000E+00  8.00000000E-01  8.00000000E-01  1.50000000E+00  8.00000000E-01
  8.00000000E-01  1.50000000E+00  8.00000000E-01  8.00000000E-01  1.50000000E+00
  8.00000000E-01  8.00000000E-01  1.50000000E+00  8.00000000E-01  8.00000000E-01
  1.50000000E+00  8.00000000E-01  8.00000000E-01  1.50000000E+00  8.00000000E-01
  8.00000000E-01  1.50000000E+00  8.00000000E-01  8.00000000E-01  1.50000000E+00
  8.00000000E-01  8.00000000E-01  1.50000000E+00  8.00000000E-01  8.00000000E-01
  1.50000000E+00  8.00000000E-01  8.00000000E-01  1.50000000E+00  8.00000000E-01
  8.00000000E-01  1.50000000E+00  8.00000000E-01  8.00000000E-01  1.50000000E+00
  8.00000000E-01  8.00000000E-01  1.50000000E+00  8.00000000E-01  8.00000000E-01
  1.50000000E+00  8.00000000E-01  8.00000000E-01  1.50000000E+00  8.00000000E-01
  8.00000000E-01  1.50000000E+00  8.00000000E-01  8.00000000E-01  1.50000000E+00
  8.00000000E-01  8.00000000E-01  1.50000000E+00  8.00000000E-01  8.00000000E-01
  1.50000000E+00  8.00000000E-01  8.00000000E-01  1.50000000E+00  8.00000000E-01
  8.00000000E-01  1.50000000E+00  8.00000000E-01  8.00000000E-01  1.50000000E+00
  8.00000000E-01  8.00000000E-01  1.50000000E+00  8.00000000E-01  8.00000000E-01
  1.50000000E+00  8.00000000E-01  8.00000000E-01  1.50000000E+00  8.00000000E-01
  8.00000000E-01  1.50000000E+00  8.00000000E-01  8.00000000E-01  1.50000000E+00
  8.00000000E-01  8.00000000E-01  1.50000000E+00  8.00000000E-01  8.00000000E-01
  1.50000000E+00  8.00000000E-01  8.00000000E-01  1.50000000E+00  8.00000000E-01
  8.00000000E-01  1.50000000E+00  8.00000000E-01  8.00000000E-01  1.50000000E+00
  8.00000000E-01  8.00000000E-01  1.50000000E+00  8.00000000E-01  8.00000000E-01
  1.50000000E+00  8.00000000E-01  8.00000000E-01  1.50000000E+00  8.00000000E-01
  8.00000000E-01  1.50000000E+00  8.00000000E-01  8.00000000E-01  1.50000000E+00
  8.00000000E-01  8.00000000E-01  1.50000000E+00  8.00000000E-01  8.00000000E-01
  1.50000000E+00  8.00000000E-01  8.00000000E-01  1.50000000E+00  8.00000000E-01
  8.00000000E-01  1.50000000E+00  8.00000000E-01  8.00000000E-01  1.50000000E+00
  8.00000000E-01  8.00000000E-01  1.50000000E+00  8.00000000E-01  8.00000000E-01
  1.50000000E+00  8.00000000E-01  8.00000000E-01  1.50000000E+00  8.00000000E-01
  8.00000000E-01  1.50000000E+00  8.00000000E-01  8.00000000E-01  1.50000000E+00
  8.00000000E-01  8.00000000E-01  1.50000000E+00  8.00000000E-01  8.00000000E-01
  1.50000000E+00  8.00000000E-01  8.00000000E-01  1.50000000E+00  8.00000000E-01
  8.00000000E-01  1.50000000E+00  8.00000000E-01  8.00000000E-01  1.50000000E+00
  8.00000000E-01  8.00000000E-01  1.50000000E+00  8.00000000E-01  8.00000000E-01
  1.50000000E+00  8.00000000E-01  8.00000000E-01  1.50000000E+00  8.00000000E-01
  8.00000000E-01  1.50000000E+00  8.00000000E-01  8.00000000E-01  1.50000000E+00
  8.00000000E-01  8.00000000E-01  1.50000000E+00  8.00000000E-01  8.00000000E-01
  1.50000000E+00  8.00000000E-01  8.00000000E-01  1.50000000E+00  8.00000000E-01
  8.00000000E-01  1.50000000E+00  8.00000000E-01  8.00000000E-01  1.50000000E+00
  8.00000000E-01  8.00000000E-01  1.50000000E+00  8.00000000E-01  8.00000000E-01
  1.50000000E+00  8.00000000E-01  8.00000000E-01  1.50000000E+00  8.00000000E-01
  8.00000000E-01  1.50000000E+00  8.00000000E-01  8.00000000E-01  1.50000000E+00
  8.00000000E-01  8.00000000E-01  1.50000000E+00  8.00000000E-01  8.00000000E-01
  1.50000000E+00  8.00000000E-01  8.00000000E-01  1.50000000E+00  8.00000000E-01
  8.00000000E-01  1.50000000E+00  8.00000000E-01  8.00000000E-01  1.50000000E+00
  8.00000000E-01  8.00000000E-01  1.50000000E+00  8.00000000E-01  8.00000000E-01
  1.50000000E+00  8.00000000E-01  8.00000000E-01  1.50000000E+00  8.00000000E-01
  8.00000000E-01  1.50000000E+00  8.00000000E-01  8.00000000E-01  1.50000000E+00
  8.00000000E-01  8.00000000E-01  1.50000000E+00  8.00000000E-01  8.00000000E-01
  1.50000000E+00  8.00000000E-01  8.00000000E-01  1.50000000E+00  8.00000000E-01
  8.00000000E-01  1.50000000E+00  8.00000000E-01  8.00000000E-01  1.50000000E+00
  8.00000000E-01  8.00000000E-01  1.50000000E+00  8.00000000E-01  8.00000000E-01
  1.50000000E+00  8.00000000E-01  8.00000000E-01  1.50000000E+00  8.00000000E-01
  8.00000000E-01  1.50000000E+00  8.00000000E-01  8.00000000E-01  1.50000000E+00
  8.00000000E-01  8.00000000E-01  1.50000000E+00  8.00000000E-01  8.00000000E-01
  1.50000000E+00  8.00000000E-01  8.00000000E-01  1.50000000E+00  8.00000000E-01
  8.00000000E-01  1.50000000E+00  8.00000000E-01  8.00000000E-01  1.50000000E+00
  8.00000000E-01  8.00000000E-01  1.50000000E+00  8.00000000E-01  8.00000000E-01
  1.50000000E+00  8.00000000E-01  8.00000000E-01  1.50000000E+00  8.00000000E-01
  8.00000000E-01  1.50000000E+00  8.00000000E-01  8.00000000E-01  1.50000000E+00
  8.00000000E-01  8.00000000E-01  1.50000000E+00  8.00000000E-01  8.00000000E-01
  1.50000000E+00  8.00000000E-01  8.00000000E-01  1.50000000E+00  8.00000000E-01
  8.00000000E-01  1.50000000E+00  8.00000000E-01  8.00000000E-01  1.50000000E+00
  8.00000000E-01  8.00000000E-01  1.50000000E+00  8.00000000E-01  8.00000000E-01
  1.50000000E+00  8.00000000E-01  8.00000000E-01  1.50000000E+00  8.00000000E-01
  8.00000000E-01  1.50000000E+00  8.00000000E-01  8.00000000E-01  1.50000000E+00
  8.00000000E-01  8.00000000E-01  1.50000000E+00  8.00000000E-01  8.00000000E-01
  1.50000000E+00  8.00000000E-01  8.00000000E-01  1.50000000E+00  8.00000000E-01
  8.00000000E-01  1.50000000E+00  8.00000000E-01  8.00000000E-01  1.50000000E+00
  8.00000000E-01  8.00000000E-01  1.50000000E+00  8.00000000E-01  8.00000000E-01
  1.50000000E+00  8.00000000E-01  8.00000000E-01  1.50000000E+00  8.00000000E-01
  8.00000000E-01  1.50000000E+00  8.00000000E-01  8.00000000E-01  1.50000000E+00
  8.00000000E-01  8.00000000E-01  1.50000000E+00  8.00000000E-01  8.00000000E-01
  1.50000000E+00  8.00000000E-01  8.00000000E-01  1.50000000E+00  8.00000000E-01
  8.00000000E-01  1.50000000E+00  8.00000000E-01  8.00000000E-01  1.50000000E+00
  8.00000000E-01  8.00000000E-01  1.50000000E+00  8.00000000E-01  8.00000000E-01
  1.50000000E+00  8.00000000E-01  8.00000000E-01  1.50000000E+00  8.00000000E-01
  8.00000000E-01  1.50000000E+00  8.00000000E-01  8.00000000E-01  1.50000000E+00
  8.00000000E-01  8.00000000E-01  1.50000000E+00  8.00000000E-01  8.00000000E-01
  1.50000000E+00  8.00000000E-01  8.00000000E-01  1.50000000E+00  8.00000000E-01
  8.00000000E-01  1.50000000E+00  8.00000000E-01  8.00000000E-01  1.50000000E+00
  8.00000000E-01  8.00000000E-01  1.50000000E+00  8.00000000E-01  8.00000000E-01
  1.50000000E+00  8.00000000E-01  8.00000000E-01  1.50000000E+00  8.00000000E-01
  8.00000000E-01  1.50000000E+00  8.00000000E-01  8.00000000E-01  1.50000000E+00
  8.00000000E-01  8.00000000E-01  1.50000000E+00  8.00000000E-01  8.00000000E-01
  1.50000000E+00  8.00000000E-01  8.00000000E-01  1.50000000E+00  8.00000000E-01
  8.00000000E-01  1.50000000E+00  8.00000000E-01  8.00000000E-01  1.50000000E+00
  8.00000000E-01  8.00000000E-01  1.50000000E+00  8.00000000E-01  8.00000000E-01
  1.50000000E+00  8.00000000E-01  8.00000000E-01  1.50000000E+00  8.00000000E-01
  8.00000000E-01  1.50000000E+00  8.00000000E-01  8.00000000E-01  1.50000000E+00
  8.00000000E-01  8.00000000E-01  1.50000000E+00  8.00000000E-01  8.00000000E-01
  1.50000000E+00  8.00000000E-01  8.00000000E-01  1.50000000E+00  8.00000000E-01
  8.00000000E-01  1.50000000E+00  8.00000000E-01  8.00000000E-01  1.50000000E+00
  8.00000000E-01  8.00000000E-01  1.50000000E+00  8.00000000E-01  8.00000000E-01
  1.50000000E+00  8.00000000E-01  8.00000000E-01  1.50000000E+00  8.00000000E-01
  8.00000000E-01  1.50000000E+00  8.00000000E-01  8.00000000E-01  1.50000000E+00
  8.00000000E-01  8.00000000E-01  1.50000000E+00  8.00000000E-01  8.00000000E-01
  1.50000000E+00  8.00000000E-01  8.00000000E-01  1.50000000E+00  8.00000000E-01
  8.00000000E-01  1.50000000E+00  8.00000000E-01  8.00000000E-01  1.50000000E+00
  8.00000000E-01  8.00000000E-01  1.50000000E+00  8.00000000E-01  8.00000000E-01
  1.50000000E+00  8.00000000E-01  8.00000000E-01  1.50000000E+00  8.00000000E-01
  8.00000000E-01  1.50000000E+00  8.00000000E-01  8.00000000E-01  1.50000000E+00
  8.00000000E-01  8.00000000E-01  1.50000000E+00  8.00000000E-01  8.00000000E-01
  1.50000000E+00  8.00000000E-01  8.00000000E-01  1.50000000E+00  8.00000000E-01
  8.00000000E-01  1.50000000E+00  8.00000000E-01  8.00000000E-01  1.50000000E+00
  8.00000000E-01  8.00000000E-01  1.50000000E+00  8.00000000E-01  8.00000000E-01
  1.50000000E+00  8.00000000E-01  8.00000000E-01  1.50000000E+00  8.00000000E-01
  8.00000000E-01  1.50000000E+00  8.00000000E-01  8.00000000E-01  1.50000000E+00
  8.00000000E-01  8.00000000E-01  1.50000000E+00  8.00000000E-01  8.00000000E-01
  1.50000000E+00  8.00000000E-01  8.00000000E-01  1.50000000E+00  8.00000000E-01
  8.00000000E-01  1.50000000E+00  8.00000000E-01  8.00000000E-01  1.50000000E+00
  8.00000000E-01  8.00000000E-01  1.50000000E+00  8.00000000E-01  8.00000000E-01
  1.50000000E+00  8.00000000E-01  8.00000000E-01  1.50000000E+00  8.00000000E-01
  8.00000000E-01  1.50000000E+00  8.00000000E-01  8.00000000E-01  1.50000000E+00
  8.00000000E-01  8.00000000E-01  1.50000000E+00  8.00000000E-01  8.00000000E-01
  1.50000000E+00  8.00000000E-01  8.00000000E-01  1.50000000E+00  8.00000000E-01
  8.00000000E-01  1.50000000E+00  8.00000000E-01  8.00000000E-01  1.50000000E+00
  8.00000000E-01  8.00000000E-01  1.50000000E+00  8.00000000E-01  8.00000000E-01
  1.50000000E+00  8.00000000E-01  8.00000000E-01  1.50000000E+00  8.00000000E-01
  8.00000000E-01  1.50000000E+00  8.00000000E-01  8.00000000E-01  1.50000000E+00
  8.00000000E-01  8.00000000E-01  1.50000000E+00  8.00000000E-01  8.00000000E-01
  1.50000000E+00  8.00000000E-01  8.00000000E-01  1.50000000E+00  8.00000000E-01
  8.00000000E-01  1.50000000E+00  8.00000000E-01  8.00000000E-01  1.50000000E+00
  8.00000000E-01  8.00000000E-01  1.50000000E+00  8.00000000E-01  8.00000000E-01
  1.50000000E+00  8.00000000E-01  8.00000000E-01  1.50000000E+00  8.00000000E-01
  8.00000000E-01  1.50000000E+00  8.00000000E-01  8.00000000E-01  1.50000000E+00
  8.00000000E-01  8.00000000E-01  1.50000000E+00  8.00000000E-01  8.00000000E-01
  1.50000000E+00  8.00000000E-01  8.00000000E-01  1.50000000E+00  8.00000000E-01
  8.00000000E-01  1.50000000E+00  8.00000000E-01  8.00000000E-01  1.50000000E+00
  8.00000000E-01  8.00000000E-01  1.50000000E+00  8.00000000E-01  8.00000000E-01
  1.50000000E+00  8.00000000E-01  8.00000000E-01  1.50000000E+00  8.00000000E-01
  8.00000000E-01  1.50000000E+00  8.00000000E-01  8.00000000E-01  1.50000000E+00
  8.00000000E-01  8.00000000E-01  1.50000000E+00  8.00000000E-01  8.00000000E-01
  1.50000000E+00  8.00000000E-01  8.00000000E-01  1.50000000E+00  8.00000000E-01
  8.00000000E-01  1.50000000E+00  8.00000000E-01  8.00000000E-01  1.50000000E+00
  8.00000000E-01  8.00000000E-01  1.50000000E+00  8.00000000E-01  8.00000000E-01
  1.50000000E+00  8.00000000E-01  8.00000000E-01  1.50000000E+00  8.00000000E-01
  8.00000000E-01  1.50000000E+00  8.00000000E-01  8.00000000E-01  1.50000000E+00
  8.00000000E-01  8.00000000E-01  1.50000000E+00  8.00000000E-01  8.00000000E-01
  1.50000000E+00  8.00000000E-01  8.00000000E-01  1.50000000E+00  8.00000000E-01
  8.00000000E-01  1.50000000E+00  8.00000000E-01  8.00000000E-01  1.50000000E+00
  8.00000000E-01  8.00000000E-01  1.50000000E+00  8.00000000E-01  8.00000000E-01
  1.50000000E+00  8.00000000E-01  8.00000000E-01  1.50000000E+00  8.00000000E-01
  8.00000000E-01  1.50000000E+00  8.00000000E-01  8.00000000E-01  1.50000000E+00
  8.00000000E-01  8.00000000E-01  1.50000000E+00  8.00000000E-01  8.00000000E-01
  1.50000000E+00  8.00000000E-01  8.00000000E-01  1.50000000E+00  8.00000000E-01
  8.00000000E-01  1.50000000E+00  8.00000000E-01  8.00000000E-01  1.50000000E+00
  8.00000000E-01  8.00000000E-01  1.50000000E+00  8.00000000E-01  8.00000000E-01
  1.50000000E+00  8.00000000E-01  8.00000000E-01  1.50000000E+00  8.00000000E-01
  8.00000000E-01  1.50000000E+00  8.00000000E-01  8.00000000E-01  1.50000000E+00
  8.00000000E-01  8.00000000E-01  1.50000000E+00  8.00000000E-01  8.00000000E-01
  1.50000000E+00  8.00000000E-01  8.00000000E-01  1.50000000E+00  8.00000000E-01
  8.00000000E-01  1.50000000E+00  8.00000000E-01  8.00000000E-01  1.50000000E+00
  8.00000000E-01  8.00000000E-01  1.50000000E+00  8.00000000E-01  8.00000000E-01
  1.50000000E+00  8.00000000E-01  8.00000000E-01  1.50000000E+00  8.00000000E-01
  8.00000000E-01  1.50000000E+00  8.00000000E-01  8.00000000E-01  1.50000000E+00
  8.00000000E-01  8.00000000E-01  1.50000000E+00  8.00000000E-01  8.00000000E-01
  1.50000000E+00  8.00000000E-01  8.00000000E-01  1.50000000E+00  8.00000000E-01
  8.00000000E-01  1.50000000E+00  8.00000000E-01  8.00000000E-01  1.50000000E+00
  8.00000000E-01  8.00000000E-01  1.50000000E+00  8.00000000E-01  8.00000000E-01
  1.50000000E+00  8.00000000E-01  8.00000000E-01  1.50000000E+00  8.00000000E-01
  8.00000000E-01  1.50000000E+00  8.00000000E-01  8.00000000E-01  1.50000000E+00
  8.00000000E-01  8.00000000E-01  1.50000000E+00  8.00000000E-01  8.00000000E-01
  1.50000000E+00  8.00000000E-01  8.00000000E-01  1.50000000E+00  8.00000000E-01
  8.00000000E-01  1.50000000E+00  8.00000000E-01  8.00000000E-01  1.50000000E+00
  8.00000000E-01  8.00000000E-01  1.50000000E+00  8.00000000E-01  8.00000000E-01
  1.50000000E+00  8.00000000E-01  8.00000000E-01  1.50000000E+00  8.00000000E-01
  8.00000000E-01  1.50000000E+00  8.00000000E-01  8.00000000E-01  1.50000000E+00
  8.00000000E-01  8.00000000E-01  1.50000000E+00  8.00000000E-01  8.00000000E-01
  1.50000000E+00  8.00000000E-01  8.00000000E-01  1.50000000E+00  8.00000000E-01
  8.00000000E-01  1.50000000E+00  8.00000000E-01  8.00000000E-01  1.50000000E+00
  8.00000000E-01  8.00000000E-01  1.50000000E+00  8.00000000E-01  8.00000000E-01
  1.50000000E+00  8.00000000E-01  8.00000000E-01  1.50000000E+00  8.00000000E-01
  8.00000000E-01  1.50000000E+00  8.00000000E-01  8.00000000E-01  1.50000000E+00
  8.00000000E-01  8.00000000E-01  1.50000000E+00  8.00000000E-01  8.00000000E-01
  1.50000000E+00  8.00000000E-01  8.00000000E-01  1.50000000E+00  8.00000000E-01
  8.00000000E-01  1.50000000E+00  8.00000000E-01  8.00000000E-01  1.50000000E+00
  8.00000000E-01  8.00000000E-01  1.50000000E+00  8.00000000E-01  8.00000000E-01
  1.50000000E+00  8.00000000E-01  8.00000000E-01  1.50000000E+00  8.00000000E-01
  8.00000000E-01  1.50000000E+00  8.00000000E-01  8.00000000E-01  1.50000000E+00
  8.00000000E-01  8.00000000E-01  1.50000000E+00  8.00000000E-01  8.00000000E-01
  1.50000000E+00  8.00000000E-01  8.00000000E-01  1.50000000E+00  8.00000000E-01
  8.00000000E-01  1.50000000E+00  8.00000000E-01  8.00000000E-01  1.50000000E+00
  8.00000000E-01  8.00000000E-01  1.50000000E+00  8.00000000E-01  8.00000000E-01
  1.50000000E+00  8.00000000E-01  8.00000000E-01  1.50000000E+00  8.00000000E-01
  8.00000000E-01  1.50000000E+00  8.00000000E-01  8.00000000E-01  1.50000000E+00
  8.00000000E-01  8.00000000E-01  1.50000000E+00  8.00000000E-01  8.00000000E-01
  1.50000000E+00  8.00000000E-01  8.00000000E-01  1.50000000E+00  8.00000000E-01
  8.00000000E-01  1.50000000E+00  8.00000000E-01  8.00000000E-01  1.50000000E+00
  8.00000000E-01  8.00000000E-01  1.50000000E+00  8.00000000E-01  8.00000000E-01
  1.50000000E+00  8.00000000E-01  8.00000000E-01  1.50000000E+00  8.00000000E-01
  8.00000000E-01  1.50000000E+00  8.00000000E-01  8.00000000E-01  1.50000000E+00
  8.00000000E-01  8.00000000E-01  1.50000000E+00  8.00000000E-01  8.00000000E-01
  1.50000000E+00  8.00000000E-01  8.00000000E-01  1.50000000E+00  8.00000000E-01
  8.00000000E-01  1.50000000E+00  8.00000000E-01  8.00000000E-01  1.50000000E+00
  8.00000000E-01  8.00000000E-01  1.50000000E+00  8.00000000E-01  8.00000000E-01
  1.50000000E+00  8.00000000E-01  8.00000000E-01  1.50000000E+00  8.00000000E-01
  8.00000000E-01  1.50000000E+00  8.00000000E-01  8.00000000E-01  1.50000000E+00
  8.00000000E-01  8.00000000E-01  1.50000000E+00  8.00000000E-01  8.00000000E-01
  1.50000000E+00  8.00000000E-01  8.00000000E-01  1.50000000E+00  8.00000000E-01
  8.00000000E-01  1.50000000E+00  8.00000000E-01  8.00000000E-01  1.50000000E+00
  8.00000000E-01  8.00000000E-01  1.50000000E+00  8.00000000E-01  8.00000000E-01
  1.50000000E+00  8.00000000E-01  8.00000000E-01  1.50000000E+00  8.00000000E-01
  8.00000000E-01  1.50000000E+00  8.00000000E-01  8.00000000E-01  1.50000000E+00
  8.00000000E-01  8.00000000E-01  1.50000000E+00  8.00000000E-01  8.00000000E-01
  1.50000000E+00  8.00000000E-01  8.00000000E-01  1.50000000E+00  8.00000000E-01
  8.00000000E-01  1.50000000E+00  8.00000000E-01  8.00000000E-01  1.50000000E+00
  8.00000000E-01  8.00000000E-01  1.50000000E+00  8.00000000E-01  8.00000000E-01
  1.50000000E+00  8.00000000E-01  8.00000000E-01  1.50000000E+00  8.00000000E-01
  8.00000000E-01  1.50000000E+00  8.00000000E-01  8.00000000E-01  1.50000000E+00
  8.00000000E-01  8.00000000E-01  1.50000000E+00  8.00000000E-01  8.00000000E-01
  1.50000000E+00  8.00000000E-01  8.00000000E-01  1.50000000E+00  8.00000000E-01
  8.00000000E-01  1.50000000E+00  8.00000000E-01  8.00000000E-01  1.50000000E+00
  8.00000000E-01  8.00000000E-01  1.50000000E+00  8.00000000E-01  8.00000000E-01
  1.50000000E+00  8.00000000E-01  8.00000000E-01  1.50000000E+00  8.00000000E-01
  8.00000000E-01  1.50000000E+00  8.00000000E-01  8.00000000E-01  1.50000000E+00
  8.00000000E-01  8.00000000E-01  1.50000000E+00  8.00000000E-01  8.00000000E-01
  1.50000000E+00  8.00000000E-01  8.00000000E-01  1.50000000E+00  8.00000000E-01
  8.00000000E-01  1.50000000E+00  8.00000000E-01  8.00000000E-01  1.50000000E+00
  8.00000000E-01  8.00000000E-01  1.50000000E+00  8.00000000E-01  8.00000000E-01
  1.50000000E+00  8.00000000E-01  8.00000000E-01  1.50000000E+00  8.00000000E-01
  8.00000000E-01  1.50000000E+00  8.00000000E-01  8.00000000E-01  1.50000000E+00
  8.00000000E-01  8.00000000E-01  1.50000000E+00  8.00000000E-01  8.00000000E-01
  1.50000000E+00  8.00000000E-01  8.00000000E-01  1.50000000E+00  8.00000000E-01
  8.00000000E-01  1.50000000E+00  8.00000000E-01  8.00000000E-01  1.50000000E+00
  8.00000000E-01  8.00000000E-01  1.50000000E+00  8.00000000E-01  8.00000000E-01
  1.50000000E+00  8.00000000E-01  8.00000000E-01  1.50000000E+00  8.00000000E-01
  8.00000000E-01  1.50000000E+00  8.00000000E-01  8.00000000E-01  1.50000000E+00
  8.00000000E-01  8.00000000E-01  1.50000000E+00  8.00000000E-01  8.00000000E-01
  1.50000000E+00  8.00000000E-01  8.00000000E-01  1.50000000E+00  8.00000000E-01
  8.00000000E-01  1.50000000E+00  8.00000000E-01  8.00000000E-01  1.50000000E+00
  8.00000000E-01  8.00000000E-01  1.50000000E+00  8.00000000E-01  8.00000000E-01
  1.50000000E+00  8.00000000E-01  8.00000000E-01  1.50000000E+00  8.00000000E-01
  8.00000000E-01  1.50000000E+00  8.00000000E-01  8.00000000E-01  1.50000000E+00
  8.00000000E-01  8.00000000E-01  1.50000000E+00  8.00000000E-01  8.00000000E-01
  1.50000000E+00  8.00000000E-01  8.00000000E-01  1.50000000E+00  8.00000000E-01
  8.00000000E-01  1.50000000E+00  8.00000000E-01  8.00000000E-01  1.50000000E+00
  8.00000000E-01  8.00000000E-01  1.50000000E+00  8.00000000E-01  8.00000000E-01
  1.50000000E+00  8.00000000E-01  8.00000000E-01  1.50000000E+00  8.00000000E-01
  8.00000000E-01  1.50000000E+00  8.00000000E-01  8.00000000E-01  1.50000000E+00
  8.00000000E-01  8.00000000E-01  1.50000000E+00  8.00000000E-01  8.00000000E-01
  1.50000000E+00  8.00000000E-01  8.00000000E-01  1.50000000E+00  8.00000000E-01
  8.00000000E-01  1.50000000E+00  8.00000000E-01  8.00000000E-01  1.50000000E+00
  8.00000000E-01  8.00000000E-01  1.50000000E+00  8.00000000E-01  8.00000000E-01
  1.50000000E+00  8.00000000E-01  8.00000000E-01  1.50000000E+00  8.00000000E-01
  8.00000000E-01  1.50000000E+00  8.00000000E-01  8.00000000E-01  1.50000000E+00
  8.00000000E-01  8.00000000E-01  1.50000000E+00  8.00000000E-01  8.00000000E-01
  1.50000000E+00  8.00000000E-01  8.00000000E-01  1.50000000E+00  8.00000000E-01
  8.00000000E-01  1.50000000E+00  8.00000000E-01  8.00000000E-01  1.50000000E+00
  8.00000000E-01  8.00000000E-01  1.50000000E+00  8.00000000E-01  8.00000000E-01
  1.50000000E+00  8.00000000E-01  8.00000000E-01  1.50000000E+00  8.00000000E-01
  8.00000000E-01  1.50000000E+00  8.00000000E-01  8.00000000E-01  1.50000000E+00
  8.00000000E-01  8.00000000E-01  1.50000000E+00  8.00000000E-01  8.00000000E-01
  1.50000000E+00  8.00000000E-01  8.00000000E-01  1.50000000E+00  8.00000000E-01
  8.00000000E-01  1.50000000E+00  8.00000000E-01  8.00000000E-01  1.50000000E+00
  8.00000000E-01  8.00000000E-01  1.50000000E+00  8.00000000E-01  8.00000000E-01
  1.50000000E+00  8.00000000E-01  8.00000000E-01  1.50000000E+00  8.00000000E-01
  8.00000000E-01  1.50000000E+00  8.00000000E-01  8.00000000E-01  1.50000000E+00
  8.00000000E-01  8.00000000E-01  1.50000000E+00  8.00000000E-01  8.00000000E-01
  1.50000000E+00  8.00000000E-01  8.00000000E-01  1.50000000E+00  8.00000000E-01
  8.00000000E-01  1.50000000E+00  8.00000000E-01  8.00000000E-01  1.50000000E+00
  8.00000000E-01  8.00000000E-01  1.50000000E+00  8.00000000E-01  8.00000000E-01
  1.50000000E+00  8.00000000E-01  8.00000000E-01  1.50000000E+00  8.00000000E-01
  8.00000000E-01  1.50000000E+00  8.00000000E-01  8.00000000E-01  1.50000000E+00
  8.00000000E-01  8.00000000E-01  1.50000000E+00  8.00000000E-01  8.00000000E-01
  1.50000000E+00  8.00000000E-01  8.00000000E-01  1.50000000E+00  8.00000000E-01
  8.00000000E-01  1.50000000E+00  8.00000000E-01  8.00000000E-01  1.50000000E+00
  8.00000000E-01  8.00000000E-01  1.50000000E+00  8.00000000E-01  8.00000000E-01
  1.50000000E+00  8.00000000E-01  8.00000000E-01  1.50000000E+00  8.00000000E-01
  8.00000000E-01  1.50000000E+00  8.00000000E-01  8.00000000E-01  1.50000000E+00
  8.00000000E-01  8.00000000E-01  1.50000000E+00  8.00000000E-01  8.00000000E-01
  1.50000000E+00  8.00000000E-01  8.00000000E-01  1.50000000E+00  8.00000000E-01
  8.00000000E-01  1.50000000E+00  8.00000000E-01  8.00000000E-01  1.50000000E+00
  8.00000000E-01  8.00000000E-01  1.50000000E+00  8.00000000E-01  8.00000000E-01
  1.50000000E+00  8.00000000E-01  8.00000000E-01  1.50000000E+00  8.00000000E-01
  8.00000000E-01  1.50000000E+00  8.00000000E-01  8.00000000E-01  1.50000000E+00
  8.00000000E-01  8.00000000E-01  1.50000000E+00  8.00000000E-01  8.00000000E-01
  1.50000000E+00  8.00000000E-01  8.00000000E-01  1.50000000E+00  8.00000000E-01
  8.00000000E-01  1.50000000E+00  8.00000000E-01  8.00000000E-01  1.50000000E+00
  8.00000000E-01  8.00000000E-01  1.50000000E+00  8.00000000E-01  8.00000000E-01
  1.50000000E+00  8.00000000E-01  8.00000000E-01  1.50000000E+00  8.00000000E-01
  8.00000000E-01  1.50000000E+00  8.00000000E-01  8.00000000E-01  1.50000000E+00
  8.00000000E-01  8.00000000E-01  1.50000000E+00  8.00000000E-01  8.00000000E-01
  1.50000000E+00  8.00000000E-01  8.00000000E-01  1.50000000E+00  8.00000000E-01
  8.00000000E-01  1.50000000E+00  8.00000000E-01  8.00000000E-01  1.50000000E+00
  8.00000000E-01  8.00000000E-01  1.50000000E+00  8.00000000E-01  8.00000000E-01
  1.50000000E+00  8.00000000E-01  8.00000000E-01  1.50000000E+00  8.00000000E-01
  8.00000000E-01  1.50000000E+00  8.00000000E-01  8.00000000E-01  1.50000000E+00
  8.00000000E-01  8.00000000E-01  1.50000000E+00  8.00000000E-01  8.00000000E-01
  1.50000000E+00  8.00000000E-01  8.00000000E-01  1.50000000E+00  8.00000000E-01
  8.00000000E-01  1.50000000E+00  8.00000000E-01  8.00000000E-01  1.50000000E+00
  8.00000000E-01  8.00000000E-01  1.50000000E+00  8.00000000E-01  8.00000000E-01
  1.50000000E+00  8.00000000E-01  8.00000000E-01  1.50000000E+00  8.00000000E-01
  8.00000000E-01  1.50000000E+00  8.00000000E-01  8.00000000E-01  1.50000000E+00
  8.00000000E-01  8.00000000E-01  1.50000000E+00  8.00000000E-01  8.00000000E-01
  1.50000000E+00  8.00000000E-01  8.00000000E-01  1.50000000E+00  8.00000000E-01
  8.00000000E-01  1.50000000E+00  8.00000000E-01  8.00000000E-01  1.50000000E+00
  8.00000000E-01  8.00000000E-01  1.50000000E+00  8.00000000E-01  8.00000000E-01
  1.50000000E+00  8.00000000E-01  8.00000000E-01  1.50000000E+00  8.00000000E-01
  8.00000000E-01  1.50000000E+00  8.00000000E-01  8.00000000E-01  1.50000000E+00
  8.00000000E-01  8.00000000E-01  1.50000000E+00  8.00000000E-01  8.00000000E-01
  1.50000000E+00  8.00000000E-01  8.00000000E-01  1.50000000E+00  8.00000000E-01
  8.00000000E-01  1.50000000E+00  8.00000000E-01  8.00000000E-01  1.50000000E+00
  8.00000000E-01  8.00000000E-01  1.50000000E+00  8.00000000E-01  8.00000000E-01
  1.50000000E+00  8.00000000E-01  8.00000000E-01  1.50000000E+00  8.00000000E-01
  8.00000000E-01  1.50000000E+00  8.00000000E-01  8.00000000E-01  1.50000000E+00
  8.00000000E-01  8.00000000E-01  1.50000000E+00  8.00000000E-01  8.00000000E-01
  1.50000000E+00  8.00000000E-01  8.00000000E-01  1.50000000E+00  8.00000000E-01
  8.00000000E-01  1.50000000E+00  8.00000000E-01  8.00000000E-01  1.50000000E+00
  8.00000000E-01  8.00000000E-01  1.50000000E+00  8.00000000E-01  8.00000000E-01
  1.50000000E+00  8.00000000E-01  8.00000000E-01  1.50000000E+00  8.00000000E-01
  8.00000000E-01  1.50000000E+00  8.00000000E-01  8.00000000E-01  1.50000000E+00
  8.00000000E-01  8.00000000E-01  1.50000000E+00  8.00000000E-01  8.00000000E-01
  1.50000000E+00  8.00000000E-01  8.00000000E-01  1.50000000E+00  8.00000000E-01
  8.00000000E-01  1.50000000E+00  8.00000000E-01  8.00000000E-01  1.50000000E+00
  8.00000000E-01  8.00000000E-01  1.50000000E+00  8.00000000E-01  8.00000000E-01
  1.50000000E+00  8.00000000E-01  8.00000000E-01  1.50000000E+00  8.00000000E-01
  8.00000000E-01  1.50000000E+00  8.00000000E-01  8.00000000E-01  1.50000000E+00
  8.00000000E-01  8.00000000E-01  1.50000000E+00  8.00000000E-01  8.00000000E-01
  1.50000000E+00  8.00000000E-01  8.00000000E-01  1.50000000E+00  8.00000000E-01
  8.00000000E-01  1.50000000E+00  8.00000000E-01  8.00000000E-01  1.50000000E+00
  8.00000000E-01  8.00000000E-01  1.50000000E+00  8.00000000E-01  8.00000000E-01
  1.50000000E+00  8.00000000E-01  8.00000000E-01  1.50000000E+00  8.00000000E-01
  8.00000000E-01  1.50000000E+00  8.00000000E-01  8.00000000E-01  1.50000000E+00
  8.00000000E-01  8.00000000E-01  1.50000000E+00  8.00000000E-01  8.00000000E-01
  1.50000000E+00  8.00000000E-01  8.00000000E-01  1.50000000E+00  8.00000000E-01
  8.00000000E-01  1.50000000E+00  8.00000000E-01  8.00000000E-01  1.50000000E+00
  8.00000000E-01  8.00000000E-01  1.50000000E+00  8.00000000E-01  8.00000000E-01
  1.50000000E+00  8.00000000E-01  8.00000000E-01  1.50000000E+00  8.00000000E-01
  8.00000000E-01  1.50000000E+00  8.00000000E-01  8.00000000E-01  1.50000000E+00
  8.00000000E-01  8.00000000E-01  1.50000000E+00  8.00000000E-01  8.00000000E-01
  1.50000000E+00  8.00000000E-01  8.00000000E-01  1.50000000E+00  8.00000000E-01
  8.00000000E-01  1.50000000E+00  8.00000000E-01  8.00000000E-01  1.50000000E+00
  8.00000000E-01  8.00000000E-01  1.50000000E+00  8.00000000E-01  8.00000000E-01
  1.50000000E+00  8.00000000E-01  8.00000000E-01  1.50000000E+00  8.00000000E-01
  8.00000000E-01  1.50000000E+00  8.00000000E-01  8.00000000E-01  1.50000000E+00
  8.00000000E-01  8.00000000E-01  1.50000000E+00  8.00000000E-01  8.00000000E-01
  1.50000000E+00  8.00000000E-01  8.00000000E-01  1.50000000E+00  8.00000000E-01
  8.00000000E-01  1.50000000E+00  8.00000000E-01  8.00000000E-01  1.50000000E+00
  8.00000000E-01  8.00000000E-01  1.50000000E+00  8.00000000E-01  8.00000000E-01
  1.50000000E+00  8.00000000E-01  8.00000000E-01  1.50000000E+00  8.00000000E-01
  8.00000000E-01  1.50000000E+00  8.00000000E-01  8.00000000E-01  1.50000000E+00
  8.00000000E-01  8.00000000E-01  1.50000000E+00  8.00000000E-01  8.00000000E-01
  1.50000000E+00  8.00000000E-01  8.00000000E-01  1.50000000E+00  8.00000000E-01
  8.00000000E-01  1.50000000E+00  8.00000000E-01  8.00000000E-01  1.50000000E+00
  8.00000000E-01  8.00000000E-01  1.50000000E+00  8.00000000E-01  8.00000000E-01
  1.50000000E+00  8.00000000E-01  8.00000000E-01  1.50000000E+00  8.00000000E-01
  8.00000000E-01  1.50000000E+00  8.00000000E-01  8.00000000E-01  1.50000000E+00
  8.00000000E-01  8.00000000E-01  1.50000000E+00  8.00000000E-01  8.00000000E-01
  1.50000000E+00  8.00000000E-01  8.00000000E-01  1.50000000E+00  8.00000000E-01
  8.00000000E-01  1.50000000E+00  8.00000000E-01  8.00000000E-01  1.50000000E+00
  8.00000000E-01  8.00000000E-01  1.50000000E+00  8.00000000E-01  8.00000000E-01
  1.50000000E+00  8.00000000E-01  8.00000000E-01  1.50000000E+00  8.00000000E-01
  8.00000000E-01  1.50000000E+00  8.00000000E-01  8.00000000E-01  1.50000000E+00
  8.00000000E-01  8.00000000E-01  1.50000000E+00  8.00000000E-01  8.00000000E-01
  1.50000000E+00  8.00000000E-01  8.00000000E-01  1.50000000E+00  8.00000000E-01
  8.00000000E-01  1.50000000E+00  8.00000000E-01  8.00000000E-01  1.50000000E+00
  8.00000000E-01  8.00000000E-01  1.50000000E+00  8.00000000E-01  8.00000000E-01
  1.50000000E+00  8.00000000E-01  8.00000000E-01  1.50000000E+00  8.00000000E-01
  8.00000000E-01  1.50000000E+00  8.00000000E-01  8.00000000E-01  1.50000000E+00
  8.00000000E-01  8.00000000E-01  1.50000000E+00  8.00000000E-01  8.00000000E-01
  1.50000000E+00  8.00000000E-01  8.00000000E-01  1.50000000E+00  8.00000000E-01
  8.00000000E-01  1.50000000E+00  8.00000000E-01  8.00000000E-01  1.50000000E+00
  8.00000000E-01  8.00000000E-01  1.50000000E+00  8.00000000E-01  8.00000000E-01
  1.50000000E+00  8.00000000E-01  8.00000000E-01  1.50000000E+00  8.00000000E-01
  8.00000000E-01  1.50000000E+00  8.00000000E-01  8.00000000E-01  1.50000000E+00
  8.00000000E-01  8.00000000E-01  1.50000000E+00  8.00000000E-01  8.00000000E-01
  1.50000000E+00  8.00000000E-01  8.00000000E-01  1.50000000E+00  8.00000000E-01
  8.00000000E-01  1.50000000E+00  8.00000000E-01  8.00000000E-01  1.50000000E+00
  8.00000000E-01  8.00000000E-01  1.50000000E+00  8.00000000E-01  8.00000000E-01
  1.50000000E+00  8.00000000E-01  8.00000000E-01  1.50000000E+00  8.00000000E-01
  8.00000000E-01  1.50000000E+00  8.00000000E-01  8.00000000E-01  1.50000000E+00
  8.00000000E-01  8.00000000E-01  1.50000000E+00  8.00000000E-01  8.00000000E-01
  1.50000000E+00  8.00000000E-01  8.00000000E-01  1.50000000E+00  8.00000000E-01
  8.00000000E-01  1.50000000E+00  8.00000000E-01  8.00000000E-01  1.50000000E+00
  8.00000000E-01  8.00000000E-01  1.50000000E+00  8.00000000E-01  8.00000000E-01
  1.50000000E+00  8.00000000E-01  8.00000000E-01  1.50000000E+00  8.00000000E-01
  8.00000000E-01  1.50000000E+00  8.00000000E-01  8.00000000E-01  1.50000000E+00
  8.00000000E-01  8.00000000E-01  1.50000000E+00  8.00000000E-01  8.00000000E-01
  1.50000000E+00  8.00000000E-01  8.00000000E-01  1.50000000E+00  8.00000000E-01
  8.00000000E-01  1.50000000E+00  8.00000000E-01  8.00000000E-01  1.50000000E+00
  8.00000000E-01  8.00000000E-01  1.50000000E+00  8.00000000E-01  8.00000000E-01
  1.50000000E+00  8.00000000E-01  8.00000000E-01  1.50000000E+00  8.00000000E-01
  8.00000000E-01  1.50000000E+00  8.00000000E-01  8.00000000E-01  1.50000000E+00
  8.00000000E-01  8.00000000E-01  1.50000000E+00  8.00000000E-01  8.00000000E-01
  1.50000000E+00  8.00000000E-01  8.00000000E-01  1.50000000E+00  8.00000000E-01
  8.00000000E-01  1.50000000E+00  8.00000000E-01  8.00000000E-01  1.50000000E+00
  8.00000000E-01  8.00000000E-01  1.50000000E+00  8.00000000E-01  8.00000000E-01
  1.50000000E+00  8.00000000E-01  8.00000000E-01  1.50000000E+00  8.00000000E-01
  8.00000000E-01  1.50000000E+00  8.00000000E-01  8.00000000E-01  1.50000000E+00
  8.00000000E-01  8.00000000E-01  1.50000000E+00  8.00000000E-01  8.00000000E-01
  1.50000000E+00  8.00000000E-01  8.00000000E-01  1.50000000E+00  8.00000000E-01
  8.00000000E-01  1.50000000E+00  8.00000000E-01  8.00000000E-01  1.50000000E+00
  8.00000000E-01  8.00000000E-01  1.50000000E+00  8.00000000E-01  8.00000000E-01
  1.50000000E+00  8.00000000E-01  8.00000000E-01  1.50000000E+00  8.00000000E-01
  8.00000000E-01  1.50000000E+00  8.00000000E-01  8.00000000E-01  1.50000000E+00
  8.00000000E-01  8.00000000E-01  1.50000000E+00  8.00000000E-01  8.00000000E-01
  1.50000000E+00  8.00000000E-01  8.00000000E-01  1.50000000E+00  8.00000000E-01
  8.00000000E-01  1.50000000E+00  8.00000000E-01  8.00000000E-01  1.50000000E+00
  8.00000000E-01  8.00000000E-01  1.50000000E+00  8.00000000E-01  8.00000000E-01
  1.50000000E+00  8.00000000E-01  8.00000000E-01  1.50000000E+00  8.00000000E-01
  8.00000000E-01  1.50000000E+00  8.00000000E-01  8.00000000E-01  1.50000000E+00
  8.00000000E-01  8.00000000E-01  1.50000000E+00  8.00000000E-01  8.00000000E-01
  1.50000000E+00  8.00000000E-01  8.00000000E-01  1.50000000E+00  8.00000000E-01
  8.00000000E-01  1.50000000E+00  8.00000000E-01  8.00000000E-01  1.50000000E+00
  8.00000000E-01  8.00000000E-01  1.50000000E+00  8.00000000E-01  8.00000000E-01
  1.50000000E+00  8.00000000E-01  8.00000000E-01  1.50000000E+00  8.00000000E-01
  8.00000000E-01  1.50000000E+00  8.00000000E-01  8.00000000E-01  1.50000000E+00
  8.00000000E-01  8.00000000E-01  1.50000000E+00  8.00000000E-01  8.00000000E-01
  1.50000000E+00  8.00000000E-01  8.00000000E-01  1.50000000E+00  8.00000000E-01
  8.00000000E-01  1.50000000E+00  8.00000000E-01  8.00000000E-01  1.50000000E+00
  8.00000000E-01  8.00000000E-01  1.50000000E+00  8.00000000E-01  8.00000000E-01
  1.50000000E+00  8.00000000E-01  8.00000000E-01  1.50000000E+00  8.00000000E-01
  8.00000000E-01  1.50000000E+00  8.00000000E-01  8.00000000E-01  1.50000000E+00
  8.00000000E-01  8.00000000E-01  1.50000000E+00  8.00000000E-01  8.00000000E-01
  1.50000000E+00  8.00000000E-01  8.00000000E-01  1.50000000E+00  8.00000000E-01
  8.00000000E-01  1.50000000E+00  8.00000000E-01  8.00000000E-01  1.50000000E+00
  8.00000000E-01  8.00000000E-01  1.50000000E+00  8.00000000E-01  8.00000000E-01
  1.50000000E+00  8.00000000E-01  8.00000000E-01  1.50000000E+00  8.00000000E-01
  8.00000000E-01  1.50000000E+00  8.00000000E-01  8.00000000E-01  1.50000000E+00
  8.00000000E-01  8.00000000E-01  1.50000000E+00  8.00000000E-01  8.00000000E-01
  1.50000000E+00  8.00000000E-01  8.00000000E-01  1.50000000E+00  8.00000000E-01
  8.00000000E-01  1.50000000E+00  8.00000000E-01  8.00000000E-01  1.50000000E+00
  8.00000000E-01  8.00000000E-01  1.50000000E+00  8.00000000E-01  8.00000000E-01
  1.50000000E+00  8.00000000E-01  8.00000000E-01  1.50000000E+00  8.00000000E-01
  8.00000000E-01  1.50000000E+00  8.00000000E-01  8.00000000E-01  1.50000000E+00
  8.00000000E-01  8.00000000E-01  1.50000000E+00  8.00000000E-01  8.00000000E-01
  1.50000000E+00  8.00000000E-01  8.00000000E-01  1.50000000E+00  8.00000000E-01
  8.00000000E-01  1.50000000E+00  8.00000000E-01  8.00000000E-01  1.50000000E+00
  8.00000000E-01  8.00000000E-01  1.50000000E+00  8.00000000E-01  8.00000000E-01
  1.50000000E+00  8.00000000E-01  8.00000000E-01  1.50000000E+00  8.00000000E-01
  8.00000000E-01  1.50000000E+00  8.00000000E-01  8.00000000E-01  1.50000000E+00
  8.00000000E-01  8.00000000E-01  1.50000000E+00  8.00000000E-01  8.00000000E-01
  1.50000000E+00  8.00000000E-01  8.00000000E-01  1.50000000E+00  8.00000000E-01
  8.00000000E-01  1.50000000E+00  8.00000000E-01  8.00000000E-01  1.50000000E+00
  8.00000000E-01  8.00000000E-01  1.50000000E+00  8.00000000E-01  8.00000000E-01
  1.50000000E+00  8.00000000E-01  8.00000000E-01  1.50000000E+00  8.00000000E-01
  8.00000000E-01  1.50000000E+00  8.00000000E-01  8.00000000E-01  1.50000000E+00
  8.00000000E-01  8.00000000E-01  1.50000000E+00  8.00000000E-01  8.00000000E-01
  1.50000000E+00  8.00000000E-01  8.00000000E-01  1.50000000E+00  8.00000000E-01
  8.00000000E-01  1.50000000E+00  8.00000000E-01  8.00000000E-01  1.50000000E+00
  8.00000000E-01  8.00000000E-01  1.50000000E+00  8.00000000E-01  8.00000000E-01
  1.50000000E+00  8.00000000E-01  8.00000000E-01  1.50000000E+00  8.00000000E-01
  8.00000000E-01  1.50000000E+00  8.00000000E-01  8.00000000E-01  1.50000000E+00
  8.00000000E-01  8.00000000E-01  1.50000000E+00  8.00000000E-01  8.00000000E-01
  1.50000000E+00  8.00000000E-01  8.00000000E-01  1.50000000E+00  8.00000000E-01
  8.00000000E-01  1.50000000E+00  8.00000000E-01  8.00000000E-01  1.50000000E+00
  8.00000000E-01  8.00000000E-01  1.50000000E+00  8.00000000E-01  8.00000000E-01
  1.50000000E+00  8.00000000E-01  8.00000000E-01  1.50000000E+00  8.00000000E-01
  8.00000000E-01  1.50000000E+00  8.00000000E-01  8.00000000E-01  1.50000000E+00
  8.00000000E-01  8.00000000E-01  1.50000000E+00  8.00000000E-01  8.00000000E-01
  1.50000000E+00  8.00000000E-01  8.00000000E-01  1.50000000E+00  8.00000000E-01
  8.00000000E-01  1.50000000E+00  8.00000000E-01  8.00000000E-01  1.50000000E+00
  8.00000000E-01  8.00000000E-01  1.50000000E+00  8.00000000E-01  8.00000000E-01
  1.50000000E+00  8.00000000E-01  8.00000000E-01  1.50000000E+00  8.00000000E-01
  8.00000000E-01  1.50000000E+00  8.00000000E-01  8.00000000E-01  1.50000000E+00
  8.00000000E-01  8.00000000E-01  1.50000000E+00  8.00000000E-01  8.00000000E-01
  1.50000000E+00  8.00000000E-01  8.00000000E-01  1.50000000E+00  8.00000000E-01
  8.00000000E-01  1.50000000E+00  8.00000000E-01  8.00000000E-01  1.50000000E+00
  8.00000000E-01  8.00000000E-01  1.50000000E+00  8.00000000E-01  8.00000000E-01
  1.50000000E+00  8.00000000E-01  8.00000000E-01  1.50000000E+00  8.00000000E-01
  8.00000000E-01  1.50000000E+00  8.00000000E-01  8.00000000E-01  1.50000000E+00
  8.00000000E-01  8.00000000E-01  1.50000000E+00  8.00000000E-01  8.00000000E-01
  1.50000000E+00  8.00000000E-01  8.00000000E-01  1.50000000E+00  8.00000000E-01
  8.00000000E-01  1.50000000E+00  8.00000000E-01  8.00000000E-01  1.50000000E+00
  8.00000000E-01  8.00000000E-01  1.50000000E+00  8.00000000E-01  8.00000000E-01
  1.50000000E+00  8.00000000E-01  8.00000000E-01  1.50000000E+00  8.00000000E-01
  8.00000000E-01  1.50000000E+00  8.00000000E-01  8.00000000E-01  1.50000000E+00
  8.00000000E-01  8.00000000E-01  1.50000000E+00  8.00000000E-01  8.00000000E-01
  1.50000000E+00  8.00000000E-01  8.00000000E-01  1.50000000E+00  8.00000000E-01
  8.00000000E-01  1.50000000E+00  8.00000000E-01  8.00000000E-01  1.50000000E+00
  8.00000000E-01  8.00000000E-01  1.50000000E+00  8.00000000E-01  8.00000000E-01
  1.50000000E+00  8.00000000E-01  8.00000000E-01  1.50000000E+00  8.00000000E-01
  8.00000000E-01  1.50000000E+00  8.00000000E-01  8.00000000E-01  1.50000000E+00
  8.00000000E-01  8.00000000E-01  1.50000000E+00  8.00000000E-01  8.00000000E-01
  1.50000000E+00  8.00000000E-01  8.00000000E-01  1.50000000E+00  8.00000000E-01
  8.00000000E-01  1.50000000E+00  8.00000000E-01  8.00000000E-01  1.50000000E+00
  8.00000000E-01  8.00000000E-01  1.50000000E+00  8.00000000E-01  8.00000000E-01
  1.50000000E+00  8.00000000E-01  8.00000000E-01  1.50000000E+00  8.00000000E-01
  8.00000000E-01  1.50000000E+00  8.00000000E-01  8.00000000E-01  1.50000000E+00
  8.00000000E-01  8.00000000E-01  1.50000000E+00  8.00000000E-01  8.00000000E-01
  1.50000000E+00  8.00000000E-01  8.00000000E-01  1.50000000E+00  8.00000000E-01
  8.00000000E-01  1.50000000E+00  8.00000000E-01  8.00000000E-01  1.50000000E+00
  8.00000000E-01  8.00000000E-01  1.50000000E+00  8.00000000E-01  8.00000000E-01
  1.50000000E+00  8.00000000E-01  8.00000000E-01  1.50000000E+00  8.00000000E-01
  8.00000000E-01  1.50000000E+00  8.00000000E-01  8.00000000E-01  1.50000000E+00
  8.00000000E-01  8.00000000E-01  1.50000000E+00  8.00000000E-01  8.00000000E-01
  1.50000000E+00  8.00000000E-01  8.00000000E-01  1.50000000E+00  8.00000000E-01
  8.00000000E-01  1.50000000E+00  8.00000000E-01  8.00000000E-01  1.50000000E+00
  8.00000000E-01  8.00000000E-01  1.50000000E+00  8.00000000E-01  8.00000000E-01
  1.50000000E+00  8.00000000E-01  8.00000000E-01  1.50000000E+00  8.00000000E-01
  8.00000000E-01  1.50000000E+00  8.00000000E-01  8.00000000E-01  1.50000000E+00
  8.00000000E-01  8.00000000E-01  1.50000000E+00  8.00000000E-01  8.00000000E-01
  1.50000000E+00  8.00000000E-01  8.00000000E-01  1.50000000E+00  8.00000000E-01
  8.00000000E-01  1.50000000E+00  8.00000000E-01  8.00000000E-01  1.50000000E+00
  8.00000000E-01  8.00000000E-01  1.50000000E+00  8.00000000E-01  8.00000000E-01
  1.50000000E+00  8.00000000E-01  8.00000000E-01  1.50000000E+00  8.00000000E-01
  8.00000000E-01  1.50000000E+00  8.00000000E-01  8.00000000E-01  1.50000000E+00
  8.00000000E-01  8.00000000E-01  1.50000000E+00  8.00000000E-01  8.00000000E-01
  1.50000000E+00  8.00000000E-01  8.00000000E-01  1.50000000E+00  8.00000000E-01
  8.00000000E-01  1.50000000E+00  8.00000000E-01  8.00000000E-01  1.50000000E+00
  8.00000000E-01  8.00000000E-01  1.50000000E+00  8.00000000E-01  8.00000000E-01
  1.50000000E+00  8.00000000E-01  8.00000000E-01  1.50000000E+00  8.00000000E-01
  8.00000000E-01  1.50000000E+00  8.00000000E-01  8.00000000E-01  1.50000000E+00
  8.00000000E-01  8.00000000E-01  1.50000000E+00  8.00000000E-01  8.00000000E-01
  1.50000000E+00  8.00000000E-01  8.00000000E-01  1.50000000E+00  8.00000000E-01
  8.00000000E-01  1.50000000E+00  8.00000000E-01  8.00000000E-01  1.50000000E+00
  8.00000000E-01  8.00000000E-01  1.50000000E+00  8.00000000E-01  8.00000000E-01
  1.50000000E+00  8.00000000E-01  8.00000000E-01  1.50000000E+00  8.00000000E-01
  8.00000000E-01  1.50000000E+00  8.00000000E-01  8.00000000E-01  1.50000000E+00
  8.00000000E-01  8.00000000E-01  1.50000000E+00  8.00000000E-01  8.00000000E-01
  1.50000000E+00  8.00000000E-01  8.00000000E-01  1.50000000E+00  8.00000000E-01
  8.00000000E-01  1.50000000E+00  8.00000000E-01  8.00000000E-01  1.50000000E+00
  8.00000000E-01  8.00000000E-01  1.50000000E+00  8.00000000E-01  8.00000000E-01
  1.50000000E+00  8.00000000E-01  8.00000000E-01  1.50000000E+00  8.00000000E-01
  8.00000000E-01  1.50000000E+00  8.00000000E-01  8.00000000E-01  1.50000000E+00
  8.00000000E-01  8.00000000E-01  1.50000000E+00  8.00000000E-01  8.00000000E-01
  1.50000000E+00  8.00000000E-01  8.00000000E-01  1.50000000E+00  8.00000000E-01
  8.00000000E-01  1.50000000E+00  8.00000000E-01  8.00000000E-01  1.50000000E+00
  8.00000000E-01  8.00000000E-01  1.50000000E+00  8.00000000E-01  8.00000000E-01
  1.50000000E+00  8.00000000E-01  8.00000000E-01  1.50000000E+00  8.00000000E-01
  8.00000000E-01  1.50000000E+00  8.00000000E-01  8.00000000E-01  1.50000000E+00
  8.00000000E-01  8.00000000E-01  1.50000000E+00  8.00000000E-01  8.00000000E-01
  1.50000000E+00  8.00000000E-01  8.00000000E-01  1.50000000E+00  8.00000000E-01
  8.00000000E-01  1.50000000E+00  8.00000000E-01  8.00000000E-01  1.50000000E+00
  8.00000000E-01  8.00000000E-01  1.50000000E+00  8.00000000E-01  8.00000000E-01
  1.50000000E+00  8.00000000E-01  8.00000000E-01  1.50000000E+00  8.00000000E-01
  8.00000000E-01  1.50000000E+00  8.00000000E-01  8.00000000E-01  1.50000000E+00
  8.00000000E-01  8.00000000E-01  1.50000000E+00  8.00000000E-01  8.00000000E-01
  1.50000000E+00  8.00000000E-01  8.00000000E-01  1.50000000E+00  8.00000000E-01
  8.00000000E-01  1.50000000E+00  8.00000000E-01  8.00000000E-01  1.50000000E+00
  8.00000000E-01  8.00000000E-01  1.50000000E+00  8.00000000E-01  8.00000000E-01
  1.50000000E+00  8.00000000E-01  8.00000000E-01  1.50000000E+00  8.00000000E-01
  8.00000000E-01  1.50000000E+00  8.00000000E-01  8.00000000E-01  1.50000000E+00
  8.00000000E-01  8.00000000E-01  1.50000000E+00  8.00000000E-01  8.00000000E-01
  1.50000000E+00  8.00000000E-01  8.00000000E-01  1.50000000E+00  8.00000000E-01
  8.00000000E-01  1.50000000E+00  8.00000000E-01  8.00000000E-01  1.50000000E+00
  8.00000000E-01  8.00000000E-01  1.50000000E+00  8.00000000E-01  8.00000000E-01
  1.50000000E+00  8.00000000E-01  8.00000000E-01  1.50000000E+00  8.00000000E-01
  8.00000000E-01  1.50000000E+00  8.00000000E-01  8.00000000E-01  1.50000000E+00
  8.00000000E-01  8.00000000E-01  1.50000000E+00  8.00000000E-01  8.00000000E-01
  1.50000000E+00  8.00000000E-01  8.00000000E-01  1.50000000E+00  8.00000000E-01
  8.00000000E-01  1.50000000E+00  8.00000000E-01  8.00000000E-01  1.50000000E+00
  8.00000000E-01  8.00000000E-01  1.50000000E+00  8.00000000E-01  8.00000000E-01
  1.50000000E+00  8.00000000E-01  8.00000000E-01  1.50000000E+00  8.00000000E-01
  8.00000000E-01  1.50000000E+00  8.00000000E-01  8.00000000E-01  1.50000000E+00
  8.00000000E-01  8.00000000E-01  1.50000000E+00  8.00000000E-01  8.00000000E-01
  1.50000000E+00  8.00000000E-01  8.00000000E-01  1.50000000E+00  8.00000000E-01
  8.00000000E-01  1.50000000E+00  8.00000000E-01  8.00000000E-01  1.50000000E+00
  8.00000000E-01  8.00000000E-01  1.50000000E+00  8.00000000E-01  8.00000000E-01
  1.50000000E+00  8.00000000E-01  8.00000000E-01  1.50000000E+00  8.00000000E-01
  8.00000000E-01  1.50000000E+00  8.00000000E-01  8.00000000E-01  1.50000000E+00
  8.00000000E-01  8.00000000E-01  1.50000000E+00  8.00000000E-01  8.00000000E-01
  1.50000000E+00  8.00000000E-01  8.00000000E-01  1.50000000E+00  8.00000000E-01
  8.00000000E-01  1.50000000E+00  8.00000000E-01  8.00000000E-01  1.50000000E+00
  8.00000000E-01  8.00000000E-01  1.50000000E+00  8.00000000E-01  8.00000000E-01
  1.50000000E+00  8.00000000E-01  8.00000000E-01  1.50000000E+00  8.00000000E-01
  8.00000000E-01  1.50000000E+00  8.00000000E-01  8.00000000E-01  1.50000000E+00
  8.00000000E-01  8.00000000E-01  1.50000000E+00  8.00000000E-01  8.00000000E-01
  1.50000000E+00  8.00000000E-01  8.00000000E-01  1.50000000E+00  8.00000000E-01
  8.00000000E-01  1.50000000E+00  8.00000000E-01  8.00000000E-01  1.50000000E+00
  8.00000000E-01  8.00000000E-01  1.50000000E+00  8.00000000E-01  8.00000000E-01
  1.50000000E+00  8.00000000E-01  8.00000000E-01  1.50000000E+00  8.00000000E-01
  8.00000000E-01  1.50000000E+00  8.00000000E-01  8.00000000E-01  1.50000000E+00
  8.00000000E-01  8.00000000E-01  1.50000000E+00  8.00000000E-01  8.00000000E-01
  1.50000000E+00  8.00000000E-01  8.00000000E-01  1.50000000E+00  8.00000000E-01
  8.00000000E-01  1.50000000E+00  8.00000000E-01  8.00000000E-01  1.50000000E+00
  8.00000000E-01  8.00000000E-01  1.50000000E+00  8.00000000E-01  8.00000000E-01
  1.50000000E+00  8.00000000E-01  8.00000000E-01  1.50000000E+00  8.00000000E-01
  8.00000000E-01  1.50000000E+00  8.00000000E-01  8.00000000E-01  1.50000000E+00
  8.00000000E-01  8.00000000E-01  1.50000000E+00  8.00000000E-01  8.00000000E-01
  1.50000000E+00  8.00000000E-01  8.00000000E-01  1.50000000E+00  8.00000000E-01
  8.00000000E-01  1.50000000E+00  8.00000000E-01  8.00000000E-01  1.50000000E+00
  8.00000000E-01  8.00000000E-01  1.50000000E+00  8.00000000E-01  8.00000000E-01
  1.50000000E+00  8.00000000E-01  8.00000000E-01  1.50000000E+00  8.00000000E-01
  8.00000000E-01  1.50000000E+00  8.00000000E-01  8.00000000E-01  1.50000000E+00
  8.00000000E-01  8.00000000E-01  1.50000000E+00  8.00000000E-01  8.00000000E-01
  1.50000000E+00  8.00000000E-01  8.00000000E-01  1.50000000E+00  8.00000000E-01
  8.00000000E-01  1.50000000E+00  8.00000000E-01  8.00000000E-01  1.50000000E+00
  8.00000000E-01  8.00000000E-01  1.50000000E+00  8.00000000E-01  8.00000000E-01
  1.50000000E+00  8.00000000E-01  8.00000000E-01  1.50000000E+00  8.00000000E-01
  8.00000000E-01  1.50000000E+00  8.00000000E-01  8.00000000E-01  1.50000000E+00
  8.00000000E-01  8.00000000E-01  1.50000000E+00  8.00000000E-01  8.00000000E-01
  1.50000000E+00  8.00000000E-01  8.00000000E-01  1.50000000E+00  8.00000000E-01
  8.00000000E-01  1.50000000E+00  8.00000000E-01  8.00000000E-01  1.50000000E+00
  8.00000000E-01  8.00000000E-01  1.50000000E+00  8.00000000E-01  8.00000000E-01
  1.50000000E+00  8.00000000E-01  8.00000000E-01  1.50000000E+00  8.00000000E-01
  8.00000000E-01  1.50000000E+00  8.00000000E-01  8.00000000E-01  1.50000000E+00
  8.00000000E-01  8.00000000E-01  1.50000000E+00  8.00000000E-01  8.00000000E-01
  1.50000000E+00  8.00000000E-01  8.00000000E-01  1.50000000E+00  8.00000000E-01
  8.00000000E-01  1.50000000E+00  8.00000000E-01  8.00000000E-01  1.50000000E+00
  8.00000000E-01  8.00000000E-01  1.50000000E+00  8.00000000E-01  8.00000000E-01
  1.50000000E+00  8.00000000E-01  8.00000000E-01  1.50000000E+00  8.00000000E-01
  8.00000000E-01  1.50000000E+00  8.00000000E-01  8.00000000E-01  1.50000000E+00
  8.00000000E-01  8.00000000E-01  1.50000000E+00  8.00000000E-01  8.00000000E-01
  1.50000000E+00  8.00000000E-01  8.00000000E-01  1.50000000E+00  8.00000000E-01
  8.00000000E-01  1.50000000E+00  8.00000000E-01  8.00000000E-01  1.50000000E+00
  8.00000000E-01  8.00000000E-01  1.50000000E+00  8.00000000E-01  8.00000000E-01
  1.50000000E+00  8.00000000E-01  8.00000000E-01  1.50000000E+00  8.00000000E-01
  8.00000000E-01  1.50000000E+00  8.00000000E-01  8.00000000E-01  1.50000000E+00
  8.00000000E-01  8.00000000E-01  1.50000000E+00  8.00000000E-01  8.00000000E-01
  1.50000000E+00  8.00000000E-01  8.00000000E-01  1.50000000E+00  8.00000000E-01
  8.00000000E-01  1.50000000E+00  8.00000000E-01  8.00000000E-01  1.50000000E+00
  8.00000000E-01  8.00000000E-01  1.50000000E+00  8.00000000E-01  8.00000000E-01
  1.50000000E+00  8.00000000E-01  8.00000000E-01  1.50000000E+00  8.00000000E-01
  8.00000000E-01  1.50000000E+00  8.00000000E-01  8.00000000E-01  1.50000000E+00
  8.00000000E-01  8.00000000E-01  1.50000000E+00  8.00000000E-01  8.00000000E-01
  1.50000000E+00  8.00000000E-01  8.00000000E-01  1.50000000E+00  8.00000000E-01
  8.00000000E-01  1.50000000E+00  8.00000000E-01  8.00000000E-01  1.50000000E+00
  8.00000000E-01  8.00000000E-01  1.50000000E+00  8.00000000E-01  8.00000000E-01
  1.50000000E+00  8.00000000E-01  8.00000000E-01  1.50000000E+00  8.00000000E-01
  8.00000000E-01  1.50000000E+00  8.00000000E-01  8.00000000E-01  1.50000000E+00
  8.00000000E-01  8.00000000E-01  1.50000000E+00  8.00000000E-01  8.00000000E-01
  1.50000000E+00  8.00000000E-01  8.00000000E-01  1.50000000E+00  8.00000000E-01
  8.00000000E-01  1.50000000E+00  8.00000000E-01  8.00000000E-01  1.50000000E+00
  8.00000000E-01  8.00000000E-01  1.50000000E+00  8.00000000E-01  8.00000000E-01
  1.50000000E+00  8.00000000E-01  8.00000000E-01  1.50000000E+00  8.00000000E-01
  8.00000000E-01  1.50000000E+00  8.00000000E-01  8.00000000E-01  1.50000000E+00
  8.00000000E-01  8.00000000E-01  1.50000000E+00  8.00000000E-01  8.00000000E-01
  1.50000000E+00  8.00000000E-01  8.00000000E-01  1.50000000E+00  8.00000000E-01
  8.00000000E-01  1.50000000E+00  8.00000000E-01  8.00000000E-01  1.50000000E+00
  8.00000000E-01  8.00000000E-01  1.50000000E+00  8.00000000E-01  8.00000000E-01
  1.50000000E+00  8.00000000E-01  8.00000000E-01  1.50000000E+00  8.00000000E-01
  8.00000000E-01  1.50000000E+00  8.00000000E-01  8.00000000E-01  1.50000000E+00
  8.00000000E-01  8.00000000E-01  1.50000000E+00  8.00000000E-01  8.00000000E-01
  1.50000000E+00  8.00000000E-01  8.00000000E-01  1.50000000E+00  8.00000000E-01
  8.00000000E-01  1.50000000E+00  8.00000000E-01  8.00000000E-01  1.50000000E+00
  8.00000000E-01  8.00000000E-01  1.50000000E+00  8.00000000E-01  8.00000000E-01
  1.50000000E+00  8.00000000E-01  8.00000000E-01  1.50000000E+00  8.00000000E-01
  8.00000000E-01  1.50000000E+00  8.00000000E-01  8.00000000E-01  1.50000000E+00
  8.00000000E-01  8.00000000E-01  1.50000000E+00  8.00000000E-01  8.00000000E-01
  1.50000000E+00  8.00000000E-01  8.00000000E-01  1.50000000E+00  8.00000000E-01
  8.00000000E-01  1.50000000E+00  8.00000000E-01  8.00000000E-01  1.50000000E+00
  8.00000000E-01  8.00000000E-01  1.50000000E+00  8.00000000E-01  8.00000000E-01
  1.50000000E+00  8.00000000E-01  8.00000000E-01  1.50000000E+00  8.00000000E-01
  8.00000000E-01  1.50000000E+00  8.00000000E-01  8.00000000E-01  1.50000000E+00
  8.00000000E-01  8.00000000E-01  1.50000000E+00  8.00000000E-01  8.00000000E-01
  1.50000000E+00  8.00000000E-01  8.00000000E-01  1.50000000E+00  8.00000000E-01
  8.00000000E-01  1.50000000E+00  8.00000000E-01  8.00000000E-01  1.50000000E+00
  8.00000000E-01  8.00000000E-01  1.50000000E+00  8.00000000E-01  8.00000000E-01
  1.50000000E+00  8.00000000E-01  8.00000000E-01  1.50000000E+00  8.00000000E-01
  8.00000000E-01  1.50000000E+00  8.00000000E-01  8.00000000E-01  1.50000000E+00
  8.00000000E-01  8.00000000E-01  1.50000000E+00  8.00000000E-01  8.00000000E-01
  1.50000000E+00  8.00000000E-01  8.00000000E-01  1.50000000E+00  8.00000000E-01
  8.00000000E-01  1.50000000E+00  8.00000000E-01  8.00000000E-01  1.50000000E+00
  8.00000000E-01  8.00000000E-01  1.50000000E+00  8.00000000E-01  8.00000000E-01
  1.50000000E+00  8.00000000E-01  8.00000000E-01  1.50000000E+00  8.00000000E-01
  8.00000000E-01  1.50000000E+00  8.00000000E-01  8.00000000E-01  1.50000000E+00
  8.00000000E-01  8.00000000E-01  1.50000000E+00  8.00000000E-01  8.00000000E-01
  1.50000000E+00  8.00000000E-01  8.00000000E-01  1.50000000E+00  8.00000000E-01
  8.00000000E-01  1.50000000E+00  8.00000000E-01  8.00000000E-01  1.50000000E+00
  8.00000000E-01  8.00000000E-01  1.50000000E+00  8.00000000E-01  8.00000000E-01
  1.50000000E+00  8.00000000E-01  8.00000000E-01  1.50000000E+00  8.00000000E-01
  8.00000000E-01  1.50000000E+00  8.00000000E-01  8.00000000E-01  1.50000000E+00
  8.00000000E-01  8.00000000E-01  1.50000000E+00  8.00000000E-01  8.00000000E-01
  1.50000000E+00  8.00000000E-01  8.00000000E-01  1.50000000E+00  8.00000000E-01
  8.00000000E-01  1.50000000E+00  8.00000000E-01  8.00000000E-01  1.50000000E+00
  8.00000000E-01  8.00000000E-01  1.50000000E+00  8.00000000E-01  8.00000000E-01
  1.50000000E+00  8.00000000E-01  8.00000000E-01  1.50000000E+00  8.00000000E-01
  8.00000000E-01  1.50000000E+00  8.00000000E-01  8.00000000E-01  1.50000000E+00
  8.00000000E-01  8.00000000E-01  1.50000000E+00  8.00000000E-01  8.00000000E-01
  1.50000000E+00  8.00000000E-01  8.00000000E-01  1.50000000E+00  8.00000000E-01
  8.00000000E-01  1.50000000E+00  8.00000000E-01  8.00000000E-01  1.50000000E+00
  8.00000000E-01  8.00000000E-01  1.50000000E+00  8.00000000E-01  8.00000000E-01
  1.50000000E+00  8.00000000E-01  8.00000000E-01  1.50000000E+00  8.00000000E-01
  8.00000000E-01  1.50000000E+00  8.00000000E-01  8.00000000E-01  1.50000000E+00
  8.00000000E-01  8.00000000E-01  1.50000000E+00  8.00000000E-01  8.00000000E-01
  1.50000000E+00  8.00000000E-01  8.00000000E-01  1.50000000E+00  8.00000000E-01
  8.00000000E-01  1.50000000E+00  8.00000000E-01  8.00000000E-01  1.50000000E+00
  8.00000000E-01  8.00000000E-01  1.50000000E+00  8.00000000E-01  8.00000000E-01
  1.50000000E+00  8.00000000E-01  8.00000000E-01  1.50000000E+00  8.00000000E-01
  8.00000000E-01  1.50000000E+00  8.00000000E-01  8.00000000E-01  1.50000000E+00
  8.00000000E-01  8.00000000E-01  1.50000000E+00  8.00000000E-01  8.00000000E-01
  1.50000000E+00  8.00000000E-01  8.00000000E-01  1.50000000E+00  8.00000000E-01
  8.00000000E-01  1.50000000E+00  8.00000000E-01  8.00000000E-01  1.50000000E+00
  8.00000000E-01  8.00000000E-01  1.50000000E+00  8.00000000E-01  8.00000000E-01
  1.50000000E+00  8.00000000E-01  8.00000000E-01  1.50000000E+00  8.00000000E-01
  8.00000000E-01  1.50000000E+00  8.00000000E-01  8.00000000E-01  1.50000000E+00
  8.00000000E-01  8.00000000E-01  1.50000000E+00  8.00000000E-01  8.00000000E-01
  1.50000000E+00  8.00000000E-01  8.00000000E-01  1.50000000E+00  8.00000000E-01
  8.00000000E-01  1.50000000E+00  8.00000000E-01  8.00000000E-01  1.50000000E+00
  8.00000000E-01  8.00000000E-01  1.50000000E+00  8.00000000E-01  8.00000000E-01
  1.50000000E+00  8.00000000E-01  8.00000000E-01  1.50000000E+00  8.00000000E-01
  8.00000000E-01  1.50000000E+00  8.00000000E-01  8.00000000E-01  1.50000000E+00
  8.00000000E-01  8.00000000E-01  1.50000000E+00  8.00000000E-01  8.00000000E-01
  1.50000000E+00  8.00000000E-01  8.00000000E-01  1.50000000E+00  8.00000000E-01
  8.00000000E-01  1.50000000E+00  8.00000000E-01  8.00000000E-01  1.50000000E+00
  8.00000000E-01  8.00000000E-01  1.50000000E+00  8.00000000E-01  8.00000000E-01
  1.50000000E+00  8.00000000E-01  8.00000000E-01  1.50000000E+00  8.00000000E-01
  8.00000000E-01  1.50000000E+00  8.00000000E-01  8.00000000E-01  1.50000000E+00
  8.00000000E-01  8.00000000E-01  1.50000000E+00  8.00000000E-01  8.00000000E-01
  1.50000000E+00  8.00000000E-01  8.00000000E-01  1.50000000E+00  8.00000000E-01
  8.00000000E-01  1.50000000E+00  8.00000000E-01  8.00000000E-01  1.50000000E+00
  8.00000000E-01  8.00000000E-01  1.50000000E+00  8.00000000E-01  8.00000000E-01
  1.50000000E+00  8.00000000E-01  8.00000000E-01  1.50000000E+00  8.00000000E-01
  8.00000000E-01  1.50000000E+00  8.00000000E-01  8.00000000E-01  1.50000000E+00
  8.00000000E-01  8.00000000E-01  1.50000000E+00  8.00000000E-01  8.00000000E-01
  1.50000000E+00  8.00000000E-01  8.00000000E-01  1.50000000E+00  8.00000000E-01
  8.00000000E-01  1.50000000E+00  8.00000000E-01  8.00000000E-01  1.50000000E+00
  8.00000000E-01  8.00000000E-01  1.50000000E+00  8.00000000E-01  8.00000000E-01
  1.50000000E+00  8.00000000E-01  8.00000000E-01  1.50000000E+00  8.00000000E-01
  8.00000000E-01  1.50000000E+00  8.00000000E-01  8.00000000E-01  1.50000000E+00
  8.00000000E-01  8.00000000E-01  1.50000000E+00  8.00000000E-01  8.00000000E-01
  1.50000000E+00  8.00000000E-01  8.00000000E-01  1.50000000E+00  8.00000000E-01
  8.00000000E-01  1.50000000E+00  8.00000000E-01  8.00000000E-01  1.50000000E+00
  8.00000000E-01  8.00000000E-01  1.50000000E+00  8.00000000E-01  8.00000000E-01
  1.50000000E+00  8.00000000E-01  8.00000000E-01  1.50000000E+00  8.00000000E-01
  8.00000000E-01  1.50000000E+00  8.00000000E-01  8.00000000E-01  1.50000000E+00
  8.00000000E-01  8.00000000E-01  1.50000000E+00  8.00000000E-01  8.00000000E-01
  1.50000000E+00  8.00000000E-01  8.00000000E-01  1.50000000E+00  8.00000000E-01
  8.00000000E-01  1.50000000E+00  8.00000000E-01  8.00000000E-01  1.50000000E+00
  8.00000000E-01  8.00000000E-01  1.50000000E+00  8.00000000E-01  8.00000000E-01
  1.50000000E+00  8.00000000E-01  8.00000000E-01  1.50000000E+00  8.00000000E-01
  8.00000000E-01  1.50000000E+00  8.00000000E-01  8.00000000E-01  1.50000000E+00
  8.00000000E-01  8.00000000E-01  1.50000000E+00  8.00000000E-01  8.00000000E-01
  1.50000000E+00  8.00000000E-01  8.00000000E-01  1.50000000E+00  8.00000000E-01
  8.00000000E-01  1.50000000E+00  8.00000000E-01  8.00000000E-01  1.50000000E+00
  8.00000000E-01  8.00000000E-01  1.50000000E+00  8.00000000E-01  8.00000000E-01
  1.50000000E+00  8.00000000E-01  8.00000000E-01  1.50000000E+00  8.00000000E-01
  8.00000000E-01  1.50000000E+00  8.00000000E-01  8.00000000E-01  1.50000000E+00
  8.00000000E-01  8.00000000E-01  1.50000000E+00  8.00000000E-01  8.00000000E-01
  1.50000000E+00  8.00000000E-01  8.00000000E-01  1.50000000E+00  8.00000000E-01
  8.00000000E-01  1.50000000E+00  8.00000000E-01  8.00000000E-01  1.50000000E+00
  8.00000000E-01  8.00000000E-01  1.50000000E+00  8.00000000E-01  8.00000000E-01
  1.50000000E+00  8.00000000E-01  8.00000000E-01  1.50000000E+00  8.00000000E-01
  8.00000000E-01  1.50000000E+00  8.00000000E-01  8.00000000E-01  1.50000000E+00
  8.00000000E-01  8.00000000E-01  1.50000000E+00  8.00000000E-01  8.00000000E-01
  1.50000000E+00  8.00000000E-01  8.00000000E-01  1.50000000E+00  8.00000000E-01
  8.00000000E-01  1.50000000E+00  8.00000000E-01  8.00000000E-01  1.50000000E+00
  8.00000000E-01  8.00000000E-01  1.50000000E+00  8.00000000E-01  8.00000000E-01
  1.50000000E+00  8.00000000E-01  8.00000000E-01  1.50000000E+00  8.00000000E-01
  8.00000000E-01  1.50000000E+00  8.00000000E-01  8.00000000E-01  1.50000000E+00
  8.00000000E-01  8.00000000E-01  1.50000000E+00  8.00000000E-01  8.00000000E-01
  1.50000000E+00  8.00000000E-01  8.00000000E-01  1.50000000E+00  8.00000000E-01
  8.00000000E-01  1.50000000E+00  8.00000000E-01  8.00000000E-01  1.50000000E+00
  8.00000000E-01  8.00000000E-01  1.50000000E+00  8.00000000E-01  8.00000000E-01
  1.50000000E+00  8.00000000E-01  8.00000000E-01  1.50000000E+00  8.00000000E-01
  8.00000000E-01  1.50000000E+00  8.00000000E-01  8.00000000E-01  1.50000000E+00
  8.00000000E-01  8.00000000E-01  1.50000000E+00  8.00000000E-01  8.00000000E-01
  1.50000000E+00  8.00000000E-01  8.00000000E-01  1.50000000E+00  8.00000000E-01
  8.00000000E-01  1.50000000E+00  8.00000000E-01  8.00000000E-01  1.50000000E+00
  8.00000000E-01  8.00000000E-01  1.50000000E+00  8.00000000E-01  8.00000000E-01
  1.50000000E+00  8.00000000E-01  8.00000000E-01  1.50000000E+00  8.00000000E-01
  8.00000000E-01  1.50000000E+00  8.00000000E-01  8.00000000E-01  1.50000000E+00
  8.00000000E-01  8.00000000E-01  1.50000000E+00  8.00000000E-01  8.00000000E-01
  1.50000000E+00  8.00000000E-01  8.00000000E-01  1.50000000E+00  8.00000000E-01
  8.00000000E-01  1.50000000E+00  8.00000000E-01  8.00000000E-01  1.50000000E+00
  8.00000000E-01  8.00000000E-01  1.50000000E+00  8.00000000E-01  8.00000000E-01
  1.50000000E+00  8.00000000E-01  8.00000000E-01  1.50000000E+00  8.00000000E-01
  8.00000000E-01  1.50000000E+00  8.00000000E-01  8.00000000E-01  1.50000000E+00
  8.00000000E-01  8.00000000E-01  1.50000000E+00  8.00000000E-01  8.00000000E-01
  1.50000000E+00  8.00000000E-01  8.00000000E-01  1.50000000E+00  8.00000000E-01
  8.00000000E-01  1.50000000E+00  8.00000000E-01  8.00000000E-01  1.50000000E+00
  8.00000000E-01  8.00000000E-01  1.50000000E+00  8.00000000E-01  8.00000000E-01
  1.50000000E+00  8.00000000E-01  8.00000000E-01  1.50000000E+00  8.00000000E-01
  8.00000000E-01  1.50000000E+00  8.00000000E-01  8.00000000E-01  1.50000000E+00
  8.00000000E-01  8.00000000E-01  1.50000000E+00  8.00000000E-01  8.00000000E-01
  1.50000000E+00  8.00000000E-01  8.00000000E-01  1.50000000E+00  8.00000000E-01
  8.00000000E-01  1.50000000E+00  8.00000000E-01  8.00000000E-01  1.50000000E+00
  8.00000000E-01  8.00000000E-01  1.50000000E+00  8.00000000E-01  8.00000000E-01
  1.50000000E+00  8.00000000E-01  8.00000000E-01  1.50000000E+00  8.00000000E-01
  8.00000000E-01  1.50000000E+00  8.00000000E-01  8.00000000E-01  1.50000000E+00
  8.00000000E-01  8.00000000E-01  1.50000000E+00  8.00000000E-01  8.00000000E-01
  1.50000000E+00  8.00000000E-01  8.00000000E-01  1.50000000E+00  8.00000000E-01
  8.00000000E-01  1.50000000E+00  8.00000000E-01  8.00000000E-01  1.50000000E+00
  8.00000000E-01  8.00000000E-01  1.50000000E+00  8.00000000E-01  8.00000000E-01
  1.50000000E+00  8.00000000E-01  8.00000000E-01  1.50000000E+00  8.00000000E-01
  8.00000000E-01  1.50000000E+00  8.00000000E-01  8.00000000E-01  1.50000000E+00
  8.00000000E-01  8.00000000E-01  1.50000000E+00  8.00000000E-01  8.00000000E-01
  1.50000000E+00  8.00000000E-01  8.00000000E-01  1.50000000E+00  8.00000000E-01
  8.00000000E-01  1.50000000E+00  8.00000000E-01  8.00000000E-01  1.50000000E+00
  8.00000000E-01  8.00000000E-01  1.50000000E+00  8.00000000E-01  8.00000000E-01
  1.50000000E+00  8.00000000E-01  8.00000000E-01  1.50000000E+00  8.00000000E-01
  8.00000000E-01  1.50000000E+00  8.00000000E-01  8.00000000E-01  1.50000000E+00
  8.00000000E-01  8.00000000E-01  1.50000000E+00  8.00000000E-01  8.00000000E-01
  1.50000000E+00  8.00000000E-01  8.00000000E-01  1.50000000E+00  8.00000000E-01
  8.00000000E-01  1.50000000E+00  8.00000000E-01  8.00000000E-01  1.50000000E+00
  8.00000000E-01  8.00000000E-01  1.50000000E+00  8.00000000E-01  8.00000000E-01
  1.50000000E+00  8.00000000E-01  8.00000000E-01  1.50000000E+00  8.00000000E-01
  8.00000000E-01  1.50000000E+00  8.00000000E-01  8.00000000E-01  1.50000000E+00
  8.00000000E-01  8.00000000E-01  1.50000000E+00  8.00000000E-01  8.00000000E-01
  1.50000000E+00  8.00000000E-01  8.00000000E-01  1.50000000E+00  8.00000000E-01
  8.00000000E-01  1.50000000E+00  8.00000000E-01  8.00000000E-01  1.50000000E+00
  8.00000000E-01  8.00000000E-01  1.50000000E+00  8.00000000E-01  8.00000000E-01
  1.50000000E+00  8.00000000E-01  8.00000000E-01  1.50000000E+00  8.00000000E-01
  8.00000000E-01  1.50000000E+00  8.00000000E-01  8.00000000E-01  1.50000000E+00
  8.00000000E-01  8.00000000E-01  1.50000000E+00  8.00000000E-01  8.00000000E-01
  1.50000000E+00  8.00000000E-01  8.00000000E-01  1.50000000E+00  8.00000000E-01
  8.00000000E-01  1.50000000E+00  8.00000000E-01  8.00000000E-01  1.50000000E+00
  8.00000000E-01  8.00000000E-01  1.50000000E+00  8.00000000E-01  8.00000000E-01
  1.50000000E+00  8.00000000E-01  8.00000000E-01  1.50000000E+00  8.00000000E-01
  8.00000000E-01  1.50000000E+00  8.00000000E-01  8.00000000E-01  1.50000000E+00
  8.00000000E-01  8.00000000E-01  1.50000000E+00  8.00000000E-01  8.00000000E-01
  1.50000000E+00  8.00000000E-01  8.00000000E-01  1.50000000E+00  8.00000000E-01
  8.00000000E-01  1.50000000E+00  8.00000000E-01  8.00000000E-01  1.50000000E+00
  8.00000000E-01  8.00000000E-01  1.50000000E+00  8.00000000E-01  8.00000000E-01
  1.50000000E+00  8.00000000E-01  8.00000000E-01  1.50000000E+00  8.00000000E-01
  8.00000000E-01  1.50000000E+00  8.00000000E-01  8.00000000E-01  1.50000000E+00
  8.00000000E-01  8.00000000E-01  1.50000000E+00  8.00000000E-01  8.00000000E-01
  1.50000000E+00  8.00000000E-01  8.00000000E-01  1.50000000E+00  8.00000000E-01
  8.00000000E-01  1.50000000E+00  8.00000000E-01  8.00000000E-01  1.50000000E+00
  8.00000000E-01  8.00000000E-01  1.50000000E+00  8.00000000E-01  8.00000000E-01
  1.50000000E+00  8.00000000E-01  8.00000000E-01  1.50000000E+00  8.00000000E-01
  8.00000000E-01  1.50000000E+00  8.00000000E-01  8.00000000E-01  1.50000000E+00
  8.00000000E-01  8.00000000E-01  1.50000000E+00  8.00000000E-01  8.00000000E-01
  1.50000000E+00  8.00000000E-01  8.00000000E-01  1.50000000E+00  8.00000000E-01
  8.00000000E-01  1.50000000E+00  8.00000000E-01  8.00000000E-01  1.50000000E+00
  8.00000000E-01  8.00000000E-01  1.50000000E+00  8.00000000E-01  8.00000000E-01
  1.50000000E+00  8.00000000E-01  8.00000000E-01  1.50000000E+00  8.00000000E-01
  8.00000000E-01  1.50000000E+00  8.00000000E-01  8.00000000E-01  1.50000000E+00
  8.00000000E-01  8.00000000E-01  1.50000000E+00  8.00000000E-01  8.00000000E-01
  1.50000000E+00  8.00000000E-01  8.00000000E-01  1.50000000E+00  8.00000000E-01
  8.00000000E-01  1.50000000E+00  8.00000000E-01  8.00000000E-01  1.50000000E+00
  8.00000000E-01  8.00000000E-01  1.50000000E+00  8.00000000E-01  8.00000000E-01
  1.50000000E+00  8.00000000E-01  8.00000000E-01  1.50000000E+00  8.00000000E-01
  8.00000000E-01  1.50000000E+00  8.00000000E-01  8.00000000E-01  1.50000000E+00
  8.00000000E-01  8.00000000E-01  1.50000000E+00  8.00000000E-01  8.00000000E-01
  1.50000000E+00  8.00000000E-01  8.00000000E-01  1.50000000E+00  8.00000000E-01
  8.00000000E-01  1.50000000E+00  8.00000000E-01  8.00000000E-01  1.50000000E+00
  8.00000000E-01  8.00000000E-01  1.50000000E+00  8.00000000E-01  8.00000000E-01
  1.50000000E+00  8.00000000E-01  8.00000000E-01  1.50000000E+00  8.00000000E-01
  8.00000000E-01  1.50000000E+00  8.00000000E-01  8.00000000E-01  1.50000000E+00
  8.00000000E-01  8.00000000E-01  1.50000000E+00  8.00000000E-01  8.00000000E-01
  1.50000000E+00  8.00000000E-01  8.00000000E-01  1.50000000E+00  8.00000000E-01
  8.00000000E-01  1.50000000E+00  8.00000000E-01  8.00000000E-01  1.50000000E+00
  8.00000000E-01  8.00000000E-01  1.50000000E+00  8.00000000E-01  8.00000000E-01
  1.50000000E+00  8.00000000E-01  8.00000000E-01  1.50000000E+00  8.00000000E-01
  8.00000000E-01  1.50000000E+00  8.00000000E-01  8.00000000E-01  1.50000000E+00
  8.00000000E-01  8.00000000E-01  1.50000000E+00  8.00000000E-01  8.00000000E-01
  1.50000000E+00  8.00000000E-01  8.00000000E-01  1.50000000E+00  8.00000000E-01
  8.00000000E-01  1.50000000E+00  8.00000000E-01  8.00000000E-01  1.50000000E+00
  8.00000000E-01  8.00000000E-01  1.50000000E+00  8.00000000E-01  8.00000000E-01
  1.50000000E+00  8.00000000E-01  8.00000000E-01  1.50000000E+00  8.00000000E-01
  8.00000000E-01  1.50000000E+00  8.00000000E-01  8.00000000E-01  1.50000000E+00
  8.00000000E-01  8.00000000E-01  1.50000000E+00  8.00000000E-01  8.00000000E-01
  1.50000000E+00  8.00000000E-01  8.00000000E-01  1.50000000E+00  8.00000000E-01
  8.00000000E-01  1.50000000E+00  8.00000000E-01  8.00000000E-01  1.50000000E+00
  8.00000000E-01  8.00000000E-01  1.50000000E+00  8.00000000E-01  8.00000000E-01
  1.50000000E+00  8.00000000E-01  8.00000000E-01  1.50000000E+00  8.00000000E-01
  8.00000000E-01  1.50000000E+00  8.00000000E-01  8.00000000E-01  1.50000000E+00
  8.00000000E-01  8.00000000E-01  1.50000000E+00  8.00000000E-01  8.00000000E-01
  1.50000000E+00  8.00000000E-01  8.00000000E-01  1.50000000E+00  8.00000000E-01
  8.00000000E-01  1.50000000E+00  8.00000000E-01  8.00000000E-01  1.50000000E+00
  8.00000000E-01  8.00000000E-01  1.50000000E+00  8.00000000E-01  8.00000000E-01
  1.50000000E+00  8.00000000E-01  8.00000000E-01  1.50000000E+00  8.00000000E-01
  8.00000000E-01  1.50000000E+00  8.00000000E-01  8.00000000E-01  1.50000000E+00
  8.00000000E-01  8.00000000E-01  1.50000000E+00  8.00000000E-01  8.00000000E-01
  1.50000000E+00  8.00000000E-01  8.00000000E-01  1.50000000E+00  8.00000000E-01
  8.00000000E-01  1.50000000E+00  8.00000000E-01  8.00000000E-01  1.50000000E+00
  8.00000000E-01  8.00000000E-01  1.50000000E+00  8.00000000E-01  8.00000000E-01
  1.50000000E+00  8.00000000E-01  8.00000000E-01  1.50000000E+00  8.00000000E-01
  8.00000000E-01  1.50000000E+00  8.00000000E-01  8.00000000E-01  1.50000000E+00
  8.00000000E-01  8.00000000E-01  1.50000000E+00  8.00000000E-01  8.00000000E-01
  1.50000000E+00  8.00000000E-01  8.00000000E-01  1.50000000E+00  8.00000000E-01
  8.00000000E-01  1.50000000E+00  8.00000000E-01  8.00000000E-01  1.50000000E+00
  8.00000000E-01  8.00000000E-01  1.50000000E+00  8.00000000E-01  8.00000000E-01
  1.50000000E+00  8.00000000E-01  8.00000000E-01  1.50000000E+00  8.00000000E-01
  8.00000000E-01  1.50000000E+00  8.00000000E-01  8.00000000E-01  1.50000000E+00
  8.00000000E-01  8.00000000E-01  1.50000000E+00  8.00000000E-01  8.00000000E-01
  1.50000000E+00  8.00000000E-01  8.00000000E-01  1.50000000E+00  8.00000000E-01
  8.00000000E-01  1.50000000E+00  8.00000000E-01  8.00000000E-01  1.50000000E+00
  8.00000000E-01  8.00000000E-01  1.50000000E+00  8.00000000E-01  8.00000000E-01
  1.50000000E+00  8.00000000E-01  8.00000000E-01  1.50000000E+00  8.00000000E-01
  8.00000000E-01  1.50000000E+00  8.00000000E-01  8.00000000E-01  1.50000000E+00
  8.00000000E-01  8.00000000E-01  1.50000000E+00  8.00000000E-01  8.00000000E-01
  1.50000000E+00  8.00000000E-01  8.00000000E-01  1.50000000E+00  8.00000000E-01
  8.00000000E-01  1.50000000E+00  8.00000000E-01  8.00000000E-01  1.50000000E+00
  8.00000000E-01  8.00000000E-01  1.50000000E+00  8.00000000E-01  8.00000000E-01
  1.50000000E+00  8.00000000E-01  8.00000000E-01  1.50000000E+00  8.00000000E-01
  8.00000000E-01  1.50000000E+00  8.00000000E-01  8.00000000E-01  1.50000000E+00
  8.00000000E-01  8.00000000E-01  1.50000000E+00  8.00000000E-01  8.00000000E-01
  1.50000000E+00  8.00000000E-01  8.00000000E-01  1.50000000E+00  8.00000000E-01
  8.00000000E-01  1.50000000E+00  8.00000000E-01  8.00000000E-01  1.50000000E+00
  8.00000000E-01  8.00000000E-01  1.50000000E+00  8.00000000E-01  8.00000000E-01
  1.50000000E+00  8.00000000E-01  8.00000000E-01  1.50000000E+00  8.00000000E-01
  8.00000000E-01  1.50000000E+00  8.00000000E-01  8.00000000E-01  1.50000000E+00
  8.00000000E-01  8.00000000E-01  1.50000000E+00  8.00000000E-01  8.00000000E-01
  1.50000000E+00  8.00000000E-01  8.00000000E-01  1.50000000E+00  8.00000000E-01
  8.00000000E-01  1.50000000E+00  8.00000000E-01  8.00000000E-01  1.50000000E+00
  8.00000000E-01  8.00000000E-01  1.50000000E+00  8.00000000E-01  8.00000000E-01
  1.50000000E+00  8.00000000E-01  8.00000000E-01  1.50000000E+00  8.00000000E-01
  8.00000000E-01  1.50000000E+00  8.00000000E-01  8.00000000E-01  1.50000000E+00
  8.00000000E-01  8.00000000E-01  1.50000000E+00  8.00000000E-01  8.00000000E-01
  1.50000000E+00  8.00000000E-01  8.00000000E-01  1.50000000E+00  8.00000000E-01
  8.00000000E-01  1.50000000E+00  8.00000000E-01  8.00000000E-01  1.50000000E+00
  8.00000000E-01  8.00000000E-01  1.50000000E+00  8.00000000E-01  8.00000000E-01
  1.50000000E+00  8.00000000E-01  8.00000000E-01  1.50000000E+00  8.00000000E-01
  8.00000000E-01  1.50000000E+00  8.00000000E-01  8.00000000E-01  1.50000000E+00
  8.00000000E-01  8.00000000E-01  1.50000000E+00  8.00000000E-01  8.00000000E-01
  1.50000000E+00  8.00000000E-01  8.00000000E-01  1.50000000E+00  8.00000000E-01
  8.00000000E-01  1.50000000E+00  8.00000000E-01  8.00000000E-01  1.50000000E+00
  8.00000000E-01  8.00000000E-01  1.50000000E+00  8.00000000E-01  8.00000000E-01
  1.50000000E+00  8.00000000E-01  8.00000000E-01  1.50000000E+00  8.00000000E-01
  8.00000000E-01  1.50000000E+00  8.00000000E-01  8.00000000E-01  1.50000000E+00
  8.00000000E-01  8.00000000E-01  1.50000000E+00  8.00000000E-01  8.00000000E-01
  1.50000000E+00  8.00000000E-01  8.00000000E-01  1.50000000E+00  8.00000000E-01
  8.00000000E-01  1.50000000E+00  8.00000000E-01  8.00000000E-01  1.50000000E+00
  8.00000000E-01  8.00000000E-01  1.50000000E+00  8.00000000E-01  8.00000000E-01
  1.50000000E+00  8.00000000E-01  8.00000000E-01  1.50000000E+00  8.00000000E-01
  8.00000000E-01  1.50000000E+00  8.00000000E-01  8.00000000E-01  1.50000000E+00
  8.00000000E-01  8.00000000E-01  1.50000000E+00  8.00000000E-01  8.00000000E-01
  1.50000000E+00  8.00000000E-01  8.00000000E-01  1.50000000E+00  8.00000000E-01
  8.00000000E-01  1.50000000E+00  8.00000000E-01  8.00000000E-01  1.50000000E+00
  8.00000000E-01  8.00000000E-01  1.50000000E+00  8.00000000E-01  8.00000000E-01
  1.50000000E+00  8.00000000E-01  8.00000000E-01  1.50000000E+00  8.00000000E-01
  8.00000000E-01  1.50000000E+00  8.00000000E-01  8.00000000E-01  1.50000000E+00
  8.00000000E-01  8.00000000E-01  1.50000000E+00  8.00000000E-01  8.00000000E-01
  1.50000000E+00  8.00000000E-01  8.00000000E-01  1.50000000E+00  8.00000000E-01
  8.00000000E-01  1.50000000E+00  8.00000000E-01  8.00000000E-01  1.50000000E+00
  8.00000000E-01  8.00000000E-01  1.50000000E+00  8.00000000E-01  8.00000000E-01
  1.50000000E+00  8.00000000E-01  8.00000000E-01  1.50000000E+00  8.00000000E-01
  8.00000000E-01  1.50000000E+00  8.00000000E-01  8.00000000E-01  1.50000000E+00
  8.00000000E-01  8.00000000E-01  1.50000000E+00  8.00000000E-01  8.00000000E-01
  1.50000000E+00  8.00000000E-01  8.00000000E-01  1.50000000E+00  8.00000000E-01
  8.00000000E-01  1.50000000E+00  8.00000000E-01  8.00000000E-01  1.50000000E+00
  8.00000000E-01  8.00000000E-01  1.50000000E+00  8.00000000E-01  8.00000000E-01
  1.50000000E+00  8.00000000E-01  8.00000000E-01  1.50000000E+00  8.00000000E-01
  8.00000000E-01  1.50000000E+00  8.00000000E-01  8.00000000E-01  1.50000000E+00
  8.00000000E-01  8.00000000E-01  1.50000000E+00  8.00000000E-01  8.00000000E-01
  1.50000000E+00  8.00000000E-01  8.00000000E-01  1.50000000E+00  8.00000000E-01
  8.00000000E-01  1.50000000E+00  8.00000000E-01  8.00000000E-01  1.50000000E+00
  8.00000000E-01  8.00000000E-01  1.50000000E+00  8.00000000E-01  8.00000000E-01
  1.50000000E+00  8.00000000E-01  8.00000000E-01  1.50000000E+00  8.00000000E-01
  8.00000000E-01  1.50000000E+00  8.00000000E-01  8.00000000E-01  1.50000000E+00
  8.00000000E-01  8.00000000E-01  1.50000000E+00  8.00000000E-01  8.00000000E-01
  1.50000000E+00  8.00000000E-01  8.00000000E-01  1.50000000E+00  8.00000000E-01
  8.00000000E-01  1.50000000E+00  8.00000000E-01  8.00000000E-01  1.50000000E+00
  8.00000000E-01  8.00000000E-01  1.50000000E+00  8.00000000E-01  8.00000000E-01
  1.50000000E+00  8.00000000E-01  8.00000000E-01  1.50000000E+00  8.00000000E-01
  8.00000000E-01  1.50000000E+00  8.00000000E-01  8.00000000E-01  1.50000000E+00
  8.00000000E-01  8.00000000E-01  1.50000000E+00  8.00000000E-01  8.00000000E-01
  1.50000000E+00  8.00000000E-01  8.00000000E-01  1.50000000E+00  8.00000000E-01
  8.00000000E-01  1.50000000E+00  8.00000000E-01  8.00000000E-01  1.50000000E+00
  8.00000000E-01  8.00000000E-01  1.50000000E+00  8.00000000E-01  8.00000000E-01
  1.50000000E+00  8.00000000E-01  8.00000000E-01  1.50000000E+00  8.00000000E-01
  8.00000000E-01  1.50000000E+00  8.00000000E-01  8.00000000E-01  1.50000000E+00
  8.00000000E-01  8.00000000E-01  1.50000000E+00  8.00000000E-01  8.00000000E-01
  1.50000000E+00  8.00000000E-01  8.00000000E-01  1.50000000E+00  8.00000000E-01
  8.00000000E-01  1.50000000E+00  8.00000000E-01  8.00000000E-01  1.50000000E+00
  8.00000000E-01  8.00000000E-01  1.50000000E+00  8.00000000E-01  8.00000000E-01
  1.50000000E+00  8.00000000E-01  8.00000000E-01  1.50000000E+00  8.00000000E-01
  8.00000000E-01  1.50000000E+00  8.00000000E-01  8.00000000E-01  1.50000000E+00
  8.00000000E-01  8.00000000E-01  1.50000000E+00  8.00000000E-01  8.00000000E-01
  1.50000000E+00  8.00000000E-01  8.00000000E-01  1.50000000E+00  8.00000000E-01
  8.00000000E-01  1.50000000E+00  8.00000000E-01  8.00000000E-01  1.50000000E+00
  8.00000000E-01  8.00000000E-01  1.50000000E+00  8.00000000E-01  8.00000000E-01
  1.50000000E+00  8.00000000E-01  8.00000000E-01  1.50000000E+00  8.00000000E-01
  8.00000000E-01  1.50000000E+00  8.00000000E-01  8.00000000E-01  1.50000000E+00
  8.00000000E-01  8.00000000E-01  1.50000000E+00  8.00000000E-01  8.00000000E-01
  1.50000000E+00  8.00000000E-01  8.00000000E-01  1.50000000E+00  8.00000000E-01
  8.00000000E-01  1.50000000E+00  8.00000000E-01  8.00000000E-01  1.50000000E+00
  8.00000000E-01  8.00000000E-01  1.50000000E+00  8.00000000E-01  8.00000000E-01
  1.50000000E+00  8.00000000E-01  8.00000000E-01  1.50000000E+00  8.00000000E-01
  8.00000000E-01  1.50000000E+00  8.00000000E-01  8.00000000E-01  1.50000000E+00
  8.00000000E-01  8.00000000E-01  1.50000000E+00  8.00000000E-01  8.00000000E-01
  1.50000000E+00  8.00000000E-01  8.00000000E-01  1.50000000E+00  8.00000000E-01
  8.00000000E-01  1.50000000E+00  8.00000000E-01  8.00000000E-01  1.50000000E+00
  8.00000000E-01  8.00000000E-01  1.50000000E+00  8.00000000E-01  8.00000000E-01
  1.50000000E+00  8.00000000E-01  8.00000000E-01  1.50000000E+00  8.00000000E-01
  8.00000000E-01  1.50000000E+00  8.00000000E-01  8.00000000E-01  1.50000000E+00
  8.00000000E-01  8.00000000E-01  1.50000000E+00  8.00000000E-01  8.00000000E-01
  1.50000000E+00  8.00000000E-01  8.00000000E-01  1.50000000E+00  8.00000000E-01
  8.00000000E-01  1.50000000E+00  8.00000000E-01  8.00000000E-01  1.50000000E+00
  8.00000000E-01  8.00000000E-01  1.50000000E+00  8.00000000E-01  8.00000000E-01
  1.50000000E+00  8.00000000E-01  8.00000000E-01  1.50000000E+00  8.00000000E-01
  8.00000000E-01  1.50000000E+00  8.00000000E-01  8.00000000E-01  1.50000000E+00
  8.00000000E-01  8.00000000E-01  1.50000000E+00  8.00000000E-01  8.00000000E-01
  1.50000000E+00  8.00000000E-01  8.00000000E-01  1.50000000E+00  8.00000000E-01
  8.00000000E-01  1.50000000E+00  8.00000000E-01  8.00000000E-01  1.50000000E+00
  8.00000000E-01  8.00000000E-01  1.50000000E+00  8.00000000E-01  8.00000000E-01
  1.50000000E+00  8.00000000E-01  8.00000000E-01  1.50000000E+00  8.00000000E-01
  8.00000000E-01  1.50000000E+00  8.00000000E-01  8.00000000E-01  1.50000000E+00
  8.00000000E-01  8.00000000E-01  1.50000000E+00  8.00000000E-01  8.00000000E-01
  1.50000000E+00  8.00000000E-01  8.00000000E-01  1.50000000E+00  8.00000000E-01
  8.00000000E-01  1.50000000E+00  8.00000000E-01  8.00000000E-01  1.50000000E+00
  8.00000000E-01  8.00000000E-01  1.50000000E+00  8.00000000E-01  8.00000000E-01
  1.50000000E+00  8.00000000E-01  8.00000000E-01  1.50000000E+00  8.00000000E-01
  8.00000000E-01  1.50000000E+00  8.00000000E-01  8.00000000E-01  1.50000000E+00
  8.00000000E-01  8.00000000E-01  1.50000000E+00  8.00000000E-01  8.00000000E-01
  1.50000000E+00  8.00000000E-01  8.00000000E-01  1.50000000E+00  8.00000000E-01
  8.00000000E-01  1.50000000E+00  8.00000000E-01  8.00000000E-01  1.50000000E+00
  8.00000000E-01  8.00000000E-01  1.50000000E+00  8.00000000E-01  8.00000000E-01
  1.50000000E+00  8.00000000E-01  8.00000000E-01  1.50000000E+00  8.00000000E-01
  8.00000000E-01  1.50000000E+00  8.00000000E-01  8.00000000E-01  1.50000000E+00
  8.00000000E-01  8.00000000E-01  1.50000000E+00  8.00000000E-01  8.00000000E-01
  1.50000000E+00  8.00000000E-01  8.00000000E-01  1.50000000E+00  8.00000000E-01
  8.00000000E-01  1.50000000E+00  8.00000000E-01  8.00000000E-01  1.50000000E+00
  8.00000000E-01  8.00000000E-01  1.50000000E+00  8.00000000E-01  8.00000000E-01
  1.50000000E+00  8.00000000E-01  8.00000000E-01  1.50000000E+00  8.00000000E-01
  8.00000000E-01  1.50000000E+00  8.00000000E-01  8.00000000E-01  1.50000000E+00
  8.00000000E-01  8.00000000E-01  1.50000000E+00  8.00000000E-01  8.00000000E-01
  1.50000000E+00  8.00000000E-01  8.00000000E-01  1.50000000E+00  8.00000000E-01
  8.00000000E-01  1.50000000E+00  8.00000000E-01  8.00000000E-01  1.50000000E+00
  8.00000000E-01  8.00000000E-01  1.50000000E+00  8.00000000E-01  8.00000000E-01
  1.50000000E+00  8.00000000E-01  8.00000000E-01  1.50000000E+00  8.00000000E-01
  8.00000000E-01  1.50000000E+00  8.00000000E-01  8.00000000E-01  1.50000000E+00
  8.00000000E-01  8.00000000E-01  1.50000000E+00  8.00000000E-01  8.00000000E-01
  1.50000000E+00  8.00000000E-01  8.00000000E-01  1.50000000E+00  8.00000000E-01
  8.00000000E-01  1.50000000E+00  8.00000000E-01  8.00000000E-01  1.50000000E+00
  8.00000000E-01  8.00000000E-01  1.50000000E+00  8.00000000E-01  8.00000000E-01
  1.50000000E+00  8.00000000E-01  8.00000000E-01  1.50000000E+00  8.00000000E-01
  8.00000000E-01  1.50000000E+00  8.00000000E-01  8.00000000E-01  1.50000000E+00
  8.00000000E-01  8.00000000E-01  1.50000000E+00  8.00000000E-01  8.00000000E-01
  1.50000000E+00  8.00000000E-01  8.00000000E-01  1.50000000E+00  8.00000000E-01
  8.00000000E-01  1.50000000E+00  8.00000000E-01  8.00000000E-01  1.50000000E+00
  8.00000000E-01  8.00000000E-01  1.50000000E+00  8.00000000E-01  8.00000000E-01
  1.50000000E+00  8.00000000E-01  8.00000000E-01  1.50000000E+00  8.00000000E-01
  8.00000000E-01  1.50000000E+00  8.00000000E-01  8.00000000E-01  1.50000000E+00
  8.00000000E-01  8.00000000E-01  1.50000000E+00  8.00000000E-01  8.00000000E-01
  1.50000000E+00  8.00000000E-01  8.00000000E-01  1.50000000E+00  8.00000000E-01
  8.00000000E-01  1.50000000E+00  8.00000000E-01  8.00000000E-01  1.50000000E+00
  8.00000000E-01  8.00000000E-01  1.50000000E+00  8.00000000E-01  8.00000000E-01
  1.50000000E+00  8.00000000E-01  8.00000000E-01  1.50000000E+00  8.00000000E-01
  8.00000000E-01  1.50000000E+00  8.00000000E-01  8.00000000E-01  1.50000000E+00
  8.00000000E-01  8.00000000E-01  1.50000000E+00  8.00000000E-01  8.00000000E-01
  1.50000000E+00  8.00000000E-01  8.00000000E-01  1.50000000E+00  8.00000000E-01
  8.00000000E-01  1.50000000E+00  8.00000000E-01  8.00000000E-01  1.50000000E+00
  8.00000000E-01  8.00000000E-01  1.50000000E+00  8.00000000E-01  8.00000000E-01
  1.50000000E+00  8.00000000E-01  8.00000000E-01  1.50000000E+00  8.00000000E-01
  8.00000000E-01  1.50000000E+00  8.00000000E-01  8.00000000E-01  1.50000000E+00
  8.00000000E-01  8.00000000E-01  1.50000000E+00  8.00000000E-01  8.00000000E-01
  1.50000000E+00  8.00000000E-01  8.00000000E-01  1.50000000E+00  8.00000000E-01
  8.00000000E-01  1.50000000E+00  8.00000000E-01  8.00000000E-01  1.50000000E+00
  8.00000000E-01  8.00000000E-01  1.50000000E+00  8.00000000E-01  8.00000000E-01
  1.50000000E+00  8.00000000E-01  8.00000000E-01  1.50000000E+00  8.00000000E-01
  8.00000000E-01  1.50000000E+00  8.00000000E-01  8.00000000E-01  1.50000000E+00
  8.00000000E-01  8.00000000E-01  1.50000000E+00  8.00000000E-01  8.00000000E-01
  1.50000000E+00  8.00000000E-01  8.00000000E-01  1.50000000E+00  8.00000000E-01
  8.00000000E-01  1.50000000E+00  8.00000000E-01  8.00000000E-01  1.50000000E+00
  8.00000000E-01  8.00000000E-01  1.50000000E+00  8.00000000E-01  8.00000000E-01
  1.50000000E+00  8.00000000E-01  8.00000000E-01  1.50000000E+00  8.00000000E-01
  8.00000000E-01  1.50000000E+00  8.00000000E-01  8.00000000E-01  1.50000000E+00
  8.00000000E-01  8.00000000E-01  1.50000000E+00  8.00000000E-01  8.00000000E-01
  1.50000000E+00  8.00000000E-01  8.00000000E-01  1.50000000E+00  8.00000000E-01
  8.00000000E-01  1.50000000E+00  8.00000000E-01  8.00000000E-01  1.50000000E+00
  8.00000000E-01  8.00000000E-01  1.50000000E+00  8.00000000E-01  8.00000000E-01
  1.50000000E+00  8.00000000E-01  8.00000000E-01  1.50000000E+00  8.00000000E-01
  8.00000000E-01  1.50000000E+00  8.00000000E-01  8.00000000E-01  1.50000000E+00
  8.00000000E-01  8.00000000E-01  1.50000000E+00  8.00000000E-01  8.00000000E-01
  1.50000000E+00  8.00000000E-01  8.00000000E-01  1.50000000E+00  8.00000000E-01
  8.00000000E-01  1.50000000E+00  8.00000000E-01  8.00000000E-01  1.50000000E+00
  8.00000000E-01  8.00000000E-01  1.50000000E+00  8.00000000E-01  8.00000000E-01
  1.50000000E+00  8.00000000E-01  8.00000000E-01  1.50000000E+00  8.00000000E-01
  8.00000000E-01  1.50000000E+00  8.00000000E-01  8.00000000E-01  1.50000000E+00
  8.00000000E-01  8.00000000E-01  1.50000000E+00  8.00000000E-01  8.00000000E-01
  1.50000000E+00  8.00000000E-01  8.00000000E-01  1.50000000E+00  8.00000000E-01
  8.00000000E-01  1.50000000E+00  8.00000000E-01  8.00000000E-01  1.50000000E+00
  8.00000000E-01  8.00000000E-01  1.50000000E+00  8.00000000E-01  8.00000000E-01
  1.50000000E+00  8.00000000E-01  8.00000000E-01  1.50000000E+00  8.00000000E-01
  8.00000000E-01  1.50000000E+00  8.00000000E-01  8.00000000E-01  1.50000000E+00
  8.00000000E-01  8.00000000E-01  1.50000000E+00  8.00000000E-01  8.00000000E-01
  1.50000000E+00  8.00000000E-01  8.00000000E-01  1.50000000E+00  8.00000000E-01
  8.00000000E-01  1.50000000E+00  8.00000000E-01  8.00000000E-01  1.50000000E+00
  8.00000000E-01  8.00000000E-01  1.50000000E+00  8.00000000E-01  8.00000000E-01
  1.50000000E+00  8.00000000E-01  8.00000000E-01  1.50000000E+00  8.00000000E-01
  8.00000000E-01  1.50000000E+00  8.00000000E-01  8.00000000E-01  1.50000000E+00
  8.00000000E-01  8.00000000E-01  1.50000000E+00  8.00000000E-01  8.00000000E-01
  1.50000000E+00  8.00000000E-01  8.00000000E-01  1.50000000E+00  8.00000000E-01
  8.00000000E-01  1.50000000E+00  8.00000000E-01  8.00000000E-01  1.50000000E+00
  8.00000000E-01  8.00000000E-01  1.50000000E+00  8.00000000E-01  8.00000000E-01
  1.50000000E+00  8.00000000E-01  8.00000000E-01  1.50000000E+00  8.00000000E-01
  8.00000000E-01  1.50000000E+00  8.00000000E-01  8.00000000E-01  1.50000000E+00
  8.00000000E-01  8.00000000E-01  1.50000000E+00  8.00000000E-01  8.00000000E-01
  1.50000000E+00  8.00000000E-01  8.00000000E-01  1.50000000E+00  8.00000000E-01
  8.00000000E-01  1.50000000E+00  8.00000000E-01  8.00000000E-01  1.50000000E+00
  8.00000000E-01  8.00000000E-01  1.50000000E+00  8.00000000E-01  8.00000000E-01
  1.50000000E+00  8.00000000E-01  8.00000000E-01  1.50000000E+00  8.00000000E-01
  8.00000000E-01  1.50000000E+00  8.00000000E-01  8.00000000E-01  1.50000000E+00
  8.00000000E-01  8.00000000E-01  1.50000000E+00  8.00000000E-01  8.00000000E-01
  1.50000000E+00  8.00000000E-01  8.00000000E-01  1.50000000E+00  8.00000000E-01
  8.00000000E-01  1.50000000E+00  8.00000000E-01  8.00000000E-01  1.50000000E+00
  8.00000000E-01  8.00000000E-01  1.50000000E+00  8.00000000E-01  8.00000000E-01
  1.50000000E+00  8.00000000E-01  8.00000000E-01  1.50000000E+00  8.00000000E-01
  8.00000000E-01  1.50000000E+00  8.00000000E-01  8.00000000E-01  1.50000000E+00
  8.00000000E-01  8.00000000E-01  1.50000000E+00  8.00000000E-01  8.00000000E-01
  1.50000000E+00  8.00000000E-01  8.00000000E-01  1.50000000E+00  8.00000000E-01
  8.00000000E-01  1.50000000E+00  8.00000000E-01  8.00000000E-01  1.50000000E+00
  8.00000000E-01  8.00000000E-01  1.50000000E+00  8.00000000E-01  8.00000000E-01
  1.50000000E+00  8.00000000E-01  8.00000000E-01  1.50000000E+00  8.00000000E-01
  8.00000000E-01  1.50000000E+00  8.00000000E-01  8.00000000E-01  1.50000000E+00
  8.00000000E-01  8.00000000E-01  1.50000000E+00  8.00000000E-01  8.00000000E-01
  1.50000000E+00  8.00000000E-01  8.00000000E-01  1.50000000E+00  8.00000000E-01
  8.00000000E-01  1.50000000E+00  8.00000000E-01  8.00000000E-01  1.50000000E+00
  8.00000000E-01  8.00000000E-01  1.50000000E+00  8.00000000E-01  8.00000000E-01
  1.50000000E+00  8.00000000E-01  8.00000000E-01  1.50000000E+00  8.00000000E-01
  8.00000000E-01  1.50000000E+00  8.00000000E-01  8.00000000E-01  1.50000000E+00
  8.00000000E-01  8.00000000E-01  1.50000000E+00  8.00000000E-01  8.00000000E-01
  1.50000000E+00  8.00000000E-01  8.00000000E-01  1.50000000E+00  8.00000000E-01
  8.00000000E-01  1.50000000E+00  8.00000000E-01  8.00000000E-01  1.50000000E+00
  8.00000000E-01  8.00000000E-01  1.50000000E+00  8.00000000E-01  8.00000000E-01
  1.50000000E+00  8.00000000E-01  8.00000000E-01  1.50000000E+00  8.00000000E-01
  8.00000000E-01  1.50000000E+00  8.00000000E-01  8.00000000E-01  1.50000000E+00
  8.00000000E-01  8.00000000E-01  1.50000000E+00  8.00000000E-01  8.00000000E-01
  1.50000000E+00  8.00000000E-01  8.00000000E-01  1.50000000E+00  8.00000000E-01
  8.00000000E-01  1.50000000E+00  8.00000000E-01  8.00000000E-01  1.50000000E+00
  8.00000000E-01  8.00000000E-01  1.50000000E+00  8.00000000E-01  8.00000000E-01
  1.50000000E+00  8.00000000E-01  8.00000000E-01  1.50000000E+00  8.00000000E-01
  8.00000000E-01  1.50000000E+00  8.00000000E-01  8.00000000E-01  1.50000000E+00
  8.00000000E-01  8.00000000E-01  1.50000000E+00  8.00000000E-01  8.00000000E-01
  1.50000000E+00  8.00000000E-01  8.00000000E-01  1.50000000E+00  8.00000000E-01
  8.00000000E-01  1.50000000E+00  8.00000000E-01  8.00000000E-01  1.50000000E+00
  8.00000000E-01  8.00000000E-01  1.50000000E+00  8.00000000E-01  8.00000000E-01
  1.50000000E+00  8.00000000E-01  8.00000000E-01  1.50000000E+00  8.00000000E-01
  8.00000000E-01  1.50000000E+00  8.00000000E-01  8.00000000E-01  1.50000000E+00
  8.00000000E-01  8.00000000E-01  1.50000000E+00  8.00000000E-01  8.00000000E-01
  1.50000000E+00  8.00000000E-01  8.00000000E-01  1.50000000E+00  8.00000000E-01
  8.00000000E-01  1.50000000E+00  8.00000000E-01  8.00000000E-01  1.50000000E+00
  8.00000000E-01  8.00000000E-01  1.50000000E+00  8.00000000E-01  8.00000000E-01
  1.50000000E+00  8.00000000E-01  8.00000000E-01  1.50000000E+00  8.00000000E-01
  8.00000000E-01  1.50000000E+00  8.00000000E-01  8.00000000E-01  1.50000000E+00
  8.00000000E-01  8.00000000E-01  1.50000000E+00  8.00000000E-01  8.00000000E-01
  1.50000000E+00  8.00000000E-01  8.00000000E-01  1.50000000E+00  8.00000000E-01
  8.00000000E-01  1.50000000E+00  8.00000000E-01  8.00000000E-01  1.50000000E+00
  8.00000000E-01  8.00000000E-01  1.50000000E+00  8.00000000E-01  8.00000000E-01
  1.50000000E+00  8.00000000E-01  8.00000000E-01  1.50000000E+00  8.00000000E-01
  8.00000000E-01  1.50000000E+00  8.00000000E-01  8.00000000E-01  1.50000000E+00
  8.00000000E-01  8.00000000E-01  1.50000000E+00  8.00000000E-01  8.00000000E-01
  1.50000000E+00  8.00000000E-01  8.00000000E-01  1.50000000E+00  8.00000000E-01
  8.00000000E-01  1.50000000E+00  8.00000000E-01  8.00000000E-01  1.50000000E+00
  8.00000000E-01  8.00000000E-01  1.50000000E+00  8.00000000E-01  8.00000000E-01
  1.50000000E+00  8.00000000E-01  8.00000000E-01  1.50000000E+00  8.00000000E-01
  8.00000000E-01  1.50000000E+00  8.00000000E-01  8.00000000E-01  1.50000000E+00
  8.00000000E-01  8.00000000E-01  1.50000000E+00  8.00000000E-01  8.00000000E-01
  1.50000000E+00  8.00000000E-01  8.00000000E-01  1.50000000E+00  8.00000000E-01
  8.00000000E-01  1.50000000E+00  8.00000000E-01  8.00000000E-01  1.50000000E+00
  8.00000000E-01  8.00000000E-01  1.50000000E+00  8.00000000E-01  8.00000000E-01
  1.50000000E+00  8.00000000E-01  8.00000000E-01  1.50000000E+00  8.00000000E-01
  8.00000000E-01  1.50000000E+00  8.00000000E-01  8.00000000E-01  1.50000000E+00
  8.00000000E-01  8.00000000E-01  1.50000000E+00  8.00000000E-01  8.00000000E-01
  1.50000000E+00  8.00000000E-01  8.00000000E-01  1.50000000E+00  8.00000000E-01
  8.00000000E-01  1.50000000E+00  8.00000000E-01  8.00000000E-01  1.50000000E+00
  8.00000000E-01  8.00000000E-01  1.50000000E+00  8.00000000E-01  8.00000000E-01
  1.50000000E+00  8.00000000E-01  8.00000000E-01  1.50000000E+00  8.00000000E-01
  8.00000000E-01  1.50000000E+00  8.00000000E-01  8.00000000E-01  1.50000000E+00
  8.00000000E-01  8.00000000E-01  1.50000000E+00  8.00000000E-01  8.00000000E-01
  1.50000000E+00  8.00000000E-01  8.00000000E-01  1.50000000E+00  8.00000000E-01
  8.00000000E-01  1.50000000E+00  8.00000000E-01  8.00000000E-01  1.50000000E+00
  8.00000000E-01  8.00000000E-01  1.50000000E+00  8.00000000E-01  8.00000000E-01
  1.50000000E+00  8.00000000E-01  8.00000000E-01  1.50000000E+00  8.00000000E-01
  8.00000000E-01  1.50000000E+00  8.00000000E-01  8.00000000E-01  1.50000000E+00
  8.00000000E-01  8.00000000E-01  1.50000000E+00  8.00000000E-01  8.00000000E-01
  1.50000000E+00  8.00000000E-01  8.00000000E-01  1.50000000E+00  8.00000000E-01
  8.00000000E-01  1.50000000E+00  8.00000000E-01  8.00000000E-01  1.50000000E+00
  8.00000000E-01  8.00000000E-01  1.50000000E+00  8.00000000E-01  8.00000000E-01
  1.50000000E+00  8.00000000E-01  8.00000000E-01  1.50000000E+00  8.00000000E-01
  8.00000000E-01  1.50000000E+00  8.00000000E-01  8.00000000E-01  1.50000000E+00
  8.00000000E-01  8.00000000E-01  1.50000000E+00  8.00000000E-01  8.00000000E-01
  1.50000000E+00  8.00000000E-01  8.00000000E-01  1.50000000E+00  8.00000000E-01
  8.00000000E-01  1.50000000E+00  8.00000000E-01  8.00000000E-01  1.50000000E+00
  8.00000000E-01  8.00000000E-01  1.50000000E+00  8.00000000E-01  8.00000000E-01
  1.50000000E+00  8.00000000E-01  8.00000000E-01  1.50000000E+00  8.00000000E-01
  8.00000000E-01  1.50000000E+00  8.00000000E-01  8.00000000E-01  1.50000000E+00
  8.00000000E-01  8.00000000E-01  1.50000000E+00  8.00000000E-01  8.00000000E-01
  1.50000000E+00  8.00000000E-01  8.00000000E-01  1.50000000E+00  8.00000000E-01
  8.00000000E-01  1.50000000E+00  8.00000000E-01  8.00000000E-01  1.50000000E+00
  8.00000000E-01  8.00000000E-01  1.50000000E+00  8.00000000E-01  8.00000000E-01
  1.50000000E+00  8.00000000E-01  8.00000000E-01  1.50000000E+00  8.00000000E-01
  8.00000000E-01  1.50000000E+00  8.00000000E-01  8.00000000E-01  1.50000000E+00
  8.00000000E-01  8.00000000E-01  1.50000000E+00  8.00000000E-01  8.00000000E-01
  1.50000000E+00  8.00000000E-01  8.00000000E-01  1.50000000E+00  8.00000000E-01
  8.00000000E-01  1.50000000E+00  8.00000000E-01  8.00000000E-01  1.50000000E+00
  8.00000000E-01  8.00000000E-01  1.50000000E+00  8.00000000E-01  8.00000000E-01
  1.50000000E+00  8.00000000E-01  8.00000000E-01  1.50000000E+00  8.00000000E-01
  8.00000000E-01  1.50000000E+00  8.00000000E-01  8.00000000E-01  1.50000000E+00
  8.00000000E-01  8.00000000E-01  1.50000000E+00  8.00000000E-01  8.00000000E-01
  1.50000000E+00  8.00000000E-01  8.00000000E-01  1.50000000E+00  8.00000000E-01
  8.00000000E-01  1.50000000E+00  8.00000000E-01  8.00000000E-01  1.50000000E+00
  8.00000000E-01  8.00000000E-01  1.50000000E+00  8.00000000E-01  8.00000000E-01
  1.50000000E+00  8.00000000E-01  8.00000000E-01  1.50000000E+00  8.00000000E-01
  8.00000000E-01  1.50000000E+00  8.00000000E-01  8.00000000E-01  1.50000000E+00
  8.00000000E-01  8.00000000E-01  1.50000000E+00  8.00000000E-01  8.00000000E-01
  1.50000000E+00  8.00000000E-01  8.00000000E-01  1.50000000E+00  8.00000000E-01
  8.00000000E-01  1.50000000E+00  8.00000000E-01  8.00000000E-01  1.50000000E+00
  8.00000000E-01  8.00000000E-01  1.50000000E+00  8.00000000E-01  8.00000000E-01
  1.50000000E+00  8.00000000E-01  8.00000000E-01  1.50000000E+00  8.00000000E-01
  8.00000000E-01  1.50000000E+00  8.00000000E-01  8.00000000E-01  1.50000000E+00
  8.00000000E-01  8.00000000E-01  1.50000000E+00  8.00000000E-01  8.00000000E-01
  1.50000000E+00  8.00000000E-01  8.00000000E-01  1.50000000E+00  8.00000000E-01
  8.00000000E-01  1.50000000E+00  8.00000000E-01  8.00000000E-01  1.50000000E+00
  8.00000000E-01  8.00000000E-01  1.50000000E+00  8.00000000E-01  8.00000000E-01
  1.50000000E+00  8.00000000E-01  8.00000000E-01  1.50000000E+00  8.00000000E-01
  8.00000000E-01  1.50000000E+00  8.00000000E-01  8.00000000E-01  1.50000000E+00
  8.00000000E-01  8.00000000E-01  1.50000000E+00  8.00000000E-01  8.00000000E-01
  1.50000000E+00  8.00000000E-01  8.00000000E-01  1.50000000E+00  8.00000000E-01
  8.00000000E-01  1.50000000E+00  8.00000000E-01  8.00000000E-01  1.50000000E+00
  8.00000000E-01  8.00000000E-01  1.50000000E+00  8.00000000E-01  8.00000000E-01
  1.50000000E+00  8.00000000E-01  8.00000000E-01  1.50000000E+00  8.00000000E-01
  8.00000000E-01  1.50000000E+00  8.00000000E-01  8.00000000E-01  1.50000000E+00
  8.00000000E-01  8.00000000E-01  1.50000000E+00  8.00000000E-01  8.00000000E-01
  1.50000000E+00  8.00000000E-01  8.00000000E-01  1.50000000E+00  8.00000000E-01
  8.00000000E-01  1.50000000E+00  8.00000000E-01  8.00000000E-01  1.50000000E+00
  8.00000000E-01  8.00000000E-01  1.50000000E+00  8.00000000E-01  8.00000000E-01
  1.50000000E+00  8.00000000E-01  8.00000000E-01  1.50000000E+00  8.00000000E-01
  8.00000000E-01  1.50000000E+00  8.00000000E-01  8.00000000E-01  1.50000000E+00
  8.00000000E-01  8.00000000E-01  1.50000000E+00  8.00000000E-01  8.00000000E-01
  1.50000000E+00  8.00000000E-01  8.00000000E-01  1.50000000E+00  8.00000000E-01
  8.00000000E-01  1.50000000E+00  8.00000000E-01  8.00000000E-01  1.50000000E+00
  8.00000000E-01  8.00000000E-01  1.50000000E+00  8.00000000E-01  8.00000000E-01
  1.50000000E+00  8.00000000E-01  8.00000000E-01  1.50000000E+00  8.00000000E-01
  8.00000000E-01  1.50000000E+00  8.00000000E-01  8.00000000E-01  1.50000000E+00
  8.00000000E-01  8.00000000E-01  1.50000000E+00  8.00000000E-01  8.00000000E-01
  1.50000000E+00  8.00000000E-01  8.00000000E-01  1.50000000E+00  8.00000000E-01
  8.00000000E-01  1.50000000E+00  8.00000000E-01  8.00000000E-01  1.50000000E+00
  8.00000000E-01  8.00000000E-01  1.50000000E+00  8.00000000E-01  8.00000000E-01
  1.50000000E+00  8.00000000E-01  8.00000000E-01  1.50000000E+00  8.00000000E-01
  8.00000000E-01  1.50000000E+00  8.00000000E-01  8.00000000E-01  1.50000000E+00
  8.00000000E-01  8.00000000E-01  1.50000000E+00  8.00000000E-01  8.00000000E-01
  1.50000000E+00  8.00000000E-01  8.00000000E-01  1.50000000E+00  8.00000000E-01
  8.00000000E-01  1.50000000E+00  8.00000000E-01  8.00000000E-01  1.50000000E+00
  8.00000000E-01  8.00000000E-01  1.50000000E+00  8.00000000E-01  8.00000000E-01
  1.50000000E+00  8.00000000E-01  8.00000000E-01  1.50000000E+00  8.00000000E-01
  8.00000000E-01  1.50000000E+00  8.00000000E-01  8.00000000E-01  1.50000000E+00
  8.00000000E-01  8.00000000E-01  1.50000000E+00  8.00000000E-01  8.00000000E-01
  1.50000000E+00  8.00000000E-01  8.00000000E-01  1.50000000E+00  8.00000000E-01
  8.00000000E-01  1.50000000E+00  8.00000000E-01  8.00000000E-01  1.50000000E+00
  8.00000000E-01  8.00000000E-01  1.50000000E+00  8.00000000E-01  8.00000000E-01
  1.50000000E+00  8.00000000E-01  8.00000000E-01  1.50000000E+00  8.00000000E-01
  8.00000000E-01  1.50000000E+00  8.00000000E-01  8.00000000E-01  1.50000000E+00
  8.00000000E-01  8.00000000E-01  1.50000000E+00  8.00000000E-01  8.00000000E-01
  1.50000000E+00  8.00000000E-01  8.00000000E-01  1.50000000E+00  8.00000000E-01
  8.00000000E-01  1.50000000E+00  8.00000000E-01  8.00000000E-01  1.50000000E+00
  8.00000000E-01  8.00000000E-01  1.50000000E+00  8.00000000E-01  8.00000000E-01
  1.50000000E+00  8.00000000E-01  8.00000000E-01  1.50000000E+00  8.00000000E-01
  8.00000000E-01  1.50000000E+00  8.00000000E-01  8.00000000E-01  1.50000000E+00
  8.00000000E-01  8.00000000E-01  1.50000000E+00  8.00000000E-01  8.00000000E-01
  1.50000000E+00  8.00000000E-01  8.00000000E-01  1.50000000E+00  8.00000000E-01
  8.00000000E-01  1.50000000E+00  8.00000000E-01  8.00000000E-01  1.50000000E+00
  8.00000000E-01  8.00000000E-01  1.50000000E+00  8.00000000E-01  8.00000000E-01
  1.50000000E+00  8.00000000E-01  8.00000000E-01  1.50000000E+00  8.00000000E-01
  8.00000000E-01  1.50000000E+00  8.00000000E-01  8.00000000E-01  1.50000000E+00
  8.00000000E-01  8.00000000E-01  1.50000000E+00  8.00000000E-01  8.00000000E-01
  1.50000000E+00  8.00000000E-01  8.00000000E-01  1.50000000E+00  8.00000000E-01
  8.00000000E-01  1.50000000E+00  8.00000000E-01  8.00000000E-01  1.50000000E+00
  8.00000000E-01  8.00000000E-01  1.50000000E+00  8.00000000E-01  8.00000000E-01
  1.50000000E+00  8.00000000E-01  8.00000000E-01  1.50000000E+00  8.00000000E-01
  8.00000000E-01  1.50000000E+00  8.00000000E-01  8.00000000E-01  1.50000000E+00
  8.00000000E-01  8.00000000E-01  1.50000000E+00  8.00000000E-01  8.00000000E-01
  1.50000000E+00  8.00000000E-01  8.00000000E-01  1.50000000E+00  8.00000000E-01
  8.00000000E-01  1.50000000E+00  8.00000000E-01  8.00000000E-01  1.50000000E+00
  8.00000000E-01  8.00000000E-01  1.50000000E+00  8.00000000E-01  8.00000000E-01
  1.50000000E+00  8.00000000E-01  8.00000000E-01  1.50000000E+00  8.00000000E-01
  8.00000000E-01  1.50000000E+00  8.00000000E-01  8.00000000E-01  1.50000000E+00
  8.00000000E-01  8.00000000E-01  1.50000000E+00  8.00000000E-01  8.00000000E-01
  1.50000000E+00  8.00000000E-01  8.00000000E-01  1.50000000E+00  8.00000000E-01
  8.00000000E-01  1.50000000E+00  8.00000000E-01  8.00000000E-01  1.50000000E+00
  8.00000000E-01  8.00000000E-01  1.50000000E+00  8.00000000E-01  8.00000000E-01
  1.50000000E+00  8.00000000E-01  8.00000000E-01  1.50000000E+00  8.00000000E-01
  8.00000000E-01  1.50000000E+00  8.00000000E-01  8.00000000E-01  1.50000000E+00
  8.00000000E-01  8.00000000E-01  1.50000000E+00  8.00000000E-01  8.00000000E-01
  1.50000000E+00  8.00000000E-01  8.00000000E-01  1.50000000E+00  8.00000000E-01
  8.00000000E-01  1.50000000E+00  8.00000000E-01  8.00000000E-01  1.50000000E+00
  8.00000000E-01  8.00000000E-01  1.50000000E+00  8.00000000E-01  8.00000000E-01
  1.50000000E+00  8.00000000E-01  8.00000000E-01  1.50000000E+00  8.00000000E-01
  8.00000000E-01  1.50000000E+00  8.00000000E-01  8.00000000E-01  1.50000000E+00
  8.00000000E-01  8.00000000E-01  1.50000000E+00  8.00000000E-01  8.00000000E-01
  1.50000000E+00  8.00000000E-01  8.00000000E-01  1.50000000E+00  8.00000000E-01
  8.00000000E-01  1.50000000E+00  8.00000000E-01  8.00000000E-01  1.50000000E+00
  8.00000000E-01  8.00000000E-01  1.50000000E+00  8.00000000E-01  8.00000000E-01
  1.50000000E+00  8.00000000E-01  8.00000000E-01  1.50000000E+00  8.00000000E-01
  8.00000000E-01  1.50000000E+00  8.00000000E-01  8.00000000E-01  1.50000000E+00
  8.00000000E-01  8.00000000E-01  1.50000000E+00  8.00000000E-01  8.00000000E-01
  1.50000000E+00  8.00000000E-01  8.00000000E-01  1.50000000E+00  8.00000000E-01
  8.00000000E-01  1.50000000E+00  8.00000000E-01  8.00000000E-01  1.50000000E+00
  8.00000000E-01  8.00000000E-01  1.50000000E+00  8.00000000E-01  8.00000000E-01
  1.50000000E+00  8.00000000E-01  8.00000000E-01  1.50000000E+00  8.00000000E-01
  8.00000000E-01  1.50000000E+00  8.00000000E-01  8.00000000E-01  1.50000000E+00
  8.00000000E-01  8.00000000E-01  1.50000000E+00  8.00000000E-01  8.00000000E-01
  1.50000000E+00  8.00000000E-01  8.00000000E-01  1.50000000E+00  8.00000000E-01
  8.00000000E-01  1.50000000E+00  8.00000000E-01  8.00000000E-01  1.50000000E+00
  8.00000000E-01  8.00000000E-01  1.50000000E+00  8.00000000E-01  8.00000000E-01
  1.50000000E+00  8.00000000E-01  8.00000000E-01  1.50000000E+00  8.00000000E-01
  8.00000000E-01  1.50000000E+00  8.00000000E-01  8.00000000E-01  1.50000000E+00
  8.00000000E-01  8.00000000E-01  1.50000000E+00  8.00000000E-01  8.00000000E-01
  1.50000000E+00  8.00000000E-01  8.00000000E-01  1.50000000E+00  8.00000000E-01
  8.00000000E-01  1.50000000E+00  8.00000000E-01  8.00000000E-01  1.50000000E+00
  8.00000000E-01  8.00000000E-01  1.50000000E+00  8.00000000E-01  8.00000000E-01
  1.50000000E+00  8.00000000E-01  8.00000000E-01  1.50000000E+00  8.00000000E-01
  8.00000000E-01  1.50000000E+00  8.00000000E-01  8.00000000E-01  1.50000000E+00
  8.00000000E-01  8.00000000E-01  1.50000000E+00  8.00000000E-01  8.00000000E-01
  1.50000000E+00  8.00000000E-01  8.00000000E-01  1.50000000E+00  8.00000000E-01
  8.00000000E-01  1.50000000E+00  8.00000000E-01  8.00000000E-01  1.50000000E+00
  8.00000000E-01  8.00000000E-01  1.50000000E+00  8.00000000E-01  8.00000000E-01
  1.50000000E+00  8.00000000E-01  8.00000000E-01  1.50000000E+00  8.00000000E-01
  8.00000000E-01  1.50000000E+00  8.00000000E-01  8.00000000E-01  1.50000000E+00
  8.00000000E-01  8.00000000E-01  1.50000000E+00  8.00000000E-01  8.00000000E-01
  1.50000000E+00  8.00000000E-01  8.00000000E-01  1.50000000E+00  8.00000000E-01
  8.00000000E-01  1.50000000E+00  8.00000000E-01  8.00000000E-01  1.50000000E+00
  8.00000000E-01  8.00000000E-01  1.50000000E+00  8.00000000E-01  8.00000000E-01
  1.50000000E+00  8.00000000E-01  8.00000000E-01  1.50000000E+00  8.00000000E-01
  8.00000000E-01  1.50000000E+00  8.00000000E-01  8.00000000E-01  1.50000000E+00
  8.00000000E-01  8.00000000E-01  1.50000000E+00  8.00000000E-01  8.00000000E-01
  1.50000000E+00  8.00000000E-01  8.00000000E-01  1.50000000E+00  8.00000000E-01
  8.00000000E-01  1.50000000E+00  8.00000000E-01  8.00000000E-01  1.50000000E+00
  8.00000000E-01  8.00000000E-01  1.50000000E+00  8.00000000E-01  8.00000000E-01
  1.50000000E+00  8.00000000E-01  8.00000000E-01  1.50000000E+00  8.00000000E-01
  8.00000000E-01  1.50000000E+00  8.00000000E-01  8.00000000E-01  1.50000000E+00
  8.00000000E-01  8.00000000E-01  1.50000000E+00  8.00000000E-01  8.00000000E-01
  1.50000000E+00  8.00000000E-01  8.00000000E-01  1.50000000E+00  8.00000000E-01
  8.00000000E-01  1.50000000E+00  8.00000000E-01  8.00000000E-01  1.50000000E+00
  8.00000000E-01  8.00000000E-01  1.50000000E+00  8.00000000E-01  8.00000000E-01
  1.50000000E+00  8.00000000E-01  8.00000000E-01  1.50000000E+00  8.00000000E-01
  8.00000000E-01  1.50000000E+00  8.00000000E-01  8.00000000E-01  1.50000000E+00
  8.00000000E-01  8.00000000E-01  1.50000000E+00  8.00000000E-01  8.00000000E-01
  1.50000000E+00  8.00000000E-01  8.00000000E-01  1.50000000E+00  8.00000000E-01
  8.00000000E-01  1.50000000E+00  8.00000000E-01  8.00000000E-01  1.50000000E+00
  8.00000000E-01  8.00000000E-01  1.50000000E+00  8.00000000E-01  8.00000000E-01
  1.50000000E+00  8.00000000E-01  8.00000000E-01  1.50000000E+00  8.00000000E-01
  8.00000000E-01  1.50000000E+00  8.00000000E-01  8.00000000E-01  1.50000000E+00
  8.00000000E-01  8.00000000E-01  1.50000000E+00  8.00000000E-01  8.00000000E-01
  1.50000000E+00  8.00000000E-01  8.00000000E-01  1.50000000E+00  8.00000000E-01
  8.00000000E-01  1.50000000E+00  8.00000000E-01  8.00000000E-01  1.50000000E+00
  8.00000000E-01  8.00000000E-01  1.50000000E+00  8.00000000E-01  8.00000000E-01
  1.50000000E+00  8.00000000E-01  8.00000000E-01  1.50000000E+00  8.00000000E-01
  8.00000000E-01  1.50000000E+00  8.00000000E-01  8.00000000E-01  1.50000000E+00
  8.00000000E-01  8.00000000E-01  1.50000000E+00  8.00000000E-01  8.00000000E-01
  1.50000000E+00  8.00000000E-01  8.00000000E-01  1.50000000E+00  8.00000000E-01
  8.00000000E-01  1.50000000E+00  8.00000000E-01  8.00000000E-01  1.50000000E+00
  8.00000000E-01  8.00000000E-01  1.50000000E+00  8.00000000E-01  8.00000000E-01
  1.50000000E+00  8.00000000E-01  8.00000000E-01  1.50000000E+00  8.00000000E-01
  8.00000000E-01  1.50000000E+00  8.00000000E-01  8.00000000E-01  1.50000000E+00
  8.00000000E-01  8.00000000E-01  1.50000000E+00  8.00000000E-01  8.00000000E-01
  1.50000000E+00  8.00000000E-01  8.00000000E-01  1.50000000E+00  8.00000000E-01
  8.00000000E-01  1.50000000E+00  8.00000000E-01  8.00000000E-01  1.50000000E+00
  8.00000000E-01  8.00000000E-01  1.50000000E+00  8.00000000E-01  8.00000000E-01
  1.50000000E+00  8.00000000E-01  8.00000000E-01  1.50000000E+00  8.00000000E-01
  8.00000000E-01  1.50000000E+00  8.00000000E-01  8.00000000E-01  1.50000000E+00
  8.00000000E-01  8.00000000E-01  1.50000000E+00  8.00000000E-01  8.00000000E-01
  1.50000000E+00  8.00000000E-01  8.00000000E-01  1.50000000E+00  8.00000000E-01
  8.00000000E-01  1.50000000E+00  8.00000000E-01  8.00000000E-01  1.50000000E+00
  8.00000000E-01  8.00000000E-01  1.50000000E+00  8.00000000E-01  8.00000000E-01
  1.50000000E+00  8.00000000E-01  8.00000000E-01  1.50000000E+00  8.00000000E-01
  8.00000000E-01  1.50000000E+00  8.00000000E-01  8.00000000E-01  1.50000000E+00
  8.00000000E-01  8.00000000E-01  1.50000000E+00  8.00000000E-01  8.00000000E-01
  1.50000000E+00  8.00000000E-01  8.00000000E-01  1.50000000E+00  8.00000000E-01
  8.00000000E-01  1.50000000E+00  8.00000000E-01  8.00000000E-01  1.50000000E+00
  8.00000000E-01  8.00000000E-01  1.50000000E+00  8.00000000E-01  8.00000000E-01
  1.50000000E+00  8.00000000E-01  8.00000000E-01  1.50000000E+00  8.00000000E-01
  8.00000000E-01  1.50000000E+00  8.00000000E-01  8.00000000E-01  1.50000000E+00
  8.00000000E-01  8.00000000E-01  1.50000000E+00  8.00000000E-01  8.00000000E-01
  1.50000000E+00  8.00000000E-01  8.00000000E-01  1.50000000E+00  8.00000000E-01
  8.00000000E-01  1.50000000E+00  8.00000000E-01  8.00000000E-01  1.50000000E+00
  8.00000000E-01  8.00000000E-01  1.50000000E+00  8.00000000E-01  8.00000000E-01
  1.50000000E+00  8.00000000E-01  8.00000000E-01  1.50000000E+00  8.00000000E-01
  8.00000000E-01  1.50000000E+00  8.00000000E-01  8.00000000E-01  1.50000000E+00
  8.00000000E-01  8.00000000E-01  1.50000000E+00  8.00000000E-01  8.00000000E-01
  1.50000000E+00  8.00000000E-01  8.00000000E-01  1.50000000E+00  8.00000000E-01
  8.00000000E-01  1.50000000E+00  8.00000000E-01  8.00000000E-01  1.50000000E+00
  8.00000000E-01  8.00000000E-01  1.50000000E+00  8.00000000E-01  8.00000000E-01
  1.50000000E+00  8.00000000E-01  8.00000000E-01  1.50000000E+00  8.00000000E-01
  8.00000000E-01  1.50000000E+00  8.00000000E-01  8.00000000E-01  1.50000000E+00
  8.00000000E-01  8.00000000E-01  1.50000000E+00  8.00000000E-01  8.00000000E-01
  1.50000000E+00  8.00000000E-01  8.00000000E-01  1.50000000E+00  8.00000000E-01
  8.00000000E-01  1.50000000E+00  8.00000000E-01  8.00000000E-01  1.50000000E+00
  8.00000000E-01  8.00000000E-01  1.50000000E+00  8.00000000E-01  8.00000000E-01
  1.50000000E+00  8.00000000E-01  8.00000000E-01  1.50000000E+00  8.00000000E-01
  8.00000000E-01  1.50000000E+00  8.00000000E-01  8.00000000E-01  1.50000000E+00
  8.00000000E-01  8.00000000E-01  1.50000000E+00  8.00000000E-01  8.00000000E-01
  1.50000000E+00  8.00000000E-01  8.00000000E-01  1.50000000E+00  8.00000000E-01
  8.00000000E-01  1.50000000E+00  8.00000000E-01  8.00000000E-01  1.50000000E+00
  8.00000000E-01  8.00000000E-01  1.50000000E+00  8.00000000E-01  8.00000000E-01
  1.50000000E+00  8.00000000E-01  8.00000000E-01  1.50000000E+00  8.00000000E-01
  8.00000000E-01  1.50000000E+00  8.00000000E-01  8.00000000E-01  1.50000000E+00
  8.00000000E-01  8.00000000E-01  1.50000000E+00  8.00000000E-01  8.00000000E-01
  1.50000000E+00  8.00000000E-01  8.00000000E-01  1.50000000E+00  8.00000000E-01
  8.00000000E-01  1.50000000E+00  8.00000000E-01  8.00000000E-01  1.50000000E+00
  8.00000000E-01  8.00000000E-01  1.50000000E+00  8.00000000E-01  8.00000000E-01
  1.50000000E+00  8.00000000E-01  8.00000000E-01  1.50000000E+00  8.00000000E-01
  8.00000000E-01  1.50000000E+00  8.00000000E-01  8.00000000E-01  1.50000000E+00
  8.00000000E-01  8.00000000E-01  1.50000000E+00  8.00000000E-01  8.00000000E-01
  1.50000000E+00  8.00000000E-01  8.00000000E-01  1.50000000E+00  8.00000000E-01
  8.00000000E-01  1.50000000E+00  8.00000000E-01  8.00000000E-01  1.50000000E+00
  8.00000000E-01  8.00000000E-01  1.50000000E+00  8.00000000E-01  8.00000000E-01
  1.50000000E+00  8.00000000E-01  8.00000000E-01  1.50000000E+00  8.00000000E-01
  8.00000000E-01  1.50000000E+00  8.00000000E-01  8.00000000E-01  1.50000000E+00
  8.00000000E-01  8.00000000E-01  1.50000000E+00  8.00000000E-01  8.00000000E-01
  1.50000000E+00  8.00000000E-01  8.00000000E-01  1.50000000E+00  8.00000000E-01
  8.00000000E-01  1.50000000E+00  8.00000000E-01  8.00000000E-01  1.50000000E+00
  8.00000000E-01  8.00000000E-01  1.50000000E+00  8.00000000E-01  8.00000000E-01
  1.50000000E+00  8.00000000E-01  8.00000000E-01  1.50000000E+00  8.00000000E-01
  8.00000000E-01  1.50000000E+00  8.00000000E-01  8.00000000E-01  1.50000000E+00
  8.00000000E-01  8.00000000E-01  1.50000000E+00  8.00000000E-01  8.00000000E-01
  1.50000000E+00  8.00000000E-01  8.00000000E-01  1.50000000E+00  8.00000000E-01
  8.00000000E-01  1.50000000E+00  8.00000000E-01  8.00000000E-01  1.50000000E+00
  8.00000000E-01  8.00000000E-01  1.50000000E+00  8.00000000E-01  8.00000000E-01
  1.50000000E+00  8.00000000E-01  8.00000000E-01  1.50000000E+00  8.00000000E-01
  8.00000000E-01  1.50000000E+00  8.00000000E-01  8.00000000E-01  1.50000000E+00
  8.00000000E-01  8.00000000E-01  1.50000000E+00  8.00000000E-01  8.00000000E-01
  1.50000000E+00  8.00000000E-01  8.00000000E-01  1.50000000E+00  8.00000000E-01
  8.00000000E-01  1.50000000E+00  8.00000000E-01  8.00000000E-01  1.50000000E+00
  8.00000000E-01  8.00000000E-01  1.50000000E+00  8.00000000E-01  8.00000000E-01
  1.50000000E+00  8.00000000E-01  8.00000000E-01  1.50000000E+00  8.00000000E-01
  8.00000000E-01  1.50000000E+00  8.00000000E-01  8.00000000E-01  1.50000000E+00
  8.00000000E-01  8.00000000E-01  1.50000000E+00  8.00000000E-01  8.00000000E-01
  1.50000000E+00  8.00000000E-01  8.00000000E-01  1.50000000E+00  8.00000000E-01
  8.00000000E-01  1.50000000E+00  8.00000000E-01  8.00000000E-01  1.50000000E+00
  8.00000000E-01  8.00000000E-01  1.50000000E+00  8.00000000E-01  8.00000000E-01
  1.50000000E+00  8.00000000E-01  8.00000000E-01  1.50000000E+00  8.00000000E-01
  8.00000000E-01  1.50000000E+00  8.00000000E-01  8.00000000E-01  1.50000000E+00
  8.00000000E-01  8.00000000E-01  1.50000000E+00  8.00000000E-01  8.00000000E-01
  1.50000000E+00  8.00000000E-01  8.00000000E-01  1.50000000E+00  8.00000000E-01
  8.00000000E-01  1.50000000E+00  8.00000000E-01  8.00000000E-01  1.50000000E+00
  8.00000000E-01  8.00000000E-01  1.50000000E+00  8.00000000E-01  8.00000000E-01
  1.50000000E+00  8.00000000E-01  8.00000000E-01  1.50000000E+00  8.00000000E-01
  8.00000000E-01  1.50000000E+00  8.00000000E-01  8.00000000E-01  1.50000000E+00
  8.00000000E-01  8.00000000E-01  1.50000000E+00  8.00000000E-01  8.00000000E-01
  1.50000000E+00  8.00000000E-01  8.00000000E-01  1.50000000E+00  8.00000000E-01
  8.00000000E-01  1.50000000E+00  8.00000000E-01  8.00000000E-01  1.50000000E+00
  8.00000000E-01  8.00000000E-01  1.50000000E+00  8.00000000E-01  8.00000000E-01
  1.50000000E+00  8.00000000E-01  8.00000000E-01  1.50000000E+00  8.00000000E-01
  8.00000000E-01  1.50000000E+00  8.00000000E-01  8.00000000E-01  1.50000000E+00
  8.00000000E-01  8.00000000E-01  1.50000000E+00  8.00000000E-01  8.00000000E-01
  1.50000000E+00  8.00000000E-01  8.00000000E-01  1.50000000E+00  8.00000000E-01
  8.00000000E-01  1.50000000E+00  8.00000000E-01  8.00000000E-01  1.50000000E+00
  8.00000000E-01  8.00000000E-01  1.50000000E+00  8.00000000E-01  8.00000000E-01
  1.50000000E+00  8.00000000E-01  8.00000000E-01  1.50000000E+00  8.00000000E-01
  8.00000000E-01  1.50000000E+00  8.00000000E-01  8.00000000E-01  1.50000000E+00
  8.00000000E-01  8.00000000E-01  1.50000000E+00  8.00000000E-01  8.00000000E-01
  1.50000000E+00  8.00000000E-01  8.00000000E-01  1.50000000E+00  8.00000000E-01
  8.00000000E-01  1.50000000E+00  8.00000000E-01  8.00000000E-01  1.50000000E+00
  8.00000000E-01  8.00000000E-01  1.50000000E+00  8.00000000E-01  8.00000000E-01
  1.50000000E+00  8.00000000E-01  8.00000000E-01  1.50000000E+00  8.00000000E-01
  8.00000000E-01  1.50000000E+00  8.00000000E-01  8.00000000E-01  1.50000000E+00
  8.00000000E-01  8.00000000E-01  1.50000000E+00  8.00000000E-01  8.00000000E-01
  1.50000000E+00  8.00000000E-01  8.00000000E-01  1.50000000E+00  8.00000000E-01
  8.00000000E-01  1.50000000E+00  8.00000000E-01  8.00000000E-01  1.50000000E+00
  8.00000000E-01  8.00000000E-01  1.50000000E+00  8.00000000E-01  8.00000000E-01
  1.50000000E+00  8.00000000E-01  8.00000000E-01  1.50000000E+00  8.00000000E-01
  8.00000000E-01  1.50000000E+00  8.00000000E-01  8.00000000E-01  1.50000000E+00
  8.00000000E-01  8.00000000E-01  1.50000000E+00  8.00000000E-01  8.00000000E-01
  1.50000000E+00  8.00000000E-01  8.00000000E-01  1.50000000E+00  8.00000000E-01
  8.00000000E-01  1.50000000E+00  8.00000000E-01  8.00000000E-01  1.50000000E+00
  8.00000000E-01  8.00000000E-01  1.50000000E+00  8.00000000E-01  8.00000000E-01
  1.50000000E+00  8.00000000E-01  8.00000000E-01  1.50000000E+00  8.00000000E-01
  8.00000000E-01  1.50000000E+00  8.00000000E-01  8.00000000E-01  1.50000000E+00
  8.00000000E-01  8.00000000E-01  1.50000000E+00  8.00000000E-01  8.00000000E-01
  1.50000000E+00  8.00000000E-01  8.00000000E-01  1.50000000E+00  8.00000000E-01
  8.00000000E-01  1.50000000E+00  8.00000000E-01  8.00000000E-01  1.50000000E+00
  8.00000000E-01  8.00000000E-01  1.50000000E+00  8.00000000E-01  8.00000000E-01
  1.50000000E+00  8.00000000E-01  8.00000000E-01  1.50000000E+00  8.00000000E-01
  8.00000000E-01  1.50000000E+00  8.00000000E-01  8.00000000E-01  1.50000000E+00
  8.00000000E-01  8.00000000E-01  1.50000000E+00  8.00000000E-01  8.00000000E-01
  1.50000000E+00  8.00000000E-01  8.00000000E-01  1.50000000E+00  8.00000000E-01
  8.00000000E-01  1.50000000E+00  8.00000000E-01  8.00000000E-01  1.50000000E+00
  8.00000000E-01  8.00000000E-01  1.50000000E+00  8.00000000E-01  8.00000000E-01
  1.50000000E+00  8.00000000E-01  8.00000000E-01  1.50000000E+00  8.00000000E-01
  8.00000000E-01  1.50000000E+00  8.00000000E-01  8.00000000E-01  1.50000000E+00
  8.00000000E-01  8.00000000E-01  1.50000000E+00  8.00000000E-01  8.00000000E-01
  1.50000000E+00  8.00000000E-01  8.00000000E-01  1.50000000E+00  8.00000000E-01
  8.00000000E-01  1.50000000E+00  8.00000000E-01  8.00000000E-01  1.50000000E+00
  8.00000000E-01  8.00000000E-01  1.50000000E+00  8.00000000E-01  8.00000000E-01
  1.50000000E+00  8.00000000E-01  8.00000000E-01  1.50000000E+00  8.00000000E-01
  8.00000000E-01  1.50000000E+00  8.00000000E-01  8.00000000E-01  1.50000000E+00
  8.00000000E-01  8.00000000E-01  1.50000000E+00  8.00000000E-01  8.00000000E-01
  1.50000000E+00  8.00000000E-01  8.00000000E-01  1.50000000E+00  8.00000000E-01
  8.00000000E-01  1.50000000E+00  8.00000000E-01  8.00000000E-01  1.50000000E+00
  8.00000000E-01  8.00000000E-01  1.50000000E+00  8.00000000E-01  8.00000000E-01
  1.50000000E+00  8.00000000E-01  8.00000000E-01  1.50000000E+00  8.00000000E-01
  8.00000000E-01  1.50000000E+00  8.00000000E-01  8.00000000E-01  1.50000000E+00
  8.00000000E-01  8.00000000E-01  1.50000000E+00  8.00000000E-01  8.00000000E-01
  1.50000000E+00  8.00000000E-01  8.00000000E-01  1.50000000E+00  8.00000000E-01
  8.00000000E-01  1.50000000E+00  8.00000000E-01  8.00000000E-01  1.50000000E+00
  8.00000000E-01  8.00000000E-01  1.50000000E+00  8.00000000E-01  8.00000000E-01
  1.50000000E+00  8.00000000E-01  8.00000000E-01  1.50000000E+00  8.00000000E-01
  8.00000000E-01  1.50000000E+00  8.00000000E-01  8.00000000E-01  1.50000000E+00
  8.00000000E-01  8.00000000E-01  1.50000000E+00  8.00000000E-01  8.00000000E-01
  1.50000000E+00  8.00000000E-01  8.00000000E-01  1.50000000E+00  8.00000000E-01
  8.00000000E-01  1.50000000E+00  8.00000000E-01  8.00000000E-01  1.50000000E+00
  8.00000000E-01  8.00000000E-01  1.50000000E+00  8.00000000E-01  8.00000000E-01
  1.50000000E+00  8.00000000E-01  8.00000000E-01  1.50000000E+00  8.00000000E-01
  8.00000000E-01  1.50000000E+00  8.00000000E-01  8.00000000E-01  1.50000000E+00
  8.00000000E-01  8.00000000E-01  1.50000000E+00  8.00000000E-01  8.00000000E-01
  1.50000000E+00  8.00000000E-01  8.00000000E-01  1.50000000E+00  8.00000000E-01
  8.00000000E-01  1.50000000E+00  8.00000000E-01  8.00000000E-01  1.50000000E+00
  8.00000000E-01  8.00000000E-01  1.50000000E+00  8.00000000E-01  8.00000000E-01
  1.50000000E+00  8.00000000E-01  8.00000000E-01  1.50000000E+00  8.00000000E-01
  8.00000000E-01  1.50000000E+00  8.00000000E-01  8.00000000E-01  1.50000000E+00
  8.00000000E-01  8.00000000E-01  1.50000000E+00  8.00000000E-01  8.00000000E-01
  1.50000000E+00  8.00000000E-01  8.00000000E-01  1.50000000E+00  8.00000000E-01
  8.00000000E-01  1.50000000E+00  8.00000000E-01  8.00000000E-01  1.50000000E+00
  8.00000000E-01  8.00000000E-01  1.50000000E+00  8.00000000E-01  8.00000000E-01
  1.50000000E+00  8.00000000E-01  8.00000000E-01  1.50000000E+00  8.00000000E-01
  8.00000000E-01  1.50000000E+00  8.00000000E-01  8.00000000E-01  1.50000000E+00
  8.00000000E-01  8.00000000E-01  1.50000000E+00  8.00000000E-01  8.00000000E-01
  1.50000000E+00  8.00000000E-01  8.00000000E-01  1.50000000E+00  8.00000000E-01
  8.00000000E-01  1.50000000E+00  8.00000000E-01  8.00000000E-01  1.50000000E+00
  8.00000000E-01  8.00000000E-01  1.50000000E+00  8.00000000E-01  8.00000000E-01
  1.50000000E+00  8.00000000E-01  8.00000000E-01  1.50000000E+00  8.00000000E-01
  8.00000000E-01  1.50000000E+00  8.00000000E-01  8.00000000E-01  1.50000000E+00
  8.00000000E-01  8.00000000E-01  1.50000000E+00  8.00000000E-01  8.00000000E-01
  1.50000000E+00  8.00000000E-01  8.00000000E-01  1.50000000E+00  8.00000000E-01
  8.00000000E-01  1.50000000E+00  8.00000000E-01  8.00000000E-01  1.50000000E+00
  8.00000000E-01  8.00000000E-01  1.50000000E+00  8.00000000E-01  8.00000000E-01
  1.50000000E+00  8.00000000E-01  8.00000000E-01  1.50000000E+00  8.00000000E-01
  8.00000000E-01  1.50000000E+00  8.00000000E-01  8.00000000E-01  1.50000000E+00
  8.00000000E-01  8.00000000E-01  1.50000000E+00  8.00000000E-01  8.00000000E-01
  1.50000000E+00  8.00000000E-01  8.00000000E-01  1.50000000E+00  8.00000000E-01
  8.00000000E-01  1.50000000E+00  8.00000000E-01  8.00000000E-01  1.50000000E+00
  8.00000000E-01  8.00000000E-01  1.50000000E+00  8.00000000E-01  8.00000000E-01
  1.50000000E+00  8.00000000E-01  8.00000000E-01  1.50000000E+00  8.00000000E-01
  8.00000000E-01  1.50000000E+00  8.00000000E-01  8.00000000E-01  1.50000000E+00
  8.00000000E-01  8.00000000E-01  1.50000000E+00  8.00000000E-01  8.00000000E-01
  1.50000000E+00  8.00000000E-01  8.00000000E-01  1.50000000E+00  8.00000000E-01
  8.00000000E-01  1.50000000E+00  8.00000000E-01  8.00000000E-01  1.50000000E+00
  8.00000000E-01  8.00000000E-01  1.50000000E+00  8.00000000E-01  8.00000000E-01
  1.50000000E+00  8.00000000E-01  8.00000000E-01  1.50000000E+00  8.00000000E-01
  8.00000000E-01  1.50000000E+00  8.00000000E-01  8.00000000E-01  1.50000000E+00
  8.00000000E-01  8.00000000E-01  1.50000000E+00  8.00000000E-01  8.00000000E-01
  1.50000000E+00  8.00000000E-01  8.00000000E-01  1.50000000E+00  8.00000000E-01
  8.00000000E-01  1.50000000E+00  8.00000000E-01  8.00000000E-01  1.50000000E+00
  8.00000000E-01  8.00000000E-01  1.50000000E+00  8.00000000E-01  8.00000000E-01
  1.50000000E+00  8.00000000E-01  8.00000000E-01  1.50000000E+00  8.00000000E-01
  8.00000000E-01  1.50000000E+00  8.00000000E-01  8.00000000E-01  1.50000000E+00
  8.00000000E-01  8.00000000E-01  1.50000000E+00  8.00000000E-01  8.00000000E-01
  1.50000000E+00  8.00000000E-01  8.00000000E-01  1.50000000E+00  8.00000000E-01
  8.00000000E-01  1.50000000E+00  8.00000000E-01  8.00000000E-01  1.50000000E+00
  8.00000000E-01  8.00000000E-01  1.50000000E+00  8.00000000E-01  8.00000000E-01
  1.50000000E+00  8.00000000E-01  8.00000000E-01  1.50000000E+00  8.00000000E-01
  8.00000000E-01  1.50000000E+00  8.00000000E-01  8.00000000E-01  1.50000000E+00
  8.00000000E-01  8.00000000E-01  1.50000000E+00  8.00000000E-01  8.00000000E-01
  1.50000000E+00  8.00000000E-01  8.00000000E-01  1.50000000E+00  8.00000000E-01
  8.00000000E-01  1.50000000E+00  8.00000000E-01  8.00000000E-01  1.50000000E+00
  8.00000000E-01  8.00000000E-01  1.50000000E+00  8.00000000E-01  8.00000000E-01
  1.50000000E+00  8.00000000E-01  8.00000000E-01  1.50000000E+00  8.00000000E-01
  8.00000000E-01  1.50000000E+00  8.00000000E-01  8.00000000E-01  1.50000000E+00
  8.00000000E-01  8.00000000E-01  1.50000000E+00  8.00000000E-01  8.00000000E-01
  1.50000000E+00  8.00000000E-01  8.00000000E-01  1.50000000E+00  8.00000000E-01
  8.00000000E-01  1.50000000E+00  8.00000000E-01  8.00000000E-01  1.50000000E+00
  8.00000000E-01  8.00000000E-01  1.50000000E+00  8.00000000E-01  8.00000000E-01
  1.50000000E+00  8.00000000E-01  8.00000000E-01  1.50000000E+00  8.00000000E-01
  8.00000000E-01  1.50000000E+00  8.00000000E-01  8.00000000E-01  1.50000000E+00
  8.00000000E-01  8.00000000E-01  1.50000000E+00  8.00000000E-01  8.00000000E-01
  1.50000000E+00  8.00000000E-01  8.00000000E-01  1.50000000E+00  8.00000000E-01
  8.00000000E-01  1.50000000E+00  8.00000000E-01  8.00000000E-01  1.50000000E+00
  8.00000000E-01  8.00000000E-01  1.50000000E+00  8.00000000E-01  8.00000000E-01
  1.50000000E+00  8.00000000E-01  8.00000000E-01  1.50000000E+00  8.00000000E-01
  8.00000000E-01  1.50000000E+00  8.00000000E-01  8.00000000E-01  1.50000000E+00
  8.00000000E-01  8.00000000E-01  1.50000000E+00  8.00000000E-01  8.00000000E-01
  1.50000000E+00  8.00000000E-01  8.00000000E-01  1.50000000E+00  8.00000000E-01
  8.00000000E-01  1.50000000E+00  8.00000000E-01  8.00000000E-01  1.50000000E+00
  8.00000000E-01  8.00000000E-01  1.50000000E+00  8.00000000E-01  8.00000000E-01
  1.50000000E+00  8.00000000E-01  8.00000000E-01  1.50000000E+00  8.00000000E-01
  8.00000000E-01  1.50000000E+00  8.00000000E-01  8.00000000E-01  1.50000000E+00
  8.00000000E-01  8.00000000E-01  1.50000000E+00  8.00000000E-01  8.00000000E-01
  1.50000000E+00  8.00000000E-01  8.00000000E-01  1.50000000E+00  8.00000000E-01
  8.00000000E-01  1.50000000E+00  8.00000000E-01  8.00000000E-01  1.50000000E+00
  8.00000000E-01  8.00000000E-01  1.50000000E+00  8.00000000E-01  8.00000000E-01
  1.50000000E+00  8.00000000E-01  8.00000000E-01  1.50000000E+00  8.00000000E-01
  8.00000000E-01  1.50000000E+00  8.00000000E-01  8.00000000E-01  1.50000000E+00
  8.00000000E-01  8.00000000E-01  1.50000000E+00  8.00000000E-01  8.00000000E-01
  1.50000000E+00  8.00000000E-01  8.00000000E-01  1.50000000E+00  8.00000000E-01
  8.00000000E-01  1.50000000E+00  8.00000000E-01  8.00000000E-01  1.50000000E+00
  8.00000000E-01  8.00000000E-01  1.50000000E+00  8.00000000E-01  8.00000000E-01
  1.50000000E+00  8.00000000E-01  8.00000000E-01  1.50000000E+00  8.00000000E-01
  8.00000000E-01  1.50000000E+00  8.00000000E-01  8.00000000E-01  1.50000000E+00
  8.00000000E-01  8.00000000E-01  1.50000000E+00  8.00000000E-01  8.00000000E-01
  1.50000000E+00  8.00000000E-01  8.00000000E-01  1.50000000E+00  8.00000000E-01
  8.00000000E-01  1.50000000E+00  8.00000000E-01  8.00000000E-01  1.50000000E+00
  8.00000000E-01  8.00000000E-01  1.50000000E+00  8.00000000E-01  8.00000000E-01
  1.50000000E+00  8.00000000E-01  8.00000000E-01  1.50000000E+00  8.00000000E-01
  8.00000000E-01  1.50000000E+00  8.00000000E-01  8.00000000E-01  1.50000000E+00
  8.00000000E-01  8.00000000E-01  1.50000000E+00  8.00000000E-01  8.00000000E-01
  1.50000000E+00  8.00000000E-01  8.00000000E-01  1.50000000E+00  8.00000000E-01
  8.00000000E-01  1.50000000E+00  8.00000000E-01  8.00000000E-01  1.50000000E+00
  8.00000000E-01  8.00000000E-01  1.50000000E+00  8.00000000E-01  8.00000000E-01
  1.50000000E+00  8.00000000E-01  8.00000000E-01  1.50000000E+00  8.00000000E-01
  8.00000000E-01  1.50000000E+00  8.00000000E-01  8.00000000E-01  1.50000000E+00
  8.00000000E-01  8.00000000E-01  1.50000000E+00  8.00000000E-01  8.00000000E-01
  1.50000000E+00  8.00000000E-01  8.00000000E-01  1.50000000E+00  8.00000000E-01
  8.00000000E-01  1.50000000E+00  8.00000000E-01  8.00000000E-01  1.50000000E+00
  8.00000000E-01  8.00000000E-01  1.50000000E+00  8.00000000E-01  8.00000000E-01
  1.50000000E+00  8.00000000E-01  8.00000000E-01  1.50000000E+00  8.00000000E-01
  8.00000000E-01  1.50000000E+00  8.00000000E-01  8.00000000E-01  1.50000000E+00
  8.00000000E-01  8.00000000E-01  1.50000000E+00  8.00000000E-01  8.00000000E-01
  1.50000000E+00  8.00000000E-01  8.00000000E-01  1.50000000E+00  8.00000000E-01
  8.00000000E-01  1.50000000E+00  8.00000000E-01  8.00000000E-01  1.50000000E+00
  8.00000000E-01  8.00000000E-01  1.50000000E+00  8.00000000E-01  8.00000000E-01
  1.50000000E+00  8.00000000E-01  8.00000000E-01  1.50000000E+00  8.00000000E-01
  8.00000000E-01  1.50000000E+00  8.00000000E-01  8.00000000E-01  1.50000000E+00
  8.00000000E-01  8.00000000E-01  1.50000000E+00  8.00000000E-01  8.00000000E-01
  1.50000000E+00  8.00000000E-01  8.00000000E-01  1.50000000E+00  8.00000000E-01
  8.00000000E-01  1.50000000E+00  8.00000000E-01  8.00000000E-01  1.50000000E+00
  8.00000000E-01  8.00000000E-01  1.50000000E+00  8.00000000E-01  8.00000000E-01
  1.50000000E+00  8.00000000E-01  8.00000000E-01  1.50000000E+00  8.00000000E-01
  8.00000000E-01  1.50000000E+00  8.00000000E-01  8.00000000E-01  1.50000000E+00
  8.00000000E-01  8.00000000E-01  1.50000000E+00  8.00000000E-01  8.00000000E-01
  1.50000000E+00  8.00000000E-01  8.00000000E-01  1.50000000E+00  8.00000000E-01
  8.00000000E-01  1.50000000E+00  8.00000000E-01  8.00000000E-01  1.50000000E+00
  8.00000000E-01  8.00000000E-01  1.50000000E+00  8.00000000E-01  8.00000000E-01
  1.50000000E+00  8.00000000E-01  8.00000000E-01  1.50000000E+00  8.00000000E-01
  8.00000000E-01  1.50000000E+00  8.00000000E-01  8.00000000E-01  1.50000000E+00
  8.00000000E-01  8.00000000E-01  1.50000000E+00  8.00000000E-01  8.00000000E-01
  1.50000000E+00  8.00000000E-01  8.00000000E-01  1.50000000E+00  8.00000000E-01
  8.00000000E-01  1.50000000E+00  8.00000000E-01  8.00000000E-01  1.50000000E+00
  8.00000000E-01  8.00000000E-01  1.50000000E+00  8.00000000E-01  8.00000000E-01
  1.50000000E+00  8.00000000E-01  8.00000000E-01  1.50000000E+00  8.00000000E-01
  8.00000000E-01  1.50000000E+00  8.00000000E-01  8.00000000E-01  1.50000000E+00
  8.00000000E-01  8.00000000E-01  1.50000000E+00  8.00000000E-01  8.00000000E-01
  1.50000000E+00  8.00000000E-01  8.00000000E-01  1.50000000E+00  8.00000000E-01
  8.00000000E-01  1.50000000E+00  8.00000000E-01  8.00000000E-01  1.50000000E+00
  8.00000000E-01  8.00000000E-01  1.50000000E+00  8.00000000E-01  8.00000000E-01
  1.50000000E+00  8.00000000E-01  8.00000000E-01  1.50000000E+00  8.00000000E-01
  8.00000000E-01  1.50000000E+00  8.00000000E-01  8.00000000E-01  1.50000000E+00
  8.00000000E-01  8.00000000E-01  1.50000000E+00  8.00000000E-01  8.00000000E-01
  1.50000000E+00  8.00000000E-01  8.00000000E-01  1.50000000E+00  8.00000000E-01
  8.00000000E-01  1.50000000E+00  8.00000000E-01  8.00000000E-01  1.50000000E+00
  8.00000000E-01  8.00000000E-01  1.50000000E+00  8.00000000E-01  8.00000000E-01
  1.50000000E+00  8.00000000E-01  8.00000000E-01  1.50000000E+00  8.00000000E-01
  8.00000000E-01  1.50000000E+00  8.00000000E-01  8.00000000E-01  1.50000000E+00
  8.00000000E-01  8.00000000E-01  1.50000000E+00  8.00000000E-01  8.00000000E-01
  1.50000000E+00  8.00000000E-01  8.00000000E-01  1.50000000E+00  8.00000000E-01
  8.00000000E-01  1.50000000E+00  8.00000000E-01  8.00000000E-01  1.50000000E+00
  8.00000000E-01  8.00000000E-01  1.50000000E+00  8.00000000E-01  8.00000000E-01
  1.50000000E+00  8.00000000E-01  8.00000000E-01  1.50000000E+00  8.00000000E-01
  8.00000000E-01  1.50000000E+00  8.00000000E-01  8.00000000E-01  1.50000000E+00
  8.00000000E-01  8.00000000E-01  1.50000000E+00  8.00000000E-01  8.00000000E-01
  1.50000000E+00  8.00000000E-01  8.00000000E-01  1.50000000E+00  8.00000000E-01
  8.00000000E-01  1.50000000E+00  8.00000000E-01  8.00000000E-01  1.50000000E+00
  8.00000000E-01  8.00000000E-01  1.50000000E+00  8.00000000E-01  8.00000000E-01
  1.50000000E+00  8.00000000E-01  8.00000000E-01  1.50000000E+00  8.00000000E-01
  8.00000000E-01  1.50000000E+00  8.00000000E-01  8.00000000E-01  1.50000000E+00
  8.00000000E-01  8.00000000E-01  1.50000000E+00  8.00000000E-01  8.00000000E-01
  1.50000000E+00  8.00000000E-01  8.00000000E-01  1.50000000E+00  8.00000000E-01
  8.00000000E-01  1.50000000E+00  8.00000000E-01  8.00000000E-01  1.50000000E+00
  8.00000000E-01  8.00000000E-01  1.50000000E+00  8.00000000E-01  8.00000000E-01
  1.50000000E+00  8.00000000E-01  8.00000000E-01  1.50000000E+00  8.00000000E-01
  8.00000000E-01  1.50000000E+00  8.00000000E-01  8.00000000E-01  1.50000000E+00
  8.00000000E-01  8.00000000E-01  1.50000000E+00  8.00000000E-01  8.00000000E-01
  1.50000000E+00  8.00000000E-01  8.00000000E-01  1.50000000E+00  8.00000000E-01
  8.00000000E-01  1.50000000E+00  8.00000000E-01  8.00000000E-01  1.50000000E+00
  8.00000000E-01  8.00000000E-01  1.50000000E+00  8.00000000E-01  8.00000000E-01
  1.50000000E+00  8.00000000E-01  8.00000000E-01  1.50000000E+00  8.00000000E-01
  8.00000000E-01  1.50000000E+00  8.00000000E-01  8.00000000E-01  1.50000000E+00
  8.00000000E-01  8.00000000E-01  1.50000000E+00  8.00000000E-01  8.00000000E-01
  1.50000000E+00  8.00000000E-01  8.00000000E-01  1.50000000E+00  8.00000000E-01
  8.00000000E-01  1.50000000E+00  8.00000000E-01  8.00000000E-01  1.50000000E+00
  8.00000000E-01  8.00000000E-01  1.50000000E+00  8.00000000E-01  8.00000000E-01
  1.50000000E+00  8.00000000E-01  8.00000000E-01  1.50000000E+00  8.00000000E-01
  8.00000000E-01  1.50000000E+00  8.00000000E-01  8.00000000E-01  1.50000000E+00
  8.00000000E-01  8.00000000E-01  1.50000000E+00  8.00000000E-01  8.00000000E-01
  1.50000000E+00  8.00000000E-01  8.00000000E-01  1.50000000E+00  8.00000000E-01
  8.00000000E-01  1.50000000E+00  8.00000000E-01  8.00000000E-01  1.50000000E+00
  8.00000000E-01  8.00000000E-01  1.50000000E+00  8.00000000E-01  8.00000000E-01
  1.50000000E+00  8.00000000E-01  8.00000000E-01  1.50000000E+00  8.00000000E-01
  8.00000000E-01  1.50000000E+00  8.00000000E-01  8.00000000E-01  1.50000000E+00
  8.00000000E-01  8.00000000E-01  1.50000000E+00  8.00000000E-01  8.00000000E-01
  1.50000000E+00  8.00000000E-01  8.00000000E-01  1.50000000E+00  8.00000000E-01
  8.00000000E-01  1.50000000E+00  8.00000000E-01  8.00000000E-01  1.50000000E+00
  8.00000000E-01  8.00000000E-01  1.50000000E+00  8.00000000E-01  8.00000000E-01
  1.50000000E+00  8.00000000E-01  8.00000000E-01  1.50000000E+00  8.00000000E-01
  8.00000000E-01  1.50000000E+00  8.00000000E-01  8.00000000E-01  1.50000000E+00
  8.00000000E-01  8.00000000E-01  1.50000000E+00  8.00000000E-01  8.00000000E-01
  1.50000000E+00  8.00000000E-01  8.00000000E-01  1.50000000E+00  8.00000000E-01
  8.00000000E-01  1.50000000E+00  8.00000000E-01  8.00000000E-01  1.50000000E+00
  8.00000000E-01  8.00000000E-01  1.50000000E+00  8.00000000E-01  8.00000000E-01
  1.50000000E+00  8.00000000E-01  8.00000000E-01  1.50000000E+00  8.00000000E-01
  8.00000000E-01  1.50000000E+00  8.00000000E-01  8.00000000E-01  1.50000000E+00
  8.00000000E-01  8.00000000E-01  1.50000000E+00  8.00000000E-01  8.00000000E-01
  1.50000000E+00  8.00000000E-01  8.00000000E-01  1.50000000E+00  8.00000000E-01
  8.00000000E-01  1.50000000E+00  8.00000000E-01  8.00000000E-01  1.50000000E+00
  8.00000000E-01  8.00000000E-01  1.50000000E+00  8.00000000E-01  8.00000000E-01
  1.50000000E+00  8.00000000E-01  8.00000000E-01  1.50000000E+00  8.00000000E-01
  8.00000000E-01  1.50000000E+00  8.00000000E-01  8.00000000E-01  1.50000000E+00
  8.00000000E-01  8.00000000E-01  1.50000000E+00  8.00000000E-01  8.00000000E-01
  1.50000000E+00  8.00000000E-01  8.00000000E-01  1.50000000E+00  8.00000000E-01
  8.00000000E-01  1.50000000E+00  8.00000000E-01  8.00000000E-01  1.50000000E+00
  8.00000000E-01  8.00000000E-01  1.50000000E+00  8.00000000E-01  8.00000000E-01
  1.50000000E+00  8.00000000E-01  8.00000000E-01  1.50000000E+00  8.00000000E-01
  8.00000000E-01  1.50000000E+00  8.00000000E-01  8.00000000E-01  1.50000000E+00
  8.00000000E-01  8.00000000E-01  1.50000000E+00  8.00000000E-01  8.00000000E-01
  1.50000000E+00  8.00000000E-01  8.00000000E-01  1.50000000E+00  8.00000000E-01
  8.00000000E-01  1.50000000E+00  8.00000000E-01  8.00000000E-01  1.50000000E+00
  8.00000000E-01  8.00000000E-01  1.50000000E+00  8.00000000E-01  8.00000000E-01
  1.50000000E+00  8.00000000E-01  8.00000000E-01  1.50000000E+00  8.00000000E-01
  8.00000000E-01  1.50000000E+00  8.00000000E-01  8.00000000E-01  1.50000000E+00
  8.00000000E-01  8.00000000E-01  1.50000000E+00  8.00000000E-01  8.00000000E-01
  1.50000000E+00  8.00000000E-01  8.00000000E-01  1.50000000E+00  8.00000000E-01
  8.00000000E-01  1.50000000E+00  8.00000000E-01  8.00000000E-01  1.50000000E+00
  8.00000000E-01  8.00000000E-01  1.50000000E+00  8.00000000E-01  8.00000000E-01
  1.50000000E+00  8.00000000E-01  8.00000000E-01  1.50000000E+00  8.00000000E-01
  8.00000000E-01  1.50000000E+00  8.00000000E-01  8.00000000E-01  1.50000000E+00
  8.00000000E-01  8.00000000E-01  1.50000000E+00  8.00000000E-01  8.00000000E-01
  1.50000000E+00  8.00000000E-01  8.00000000E-01  1.50000000E+00  8.00000000E-01
  8.00000000E-01  1.50000000E+00  8.00000000E-01  8.00000000E-01  1.50000000E+00
  8.00000000E-01  8.00000000E-01  1.50000000E+00  8.00000000E-01  8.00000000E-01
  1.50000000E+00  8.00000000E-01  8.00000000E-01  1.50000000E+00  8.00000000E-01
  8.00000000E-01  1.50000000E+00  8.00000000E-01  8.00000000E-01  1.50000000E+00
  8.00000000E-01  8.00000000E-01  1.50000000E+00  8.00000000E-01  8.00000000E-01
  1.50000000E+00  8.00000000E-01  8.00000000E-01  1.50000000E+00  8.00000000E-01
  8.00000000E-01  1.50000000E+00  8.00000000E-01  8.00000000E-01  1.50000000E+00
  8.00000000E-01  8.00000000E-01  1.50000000E+00  8.00000000E-01  8.00000000E-01
  1.50000000E+00  8.00000000E-01  8.00000000E-01  1.50000000E+00  8.00000000E-01
  8.00000000E-01  1.50000000E+00  8.00000000E-01  8.00000000E-01  1.50000000E+00
  8.00000000E-01  8.00000000E-01  1.50000000E+00  8.00000000E-01  8.00000000E-01
  1.50000000E+00  8.00000000E-01  8.00000000E-01  1.50000000E+00  8.00000000E-01
  8.00000000E-01  1.50000000E+00  8.00000000E-01  8.00000000E-01  1.50000000E+00
  8.00000000E-01  8.00000000E-01  1.50000000E+00  8.00000000E-01  8.00000000E-01
  1.50000000E+00  8.00000000E-01  8.00000000E-01  1.50000000E+00  8.00000000E-01
  8.00000000E-01  1.50000000E+00  8.00000000E-01  8.00000000E-01  1.50000000E+00
  8.00000000E-01  8.00000000E-01  1.50000000E+00  8.00000000E-01  8.00000000E-01
  1.50000000E+00  8.00000000E-01  8.00000000E-01  1.50000000E+00  8.00000000E-01
  8.00000000E-01  1.50000000E+00  8.00000000E-01  8.00000000E-01  1.50000000E+00
  8.00000000E-01  8.00000000E-01  1.50000000E+00  8.00000000E-01  8.00000000E-01
  1.50000000E+00  8.00000000E-01  8.00000000E-01  1.50000000E+00  8.00000000E-01
  8.00000000E-01  1.50000000E+00  8.00000000E-01  8.00000000E-01  1.50000000E+00
  8.00000000E-01  8.00000000E-01  1.50000000E+00  8.00000000E-01  8.00000000E-01
  1.50000000E+00  8.00000000E-01  8.00000000E-01  1.50000000E+00  8.00000000E-01
  8.00000000E-01  1.50000000E+00  8.00000000E-01  8.00000000E-01  1.50000000E+00
  8.00000000E-01  8.00000000E-01  1.50000000E+00  8.00000000E-01  8.00000000E-01
  1.50000000E+00  8.00000000E-01  8.00000000E-01  1.50000000E+00  8.00000000E-01
  8.00000000E-01  1.50000000E+00  8.00000000E-01  8.00000000E-01  1.50000000E+00
  8.00000000E-01  8.00000000E-01  1.50000000E+00  8.00000000E-01  8.00000000E-01
  1.50000000E+00  8.00000000E-01  8.00000000E-01  1.50000000E+00  8.00000000E-01
  8.00000000E-01  1.50000000E+00  8.00000000E-01  8.00000000E-01  1.50000000E+00
  8.00000000E-01  8.00000000E-01  1.50000000E+00  8.00000000E-01  8.00000000E-01
  1.50000000E+00  8.00000000E-01  8.00000000E-01  1.50000000E+00  8.00000000E-01
  8.00000000E-01  1.50000000E+00  8.00000000E-01  8.00000000E-01  1.50000000E+00
  8.00000000E-01  8.00000000E-01  1.50000000E+00  8.00000000E-01  8.00000000E-01
  1.50000000E+00  8.00000000E-01  8.00000000E-01  1.50000000E+00  8.00000000E-01
  8.00000000E-01  1.50000000E+00  8.00000000E-01  8.00000000E-01  1.50000000E+00
  8.00000000E-01  8.00000000E-01  1.50000000E+00  8.00000000E-01  8.00000000E-01
  1.50000000E+00  8.00000000E-01  8.00000000E-01  1.50000000E+00  8.00000000E-01
  8.00000000E-01  1.50000000E+00  8.00000000E-01  8.00000000E-01  1.50000000E+00
  8.00000000E-01  8.00000000E-01  1.50000000E+00  8.00000000E-01  8.00000000E-01
  1.50000000E+00  8.00000000E-01  8.00000000E-01  1.50000000E+00  8.00000000E-01
  8.00000000E-01  1.50000000E+00  8.00000000E-01  8.00000000E-01  1.50000000E+00
  8.00000000E-01  8.00000000E-01  1.50000000E+00  8.00000000E-01  8.00000000E-01
  1.50000000E+00  8.00000000E-01  8.00000000E-01  1.50000000E+00  8.00000000E-01
  8.00000000E-01  1.50000000E+00  8.00000000E-01  8.00000000E-01  1.50000000E+00
  8.00000000E-01  8.00000000E-01  1.50000000E+00  8.00000000E-01  8.00000000E-01
  1.50000000E+00  8.00000000E-01  8.00000000E-01  1.50000000E+00  8.00000000E-01
  8.00000000E-01  1.50000000E+00  8.00000000E-01  8.00000000E-01  1.50000000E+00
  8.00000000E-01  8.00000000E-01  1.50000000E+00  8.00000000E-01  8.00000000E-01
  1.50000000E+00  8.00000000E-01  8.00000000E-01  1.50000000E+00  8.00000000E-01
  8.00000000E-01  1.50000000E+00  8.00000000E-01  8.00000000E-01  1.50000000E+00
  8.00000000E-01  8.00000000E-01  1.50000000E+00  8.00000000E-01  8.00000000E-01
  1.50000000E+00  8.00000000E-01  8.00000000E-01  1.50000000E+00  8.00000000E-01
  8.00000000E-01  1.50000000E+00  8.00000000E-01  8.00000000E-01  1.50000000E+00
  8.00000000E-01  8.00000000E-01  1.50000000E+00  8.00000000E-01  8.00000000E-01
  1.50000000E+00  8.00000000E-01  8.00000000E-01  1.50000000E+00  8.00000000E-01
  8.00000000E-01  1.50000000E+00  8.00000000E-01  8.00000000E-01  1.50000000E+00
  8.00000000E-01  8.00000000E-01  1.50000000E+00  8.00000000E-01  8.00000000E-01
  1.50000000E+00  8.00000000E-01  8.00000000E-01  1.50000000E+00  8.00000000E-01
  8.00000000E-01  1.50000000E+00  8.00000000E-01  8.00000000E-01  1.50000000E+00
  8.00000000E-01  8.00000000E-01  1.50000000E+00  8.00000000E-01  8.00000000E-01
  1.50000000E+00  8.00000000E-01  8.00000000E-01  1.50000000E+00  8.00000000E-01
  8.00000000E-01  1.50000000E+00  8.00000000E-01  8.00000000E-01  1.50000000E+00
  8.00000000E-01  8.00000000E-01  1.50000000E+00  8.00000000E-01  8.00000000E-01
  1.50000000E+00  8.00000000E-01  8.00000000E-01  1.50000000E+00  8.00000000E-01
  8.00000000E-01  1.50000000E+00  8.00000000E-01  8.00000000E-01  1.50000000E+00
  8.00000000E-01  8.00000000E-01  1.50000000E+00  8.00000000E-01  8.00000000E-01
  1.50000000E+00  8.00000000E-01  8.00000000E-01  1.50000000E+00  8.00000000E-01
  8.00000000E-01  1.50000000E+00  8.00000000E-01  8.00000000E-01  1.50000000E+00
  8.00000000E-01  8.00000000E-01  1.50000000E+00  8.00000000E-01  8.00000000E-01
  1.50000000E+00  8.00000000E-01  8.00000000E-01  1.50000000E+00  8.00000000E-01
  8.00000000E-01  1.50000000E+00  8.00000000E-01  8.00000000E-01  1.50000000E+00
  8.00000000E-01  8.00000000E-01  1.50000000E+00  8.00000000E-01  8.00000000E-01
  1.50000000E+00  8.00000000E-01  8.00000000E-01  1.50000000E+00  8.00000000E-01
  8.00000000E-01  1.50000000E+00  8.00000000E-01  8.00000000E-01  1.50000000E+00
  8.00000000E-01  8.00000000E-01  1.50000000E+00  8.00000000E-01  8.00000000E-01
  1.50000000E+00  8.00000000E-01  8.00000000E-01  1.50000000E+00  8.00000000E-01
  8.00000000E-01  1.50000000E+00  8.00000000E-01  8.00000000E-01  1.50000000E+00
  8.00000000E-01  8.00000000E-01  1.50000000E+00  8.00000000E-01  8.00000000E-01
  1.50000000E+00  8.00000000E-01  8.00000000E-01  1.50000000E+00  8.00000000E-01
  8.00000000E-01  1.50000000E+00  8.00000000E-01  8.00000000E-01  1.50000000E+00
  8.00000000E-01  8.00000000E-01  1.50000000E+00  8.00000000E-01  8.00000000E-01
  1.50000000E+00  8.00000000E-01  8.00000000E-01  1.50000000E+00  8.00000000E-01
  8.00000000E-01  1.50000000E+00  8.00000000E-01  8.00000000E-01  1.50000000E+00
  8.00000000E-01  8.00000000E-01  1.50000000E+00  8.00000000E-01  8.00000000E-01
  1.50000000E+00  8.00000000E-01  8.00000000E-01  1.50000000E+00  8.00000000E-01
  8.00000000E-01  1.50000000E+00  8.00000000E-01  8.00000000E-01  1.50000000E+00
  8.00000000E-01  8.00000000E-01  1.50000000E+00  8.00000000E-01  8.00000000E-01
  1.50000000E+00  8.00000000E-01  8.00000000E-01  1.50000000E+00  8.00000000E-01
  8.00000000E-01  1.50000000E+00  8.00000000E-01  8.00000000E-01  1.50000000E+00
  8.00000000E-01  8.00000000E-01  1.50000000E+00  8.00000000E-01  8.00000000E-01
  1.50000000E+00  8.00000000E-01  8.00000000E-01  1.50000000E+00  8.00000000E-01
  8.00000000E-01  1.50000000E+00  8.00000000E-01  8.00000000E-01  1.50000000E+00
  8.00000000E-01  8.00000000E-01  1.50000000E+00  8.00000000E-01  8.00000000E-01
  1.50000000E+00  8.00000000E-01  8.00000000E-01  1.50000000E+00  8.00000000E-01
  8.00000000E-01  1.50000000E+00  8.00000000E-01  8.00000000E-01  1.50000000E+00
  8.00000000E-01  8.00000000E-01  1.50000000E+00  8.00000000E-01  8.00000000E-01
  1.50000000E+00  8.00000000E-01  8.00000000E-01  1.50000000E+00  8.00000000E-01
  8.00000000E-01  1.50000000E+00  8.00000000E-01  8.00000000E-01  1.50000000E+00
  8.00000000E-01  8.00000000E-01  1.50000000E+00  8.00000000E-01  8.00000000E-01
  1.50000000E+00  8.00000000E-01  8.00000000E-01  1.50000000E+00  8.00000000E-01
  8.00000000E-01  1.50000000E+00  8.00000000E-01  8.00000000E-01  1.50000000E+00
  8.00000000E-01  8.00000000E-01  1.50000000E+00  8.00000000E-01  8.00000000E-01
  1.50000000E+00  8.00000000E-01  8.00000000E-01  1.50000000E+00  8.00000000E-01
  8.00000000E-01  1.50000000E+00  8.00000000E-01  8.00000000E-01  1.50000000E+00
  8.00000000E-01  8.00000000E-01  1.50000000E+00  8.00000000E-01  8.00000000E-01
  1.50000000E+00  8.00000000E-01  8.00000000E-01  1.50000000E+00  8.00000000E-01
  8.00000000E-01  1.50000000E+00  8.00000000E-01  8.00000000E-01  1.50000000E+00
  8.00000000E-01  8.00000000E-01  1.50000000E+00  8.00000000E-01  8.00000000E-01
  1.50000000E+00  8.00000000E-01  8.00000000E-01  1.50000000E+00  8.00000000E-01
  8.00000000E-01  1.50000000E+00  8.00000000E-01  8.00000000E-01  1.50000000E+00
  8.00000000E-01  8.00000000E-01  1.50000000E+00  8.00000000E-01  8.00000000E-01
  1.50000000E+00  8.00000000E-01  8.00000000E-01  1.50000000E+00  8.00000000E-01
  8.00000000E-01  1.50000000E+00  8.00000000E-01  8.00000000E-01  1.50000000E+00
  8.00000000E-01  8.00000000E-01  1.50000000E+00  8.00000000E-01  8.00000000E-01
  1.50000000E+00  8.00000000E-01  8.00000000E-01  1.50000000E+00  8.00000000E-01
  8.00000000E-01  1.50000000E+00  8.00000000E-01  8.00000000E-01  1.50000000E+00
  8.00000000E-01  8.00000000E-01  1.50000000E+00  8.00000000E-01  8.00000000E-01
  1.50000000E+00  8.00000000E-01  8.00000000E-01  1.50000000E+00  8.00000000E-01
  8.00000000E-01  1.50000000E+00  8.00000000E-01  8.00000000E-01  1.50000000E+00
  8.00000000E-01  8.00000000E-01  1.50000000E+00  8.00000000E-01  8.00000000E-01
  1.50000000E+00  8.00000000E-01  8.00000000E-01  1.50000000E+00  8.00000000E-01
  8.00000000E-01  1.50000000E+00  8.00000000E-01  8.00000000E-01  1.50000000E+00
  8.00000000E-01  8.00000000E-01  1.50000000E+00  8.00000000E-01  8.00000000E-01
  1.50000000E+00  8.00000000E-01  8.00000000E-01  1.50000000E+00  8.00000000E-01
  8.00000000E-01  1.50000000E+00  8.00000000E-01  8.00000000E-01  1.50000000E+00
  8.00000000E-01  8.00000000E-01  1.50000000E+00  8.00000000E-01  8.00000000E-01
  1.50000000E+00  8.00000000E-01  8.00000000E-01  1.50000000E+00  8.00000000E-01
  8.00000000E-01  1.50000000E+00  8.00000000E-01  8.00000000E-01  1.50000000E+00
  8.00000000E-01  8.00000000E-01  1.50000000E+00  8.00000000E-01  8.00000000E-01
  1.50000000E+00  8.00000000E-01  8.00000000E-01  1.50000000E+00  8.00000000E-01
  8.00000000E-01  1.50000000E+00  8.00000000E-01  8.00000000E-01  1.50000000E+00
  8.00000000E-01  8.00000000E-01  1.50000000E+00  8.00000000E-01  8.00000000E-01
  1.50000000E+00  8.00000000E-01  8.00000000E-01  1.50000000E+00  8.00000000E-01
  8.00000000E-01  1.50000000E+00  8.00000000E-01  8.00000000E-01  1.50000000E+00
  8.00000000E-01  8.00000000E-01  1.50000000E+00  8.00000000E-01  8.00000000E-01
  1.50000000E+00  8.00000000E-01  8.00000000E-01  1.50000000E+00  8.00000000E-01
  8.00000000E-01  1.50000000E+00  8.00000000E-01  8.00000000E-01  1.50000000E+00
  8.00000000E-01  8.00000000E-01  1.50000000E+00  8.00000000E-01  8.00000000E-01
  1.50000000E+00  8.00000000E-01  8.00000000E-01  1.50000000E+00  8.00000000E-01
  8.00000000E-01  1.50000000E+00  8.00000000E-01  8.00000000E-01  1.50000000E+00
  8.00000000E-01  8.00000000E-01  1.50000000E+00  8.00000000E-01  8.00000000E-01
  1.50000000E+00  8.00000000E-01  8.00000000E-01  1.50000000E+00  8.00000000E-01
  8.00000000E-01  1.50000000E+00  8.00000000E-01  8.00000000E-01  1.50000000E+00
  8.00000000E-01  8.00000000E-01  1.50000000E+00  8.00000000E-01  8.00000000E-01
  1.50000000E+00  8.00000000E-01  8.00000000E-01  1.50000000E+00  8.00000000E-01
  8.00000000E-01  1.50000000E+00  8.00000000E-01  8.00000000E-01  1.50000000E+00
  8.00000000E-01  8.00000000E-01  1.50000000E+00  8.00000000E-01  8.00000000E-01
  1.50000000E+00  8.00000000E-01  8.00000000E-01  1.50000000E+00  8.00000000E-01
  8.00000000E-01  1.50000000E+00  8.00000000E-01  8.00000000E-01  1.50000000E+00
  8.00000000E-01  8.00000000E-01  1.50000000E+00  8.00000000E-01  8.00000000E-01
  1.50000000E+00  8.00000000E-01  8.00000000E-01  1.50000000E+00  8.00000000E-01
  8.00000000E-01  1.50000000E+00  8.00000000E-01  8.00000000E-01  1.50000000E+00
  8.00000000E-01  8.00000000E-01  1.50000000E+00  8.00000000E-01  8.00000000E-01
  1.50000000E+00  8.00000000E-01  8.00000000E-01  1.50000000E+00  8.00000000E-01
  8.00000000E-01  1.50000000E+00  8.00000000E-01  8.00000000E-01  1.50000000E+00
  8.00000000E-01  8.00000000E-01  1.50000000E+00  8.00000000E-01  8.00000000E-01
  1.50000000E+00  8.00000000E-01  8.00000000E-01  1.50000000E+00  8.00000000E-01
  8.00000000E-01  1.50000000E+00  8.00000000E-01  8.00000000E-01  1.50000000E+00
  8.00000000E-01  8.00000000E-01  1.50000000E+00  8.00000000E-01  8.00000000E-01
  1.50000000E+00  8.00000000E-01  8.00000000E-01  1.50000000E+00  8.00000000E-01
  8.00000000E-01  1.50000000E+00  8.00000000E-01  8.00000000E-01  1.50000000E+00
  8.00000000E-01  8.00000000E-01  1.50000000E+00  8.00000000E-01  8.00000000E-01
  1.50000000E+00  8.00000000E-01  8.00000000E-01  1.50000000E+00  8.00000000E-01
  8.00000000E-01  1.50000000E+00  8.00000000E-01  8.00000000E-01  1.50000000E+00
  8.00000000E-01  8.00000000E-01  1.50000000E+00  8.00000000E-01  8.00000000E-01
  1.50000000E+00  8.00000000E-01  8.00000000E-01  1.50000000E+00  8.00000000E-01
  8.00000000E-01  1.50000000E+00  8.00000000E-01  8.00000000E-01  1.50000000E+00
  8.00000000E-01  8.00000000E-01  1.50000000E+00  8.00000000E-01  8.00000000E-01
  1.50000000E+00  8.00000000E-01  8.00000000E-01  1.50000000E+00  8.00000000E-01
  8.00000000E-01  1.50000000E+00  8.00000000E-01  8.00000000E-01  1.50000000E+00
  8.00000000E-01  8.00000000E-01  1.50000000E+00  8.00000000E-01  8.00000000E-01
  1.50000000E+00  8.00000000E-01  8.00000000E-01  1.50000000E+00  8.00000000E-01
  8.00000000E-01  1.50000000E+00  8.00000000E-01  8.00000000E-01  1.50000000E+00
  8.00000000E-01  8.00000000E-01  1.50000000E+00  8.00000000E-01  8.00000000E-01
  1.50000000E+00  8.00000000E-01  8.00000000E-01  1.50000000E+00  8.00000000E-01
  8.00000000E-01  1.50000000E+00  8.00000000E-01  8.00000000E-01  1.50000000E+00
  8.00000000E-01  8.00000000E-01  1.50000000E+00  8.00000000E-01  8.00000000E-01
  1.50000000E+00  8.00000000E-01  8.00000000E-01  1.50000000E+00  8.00000000E-01
  8.00000000E-01  1.50000000E+00  8.00000000E-01  8.00000000E-01  1.50000000E+00
  8.00000000E-01  8.00000000E-01  1.50000000E+00  8.00000000E-01  8.00000000E-01
  1.50000000E+00  8.00000000E-01  8.00000000E-01  1.50000000E+00  8.00000000E-01
  8.00000000E-01  1.50000000E+00  8.00000000E-01  8.00000000E-01  1.50000000E+00
  8.00000000E-01  8.00000000E-01  1.50000000E+00  8.00000000E-01  8.00000000E-01
  1.50000000E+00  8.00000000E-01  8.00000000E-01  1.50000000E+00  8.00000000E-01
  8.00000000E-01  1.50000000E+00  8.00000000E-01  8.00000000E-01  1.50000000E+00
  8.00000000E-01  8.00000000E-01  1.50000000E+00  8.00000000E-01  8.00000000E-01
  1.50000000E+00  8.00000000E-01  8.00000000E-01  1.50000000E+00  8.00000000E-01
  8.00000000E-01  1.50000000E+00  8.00000000E-01  8.00000000E-01  1.50000000E+00
  8.00000000E-01  8.00000000E-01  1.50000000E+00  8.00000000E-01  8.00000000E-01
  1.50000000E+00  8.00000000E-01  8.00000000E-01  1.50000000E+00  8.00000000E-01
  8.00000000E-01  1.50000000E+00  8.00000000E-01  8.00000000E-01  1.50000000E+00
  8.00000000E-01  8.00000000E-01  1.50000000E+00  8.00000000E-01  8.00000000E-01
  1.50000000E+00  8.00000000E-01  8.00000000E-01  1.50000000E+00  8.00000000E-01
  8.00000000E-01  1.50000000E+00  8.00000000E-01  8.00000000E-01  1.50000000E+00
  8.00000000E-01  8.00000000E-01  1.50000000E+00  8.00000000E-01  8.00000000E-01
  1.50000000E+00  8.00000000E-01  8.00000000E-01  1.50000000E+00  8.00000000E-01
  8.00000000E-01  1.50000000E+00  8.00000000E-01  8.00000000E-01  1.50000000E+00
  8.00000000E-01  8.00000000E-01  1.50000000E+00  8.00000000E-01  8.00000000E-01
  1.50000000E+00  8.00000000E-01  8.00000000E-01  1.50000000E+00  8.00000000E-01
  8.00000000E-01  1.50000000E+00  8.00000000E-01  8.00000000E-01  1.50000000E+00
  8.00000000E-01  8.00000000E-01  1.50000000E+00  8.00000000E-01  8.00000000E-01
  1.50000000E+00  8.00000000E-01  8.00000000E-01  1.50000000E+00  8.00000000E-01
  8.00000000E-01  1.50000000E+00  8.00000000E-01  8.00000000E-01  1.50000000E+00
  8.00000000E-01  8.00000000E-01  1.50000000E+00  8.00000000E-01  8.00000000E-01
  1.50000000E+00  8.00000000E-01  8.00000000E-01  1.50000000E+00  8.00000000E-01
  8.00000000E-01  1.50000000E+00  8.00000000E-01  8.00000000E-01  1.50000000E+00
  8.00000000E-01  8.00000000E-01  1.50000000E+00  8.00000000E-01  8.00000000E-01
  1.50000000E+00  8.00000000E-01  8.00000000E-01  1.50000000E+00  8.00000000E-01
  8.00000000E-01  1.50000000E+00  8.00000000E-01  8.00000000E-01  1.50000000E+00
  8.00000000E-01  8.00000000E-01  1.50000000E+00  8.00000000E-01  8.00000000E-01
  1.50000000E+00  8.00000000E-01  8.00000000E-01  1.50000000E+00  8.00000000E-01
  8.00000000E-01  1.50000000E+00  8.00000000E-01  8.00000000E-01  1.50000000E+00
  8.00000000E-01  8.00000000E-01  1.50000000E+00  8.00000000E-01  8.00000000E-01
  1.50000000E+00  8.00000000E-01  8.00000000E-01  1.50000000E+00  8.00000000E-01
  8.00000000E-01  1.50000000E+00  8.00000000E-01  8.00000000E-01  1.50000000E+00
  8.00000000E-01  8.00000000E-01  1.50000000E+00  8.00000000E-01  8.00000000E-01
  1.50000000E+00  8.00000000E-01  8.00000000E-01  1.50000000E+00  8.00000000E-01
  8.00000000E-01  1.50000000E+00  8.00000000E-01  8.00000000E-01  1.50000000E+00
  8.00000000E-01  8.00000000E-01  1.50000000E+00  8.00000000E-01  8.00000000E-01
  1.50000000E+00  8.00000000E-01  8.00000000E-01  1.50000000E+00  8.00000000E-01
  8.00000000E-01  1.50000000E+00  8.00000000E-01  8.00000000E-01  1.50000000E+00
  8.00000000E-01  8.00000000E-01  1.50000000E+00  8.00000000E-01  8.00000000E-01
  1.50000000E+00  8.00000000E-01  8.00000000E-01  1.50000000E+00  8.00000000E-01
  8.00000000E-01  1.50000000E+00  8.00000000E-01  8.00000000E-01  1.50000000E+00
  8.00000000E-01  8.00000000E-01  1.50000000E+00  8.00000000E-01  8.00000000E-01
  1.50000000E+00  8.00000000E-01  8.00000000E-01  1.50000000E+00  8.00000000E-01
  8.00000000E-01  1.50000000E+00  8.00000000E-01  8.00000000E-01  1.50000000E+00
  8.00000000E-01  8.00000000E-01  1.50000000E+00  8.00000000E-01  8.00000000E-01
  1.50000000E+00  8.00000000E-01  8.00000000E-01  1.50000000E+00  8.00000000E-01
  8.00000000E-01  1.50000000E+00  8.00000000E-01  8.00000000E-01  1.50000000E+00
  8.00000000E-01  8.00000000E-01  1.50000000E+00  8.00000000E-01  8.00000000E-01
  1.50000000E+00  8.00000000E-01  8.00000000E-01  1.50000000E+00  8.00000000E-01
  8.00000000E-01  1.50000000E+00  8.00000000E-01  8.00000000E-01  1.50000000E+00
  8.00000000E-01  8.00000000E-01  1.50000000E+00  8.00000000E-01  8.00000000E-01
  1.50000000E+00  8.00000000E-01  8.00000000E-01  1.50000000E+00  8.00000000E-01
  8.00000000E-01  1.50000000E+00  8.00000000E-01  8.00000000E-01  1.50000000E+00
  8.00000000E-01  8.00000000E-01  1.50000000E+00  8.00000000E-01  8.00000000E-01
  1.50000000E+00  8.00000000E-01  8.00000000E-01  1.50000000E+00  8.00000000E-01
  8.00000000E-01  1.50000000E+00  8.00000000E-01  8.00000000E-01  1.50000000E+00
  8.00000000E-01  8.00000000E-01  1.50000000E+00  8.00000000E-01  8.00000000E-01
  1.50000000E+00  8.00000000E-01  8.00000000E-01  1.50000000E+00  8.00000000E-01
  8.00000000E-01  1.50000000E+00  8.00000000E-01  8.00000000E-01  1.50000000E+00
  8.00000000E-01  8.00000000E-01  1.50000000E+00  8.00000000E-01  8.00000000E-01
  1.50000000E+00  8.00000000E-01  8.00000000E-01  1.50000000E+00  8.00000000E-01
  8.00000000E-01  1.50000000E+00  8.00000000E-01  8.00000000E-01  1.50000000E+00
  8.00000000E-01  8.00000000E-01  1.50000000E+00  8.00000000E-01  8.00000000E-01
  1.50000000E+00  8.00000000E-01  8.00000000E-01  1.50000000E+00  8.00000000E-01
  8.00000000E-01  1.50000000E+00  8.00000000E-01  8.00000000E-01  1.50000000E+00
  8.00000000E-01  8.00000000E-01  1.50000000E+00  8.00000000E-01  8.00000000E-01
  1.50000000E+00  8.00000000E-01  8.00000000E-01  1.50000000E+00  8.00000000E-01
  8.00000000E-01  1.50000000E+00  8.00000000E-01  8.00000000E-01  1.50000000E+00
  8.00000000E-01  8.00000000E-01  1.50000000E+00  8.00000000E-01  8.00000000E-01
  1.50000000E+00  8.00000000E-01  8.00000000E-01  1.50000000E+00  8.00000000E-01
  8.00000000E-01  1.50000000E+00  8.00000000E-01  8.00000000E-01  1.50000000E+00
  8.00000000E-01  8.00000000E-01  1.50000000E+00  8.00000000E-01  8.00000000E-01
  1.50000000E+00  8.00000000E-01  8.00000000E-01  1.50000000E+00  8.00000000E-01
  8.00000000E-01  1.50000000E+00  8.00000000E-01  8.00000000E-01  1.50000000E+00
  8.00000000E-01  8.00000000E-01  1.50000000E+00  8.00000000E-01  8.00000000E-01
  1.50000000E+00  8.00000000E-01  8.00000000E-01  1.50000000E+00  8.00000000E-01
  8.00000000E-01  1.50000000E+00  8.00000000E-01  8.00000000E-01  1.50000000E+00
  8.00000000E-01  8.00000000E-01  1.50000000E+00  8.00000000E-01  8.00000000E-01
  1.50000000E+00  8.00000000E-01  8.00000000E-01  1.50000000E+00  8.00000000E-01
  8.00000000E-01  1.50000000E+00  8.00000000E-01  8.00000000E-01  1.50000000E+00
  8.00000000E-01  8.00000000E-01  1.50000000E+00  8.00000000E-01  8.00000000E-01
  1.50000000E+00  8.00000000E-01  8.00000000E-01  1.50000000E+00  8.00000000E-01
  8.00000000E-01  1.50000000E+00  8.00000000E-01  8.00000000E-01  1.50000000E+00
  8.00000000E-01  8.00000000E-01  1.50000000E+00  8.00000000E-01  8.00000000E-01
  1.50000000E+00  8.00000000E-01  8.00000000E-01  1.50000000E+00  8.00000000E-01
  8.00000000E-01  1.50000000E+00  8.00000000E-01  8.00000000E-01  1.50000000E+00
  8.00000000E-01  8.00000000E-01  1.50000000E+00  8.00000000E-01  8.00000000E-01
  1.50000000E+00  8.00000000E-01  8.00000000E-01  1.50000000E+00  8.00000000E-01
  8.00000000E-01  1.50000000E+00  8.00000000E-01  8.00000000E-01  1.50000000E+00
  8.00000000E-01  8.00000000E-01  1.50000000E+00  8.00000000E-01  8.00000000E-01
  1.50000000E+00  8.00000000E-01  8.00000000E-01  1.50000000E+00  8.00000000E-01
  8.00000000E-01  1.50000000E+00  8.00000000E-01  8.00000000E-01  1.50000000E+00
  8.00000000E-01  8.00000000E-01  1.50000000E+00  8.00000000E-01  8.00000000E-01
  1.50000000E+00  8.00000000E-01  8.00000000E-01  1.50000000E+00  8.00000000E-01
  8.00000000E-01  1.50000000E+00  8.00000000E-01  8.00000000E-01  1.50000000E+00
  8.00000000E-01  8.00000000E-01  1.50000000E+00  8.00000000E-01  8.00000000E-01
  1.50000000E+00  8.00000000E-01  8.00000000E-01  1.50000000E+00  8.00000000E-01
  8.00000000E-01  1.50000000E+00  8.00000000E-01  8.00000000E-01  1.50000000E+00
  8.00000000E-01  8.00000000E-01  1.50000000E+00  8.00000000E-01  8.00000000E-01
  1.50000000E+00  8.00000000E-01  8.00000000E-01  1.50000000E+00  8.00000000E-01
  8.00000000E-01  1.50000000E+00  8.00000000E-01  8.00000000E-01  1.50000000E+00
  8.00000000E-01  8.00000000E-01  1.50000000E+00  8.00000000E-01  8.00000000E-01
  1.50000000E+00  8.00000000E-01  8.00000000E-01  1.50000000E+00  8.00000000E-01
  8.00000000E-01  1.50000000E+00  8.00000000E-01  8.00000000E-01  1.50000000E+00
  8.00000000E-01  8.00000000E-01  1.50000000E+00  8.00000000E-01  8.00000000E-01
  1.50000000E+00  8.00000000E-01  8.00000000E-01  1.50000000E+00  8.00000000E-01
  8.00000000E-01  1.50000000E+00  8.00000000E-01  8.00000000E-01  1.50000000E+00
  8.00000000E-01  8.00000000E-01  1.50000000E+00  8.00000000E-01  8.00000000E-01
  1.50000000E+00  8.00000000E-01  8.00000000E-01  1.50000000E+00  8.00000000E-01
  8.00000000E-01  1.50000000E+00  8.00000000E-01  8.00000000E-01  1.50000000E+00
  8.00000000E-01  8.00000000E-01  1.50000000E+00  8.00000000E-01  8.00000000E-01
  1.50000000E+00  8.00000000E-01  8.00000000E-01  1.50000000E+00  8.00000000E-01
  8.00000000E-01  1.50000000E+00  8.00000000E-01  8.00000000E-01  1.50000000E+00
  8.00000000E-01  8.00000000E-01  1.50000000E+00  8.00000000E-01  8.00000000E-01
  1.50000000E+00  8.00000000E-01  8.00000000E-01  1.50000000E+00  8.00000000E-01
  8.00000000E-01  1.50000000E+00  8.00000000E-01  8.00000000E-01  1.50000000E+00
  8.00000000E-01  8.00000000E-01  1.50000000E+00  8.00000000E-01  8.00000000E-01
  1.50000000E+00  8.00000000E-01  8.00000000E-01  1.50000000E+00  8.00000000E-01
  8.00000000E-01  1.50000000E+00  8.00000000E-01  8.00000000E-01  1.50000000E+00
  8.00000000E-01  8.00000000E-01  1.50000000E+00  8.00000000E-01  8.00000000E-01
  1.50000000E+00  8.00000000E-01  8.00000000E-01  1.50000000E+00  8.00000000E-01
  8.00000000E-01  1.50000000E+00  8.00000000E-01  8.00000000E-01  1.50000000E+00
  8.00000000E-01  8.00000000E-01  1.50000000E+00  8.00000000E-01  8.00000000E-01
  1.50000000E+00  8.00000000E-01  8.00000000E-01  1.50000000E+00  8.00000000E-01
  8.00000000E-01  1.50000000E+00  8.00000000E-01  8.00000000E-01  1.50000000E+00
  8.00000000E-01  8.00000000E-01  1.50000000E+00  8.00000000E-01  8.00000000E-01
  1.50000000E+00  8.00000000E-01  8.00000000E-01  1.50000000E+00  8.00000000E-01
  8.00000000E-01  1.50000000E+00  8.00000000E-01  8.00000000E-01  1.50000000E+00
  8.00000000E-01  8.00000000E-01  1.50000000E+00  8.00000000E-01  8.00000000E-01
  1.50000000E+00  8.00000000E-01  8.00000000E-01  1.50000000E+00  8.00000000E-01
  8.00000000E-01  1.50000000E+00  8.00000000E-01  8.00000000E-01  1.50000000E+00
  8.00000000E-01  8.00000000E-01  1.50000000E+00  8.00000000E-01  8.00000000E-01
  1.50000000E+00  8.00000000E-01  8.00000000E-01  1.50000000E+00  8.00000000E-01
  8.00000000E-01  1.50000000E+00  8.00000000E-01  8.00000000E-01  1.50000000E+00
  8.00000000E-01  8.00000000E-01  1.50000000E+00  8.00000000E-01  8.00000000E-01
  1.50000000E+00  8.00000000E-01  8.00000000E-01  1.50000000E+00  8.00000000E-01
  8.00000000E-01  1.50000000E+00  8.00000000E-01  8.00000000E-01  1.50000000E+00
  8.00000000E-01  8.00000000E-01  1.50000000E+00  8.00000000E-01  8.00000000E-01
  1.50000000E+00  8.00000000E-01  8.00000000E-01  1.50000000E+00  8.00000000E-01
  8.00000000E-01  1.50000000E+00  8.00000000E-01  8.00000000E-01  1.50000000E+00
  8.00000000E-01  8.00000000E-01  1.50000000E+00  8.00000000E-01  8.00000000E-01
  1.50000000E+00  8.00000000E-01  8.00000000E-01  1.50000000E+00  8.00000000E-01
  8.00000000E-01  1.50000000E+00  8.00000000E-01  8.00000000E-01  1.50000000E+00
  8.00000000E-01  8.00000000E-01  1.50000000E+00  8.00000000E-01  8.00000000E-01
  1.50000000E+00  8.00000000E-01  8.00000000E-01  1.50000000E+00  8.00000000E-01
  8.00000000E-01  1.50000000E+00  8.00000000E-01  8.00000000E-01  1.50000000E+00
  8.00000000E-01  8.00000000E-01  1.50000000E+00  8.00000000E-01  8.00000000E-01
  1.50000000E+00  8.00000000E-01  8.00000000E-01  1.50000000E+00  8.00000000E-01
  8.00000000E-01  1.50000000E+00  8.00000000E-01  8.00000000E-01  1.50000000E+00
  8.00000000E-01  8.00000000E-01  1.50000000E+00  8.00000000E-01  8.00000000E-01
  1.50000000E+00  8.00000000E-01  8.00000000E-01  1.50000000E+00  8.00000000E-01
  8.00000000E-01  1.50000000E+00  8.00000000E-01  8.00000000E-01  1.50000000E+00
  8.00000000E-01  8.00000000E-01  1.50000000E+00  8.00000000E-01  8.00000000E-01
  1.50000000E+00  8.00000000E-01  8.00000000E-01  1.50000000E+00  8.00000000E-01
  8.00000000E-01  1.50000000E+00  8.00000000E-01  8.00000000E-01  1.50000000E+00
  8.00000000E-01  8.00000000E-01  1.50000000E+00  8.00000000E-01  8.00000000E-01
  1.50000000E+00  8.00000000E-01  8.00000000E-01  1.50000000E+00  8.00000000E-01
  8.00000000E-01  1.50000000E+00  8.00000000E-01  8.00000000E-01  1.50000000E+00
  8.00000000E-01  8.00000000E-01  1.50000000E+00  8.00000000E-01  8.00000000E-01
  1.50000000E+00  8.00000000E-01  8.00000000E-01  1.50000000E+00  8.00000000E-01
  8.00000000E-01  1.50000000E+00  8.00000000E-01  8.00000000E-01  1.50000000E+00
  8.00000000E-01  8.00000000E-01  1.50000000E+00  8.00000000E-01  8.00000000E-01
  1.50000000E+00  8.00000000E-01  8.00000000E-01  1.50000000E+00  8.00000000E-01
  8.00000000E-01  1.50000000E+00  8.00000000E-01  8.00000000E-01  1.50000000E+00
  8.00000000E-01  8.00000000E-01  1.50000000E+00  8.00000000E-01  8.00000000E-01
  1.50000000E+00  8.00000000E-01  8.00000000E-01  1.50000000E+00  8.00000000E-01
  8.00000000E-01  1.50000000E+00  8.00000000E-01  8.00000000E-01  1.50000000E+00
  8.00000000E-01  8.00000000E-01  1.50000000E+00  8.00000000E-01  8.00000000E-01
  1.50000000E+00  8.00000000E-01  8.00000000E-01  1.50000000E+00  8.00000000E-01
  8.00000000E-01  1.50000000E+00  8.00000000E-01  8.00000000E-01  1.50000000E+00
  8.00000000E-01  8.00000000E-01  1.50000000E+00  8.00000000E-01  8.00000000E-01
  1.50000000E+00  8.00000000E-01  8.00000000E-01  1.50000000E+00  8.00000000E-01
  8.00000000E-01  1.50000000E+00  8.00000000E-01  8.00000000E-01  1.50000000E+00
  8.00000000E-01  8.00000000E-01  1.50000000E+00  8.00000000E-01  8.00000000E-01
  1.50000000E+00  8.00000000E-01  8.00000000E-01  1.50000000E+00  8.00000000E-01
  8.00000000E-01  1.50000000E+00  8.00000000E-01  8.00000000E-01  1.50000000E+00
  8.00000000E-01  8.00000000E-01  1.50000000E+00  8.00000000E-01  8.00000000E-01
  1.50000000E+00  8.00000000E-01  8.00000000E-01  1.50000000E+00  8.00000000E-01
  8.00000000E-01  1.50000000E+00  8.00000000E-01  8.00000000E-01  1.50000000E+00
  8.00000000E-01  8.00000000E-01  1.50000000E+00  8.00000000E-01  8.00000000E-01
  1.50000000E+00  8.00000000E-01  8.00000000E-01  1.50000000E+00  8.00000000E-01
  8.00000000E-01  1.50000000E+00  8.00000000E-01  8.00000000E-01  1.50000000E+00
  8.00000000E-01  8.00000000E-01  1.50000000E+00  8.00000000E-01  8.00000000E-01
  1.50000000E+00  8.00000000E-01  8.00000000E-01  1.50000000E+00  8.00000000E-01
  8.00000000E-01  1.50000000E+00  8.00000000E-01  8.00000000E-01  1.50000000E+00
  8.00000000E-01  8.00000000E-01  1.50000000E+00  8.00000000E-01  8.00000000E-01
  1.50000000E+00  8.00000000E-01  8.00000000E-01  1.50000000E+00  8.00000000E-01
  8.00000000E-01  1.50000000E+00  8.00000000E-01  8.00000000E-01  1.50000000E+00
  8.00000000E-01  8.00000000E-01  1.50000000E+00  8.00000000E-01  8.00000000E-01
  1.50000000E+00  8.00000000E-01  8.00000000E-01  1.50000000E+00  8.00000000E-01
  8.00000000E-01  1.50000000E+00  8.00000000E-01  8.00000000E-01  1.50000000E+00
  8.00000000E-01  8.00000000E-01  1.50000000E+00  8.00000000E-01  8.00000000E-01
  1.50000000E+00  8.00000000E-01  8.00000000E-01  1.50000000E+00  8.00000000E-01
  8.00000000E-01  1.50000000E+00  8.00000000E-01  8.00000000E-01  1.50000000E+00
  8.00000000E-01  8.00000000E-01  1.50000000E+00  8.00000000E-01  8.00000000E-01
  1.50000000E+00  8.00000000E-01  8.00000000E-01  1.50000000E+00  8.00000000E-01
  8.00000000E-01  1.50000000E+00  8.00000000E-01  8.00000000E-01  1.50000000E+00
  8.00000000E-01  8.00000000E-01  1.50000000E+00  8.00000000E-01  8.00000000E-01
  1.50000000E+00  8.00000000E-01  8.00000000E-01  1.50000000E+00  8.00000000E-01
  8.00000000E-01  1.50000000E+00  8.00000000E-01  8.00000000E-01  1.50000000E+00
  8.00000000E-01  8.00000000E-01  1.50000000E+00  8.00000000E-01  8.00000000E-01
  1.50000000E+00  8.00000000E-01  8.00000000E-01  1.50000000E+00  8.00000000E-01
  8.00000000E-01  1.50000000E+00  8.00000000E-01  8.00000000E-01  1.50000000E+00
  8.00000000E-01  8.00000000E-01  1.50000000E+00  8.00000000E-01  8.00000000E-01
  1.50000000E+00  8.00000000E-01  8.00000000E-01  1.50000000E+00  8.00000000E-01
  8.00000000E-01  1.50000000E+00  8.00000000E-01  8.00000000E-01  1.50000000E+00
  8.00000000E-01  8.00000000E-01  1.50000000E+00  8.00000000E-01  8.00000000E-01
  1.50000000E+00  8.00000000E-01  8.00000000E-01  1.50000000E+00  8.00000000E-01
  8.00000000E-01  1.50000000E+00  8.00000000E-01  8.00000000E-01  1.50000000E+00
  8.00000000E-01  8.00000000E-01  1.50000000E+00  8.00000000E-01  8.00000000E-01
  1.50000000E+00  8.00000000E-01  8.00000000E-01  1.50000000E+00  8.00000000E-01
  8.00000000E-01  1.50000000E+00  8.00000000E-01  8.00000000E-01  1.50000000E+00
  8.00000000E-01  8.00000000E-01  1.50000000E+00  8.00000000E-01  8.00000000E-01
  1.50000000E+00  8.00000000E-01  8.00000000E-01  1.50000000E+00  8.00000000E-01
  8.00000000E-01  1.50000000E+00  8.00000000E-01  8.00000000E-01  1.50000000E+00
  8.00000000E-01  8.00000000E-01  1.50000000E+00  8.00000000E-01  8.00000000E-01
  1.50000000E+00  8.00000000E-01  8.00000000E-01  1.50000000E+00  8.00000000E-01
  8.00000000E-01  1.50000000E+00  8.00000000E-01  8.00000000E-01  1.50000000E+00
  8.00000000E-01  8.00000000E-01  1.50000000E+00  8.00000000E-01  8.00000000E-01
  1.50000000E+00  8.00000000E-01  8.00000000E-01  1.50000000E+00  8.00000000E-01
  8.00000000E-01  1.50000000E+00  8.00000000E-01  8.00000000E-01  1.50000000E+00
  8.00000000E-01  8.00000000E-01  1.50000000E+00  8.00000000E-01  8.00000000E-01
  1.50000000E+00  8.00000000E-01  8.00000000E-01  1.50000000E+00  8.00000000E-01
  8.00000000E-01  1.50000000E+00  8.00000000E-01  8.00000000E-01  1.50000000E+00
  8.00000000E-01  8.00000000E-01  1.50000000E+00  8.00000000E-01  8.00000000E-01
  1.50000000E+00  8.00000000E-01  8.00000000E-01  1.50000000E+00  8.00000000E-01
  8.00000000E-01  1.50000000E+00  8.00000000E-01  8.00000000E-01  1.50000000E+00
  8.00000000E-01  8.00000000E-01  1.50000000E+00  8.00000000E-01  8.00000000E-01
  1.50000000E+00  8.00000000E-01  8.00000000E-01  1.50000000E+00  8.00000000E-01
  8.00000000E-01  1.50000000E+00  8.00000000E-01  8.00000000E-01  1.50000000E+00
  8.00000000E-01  8.00000000E-01  1.50000000E+00  8.00000000E-01  8.00000000E-01
  1.50000000E+00  8.00000000E-01  8.00000000E-01  1.50000000E+00  8.00000000E-01
  8.00000000E-01  1.50000000E+00  8.00000000E-01  8.00000000E-01  1.50000000E+00
  8.00000000E-01  8.00000000E-01  1.50000000E+00  8.00000000E-01  8.00000000E-01
  1.50000000E+00  8.00000000E-01  8.00000000E-01  1.50000000E+00  8.00000000E-01
  8.00000000E-01  1.50000000E+00  8.00000000E-01  8.00000000E-01  1.50000000E+00
  8.00000000E-01  8.00000000E-01  1.50000000E+00  8.00000000E-01  8.00000000E-01
  1.50000000E+00  8.00000000E-01  8.00000000E-01  1.50000000E+00  8.00000000E-01
  8.00000000E-01  1.50000000E+00  8.00000000E-01  8.00000000E-01  1.50000000E+00
  8.00000000E-01  8.00000000E-01  1.50000000E+00  8.00000000E-01  8.00000000E-01
  1.50000000E+00  8.00000000E-01  8.00000000E-01  1.50000000E+00  8.00000000E-01
  8.00000000E-01  1.50000000E+00  8.00000000E-01  8.00000000E-01  1.50000000E+00
  8.00000000E-01  8.00000000E-01  1.50000000E+00  8.00000000E-01  8.00000000E-01
  1.50000000E+00  8.00000000E-01  8.00000000E-01  1.50000000E+00  8.00000000E-01
  8.00000000E-01  1.50000000E+00  8.00000000E-01  8.00000000E-01  1.50000000E+00
  8.00000000E-01  8.00000000E-01  1.50000000E+00  8.00000000E-01  8.00000000E-01
  1.50000000E+00  8.00000000E-01  8.00000000E-01  1.50000000E+00  8.00000000E-01
  8.00000000E-01  1.50000000E+00  8.00000000E-01  8.00000000E-01  1.50000000E+00
  8.00000000E-01  8.00000000E-01  1.50000000E+00  8.00000000E-01  8.00000000E-01
  1.50000000E+00  8.00000000E-01  8.00000000E-01  1.50000000E+00  8.00000000E-01
  8.00000000E-01  1.50000000E+00  8.00000000E-01  8.00000000E-01  1.50000000E+00
  8.00000000E-01  8.00000000E-01  1.50000000E+00  8.00000000E-01  8.00000000E-01
  1.50000000E+00  8.00000000E-01  8.00000000E-01  1.50000000E+00  8.00000000E-01
  8.00000000E-01  1.50000000E+00  8.00000000E-01  8.00000000E-01  1.50000000E+00
  8.00000000E-01  8.00000000E-01  1.50000000E+00  8.00000000E-01  8.00000000E-01
  1.50000000E+00  8.00000000E-01  8.00000000E-01  1.50000000E+00  8.00000000E-01
  8.00000000E-01  1.50000000E+00  8.00000000E-01  8.00000000E-01  1.50000000E+00
  8.00000000E-01  8.00000000E-01  1.50000000E+00  8.00000000E-01  8.00000000E-01
  1.50000000E+00  8.00000000E-01  8.00000000E-01  1.50000000E+00  8.00000000E-01
  8.00000000E-01  1.50000000E+00  8.00000000E-01  8.00000000E-01  1.50000000E+00
  8.00000000E-01  8.00000000E-01  1.50000000E+00  8.00000000E-01  8.00000000E-01
  1.50000000E+00  8.00000000E-01  8.00000000E-01  1.50000000E+00  8.00000000E-01
  8.00000000E-01  1.50000000E+00  8.00000000E-01  8.00000000E-01  1.50000000E+00
  8.00000000E-01  8.00000000E-01  1.50000000E+00  8.00000000E-01  8.00000000E-01
  1.50000000E+00  8.00000000E-01  8.00000000E-01  1.50000000E+00  8.00000000E-01
  8.00000000E-01  1.50000000E+00  8.00000000E-01  8.00000000E-01  1.50000000E+00
  8.00000000E-01  8.00000000E-01  1.50000000E+00  8.00000000E-01  8.00000000E-01
  1.50000000E+00  8.00000000E-01  8.00000000E-01  1.50000000E+00  8.00000000E-01
  8.00000000E-01  1.50000000E+00  8.00000000E-01  8.00000000E-01  1.50000000E+00
  8.00000000E-01  8.00000000E-01  1.50000000E+00  8.00000000E-01  8.00000000E-01
  1.50000000E+00  8.00000000E-01  8.00000000E-01  1.50000000E+00  8.00000000E-01
  8.00000000E-01  1.50000000E+00  8.00000000E-01  8.00000000E-01  1.50000000E+00
  8.00000000E-01  8.00000000E-01  1.50000000E+00  8.00000000E-01  8.00000000E-01
  1.50000000E+00  8.00000000E-01  8.00000000E-01  1.50000000E+00  8.00000000E-01
  8.00000000E-01  1.50000000E+00  8.00000000E-01  8.00000000E-01  1.50000000E+00
  8.00000000E-01  8.00000000E-01  1.50000000E+00  8.00000000E-01  8.00000000E-01
  1.50000000E+00  8.00000000E-01  8.00000000E-01  1.50000000E+00  8.00000000E-01
  8.00000000E-01  1.50000000E+00  8.00000000E-01  8.00000000E-01  1.50000000E+00
  8.00000000E-01  8.00000000E-01  1.50000000E+00  8.00000000E-01  8.00000000E-01
  1.50000000E+00  8.00000000E-01  8.00000000E-01  1.50000000E+00  8.00000000E-01
  8.00000000E-01  1.50000000E+00  8.00000000E-01  8.00000000E-01  1.50000000E+00
  8.00000000E-01  8.00000000E-01  1.50000000E+00  8.00000000E-01  8.00000000E-01
  1.50000000E+00  8.00000000E-01  8.00000000E-01  1.50000000E+00  8.00000000E-01
  8.00000000E-01  1.50000000E+00  8.00000000E-01  8.00000000E-01  1.50000000E+00
  8.00000000E-01  8.00000000E-01  1.50000000E+00  8.00000000E-01  8.00000000E-01
  1.50000000E+00  8.00000000E-01  8.00000000E-01  1.50000000E+00  8.00000000E-01
  8.00000000E-01  1.50000000E+00  8.00000000E-01  8.00000000E-01  1.50000000E+00
  8.00000000E-01  8.00000000E-01  1.50000000E+00  8.00000000E-01  8.00000000E-01
  1.50000000E+00  8.00000000E-01  8.00000000E-01  1.50000000E+00  8.00000000E-01
  8.00000000E-01  1.50000000E+00  8.00000000E-01  8.00000000E-01  1.50000000E+00
  8.00000000E-01  8.00000000E-01  1.50000000E+00  8.00000000E-01  8.00000000E-01
  1.50000000E+00  8.00000000E-01  8.00000000E-01  1.50000000E+00  8.00000000E-01
  8.00000000E-01  1.50000000E+00  8.00000000E-01  8.00000000E-01  1.50000000E+00
  8.00000000E-01  8.00000000E-01  1.50000000E+00  8.00000000E-01  8.00000000E-01
  1.50000000E+00  8.00000000E-01  8.00000000E-01  1.50000000E+00  8.00000000E-01
  8.00000000E-01  1.50000000E+00  8.00000000E-01  8.00000000E-01  1.50000000E+00
  8.00000000E-01  8.00000000E-01  1.50000000E+00  8.00000000E-01  8.00000000E-01
  1.50000000E+00  8.00000000E-01  8.00000000E-01  1.50000000E+00  8.00000000E-01
  8.00000000E-01  1.50000000E+00  8.00000000E-01  8.00000000E-01  1.50000000E+00
  8.00000000E-01  8.00000000E-01  1.50000000E+00  8.00000000E-01  8.00000000E-01
  1.50000000E+00  8.00000000E-01  8.00000000E-01  1.50000000E+00  8.00000000E-01
  8.00000000E-01  1.50000000E+00  8.00000000E-01  8.00000000E-01  1.50000000E+00
  8.00000000E-01  8.00000000E-01  1.50000000E+00  8.00000000E-01  8.00000000E-01
  1.50000000E+00  8.00000000E-01  8.00000000E-01  1.50000000E+00  8.00000000E-01
  8.00000000E-01  1.50000000E+00  8.00000000E-01  8.00000000E-01  1.50000000E+00
  8.00000000E-01  8.00000000E-01  1.50000000E+00  8.00000000E-01  8.00000000E-01
  1.50000000E+00  8.00000000E-01  8.00000000E-01  1.50000000E+00  8.00000000E-01
  8.00000000E-01  1.50000000E+00  8.00000000E-01  8.00000000E-01  1.50000000E+00
  8.00000000E-01  8.00000000E-01  1.50000000E+00  8.00000000E-01  8.00000000E-01
  1.50000000E+00  8.00000000E-01  8.00000000E-01  1.50000000E+00  8.00000000E-01
  8.00000000E-01  1.50000000E+00  8.00000000E-01  8.00000000E-01  1.50000000E+00
  8.00000000E-01  8.00000000E-01  1.50000000E+00  8.00000000E-01  8.00000000E-01
  1.50000000E+00  8.00000000E-01  8.00000000E-01  1.50000000E+00  8.00000000E-01
  8.00000000E-01  1.50000000E+00  8.00000000E-01  8.00000000E-01  1.50000000E+00
  8.00000000E-01  8.00000000E-01  1.50000000E+00  8.00000000E-01  8.00000000E-01
  1.50000000E+00  8.00000000E-01  8.00000000E-01  1.50000000E+00  8.00000000E-01
  8.00000000E-01  1.50000000E+00  8.00000000E-01  8.00000000E-01  1.50000000E+00
  8.00000000E-01  8.00000000E-01  1.50000000E+00  8.00000000E-01  8.00000000E-01
  1.50000000E+00  8.00000000E-01  8.00000000E-01  1.50000000E+00  8.00000000E-01
  8.00000000E-01  1.50000000E+00  8.00000000E-01  8.00000000E-01  1.50000000E+00
  8.00000000E-01  8.00000000E-01  1.50000000E+00  8.00000000E-01  8.00000000E-01
  1.50000000E+00  8.00000000E-01  8.00000000E-01  1.50000000E+00  8.00000000E-01
  8.00000000E-01  1.50000000E+00  8.00000000E-01  8.00000000E-01  1.50000000E+00
  8.00000000E-01  8.00000000E-01  1.50000000E+00  8.00000000E-01  8.00000000E-01
  1.50000000E+00  8.00000000E-01  8.00000000E-01  1.50000000E+00  8.00000000E-01
  8.00000000E-01  1.50000000E+00  8.00000000E-01  8.00000000E-01  1.50000000E+00
  8.00000000E-01  8.00000000E-01  1.50000000E+00  8.00000000E-01  8.00000000E-01
  1.50000000E+00  8.00000000E-01  8.00000000E-01  1.50000000E+00  8.00000000E-01
  8.00000000E-01  1.50000000E+00  8.00000000E-01  8.00000000E-01  1.50000000E+00
  8.00000000E-01  8.00000000E-01  1.50000000E+00  8.00000000E-01  8.00000000E-01
  1.50000000E+00  8.00000000E-01  8.00000000E-01  1.50000000E+00  8.00000000E-01
  8.00000000E-01  1.50000000E+00  8.00000000E-01  8.00000000E-01  1.50000000E+00
  8.00000000E-01  8.00000000E-01  1.50000000E+00  8.00000000E-01  8.00000000E-01
  1.50000000E+00  8.00000000E-01  8.00000000E-01  1.50000000E+00  8.00000000E-01
  8.00000000E-01  1.50000000E+00  8.00000000E-01  8.00000000E-01  1.50000000E+00
  8.00000000E-01  8.00000000E-01  1.50000000E+00  8.00000000E-01  8.00000000E-01
  1.50000000E+00  8.00000000E-01  8.00000000E-01  1.50000000E+00  8.00000000E-01
  8.00000000E-01  1.50000000E+00  8.00000000E-01  8.00000000E-01  1.50000000E+00
  8.00000000E-01  8.00000000E-01  1.50000000E+00  8.00000000E-01  8.00000000E-01
  1.50000000E+00  8.00000000E-01  8.00000000E-01  1.50000000E+00  8.00000000E-01
  8.00000000E-01  1.50000000E+00  8.00000000E-01  8.00000000E-01  1.50000000E+00
  8.00000000E-01  8.00000000E-01  1.50000000E+00  8.00000000E-01  8.00000000E-01
  1.50000000E+00  8.00000000E-01  8.00000000E-01  1.50000000E+00  8.00000000E-01
  8.00000000E-01  1.50000000E+00  8.00000000E-01  8.00000000E-01  1.50000000E+00
  8.00000000E-01  8.00000000E-01  1.50000000E+00  8.00000000E-01  8.00000000E-01
  1.50000000E+00  8.00000000E-01  8.00000000E-01  1.50000000E+00  8.00000000E-01
  8.00000000E-01  1.50000000E+00  8.00000000E-01  8.00000000E-01  1.50000000E+00
  8.00000000E-01  8.00000000E-01  1.50000000E+00  8.00000000E-01  8.00000000E-01
  1.50000000E+00  8.00000000E-01  8.00000000E-01  1.50000000E+00  8.00000000E-01
  8.00000000E-01  1.50000000E+00  8.00000000E-01  8.00000000E-01  1.50000000E+00
  8.00000000E-01  8.00000000E-01  1.50000000E+00  8.00000000E-01  8.00000000E-01
  1.50000000E+00  8.00000000E-01  8.00000000E-01  1.50000000E+00  8.00000000E-01
  8.00000000E-01  1.50000000E+00  8.00000000E-01  8.00000000E-01  1.50000000E+00
  8.00000000E-01  8.00000000E-01  1.50000000E+00  8.00000000E-01  8.00000000E-01
  1.50000000E+00  8.00000000E-01  8.00000000E-01  1.50000000E+00  8.00000000E-01
  8.00000000E-01  1.50000000E+00  8.00000000E-01  8.00000000E-01  1.50000000E+00
  8.00000000E-01  8.00000000E-01  1.50000000E+00  8.00000000E-01  8.00000000E-01
  1.50000000E+00  8.00000000E-01  8.00000000E-01  1.50000000E+00  8.00000000E-01
  8.00000000E-01  1.50000000E+00  8.00000000E-01  8.00000000E-01  1.50000000E+00
  8.00000000E-01  8.00000000E-01  1.50000000E+00  8.00000000E-01  8.00000000E-01
  1.50000000E+00  8.00000000E-01  8.00000000E-01  1.50000000E+00  8.00000000E-01
  8.00000000E-01  1.50000000E+00  8.00000000E-01  8.00000000E-01  1.50000000E+00
  8.00000000E-01  8.00000000E-01  1.50000000E+00  8.00000000E-01  8.00000000E-01
  1.50000000E+00  8.00000000E-01  8.00000000E-01  1.50000000E+00  8.00000000E-01
  8.00000000E-01  1.50000000E+00  8.00000000E-01  8.00000000E-01  1.50000000E+00
  8.00000000E-01  8.00000000E-01  1.50000000E+00  8.00000000E-01  8.00000000E-01
  1.50000000E+00  8.00000000E-01  8.00000000E-01  1.50000000E+00  8.00000000E-01
  8.00000000E-01  1.50000000E+00  8.00000000E-01  8.00000000E-01  1.50000000E+00
  8.00000000E-01  8.00000000E-01  1.50000000E+00  8.00000000E-01  8.00000000E-01
  1.50000000E+00  8.00000000E-01  8.00000000E-01  1.50000000E+00  8.00000000E-01
  8.00000000E-01  1.50000000E+00  8.00000000E-01  8.00000000E-01  1.50000000E+00
  8.00000000E-01  8.00000000E-01  1.50000000E+00  8.00000000E-01  8.00000000E-01
  1.50000000E+00  8.00000000E-01  8.00000000E-01  1.50000000E+00  8.00000000E-01
  8.00000000E-01  1.50000000E+00  8.00000000E-01  8.00000000E-01  1.50000000E+00
  8.00000000E-01  8.00000000E-01  1.50000000E+00  8.00000000E-01  8.00000000E-01
  1.50000000E+00  8.00000000E-01  8.00000000E-01  1.50000000E+00  8.00000000E-01
  8.00000000E-01  1.50000000E+00  8.00000000E-01  8.00000000E-01  1.50000000E+00
  8.00000000E-01  8.00000000E-01  1.50000000E+00  8.00000000E-01  8.00000000E-01
  1.50000000E+00  8.00000000E-01  8.00000000E-01  1.50000000E+00  8.00000000E-01
  8.00000000E-01  1.50000000E+00  8.00000000E-01  8.00000000E-01  1.50000000E+00
  8.00000000E-01  8.00000000E-01  1.50000000E+00  8.00000000E-01  8.00000000E-01
  1.50000000E+00  8.00000000E-01  8.00000000E-01  1.50000000E+00  8.00000000E-01
  8.00000000E-01  1.50000000E+00  8.00000000E-01  8.00000000E-01  1.50000000E+00
  8.00000000E-01  8.00000000E-01  1.50000000E+00  8.00000000E-01  8.00000000E-01
  1.50000000E+00  8.00000000E-01  8.00000000E-01  1.50000000E+00  8.00000000E-01
  8.00000000E-01  1.50000000E+00  8.00000000E-01  8.00000000E-01  1.50000000E+00
  8.00000000E-01  8.00000000E-01  1.50000000E+00  8.00000000E-01  8.00000000E-01
  1.50000000E+00  8.00000000E-01  8.00000000E-01  1.50000000E+00  8.00000000E-01
  8.00000000E-01  1.50000000E+00  8.00000000E-01  8.00000000E-01  1.50000000E+00
  8.00000000E-01  8.00000000E-01  1.50000000E+00  8.00000000E-01  8.00000000E-01
  1.50000000E+00  8.00000000E-01  8.00000000E-01  1.50000000E+00  8.00000000E-01
  8.00000000E-01  1.50000000E+00  8.00000000E-01  8.00000000E-01  1.50000000E+00
  8.00000000E-01  8.00000000E-01  1.50000000E+00  8.00000000E-01  8.00000000E-01
  1.50000000E+00  8.00000000E-01  8.00000000E-01  1.50000000E+00  8.00000000E-01
  8.00000000E-01  1.50000000E+00  8.00000000E-01  8.00000000E-01  1.50000000E+00
  8.00000000E-01  8.00000000E-01  1.50000000E+00  8.00000000E-01  8.00000000E-01
  1.50000000E+00  8.00000000E-01  8.00000000E-01  1.50000000E+00  8.00000000E-01
  8.00000000E-01  1.50000000E+00  8.00000000E-01  8.00000000E-01  1.50000000E+00
  8.00000000E-01  8.00000000E-01  1.50000000E+00  8.00000000E-01  8.00000000E-01
  1.50000000E+00  8.00000000E-01  8.00000000E-01  1.50000000E+00  8.00000000E-01
  8.00000000E-01  1.50000000E+00  8.00000000E-01  8.00000000E-01  1.50000000E+00
  8.00000000E-01  8.00000000E-01  1.50000000E+00  8.00000000E-01  8.00000000E-01
  1.50000000E+00  8.00000000E-01  8.00000000E-01  1.50000000E+00  8.00000000E-01
  8.00000000E-01  1.50000000E+00  8.00000000E-01  8.00000000E-01  1.50000000E+00
  8.00000000E-01  8.00000000E-01  1.50000000E+00  8.00000000E-01  8.00000000E-01
  1.50000000E+00  8.00000000E-01  8.00000000E-01  1.50000000E+00  8.00000000E-01
  8.00000000E-01  1.50000000E+00  8.00000000E-01  8.00000000E-01  1.50000000E+00
  8.00000000E-01  8.00000000E-01  1.50000000E+00  8.00000000E-01  8.00000000E-01
  1.50000000E+00  8.00000000E-01  8.00000000E-01  1.50000000E+00  8.00000000E-01
  8.00000000E-01  1.50000000E+00  8.00000000E-01  8.00000000E-01  1.50000000E+00
  8.00000000E-01  8.00000000E-01  1.50000000E+00  8.00000000E-01  8.00000000E-01
  1.50000000E+00  8.00000000E-01  8.00000000E-01  1.50000000E+00  8.00000000E-01
  8.00000000E-01  1.50000000E+00  8.00000000E-01  8.00000000E-01  1.50000000E+00
  8.00000000E-01  8.00000000E-01  1.50000000E+00  8.00000000E-01  8.00000000E-01
  1.50000000E+00  8.00000000E-01  8.00000000E-01  1.50000000E+00  8.00000000E-01
  8.00000000E-01  1.50000000E+00  8.00000000E-01  8.00000000E-01  1.50000000E+00
  8.00000000E-01  8.00000000E-01  1.50000000E+00  8.00000000E-01  8.00000000E-01
  1.50000000E+00  8.00000000E-01  8.00000000E-01  1.50000000E+00  8.00000000E-01
  8.00000000E-01  1.50000000E+00  8.00000000E-01  8.00000000E-01  1.50000000E+00
  8.00000000E-01  8.00000000E-01  1.50000000E+00  8.00000000E-01  8.00000000E-01
  1.50000000E+00  8.00000000E-01  8.00000000E-01  1.50000000E+00  8.00000000E-01
  8.00000000E-01  1.50000000E+00  8.00000000E-01  8.00000000E-01  1.50000000E+00
  8.00000000E-01  8.00000000E-01  1.50000000E+00  8.00000000E-01  8.00000000E-01
  1.50000000E+00  8.00000000E-01  8.00000000E-01  1.50000000E+00  8.00000000E-01
  8.00000000E-01  1.50000000E+00  8.00000000E-01  8.00000000E-01  1.50000000E+00
  8.00000000E-01  8.00000000E-01  1.50000000E+00  8.00000000E-01  8.00000000E-01
  1.50000000E+00  8.00000000E-01  8.00000000E-01  1.50000000E+00  8.00000000E-01
  8.00000000E-01  1.50000000E+00  8.00000000E-01  8.00000000E-01  1.50000000E+00
  8.00000000E-01  8.00000000E-01  1.50000000E+00  8.00000000E-01  8.00000000E-01
  1.50000000E+00  8.00000000E-01  8.00000000E-01  1.50000000E+00  8.00000000E-01
  8.00000000E-01  1.50000000E+00  8.00000000E-01  8.00000000E-01  1.50000000E+00
  8.00000000E-01  8.00000000E-01  1.50000000E+00  8.00000000E-01  8.00000000E-01
  1.50000000E+00  8.00000000E-01  8.00000000E-01  1.50000000E+00  8.00000000E-01
  8.00000000E-01  1.50000000E+00  8.00000000E-01  8.00000000E-01  1.50000000E+00
  8.00000000E-01  8.00000000E-01  1.50000000E+00  8.00000000E-01  8.00000000E-01
  1.50000000E+00  8.00000000E-01  8.00000000E-01  1.50000000E+00  8.00000000E-01
  8.00000000E-01  1.50000000E+00  8.00000000E-01  8.00000000E-01  1.50000000E+00
  8.00000000E-01  8.00000000E-01  1.50000000E+00  8.00000000E-01  8.00000000E-01
  1.50000000E+00  8.00000000E-01  8.00000000E-01  1.50000000E+00  8.00000000E-01
  8.00000000E-01  1.50000000E+00  8.00000000E-01  8.00000000E-01  1.50000000E+00
  8.00000000E-01  8.00000000E-01  1.50000000E+00  8.00000000E-01  8.00000000E-01
  1.50000000E+00  8.00000000E-01  8.00000000E-01  1.50000000E+00  8.00000000E-01
  8.00000000E-01  1.50000000E+00  8.00000000E-01  8.00000000E-01  1.50000000E+00
  8.00000000E-01  8.00000000E-01  1.50000000E+00  8.00000000E-01  8.00000000E-01
  1.50000000E+00  8.00000000E-01  8.00000000E-01  1.50000000E+00  8.00000000E-01
  8.00000000E-01  1.50000000E+00  8.00000000E-01  8.00000000E-01  1.50000000E+00
  8.00000000E-01  8.00000000E-01  1.50000000E+00  8.00000000E-01  8.00000000E-01
  1.50000000E+00  8.00000000E-01  8.00000000E-01  1.50000000E+00  8.00000000E-01
  8.00000000E-01  1.50000000E+00  8.00000000E-01  8.00000000E-01  1.50000000E+00
  8.00000000E-01  8.00000000E-01  1.50000000E+00  8.00000000E-01  8.00000000E-01
  1.50000000E+00  8.00000000E-01  8.00000000E-01  1.50000000E+00  8.00000000E-01
  8.00000000E-01  1.50000000E+00  8.00000000E-01  8.00000000E-01  1.50000000E+00
  8.00000000E-01  8.00000000E-01  1.50000000E+00  8.00000000E-01  8.00000000E-01
  1.50000000E+00  8.00000000E-01  8.00000000E-01  1.50000000E+00  8.00000000E-01
  8.00000000E-01  1.50000000E+00  8.00000000E-01  8.00000000E-01  1.50000000E+00
  8.00000000E-01  8.00000000E-01  1.50000000E+00  8.00000000E-01  8.00000000E-01
  1.50000000E+00  8.00000000E-01  8.00000000E-01  1.50000000E+00  8.00000000E-01
  8.00000000E-01  1.50000000E+00  8.00000000E-01  8.00000000E-01  1.50000000E+00
  8.00000000E-01  8.00000000E-01  1.50000000E+00  8.00000000E-01  8.00000000E-01
  1.50000000E+00  8.00000000E-01  8.00000000E-01  1.50000000E+00  8.00000000E-01
  8.00000000E-01  1.50000000E+00  8.00000000E-01  8.00000000E-01  1.50000000E+00
  8.00000000E-01  8.00000000E-01  1.50000000E+00  8.00000000E-01  8.00000000E-01
  1.50000000E+00  8.00000000E-01  8.00000000E-01  1.50000000E+00  8.00000000E-01
  8.00000000E-01  1.50000000E+00  8.00000000E-01  8.00000000E-01  1.50000000E+00
  8.00000000E-01  8.00000000E-01  1.50000000E+00  8.00000000E-01  8.00000000E-01
  1.50000000E+00  8.00000000E-01  8.00000000E-01  1.50000000E+00  8.00000000E-01
  8.00000000E-01  1.50000000E+00  8.00000000E-01  8.00000000E-01  1.50000000E+00
  8.00000000E-01  8.00000000E-01  1.50000000E+00  8.00000000E-01  8.00000000E-01
  1.50000000E+00  8.00000000E-01  8.00000000E-01  1.50000000E+00  8.00000000E-01
  8.00000000E-01  1.50000000E+00  8.00000000E-01  8.00000000E-01  1.50000000E+00
  8.00000000E-01  8.00000000E-01  1.50000000E+00  8.00000000E-01  8.00000000E-01
  1.50000000E+00  8.00000000E-01  8.00000000E-01  1.50000000E+00  8.00000000E-01
  8.00000000E-01  1.50000000E+00  8.00000000E-01  8.00000000E-01  1.50000000E+00
  8.00000000E-01  8.00000000E-01  1.50000000E+00  8.00000000E-01  8.00000000E-01
  1.50000000E+00  8.00000000E-01  8.00000000E-01  1.50000000E+00  8.00000000E-01
  8.00000000E-01  1.50000000E+00  8.00000000E-01  8.00000000E-01  1.50000000E+00
  8.00000000E-01  8.00000000E-01  1.50000000E+00  8.00000000E-01  8.00000000E-01
  1.50000000E+00  8.00000000E-01  8.00000000E-01  1.50000000E+00  8.00000000E-01
  8.00000000E-01  1.50000000E+00  8.00000000E-01  8.00000000E-01  1.50000000E+00
  8.00000000E-01  8.00000000E-01  1.50000000E+00  8.00000000E-01  8.00000000E-01
  1.50000000E+00  8.00000000E-01  8.00000000E-01  1.50000000E+00  8.00000000E-01
  8.00000000E-01  1.50000000E+00  8.00000000E-01  8.00000000E-01  1.50000000E+00
  8.00000000E-01  8.00000000E-01  1.50000000E+00  8.00000000E-01  8.00000000E-01
  1.50000000E+00  8.00000000E-01  8.00000000E-01  1.50000000E+00  8.00000000E-01
  8.00000000E-01  1.50000000E+00  8.00000000E-01  8.00000000E-01  1.50000000E+00
  8.00000000E-01  8.00000000E-01  1.50000000E+00  8.00000000E-01  8.00000000E-01
  1.50000000E+00  8.00000000E-01  8.00000000E-01  1.50000000E+00  8.00000000E-01
  8.00000000E-01  1.50000000E+00  8.00000000E-01  8.00000000E-01  1.50000000E+00
  8.00000000E-01  8.00000000E-01  1.50000000E+00  8.00000000E-01  8.00000000E-01
  1.50000000E+00  8.00000000E-01  8.00000000E-01  1.50000000E+00  8.00000000E-01
  8.00000000E-01  1.50000000E+00  8.00000000E-01  8.00000000E-01  1.50000000E+00
  8.00000000E-01  8.00000000E-01  1.50000000E+00  8.00000000E-01  8.00000000E-01
  1.50000000E+00  8.00000000E-01  8.00000000E-01  1.50000000E+00  8.00000000E-01
  8.00000000E-01  1.50000000E+00  8.00000000E-01  8.00000000E-01  1.50000000E+00
  8.00000000E-01  8.00000000E-01  1.50000000E+00  8.00000000E-01  8.00000000E-01
  1.50000000E+00  8.00000000E-01  8.00000000E-01  1.50000000E+00  8.00000000E-01
  8.00000000E-01  1.50000000E+00  8.00000000E-01  8.00000000E-01  1.50000000E+00
  8.00000000E-01  8.00000000E-01  1.50000000E+00  8.00000000E-01  8.00000000E-01
  1.50000000E+00  8.00000000E-01  8.00000000E-01  1.50000000E+00  8.00000000E-01
  8.00000000E-01  1.50000000E+00  8.00000000E-01  8.00000000E-01  1.50000000E+00
  8.00000000E-01  8.00000000E-01  1.50000000E+00  8.00000000E-01  8.00000000E-01
  1.50000000E+00  8.00000000E-01  8.00000000E-01  1.50000000E+00  8.00000000E-01
  8.00000000E-01  1.50000000E+00  8.00000000E-01  8.00000000E-01  1.50000000E+00
  8.00000000E-01  8.00000000E-01  1.50000000E+00  8.00000000E-01  8.00000000E-01
  1.50000000E+00  8.00000000E-01  8.00000000E-01  1.50000000E+00  8.00000000E-01
  8.00000000E-01  1.50000000E+00  8.00000000E-01  8.00000000E-01  1.50000000E+00
  8.00000000E-01  8.00000000E-01  1.50000000E+00  8.00000000E-01  8.00000000E-01
  1.50000000E+00  8.00000000E-01  8.00000000E-01  1.50000000E+00  8.00000000E-01
  8.00000000E-01  1.50000000E+00  8.00000000E-01  8.00000000E-01  1.50000000E+00
  8.00000000E-01  8.00000000E-01  1.50000000E+00  8.00000000E-01  8.00000000E-01
  1.50000000E+00  8.00000000E-01  8.00000000E-01  1.50000000E+00  8.00000000E-01
  8.00000000E-01  1.50000000E+00  8.00000000E-01  8.00000000E-01  1.50000000E+00
  8.00000000E-01  8.00000000E-01  1.50000000E+00  8.00000000E-01  8.00000000E-01
  1.50000000E+00  8.00000000E-01  8.00000000E-01  1.50000000E+00  8.00000000E-01
  8.00000000E-01  1.50000000E+00  8.00000000E-01  8.00000000E-01  1.50000000E+00
  8.00000000E-01  8.00000000E-01  1.50000000E+00  8.00000000E-01  8.00000000E-01
  1.50000000E+00  8.00000000E-01  8.00000000E-01  1.50000000E+00  8.00000000E-01
  8.00000000E-01  1.50000000E+00  8.00000000E-01  8.00000000E-01  1.50000000E+00
  8.00000000E-01  8.00000000E-01  1.50000000E+00  8.00000000E-01  8.00000000E-01
  1.50000000E+00  8.00000000E-01  8.00000000E-01  1.50000000E+00  8.00000000E-01
  8.00000000E-01  1.50000000E+00  8.00000000E-01  8.00000000E-01  1.50000000E+00
  8.00000000E-01  8.00000000E-01  1.50000000E+00  8.00000000E-01  8.00000000E-01
  1.50000000E+00  8.00000000E-01  8.00000000E-01  1.50000000E+00  8.00000000E-01
  8.00000000E-01  1.50000000E+00  8.00000000E-01  8.00000000E-01  1.50000000E+00
  8.00000000E-01  8.00000000E-01  1.50000000E+00  8.00000000E-01  8.00000000E-01
  1.50000000E+00  8.00000000E-01  8.00000000E-01  1.50000000E+00  8.00000000E-01
  8.00000000E-01  1.50000000E+00  8.00000000E-01  8.00000000E-01  1.50000000E+00
  8.00000000E-01  8.00000000E-01  1.50000000E+00  8.00000000E-01  8.00000000E-01
  1.50000000E+00  8.00000000E-01  8.00000000E-01  1.50000000E+00  8.00000000E-01
  8.00000000E-01  1.50000000E+00  8.00000000E-01  8.00000000E-01  1.50000000E+00
  8.00000000E-01  8.00000000E-01  1.50000000E+00  8.00000000E-01  8.00000000E-01
  1.50000000E+00  8.00000000E-01  8.00000000E-01  1.50000000E+00  8.00000000E-01
  8.00000000E-01  1.50000000E+00  8.00000000E-01  8.00000000E-01  1.50000000E+00
  8.00000000E-01  8.00000000E-01  1.50000000E+00  8.00000000E-01  8.00000000E-01
  1.50000000E+00  8.00000000E-01  8.00000000E-01  1.50000000E+00  8.00000000E-01
  8.00000000E-01  1.50000000E+00  8.00000000E-01  8.00000000E-01  1.50000000E+00
  8.00000000E-01  8.00000000E-01  1.50000000E+00  8.00000000E-01  8.00000000E-01
  1.50000000E+00  8.00000000E-01  8.00000000E-01  1.50000000E+00  8.00000000E-01
  8.00000000E-01  1.50000000E+00  8.00000000E-01  8.00000000E-01  1.50000000E+00
  8.00000000E-01  8.00000000E-01  1.50000000E+00  8.00000000E-01  8.00000000E-01
  1.50000000E+00  8.00000000E-01  8.00000000E-01  1.50000000E+00  8.00000000E-01
  8.00000000E-01  1.50000000E+00  8.00000000E-01  8.00000000E-01  1.50000000E+00
  8.00000000E-01  8.00000000E-01  1.50000000E+00  8.00000000E-01  8.00000000E-01
  1.50000000E+00  8.00000000E-01  8.00000000E-01  1.50000000E+00  8.00000000E-01
  8.00000000E-01  1.50000000E+00  8.00000000E-01  8.00000000E-01  1.50000000E+00
  8.00000000E-01  8.00000000E-01  1.50000000E+00  8.00000000E-01  8.00000000E-01
  1.50000000E+00  8.00000000E-01  8.00000000E-01  1.50000000E+00  8.00000000E-01
  8.00000000E-01  1.50000000E+00  8.00000000E-01  8.00000000E-01  1.50000000E+00
  8.00000000E-01  8.00000000E-01  1.50000000E+00  8.00000000E-01  8.00000000E-01
  1.50000000E+00  8.00000000E-01  8.00000000E-01  1.50000000E+00  8.00000000E-01
  8.00000000E-01  1.50000000E+00  8.00000000E-01  8.00000000E-01  1.50000000E+00
  8.00000000E-01  8.00000000E-01  1.50000000E+00  8.00000000E-01  8.00000000E-01
  1.50000000E+00  8.00000000E-01  8.00000000E-01  1.50000000E+00  8.00000000E-01
  8.00000000E-01  1.50000000E+00  8.00000000E-01  8.00000000E-01  1.50000000E+00
  8.00000000E-01  8.00000000E-01  1.50000000E+00  8.00000000E-01  8.00000000E-01
  1.50000000E+00  8.00000000E-01  8.00000000E-01  1.50000000E+00  8.00000000E-01
  8.00000000E-01  1.50000000E+00  8.00000000E-01  8.00000000E-01  1.50000000E+00
  8.00000000E-01  8.00000000E-01  1.50000000E+00  8.00000000E-01  8.00000000E-01
  1.50000000E+00  8.00000000E-01  8.00000000E-01  1.50000000E+00  8.00000000E-01
  8.00000000E-01  1.50000000E+00  8.00000000E-01  8.00000000E-01  1.50000000E+00
  8.00000000E-01  8.00000000E-01  1.50000000E+00  8.00000000E-01  8.00000000E-01
  1.50000000E+00  8.00000000E-01  8.00000000E-01  1.50000000E+00  8.00000000E-01
  8.00000000E-01  1.50000000E+00  8.00000000E-01  8.00000000E-01  1.50000000E+00
  8.00000000E-01  8.00000000E-01  1.50000000E+00  8.00000000E-01  8.00000000E-01
  1.50000000E+00  8.00000000E-01  8.00000000E-01  1.50000000E+00  8.00000000E-01
  8.00000000E-01  1.50000000E+00  8.00000000E-01  8.00000000E-01  1.50000000E+00
  8.00000000E-01  8.00000000E-01  1.50000000E+00  8.00000000E-01  8.00000000E-01
  1.50000000E+00  8.00000000E-01  8.00000000E-01  1.50000000E+00  8.00000000E-01
  8.00000000E-01  1.50000000E+00  8.00000000E-01  8.00000000E-01  1.50000000E+00
  8.00000000E-01  8.00000000E-01  1.50000000E+00  8.00000000E-01  8.00000000E-01
  1.50000000E+00  8.00000000E-01  8.00000000E-01  1.50000000E+00  8.00000000E-01
  8.00000000E-01  1.50000000E+00  8.00000000E-01  8.00000000E-01  1.50000000E+00
  8.00000000E-01  8.00000000E-01  1.50000000E+00  8.00000000E-01  8.00000000E-01
  1.50000000E+00  8.00000000E-01  8.00000000E-01  1.50000000E+00  8.00000000E-01
  8.00000000E-01  1.50000000E+00  8.00000000E-01  8.00000000E-01  1.50000000E+00
  8.00000000E-01  8.00000000E-01  1.50000000E+00  8.00000000E-01  8.00000000E-01
  1.50000000E+00  8.00000000E-01  8.00000000E-01  1.50000000E+00  8.00000000E-01
  8.00000000E-01  1.50000000E+00  8.00000000E-01  8.00000000E-01  1.50000000E+00
  8.00000000E-01  8.00000000E-01  1.50000000E+00  8.00000000E-01  8.00000000E-01
  1.50000000E+00  8.00000000E-01  8.00000000E-01  1.50000000E+00  8.00000000E-01
  8.00000000E-01  1.50000000E+00  8.00000000E-01  8.00000000E-01  1.50000000E+00
  8.00000000E-01  8.00000000E-01  1.50000000E+00  8.00000000E-01  8.00000000E-01
  1.50000000E+00  8.00000000E-01  8.00000000E-01  1.50000000E+00  8.00000000E-01
  8.00000000E-01  1.50000000E+00  8.00000000E-01  8.00000000E-01  1.50000000E+00
  8.00000000E-01  8.00000000E-01  1.50000000E+00  8.00000000E-01  8.00000000E-01
  1.50000000E+00  8.00000000E-01  8.00000000E-01  1.50000000E+00  8.00000000E-01
  8.00000000E-01  1.50000000E+00  8.00000000E-01  8.00000000E-01  1.50000000E+00
  8.00000000E-01  8.00000000E-01  1.50000000E+00  8.00000000E-01  8.00000000E-01
  1.50000000E+00  8.00000000E-01  8.00000000E-01  1.50000000E+00  8.00000000E-01
  8.00000000E-01  1.50000000E+00  8.00000000E-01  8.00000000E-01  1.50000000E+00
  8.00000000E-01  8.00000000E-01  1.50000000E+00  8.00000000E-01  8.00000000E-01
  1.50000000E+00  8.00000000E-01  8.00000000E-01  1.50000000E+00  8.00000000E-01
  8.00000000E-01  1.50000000E+00  8.00000000E-01  8.00000000E-01  1.50000000E+00
  8.00000000E-01  8.00000000E-01  1.50000000E+00  8.00000000E-01  8.00000000E-01
  1.50000000E+00  8.00000000E-01  8.00000000E-01  1.50000000E+00  8.00000000E-01
  8.00000000E-01  1.50000000E+00  8.00000000E-01  8.00000000E-01  1.50000000E+00
  8.00000000E-01  8.00000000E-01  1.50000000E+00  8.00000000E-01  8.00000000E-01
  1.50000000E+00  8.00000000E-01  8.00000000E-01  1.50000000E+00  8.00000000E-01
  8.00000000E-01  1.50000000E+00  8.00000000E-01  8.00000000E-01  1.50000000E+00
  8.00000000E-01  8.00000000E-01  1.50000000E+00  8.00000000E-01  8.00000000E-01
  1.50000000E+00  8.00000000E-01  8.00000000E-01  1.50000000E+00  8.00000000E-01
  8.00000000E-01  1.50000000E+00  8.00000000E-01  8.00000000E-01  1.50000000E+00
  8.00000000E-01  8.00000000E-01  1.50000000E+00  8.00000000E-01  8.00000000E-01
  1.50000000E+00  8.00000000E-01  8.00000000E-01  1.50000000E+00  8.00000000E-01
  8.00000000E-01  1.50000000E+00  8.00000000E-01  8.00000000E-01  1.50000000E+00
  8.00000000E-01  8.00000000E-01  1.50000000E+00  8.00000000E-01  8.00000000E-01
  1.50000000E+00  8.00000000E-01  8.00000000E-01  1.50000000E+00  8.00000000E-01
  8.00000000E-01  1.50000000E+00  8.00000000E-01  8.00000000E-01  1.50000000E+00
  8.00000000E-01  8.00000000E-01  1.50000000E+00  8.00000000E-01  8.00000000E-01
  1.50000000E+00  8.00000000E-01  8.00000000E-01  1.50000000E+00  8.00000000E-01
  8.00000000E-01  1.50000000E+00  8.00000000E-01  8.00000000E-01  1.50000000E+00
  8.00000000E-01  8.00000000E-01  1.50000000E+00  8.00000000E-01  8.00000000E-01
  1.50000000E+00  8.00000000E-01  8.00000000E-01  1.50000000E+00  8.00000000E-01
  8.00000000E-01  1.50000000E+00  8.00000000E-01  8.00000000E-01  1.50000000E+00
  8.00000000E-01  8.00000000E-01  1.50000000E+00  8.00000000E-01  8.00000000E-01
  1.50000000E+00  8.00000000E-01  8.00000000E-01  1.50000000E+00  8.00000000E-01
  8.00000000E-01  1.50000000E+00  8.00000000E-01  8.00000000E-01  1.50000000E+00
  8.00000000E-01  8.00000000E-01  1.50000000E+00  8.00000000E-01  8.00000000E-01
  1.50000000E+00  8.00000000E-01  8.00000000E-01  1.50000000E+00  8.00000000E-01
  8.00000000E-01  1.50000000E+00  8.00000000E-01  8.00000000E-01  1.50000000E+00
  8.00000000E-01  8.00000000E-01  1.50000000E+00  8.00000000E-01  8.00000000E-01
  1.50000000E+00  8.00000000E-01  8.00000000E-01  1.50000000E+00  8.00000000E-01
  8.00000000E-01  1.50000000E+00  8.00000000E-01  8.00000000E-01  1.50000000E+00
  8.00000000E-01  8.00000000E-01  1.50000000E+00  8.00000000E-01  8.00000000E-01
  1.50000000E+00  8.00000000E-01  8.00000000E-01  1.50000000E+00  8.00000000E-01
  8.00000000E-01  1.50000000E+00  8.00000000E-01  8.00000000E-01  1.50000000E+00
  8.00000000E-01  8.00000000E-01  1.50000000E+00  8.00000000E-01  8.00000000E-01
  1.50000000E+00  8.00000000E-01  8.00000000E-01  1.50000000E+00  8.00000000E-01
  8.00000000E-01  1.50000000E+00  8.00000000E-01  8.00000000E-01  1.50000000E+00
  8.00000000E-01  8.00000000E-01  1.50000000E+00  8.00000000E-01  8.00000000E-01
  1.50000000E+00  8.00000000E-01  8.00000000E-01  1.50000000E+00  8.00000000E-01
  8.00000000E-01  1.50000000E+00  8.00000000E-01  8.00000000E-01  1.50000000E+00
  8.00000000E-01  8.00000000E-01  1.50000000E+00  8.00000000E-01  8.00000000E-01
  1.50000000E+00  8.00000000E-01  8.00000000E-01  1.50000000E+00  8.00000000E-01
  8.00000000E-01  1.50000000E+00  8.00000000E-01  8.00000000E-01  1.50000000E+00
  8.00000000E-01  8.00000000E-01  1.50000000E+00  8.00000000E-01  8.00000000E-01
  1.50000000E+00  8.00000000E-01  8.00000000E-01  1.50000000E+00  8.00000000E-01
  8.00000000E-01  1.50000000E+00  8.00000000E-01  8.00000000E-01  1.50000000E+00
  8.00000000E-01  8.00000000E-01  1.50000000E+00  8.00000000E-01  8.00000000E-01
  1.50000000E+00  8.00000000E-01  8.00000000E-01  1.50000000E+00  8.00000000E-01
  8.00000000E-01  1.50000000E+00  8.00000000E-01  8.00000000E-01  1.50000000E+00
  8.00000000E-01  8.00000000E-01  1.50000000E+00  8.00000000E-01  8.00000000E-01
  1.50000000E+00  8.00000000E-01  8.00000000E-01  1.50000000E+00  8.00000000E-01
  8.00000000E-01  1.50000000E+00  8.00000000E-01  8.00000000E-01  1.50000000E+00
  8.00000000E-01  8.00000000E-01  1.50000000E+00  8.00000000E-01  8.00000000E-01
  1.50000000E+00  8.00000000E-01  8.00000000E-01  1.50000000E+00  8.00000000E-01
  8.00000000E-01  1.50000000E+00  8.00000000E-01  8.00000000E-01  1.50000000E+00
  8.00000000E-01  8.00000000E-01  1.50000000E+00  8.00000000E-01  8.00000000E-01
  1.50000000E+00  8.00000000E-01  8.00000000E-01  1.50000000E+00  8.00000000E-01
  8.00000000E-01  1.50000000E+00  8.00000000E-01  8.00000000E-01  1.50000000E+00
  8.00000000E-01  8.00000000E-01  1.50000000E+00  8.00000000E-01  8.00000000E-01
  1.50000000E+00  8.00000000E-01  8.00000000E-01  1.50000000E+00  8.00000000E-01
  8.00000000E-01  1.50000000E+00  8.00000000E-01  8.00000000E-01  1.50000000E+00
  8.00000000E-01  8.00000000E-01  1.50000000E+00  8.00000000E-01  8.00000000E-01
  1.50000000E+00  8.00000000E-01  8.00000000E-01  1.50000000E+00  8.00000000E-01
  8.00000000E-01  1.50000000E+00  8.00000000E-01  8.00000000E-01  1.50000000E+00
  8.00000000E-01  8.00000000E-01  1.50000000E+00  8.00000000E-01  8.00000000E-01
  1.50000000E+00  8.00000000E-01  8.00000000E-01  1.50000000E+00  8.00000000E-01
  8.00000000E-01  1.50000000E+00  8.00000000E-01  8.00000000E-01  1.50000000E+00
  8.00000000E-01  8.00000000E-01  1.50000000E+00  8.00000000E-01  8.00000000E-01
  1.50000000E+00  8.00000000E-01  8.00000000E-01  1.50000000E+00  8.00000000E-01
  8.00000000E-01  1.50000000E+00  8.00000000E-01  8.00000000E-01  1.50000000E+00
  8.00000000E-01  8.00000000E-01  1.50000000E+00  8.00000000E-01  8.00000000E-01
  1.50000000E+00  8.00000000E-01  8.00000000E-01  1.50000000E+00  8.00000000E-01
  8.00000000E-01  1.50000000E+00  8.00000000E-01  8.00000000E-01  1.50000000E+00
  8.00000000E-01  8.00000000E-01  1.50000000E+00  8.00000000E-01  8.00000000E-01
  1.50000000E+00  8.00000000E-01  8.00000000E-01  1.50000000E+00  8.00000000E-01
  8.00000000E-01  1.50000000E+00  8.00000000E-01  8.00000000E-01  1.50000000E+00
  8.00000000E-01  8.00000000E-01  1.50000000E+00  8.00000000E-01  8.00000000E-01
  1.50000000E+00  8.00000000E-01  8.00000000E-01  1.50000000E+00  8.00000000E-01
  8.00000000E-01  1.50000000E+00  8.00000000E-01  8.00000000E-01  1.50000000E+00
  8.00000000E-01  8.00000000E-01  1.50000000E+00  8.00000000E-01  8.00000000E-01
  1.50000000E+00  8.00000000E-01  8.00000000E-01  1.50000000E+00  8.00000000E-01
  8.00000000E-01  1.50000000E+00  8.00000000E-01  8.00000000E-01  1.50000000E+00
  8.00000000E-01  8.00000000E-01  1.50000000E+00  8.00000000E-01  8.00000000E-01
  1.50000000E+00  8.00000000E-01  8.00000000E-01  1.50000000E+00  8.00000000E-01
  8.00000000E-01  1.50000000E+00  8.00000000E-01  8.00000000E-01  1.50000000E+00
  8.00000000E-01  8.00000000E-01  1.50000000E+00  8.00000000E-01  8.00000000E-01
  1.50000000E+00  8.00000000E-01  8.00000000E-01  1.50000000E+00  8.00000000E-01
  8.00000000E-01  1.50000000E+00  8.00000000E-01  8.00000000E-01  1.50000000E+00
  8.00000000E-01  8.00000000E-01  1.50000000E+00  8.00000000E-01  8.00000000E-01
  1.50000000E+00  8.00000000E-01  8.00000000E-01  1.50000000E+00  8.00000000E-01
  8.00000000E-01  1.50000000E+00  8.00000000E-01  8.00000000E-01  1.50000000E+00
  8.00000000E-01  8.00000000E-01  1.50000000E+00  8.00000000E-01  8.00000000E-01
  1.50000000E+00  8.00000000E-01  8.00000000E-01  1.50000000E+00  8.00000000E-01
  8.00000000E-01  1.50000000E+00  8.00000000E-01  8.00000000E-01  1.50000000E+00
  8.00000000E-01  8.00000000E-01  1.50000000E+00  8.00000000E-01  8.00000000E-01
  1.50000000E+00  8.00000000E-01  8.00000000E-01  1.50000000E+00  8.00000000E-01
  8.00000000E-01  1.50000000E+00  8.00000000E-01  8.00000000E-01  1.50000000E+00
  8.00000000E-01  8.00000000E-01  1.50000000E+00  8.00000000E-01  8.00000000E-01
  1.50000000E+00  8.00000000E-01  8.00000000E-01  1.50000000E+00  8.00000000E-01
  8.00000000E-01  1.50000000E+00  8.00000000E-01  8.00000000E-01  1.50000000E+00
  8.00000000E-01  8.00000000E-01  1.50000000E+00  8.00000000E-01  8.00000000E-01
  1.50000000E+00  8.00000000E-01  8.00000000E-01  1.50000000E+00  8.00000000E-01
  8.00000000E-01  1.50000000E+00  8.00000000E-01  8.00000000E-01  1.50000000E+00
  8.00000000E-01  8.00000000E-01  1.50000000E+00  8.00000000E-01  8.00000000E-01
  1.50000000E+00  8.00000000E-01  8.00000000E-01  1.50000000E+00  8.00000000E-01
  8.00000000E-01  1.50000000E+00  8.00000000E-01  8.00000000E-01  1.50000000E+00
  8.00000000E-01  8.00000000E-01  1.50000000E+00  8.00000000E-01  8.00000000E-01
  1.50000000E+00  8.00000000E-01  8.00000000E-01  1.50000000E+00  8.00000000E-01
  8.00000000E-01  1.50000000E+00  8.00000000E-01  8.00000000E-01  1.50000000E+00
  8.00000000E-01  8.00000000E-01  1.50000000E+00  8.00000000E-01  8.00000000E-01
  1.50000000E+00  8.00000000E-01  8.00000000E-01  1.50000000E+00  8.00000000E-01
  8.00000000E-01  1.50000000E+00  8.00000000E-01  8.00000000E-01  1.50000000E+00
  8.00000000E-01  8.00000000E-01  1.50000000E+00  8.00000000E-01  8.00000000E-01
  1.50000000E+00  8.00000000E-01  8.00000000E-01  1.50000000E+00  8.00000000E-01
  8.00000000E-01  1.50000000E+00  8.00000000E-01  8.00000000E-01  1.50000000E+00
  8.00000000E-01  8.00000000E-01  1.50000000E+00  8.00000000E-01  8.00000000E-01
  1.50000000E+00  8.00000000E-01  8.00000000E-01  1.50000000E+00  8.00000000E-01
  8.00000000E-01  1.50000000E+00  8.00000000E-01  8.00000000E-01  1.50000000E+00
  8.00000000E-01  8.00000000E-01  1.50000000E+00  8.00000000E-01  8.00000000E-01
  1.50000000E+00  8.00000000E-01  8.00000000E-01  1.50000000E+00  8.00000000E-01
  8.00000000E-01  1.50000000E+00  8.00000000E-01  8.00000000E-01  1.50000000E+00
  8.00000000E-01  8.00000000E-01  1.50000000E+00  8.00000000E-01  8.00000000E-01
  1.50000000E+00  8.00000000E-01  8.00000000E-01  1.50000000E+00  8.00000000E-01
  8.00000000E-01  1.50000000E+00  8.00000000E-01  8.00000000E-01  1.50000000E+00
  8.00000000E-01  8.00000000E-01  1.50000000E+00  8.00000000E-01  8.00000000E-01
  1.50000000E+00  8.00000000E-01  8.00000000E-01  1.50000000E+00  8.00000000E-01
  8.00000000E-01  1.50000000E+00  8.00000000E-01  8.00000000E-01  1.50000000E+00
  8.00000000E-01  8.00000000E-01  1.50000000E+00  8.00000000E-01  8.00000000E-01
  1.50000000E+00  8.00000000E-01  8.00000000E-01  1.50000000E+00  8.00000000E-01
  8.00000000E-01  1.50000000E+00  8.00000000E-01  8.00000000E-01  1.50000000E+00
  8.00000000E-01  8.00000000E-01  1.50000000E+00  8.00000000E-01  8.00000000E-01
  1.50000000E+00  8.00000000E-01  8.00000000E-01  1.50000000E+00  8.00000000E-01
  8.00000000E-01  1.50000000E+00  8.00000000E-01  8.00000000E-01  1.50000000E+00
  8.00000000E-01  8.00000000E-01  1.50000000E+00  8.00000000E-01  8.00000000E-01
  1.50000000E+00  8.00000000E-01  8.00000000E-01  1.50000000E+00  8.00000000E-01
  8.00000000E-01  1.50000000E+00  8.00000000E-01  8.00000000E-01  1.50000000E+00
  8.00000000E-01  8.00000000E-01  1.50000000E+00  8.00000000E-01  8.00000000E-01
  1.50000000E+00  8.00000000E-01  8.00000000E-01  1.50000000E+00  8.00000000E-01
  8.00000000E-01  1.50000000E+00  8.00000000E-01  8.00000000E-01  1.50000000E+00
  8.00000000E-01  8.00000000E-01  1.50000000E+00  8.00000000E-01  8.00000000E-01
  1.50000000E+00  8.00000000E-01  8.00000000E-01  1.50000000E+00  8.00000000E-01
  8.00000000E-01  1.50000000E+00  8.00000000E-01  8.00000000E-01  1.50000000E+00
  8.00000000E-01  8.00000000E-01  1.50000000E+00  8.00000000E-01  8.00000000E-01
  1.50000000E+00  8.00000000E-01  8.00000000E-01  1.50000000E+00  8.00000000E-01
  8.00000000E-01  1.50000000E+00  8.00000000E-01  8.00000000E-01  1.50000000E+00
  8.00000000E-01  8.00000000E-01  1.50000000E+00  8.00000000E-01  8.00000000E-01
  1.50000000E+00  8.00000000E-01  8.00000000E-01  1.50000000E+00  8.00000000E-01
  8.00000000E-01  1.50000000E+00  8.00000000E-01  8.00000000E-01  1.50000000E+00
  8.00000000E-01  8.00000000E-01  1.50000000E+00  8.00000000E-01  8.00000000E-01
  1.50000000E+00  8.00000000E-01  8.00000000E-01  1.50000000E+00  8.00000000E-01
  8.00000000E-01  1.50000000E+00  8.00000000E-01  8.00000000E-01  1.50000000E+00
  8.00000000E-01  8.00000000E-01  1.50000000E+00  8.00000000E-01  8.00000000E-01
  1.50000000E+00  8.00000000E-01  8.00000000E-01  1.50000000E+00  8.00000000E-01
  8.00000000E-01  1.50000000E+00  8.00000000E-01  8.00000000E-01  1.50000000E+00
  8.00000000E-01  8.00000000E-01  1.50000000E+00  8.00000000E-01  8.00000000E-01
  1.50000000E+00  8.00000000E-01  8.00000000E-01  1.50000000E+00  8.00000000E-01
  8.00000000E-01  1.50000000E+00  8.00000000E-01  8.00000000E-01  1.50000000E+00
  8.00000000E-01  8.00000000E-01  1.50000000E+00  8.00000000E-01  8.00000000E-01
  1.50000000E+00  8.00000000E-01  8.00000000E-01  1.50000000E+00  8.00000000E-01
  8.00000000E-01  1.50000000E+00  8.00000000E-01  8.00000000E-01  1.50000000E+00
  8.00000000E-01  8.00000000E-01  1.50000000E+00  8.00000000E-01  8.00000000E-01
  1.50000000E+00  8.00000000E-01  8.00000000E-01  1.50000000E+00  8.00000000E-01
  8.00000000E-01  1.50000000E+00  8.00000000E-01  8.00000000E-01  1.50000000E+00
  8.00000000E-01  8.00000000E-01  1.50000000E+00  8.00000000E-01  8.00000000E-01
  1.50000000E+00  8.00000000E-01  8.00000000E-01  1.50000000E+00  8.00000000E-01
  8.00000000E-01  1.50000000E+00  8.00000000E-01  8.00000000E-01  1.50000000E+00
  8.00000000E-01  8.00000000E-01  1.50000000E+00  8.00000000E-01  8.00000000E-01
  1.50000000E+00  8.00000000E-01  8.00000000E-01  1.50000000E+00  8.00000000E-01
  8.00000000E-01  1.50000000E+00  8.00000000E-01  8.00000000E-01  1.50000000E+00
  8.00000000E-01  8.00000000E-01  1.50000000E+00  8.00000000E-01  8.00000000E-01
  1.50000000E+00  8.00000000E-01  8.00000000E-01  1.50000000E+00  8.00000000E-01
  8.00000000E-01  1.50000000E+00  8.00000000E-01  8.00000000E-01  1.50000000E+00
  8.00000000E-01  8.00000000E-01  1.50000000E+00  8.00000000E-01  8.00000000E-01
  1.50000000E+00  8.00000000E-01  8.00000000E-01  1.50000000E+00  8.00000000E-01
  8.00000000E-01  1.50000000E+00  8.00000000E-01  8.00000000E-01  1.50000000E+00
  8.00000000E-01  8.00000000E-01  1.50000000E+00  8.00000000E-01  8.00000000E-01
  1.50000000E+00  8.00000000E-01  8.00000000E-01  1.50000000E+00  8.00000000E-01
  8.00000000E-01  1.50000000E+00  8.00000000E-01  8.00000000E-01  1.50000000E+00
  8.00000000E-01  8.00000000E-01  1.50000000E+00  8.00000000E-01  8.00000000E-01
  1.50000000E+00  8.00000000E-01  8.00000000E-01  1.50000000E+00  8.00000000E-01
  8.00000000E-01  1.50000000E+00  8.00000000E-01  8.00000000E-01  1.50000000E+00
  8.00000000E-01  8.00000000E-01  1.50000000E+00  8.00000000E-01  8.00000000E-01
  1.50000000E+00  8.00000000E-01  8.00000000E-01  1.50000000E+00  8.00000000E-01
  8.00000000E-01  1.50000000E+00  8.00000000E-01  8.00000000E-01  1.50000000E+00
  8.00000000E-01  8.00000000E-01  1.50000000E+00  8.00000000E-01  8.00000000E-01
  1.50000000E+00  8.00000000E-01  8.00000000E-01  1.50000000E+00  8.00000000E-01
  8.00000000E-01  1.50000000E+00  8.00000000E-01  8.00000000E-01  1.50000000E+00
  8.00000000E-01  8.00000000E-01  1.50000000E+00  8.00000000E-01  8.00000000E-01
  1.50000000E+00  8.00000000E-01  8.00000000E-01  1.50000000E+00  8.00000000E-01
  8.00000000E-01  1.50000000E+00  8.00000000E-01  8.00000000E-01  1.50000000E+00
  8.00000000E-01  8.00000000E-01  1.50000000E+00  8.00000000E-01  8.00000000E-01
  1.50000000E+00  8.00000000E-01  8.00000000E-01  1.50000000E+00  8.00000000E-01
  8.00000000E-01  1.50000000E+00  8.00000000E-01  8.00000000E-01  1.50000000E+00
  8.00000000E-01  8.00000000E-01  1.50000000E+00  8.00000000E-01  8.00000000E-01
  1.50000000E+00  8.00000000E-01  8.00000000E-01  1.50000000E+00  8.00000000E-01
  8.00000000E-01  1.50000000E+00  8.00000000E-01  8.00000000E-01  1.50000000E+00
  8.00000000E-01  8.00000000E-01  1.50000000E+00  8.00000000E-01  8.00000000E-01
  1.50000000E+00  8.00000000E-01  8.00000000E-01  1.50000000E+00  8.00000000E-01
  8.00000000E-01  1.50000000E+00  8.00000000E-01  8.00000000E-01  1.50000000E+00
  8.00000000E-01  8.00000000E-01  1.50000000E+00  8.00000000E-01  8.00000000E-01
  1.50000000E+00  8.00000000E-01  8.00000000E-01  1.50000000E+00  8.00000000E-01
  8.00000000E-01  1.50000000E+00  8.00000000E-01  8.00000000E-01  1.50000000E+00
  8.00000000E-01  8.00000000E-01  1.50000000E+00  8.00000000E-01  8.00000000E-01
  1.50000000E+00  8.00000000E-01  8.00000000E-01  1.50000000E+00  8.00000000E-01
  8.00000000E-01  1.50000000E+00  8.00000000E-01  8.00000000E-01  1.50000000E+00
  8.00000000E-01  8.00000000E-01  1.50000000E+00  8.00000000E-01  8.00000000E-01
  1.50000000E+00  8.00000000E-01  8.00000000E-01  1.50000000E+00  8.00000000E-01
  8.00000000E-01  1.50000000E+00  8.00000000E-01  8.00000000E-01  1.50000000E+00
  8.00000000E-01  8.00000000E-01  1.50000000E+00  8.00000000E-01  8.00000000E-01
  1.50000000E+00  8.00000000E-01  8.00000000E-01  1.50000000E+00  8.00000000E-01
  8.00000000E-01  1.50000000E+00  8.00000000E-01  8.00000000E-01  1.50000000E+00
  8.00000000E-01  8.00000000E-01  1.50000000E+00  8.00000000E-01  8.00000000E-01
  1.50000000E+00  8.00000000E-01  8.00000000E-01  1.50000000E+00  8.00000000E-01
  8.00000000E-01  1.50000000E+00  8.00000000E-01  8.00000000E-01  1.50000000E+00
  8.00000000E-01  8.00000000E-01  1.50000000E+00  8.00000000E-01  8.00000000E-01
  1.50000000E+00  8.00000000E-01  8.00000000E-01  1.50000000E+00  8.00000000E-01
  8.00000000E-01  1.50000000E+00  8.00000000E-01  8.00000000E-01  1.50000000E+00
  8.00000000E-01  8.00000000E-01  1.50000000E+00  8.00000000E-01  8.00000000E-01
  1.50000000E+00  8.00000000E-01  8.00000000E-01  1.50000000E+00  8.00000000E-01
  8.00000000E-01  1.50000000E+00  8.00000000E-01  8.00000000E-01  1.50000000E+00
  8.00000000E-01  8.00000000E-01  1.50000000E+00  8.00000000E-01  8.00000000E-01
  1.50000000E+00  8.00000000E-01  8.00000000E-01  1.50000000E+00  8.00000000E-01
  8.00000000E-01  1.50000000E+00  8.00000000E-01  8.00000000E-01  1.50000000E+00
  8.00000000E-01  8.00000000E-01  1.50000000E+00  8.00000000E-01  8.00000000E-01
  1.50000000E+00  8.00000000E-01  8.00000000E-01  1.50000000E+00  8.00000000E-01
  8.00000000E-01  1.50000000E+00  8.00000000E-01  8.00000000E-01  1.50000000E+00
  8.00000000E-01  8.00000000E-01  1.50000000E+00  8.00000000E-01  8.00000000E-01
  1.50000000E+00  8.00000000E-01  8.00000000E-01  1.50000000E+00  8.00000000E-01
  8.00000000E-01  1.50000000E+00  8.00000000E-01  8.00000000E-01  1.50000000E+00
  8.00000000E-01  8.00000000E-01  1.50000000E+00  8.00000000E-01  8.00000000E-01
  1.50000000E+00  8.00000000E-01  8.00000000E-01  1.50000000E+00  8.00000000E-01
  8.00000000E-01  1.50000000E+00  8.00000000E-01  8.00000000E-01  1.50000000E+00
  8.00000000E-01  8.00000000E-01  1.50000000E+00  8.00000000E-01  8.00000000E-01
  1.50000000E+00  8.00000000E-01  8.00000000E-01  1.50000000E+00  8.00000000E-01
  8.00000000E-01  1.50000000E+00  8.00000000E-01  8.00000000E-01  1.50000000E+00
  8.00000000E-01  8.00000000E-01  1.50000000E+00  8.00000000E-01  8.00000000E-01
  1.50000000E+00  8.00000000E-01  8.00000000E-01  1.50000000E+00  8.00000000E-01
  8.00000000E-01  1.50000000E+00  8.00000000E-01  8.00000000E-01  1.50000000E+00
  8.00000000E-01  8.00000000E-01  1.50000000E+00  8.00000000E-01  8.00000000E-01
  1.50000000E+00  8.00000000E-01  8.00000000E-01  1.50000000E+00  8.00000000E-01
  8.00000000E-01  1.50000000E+00  8.00000000E-01  8.00000000E-01  1.50000000E+00
  8.00000000E-01  8.00000000E-01  1.50000000E+00  8.00000000E-01  8.00000000E-01
  1.50000000E+00  8.00000000E-01  8.00000000E-01  1.50000000E+00  8.00000000E-01
  8.00000000E-01  1.50000000E+00  8.00000000E-01  8.00000000E-01  1.50000000E+00
  8.00000000E-01  8.00000000E-01  1.50000000E+00  8.00000000E-01  8.00000000E-01
  1.50000000E+00  8.00000000E-01  8.00000000E-01  1.50000000E+00  8.00000000E-01
  8.00000000E-01  1.50000000E+00  8.00000000E-01  8.00000000E-01  1.50000000E+00
  8.00000000E-01  8.00000000E-01  1.50000000E+00  8.00000000E-01  8.00000000E-01
  1.50000000E+00  8.00000000E-01  8.00000000E-01  1.50000000E+00  8.00000000E-01
  8.00000000E-01  1.50000000E+00  8.00000000E-01  8.00000000E-01  1.50000000E+00
  8.00000000E-01  8.00000000E-01  1.50000000E+00  8.00000000E-01  8.00000000E-01
  1.50000000E+00  8.00000000E-01  8.00000000E-01  1.50000000E+00  8.00000000E-01
  8.00000000E-01  1.50000000E+00  8.00000000E-01  8.00000000E-01  1.50000000E+00
  8.00000000E-01  8.00000000E-01  1.50000000E+00  8.00000000E-01  8.00000000E-01
  1.50000000E+00  8.00000000E-01  8.00000000E-01  1.50000000E+00  8.00000000E-01
  8.00000000E-01  1.50000000E+00  8.00000000E-01  8.00000000E-01  1.50000000E+00
  8.00000000E-01  8.00000000E-01  1.50000000E+00  8.00000000E-01  8.00000000E-01
  1.50000000E+00  8.00000000E-01  8.00000000E-01  1.50000000E+00  8.00000000E-01
  8.00000000E-01  1.50000000E+00  8.00000000E-01  8.00000000E-01  1.50000000E+00
  8.00000000E-01  8.00000000E-01  1.50000000E+00  8.00000000E-01  8.00000000E-01
  1.50000000E+00  8.00000000E-01  8.00000000E-01  1.50000000E+00  8.00000000E-01
  8.00000000E-01  1.50000000E+00  8.00000000E-01  8.00000000E-01  1.50000000E+00
  8.00000000E-01  8.00000000E-01  1.50000000E+00  8.00000000E-01  8.00000000E-01
  1.50000000E+00  8.00000000E-01  8.00000000E-01  1.50000000E+00  8.00000000E-01
  8.00000000E-01  1.50000000E+00  8.00000000E-01  8.00000000E-01  1.50000000E+00
  8.00000000E-01  8.00000000E-01  1.50000000E+00  8.00000000E-01  8.00000000E-01
  1.50000000E+00  8.00000000E-01  8.00000000E-01  1.50000000E+00  8.00000000E-01
  8.00000000E-01  1.50000000E+00  8.00000000E-01  8.00000000E-01  1.50000000E+00
  8.00000000E-01  8.00000000E-01  1.50000000E+00  8.00000000E-01  8.00000000E-01
  1.50000000E+00  8.00000000E-01  8.00000000E-01  1.50000000E+00  8.00000000E-01
  8.00000000E-01  1.50000000E+00  8.00000000E-01  8.00000000E-01  1.50000000E+00
  8.00000000E-01  8.00000000E-01  1.50000000E+00  8.00000000E-01  8.00000000E-01
  1.50000000E+00  8.00000000E-01  8.00000000E-01  1.50000000E+00  8.00000000E-01
  8.00000000E-01  1.50000000E+00  8.00000000E-01  8.00000000E-01  1.50000000E+00
  8.00000000E-01  8.00000000E-01  1.50000000E+00  8.00000000E-01  8.00000000E-01
  1.50000000E+00  8.00000000E-01  8.00000000E-01  1.50000000E+00  8.00000000E-01
  8.00000000E-01  1.50000000E+00  8.00000000E-01  8.00000000E-01  1.50000000E+00
  8.00000000E-01  8.00000000E-01  1.50000000E+00  8.00000000E-01  8.00000000E-01
  1.50000000E+00  8.00000000E-01  8.00000000E-01  1.50000000E+00  8.00000000E-01
  8.00000000E-01  1.50000000E+00  8.00000000E-01  8.00000000E-01  1.50000000E+00
  8.00000000E-01  8.00000000E-01  1.50000000E+00  8.00000000E-01  8.00000000E-01
  1.50000000E+00  8.00000000E-01  8.00000000E-01  1.50000000E+00  8.00000000E-01
  8.00000000E-01  1.50000000E+00  8.00000000E-01  8.00000000E-01  1.50000000E+00
  8.00000000E-01  8.00000000E-01  1.50000000E+00  8.00000000E-01  8.00000000E-01
  1.50000000E+00  8.00000000E-01  8.00000000E-01  1.50000000E+00  8.00000000E-01
  8.00000000E-01  1.50000000E+00  8.00000000E-01  8.00000000E-01  1.50000000E+00
  8.00000000E-01  8.00000000E-01  1.50000000E+00  8.00000000E-01  8.00000000E-01
  1.50000000E+00  8.00000000E-01  8.00000000E-01  1.50000000E+00  8.00000000E-01
  8.00000000E-01  1.50000000E+00  8.00000000E-01  8.00000000E-01  1.50000000E+00
  8.00000000E-01  8.00000000E-01  1.50000000E+00  8.00000000E-01  8.00000000E-01
  1.50000000E+00  8.00000000E-01  8.00000000E-01  1.50000000E+00  8.00000000E-01
  8.00000000E-01  1.50000000E+00  8.00000000E-01  8.00000000E-01  1.50000000E+00
  8.00000000E-01  8.00000000E-01  1.50000000E+00  8.00000000E-01  8.00000000E-01
  1.50000000E+00  8.00000000E-01  8.00000000E-01  1.50000000E+00  8.00000000E-01
  8.00000000E-01  1.50000000E+00  8.00000000E-01  8.00000000E-01  1.50000000E+00
  8.00000000E-01  8.00000000E-01  1.50000000E+00  8.00000000E-01  8.00000000E-01
  1.50000000E+00  8.00000000E-01  8.00000000E-01  1.50000000E+00  8.00000000E-01
  8.00000000E-01  1.50000000E+00  8.00000000E-01  8.00000000E-01  1.50000000E+00
  8.00000000E-01  8.00000000E-01  1.50000000E+00  8.00000000E-01  8.00000000E-01
  1.50000000E+00  8.00000000E-01  8.00000000E-01  1.50000000E+00  8.00000000E-01
  8.00000000E-01  1.50000000E+00  8.00000000E-01  8.00000000E-01  1.50000000E+00
  8.00000000E-01  8.00000000E-01  1.50000000E+00  8.00000000E-01  8.00000000E-01
  1.50000000E+00  8.00000000E-01  8.00000000E-01  1.50000000E+00  8.00000000E-01
  8.00000000E-01  1.50000000E+00  8.00000000E-01  8.00000000E-01  1.50000000E+00
  8.00000000E-01  8.00000000E-01  1.50000000E+00  8.00000000E-01  8.00000000E-01
  1.50000000E+00  8.00000000E-01  8.00000000E-01  1.50000000E+00  8.00000000E-01
  8.00000000E-01  1.50000000E+00  8.00000000E-01  8.00000000E-01  1.50000000E+00
  8.00000000E-01  8.00000000E-01  1.50000000E+00  8.00000000E-01  8.00000000E-01
  1.50000000E+00  8.00000000E-01  8.00000000E-01  1.50000000E+00  8.00000000E-01
  8.00000000E-01  1.50000000E+00  8.00000000E-01  8.00000000E-01  1.50000000E+00
  8.00000000E-01  8.00000000E-01  1.50000000E+00  8.00000000E-01  8.00000000E-01
  1.50000000E+00  8.00000000E-01  8.00000000E-01  1.50000000E+00  8.00000000E-01
  8.00000000E-01  1.50000000E+00  8.00000000E-01  8.00000000E-01  1.50000000E+00
  8.00000000E-01  8.00000000E-01  1.50000000E+00  8.00000000E-01  8.00000000E-01
  1.50000000E+00  8.00000000E-01  8.00000000E-01  1.50000000E+00  8.00000000E-01
  8.00000000E-01  1.50000000E+00  8.00000000E-01  8.00000000E-01  1.50000000E+00
  8.00000000E-01  8.00000000E-01  1.50000000E+00  8.00000000E-01  8.00000000E-01
  1.50000000E+00  8.00000000E-01  8.00000000E-01  1.50000000E+00  8.00000000E-01
  8.00000000E-01  1.50000000E+00  8.00000000E-01  8.00000000E-01  1.50000000E+00
  8.00000000E-01  8.00000000E-01  1.50000000E+00  8.00000000E-01  8.00000000E-01
  1.50000000E+00  8.00000000E-01  8.00000000E-01  1.50000000E+00  8.00000000E-01
  8.00000000E-01  1.50000000E+00  8.00000000E-01  8.00000000E-01  1.50000000E+00
  8.00000000E-01  8.00000000E-01  1.50000000E+00  8.00000000E-01  8.00000000E-01
  1.50000000E+00  8.00000000E-01  8.00000000E-01  1.50000000E+00  8.00000000E-01
  8.00000000E-01  1.50000000E+00  8.00000000E-01  8.00000000E-01  1.50000000E+00
  8.00000000E-01  8.00000000E-01  1.50000000E+00  8.00000000E-01  8.00000000E-01
  1.50000000E+00  8.00000000E-01  8.00000000E-01  1.50000000E+00  8.00000000E-01
  8.00000000E-01  1.50000000E+00  8.00000000E-01  8.00000000E-01  1.50000000E+00
  8.00000000E-01  8.00000000E-01  1.50000000E+00  8.00000000E-01  8.00000000E-01
  1.50000000E+00  8.00000000E-01  8.00000000E-01  1.50000000E+00  8.00000000E-01
  8.00000000E-01  1.50000000E+00  8.00000000E-01  8.00000000E-01  1.50000000E+00
  8.00000000E-01  8.00000000E-01  1.50000000E+00  8.00000000E-01  8.00000000E-01
  1.50000000E+00  8.00000000E-01  8.00000000E-01  1.50000000E+00  8.00000000E-01
  8.00000000E-01  1.50000000E+00  8.00000000E-01  8.00000000E-01  1.50000000E+00
  8.00000000E-01  8.00000000E-01  1.50000000E+00  8.00000000E-01  8.00000000E-01
  1.50000000E+00  8.00000000E-01  8.00000000E-01  1.50000000E+00  8.00000000E-01
  8.00000000E-01  1.50000000E+00  8.00000000E-01  8.00000000E-01  1.50000000E+00
  8.00000000E-01  8.00000000E-01  1.50000000E+00  8.00000000E-01  8.00000000E-01
  1.50000000E+00  8.00000000E-01  8.00000000E-01  1.50000000E+00  8.00000000E-01
  8.00000000E-01  1.50000000E+00  8.00000000E-01  8.00000000E-01  1.50000000E+00
  8.00000000E-01  8.00000000E-01  1.50000000E+00  8.00000000E-01  8.00000000E-01
  1.50000000E+00  8.00000000E-01  8.00000000E-01  1.50000000E+00  8.00000000E-01
  8.00000000E-01  1.50000000E+00  8.00000000E-01  8.00000000E-01  1.50000000E+00
  8.00000000E-01  8.00000000E-01  1.50000000E+00  8.00000000E-01  8.00000000E-01
  1.50000000E+00  8.00000000E-01  8.00000000E-01  1.50000000E+00  8.00000000E-01
  8.00000000E-01  1.50000000E+00  8.00000000E-01  8.00000000E-01  1.50000000E+00
  8.00000000E-01  8.00000000E-01  1.50000000E+00  8.00000000E-01  8.00000000E-01
  1.50000000E+00  8.00000000E-01  8.00000000E-01  1.50000000E+00  8.00000000E-01
  8.00000000E-01  1.50000000E+00  8.00000000E-01  8.00000000E-01  1.50000000E+00
  8.00000000E-01  8.00000000E-01  1.50000000E+00  8.00000000E-01  8.00000000E-01
  1.50000000E+00  8.00000000E-01  8.00000000E-01  1.50000000E+00  8.00000000E-01
  8.00000000E-01  1.50000000E+00  8.00000000E-01  8.00000000E-01  1.50000000E+00
  8.00000000E-01  8.00000000E-01  1.50000000E+00  8.00000000E-01  8.00000000E-01
  1.50000000E+00  8.00000000E-01  8.00000000E-01  1.50000000E+00  8.00000000E-01
  8.00000000E-01  1.50000000E+00  8.00000000E-01  8.00000000E-01  1.50000000E+00
  8.00000000E-01  8.00000000E-01  1.50000000E+00  8.00000000E-01  8.00000000E-01
  1.50000000E+00  8.00000000E-01  8.00000000E-01  1.50000000E+00  8.00000000E-01
  8.00000000E-01  1.50000000E+00  8.00000000E-01  8.00000000E-01  1.50000000E+00
  8.00000000E-01  8.00000000E-01  1.50000000E+00  8.00000000E-01  8.00000000E-01
  1.50000000E+00  8.00000000E-01  8.00000000E-01  1.50000000E+00  8.00000000E-01
  8.00000000E-01  1.50000000E+00  8.00000000E-01  8.00000000E-01  1.50000000E+00
  8.00000000E-01  8.00000000E-01  1.50000000E+00  8.00000000E-01  8.00000000E-01
  1.50000000E+00  8.00000000E-01  8.00000000E-01  1.50000000E+00  8.00000000E-01
  8.00000000E-01  1.50000000E+00  8.00000000E-01  8.00000000E-01  1.50000000E+00
  8.00000000E-01  8.00000000E-01  1.50000000E+00  8.00000000E-01  8.00000000E-01
  1.50000000E+00  8.00000000E-01  8.00000000E-01  1.50000000E+00  8.00000000E-01
  8.00000000E-01  1.50000000E+00  8.00000000E-01  8.00000000E-01  1.50000000E+00
  8.00000000E-01  8.00000000E-01  1.50000000E+00  8.00000000E-01  8.00000000E-01
  1.50000000E+00  8.00000000E-01  8.00000000E-01  1.50000000E+00  8.00000000E-01
  8.00000000E-01  1.50000000E+00  8.00000000E-01  8.00000000E-01  1.50000000E+00
  8.00000000E-01  8.00000000E-01  1.50000000E+00  8.00000000E-01  8.00000000E-01
  1.50000000E+00  8.00000000E-01  8.00000000E-01  1.50000000E+00  8.00000000E-01
  8.00000000E-01  1.50000000E+00  8.00000000E-01  8.00000000E-01  1.50000000E+00
  8.00000000E-01  8.00000000E-01  1.50000000E+00  8.00000000E-01  8.00000000E-01
  1.50000000E+00  8.00000000E-01  8.00000000E-01  1.50000000E+00  8.00000000E-01
  8.00000000E-01  1.50000000E+00  8.00000000E-01  8.00000000E-01  1.50000000E+00
  8.00000000E-01  8.00000000E-01  1.50000000E+00  8.00000000E-01  8.00000000E-01
  1.50000000E+00  8.00000000E-01  8.00000000E-01  1.50000000E+00  8.00000000E-01
  8.00000000E-01  1.50000000E+00  8.00000000E-01  8.00000000E-01  1.50000000E+00
  8.00000000E-01  8.00000000E-01  1.50000000E+00  8.00000000E-01  8.00000000E-01
  1.50000000E+00  8.00000000E-01  8.00000000E-01  1.50000000E+00  8.00000000E-01
  8.00000000E-01  1.50000000E+00  8.00000000E-01  8.00000000E-01  1.50000000E+00
  8.00000000E-01  8.00000000E-01  1.50000000E+00  8.00000000E-01  8.00000000E-01
  1.50000000E+00  8.00000000E-01  8.00000000E-01  1.50000000E+00  8.00000000E-01
  8.00000000E-01  1.50000000E+00  8.00000000E-01  8.00000000E-01  1.50000000E+00
  8.00000000E-01  8.00000000E-01  1.50000000E+00  8.00000000E-01  8.00000000E-01
  1.50000000E+00  8.00000000E-01  8.00000000E-01  1.50000000E+00  8.00000000E-01
  8.00000000E-01  1.50000000E+00  8.00000000E-01  8.00000000E-01  1.50000000E+00
  8.00000000E-01  8.00000000E-01  1.50000000E+00  8.00000000E-01  8.00000000E-01
  1.50000000E+00  8.00000000E-01  8.00000000E-01  1.50000000E+00  8.00000000E-01
  8.00000000E-01  1.50000000E+00  8.00000000E-01  8.00000000E-01  1.50000000E+00
  8.00000000E-01  8.00000000E-01  1.50000000E+00  8.00000000E-01  8.00000000E-01
  1.50000000E+00  8.00000000E-01  8.00000000E-01  1.50000000E+00  8.00000000E-01
  8.00000000E-01  1.50000000E+00  8.00000000E-01  8.00000000E-01  1.50000000E+00
  8.00000000E-01  8.00000000E-01  1.50000000E+00  8.00000000E-01  8.00000000E-01
  1.50000000E+00  8.00000000E-01  8.00000000E-01  1.50000000E+00  8.00000000E-01
  8.00000000E-01  1.50000000E+00  8.00000000E-01  8.00000000E-01  1.50000000E+00
  8.00000000E-01  8.00000000E-01  1.50000000E+00  8.00000000E-01  8.00000000E-01
  1.50000000E+00  8.00000000E-01  8.00000000E-01  1.50000000E+00  8.00000000E-01
  8.00000000E-01  1.50000000E+00  8.00000000E-01  8.00000000E-01  1.50000000E+00
  8.00000000E-01  8.00000000E-01  1.50000000E+00  8.00000000E-01  8.00000000E-01
  1.50000000E+00  8.00000000E-01  8.00000000E-01  1.50000000E+00  8.00000000E-01
  8.00000000E-01  1.50000000E+00  8.00000000E-01  8.00000000E-01  1.50000000E+00
  8.00000000E-01  8.00000000E-01  1.50000000E+00  8.00000000E-01  8.00000000E-01
  1.50000000E+00  8.00000000E-01  8.00000000E-01  1.50000000E+00  8.00000000E-01
  8.00000000E-01  1.50000000E+00  8.00000000E-01  8.00000000E-01  1.50000000E+00
  8.00000000E-01  8.00000000E-01  1.50000000E+00  8.00000000E-01  8.00000000E-01
  1.50000000E+00  8.00000000E-01  8.00000000E-01  1.50000000E+00  8.00000000E-01
  8.00000000E-01  1.50000000E+00  8.00000000E-01  8.00000000E-01  1.50000000E+00
  8.00000000E-01  8.00000000E-01  1.50000000E+00  8.00000000E-01  8.00000000E-01
  1.50000000E+00  8.00000000E-01  8.00000000E-01  1.50000000E+00  8.00000000E-01
  8.00000000E-01  1.50000000E+00  8.00000000E-01  8.00000000E-01  1.50000000E+00
  8.00000000E-01  8.00000000E-01  1.50000000E+00  8.00000000E-01  8.00000000E-01
  1.50000000E+00  8.00000000E-01  8.00000000E-01  1.50000000E+00  8.00000000E-01
  8.00000000E-01  1.50000000E+00  8.00000000E-01  8.00000000E-01  1.50000000E+00
  8.00000000E-01  8.00000000E-01  1.50000000E+00  8.00000000E-01  8.00000000E-01
  1.50000000E+00  8.00000000E-01  8.00000000E-01  1.50000000E+00  8.00000000E-01
  8.00000000E-01  1.50000000E+00  8.00000000E-01  8.00000000E-01  1.50000000E+00
  8.00000000E-01  8.00000000E-01  1.50000000E+00  8.00000000E-01  8.00000000E-01
  1.50000000E+00  8.00000000E-01  8.00000000E-01  1.50000000E+00  8.00000000E-01
  8.00000000E-01  1.50000000E+00  8.00000000E-01  8.00000000E-01  1.50000000E+00
  8.00000000E-01  8.00000000E-01  1.50000000E+00  8.00000000E-01  8.00000000E-01
  1.50000000E+00  8.00000000E-01  8.00000000E-01  1.50000000E+00  8.00000000E-01
  8.00000000E-01  1.50000000E+00  8.00000000E-01  8.00000000E-01  1.50000000E+00
  8.00000000E-01  8.00000000E-01  1.50000000E+00  8.00000000E-01  8.00000000E-01
  1.50000000E+00  8.00000000E-01  8.00000000E-01  1.50000000E+00  8.00000000E-01
  8.00000000E-01  1.50000000E+00  8.00000000E-01  8.00000000E-01  1.50000000E+00
  8.00000000E-01  8.00000000E-01  1.50000000E+00  8.00000000E-01  8.00000000E-01
  1.50000000E+00  8.00000000E-01  8.00000000E-01  1.50000000E+00  8.00000000E-01
  8.00000000E-01  1.50000000E+00  8.00000000E-01  8.00000000E-01  1.50000000E+00
  8.00000000E-01  8.00000000E-01  1.50000000E+00  8.00000000E-01  8.00000000E-01
  1.50000000E+00  8.00000000E-01  8.00000000E-01  1.50000000E+00  8.00000000E-01
  8.00000000E-01  1.50000000E+00  8.00000000E-01  8.00000000E-01  1.50000000E+00
  8.00000000E-01  8.00000000E-01  1.50000000E+00  8.00000000E-01  8.00000000E-01
  1.50000000E+00  8.00000000E-01  8.00000000E-01  1.50000000E+00  8.00000000E-01
  8.00000000E-01  1.50000000E+00  8.00000000E-01  8.00000000E-01  1.50000000E+00
  8.00000000E-01  8.00000000E-01  1.50000000E+00  8.00000000E-01  8.00000000E-01
  1.50000000E+00  8.00000000E-01  8.00000000E-01  1.50000000E+00  8.00000000E-01
  8.00000000E-01  1.50000000E+00  8.00000000E-01  8.00000000E-01  1.50000000E+00
  8.00000000E-01  8.00000000E-01  1.50000000E+00  8.00000000E-01  8.00000000E-01
  1.50000000E+00  8.00000000E-01  8.00000000E-01  1.50000000E+00  8.00000000E-01
  8.00000000E-01  1.50000000E+00  8.00000000E-01  8.00000000E-01  1.50000000E+00
  8.00000000E-01  8.00000000E-01  1.50000000E+00  8.00000000E-01  8.00000000E-01
  1.50000000E+00  8.00000000E-01  8.00000000E-01  1.50000000E+00  8.00000000E-01
  8.00000000E-01  1.50000000E+00  8.00000000E-01  8.00000000E-01  1.50000000E+00
  8.00000000E-01  8.00000000E-01  1.50000000E+00  8.00000000E-01  8.00000000E-01
  1.50000000E+00  8.00000000E-01  8.00000000E-01  1.50000000E+00  8.00000000E-01
  8.00000000E-01  1.50000000E+00  8.00000000E-01  8.00000000E-01  1.50000000E+00
  8.00000000E-01  8.00000000E-01  1.50000000E+00  8.00000000E-01  8.00000000E-01
  1.50000000E+00  8.00000000E-01  8.00000000E-01  1.50000000E+00  8.00000000E-01
  8.00000000E-01  1.50000000E+00  8.00000000E-01  8.00000000E-01  1.50000000E+00
  8.00000000E-01  8.00000000E-01  1.50000000E+00  8.00000000E-01  8.00000000E-01
  1.50000000E+00  8.00000000E-01  8.00000000E-01  1.50000000E+00  8.00000000E-01
  8.00000000E-01  1.50000000E+00  8.00000000E-01  8.00000000E-01  1.50000000E+00
  8.00000000E-01  8.00000000E-01  1.50000000E+00  8.00000000E-01  8.00000000E-01
  1.50000000E+00  8.00000000E-01  8.00000000E-01  1.50000000E+00  8.00000000E-01
  8.00000000E-01  1.50000000E+00  8.00000000E-01  8.00000000E-01  1.50000000E+00
  8.00000000E-01  8.00000000E-01  1.50000000E+00  8.00000000E-01  8.00000000E-01
  1.50000000E+00  8.00000000E-01  8.00000000E-01  1.50000000E+00  8.00000000E-01
  8.00000000E-01  1.50000000E+00  8.00000000E-01  8.00000000E-01  1.50000000E+00
  8.00000000E-01  8.00000000E-01  1.50000000E+00  8.00000000E-01  8.00000000E-01
  1.50000000E+00  8.00000000E-01  8.00000000E-01  1.50000000E+00  8.00000000E-01
  8.00000000E-01  1.50000000E+00  8.00000000E-01  8.00000000E-01  1.50000000E+00
  8.00000000E-01  8.00000000E-01  1.50000000E+00  8.00000000E-01  8.00000000E-01
  1.50000000E+00  8.00000000E-01  8.00000000E-01  1.50000000E+00  8.00000000E-01
  8.00000000E-01  1.50000000E+00  8.00000000E-01  8.00000000E-01  1.50000000E+00
  8.00000000E-01  8.00000000E-01  1.50000000E+00  8.00000000E-01  8.00000000E-01
  1.50000000E+00  8.00000000E-01  8.00000000E-01  1.50000000E+00  8.00000000E-01
  8.00000000E-01  1.50000000E+00  8.00000000E-01  8.00000000E-01  1.50000000E+00
  8.00000000E-01  8.00000000E-01  1.50000000E+00  8.00000000E-01  8.00000000E-01
  1.50000000E+00  8.00000000E-01  8.00000000E-01  1.50000000E+00  8.00000000E-01
  8.00000000E-01  1.50000000E+00  8.00000000E-01  8.00000000E-01  1.50000000E+00
  8.00000000E-01  8.00000000E-01  1.50000000E+00  8.00000000E-01  8.00000000E-01
  1.50000000E+00  8.00000000E-01  8.00000000E-01  1.50000000E+00  8.00000000E-01
  8.00000000E-01  1.50000000E+00  8.00000000E-01  8.00000000E-01  1.50000000E+00
  8.00000000E-01  8.00000000E-01  1.50000000E+00  8.00000000E-01  8.00000000E-01
  1.50000000E+00  8.00000000E-01  8.00000000E-01  1.50000000E+00  8.00000000E-01
  8.00000000E-01  1.50000000E+00  8.00000000E-01  8.00000000E-01  1.50000000E+00
  8.00000000E-01  8.00000000E-01  1.50000000E+00  8.00000000E-01  8.00000000E-01
  1.50000000E+00  8.00000000E-01  8.00000000E-01  1.50000000E+00  8.00000000E-01
  8.00000000E-01  1.50000000E+00  8.00000000E-01  8.00000000E-01  1.50000000E+00
  8.00000000E-01  8.00000000E-01  1.50000000E+00  8.00000000E-01  8.00000000E-01
  1.50000000E+00  8.00000000E-01  8.00000000E-01  1.50000000E+00  8.00000000E-01
  8.00000000E-01  1.50000000E+00  8.00000000E-01  8.00000000E-01  1.50000000E+00
  8.00000000E-01  8.00000000E-01  1.50000000E+00  8.00000000E-01  8.00000000E-01
  1.50000000E+00  8.00000000E-01  8.00000000E-01  1.50000000E+00  8.00000000E-01
  8.00000000E-01  1.50000000E+00  8.00000000E-01  8.00000000E-01  1.50000000E+00
  8.00000000E-01  8.00000000E-01  1.50000000E+00  8.00000000E-01  8.00000000E-01
  1.50000000E+00  8.00000000E-01  8.00000000E-01  1.50000000E+00  8.00000000E-01
  8.00000000E-01  1.50000000E+00  8.00000000E-01  8.00000000E-01  1.50000000E+00
  8.00000000E-01  8.00000000E-01  1.50000000E+00  8.00000000E-01  8.00000000E-01
  1.50000000E+00  8.00000000E-01  8.00000000E-01  1.50000000E+00  8.00000000E-01
  8.00000000E-01  1.50000000E+00  8.00000000E-01  8.00000000E-01  1.50000000E+00
  8.00000000E-01  8.00000000E-01  1.50000000E+00  8.00000000E-01  8.00000000E-01
  1.50000000E+00  8.00000000E-01  8.00000000E-01  1.50000000E+00  8.00000000E-01
  8.00000000E-01  1.50000000E+00  8.00000000E-01  8.00000000E-01  1.50000000E+00
  8.00000000E-01  8.00000000E-01  1.50000000E+00  8.00000000E-01  8.00000000E-01
  1.50000000E+00  8.00000000E-01  8.00000000E-01  1.50000000E+00  8.00000000E-01
  8.00000000E-01  1.50000000E+00  8.00000000E-01  8.00000000E-01  1.50000000E+00
  8.00000000E-01  8.00000000E-01  1.50000000E+00  8.00000000E-01  8.00000000E-01
  1.50000000E+00  8.00000000E-01  8.00000000E-01  1.50000000E+00  8.00000000E-01
  8.00000000E-01  1.50000000E+00  8.00000000E-01  8.00000000E-01  1.50000000E+00
  8.00000000E-01  8.00000000E-01  1.50000000E+00  8.00000000E-01  8.00000000E-01
  1.50000000E+00  8.00000000E-01  8.00000000E-01  1.50000000E+00  8.00000000E-01
  8.00000000E-01  1.50000000E+00  8.00000000E-01  8.00000000E-01  1.50000000E+00
  8.00000000E-01  8.00000000E-01  1.50000000E+00  8.00000000E-01  8.00000000E-01
  1.50000000E+00  8.00000000E-01  8.00000000E-01  1.50000000E+00  8.00000000E-01
  8.00000000E-01  1.50000000E+00  8.00000000E-01  8.00000000E-01  1.50000000E+00
  8.00000000E-01  8.00000000E-01  1.50000000E+00  8.00000000E-01  8.00000000E-01
  1.50000000E+00  8.00000000E-01  8.00000000E-01  1.50000000E+00  8.00000000E-01
  8.00000000E-01  1.50000000E+00  8.00000000E-01  8.00000000E-01  1.50000000E+00
  8.00000000E-01  8.00000000E-01  1.50000000E+00  8.00000000E-01  8.00000000E-01
  1.50000000E+00  8.00000000E-01  8.00000000E-01  1.50000000E+00  8.00000000E-01
  8.00000000E-01  1.50000000E+00  8.00000000E-01  8.00000000E-01  1.50000000E+00
  8.00000000E-01  8.00000000E-01  1.50000000E+00  8.00000000E-01  8.00000000E-01
  1.50000000E+00  8.00000000E-01  8.00000000E-01  1.50000000E+00  8.00000000E-01
  8.00000000E-01  1.50000000E+00  8.00000000E-01  8.00000000E-01  1.50000000E+00
  8.00000000E-01  8.00000000E-01  1.50000000E+00  8.00000000E-01  8.00000000E-01
  1.50000000E+00  8.00000000E-01  8.00000000E-01  1.50000000E+00  8.00000000E-01
  8.00000000E-01  1.50000000E+00  8.00000000E-01  8.00000000E-01  1.50000000E+00
  8.00000000E-01  8.00000000E-01  1.50000000E+00  8.00000000E-01  8.00000000E-01
  1.50000000E+00  8.00000000E-01  8.00000000E-01  1.50000000E+00  8.00000000E-01
  8.00000000E-01  1.50000000E+00  8.00000000E-01  8.00000000E-01  1.50000000E+00
  8.00000000E-01  8.00000000E-01  1.50000000E+00  8.00000000E-01  8.00000000E-01
  1.50000000E+00  8.00000000E-01  8.00000000E-01  1.50000000E+00  8.00000000E-01
  8.00000000E-01  1.50000000E+00  8.00000000E-01  8.00000000E-01  1.50000000E+00
  8.00000000E-01  8.00000000E-01  1.50000000E+00  8.00000000E-01  8.00000000E-01
  1.50000000E+00  8.00000000E-01  8.00000000E-01  1.50000000E+00  8.00000000E-01
  8.00000000E-01  1.50000000E+00  8.00000000E-01  8.00000000E-01  1.50000000E+00
  8.00000000E-01  8.00000000E-01  1.50000000E+00  8.00000000E-01  8.00000000E-01
  1.50000000E+00  8.00000000E-01  8.00000000E-01  1.50000000E+00  8.00000000E-01
  8.00000000E-01  1.50000000E+00  8.00000000E-01  8.00000000E-01  1.50000000E+00
  8.00000000E-01  8.00000000E-01  1.50000000E+00  8.00000000E-01  8.00000000E-01
  1.50000000E+00  8.00000000E-01  8.00000000E-01  1.50000000E+00  8.00000000E-01
  8.00000000E-01  1.50000000E+00  8.00000000E-01  8.00000000E-01  1.50000000E+00
  8.00000000E-01  8.00000000E-01  1.50000000E+00  8.00000000E-01  8.00000000E-01
  1.50000000E+00  8.00000000E-01  8.00000000E-01  1.50000000E+00  8.00000000E-01
  8.00000000E-01  1.50000000E+00  8.00000000E-01  8.00000000E-01  1.50000000E+00
  8.00000000E-01  8.00000000E-01  1.50000000E+00  8.00000000E-01  8.00000000E-01
  1.50000000E+00  8.00000000E-01  8.00000000E-01  1.50000000E+00  8.00000000E-01
  8.00000000E-01  1.50000000E+00  8.00000000E-01  8.00000000E-01  1.50000000E+00
  8.00000000E-01  8.00000000E-01  1.50000000E+00  8.00000000E-01  8.00000000E-01
  1.50000000E+00  8.00000000E-01  8.00000000E-01  1.50000000E+00  8.00000000E-01
  8.00000000E-01  1.50000000E+00  8.00000000E-01  8.00000000E-01  1.50000000E+00
  8.00000000E-01  8.00000000E-01  1.50000000E+00  8.00000000E-01  8.00000000E-01
  1.50000000E+00  8.00000000E-01  8.00000000E-01  1.50000000E+00  8.00000000E-01
  8.00000000E-01  1.50000000E+00  8.00000000E-01  8.00000000E-01  1.50000000E+00
  8.00000000E-01  8.00000000E-01  1.50000000E+00  8.00000000E-01  8.00000000E-01
  1.50000000E+00  8.00000000E-01  8.00000000E-01  1.50000000E+00  8.00000000E-01
  8.00000000E-01  1.50000000E+00  8.00000000E-01  8.00000000E-01  1.50000000E+00
  8.00000000E-01  8.00000000E-01  1.50000000E+00  8.00000000E-01  8.00000000E-01
  1.50000000E+00  8.00000000E-01  8.00000000E-01  1.50000000E+00  8.00000000E-01
  8.00000000E-01  1.50000000E+00  8.00000000E-01  8.00000000E-01  1.50000000E+00
  8.00000000E-01  8.00000000E-01  1.50000000E+00  8.00000000E-01  8.00000000E-01
  1.50000000E+00  8.00000000E-01  8.00000000E-01  1.50000000E+00  8.00000000E-01
  8.00000000E-01  1.50000000E+00  8.00000000E-01  8.00000000E-01  1.50000000E+00
  8.00000000E-01  8.00000000E-01  1.50000000E+00  8.00000000E-01  8.00000000E-01
  1.50000000E+00  8.00000000E-01  8.00000000E-01  1.50000000E+00  8.00000000E-01
  8.00000000E-01  1.50000000E+00  8.00000000E-01  8.00000000E-01  1.50000000E+00
  8.00000000E-01  8.00000000E-01  1.50000000E+00  8.00000000E-01  8.00000000E-01
  1.50000000E+00  8.00000000E-01  8.00000000E-01  1.50000000E+00  8.00000000E-01
  8.00000000E-01  1.50000000E+00  8.00000000E-01  8.00000000E-01  1.50000000E+00
  8.00000000E-01  8.00000000E-01  1.50000000E+00  8.00000000E-01  8.00000000E-01
  1.50000000E+00  8.00000000E-01  8.00000000E-01  1.50000000E+00  8.00000000E-01
  8.00000000E-01  1.50000000E+00  8.00000000E-01  8.00000000E-01  1.50000000E+00
  8.00000000E-01  8.00000000E-01  1.50000000E+00  8.00000000E-01  8.00000000E-01
  1.50000000E+00  8.00000000E-01  8.00000000E-01  1.50000000E+00  8.00000000E-01
  8.00000000E-01  1.50000000E+00  8.00000000E-01  8.00000000E-01  1.50000000E+00
  8.00000000E-01  8.00000000E-01  1.50000000E+00  8.00000000E-01  8.00000000E-01
  1.50000000E+00  8.00000000E-01  8.00000000E-01  1.50000000E+00  8.00000000E-01
  8.00000000E-01  1.50000000E+00  8.00000000E-01  8.00000000E-01  1.50000000E+00
  8.00000000E-01  8.00000000E-01  1.50000000E+00  8.00000000E-01  8.00000000E-01
  1.50000000E+00  8.00000000E-01  8.00000000E-01  1.50000000E+00  8.00000000E-01
  8.00000000E-01  1.50000000E+00  8.00000000E-01  8.00000000E-01  1.50000000E+00
  8.00000000E-01  8.00000000E-01  1.50000000E+00  8.00000000E-01  8.00000000E-01
  1.50000000E+00  8.00000000E-01  8.00000000E-01  1.50000000E+00  8.00000000E-01
  8.00000000E-01  1.50000000E+00  8.00000000E-01  8.00000000E-01  1.50000000E+00
  8.00000000E-01  8.00000000E-01  1.50000000E+00  8.00000000E-01  8.00000000E-01
  1.50000000E+00  8.00000000E-01  8.00000000E-01  1.50000000E+00  8.00000000E-01
  8.00000000E-01  1.50000000E+00  8.00000000E-01  8.00000000E-01  1.50000000E+00
  8.00000000E-01  8.00000000E-01  1.50000000E+00  8.00000000E-01  8.00000000E-01
  1.50000000E+00  8.00000000E-01  8.00000000E-01  1.50000000E+00  8.00000000E-01
  8.00000000E-01  1.50000000E+00  8.00000000E-01  8.00000000E-01  1.50000000E+00
  8.00000000E-01  8.00000000E-01  1.50000000E+00  8.00000000E-01  8.00000000E-01
  1.50000000E+00  8.00000000E-01  8.00000000E-01  1.50000000E+00  8.00000000E-01
  8.00000000E-01  1.50000000E+00  8.00000000E-01  8.00000000E-01  1.50000000E+00
  8.00000000E-01  8.00000000E-01  1.50000000E+00  8.00000000E-01  8.00000000E-01
  1.50000000E+00  8.00000000E-01  8.00000000E-01  1.50000000E+00  8.00000000E-01
  8.00000000E-01  1.50000000E+00  8.00000000E-01  8.00000000E-01  1.50000000E+00
  8.00000000E-01  8.00000000E-01  1.50000000E+00  8.00000000E-01  8.00000000E-01
  1.50000000E+00  8.00000000E-01  8.00000000E-01  1.50000000E+00  8.00000000E-01
  8.00000000E-01  1.50000000E+00  8.00000000E-01  8.00000000E-01  1.50000000E+00
  8.00000000E-01  8.00000000E-01  1.50000000E+00  8.00000000E-01  8.00000000E-01
  1.50000000E+00  8.00000000E-01  8.00000000E-01  1.50000000E+00  8.00000000E-01
  8.00000000E-01  1.50000000E+00  8.00000000E-01  8.00000000E-01  1.50000000E+00
  8.00000000E-01  8.00000000E-01  1.50000000E+00  8.00000000E-01  8.00000000E-01
  1.50000000E+00  8.00000000E-01  8.00000000E-01  1.50000000E+00  8.00000000E-01
  8.00000000E-01  1.50000000E+00  8.00000000E-01  8.00000000E-01  1.50000000E+00
  8.00000000E-01  8.00000000E-01  1.50000000E+00  8.00000000E-01  8.00000000E-01
  1.50000000E+00  8.00000000E-01  8.00000000E-01  1.50000000E+00  8.00000000E-01
  8.00000000E-01  1.50000000E+00  8.00000000E-01  8.00000000E-01  1.50000000E+00
  8.00000000E-01  8.00000000E-01  1.50000000E+00  8.00000000E-01  8.00000000E-01
  1.50000000E+00  8.00000000E-01  8.00000000E-01  1.50000000E+00  8.00000000E-01
  8.00000000E-01  1.50000000E+00  8.00000000E-01  8.00000000E-01  1.50000000E+00
  8.00000000E-01  8.00000000E-01  1.50000000E+00  8.00000000E-01  8.00000000E-01
  1.50000000E+00  8.00000000E-01  8.00000000E-01  1.50000000E+00  8.00000000E-01
  8.00000000E-01  1.50000000E+00  8.00000000E-01  8.00000000E-01  1.50000000E+00
  8.00000000E-01  8.00000000E-01  1.50000000E+00  8.00000000E-01  8.00000000E-01
  1.50000000E+00  8.00000000E-01  8.00000000E-01  1.50000000E+00  8.00000000E-01
  8.00000000E-01  1.50000000E+00  8.00000000E-01  8.00000000E-01  1.50000000E+00
  8.00000000E-01  8.00000000E-01  1.50000000E+00  8.00000000E-01  8.00000000E-01
  1.50000000E+00  8.00000000E-01  8.00000000E-01  1.50000000E+00  8.00000000E-01
  8.00000000E-01  1.50000000E+00  8.00000000E-01  8.00000000E-01  1.50000000E+00
  8.00000000E-01  8.00000000E-01  1.50000000E+00  8.00000000E-01  8.00000000E-01
  1.50000000E+00  8.00000000E-01  8.00000000E-01  1.50000000E+00  8.00000000E-01
  8.00000000E-01  1.50000000E+00  8.00000000E-01  8.00000000E-01  1.50000000E+00
  8.00000000E-01  8.00000000E-01  1.50000000E+00  8.00000000E-01  8.00000000E-01
  1.50000000E+00  8.00000000E-01  8.00000000E-01  1.50000000E+00  8.00000000E-01
  8.00000000E-01  1.50000000E+00  8.00000000E-01  8.00000000E-01  1.50000000E+00
  8.00000000E-01  8.00000000E-01  1.50000000E+00  8.00000000E-01  8.00000000E-01
  1.50000000E+00  8.00000000E-01  8.00000000E-01  1.50000000E+00  8.00000000E-01
  8.00000000E-01  1.50000000E+00  8.00000000E-01  8.00000000E-01  1.50000000E+00
  8.00000000E-01  8.00000000E-01  1.50000000E+00  8.00000000E-01  8.00000000E-01
  1.50000000E+00  8.00000000E-01  8.00000000E-01  1.50000000E+00  8.00000000E-01
  8.00000000E-01  1.50000000E+00  8.00000000E-01  8.00000000E-01  1.50000000E+00
  8.00000000E-01  8.00000000E-01  1.50000000E+00  8.00000000E-01  8.00000000E-01
  1.50000000E+00  8.00000000E-01  8.00000000E-01  1.50000000E+00  8.00000000E-01
  8.00000000E-01  1.50000000E+00  8.00000000E-01  8.00000000E-01  1.50000000E+00
  8.00000000E-01  8.00000000E-01  1.50000000E+00  8.00000000E-01  8.00000000E-01
  1.50000000E+00  8.00000000E-01  8.00000000E-01  1.50000000E+00  8.00000000E-01
  8.00000000E-01  1.50000000E+00  8.00000000E-01  8.00000000E-01  1.50000000E+00
  8.00000000E-01  8.00000000E-01  1.50000000E+00  8.00000000E-01  8.00000000E-01
  1.50000000E+00  8.00000000E-01  8.00000000E-01  1.50000000E+00  8.00000000E-01
  8.00000000E-01  1.50000000E+00  8.00000000E-01  8.00000000E-01  1.50000000E+00
  8.00000000E-01  8.00000000E-01  1.50000000E+00  8.00000000E-01  8.00000000E-01
  1.50000000E+00  8.00000000E-01  8.00000000E-01  1.50000000E+00  8.00000000E-01
  8.00000000E-01  1.50000000E+00  8.00000000E-01  8.00000000E-01  1.50000000E+00
  8.00000000E-01  8.00000000E-01  1.50000000E+00  8.00000000E-01  8.00000000E-01
  1.50000000E+00  8.00000000E-01  8.00000000E-01  1.50000000E+00  8.00000000E-01
  8.00000000E-01  1.50000000E+00  8.00000000E-01  8.00000000E-01  1.50000000E+00
  8.00000000E-01  8.00000000E-01  1.50000000E+00  8.00000000E-01  8.00000000E-01
  1.50000000E+00  8.00000000E-01  8.00000000E-01  1.50000000E+00  8.00000000E-01
  8.00000000E-01  1.50000000E+00  8.00000000E-01  8.00000000E-01  1.50000000E+00
  8.00000000E-01  8.00000000E-01  1.50000000E+00  8.00000000E-01  8.00000000E-01
  1.50000000E+00  8.00000000E-01  8.00000000E-01  1.50000000E+00  8.00000000E-01
  8.00000000E-01  1.50000000E+00  8.00000000E-01  8.00000000E-01  1.50000000E+00
  8.00000000E-01  8.00000000E-01  1.50000000E+00  8.00000000E-01  8.00000000E-01
  1.50000000E+00  8.00000000E-01  8.00000000E-01  1.50000000E+00  8.00000000E-01
  8.00000000E-01  1.50000000E+00  8.00000000E-01  8.00000000E-01  1.50000000E+00
  8.00000000E-01  8.00000000E-01  1.50000000E+00  8.00000000E-01  8.00000000E-01
  1.50000000E+00  8.00000000E-01  8.00000000E-01  1.50000000E+00  8.00000000E-01
  8.00000000E-01  1.50000000E+00  8.00000000E-01  8.00000000E-01  1.50000000E+00
  8.00000000E-01  8.00000000E-01  1.50000000E+00  8.00000000E-01  8.00000000E-01
  1.50000000E+00  8.00000000E-01  8.00000000E-01  1.50000000E+00  8.00000000E-01
  8.00000000E-01  1.50000000E+00  8.00000000E-01  8.00000000E-01  1.50000000E+00
  8.00000000E-01  8.00000000E-01  1.50000000E+00  8.00000000E-01  8.00000000E-01
  1.50000000E+00  8.00000000E-01  8.00000000E-01  1.50000000E+00  8.00000000E-01
  8.00000000E-01  1.50000000E+00  8.00000000E-01  8.00000000E-01  1.50000000E+00
  8.00000000E-01  8.00000000E-01  1.50000000E+00  8.00000000E-01  8.00000000E-01
  1.50000000E+00  8.00000000E-01  8.00000000E-01  1.50000000E+00  8.00000000E-01
  8.00000000E-01  1.50000000E+00  8.00000000E-01  8.00000000E-01  1.50000000E+00
  8.00000000E-01  8.00000000E-01  1.50000000E+00  8.00000000E-01  8.00000000E-01
  1.50000000E+00  8.00000000E-01  8.00000000E-01  1.50000000E+00  8.00000000E-01
  8.00000000E-01  1.50000000E+00  8.00000000E-01  8.00000000E-01  1.50000000E+00
  8.00000000E-01  8.00000000E-01  1.50000000E+00  8.00000000E-01  8.00000000E-01
  1.50000000E+00  8.00000000E-01  8.00000000E-01  1.50000000E+00  8.00000000E-01
  8.00000000E-01  1.50000000E+00  8.00000000E-01  8.00000000E-01  1.50000000E+00
  8.00000000E-01  8.00000000E-01  1.50000000E+00  8.00000000E-01  8.00000000E-01
  1.50000000E+00  8.00000000E-01  8.00000000E-01  1.50000000E+00  8.00000000E-01
  8.00000000E-01  1.50000000E+00  8.00000000E-01  8.00000000E-01  1.50000000E+00
  8.00000000E-01  8.00000000E-01  1.50000000E+00  8.00000000E-01  8.00000000E-01
  1.50000000E+00  8.00000000E-01  8.00000000E-01  1.50000000E+00  8.00000000E-01
  8.00000000E-01  1.50000000E+00  8.00000000E-01  8.00000000E-01  1.50000000E+00
  8.00000000E-01  8.00000000E-01  1.50000000E+00  8.00000000E-01  8.00000000E-01
  1.50000000E+00  8.00000000E-01  8.00000000E-01  1.50000000E+00  8.00000000E-01
  8.00000000E-01  1.50000000E+00  8.00000000E-01  8.00000000E-01  1.50000000E+00
  8.00000000E-01  8.00000000E-01  1.50000000E+00  8.00000000E-01  8.00000000E-01
  1.50000000E+00  8.00000000E-01  8.00000000E-01  1.50000000E+00  8.00000000E-01
  8.00000000E-01  1.50000000E+00  8.00000000E-01  8.00000000E-01  1.50000000E+00
  8.00000000E-01  8.00000000E-01  1.50000000E+00  8.00000000E-01  8.00000000E-01
  1.50000000E+00  8.00000000E-01  8.00000000E-01  1.50000000E+00  8.00000000E-01
  8.00000000E-01  1.50000000E+00  8.00000000E-01  8.00000000E-01  1.50000000E+00
  8.00000000E-01  8.00000000E-01  1.50000000E+00  8.00000000E-01  8.00000000E-01
  1.50000000E+00  8.00000000E-01  8.00000000E-01  1.50000000E+00  8.00000000E-01
  8.00000000E-01  1.50000000E+00  8.00000000E-01  8.00000000E-01  1.50000000E+00
  8.00000000E-01  8.00000000E-01  1.50000000E+00  8.00000000E-01  8.00000000E-01
  1.50000000E+00  8.00000000E-01  8.00000000E-01  1.50000000E+00  8.00000000E-01
  8.00000000E-01  1.50000000E+00  8.00000000E-01  8.00000000E-01  1.50000000E+00
  8.00000000E-01  8.00000000E-01  1.50000000E+00  8.00000000E-01  8.00000000E-01
  1.50000000E+00  8.00000000E-01  8.00000000E-01  1.50000000E+00  8.00000000E-01
  8.00000000E-01  1.50000000E+00  8.00000000E-01  8.00000000E-01  1.50000000E+00
  8.00000000E-01  8.00000000E-01  1.50000000E+00  8.00000000E-01  8.00000000E-01
  1.50000000E+00  8.00000000E-01  8.00000000E-01  1.50000000E+00  8.00000000E-01
  8.00000000E-01  1.50000000E+00  8.00000000E-01  8.00000000E-01  1.50000000E+00
  8.00000000E-01  8.00000000E-01  1.50000000E+00  8.00000000E-01  8.00000000E-01
  1.50000000E+00  8.00000000E-01  8.00000000E-01  1.50000000E+00  8.00000000E-01
  8.00000000E-01  1.50000000E+00  8.00000000E-01  8.00000000E-01  1.50000000E+00
  8.00000000E-01  8.00000000E-01  1.50000000E+00  8.00000000E-01  8.00000000E-01
  1.50000000E+00  8.00000000E-01  8.00000000E-01  1.50000000E+00  8.00000000E-01
  8.00000000E-01  1.50000000E+00  8.00000000E-01  8.00000000E-01  1.50000000E+00
  8.00000000E-01  8.00000000E-01  1.50000000E+00  8.00000000E-01  8.00000000E-01
  1.50000000E+00  8.00000000E-01  8.00000000E-01  1.50000000E+00  8.00000000E-01
  8.00000000E-01  1.50000000E+00  8.00000000E-01  8.00000000E-01  1.50000000E+00
  8.00000000E-01  8.00000000E-01  1.50000000E+00  8.00000000E-01  8.00000000E-01
  1.50000000E+00  8.00000000E-01  8.00000000E-01  1.50000000E+00  8.00000000E-01
  8.00000000E-01  1.50000000E+00  8.00000000E-01  8.00000000E-01  1.50000000E+00
  8.00000000E-01  8.00000000E-01  1.50000000E+00  8.00000000E-01  8.00000000E-01
  1.50000000E+00  8.00000000E-01  8.00000000E-01  1.50000000E+00  8.00000000E-01
  8.00000000E-01  1.50000000E+00  8.00000000E-01  8.00000000E-01  1.50000000E+00
  8.00000000E-01  8.00000000E-01  1.50000000E+00  8.00000000E-01  8.00000000E-01
  1.50000000E+00  8.00000000E-01  8.00000000E-01  1.50000000E+00  8.00000000E-01
  8.00000000E-01  1.50000000E+00  8.00000000E-01  8.00000000E-01  1.50000000E+00
  8.00000000E-01  8.00000000E-01  1.50000000E+00  8.00000000E-01  8.00000000E-01
  1.50000000E+00  8.00000000E-01  8.00000000E-01  1.50000000E+00  8.00000000E-01
  8.00000000E-01  1.50000000E+00  8.00000000E-01  8.00000000E-01  1.50000000E+00
  8.00000000E-01  8.00000000E-01  1.50000000E+00  8.00000000E-01  8.00000000E-01
  1.50000000E+00  8.00000000E-01  8.00000000E-01  1.50000000E+00  8.00000000E-01
  8.00000000E-01  1.50000000E+00  8.00000000E-01  8.00000000E-01  1.50000000E+00
  8.00000000E-01  8.00000000E-01  1.50000000E+00  8.00000000E-01  8.00000000E-01
  1.50000000E+00  8.00000000E-01  8.00000000E-01  1.50000000E+00  8.00000000E-01
  8.00000000E-01  1.50000000E+00  8.00000000E-01  8.00000000E-01  1.50000000E+00
  8.00000000E-01  8.00000000E-01  1.50000000E+00  8.00000000E-01  8.00000000E-01
  1.50000000E+00  8.00000000E-01  8.00000000E-01  1.50000000E+00  8.00000000E-01
  8.00000000E-01  1.50000000E+00  8.00000000E-01  8.00000000E-01  1.50000000E+00
  8.00000000E-01  8.00000000E-01  1.50000000E+00  8.00000000E-01  8.00000000E-01
  1.50000000E+00  8.00000000E-01  8.00000000E-01  1.50000000E+00  8.00000000E-01
  8.00000000E-01  1.50000000E+00  8.00000000E-01  8.00000000E-01  1.50000000E+00
  8.00000000E-01  8.00000000E-01  1.50000000E+00  8.00000000E-01  8.00000000E-01
  1.50000000E+00  8.00000000E-01  8.00000000E-01  1.50000000E+00  8.00000000E-01
  8.00000000E-01  1.50000000E+00  8.00000000E-01  8.00000000E-01  1.50000000E+00
  8.00000000E-01  8.00000000E-01  1.50000000E+00  8.00000000E-01  8.00000000E-01
  1.50000000E+00  8.00000000E-01  8.00000000E-01  1.50000000E+00  8.00000000E-01
  8.00000000E-01  1.50000000E+00  8.00000000E-01  8.00000000E-01  1.50000000E+00
  8.00000000E-01  8.00000000E-01  1.50000000E+00  8.00000000E-01  8.00000000E-01
  1.50000000E+00  8.00000000E-01  8.00000000E-01  1.50000000E+00  8.00000000E-01
  8.00000000E-01  1.50000000E+00  8.00000000E-01  8.00000000E-01  1.50000000E+00
  8.00000000E-01  8.00000000E-01  1.50000000E+00  8.00000000E-01  8.00000000E-01
  1.50000000E+00  8.00000000E-01  8.00000000E-01  1.50000000E+00  8.00000000E-01
  8.00000000E-01  1.50000000E+00  8.00000000E-01  8.00000000E-01  1.50000000E+00
  8.00000000E-01  8.00000000E-01  1.50000000E+00  8.00000000E-01  8.00000000E-01
  1.50000000E+00  8.00000000E-01  8.00000000E-01  1.50000000E+00  8.00000000E-01
  8.00000000E-01  1.50000000E+00  8.00000000E-01  8.00000000E-01  1.50000000E+00
  8.00000000E-01  8.00000000E-01  1.50000000E+00  8.00000000E-01  8.00000000E-01
  1.50000000E+00  8.00000000E-01  8.00000000E-01  1.50000000E+00  8.00000000E-01
  8.00000000E-01  1.50000000E+00  8.00000000E-01  8.00000000E-01  1.50000000E+00
  8.00000000E-01  8.00000000E-01  1.50000000E+00  8.00000000E-01  8.00000000E-01
  1.50000000E+00  8.00000000E-01  8.00000000E-01  1.50000000E+00  8.00000000E-01
  8.00000000E-01  1.50000000E+00  8.00000000E-01  8.00000000E-01  1.50000000E+00
  8.00000000E-01  8.00000000E-01  1.50000000E+00  8.00000000E-01  8.00000000E-01
  1.50000000E+00  8.00000000E-01  8.00000000E-01  1.50000000E+00  8.00000000E-01
  8.00000000E-01  1.50000000E+00  8.00000000E-01  8.00000000E-01  1.50000000E+00
  8.00000000E-01  8.00000000E-01  1.50000000E+00  8.00000000E-01  8.00000000E-01
  1.50000000E+00  8.00000000E-01  8.00000000E-01  1.50000000E+00  8.00000000E-01
  8.00000000E-01  1.50000000E+00  8.00000000E-01  8.00000000E-01  1.50000000E+00
  8.00000000E-01  8.00000000E-01  1.50000000E+00  8.00000000E-01  8.00000000E-01
  1.50000000E+00  8.00000000E-01  8.00000000E-01  1.50000000E+00  8.00000000E-01
  8.00000000E-01  1.50000000E+00  8.00000000E-01  8.00000000E-01  1.50000000E+00
  8.00000000E-01  8.00000000E-01  1.50000000E+00  8.00000000E-01  8.00000000E-01
  1.50000000E+00  8.00000000E-01  8.00000000E-01  1.50000000E+00  8.00000000E-01
  8.00000000E-01  1.50000000E+00  8.00000000E-01  8.00000000E-01  1.50000000E+00
  8.00000000E-01  8.00000000E-01  1.50000000E+00  8.00000000E-01  8.00000000E-01
  1.50000000E+00  8.00000000E-01  8.00000000E-01  1.50000000E+00  8.00000000E-01
  8.00000000E-01  1.50000000E+00  8.00000000E-01  8.00000000E-01  1.50000000E+00
  8.00000000E-01  8.00000000E-01  1.50000000E+00  8.00000000E-01  8.00000000E-01
  1.50000000E+00  8.00000000E-01  8.00000000E-01  1.50000000E+00  8.00000000E-01
  8.00000000E-01  1.50000000E+00  8.00000000E-01  8.00000000E-01  1.50000000E+00
  8.00000000E-01  8.00000000E-01  1.50000000E+00  8.00000000E-01  8.00000000E-01
  1.50000000E+00  8.00000000E-01  8.00000000E-01  1.50000000E+00  8.00000000E-01
  8.00000000E-01  1.50000000E+00  8.00000000E-01  8.00000000E-01  1.50000000E+00
  8.00000000E-01  8.00000000E-01  1.50000000E+00  8.00000000E-01  8.00000000E-01
  1.50000000E+00  8.00000000E-01  8.00000000E-01  1.50000000E+00  8.00000000E-01
  8.00000000E-01  1.50000000E+00  8.00000000E-01  8.00000000E-01  1.50000000E+00
  8.00000000E-01  8.00000000E-01  1.50000000E+00  8.00000000E-01  8.00000000E-01
  1.50000000E+00  8.00000000E-01  8.00000000E-01  1.50000000E+00  8.00000000E-01
  8.00000000E-01  1.50000000E+00  8.00000000E-01  8.00000000E-01  1.50000000E+00
  8.00000000E-01  8.00000000E-01  1.50000000E+00  8.00000000E-01  8.00000000E-01
  1.50000000E+00  8.00000000E-01  8.00000000E-01  1.50000000E+00  8.00000000E-01
  8.00000000E-01  1.50000000E+00  8.00000000E-01  8.00000000E-01  1.50000000E+00
  8.00000000E-01  8.00000000E-01  1.50000000E+00  8.00000000E-01  8.00000000E-01
  1.50000000E+00  8.00000000E-01  8.00000000E-01  1.50000000E+00  8.00000000E-01
  8.00000000E-01  1.50000000E+00  8.00000000E-01  8.00000000E-01  1.50000000E+00
  8.00000000E-01  8.00000000E-01  1.50000000E+00  8.00000000E-01  8.00000000E-01
  1.50000000E+00  8.00000000E-01  8.00000000E-01  1.50000000E+00  8.00000000E-01
  8.00000000E-01  1.50000000E+00  8.00000000E-01  8.00000000E-01  1.50000000E+00
  8.00000000E-01  8.00000000E-01  1.50000000E+00  8.00000000E-01  8.00000000E-01
  1.50000000E+00  8.00000000E-01  8.00000000E-01  1.50000000E+00  8.00000000E-01
  8.00000000E-01  1.50000000E+00  8.00000000E-01  8.00000000E-01  1.50000000E+00
  8.00000000E-01  8.00000000E-01  1.50000000E+00  8.00000000E-01  8.00000000E-01
  1.50000000E+00  8.00000000E-01  8.00000000E-01  1.50000000E+00  8.00000000E-01
  8.00000000E-01  1.50000000E+00  8.00000000E-01  8.00000000E-01  1.50000000E+00
  8.00000000E-01  8.00000000E-01  1.50000000E+00  8.00000000E-01  8.00000000E-01
  1.50000000E+00  8.00000000E-01  8.00000000E-01  1.50000000E+00  8.00000000E-01
  8.00000000E-01  1.50000000E+00  8.00000000E-01  8.00000000E-01  1.50000000E+00
  8.00000000E-01  8.00000000E-01  1.50000000E+00  8.00000000E-01  8.00000000E-01
  1.50000000E+00  8.00000000E-01  8.00000000E-01  1.50000000E+00  8.00000000E-01
  8.00000000E-01  1.50000000E+00  8.00000000E-01  8.00000000E-01  1.50000000E+00
  8.00000000E-01  8.00000000E-01  1.50000000E+00  8.00000000E-01  8.00000000E-01
  1.50000000E+00  8.00000000E-01  8.00000000E-01  1.50000000E+00  8.00000000E-01
  8.00000000E-01  1.50000000E+00  8.00000000E-01  8.00000000E-01  1.50000000E+00
  8.00000000E-01  8.00000000E-01  1.50000000E+00  8.00000000E-01  8.00000000E-01
  1.50000000E+00  8.00000000E-01  8.00000000E-01  1.50000000E+00  8.00000000E-01
  8.00000000E-01  1.50000000E+00  8.00000000E-01  8.00000000E-01  1.50000000E+00
  8.00000000E-01  8.00000000E-01  1.50000000E+00  8.00000000E-01  8.00000000E-01
  1.50000000E+00  8.00000000E-01  8.00000000E-01  1.50000000E+00  8.00000000E-01
  8.00000000E-01  1.50000000E+00  8.00000000E-01  8.00000000E-01  1.50000000E+00
  8.00000000E-01  8.00000000E-01  1.50000000E+00  8.00000000E-01  8.00000000E-01
  1.50000000E+00  8.00000000E-01  8.00000000E-01  1.50000000E+00  8.00000000E-01
  8.00000000E-01  1.50000000E+00  8.00000000E-01  8.00000000E-01  1.50000000E+00
  8.00000000E-01  8.00000000E-01  1.50000000E+00  8.00000000E-01  8.00000000E-01
  1.50000000E+00  8.00000000E-01  8.00000000E-01  1.50000000E+00  8.00000000E-01
  8.00000000E-01  1.50000000E+00  8.00000000E-01  8.00000000E-01  1.50000000E+00
  8.00000000E-01  8.00000000E-01  1.50000000E+00  8.00000000E-01  8.00000000E-01
  1.50000000E+00  8.00000000E-01  8.00000000E-01  1.50000000E+00  8.00000000E-01
  8.00000000E-01  1.50000000E+00  8.00000000E-01  8.00000000E-01  1.50000000E+00
  8.00000000E-01  8.00000000E-01  1.50000000E+00  8.00000000E-01  8.00000000E-01
  1.50000000E+00  8.00000000E-01  8.00000000E-01  1.50000000E+00  8.00000000E-01
  8.00000000E-01  1.50000000E+00  8.00000000E-01  8.00000000E-01  1.50000000E+00
  8.00000000E-01  8.00000000E-01  1.50000000E+00  8.00000000E-01  8.00000000E-01
  1.50000000E+00  8.00000000E-01  8.00000000E-01  1.50000000E+00  8.00000000E-01
  8.00000000E-01  1.50000000E+00  8.00000000E-01  8.00000000E-01  1.50000000E+00
  8.00000000E-01  8.00000000E-01  1.50000000E+00  8.00000000E-01  8.00000000E-01
  1.50000000E+00  8.00000000E-01  8.00000000E-01  1.50000000E+00  8.00000000E-01
  8.00000000E-01  1.50000000E+00  8.00000000E-01  8.00000000E-01  1.50000000E+00
  8.00000000E-01  8.00000000E-01  1.50000000E+00  8.00000000E-01  8.00000000E-01
  1.50000000E+00  8.00000000E-01  8.00000000E-01  1.50000000E+00  8.00000000E-01
  8.00000000E-01  1.50000000E+00  8.00000000E-01  8.00000000E-01  1.50000000E+00
  8.00000000E-01  8.00000000E-01  1.50000000E+00  8.00000000E-01  8.00000000E-01
  1.50000000E+00  8.00000000E-01  8.00000000E-01  1.50000000E+00  8.00000000E-01
  8.00000000E-01  1.50000000E+00  8.00000000E-01  8.00000000E-01  1.50000000E+00
  8.00000000E-01  8.00000000E-01  1.50000000E+00  8.00000000E-01  8.00000000E-01
  1.50000000E+00  8.00000000E-01  8.00000000E-01  1.50000000E+00  8.00000000E-01
  8.00000000E-01  1.50000000E+00  8.00000000E-01  8.00000000E-01  1.50000000E+00
  8.00000000E-01  8.00000000E-01  1.50000000E+00  8.00000000E-01  8.00000000E-01
  1.50000000E+00  8.00000000E-01  8.00000000E-01  1.50000000E+00  8.00000000E-01
  8.00000000E-01  1.50000000E+00  8.00000000E-01  8.00000000E-01  1.50000000E+00
  8.00000000E-01  8.00000000E-01  1.50000000E+00  8.00000000E-01  8.00000000E-01
  1.50000000E+00  8.00000000E-01  8.00000000E-01  1.50000000E+00  8.00000000E-01
  8.00000000E-01  1.50000000E+00  8.00000000E-01  8.00000000E-01  1.50000000E+00
  8.00000000E-01  8.00000000E-01  1.50000000E+00  8.00000000E-01  8.00000000E-01
  1.50000000E+00  8.00000000E-01  8.00000000E-01  1.50000000E+00  8.00000000E-01
  8.00000000E-01  1.50000000E+00  8.00000000E-01  8.00000000E-01  1.50000000E+00
  8.00000000E-01  8.00000000E-01  1.50000000E+00  8.00000000E-01  8.00000000E-01
  1.50000000E+00  8.00000000E-01  8.00000000E-01  1.50000000E+00  8.00000000E-01
  8.00000000E-01  1.50000000E+00  8.00000000E-01  8.00000000E-01  1.50000000E+00
  8.00000000E-01  8.00000000E-01  1.50000000E+00  8.00000000E-01  8.00000000E-01
  1.50000000E+00  8.00000000E-01  8.00000000E-01  1.50000000E+00  8.00000000E-01
  8.00000000E-01  1.50000000E+00  8.00000000E-01  8.00000000E-01  1.50000000E+00
  8.00000000E-01  8.00000000E-01  1.50000000E+00  8.00000000E-01  8.00000000E-01
  1.50000000E+00  8.00000000E-01  8.00000000E-01  1.50000000E+00  8.00000000E-01
  8.00000000E-01  1.50000000E+00  8.00000000E-01  8.00000000E-01  1.50000000E+00
  8.00000000E-01  8.00000000E-01  1.50000000E+00  8.00000000E-01  8.00000000E-01
  1.50000000E+00  8.00000000E-01  8.00000000E-01  1.50000000E+00  8.00000000E-01
  8.00000000E-01  1.50000000E+00  8.00000000E-01  8.00000000E-01  1.50000000E+00
  8.00000000E-01  8.00000000E-01  1.50000000E+00  8.00000000E-01  8.00000000E-01
  1.50000000E+00  8.00000000E-01  8.00000000E-01  1.50000000E+00  8.00000000E-01
  8.00000000E-01  1.50000000E+00  8.00000000E-01  8.00000000E-01  1.50000000E+00
  8.00000000E-01  8.00000000E-01  1.50000000E+00  8.00000000E-01  8.00000000E-01
  1.50000000E+00  8.00000000E-01  8.00000000E-01  1.50000000E+00  8.00000000E-01
  8.00000000E-01  1.50000000E+00  8.00000000E-01  8.00000000E-01  1.50000000E+00
  8.00000000E-01  8.00000000E-01  1.50000000E+00  8.00000000E-01  8.00000000E-01
  1.50000000E+00  8.00000000E-01  8.00000000E-01  1.50000000E+00  8.00000000E-01
  8.00000000E-01  1.50000000E+00  8.00000000E-01  8.00000000E-01  1.50000000E+00
  8.00000000E-01  8.00000000E-01  1.50000000E+00  8.00000000E-01  8.00000000E-01
  1.50000000E+00  8.00000000E-01  8.00000000E-01  1.50000000E+00  8.00000000E-01
  8.00000000E-01  1.50000000E+00  8.00000000E-01  8.00000000E-01  1.50000000E+00
  8.00000000E-01  8.00000000E-01  1.50000000E+00  8.00000000E-01  8.00000000E-01
  1.50000000E+00  8.00000000E-01  8.00000000E-01  1.50000000E+00  8.00000000E-01
  8.00000000E-01  1.50000000E+00  8.00000000E-01  8.00000000E-01  1.50000000E+00
  8.00000000E-01  8.00000000E-01  1.50000000E+00  8.00000000E-01  8.00000000E-01
  1.50000000E+00  8.00000000E-01  8.00000000E-01  1.50000000E+00  8.00000000E-01
  8.00000000E-01  1.50000000E+00  8.00000000E-01  8.00000000E-01  1.50000000E+00
  8.00000000E-01  8.00000000E-01  1.50000000E+00  8.00000000E-01  8.00000000E-01
  1.50000000E+00  8.00000000E-01  8.00000000E-01  1.50000000E+00  8.00000000E-01
  8.00000000E-01  1.50000000E+00  8.00000000E-01  8.00000000E-01  1.50000000E+00
  8.00000000E-01  8.00000000E-01  1.50000000E+00  8.00000000E-01  8.00000000E-01
  1.50000000E+00  8.00000000E-01  8.00000000E-01  1.50000000E+00  8.00000000E-01
  8.00000000E-01  1.50000000E+00  8.00000000E-01  8.00000000E-01  1.50000000E+00
  8.00000000E-01  8.00000000E-01  1.50000000E+00  8.00000000E-01  8.00000000E-01
  1.50000000E+00  8.00000000E-01  8.00000000E-01  1.50000000E+00  8.00000000E-01
  8.00000000E-01  1.50000000E+00  8.00000000E-01  8.00000000E-01  1.50000000E+00
  8.00000000E-01  8.00000000E-01  1.50000000E+00  8.00000000E-01  8.00000000E-01
  1.50000000E+00  8.00000000E-01  8.00000000E-01  1.50000000E+00  8.00000000E-01
  8.00000000E-01  1.50000000E+00  8.00000000E-01  8.00000000E-01  1.50000000E+00
  8.00000000E-01  8.00000000E-01  1.50000000E+00  8.00000000E-01  8.00000000E-01
  1.50000000E+00  8.00000000E-01  8.00000000E-01  1.50000000E+00  8.00000000E-01
  8.00000000E-01  1.50000000E+00  8.00000000E-01  8.00000000E-01  1.50000000E+00
  8.00000000E-01  8.00000000E-01  1.50000000E+00  8.00000000E-01  8.00000000E-01
  1.50000000E+00  8.00000000E-01  8.00000000E-01  1.50000000E+00  8.00000000E-01
  8.00000000E-01  1.50000000E+00  8.00000000E-01  8.00000000E-01  1.50000000E+00
  8.00000000E-01  8.00000000E-01  1.50000000E+00  8.00000000E-01  8.00000000E-01
  1.50000000E+00  8.00000000E-01  8.00000000E-01  1.50000000E+00  8.00000000E-01
  8.00000000E-01  1.50000000E+00  8.00000000E-01  8.00000000E-01  1.50000000E+00
  8.00000000E-01  8.00000000E-01  1.50000000E+00  8.00000000E-01  8.00000000E-01
  1.50000000E+00  8.00000000E-01  8.00000000E-01  1.50000000E+00  8.00000000E-01
  8.00000000E-01  1.50000000E+00  8.00000000E-01  8.00000000E-01  1.50000000E+00
  8.00000000E-01  8.00000000E-01  1.50000000E+00  8.00000000E-01  8.00000000E-01
  1.50000000E+00  8.00000000E-01  8.00000000E-01  1.50000000E+00  8.00000000E-01
  8.00000000E-01  1.50000000E+00  8.00000000E-01  8.00000000E-01  1.50000000E+00
  8.00000000E-01  8.00000000E-01  1.50000000E+00  8.00000000E-01  8.00000000E-01
  1.50000000E+00  8.00000000E-01  8.00000000E-01  1.50000000E+00  8.00000000E-01
  8.00000000E-01  1.50000000E+00  8.00000000E-01  8.00000000E-01  1.50000000E+00
  8.00000000E-01  8.00000000E-01  1.50000000E+00  8.00000000E-01  8.00000000E-01
  1.50000000E+00  8.00000000E-01  8.00000000E-01  1.50000000E+00  8.00000000E-01
  8.00000000E-01  1.50000000E+00  8.00000000E-01  8.00000000E-01  1.50000000E+00
  8.00000000E-01  8.00000000E-01  1.50000000E+00  8.00000000E-01  8.00000000E-01
  1.50000000E+00  8.00000000E-01  8.00000000E-01  1.50000000E+00  8.00000000E-01
  8.00000000E-01  1.50000000E+00  8.00000000E-01  8.00000000E-01  1.50000000E+00
  8.00000000E-01  8.00000000E-01  1.50000000E+00  8.00000000E-01  8.00000000E-01
  1.50000000E+00  8.00000000E-01  8.00000000E-01  1.50000000E+00  8.00000000E-01
  8.00000000E-01  1.50000000E+00  8.00000000E-01  8.00000000E-01  1.50000000E+00
  8.00000000E-01  8.00000000E-01  1.50000000E+00  8.00000000E-01  8.00000000E-01
  1.50000000E+00  8.00000000E-01  8.00000000E-01  1.50000000E+00  8.00000000E-01
  8.00000000E-01  1.50000000E+00  8.00000000E-01  8.00000000E-01  1.50000000E+00
  8.00000000E-01  8.00000000E-01  1.50000000E+00  8.00000000E-01  8.00000000E-01
  1.50000000E+00  8.00000000E-01  8.00000000E-01  1.50000000E+00  8.00000000E-01
  8.00000000E-01  1.50000000E+00  8.00000000E-01  8.00000000E-01  1.50000000E+00
  8.00000000E-01  8.00000000E-01  1.50000000E+00  8.00000000E-01  8.00000000E-01
  1.50000000E+00  8.00000000E-01  8.00000000E-01  1.50000000E+00  8.00000000E-01
  8.00000000E-01  1.50000000E+00  8.00000000E-01  8.00000000E-01  1.50000000E+00
  8.00000000E-01  8.00000000E-01  1.50000000E+00  8.00000000E-01  8.00000000E-01
  1.50000000E+00  8.00000000E-01  8.00000000E-01  1.50000000E+00  8.00000000E-01
  8.00000000E-01  1.50000000E+00  8.00000000E-01  8.00000000E-01  1.50000000E+00
  8.00000000E-01  8.00000000E-01  1.50000000E+00  8.00000000E-01  8.00000000E-01
  1.50000000E+00  8.00000000E-01  8.00000000E-01  1.50000000E+00  8.00000000E-01
  8.00000000E-01  1.50000000E+00  8.00000000E-01  8.00000000E-01  1.50000000E+00
  8.00000000E-01  8.00000000E-01  1.50000000E+00  8.00000000E-01  8.00000000E-01
  1.50000000E+00  8.00000000E-01  8.00000000E-01  1.50000000E+00  8.00000000E-01
  8.00000000E-01  1.50000000E+00  8.00000000E-01  8.00000000E-01  1.50000000E+00
  8.00000000E-01  8.00000000E-01  1.50000000E+00  8.00000000E-01  8.00000000E-01
  1.50000000E+00  8.00000000E-01  8.00000000E-01  1.50000000E+00  8.00000000E-01
  8.00000000E-01  1.50000000E+00  8.00000000E-01  8.00000000E-01  1.50000000E+00
  8.00000000E-01  8.00000000E-01  1.50000000E+00  8.00000000E-01  8.00000000E-01
  1.50000000E+00  8.00000000E-01  8.00000000E-01  1.50000000E+00  8.00000000E-01
  8.00000000E-01  1.50000000E+00  8.00000000E-01  8.00000000E-01  1.50000000E+00
  8.00000000E-01  8.00000000E-01  1.50000000E+00  8.00000000E-01  8.00000000E-01
  1.50000000E+00  8.00000000E-01  8.00000000E-01  1.50000000E+00  8.00000000E-01
  8.00000000E-01  1.50000000E+00  8.00000000E-01  8.00000000E-01  1.50000000E+00
  8.00000000E-01  8.00000000E-01  1.50000000E+00  8.00000000E-01  8.00000000E-01
  1.50000000E+00  8.00000000E-01  8.00000000E-01  1.50000000E+00  8.00000000E-01
  8.00000000E-01  1.50000000E+00  8.00000000E-01  8.00000000E-01  1.50000000E+00
  8.00000000E-01  8.00000000E-01  1.50000000E+00  8.00000000E-01  8.00000000E-01
  1.50000000E+00  8.00000000E-01  8.00000000E-01  1.50000000E+00  8.00000000E-01
  8.00000000E-01  1.50000000E+00  8.00000000E-01  8.00000000E-01  1.50000000E+00
  8.00000000E-01  8.00000000E-01  1.50000000E+00  8.00000000E-01  8.00000000E-01
  1.50000000E+00  8.00000000E-01  8.00000000E-01  1.50000000E+00  8.00000000E-01
  8.00000000E-01  1.50000000E+00  8.00000000E-01  8.00000000E-01  1.50000000E+00
  8.00000000E-01  8.00000000E-01  1.50000000E+00  8.00000000E-01  8.00000000E-01
  1.50000000E+00  8.00000000E-01  8.00000000E-01  1.50000000E+00  8.00000000E-01
  8.00000000E-01  1.50000000E+00  8.00000000E-01  8.00000000E-01  1.50000000E+00
  8.00000000E-01  8.00000000E-01  1.50000000E+00  8.00000000E-01  8.00000000E-01
  1.50000000E+00  8.00000000E-01  8.00000000E-01  1.50000000E+00  8.00000000E-01
  8.00000000E-01  1.50000000E+00  8.00000000E-01  8.00000000E-01  1.50000000E+00
  8.00000000E-01  8.00000000E-01  1.50000000E+00  8.00000000E-01  8.00000000E-01
  1.50000000E+00  8.00000000E-01  8.00000000E-01  1.50000000E+00  8.00000000E-01
  8.00000000E-01  1.50000000E+00  8.00000000E-01  8.00000000E-01  1.50000000E+00
  8.00000000E-01  8.00000000E-01  1.50000000E+00  8.00000000E-01  8.00000000E-01
  1.50000000E+00  8.00000000E-01  8.00000000E-01  1.50000000E+00  8.00000000E-01
  8.00000000E-01  1.50000000E+00  8.00000000E-01  8.00000000E-01  1.50000000E+00
  8.00000000E-01  8.00000000E-01  1.50000000E+00  8.00000000E-01  8.00000000E-01
  1.50000000E+00  8.00000000E-01  8.00000000E-01  1.50000000E+00  8.00000000E-01
  8.00000000E-01  1.50000000E+00  8.00000000E-01  8.00000000E-01  1.50000000E+00
  8.00000000E-01  8.00000000E-01  1.50000000E+00  8.00000000E-01  8.00000000E-01
  1.50000000E+00  8.00000000E-01  8.00000000E-01  1.50000000E+00  8.00000000E-01
  8.00000000E-01  1.50000000E+00  8.00000000E-01  8.00000000E-01  1.50000000E+00
  8.00000000E-01  8.00000000E-01  1.50000000E+00  8.00000000E-01  8.00000000E-01
  1.50000000E+00  8.00000000E-01  8.00000000E-01  1.50000000E+00  8.00000000E-01
  8.00000000E-01  1.50000000E+00  8.00000000E-01  8.00000000E-01  1.50000000E+00
  8.00000000E-01  8.00000000E-01  1.50000000E+00  8.00000000E-01  8.00000000E-01
  1.50000000E+00  8.00000000E-01  8.00000000E-01  1.50000000E+00  8.00000000E-01
  8.00000000E-01  1.50000000E+00  8.00000000E-01  8.00000000E-01  1.50000000E+00
  8.00000000E-01  8.00000000E-01  1.50000000E+00  8.00000000E-01  8.00000000E-01
  1.50000000E+00  8.00000000E-01  8.00000000E-01  1.50000000E+00  8.00000000E-01
  8.00000000E-01  1.50000000E+00  8.00000000E-01  8.00000000E-01  1.50000000E+00
  8.00000000E-01  8.00000000E-01  1.50000000E+00  8.00000000E-01  8.00000000E-01
  1.50000000E+00  8.00000000E-01  8.00000000E-01  1.50000000E+00  8.00000000E-01
  8.00000000E-01  1.50000000E+00  8.00000000E-01  8.00000000E-01  1.50000000E+00
  8.00000000E-01  8.00000000E-01  1.50000000E+00  8.00000000E-01  8.00000000E-01
  1.50000000E+00  8.00000000E-01  8.00000000E-01  1.50000000E+00  8.00000000E-01
  8.00000000E-01  1.50000000E+00  8.00000000E-01  8.00000000E-01  1.50000000E+00
  8.00000000E-01  8.00000000E-01  1.50000000E+00  8.00000000E-01  8.00000000E-01
  1.50000000E+00  8.00000000E-01  8.00000000E-01  1.50000000E+00  8.00000000E-01
  8.00000000E-01  1.50000000E+00  8.00000000E-01  8.00000000E-01  1.50000000E+00
  8.00000000E-01  8.00000000E-01  1.50000000E+00  8.00000000E-01  8.00000000E-01
  1.50000000E+00  8.00000000E-01  8.00000000E-01  1.50000000E+00  8.00000000E-01
  8.00000000E-01  1.50000000E+00  8.00000000E-01  8.00000000E-01  1.50000000E+00
  8.00000000E-01  8.00000000E-01  1.50000000E+00  8.00000000E-01  8.00000000E-01
  1.50000000E+00  8.00000000E-01  8.00000000E-01  1.50000000E+00  8.00000000E-01
  8.00000000E-01  1.50000000E+00  8.00000000E-01  8.00000000E-01  1.50000000E+00
  8.00000000E-01  8.00000000E-01  1.50000000E+00  8.00000000E-01  8.00000000E-01
  1.50000000E+00  8.00000000E-01  8.00000000E-01  1.50000000E+00  8.00000000E-01
  8.00000000E-01  1.50000000E+00  8.00000000E-01  8.00000000E-01  1.50000000E+00
  8.00000000E-01  8.00000000E-01  1.50000000E+00  8.00000000E-01  8.00000000E-01
  1.50000000E+00  8.00000000E-01  8.00000000E-01  1.50000000E+00  8.00000000E-01
  8.00000000E-01  1.50000000E+00  8.00000000E-01  8.00000000E-01  1.50000000E+00
  8.00000000E-01  8.00000000E-01  1.50000000E+00  8.00000000E-01  8.00000000E-01
  1.50000000E+00  8.00000000E-01  8.00000000E-01  1.50000000E+00  8.00000000E-01
  8.00000000E-01  1.50000000E+00  8.00000000E-01  8.00000000E-01  1.50000000E+00
  8.00000000E-01  8.00000000E-01  1.50000000E+00  8.00000000E-01  8.00000000E-01
  1.50000000E+00  8.00000000E-01  8.00000000E-01  1.50000000E+00  8.00000000E-01
  8.00000000E-01  1.50000000E+00  8.00000000E-01  8.00000000E-01  1.50000000E+00
  8.00000000E-01  8.00000000E-01  1.50000000E+00  8.00000000E-01  8.00000000E-01
  1.50000000E+00  8.00000000E-01  8.00000000E-01  1.50000000E+00  8.00000000E-01
  8.00000000E-01  1.50000000E+00  8.00000000E-01  8.00000000E-01  1.50000000E+00
  8.00000000E-01  8.00000000E-01  1.50000000E+00  8.00000000E-01  8.00000000E-01
  1.50000000E+00  8.00000000E-01  8.00000000E-01  1.50000000E+00  8.00000000E-01
  8.00000000E-01  1.50000000E+00  8.00000000E-01  8.00000000E-01  1.50000000E+00
  8.00000000E-01  8.00000000E-01  1.50000000E+00  8.00000000E-01  8.00000000E-01
  1.50000000E+00  8.00000000E-01  8.00000000E-01  1.50000000E+00  8.00000000E-01
  8.00000000E-01  1.50000000E+00  8.00000000E-01  8.00000000E-01  1.50000000E+00
  8.00000000E-01  8.00000000E-01  1.50000000E+00  8.00000000E-01  8.00000000E-01
  1.50000000E+00  8.00000000E-01  8.00000000E-01  1.50000000E+00  8.00000000E-01
  8.00000000E-01  1.50000000E+00  8.00000000E-01  8.00000000E-01  1.50000000E+00
  8.00000000E-01  8.00000000E-01  1.50000000E+00  8.00000000E-01  8.00000000E-01
  1.50000000E+00  8.00000000E-01  8.00000000E-01  1.50000000E+00  8.00000000E-01
  8.00000000E-01  1.50000000E+00  8.00000000E-01  8.00000000E-01  1.50000000E+00
  8.00000000E-01  8.00000000E-01  1.50000000E+00  8.00000000E-01  8.00000000E-01
  1.50000000E+00  8.00000000E-01  8.00000000E-01  1.50000000E+00  8.00000000E-01
  8.00000000E-01  1.50000000E+00  8.00000000E-01  8.00000000E-01  1.50000000E+00
  8.00000000E-01  8.00000000E-01  1.50000000E+00  8.00000000E-01  8.00000000E-01
  1.50000000E+00  8.00000000E-01  8.00000000E-01  1.50000000E+00  8.00000000E-01
  8.00000000E-01  1.50000000E+00  8.00000000E-01  8.00000000E-01  1.50000000E+00
  8.00000000E-01  8.00000000E-01  1.50000000E+00  8.00000000E-01  8.00000000E-01
  1.50000000E+00  8.00000000E-01  8.00000000E-01  1.50000000E+00  8.00000000E-01
  8.00000000E-01  1.50000000E+00  8.00000000E-01  8.00000000E-01  1.50000000E+00
  8.00000000E-01  8.00000000E-01  1.50000000E+00  8.00000000E-01  8.00000000E-01
  1.50000000E+00  8.00000000E-01  8.00000000E-01  1.50000000E+00  8.00000000E-01
  8.00000000E-01  1.50000000E+00  8.00000000E-01  8.00000000E-01  1.50000000E+00
  8.00000000E-01  8.00000000E-01  1.50000000E+00  8.00000000E-01  8.00000000E-01
  1.50000000E+00  8.00000000E-01  8.00000000E-01  1.50000000E+00  8.00000000E-01
  8.00000000E-01  1.50000000E+00  8.00000000E-01  8.00000000E-01  1.50000000E+00
  8.00000000E-01  8.00000000E-01  1.50000000E+00  8.00000000E-01  8.00000000E-01
  1.50000000E+00  8.00000000E-01  8.00000000E-01  1.50000000E+00  8.00000000E-01
  8.00000000E-01  1.50000000E+00  8.00000000E-01  8.00000000E-01  1.50000000E+00
  8.00000000E-01  8.00000000E-01  1.50000000E+00  8.00000000E-01  8.00000000E-01
  1.50000000E+00  8.00000000E-01  8.00000000E-01  1.50000000E+00  8.00000000E-01
  8.00000000E-01  1.50000000E+00  8.00000000E-01  8.00000000E-01  1.50000000E+00
  8.00000000E-01  8.00000000E-01  1.50000000E+00  8.00000000E-01  8.00000000E-01
  1.50000000E+00  8.00000000E-01  8.00000000E-01  1.50000000E+00  8.00000000E-01
  8.00000000E-01  1.50000000E+00  8.00000000E-01  8.00000000E-01  1.50000000E+00
  8.00000000E-01  8.00000000E-01  1.50000000E+00  8.00000000E-01  8.00000000E-01
  1.50000000E+00  8.00000000E-01  8.00000000E-01  1.50000000E+00  8.00000000E-01
  8.00000000E-01  1.50000000E+00  8.00000000E-01  8.00000000E-01  1.50000000E+00
  8.00000000E-01  8.00000000E-01  1.50000000E+00  8.00000000E-01  8.00000000E-01
  1.50000000E+00  8.00000000E-01  8.00000000E-01  1.50000000E+00  8.00000000E-01
  8.00000000E-01  1.50000000E+00  8.00000000E-01  8.00000000E-01  1.50000000E+00
  8.00000000E-01  8.00000000E-01  1.50000000E+00  8.00000000E-01  8.00000000E-01
  1.50000000E+00  8.00000000E-01  8.00000000E-01  1.50000000E+00  8.00000000E-01
  8.00000000E-01  1.50000000E+00  8.00000000E-01  8.00000000E-01  1.50000000E+00
  8.00000000E-01  8.00000000E-01  1.50000000E+00  8.00000000E-01  8.00000000E-01
  1.50000000E+00  8.00000000E-01  8.00000000E-01  1.50000000E+00  8.00000000E-01
  8.00000000E-01  1.50000000E+00  8.00000000E-01  8.00000000E-01  1.50000000E+00
  8.00000000E-01  8.00000000E-01  1.50000000E+00  8.00000000E-01  8.00000000E-01
  1.50000000E+00  8.00000000E-01  8.00000000E-01  1.50000000E+00  8.00000000E-01
  8.00000000E-01  1.50000000E+00  8.00000000E-01  8.00000000E-01  1.50000000E+00
  8.00000000E-01  8.00000000E-01  1.50000000E+00  8.00000000E-01  8.00000000E-01
  1.50000000E+00  8.00000000E-01  8.00000000E-01  1.50000000E+00  8.00000000E-01
  8.00000000E-01  1.50000000E+00  8.00000000E-01  8.00000000E-01  1.50000000E+00
  8.00000000E-01  8.00000000E-01  1.50000000E+00  8.00000000E-01  8.00000000E-01
  1.50000000E+00  8.00000000E-01  8.00000000E-01  1.50000000E+00  8.00000000E-01
  8.00000000E-01  1.50000000E+00  8.00000000E-01  8.00000000E-01  1.50000000E+00
  8.00000000E-01  8.00000000E-01  1.50000000E+00  8.00000000E-01  8.00000000E-01
  1.50000000E+00  8.00000000E-01  8.00000000E-01  1.50000000E+00  8.00000000E-01
  8.00000000E-01  1.50000000E+00  8.00000000E-01  8.00000000E-01  1.50000000E+00
  8.00000000E-01  8.00000000E-01  1.50000000E+00  8.00000000E-01  8.00000000E-01
  1.50000000E+00  8.00000000E-01  8.00000000E-01  1.50000000E+00  8.00000000E-01
  8.00000000E-01  1.50000000E+00  8.00000000E-01  8.00000000E-01  1.50000000E+00
  8.00000000E-01  8.00000000E-01  1.50000000E+00  8.00000000E-01  8.00000000E-01
  1.50000000E+00  8.00000000E-01  8.00000000E-01  1.50000000E+00  8.00000000E-01
  8.00000000E-01  1.50000000E+00  8.00000000E-01  8.00000000E-01  1.50000000E+00
  8.00000000E-01  8.00000000E-01  1.50000000E+00  8.00000000E-01  8.00000000E-01
  1.50000000E+00  8.00000000E-01  8.00000000E-01  1.50000000E+00  8.00000000E-01
  8.00000000E-01  1.50000000E+00  8.00000000E-01  8.00000000E-01  1.50000000E+00
  8.00000000E-01  8.00000000E-01  1.50000000E+00  8.00000000E-01  8.00000000E-01
  1.50000000E+00  8.00000000E-01  8.00000000E-01  1.50000000E+00  8.00000000E-01
  8.00000000E-01  1.50000000E+00  8.00000000E-01  8.00000000E-01  1.50000000E+00
  8.00000000E-01  8.00000000E-01  1.50000000E+00  8.00000000E-01  8.00000000E-01
  1.50000000E+00  8.00000000E-01  8.00000000E-01  1.50000000E+00  8.00000000E-01
  8.00000000E-01  1.50000000E+00  8.00000000E-01  8.00000000E-01  1.50000000E+00
  8.00000000E-01  8.00000000E-01  1.50000000E+00  8.00000000E-01  8.00000000E-01
  1.50000000E+00  8.00000000E-01  8.00000000E-01  1.50000000E+00  8.00000000E-01
  8.00000000E-01  1.50000000E+00  8.00000000E-01  8.00000000E-01  1.50000000E+00
  8.00000000E-01  8.00000000E-01  1.50000000E+00  8.00000000E-01  8.00000000E-01
  1.50000000E+00  8.00000000E-01  8.00000000E-01  1.50000000E+00  8.00000000E-01
  8.00000000E-01  1.50000000E+00  8.00000000E-01  8.00000000E-01  1.50000000E+00
  8.00000000E-01  8.00000000E-01  1.50000000E+00  8.00000000E-01  8.00000000E-01
  1.50000000E+00  8.00000000E-01  8.00000000E-01  1.50000000E+00  8.00000000E-01
  8.00000000E-01  1.50000000E+00  8.00000000E-01  8.00000000E-01  1.50000000E+00
  8.00000000E-01  8.00000000E-01  1.50000000E+00  8.00000000E-01  8.00000000E-01
  1.50000000E+00  8.00000000E-01  8.00000000E-01  1.50000000E+00  8.00000000E-01
  8.00000000E-01  1.50000000E+00  8.00000000E-01  8.00000000E-01  1.50000000E+00
  8.00000000E-01  8.00000000E-01  1.50000000E+00  8.00000000E-01  8.00000000E-01
  1.50000000E+00  8.00000000E-01  8.00000000E-01  1.50000000E+00  8.00000000E-01
  8.00000000E-01  1.50000000E+00  8.00000000E-01  8.00000000E-01  1.50000000E+00
  8.00000000E-01  8.00000000E-01  1.50000000E+00  8.00000000E-01  8.00000000E-01
  1.50000000E+00  8.00000000E-01  8.00000000E-01  1.50000000E+00  8.00000000E-01
  8.00000000E-01  1.50000000E+00  8.00000000E-01  8.00000000E-01  1.50000000E+00
  8.00000000E-01  8.00000000E-01  1.50000000E+00  8.00000000E-01  8.00000000E-01
  1.50000000E+00  8.00000000E-01  8.00000000E-01  1.50000000E+00  8.00000000E-01
  8.00000000E-01  1.50000000E+00  8.00000000E-01  8.00000000E-01  1.50000000E+00
  8.00000000E-01  8.00000000E-01  1.50000000E+00  8.00000000E-01  8.00000000E-01
  1.50000000E+00  8.00000000E-01  8.00000000E-01  1.50000000E+00  8.00000000E-01
  8.00000000E-01  1.50000000E+00  8.00000000E-01  8.00000000E-01  1.50000000E+00
  8.00000000E-01  8.00000000E-01  1.50000000E+00  8.00000000E-01  8.00000000E-01
  1.50000000E+00  8.00000000E-01  8.00000000E-01  1.50000000E+00  8.00000000E-01
  8.00000000E-01  1.50000000E+00  8.00000000E-01  8.00000000E-01  1.50000000E+00
  8.00000000E-01  8.00000000E-01  1.50000000E+00  8.00000000E-01  8.00000000E-01
  1.50000000E+00  8.00000000E-01  8.00000000E-01  1.50000000E+00  8.00000000E-01
  8.00000000E-01  1.50000000E+00  8.00000000E-01  8.00000000E-01  1.50000000E+00
  8.00000000E-01  8.00000000E-01  1.50000000E+00  8.00000000E-01  8.00000000E-01
  1.50000000E+00  8.00000000E-01  8.00000000E-01  1.50000000E+00  8.00000000E-01
  8.00000000E-01  1.50000000E+00  8.00000000E-01  8.00000000E-01  1.50000000E+00
  8.00000000E-01  8.00000000E-01  1.50000000E+00  8.00000000E-01  8.00000000E-01
  1.50000000E+00  8.00000000E-01  8.00000000E-01  1.50000000E+00  8.00000000E-01
  8.00000000E-01  1.50000000E+00  8.00000000E-01  8.00000000E-01  1.50000000E+00
  8.00000000E-01  8.00000000E-01  1.50000000E+00  8.00000000E-01  8.00000000E-01
  1.50000000E+00  8.00000000E-01  8.00000000E-01  1.50000000E+00  8.00000000E-01
  8.00000000E-01  1.50000000E+00  8.00000000E-01  8.00000000E-01  1.50000000E+00
  8.00000000E-01  8.00000000E-01  1.50000000E+00  8.00000000E-01  8.00000000E-01
  1.50000000E+00  8.00000000E-01  8.00000000E-01  1.50000000E+00  8.00000000E-01
  8.00000000E-01  1.50000000E+00  8.00000000E-01  8.00000000E-01  1.50000000E+00
  8.00000000E-01  8.00000000E-01  1.50000000E+00  8.00000000E-01  8.00000000E-01
  1.50000000E+00  8.00000000E-01  8.00000000E-01  1.50000000E+00  8.00000000E-01
  8.00000000E-01  1.50000000E+00  8.00000000E-01  8.00000000E-01  1.50000000E+00
  8.00000000E-01  8.00000000E-01  1.50000000E+00  8.00000000E-01  8.00000000E-01
  1.50000000E+00  8.00000000E-01  8.00000000E-01  1.50000000E+00  8.00000000E-01
  8.00000000E-01  1.50000000E+00  8.00000000E-01  8.00000000E-01  1.50000000E+00
  8.00000000E-01  8.00000000E-01  1.50000000E+00  8.00000000E-01  8.00000000E-01
  1.50000000E+00  8.00000000E-01  8.00000000E-01  1.50000000E+00  8.00000000E-01
  8.00000000E-01  1.50000000E+00  8.00000000E-01  8.00000000E-01  1.50000000E+00
  8.00000000E-01  8.00000000E-01  1.50000000E+00  8.00000000E-01  8.00000000E-01
  1.50000000E+00  8.00000000E-01  8.00000000E-01  1.50000000E+00  8.00000000E-01
  8.00000000E-01  1.50000000E+00  8.00000000E-01  8.00000000E-01  1.50000000E+00
  8.00000000E-01  8.00000000E-01  1.50000000E+00  8.00000000E-01  8.00000000E-01
  1.50000000E+00  8.00000000E-01  8.00000000E-01  1.50000000E+00  8.00000000E-01
  8.00000000E-01  1.50000000E+00  8.00000000E-01  8.00000000E-01  1.50000000E+00
  8.00000000E-01  8.00000000E-01  1.50000000E+00  8.00000000E-01  8.00000000E-01
  1.50000000E+00  8.00000000E-01  8.00000000E-01  1.50000000E+00  8.00000000E-01
  8.00000000E-01  1.50000000E+00  8.00000000E-01  8.00000000E-01  1.50000000E+00
  8.00000000E-01  8.00000000E-01  1.50000000E+00  8.00000000E-01  8.00000000E-01
  1.50000000E+00  8.00000000E-01  8.00000000E-01  1.50000000E+00  8.00000000E-01
  8.00000000E-01  1.50000000E+00  8.00000000E-01  8.00000000E-01  1.50000000E+00
  8.00000000E-01  8.00000000E-01  1.50000000E+00  8.00000000E-01  8.00000000E-01
  1.50000000E+00  8.00000000E-01  8.00000000E-01  1.50000000E+00  8.00000000E-01
  8.00000000E-01  1.50000000E+00  8.00000000E-01  8.00000000E-01  1.50000000E+00
  8.00000000E-01  8.00000000E-01  1.50000000E+00  8.00000000E-01  8.00000000E-01
  1.50000000E+00  8.00000000E-01  8.00000000E-01  1.50000000E+00  8.00000000E-01
  8.00000000E-01  1.50000000E+00  8.00000000E-01  8.00000000E-01  1.50000000E+00
  8.00000000E-01  8.00000000E-01  1.50000000E+00  8.00000000E-01  8.00000000E-01
  1.50000000E+00  8.00000000E-01  8.00000000E-01  1.50000000E+00  8.00000000E-01
  8.00000000E-01  1.50000000E+00  8.00000000E-01  8.00000000E-01  1.50000000E+00
  8.00000000E-01  8.00000000E-01  1.50000000E+00  8.00000000E-01  8.00000000E-01
  1.50000000E+00  8.00000000E-01  8.00000000E-01  1.50000000E+00  8.00000000E-01
  8.00000000E-01  1.50000000E+00  8.00000000E-01  8.00000000E-01  1.50000000E+00
  8.00000000E-01  8.00000000E-01  1.50000000E+00  8.00000000E-01  8.00000000E-01
  1.50000000E+00  8.00000000E-01  8.00000000E-01  1.50000000E+00  8.00000000E-01
  8.00000000E-01  1.50000000E+00  8.00000000E-01  8.00000000E-01  1.50000000E+00
  8.00000000E-01  8.00000000E-01  1.50000000E+00  8.00000000E-01  8.00000000E-01
  1.50000000E+00  8.00000000E-01  8.00000000E-01  1.50000000E+00  8.00000000E-01
  8.00000000E-01  1.50000000E+00  8.00000000E-01  8.00000000E-01  1.50000000E+00
  8.00000000E-01  8.00000000E-01  1.50000000E+00  8.00000000E-01  8.00000000E-01
  1.50000000E+00  8.00000000E-01  8.00000000E-01  1.50000000E+00  8.00000000E-01
  8.00000000E-01  1.50000000E+00  8.00000000E-01  8.00000000E-01  1.50000000E+00
  8.00000000E-01  8.00000000E-01  1.50000000E+00  8.00000000E-01  8.00000000E-01
  1.50000000E+00  8.00000000E-01  8.00000000E-01  1.50000000E+00  8.00000000E-01
  8.00000000E-01  1.50000000E+00  8.00000000E-01  8.00000000E-01  1.50000000E+00
  8.00000000E-01  8.00000000E-01  1.50000000E+00  8.00000000E-01  8.00000000E-01
  1.50000000E+00  8.00000000E-01  8.00000000E-01  1.50000000E+00  8.00000000E-01
  8.00000000E-01  1.50000000E+00  8.00000000E-01  8.00000000E-01  1.50000000E+00
  8.00000000E-01  8.00000000E-01  1.50000000E+00  8.00000000E-01  8.00000000E-01
  1.50000000E+00  8.00000000E-01  8.00000000E-01  1.50000000E+00  8.00000000E-01
  8.00000000E-01  1.50000000E+00  8.00000000E-01  8.00000000E-01  1.50000000E+00
  8.00000000E-01  8.00000000E-01  1.50000000E+00  8.00000000E-01  8.00000000E-01
  1.50000000E+00  8.00000000E-01  8.00000000E-01  1.50000000E+00  8.00000000E-01
  8.00000000E-01  1.50000000E+00  8.00000000E-01  8.00000000E-01  1.50000000E+00
  8.00000000E-01  8.00000000E-01  1.50000000E+00  8.00000000E-01  8.00000000E-01
  1.50000000E+00  8.00000000E-01  8.00000000E-01  1.50000000E+00  8.00000000E-01
  8.00000000E-01  1.50000000E+00  8.00000000E-01  8.00000000E-01  1.50000000E+00
  8.00000000E-01  8.00000000E-01  1.50000000E+00  8.00000000E-01  8.00000000E-01
  1.50000000E+00  8.00000000E-01  8.00000000E-01  1.50000000E+00  8.00000000E-01
  8.00000000E-01  1.50000000E+00  8.00000000E-01  8.00000000E-01  1.50000000E+00
  8.00000000E-01  8.00000000E-01  1.50000000E+00  8.00000000E-01  8.00000000E-01
  1.50000000E+00  8.00000000E-01  8.00000000E-01  1.50000000E+00  8.00000000E-01
  8.00000000E-01  1.50000000E+00  8.00000000E-01  8.00000000E-01  1.50000000E+00
  8.00000000E-01  8.00000000E-01  1.50000000E+00  8.00000000E-01  8.00000000E-01
  1.50000000E+00  8.00000000E-01  8.00000000E-01  1.50000000E+00  8.00000000E-01
  8.00000000E-01  1.50000000E+00  8.00000000E-01  8.00000000E-01  1.50000000E+00
  8.00000000E-01  8.00000000E-01  1.50000000E+00  8.00000000E-01  8.00000000E-01
  1.50000000E+00  8.00000000E-01  8.00000000E-01  1.50000000E+00  8.00000000E-01
  8.00000000E-01  1.50000000E+00  8.00000000E-01  8.00000000E-01  1.50000000E+00
  8.00000000E-01  8.00000000E-01  1.50000000E+00  8.00000000E-01  8.00000000E-01
  1.50000000E+00  8.00000000E-01  8.00000000E-01  1.50000000E+00  8.00000000E-01
  8.00000000E-01  1.50000000E+00  8.00000000E-01  8.00000000E-01  1.50000000E+00
  8.00000000E-01  8.00000000E-01  1.50000000E+00  8.00000000E-01  8.00000000E-01
  1.50000000E+00  8.00000000E-01  8.00000000E-01  1.50000000E+00  8.00000000E-01
  8.00000000E-01  1.50000000E+00  8.00000000E-01  8.00000000E-01  1.50000000E+00
  8.00000000E-01  8.00000000E-01  1.50000000E+00  8.00000000E-01  8.00000000E-01
  1.50000000E+00  8.00000000E-01  8.00000000E-01  1.50000000E+00  8.00000000E-01
  8.00000000E-01  1.50000000E+00  8.00000000E-01  8.00000000E-01  1.50000000E+00
  8.00000000E-01  8.00000000E-01  1.50000000E+00  8.00000000E-01  8.00000000E-01
  1.50000000E+00  8.00000000E-01  8.00000000E-01  1.50000000E+00  8.00000000E-01
  8.00000000E-01  1.50000000E+00  8.00000000E-01  8.00000000E-01  1.50000000E+00
  8.00000000E-01  8.00000000E-01  1.50000000E+00  8.00000000E-01  8.00000000E-01
  1.50000000E+00  8.00000000E-01  8.00000000E-01  1.50000000E+00  8.00000000E-01
  8.00000000E-01  1.50000000E+00  8.00000000E-01  8.00000000E-01  1.50000000E+00
  8.00000000E-01  8.00000000E-01  1.50000000E+00  8.00000000E-01  8.00000000E-01
  1.50000000E+00  8.00000000E-01  8.00000000E-01  1.50000000E+00  8.00000000E-01
  8.00000000E-01  1.50000000E+00  8.00000000E-01  8.00000000E-01  1.50000000E+00
  8.00000000E-01  8.00000000E-01  1.50000000E+00  8.00000000E-01  8.00000000E-01
  1.50000000E+00  8.00000000E-01  8.00000000E-01  1.50000000E+00  8.00000000E-01
  8.00000000E-01  1.50000000E+00  8.00000000E-01  8.00000000E-01  1.50000000E+00
  8.00000000E-01  8.00000000E-01  1.50000000E+00  8.00000000E-01  8.00000000E-01
  1.50000000E+00  8.00000000E-01  8.00000000E-01  1.50000000E+00  8.00000000E-01
  8.00000000E-01  1.50000000E+00  8.00000000E-01  8.00000000E-01  1.50000000E+00
  8.00000000E-01  8.00000000E-01  1.50000000E+00  8.00000000E-01  8.00000000E-01
  1.50000000E+00  8.00000000E-01  8.00000000E-01  1.50000000E+00  8.00000000E-01
  8.00000000E-01  1.50000000E+00  8.00000000E-01  8.00000000E-01  1.50000000E+00
  8.00000000E-01  8.00000000E-01  1.50000000E+00  8.00000000E-01  8.00000000E-01
  1.50000000E+00  8.00000000E-01  8.00000000E-01  1.50000000E+00  8.00000000E-01
  8.00000000E-01  1.50000000E+00  8.00000000E-01  8.00000000E-01  1.50000000E+00
  8.00000000E-01  8.00000000E-01  1.50000000E+00  8.00000000E-01  8.00000000E-01
  1.50000000E+00  8.00000000E-01  8.00000000E-01  1.50000000E+00  8.00000000E-01
  8.00000000E-01  1.50000000E+00  8.00000000E-01  8.00000000E-01  1.50000000E+00
  8.00000000E-01  8.00000000E-01  1.50000000E+00  8.00000000E-01  8.00000000E-01
  1.50000000E+00  8.00000000E-01  8.00000000E-01  1.50000000E+00  8.00000000E-01
  8.00000000E-01  1.50000000E+00  8.00000000E-01  8.00000000E-01  1.50000000E+00
  8.00000000E-01  8.00000000E-01  1.50000000E+00  8.00000000E-01  8.00000000E-01
  1.50000000E+00  8.00000000E-01  8.00000000E-01  1.50000000E+00  8.00000000E-01
  8.00000000E-01  1.50000000E+00  8.00000000E-01  8.00000000E-01  1.50000000E+00
  8.00000000E-01  8.00000000E-01  1.50000000E+00  8.00000000E-01  8.00000000E-01
  1.50000000E+00  8.00000000E-01  8.00000000E-01  1.50000000E+00  8.00000000E-01
  8.00000000E-01  1.50000000E+00  8.00000000E-01  8.00000000E-01  1.50000000E+00
  8.00000000E-01  8.00000000E-01  1.50000000E+00  8.00000000E-01  8.00000000E-01
  1.50000000E+00  8.00000000E-01  8.00000000E-01  1.50000000E+00  8.00000000E-01
  8.00000000E-01  1.50000000E+00  8.00000000E-01  8.00000000E-01  1.50000000E+00
  8.00000000E-01  8.00000000E-01  1.50000000E+00  8.00000000E-01  8.00000000E-01
  1.50000000E+00  8.00000000E-01  8.00000000E-01  1.50000000E+00  8.00000000E-01
  8.00000000E-01  1.50000000E+00  8.00000000E-01  8.00000000E-01  1.50000000E+00
  8.00000000E-01  8.00000000E-01  1.50000000E+00  8.00000000E-01  8.00000000E-01
  1.50000000E+00  8.00000000E-01  8.00000000E-01  1.50000000E+00  8.00000000E-01
  8.00000000E-01  1.50000000E+00  8.00000000E-01  8.00000000E-01  1.50000000E+00
  8.00000000E-01  8.00000000E-01  1.50000000E+00  8.00000000E-01  8.00000000E-01
  1.50000000E+00  8.00000000E-01  8.00000000E-01  1.50000000E+00  8.00000000E-01
  8.00000000E-01  1.50000000E+00  8.00000000E-01  8.00000000E-01  1.50000000E+00
  8.00000000E-01  8.00000000E-01  1.50000000E+00  8.00000000E-01  8.00000000E-01
  1.50000000E+00  8.00000000E-01  8.00000000E-01  1.50000000E+00  8.00000000E-01
  8.00000000E-01  1.50000000E+00  8.00000000E-01  8.00000000E-01  1.50000000E+00
  8.00000000E-01  8.00000000E-01  1.50000000E+00  8.00000000E-01  8.00000000E-01
  1.50000000E+00  8.00000000E-01  8.00000000E-01  1.50000000E+00  8.00000000E-01
  8.00000000E-01  1.50000000E+00  8.00000000E-01  8.00000000E-01  1.50000000E+00
  8.00000000E-01  8.00000000E-01  1.50000000E+00  8.00000000E-01  8.00000000E-01
  1.50000000E+00  8.00000000E-01  8.00000000E-01  1.50000000E+00  8.00000000E-01
  8.00000000E-01  1.50000000E+00  8.00000000E-01  8.00000000E-01  1.50000000E+00
  8.00000000E-01  8.00000000E-01  1.50000000E+00  8.00000000E-01  8.00000000E-01
  1.50000000E+00  8.00000000E-01  8.00000000E-01  1.50000000E+00  8.00000000E-01
  8.00000000E-01  1.50000000E+00  8.00000000E-01  8.00000000E-01  1.50000000E+00
  8.00000000E-01  8.00000000E-01  1.50000000E+00  8.00000000E-01  8.00000000E-01
  1.50000000E+00  8.00000000E-01  8.00000000E-01  1.50000000E+00  8.00000000E-01
  8.00000000E-01  1.50000000E+00  8.00000000E-01  8.00000000E-01  1.50000000E+00
  8.00000000E-01  8.00000000E-01  1.50000000E+00  8.00000000E-01  8.00000000E-01
  1.50000000E+00  8.00000000E-01  8.00000000E-01  1.50000000E+00  8.00000000E-01
  8.00000000E-01  1.50000000E+00  8.00000000E-01  8.00000000E-01  1.50000000E+00
  8.00000000E-01  8.00000000E-01  1.50000000E+00  8.00000000E-01  8.00000000E-01
  1.50000000E+00  8.00000000E-01  8.00000000E-01  1.50000000E+00  8.00000000E-01
  8.00000000E-01  1.50000000E+00  8.00000000E-01  8.00000000E-01  1.50000000E+00
  8.00000000E-01  8.00000000E-01  1.50000000E+00  8.00000000E-01  8.00000000E-01
  1.50000000E+00  8.00000000E-01  8.00000000E-01  1.50000000E+00  8.00000000E-01
  8.00000000E-01  1.50000000E+00  8.00000000E-01  8.00000000E-01  1.50000000E+00
  8.00000000E-01  8.00000000E-01  1.50000000E+00  8.00000000E-01  8.00000000E-01
  1.50000000E+00  8.00000000E-01  8.00000000E-01  1.50000000E+00  8.00000000E-01
  8.00000000E-01  1.50000000E+00  8.00000000E-01  8.00000000E-01  1.50000000E+00
  8.00000000E-01  8.00000000E-01  1.50000000E+00  8.00000000E-01  8.00000000E-01
  1.50000000E+00  8.00000000E-01  8.00000000E-01  1.50000000E+00  8.00000000E-01
  8.00000000E-01  1.50000000E+00  8.00000000E-01  8.00000000E-01  1.50000000E+00
  8.00000000E-01  8.00000000E-01  1.50000000E+00  8.00000000E-01  8.00000000E-01
  1.50000000E+00  8.00000000E-01  8.00000000E-01  1.50000000E+00  8.00000000E-01
  8.00000000E-01  1.50000000E+00  8.00000000E-01  8.00000000E-01  1.50000000E+00
  8.00000000E-01  8.00000000E-01  1.50000000E+00  8.00000000E-01  8.00000000E-01
  1.50000000E+00  8.00000000E-01  8.00000000E-01  1.50000000E+00  8.00000000E-01
  8.00000000E-01  1.50000000E+00  8.00000000E-01  8.00000000E-01  1.50000000E+00
  8.00000000E-01  8.00000000E-01  1.50000000E+00  8.00000000E-01  8.00000000E-01
  1.50000000E+00  8.00000000E-01  8.00000000E-01  1.50000000E+00  8.00000000E-01
  8.00000000E-01  1.50000000E+00  8.00000000E-01  8.00000000E-01  1.50000000E+00
  8.00000000E-01  8.00000000E-01  1.50000000E+00  8.00000000E-01  8.00000000E-01
  1.50000000E+00  8.00000000E-01  8.00000000E-01  1.50000000E+00  8.00000000E-01
  8.00000000E-01  1.50000000E+00  8.00000000E-01  8.00000000E-01  1.50000000E+00
  8.00000000E-01  8.00000000E-01  1.50000000E+00  8.00000000E-01  8.00000000E-01
  1.50000000E+00  8.00000000E-01  8.00000000E-01  1.50000000E+00  8.00000000E-01
  8.00000000E-01  1.50000000E+00  8.00000000E-01  8.00000000E-01  1.50000000E+00
  8.00000000E-01  8.00000000E-01  1.50000000E+00  8.00000000E-01  8.00000000E-01
  1.50000000E+00  8.00000000E-01  8.00000000E-01  1.50000000E+00  8.00000000E-01
  8.00000000E-01  1.50000000E+00  8.00000000E-01  8.00000000E-01  1.50000000E+00
  8.00000000E-01  8.00000000E-01  1.50000000E+00  8.00000000E-01  8.00000000E-01
  1.50000000E+00  8.00000000E-01  8.00000000E-01  1.50000000E+00  8.00000000E-01
  8.00000000E-01  1.50000000E+00  8.00000000E-01  8.00000000E-01  1.50000000E+00
  8.00000000E-01  8.00000000E-01  1.50000000E+00  8.00000000E-01  8.00000000E-01
  1.50000000E+00  8.00000000E-01  8.00000000E-01  1.50000000E+00  8.00000000E-01
  8.00000000E-01  1.50000000E+00  8.00000000E-01  8.00000000E-01  1.50000000E+00
  8.00000000E-01  8.00000000E-01  1.50000000E+00  8.00000000E-01  8.00000000E-01
  1.50000000E+00  8.00000000E-01  8.00000000E-01  1.50000000E+00  8.00000000E-01
  8.00000000E-01  1.50000000E+00  8.00000000E-01  8.00000000E-01  1.50000000E+00
  8.00000000E-01  8.00000000E-01  1.50000000E+00  8.00000000E-01  8.00000000E-01
  1.50000000E+00  8.00000000E-01  8.00000000E-01  1.50000000E+00  8.00000000E-01
  8.00000000E-01  1.50000000E+00  8.00000000E-01  8.00000000E-01  1.50000000E+00
  8.00000000E-01  8.00000000E-01  1.50000000E+00  8.00000000E-01  8.00000000E-01
  1.50000000E+00  8.00000000E-01  8.00000000E-01  1.50000000E+00  8.00000000E-01
  8.00000000E-01  1.50000000E+00  8.00000000E-01  8.00000000E-01  1.50000000E+00
  8.00000000E-01  8.00000000E-01  1.50000000E+00  8.00000000E-01  8.00000000E-01
  1.50000000E+00  8.00000000E-01  8.00000000E-01  1.50000000E+00  8.00000000E-01
  8.00000000E-01  1.50000000E+00  8.00000000E-01  8.00000000E-01  1.50000000E+00
  8.00000000E-01  8.00000000E-01  1.50000000E+00  8.00000000E-01  8.00000000E-01
  1.50000000E+00  8.00000000E-01  8.00000000E-01  1.50000000E+00  8.00000000E-01
  8.00000000E-01  1.50000000E+00  8.00000000E-01  8.00000000E-01  1.50000000E+00
  8.00000000E-01  8.00000000E-01  1.50000000E+00  8.00000000E-01  8.00000000E-01
  1.50000000E+00  8.00000000E-01  8.00000000E-01  1.50000000E+00  8.00000000E-01
  8.00000000E-01  1.50000000E+00  8.00000000E-01  8.00000000E-01  1.50000000E+00
  8.00000000E-01  8.00000000E-01  1.50000000E+00  8.00000000E-01  8.00000000E-01
  1.50000000E+00  8.00000000E-01  8.00000000E-01  1.50000000E+00  8.00000000E-01
  8.00000000E-01  1.50000000E+00  8.00000000E-01  8.00000000E-01  1.50000000E+00
  8.00000000E-01  8.00000000E-01  1.50000000E+00  8.00000000E-01  8.00000000E-01
  1.50000000E+00  8.00000000E-01  8.00000000E-01  1.50000000E+00  8.00000000E-01
  8.00000000E-01  1.50000000E+00  8.00000000E-01  8.00000000E-01  1.50000000E+00
  8.00000000E-01  8.00000000E-01  1.50000000E+00  8.00000000E-01  8.00000000E-01
  1.50000000E+00  8.00000000E-01  8.00000000E-01  1.50000000E+00  8.00000000E-01
  8.00000000E-01  1.50000000E+00  8.00000000E-01  8.00000000E-01  1.50000000E+00
  8.00000000E-01  8.00000000E-01  1.50000000E+00  8.00000000E-01  8.00000000E-01
  1.50000000E+00  8.00000000E-01  8.00000000E-01  1.50000000E+00  8.00000000E-01
  8.00000000E-01  1.50000000E+00  8.00000000E-01  8.00000000E-01  1.50000000E+00
  8.00000000E-01  8.00000000E-01  1.50000000E+00  8.00000000E-01  8.00000000E-01
  1.50000000E+00  8.00000000E-01  8.00000000E-01  1.50000000E+00  8.00000000E-01
  8.00000000E-01  1.50000000E+00  8.00000000E-01  8.00000000E-01  1.50000000E+00
  8.00000000E-01  8.00000000E-01  1.50000000E+00  8.00000000E-01  8.00000000E-01
  1.50000000E+00  8.00000000E-01  8.00000000E-01  1.50000000E+00  8.00000000E-01
  8.00000000E-01  1.50000000E+00  8.00000000E-01  8.00000000E-01  1.50000000E+00
  8.00000000E-01  8.00000000E-01  1.50000000E+00  8.00000000E-01  8.00000000E-01
  1.50000000E+00  8.00000000E-01  8.00000000E-01  1.50000000E+00  8.00000000E-01
  8.00000000E-01  1.50000000E+00  8.00000000E-01  8.00000000E-01  1.50000000E+00
  8.00000000E-01  8.00000000E-01  1.50000000E+00  8.00000000E-01  8.00000000E-01
  1.50000000E+00  8.00000000E-01  8.00000000E-01  1.50000000E+00  8.00000000E-01
  8.00000000E-01  1.50000000E+00  8.00000000E-01  8.00000000E-01  1.50000000E+00
  8.00000000E-01  8.00000000E-01  1.50000000E+00  8.00000000E-01  8.00000000E-01
  1.50000000E+00  8.00000000E-01  8.00000000E-01  1.50000000E+00  8.00000000E-01
  8.00000000E-01  1.50000000E+00  8.00000000E-01  8.00000000E-01  1.50000000E+00
  8.00000000E-01  8.00000000E-01  1.50000000E+00  8.00000000E-01  8.00000000E-01
  1.50000000E+00  8.00000000E-01  8.00000000E-01  1.50000000E+00  8.00000000E-01
  8.00000000E-01  1.50000000E+00  8.00000000E-01  8.00000000E-01  1.50000000E+00
  8.00000000E-01  8.00000000E-01  1.50000000E+00  8.00000000E-01  8.00000000E-01
  1.50000000E+00  8.00000000E-01  8.00000000E-01  1.50000000E+00  8.00000000E-01
  8.00000000E-01  1.50000000E+00  8.00000000E-01  8.00000000E-01  1.50000000E+00
  8.00000000E-01  8.00000000E-01  1.50000000E+00  8.00000000E-01  8.00000000E-01
  1.50000000E+00  8.00000000E-01  8.00000000E-01  1.50000000E+00  8.00000000E-01
  8.00000000E-01  1.50000000E+00  8.00000000E-01  8.00000000E-01  1.50000000E+00
  8.00000000E-01  8.00000000E-01  1.50000000E+00  8.00000000E-01  8.00000000E-01
  1.50000000E+00  8.00000000E-01  8.00000000E-01  1.50000000E+00  8.00000000E-01
  8.00000000E-01  1.50000000E+00  8.00000000E-01  8.00000000E-01  1.50000000E+00
  8.00000000E-01  8.00000000E-01  1.50000000E+00  8.00000000E-01  8.00000000E-01
  1.50000000E+00  8.00000000E-01  8.00000000E-01  1.50000000E+00  8.00000000E-01
  8.00000000E-01  1.50000000E+00  8.00000000E-01  8.00000000E-01  1.50000000E+00
  8.00000000E-01  8.00000000E-01  1.50000000E+00  8.00000000E-01  8.00000000E-01
  1.50000000E+00  8.00000000E-01  8.00000000E-01  1.50000000E+00  8.00000000E-01
  8.00000000E-01  1.50000000E+00  8.00000000E-01  8.00000000E-01  1.50000000E+00
  8.00000000E-01  8.00000000E-01  1.50000000E+00  8.00000000E-01  8.00000000E-01
  1.50000000E+00  8.00000000E-01  8.00000000E-01  1.50000000E+00  8.00000000E-01
  8.00000000E-01  1.50000000E+00  8.00000000E-01  8.00000000E-01  1.50000000E+00
  8.00000000E-01  8.00000000E-01  1.50000000E+00  8.00000000E-01  8.00000000E-01
  1.50000000E+00  8.00000000E-01  8.00000000E-01  1.50000000E+00  8.00000000E-01
  8.00000000E-01  1.50000000E+00  8.00000000E-01  8.00000000E-01  1.50000000E+00
  8.00000000E-01  8.00000000E-01  1.50000000E+00  8.00000000E-01  8.00000000E-01
  1.50000000E+00  8.00000000E-01  8.00000000E-01  1.50000000E+00  8.00000000E-01
  8.00000000E-01  1.50000000E+00  8.00000000E-01  8.00000000E-01  1.50000000E+00
  8.00000000E-01  8.00000000E-01  1.50000000E+00  8.00000000E-01  8.00000000E-01
  1.50000000E+00  8.00000000E-01  8.00000000E-01  1.50000000E+00  8.00000000E-01
  8.00000000E-01  1.50000000E+00  8.00000000E-01  8.00000000E-01  1.50000000E+00
  8.00000000E-01  8.00000000E-01  1.50000000E+00  8.00000000E-01  8.00000000E-01
  1.50000000E+00  8.00000000E-01  8.00000000E-01  1.50000000E+00  8.00000000E-01
  8.00000000E-01  1.50000000E+00  8.00000000E-01  8.00000000E-01  1.50000000E+00
  8.00000000E-01  8.00000000E-01  1.50000000E+00  8.00000000E-01  8.00000000E-01
  1.50000000E+00  8.00000000E-01  8.00000000E-01  1.50000000E+00  8.00000000E-01
  8.00000000E-01  1.50000000E+00  8.00000000E-01  8.00000000E-01  1.50000000E+00
  8.00000000E-01  8.00000000E-01  1.50000000E+00  8.00000000E-01  8.00000000E-01
  1.50000000E+00  8.00000000E-01  8.00000000E-01  1.50000000E+00  8.00000000E-01
  8.00000000E-01  1.50000000E+00  8.00000000E-01  8.00000000E-01  1.50000000E+00
  8.00000000E-01  8.00000000E-01  1.50000000E+00  8.00000000E-01  8.00000000E-01
  1.50000000E+00  8.00000000E-01  8.00000000E-01  1.50000000E+00  8.00000000E-01
  8.00000000E-01  1.50000000E+00  8.00000000E-01  8.00000000E-01  1.50000000E+00
  8.00000000E-01  8.00000000E-01  1.50000000E+00  8.00000000E-01  8.00000000E-01
  1.50000000E+00  8.00000000E-01  8.00000000E-01  1.50000000E+00  8.00000000E-01
  8.00000000E-01  1.50000000E+00  8.00000000E-01  8.00000000E-01  1.50000000E+00
  8.00000000E-01  8.00000000E-01  1.50000000E+00  8.00000000E-01  8.00000000E-01
  1.50000000E+00  8.00000000E-01  8.00000000E-01  1.50000000E+00  8.00000000E-01
  8.00000000E-01  1.50000000E+00  8.00000000E-01  8.00000000E-01  1.50000000E+00
  8.00000000E-01  8.00000000E-01  1.50000000E+00  8.00000000E-01  8.00000000E-01
  1.50000000E+00  8.00000000E-01  8.00000000E-01  1.50000000E+00  8.00000000E-01
  8.00000000E-01  1.50000000E+00  8.00000000E-01  8.00000000E-01  1.50000000E+00
  8.00000000E-01  8.00000000E-01  1.50000000E+00  8.00000000E-01  8.00000000E-01
  1.50000000E+00  8.00000000E-01  8.00000000E-01  1.50000000E+00  8.00000000E-01
  8.00000000E-01  1.50000000E+00  8.00000000E-01  8.00000000E-01  1.50000000E+00
  8.00000000E-01  8.00000000E-01  1.50000000E+00  8.00000000E-01  8.00000000E-01
  1.50000000E+00  8.00000000E-01  8.00000000E-01  1.50000000E+00  8.00000000E-01
  8.00000000E-01  1.50000000E+00  8.00000000E-01  8.00000000E-01  1.50000000E+00
  8.00000000E-01  8.00000000E-01  1.50000000E+00  8.00000000E-01  8.00000000E-01
  1.50000000E+00  8.00000000E-01  8.00000000E-01  1.50000000E+00  8.00000000E-01
  8.00000000E-01  1.50000000E+00  8.00000000E-01  8.00000000E-01  1.50000000E+00
  8.00000000E-01  8.00000000E-01  1.50000000E+00  8.00000000E-01  8.00000000E-01
  1.50000000E+00  8.00000000E-01  8.00000000E-01  1.50000000E+00  8.00000000E-01
  8.00000000E-01  1.50000000E+00  8.00000000E-01  8.00000000E-01  1.50000000E+00
  8.00000000E-01  8.00000000E-01  1.50000000E+00  8.00000000E-01  8.00000000E-01
  1.50000000E+00  8.00000000E-01  8.00000000E-01  1.50000000E+00  8.00000000E-01
  8.00000000E-01  1.50000000E+00  8.00000000E-01  8.00000000E-01  1.50000000E+00
  8.00000000E-01  8.00000000E-01  1.50000000E+00  8.00000000E-01  8.00000000E-01
  1.50000000E+00  8.00000000E-01  8.00000000E-01  1.50000000E+00  8.00000000E-01
  8.00000000E-01  1.50000000E+00  8.00000000E-01  8.00000000E-01  1.50000000E+00
  8.00000000E-01  8.00000000E-01  1.50000000E+00  8.00000000E-01  8.00000000E-01
  1.50000000E+00  8.00000000E-01  8.00000000E-01  1.50000000E+00  8.00000000E-01
  8.00000000E-01  1.50000000E+00  8.00000000E-01  8.00000000E-01  1.50000000E+00
  8.00000000E-01  8.00000000E-01  1.50000000E+00  8.00000000E-01  8.00000000E-01
  1.50000000E+00  8.00000000E-01  8.00000000E-01  1.50000000E+00  8.00000000E-01
  8.00000000E-01  1.50000000E+00  8.00000000E-01  8.00000000E-01  1.50000000E+00
  8.00000000E-01  8.00000000E-01  1.50000000E+00  8.00000000E-01  8.00000000E-01
  1.50000000E+00  8.00000000E-01  8.00000000E-01  1.50000000E+00  8.00000000E-01
  8.00000000E-01  1.50000000E+00  8.00000000E-01  8.00000000E-01  1.50000000E+00
  8.00000000E-01  8.00000000E-01  1.50000000E+00  8.00000000E-01  8.00000000E-01
  1.50000000E+00  8.00000000E-01  8.00000000E-01  1.50000000E+00  8.00000000E-01
  8.00000000E-01  1.50000000E+00  8.00000000E-01  8.00000000E-01  1.50000000E+00
  8.00000000E-01  8.00000000E-01  1.50000000E+00  8.00000000E-01  8.00000000E-01
  1.50000000E+00  8.00000000E-01  8.00000000E-01  1.50000000E+00  8.00000000E-01
  8.00000000E-01  1.50000000E+00  8.00000000E-01  8.00000000E-01  1.50000000E+00
  8.00000000E-01  8.00000000E-01  1.50000000E+00  8.00000000E-01  8.00000000E-01
  1.50000000E+00  8.00000000E-01  8.00000000E-01  1.50000000E+00  8.00000000E-01
  8.00000000E-01  1.50000000E+00  8.00000000E-01  8.00000000E-01  1.50000000E+00
  8.00000000E-01  8.00000000E-01  1.50000000E+00  8.00000000E-01  8.00000000E-01
  1.50000000E+00  8.00000000E-01  8.00000000E-01  1.50000000E+00  8.00000000E-01
  8.00000000E-01  1.50000000E+00  8.00000000E-01  8.00000000E-01  1.50000000E+00
  8.00000000E-01  8.00000000E-01  1.50000000E+00  8.00000000E-01  8.00000000E-01
  1.50000000E+00  8.00000000E-01  8.00000000E-01  1.50000000E+00  8.00000000E-01
  8.00000000E-01  1.50000000E+00  8.00000000E-01  8.00000000E-01  1.50000000E+00
  8.00000000E-01  8.00000000E-01  1.50000000E+00  8.00000000E-01  8.00000000E-01
  1.50000000E+00  8.00000000E-01  8.00000000E-01  1.50000000E+00  8.00000000E-01
  8.00000000E-01  1.50000000E+00  8.00000000E-01  8.00000000E-01  1.50000000E+00
  8.00000000E-01  8.00000000E-01  1.50000000E+00  8.00000000E-01  8.00000000E-01
  1.50000000E+00  8.00000000E-01  8.00000000E-01  1.50000000E+00  8.00000000E-01
  8.00000000E-01  1.50000000E+00  8.00000000E-01  8.00000000E-01  1.50000000E+00
  8.00000000E-01  8.00000000E-01  1.50000000E+00  8.00000000E-01  8.00000000E-01
  1.50000000E+00  8.00000000E-01  8.00000000E-01  1.50000000E+00  8.00000000E-01
  8.00000000E-01  1.50000000E+00  8.00000000E-01  8.00000000E-01  1.50000000E+00
  8.00000000E-01  8.00000000E-01  1.50000000E+00  8.00000000E-01  8.00000000E-01
  1.50000000E+00  8.00000000E-01  8.00000000E-01  1.50000000E+00  8.00000000E-01
  8.00000000E-01  1.50000000E+00  8.00000000E-01  8.00000000E-01  1.50000000E+00
  8.00000000E-01  8.00000000E-01  1.50000000E+00  8.00000000E-01  8.00000000E-01
  1.50000000E+00  8.00000000E-01  8.00000000E-01  1.50000000E+00  8.00000000E-01
  8.00000000E-01  1.50000000E+00  8.00000000E-01  8.00000000E-01  1.50000000E+00
  8.00000000E-01  8.00000000E-01  1.50000000E+00  8.00000000E-01  8.00000000E-01
  1.50000000E+00  8.00000000E-01  8.00000000E-01  1.50000000E+00  8.00000000E-01
  8.00000000E-01  1.50000000E+00  8.00000000E-01  8.00000000E-01  1.50000000E+00
  8.00000000E-01  8.00000000E-01  1.50000000E+00  8.00000000E-01  8.00000000E-01
  1.50000000E+00  8.00000000E-01  8.00000000E-01  1.50000000E+00  8.00000000E-01
  8.00000000E-01  1.50000000E+00  8.00000000E-01  8.00000000E-01  1.50000000E+00
  8.00000000E-01  8.00000000E-01  1.50000000E+00  8.00000000E-01  8.00000000E-01
  1.50000000E+00  8.00000000E-01  8.00000000E-01  1.50000000E+00  8.00000000E-01
  8.00000000E-01  1.50000000E+00  8.00000000E-01  8.00000000E-01  1.50000000E+00
  8.00000000E-01  8.00000000E-01  1.50000000E+00  8.00000000E-01  8.00000000E-01
  1.50000000E+00  8.00000000E-01  8.00000000E-01  1.50000000E+00  8.00000000E-01
  8.00000000E-01  1.50000000E+00  8.00000000E-01  8.00000000E-01  1.50000000E+00
  8.00000000E-01  8.00000000E-01  1.50000000E+00  8.00000000E-01  8.00000000E-01
  1.50000000E+00  8.00000000E-01  8.00000000E-01  1.50000000E+00  8.00000000E-01
  8.00000000E-01  1.50000000E+00  8.00000000E-01  8.00000000E-01  1.50000000E+00
  8.00000000E-01  8.00000000E-01  1.50000000E+00  8.00000000E-01  8.00000000E-01
  1.50000000E+00  8.00000000E-01  8.00000000E-01  1.50000000E+00  8.00000000E-01
  8.00000000E-01  1.50000000E+00  8.00000000E-01  8.00000000E-01  1.50000000E+00
  8.00000000E-01  8.00000000E-01  1.50000000E+00  8.00000000E-01  8.00000000E-01
  1.50000000E+00  8.00000000E-01  8.00000000E-01  1.50000000E+00  8.00000000E-01
  8.00000000E-01  1.50000000E+00  8.00000000E-01  8.00000000E-01  1.50000000E+00
  8.00000000E-01  8.00000000E-01  1.50000000E+00  8.00000000E-01  8.00000000E-01
  1.50000000E+00  8.00000000E-01  8.00000000E-01  1.50000000E+00  8.00000000E-01
  8.00000000E-01  1.50000000E+00  8.00000000E-01  8.00000000E-01  1.50000000E+00
  8.00000000E-01  8.00000000E-01  1.50000000E+00  8.00000000E-01  8.00000000E-01
  1.50000000E+00  8.00000000E-01  8.00000000E-01  1.50000000E+00  8.00000000E-01
  8.00000000E-01  1.50000000E+00  8.00000000E-01  8.00000000E-01  1.50000000E+00
  8.00000000E-01  8.00000000E-01  1.50000000E+00  8.00000000E-01  8.00000000E-01
  1.50000000E+00  8.00000000E-01  8.00000000E-01  1.50000000E+00  8.00000000E-01
  8.00000000E-01  1.50000000E+00  8.00000000E-01  8.00000000E-01  1.50000000E+00
  8.00000000E-01  8.00000000E-01  1.50000000E+00  8.00000000E-01  8.00000000E-01
  1.50000000E+00  8.00000000E-01  8.00000000E-01  1.50000000E+00  8.00000000E-01
  8.00000000E-01  1.50000000E+00  8.00000000E-01  8.00000000E-01  1.50000000E+00
  8.00000000E-01  8.00000000E-01  1.50000000E+00  8.00000000E-01  8.00000000E-01
  1.50000000E+00  8.00000000E-01  8.00000000E-01  1.50000000E+00  8.00000000E-01
  8.00000000E-01  1.50000000E+00  8.00000000E-01  8.00000000E-01  1.50000000E+00
  8.00000000E-01  8.00000000E-01  1.50000000E+00  8.00000000E-01  8.00000000E-01
  1.50000000E+00  8.00000000E-01  8.00000000E-01  1.50000000E+00  8.00000000E-01
  8.00000000E-01  1.50000000E+00  8.00000000E-01  8.00000000E-01  1.50000000E+00
  8.00000000E-01  8.00000000E-01  1.50000000E+00  8.00000000E-01  8.00000000E-01
  1.50000000E+00  8.00000000E-01  8.00000000E-01  1.50000000E+00  8.00000000E-01
  8.00000000E-01  1.50000000E+00  8.00000000E-01  8.00000000E-01  1.50000000E+00
  8.00000000E-01  8.00000000E-01  1.50000000E+00  8.00000000E-01  8.00000000E-01
  1.50000000E+00  8.00000000E-01  8.00000000E-01  1.50000000E+00  8.00000000E-01
  8.00000000E-01  1.50000000E+00  8.00000000E-01  8.00000000E-01  1.50000000E+00
  8.00000000E-01  8.00000000E-01  1.50000000E+00  8.00000000E-01  8.00000000E-01
  1.50000000E+00  8.00000000E-01  8.00000000E-01  1.50000000E+00  8.00000000E-01
  8.00000000E-01  1.50000000E+00  8.00000000E-01  8.00000000E-01  1.50000000E+00
  8.00000000E-01  8.00000000E-01  1.50000000E+00  8.00000000E-01  8.00000000E-01
  1.50000000E+00  8.00000000E-01  8.00000000E-01  1.50000000E+00  8.00000000E-01
  8.00000000E-01  1.50000000E+00  8.00000000E-01  8.00000000E-01  1.50000000E+00
  8.00000000E-01  8.00000000E-01  1.50000000E+00  8.00000000E-01  8.00000000E-01
  1.50000000E+00  8.00000000E-01  8.00000000E-01  1.50000000E+00  8.00000000E-01
  8.00000000E-01  1.50000000E+00  8.00000000E-01  8.00000000E-01  1.50000000E+00
  8.00000000E-01  8.00000000E-01  1.50000000E+00  8.00000000E-01  8.00000000E-01
  1.50000000E+00  8.00000000E-01  8.00000000E-01  1.50000000E+00  8.00000000E-01
  8.00000000E-01  1.50000000E+00  8.00000000E-01  8.00000000E-01  1.50000000E+00
  8.00000000E-01  8.00000000E-01  1.50000000E+00  8.00000000E-01  8.00000000E-01
  1.50000000E+00  8.00000000E-01  8.00000000E-01  1.50000000E+00  8.00000000E-01
  8.00000000E-01  1.50000000E+00  8.00000000E-01  8.00000000E-01  1.50000000E+00
  8.00000000E-01  8.00000000E-01  1.50000000E+00  8.00000000E-01  8.00000000E-01
  1.50000000E+00  8.00000000E-01  8.00000000E-01  1.50000000E+00  8.00000000E-01
  8.00000000E-01  1.50000000E+00  8.00000000E-01  8.00000000E-01  1.50000000E+00
  8.00000000E-01  8.00000000E-01  1.50000000E+00  8.00000000E-01  8.00000000E-01
  1.50000000E+00  8.00000000E-01  8.00000000E-01  1.50000000E+00  8.00000000E-01
  8.00000000E-01  1.50000000E+00  8.00000000E-01  8.00000000E-01  1.50000000E+00
  8.00000000E-01  8.00000000E-01  1.50000000E+00  8.00000000E-01  8.00000000E-01
  1.50000000E+00  8.00000000E-01  8.00000000E-01  1.50000000E+00  8.00000000E-01
  8.00000000E-01  1.50000000E+00  8.00000000E-01  8.00000000E-01  1.50000000E+00
  8.00000000E-01  8.00000000E-01  1.50000000E+00  8.00000000E-01  8.00000000E-01
  1.50000000E+00  8.00000000E-01  8.00000000E-01  1.50000000E+00  8.00000000E-01
  8.00000000E-01  1.50000000E+00  8.00000000E-01  8.00000000E-01  1.50000000E+00
  8.00000000E-01  8.00000000E-01  1.50000000E+00  8.00000000E-01  8.00000000E-01
  1.50000000E+00  8.00000000E-01  8.00000000E-01  1.50000000E+00  8.00000000E-01
  8.00000000E-01  1.50000000E+00  8.00000000E-01  8.00000000E-01  1.50000000E+00
  8.00000000E-01  8.00000000E-01  1.50000000E+00  8.00000000E-01  8.00000000E-01
  1.50000000E+00  8.00000000E-01  8.00000000E-01  1.50000000E+00  8.00000000E-01
  8.00000000E-01  1.50000000E+00  8.00000000E-01  8.00000000E-01  1.50000000E+00
  8.00000000E-01  8.00000000E-01  1.50000000E+00  8.00000000E-01  8.00000000E-01
  1.50000000E+00  8.00000000E-01  8.00000000E-01  1.50000000E+00  8.00000000E-01
  8.00000000E-01  1.50000000E+00  8.00000000E-01  8.00000000E-01  1.50000000E+00
  8.00000000E-01  8.00000000E-01  1.50000000E+00  8.00000000E-01  8.00000000E-01
  1.50000000E+00  8.00000000E-01  8.00000000E-01  1.50000000E+00  8.00000000E-01
  8.00000000E-01  1.50000000E+00  8.00000000E-01  8.00000000E-01  1.50000000E+00
  8.00000000E-01  8.00000000E-01  1.50000000E+00  8.00000000E-01  8.00000000E-01
  1.50000000E+00  8.00000000E-01  8.00000000E-01  1.50000000E+00  8.00000000E-01
  8.00000000E-01  1.50000000E+00  8.00000000E-01  8.00000000E-01  1.50000000E+00
  8.00000000E-01  8.00000000E-01  1.50000000E+00  8.00000000E-01  8.00000000E-01
  1.50000000E+00  8.00000000E-01  8.00000000E-01  1.50000000E+00  8.00000000E-01
  8.00000000E-01  1.50000000E+00  8.00000000E-01  8.00000000E-01  1.50000000E+00
  8.00000000E-01  8.00000000E-01  1.50000000E+00  8.00000000E-01  8.00000000E-01
  1.50000000E+00  8.00000000E-01  8.00000000E-01  1.50000000E+00  8.00000000E-01
  8.00000000E-01  1.50000000E+00  8.00000000E-01  8.00000000E-01  1.50000000E+00
  8.00000000E-01  8.00000000E-01  1.50000000E+00  8.00000000E-01  8.00000000E-01
  1.50000000E+00  8.00000000E-01  8.00000000E-01  1.50000000E+00  8.00000000E-01
  8.00000000E-01  1.50000000E+00  8.00000000E-01  8.00000000E-01  1.50000000E+00
  8.00000000E-01  8.00000000E-01  1.50000000E+00  8.00000000E-01  8.00000000E-01
  1.50000000E+00  8.00000000E-01  8.00000000E-01  1.50000000E+00  8.00000000E-01
  8.00000000E-01  1.50000000E+00  8.00000000E-01  8.00000000E-01  1.50000000E+00
  8.00000000E-01  8.00000000E-01  1.50000000E+00  8.00000000E-01  8.00000000E-01
  1.50000000E+00  8.00000000E-01  8.00000000E-01  1.50000000E+00  8.00000000E-01
  8.00000000E-01  1.50000000E+00  8.00000000E-01  8.00000000E-01  1.50000000E+00
  8.00000000E-01  8.00000000E-01  1.50000000E+00  8.00000000E-01  8.00000000E-01
  1.50000000E+00  8.00000000E-01  8.00000000E-01  1.50000000E+00  8.00000000E-01
  8.00000000E-01  1.50000000E+00  8.00000000E-01  8.00000000E-01  1.50000000E+00
  8.00000000E-01  8.00000000E-01  1.50000000E+00  8.00000000E-01  8.00000000E-01
  1.50000000E+00  8.00000000E-01  8.00000000E-01  1.50000000E+00  8.00000000E-01
  8.00000000E-01  1.50000000E+00  8.00000000E-01  8.00000000E-01  1.50000000E+00
  8.00000000E-01  8.00000000E-01  1.50000000E+00  8.00000000E-01  8.00000000E-01
  1.50000000E+00  8.00000000E-01  8.00000000E-01  1.50000000E+00  8.00000000E-01
  8.00000000E-01  1.50000000E+00  8.00000000E-01  8.00000000E-01  1.50000000E+00
  8.00000000E-01  8.00000000E-01  1.50000000E+00  8.00000000E-01  8.00000000E-01
  1.50000000E+00  8.00000000E-01  8.00000000E-01  1.50000000E+00  8.00000000E-01
  8.00000000E-01  1.50000000E+00  8.00000000E-01  8.00000000E-01  1.50000000E+00
  8.00000000E-01  8.00000000E-01  1.50000000E+00  8.00000000E-01  8.00000000E-01
  1.50000000E+00  8.00000000E-01  8.00000000E-01  1.50000000E+00  8.00000000E-01
  8.00000000E-01  1.50000000E+00  8.00000000E-01  8.00000000E-01  1.50000000E+00
  8.00000000E-01  8.00000000E-01  1.50000000E+00  8.00000000E-01  8.00000000E-01
  1.50000000E+00  8.00000000E-01  8.00000000E-01  1.50000000E+00  8.00000000E-01
  8.00000000E-01  1.50000000E+00  8.00000000E-01  8.00000000E-01  1.50000000E+00
  8.00000000E-01  8.00000000E-01  1.50000000E+00  8.00000000E-01  8.00000000E-01
  1.50000000E+00  8.00000000E-01  8.00000000E-01  1.50000000E+00  8.00000000E-01
  8.00000000E-01  1.50000000E+00  8.00000000E-01  8.00000000E-01  1.50000000E+00
  8.00000000E-01  8.00000000E-01  1.50000000E+00  8.00000000E-01  8.00000000E-01
  1.50000000E+00  8.00000000E-01  8.00000000E-01  1.50000000E+00  8.00000000E-01
  8.00000000E-01  1.50000000E+00  8.00000000E-01  8.00000000E-01  1.50000000E+00
  8.00000000E-01  8.00000000E-01  1.50000000E+00  8.00000000E-01  8.00000000E-01
  1.50000000E+00  8.00000000E-01  8.00000000E-01  1.50000000E+00  8.00000000E-01
  8.00000000E-01  1.50000000E+00  8.00000000E-01  8.00000000E-01  1.50000000E+00
  8.00000000E-01  8.00000000E-01  1.50000000E+00  8.00000000E-01  8.00000000E-01
  1.50000000E+00  8.00000000E-01  8.00000000E-01  1.50000000E+00  8.00000000E-01
  8.00000000E-01  1.50000000E+00  8.00000000E-01  8.00000000E-01  1.50000000E+00
  8.00000000E-01  8.00000000E-01  1.50000000E+00  8.00000000E-01  8.00000000E-01
  1.50000000E+00  8.00000000E-01  8.00000000E-01  1.50000000E+00  8.00000000E-01
  8.00000000E-01  1.50000000E+00  8.00000000E-01  8.00000000E-01  1.50000000E+00
  8.00000000E-01  8.00000000E-01  1.50000000E+00  8.00000000E-01  8.00000000E-01
  1.50000000E+00  8.00000000E-01  8.00000000E-01  1.50000000E+00  8.00000000E-01
  8.00000000E-01  1.50000000E+00  8.00000000E-01  8.00000000E-01  1.50000000E+00
  8.00000000E-01  8.00000000E-01  1.50000000E+00  8.00000000E-01  8.00000000E-01
  1.50000000E+00  8.00000000E-01  8.00000000E-01  1.50000000E+00  8.00000000E-01
  8.00000000E-01  1.50000000E+00  8.00000000E-01  8.00000000E-01  1.50000000E+00
  8.00000000E-01  8.00000000E-01  1.50000000E+00  8.00000000E-01  8.00000000E-01
  1.50000000E+00  8.00000000E-01  8.00000000E-01  1.50000000E+00  8.00000000E-01
  8.00000000E-01  1.50000000E+00  8.00000000E-01  8.00000000E-01  1.50000000E+00
  8.00000000E-01  8.00000000E-01  1.50000000E+00  8.00000000E-01  8.00000000E-01
  1.50000000E+00  8.00000000E-01  8.00000000E-01  1.50000000E+00  8.00000000E-01
  8.00000000E-01  1.50000000E+00  8.00000000E-01  8.00000000E-01  1.50000000E+00
  8.00000000E-01  8.00000000E-01  1.50000000E+00  8.00000000E-01  8.00000000E-01
  1.50000000E+00  8.00000000E-01  8.00000000E-01  1.50000000E+00  8.00000000E-01
  8.00000000E-01  1.50000000E+00  8.00000000E-01  8.00000000E-01  1.50000000E+00
  8.00000000E-01  8.00000000E-01  1.50000000E+00  8.00000000E-01  8.00000000E-01
  1.50000000E+00  8.00000000E-01  8.00000000E-01  1.50000000E+00  8.00000000E-01
  8.00000000E-01  1.50000000E+00  8.00000000E-01  8.00000000E-01  1.50000000E+00
  8.00000000E-01  8.00000000E-01  1.50000000E+00  8.00000000E-01  8.00000000E-01
  1.50000000E+00  8.00000000E-01  8.00000000E-01  1.50000000E+00  8.00000000E-01
  8.00000000E-01  1.50000000E+00  8.00000000E-01  8.00000000E-01  1.50000000E+00
  8.00000000E-01  8.00000000E-01  1.50000000E+00  8.00000000E-01  8.00000000E-01
  1.50000000E+00  8.00000000E-01  8.00000000E-01  1.50000000E+00  8.00000000E-01
  8.00000000E-01  1.50000000E+00  8.00000000E-01  8.00000000E-01  1.50000000E+00
  8.00000000E-01  8.00000000E-01  1.50000000E+00  8.00000000E-01  8.00000000E-01
  1.50000000E+00  8.00000000E-01  8.00000000E-01  1.50000000E+00  8.00000000E-01
  8.00000000E-01  1.50000000E+00  8.00000000E-01  8.00000000E-01  1.50000000E+00
  8.00000000E-01  8.00000000E-01  1.50000000E+00  8.00000000E-01  8.00000000E-01
  1.50000000E+00  8.00000000E-01  8.00000000E-01  1.50000000E+00  8.00000000E-01
  8.00000000E-01  1.50000000E+00  8.00000000E-01  8.00000000E-01  1.50000000E+00
  8.00000000E-01  8.00000000E-01  1.50000000E+00  8.00000000E-01  8.00000000E-01
  1.50000000E+00  8.00000000E-01  8.00000000E-01  1.50000000E+00  8.00000000E-01
  8.00000000E-01  1.50000000E+00  8.00000000E-01  8.00000000E-01  1.50000000E+00
  8.00000000E-01  8.00000000E-01  1.50000000E+00  8.00000000E-01  8.00000000E-01
  1.50000000E+00  8.00000000E-01  8.00000000E-01  1.50000000E+00  8.00000000E-01
  8.00000000E-01  1.50000000E+00  8.00000000E-01  8.00000000E-01  1.50000000E+00
  8.00000000E-01  8.00000000E-01  1.50000000E+00  8.00000000E-01  8.00000000E-01
  1.50000000E+00  8.00000000E-01  8.00000000E-01  1.50000000E+00  8.00000000E-01
  8.00000000E-01  1.50000000E+00  8.00000000E-01  8.00000000E-01  1.50000000E+00
  8.00000000E-01  8.00000000E-01  1.50000000E+00  8.00000000E-01  8.00000000E-01
  1.50000000E+00  8.00000000E-01  8.00000000E-01  1.50000000E+00  8.00000000E-01
  8.00000000E-01  1.50000000E+00  8.00000000E-01  8.00000000E-01  1.50000000E+00
  8.00000000E-01  8.00000000E-01  1.50000000E+00  8.00000000E-01  8.00000000E-01
  1.50000000E+00  8.00000000E-01  8.00000000E-01  1.50000000E+00  8.00000000E-01
  8.00000000E-01  1.50000000E+00  8.00000000E-01  8.00000000E-01  1.50000000E+00
  8.00000000E-01  8.00000000E-01  1.50000000E+00  8.00000000E-01  8.00000000E-01
  1.50000000E+00  8.00000000E-01  8.00000000E-01  1.50000000E+00  8.00000000E-01
  8.00000000E-01  1.50000000E+00  8.00000000E-01  8.00000000E-01  1.50000000E+00
  8.00000000E-01  8.00000000E-01  1.50000000E+00  8.00000000E-01  8.00000000E-01
  1.50000000E+00  8.00000000E-01  8.00000000E-01  1.50000000E+00  8.00000000E-01
  8.00000000E-01  1.50000000E+00  8.00000000E-01  8.00000000E-01  1.50000000E+00
  8.00000000E-01  8.00000000E-01  1.50000000E+00  8.00000000E-01  8.00000000E-01
  1.50000000E+00  8.00000000E-01  8.00000000E-01  1.50000000E+00  8.00000000E-01
  8.00000000E-01  1.50000000E+00  8.00000000E-01  8.00000000E-01  1.50000000E+00
  8.00000000E-01  8.00000000E-01  1.50000000E+00  8.00000000E-01  8.00000000E-01
  1.50000000E+00  8.00000000E-01  8.00000000E-01  1.50000000E+00  8.00000000E-01
  8.00000000E-01  1.50000000E+00  8.00000000E-01  8.00000000E-01  1.50000000E+00
  8.00000000E-01  8.00000000E-01  1.50000000E+00  8.00000000E-01  8.00000000E-01
  1.50000000E+00  8.00000000E-01  8.00000000E-01  1.50000000E+00  8.00000000E-01
  8.00000000E-01  1.50000000E+00  8.00000000E-01  8.00000000E-01  1.50000000E+00
  8.00000000E-01  8.00000000E-01  1.50000000E+00  8.00000000E-01  8.00000000E-01
  1.50000000E+00  8.00000000E-01  8.00000000E-01  1.50000000E+00  8.00000000E-01
  8.00000000E-01  1.50000000E+00  8.00000000E-01  8.00000000E-01  1.50000000E+00
  8.00000000E-01  8.00000000E-01  1.50000000E+00  8.00000000E-01  8.00000000E-01
  1.50000000E+00  8.00000000E-01  8.00000000E-01  1.50000000E+00  8.00000000E-01
  8.00000000E-01  1.50000000E+00  8.00000000E-01  8.00000000E-01  1.50000000E+00
  8.00000000E-01  8.00000000E-01  1.50000000E+00  8.00000000E-01  8.00000000E-01
  1.50000000E+00  8.00000000E-01  8.00000000E-01  1.50000000E+00  8.00000000E-01
  8.00000000E-01  1.50000000E+00  8.00000000E-01  8.00000000E-01  1.50000000E+00
  8.00000000E-01  8.00000000E-01  1.50000000E+00  8.00000000E-01  8.00000000E-01
  1.50000000E+00  8.00000000E-01  8.00000000E-01  1.50000000E+00  8.00000000E-01
  8.00000000E-01  1.50000000E+00  8.00000000E-01  8.00000000E-01  1.50000000E+00
  8.00000000E-01  8.00000000E-01  1.50000000E+00  8.00000000E-01  8.00000000E-01
  1.50000000E+00  8.00000000E-01  8.00000000E-01  1.50000000E+00  8.00000000E-01
  8.00000000E-01  1.50000000E+00  8.00000000E-01  8.00000000E-01  1.50000000E+00
  8.00000000E-01  8.00000000E-01  1.50000000E+00  8.00000000E-01  8.00000000E-01
  1.50000000E+00  8.00000000E-01  8.00000000E-01  1.50000000E+00  8.00000000E-01
  8.00000000E-01  1.50000000E+00  8.00000000E-01  8.00000000E-01  1.50000000E+00
  8.00000000E-01  8.00000000E-01  1.50000000E+00  8.00000000E-01  8.00000000E-01
  1.50000000E+00  8.00000000E-01  8.00000000E-01  1.50000000E+00  8.00000000E-01
  8.00000000E-01  1.50000000E+00  8.00000000E-01  8.00000000E-01  1.50000000E+00
  8.00000000E-01  8.00000000E-01  1.50000000E+00  8.00000000E-01  8.00000000E-01
  1.50000000E+00  8.00000000E-01  8.00000000E-01  1.50000000E+00  8.00000000E-01
  8.00000000E-01  1.50000000E+00  8.00000000E-01  8.00000000E-01  1.50000000E+00
  8.00000000E-01  8.00000000E-01  1.50000000E+00  8.00000000E-01  8.00000000E-01
  1.50000000E+00  8.00000000E-01  8.00000000E-01  1.50000000E+00  8.00000000E-01
  8.00000000E-01  1.50000000E+00  8.00000000E-01  8.00000000E-01  1.50000000E+00
  8.00000000E-01  8.00000000E-01  1.50000000E+00  8.00000000E-01  8.00000000E-01
  1.50000000E+00  8.00000000E-01  8.00000000E-01  1.50000000E+00  8.00000000E-01
  8.00000000E-01  1.50000000E+00  8.00000000E-01  8.00000000E-01  1.50000000E+00
  8.00000000E-01  8.00000000E-01  1.50000000E+00  8.00000000E-01  8.00000000E-01
  1.50000000E+00  8.00000000E-01  8.00000000E-01  1.50000000E+00  8.00000000E-01
  8.00000000E-01  1.50000000E+00  8.00000000E-01  8.00000000E-01  1.50000000E+00
  8.00000000E-01  8.00000000E-01  1.50000000E+00  8.00000000E-01  8.00000000E-01
  1.50000000E+00  8.00000000E-01  8.00000000E-01  1.50000000E+00  8.00000000E-01
  8.00000000E-01  1.50000000E+00  8.00000000E-01  8.00000000E-01  1.50000000E+00
  8.00000000E-01  8.00000000E-01  1.50000000E+00  8.00000000E-01  8.00000000E-01
  1.50000000E+00  8.00000000E-01  8.00000000E-01  1.50000000E+00  8.00000000E-01
  8.00000000E-01  1.50000000E+00  8.00000000E-01  8.00000000E-01  1.50000000E+00
  8.00000000E-01  8.00000000E-01  1.50000000E+00  8.00000000E-01  8.00000000E-01
  1.50000000E+00  8.00000000E-01  8.00000000E-01  1.50000000E+00  8.00000000E-01
  8.00000000E-01  1.50000000E+00  8.00000000E-01  8.00000000E-01  1.50000000E+00
  8.00000000E-01  8.00000000E-01  1.50000000E+00  8.00000000E-01  8.00000000E-01
  1.50000000E+00  8.00000000E-01  8.00000000E-01  1.50000000E+00  8.00000000E-01
  8.00000000E-01  1.50000000E+00  8.00000000E-01  8.00000000E-01  1.50000000E+00
  8.00000000E-01  8.00000000E-01  1.50000000E+00  8.00000000E-01  8.00000000E-01
  1.50000000E+00  8.00000000E-01  8.00000000E-01  1.50000000E+00  8.00000000E-01
  8.00000000E-01  1.50000000E+00  8.00000000E-01  8.00000000E-01  1.50000000E+00
  8.00000000E-01  8.00000000E-01  1.50000000E+00  8.00000000E-01  8.00000000E-01
  1.50000000E+00  8.00000000E-01  8.00000000E-01  1.50000000E+00  8.00000000E-01
  8.00000000E-01  1.50000000E+00  8.00000000E-01  8.00000000E-01  1.50000000E+00
  8.00000000E-01  8.00000000E-01  1.50000000E+00  8.00000000E-01  8.00000000E-01
  1.50000000E+00  8.00000000E-01  8.00000000E-01  1.50000000E+00  8.00000000E-01
  8.00000000E-01  1.50000000E+00  8.00000000E-01  8.00000000E-01  1.50000000E+00
  8.00000000E-01  8.00000000E-01  1.50000000E+00  8.00000000E-01  8.00000000E-01
  1.50000000E+00  8.00000000E-01  8.00000000E-01  1.50000000E+00  8.00000000E-01
  8.00000000E-01  1.50000000E+00  8.00000000E-01  8.00000000E-01  1.50000000E+00
  8.00000000E-01  8.00000000E-01  1.50000000E+00  8.00000000E-01  8.00000000E-01
  1.50000000E+00  8.00000000E-01  8.00000000E-01  1.50000000E+00  8.00000000E-01
  8.00000000E-01  1.50000000E+00  8.00000000E-01  8.00000000E-01  1.50000000E+00
  8.00000000E-01  8.00000000E-01  1.50000000E+00  8.00000000E-01  8.00000000E-01
  1.50000000E+00  8.00000000E-01  8.00000000E-01  1.50000000E+00  8.00000000E-01
  8.00000000E-01  1.50000000E+00  8.00000000E-01  8.00000000E-01  1.50000000E+00
  8.00000000E-01  8.00000000E-01  1.50000000E+00  8.00000000E-01  8.00000000E-01
  1.50000000E+00  8.00000000E-01  8.00000000E-01  1.50000000E+00  8.00000000E-01
  8.00000000E-01  1.50000000E+00  8.00000000E-01  8.00000000E-01  1.50000000E+00
  8.00000000E-01  8.00000000E-01  1.50000000E+00  8.00000000E-01  8.00000000E-01
  1.50000000E+00  8.00000000E-01  8.00000000E-01  1.50000000E+00  8.00000000E-01
  8.00000000E-01  1.50000000E+00  8.00000000E-01  8.00000000E-01  1.50000000E+00
  8.00000000E-01  8.00000000E-01  1.50000000E+00  8.00000000E-01  8.00000000E-01
  1.50000000E+00  8.00000000E-01  8.00000000E-01  1.50000000E+00  8.00000000E-01
  8.00000000E-01  1.50000000E+00  8.00000000E-01  8.00000000E-01  1.50000000E+00
  8.00000000E-01  8.00000000E-01  1.50000000E+00  8.00000000E-01  8.00000000E-01
  1.50000000E+00  8.00000000E-01  8.00000000E-01  1.50000000E+00  8.00000000E-01
  8.00000000E-01  1.50000000E+00  8.00000000E-01  8.00000000E-01  1.50000000E+00
  8.00000000E-01  8.00000000E-01  1.50000000E+00  8.00000000E-01  8.00000000E-01
  1.50000000E+00  8.00000000E-01  8.00000000E-01  1.50000000E+00  8.00000000E-01
  8.00000000E-01  1.50000000E+00  8.00000000E-01  8.00000000E-01  1.50000000E+00
  8.00000000E-01  8.00000000E-01  1.50000000E+00  8.00000000E-01  8.00000000E-01
  1.50000000E+00  8.00000000E-01  8.00000000E-01  1.50000000E+00  8.00000000E-01
  8.00000000E-01  1.50000000E+00  8.00000000E-01  8.00000000E-01  1.50000000E+00
  8.00000000E-01  8.00000000E-01  1.50000000E+00  8.00000000E-01  8.00000000E-01
  1.50000000E+00  8.00000000E-01  8.00000000E-01  1.50000000E+00  8.00000000E-01
  8.00000000E-01  1.50000000E+00  8.00000000E-01  8.00000000E-01  1.50000000E+00
  8.00000000E-01  8.00000000E-01  1.50000000E+00  8.00000000E-01  8.00000000E-01
  1.50000000E+00  8.00000000E-01  8.00000000E-01  1.50000000E+00  8.00000000E-01
  8.00000000E-01  1.50000000E+00  8.00000000E-01  8.00000000E-01  1.50000000E+00
  8.00000000E-01  8.00000000E-01  1.50000000E+00  8.00000000E-01  8.00000000E-01
  1.50000000E+00  8.00000000E-01  8.00000000E-01  1.50000000E+00  8.00000000E-01
  8.00000000E-01  1.50000000E+00  8.00000000E-01  8.00000000E-01  1.50000000E+00
  8.00000000E-01  8.00000000E-01  1.50000000E+00  8.00000000E-01  8.00000000E-01
  1.50000000E+00  8.00000000E-01  8.00000000E-01  1.50000000E+00  8.00000000E-01
  8.00000000E-01  1.50000000E+00  8.00000000E-01  8.00000000E-01  1.50000000E+00
  8.00000000E-01  8.00000000E-01  1.50000000E+00  8.00000000E-01  8.00000000E-01
  1.50000000E+00  8.00000000E-01  8.00000000E-01  1.50000000E+00  8.00000000E-01
  8.00000000E-01  1.50000000E+00  8.00000000E-01  8.00000000E-01  1.50000000E+00
  8.00000000E-01  8.00000000E-01  1.50000000E+00  8.00000000E-01  8.00000000E-01
  1.50000000E+00  8.00000000E-01  8.00000000E-01  1.50000000E+00  8.00000000E-01
  8.00000000E-01  1.50000000E+00  8.00000000E-01  8.00000000E-01  1.50000000E+00
  8.00000000E-01  8.00000000E-01  1.50000000E+00  8.00000000E-01  8.00000000E-01
  1.50000000E+00  8.00000000E-01  8.00000000E-01  1.50000000E+00  8.00000000E-01
  8.00000000E-01  1.50000000E+00  8.00000000E-01  8.00000000E-01  1.50000000E+00
  8.00000000E-01  8.00000000E-01  1.50000000E+00  8.00000000E-01  8.00000000E-01
  1.50000000E+00  8.00000000E-01  8.00000000E-01  1.50000000E+00  8.00000000E-01
  8.00000000E-01  1.50000000E+00  8.00000000E-01  8.00000000E-01  1.50000000E+00
  8.00000000E-01  8.00000000E-01  1.50000000E+00  8.00000000E-01  8.00000000E-01
  1.50000000E+00  8.00000000E-01  8.00000000E-01  1.50000000E+00  8.00000000E-01
  8.00000000E-01  1.50000000E+00  8.00000000E-01  8.00000000E-01  1.50000000E+00
  8.00000000E-01  8.00000000E-01  1.50000000E+00  8.00000000E-01  8.00000000E-01
  1.50000000E+00  8.00000000E-01  8.00000000E-01  1.50000000E+00  8.00000000E-01
  8.00000000E-01  1.50000000E+00  8.00000000E-01  8.00000000E-01  1.50000000E+00
  8.00000000E-01  8.00000000E-01  1.50000000E+00  8.00000000E-01  8.00000000E-01
  1.50000000E+00  8.00000000E-01  8.00000000E-01  1.50000000E+00  8.00000000E-01
  8.00000000E-01  1.50000000E+00  8.00000000E-01  8.00000000E-01  1.50000000E+00
  8.00000000E-01  8.00000000E-01  1.50000000E+00  8.00000000E-01  8.00000000E-01
  1.50000000E+00  8.00000000E-01  8.00000000E-01  1.50000000E+00  8.00000000E-01
  8.00000000E-01  1.50000000E+00  8.00000000E-01  8.00000000E-01  1.50000000E+00
  8.00000000E-01  8.00000000E-01  1.50000000E+00  8.00000000E-01  8.00000000E-01
  1.50000000E+00  8.00000000E-01  8.00000000E-01  1.50000000E+00  8.00000000E-01
  8.00000000E-01  1.50000000E+00  8.00000000E-01  8.00000000E-01  1.50000000E+00
  8.00000000E-01  8.00000000E-01  1.50000000E+00  8.00000000E-01  8.00000000E-01
  1.50000000E+00  8.00000000E-01  8.00000000E-01  1.50000000E+00  8.00000000E-01
  8.00000000E-01  1.50000000E+00  8.00000000E-01  8.00000000E-01  1.50000000E+00
  8.00000000E-01  8.00000000E-01  1.50000000E+00  8.00000000E-01  8.00000000E-01
  1.50000000E+00  8.00000000E-01  8.00000000E-01  1.50000000E+00  8.00000000E-01
  8.00000000E-01  1.50000000E+00  8.00000000E-01  8.00000000E-01  1.50000000E+00
  8.00000000E-01  8.00000000E-01  1.50000000E+00  8.00000000E-01  8.00000000E-01
  1.50000000E+00  8.00000000E-01  8.00000000E-01  1.50000000E+00  8.00000000E-01
  8.00000000E-01  1.50000000E+00  8.00000000E-01  8.00000000E-01  1.50000000E+00
  8.00000000E-01  8.00000000E-01  1.50000000E+00  8.00000000E-01  8.00000000E-01
  1.50000000E+00  8.00000000E-01  8.00000000E-01  1.50000000E+00  8.00000000E-01
  8.00000000E-01  1.50000000E+00  8.00000000E-01  8.00000000E-01  1.50000000E+00
  8.00000000E-01  8.00000000E-01  1.50000000E+00  8.00000000E-01  8.00000000E-01
  1.50000000E+00  8.00000000E-01  8.00000000E-01  1.50000000E+00  8.00000000E-01
  8.00000000E-01  1.50000000E+00  8.00000000E-01  8.00000000E-01  1.50000000E+00
  8.00000000E-01  8.00000000E-01  1.50000000E+00  8.00000000E-01  8.00000000E-01
  1.50000000E+00  8.00000000E-01  8.00000000E-01  1.50000000E+00  8.00000000E-01
  8.00000000E-01  1.50000000E+00  8.00000000E-01  8.00000000E-01  1.50000000E+00
  8.00000000E-01  8.00000000E-01  1.50000000E+00  8.00000000E-01  8.00000000E-01
  1.50000000E+00  8.00000000E-01  8.00000000E-01  1.50000000E+00  8.00000000E-01
  8.00000000E-01  1.50000000E+00  8.00000000E-01  8.00000000E-01  1.50000000E+00
  8.00000000E-01  8.00000000E-01  1.50000000E+00  8.00000000E-01  8.00000000E-01
  1.50000000E+00  8.00000000E-01  8.00000000E-01  1.50000000E+00  8.00000000E-01
  8.00000000E-01  1.50000000E+00  8.00000000E-01  8.00000000E-01  1.50000000E+00
  8.00000000E-01  8.00000000E-01  1.50000000E+00  8.00000000E-01  8.00000000E-01
  1.50000000E+00  8.00000000E-01  8.00000000E-01  1.50000000E+00  8.00000000E-01
  8.00000000E-01  1.50000000E+00  8.00000000E-01  8.00000000E-01  1.50000000E+00
  8.00000000E-01  8.00000000E-01  1.50000000E+00  8.00000000E-01  8.00000000E-01
  1.50000000E+00  8.00000000E-01  8.00000000E-01  1.50000000E+00  8.00000000E-01
  8.00000000E-01  1.50000000E+00  8.00000000E-01  8.00000000E-01  1.50000000E+00
  8.00000000E-01  8.00000000E-01  1.50000000E+00  8.00000000E-01  8.00000000E-01
  1.50000000E+00  8.00000000E-01  8.00000000E-01  1.50000000E+00  8.00000000E-01
  8.00000000E-01  1.50000000E+00  8.00000000E-01  8.00000000E-01  1.50000000E+00
  8.00000000E-01  8.00000000E-01  1.50000000E+00  8.00000000E-01  8.00000000E-01
  1.50000000E+00  8.00000000E-01  8.00000000E-01  1.50000000E+00  8.00000000E-01
  8.00000000E-01  1.50000000E+00  8.00000000E-01  8.00000000E-01  1.50000000E+00
  8.00000000E-01  8.00000000E-01  1.50000000E+00  8.00000000E-01  8.00000000E-01
  1.50000000E+00  8.00000000E-01  8.00000000E-01  1.50000000E+00  8.00000000E-01
  8.00000000E-01  1.50000000E+00  8.00000000E-01  8.00000000E-01  1.50000000E+00
  8.00000000E-01  8.00000000E-01  1.50000000E+00  8.00000000E-01  8.00000000E-01
  1.50000000E+00  8.00000000E-01  8.00000000E-01  1.50000000E+00  8.00000000E-01
  8.00000000E-01  1.50000000E+00  8.00000000E-01  8.00000000E-01  1.50000000E+00
  8.00000000E-01  8.00000000E-01  1.50000000E+00  8.00000000E-01  8.00000000E-01
  1.50000000E+00  8.00000000E-01  8.00000000E-01  1.50000000E+00  8.00000000E-01
  8.00000000E-01  1.50000000E+00  8.00000000E-01  8.00000000E-01  1.50000000E+00
  8.00000000E-01  8.00000000E-01  1.50000000E+00  8.00000000E-01  8.00000000E-01
  1.50000000E+00  8.00000000E-01  8.00000000E-01  1.50000000E+00  8.00000000E-01
  8.00000000E-01  1.50000000E+00  8.00000000E-01  8.00000000E-01  1.50000000E+00
  8.00000000E-01  8.00000000E-01  1.50000000E+00  8.00000000E-01  8.00000000E-01
  1.50000000E+00  8.00000000E-01  8.00000000E-01  1.50000000E+00  8.00000000E-01
  8.00000000E-01  1.50000000E+00  8.00000000E-01  8.00000000E-01  1.50000000E+00
  8.00000000E-01  8.00000000E-01  1.50000000E+00  8.00000000E-01  8.00000000E-01
  1.50000000E+00  8.00000000E-01  8.00000000E-01  1.50000000E+00  8.00000000E-01
  8.00000000E-01  1.50000000E+00  8.00000000E-01  8.00000000E-01  1.50000000E+00
  8.00000000E-01  8.00000000E-01  1.50000000E+00  8.00000000E-01  8.00000000E-01
  1.50000000E+00  8.00000000E-01  8.00000000E-01  1.50000000E+00  8.00000000E-01
  8.00000000E-01  1.50000000E+00  8.00000000E-01  8.00000000E-01  1.50000000E+00
  8.00000000E-01  8.00000000E-01  1.50000000E+00  8.00000000E-01  8.00000000E-01
  1.50000000E+00  8.00000000E-01  8.00000000E-01  1.50000000E+00  8.00000000E-01
  8.00000000E-01  1.50000000E+00  8.00000000E-01  8.00000000E-01  1.50000000E+00
  8.00000000E-01  8.00000000E-01  1.50000000E+00  8.00000000E-01  8.00000000E-01
  1.50000000E+00  8.00000000E-01  8.00000000E-01  1.50000000E+00  8.00000000E-01
  8.00000000E-01  1.50000000E+00  8.00000000E-01  8.00000000E-01  1.50000000E+00
  8.00000000E-01  8.00000000E-01  1.50000000E+00  8.00000000E-01  8.00000000E-01
  1.50000000E+00  8.00000000E-01  8.00000000E-01  1.50000000E+00  8.00000000E-01
  8.00000000E-01  1.50000000E+00  8.00000000E-01  8.00000000E-01  1.50000000E+00
  8.00000000E-01  8.00000000E-01  1.50000000E+00  8.00000000E-01  8.00000000E-01
  1.50000000E+00  8.00000000E-01  8.00000000E-01  1.50000000E+00  8.00000000E-01
  8.00000000E-01  1.50000000E+00  8.00000000E-01  8.00000000E-01  1.50000000E+00
  8.00000000E-01  8.00000000E-01  1.50000000E+00  8.00000000E-01  8.00000000E-01
  1.50000000E+00  8.00000000E-01  8.00000000E-01  1.50000000E+00  8.00000000E-01
  8.00000000E-01  1.50000000E+00  8.00000000E-01  8.00000000E-01  1.50000000E+00
  8.00000000E-01  8.00000000E-01  1.50000000E+00  8.00000000E-01  8.00000000E-01
  1.50000000E+00  8.00000000E-01  8.00000000E-01  1.50000000E+00  8.00000000E-01
  8.00000000E-01  1.50000000E+00  8.00000000E-01  8.00000000E-01  1.50000000E+00
  8.00000000E-01  8.00000000E-01  1.50000000E+00  8.00000000E-01  8.00000000E-01
  1.50000000E+00  8.00000000E-01  8.00000000E-01  1.50000000E+00  8.00000000E-01
  8.00000000E-01  1.50000000E+00  8.00000000E-01  8.00000000E-01  1.50000000E+00
  8.00000000E-01  8.00000000E-01  1.50000000E+00  8.00000000E-01  8.00000000E-01
  1.50000000E+00  8.00000000E-01  8.00000000E-01  1.50000000E+00  8.00000000E-01
  8.00000000E-01  1.50000000E+00  8.00000000E-01  8.00000000E-01  1.50000000E+00
  8.00000000E-01  8.00000000E-01  1.50000000E+00  8.00000000E-01  8.00000000E-01
  1.50000000E+00  8.00000000E-01  8.00000000E-01  1.50000000E+00  8.00000000E-01
  8.00000000E-01  1.50000000E+00  8.00000000E-01  8.00000000E-01  1.50000000E+00
  8.00000000E-01  8.00000000E-01  1.50000000E+00  8.00000000E-01  8.00000000E-01
  1.50000000E+00  8.00000000E-01  8.00000000E-01  1.50000000E+00  8.00000000E-01
  8.00000000E-01  1.50000000E+00  8.00000000E-01  8.00000000E-01  1.50000000E+00
  8.00000000E-01  8.00000000E-01  1.50000000E+00  8.00000000E-01  8.00000000E-01
  1.50000000E+00  8.00000000E-01  8.00000000E-01  1.50000000E+00  8.00000000E-01
  8.00000000E-01  1.50000000E+00  8.00000000E-01  8.00000000E-01  1.50000000E+00
  8.00000000E-01  8.00000000E-01  1.50000000E+00  8.00000000E-01  8.00000000E-01
  1.50000000E+00  8.00000000E-01  8.00000000E-01  1.50000000E+00  8.00000000E-01
  8.00000000E-01  1.50000000E+00  8.00000000E-01  8.00000000E-01  1.50000000E+00
  8.00000000E-01  8.00000000E-01  1.50000000E+00  8.00000000E-01  8.00000000E-01
  1.50000000E+00  8.00000000E-01  8.00000000E-01  1.50000000E+00  8.00000000E-01
  8.00000000E-01  1.50000000E+00  8.00000000E-01  8.00000000E-01  1.50000000E+00
  8.00000000E-01  8.00000000E-01  1.50000000E+00  8.00000000E-01  8.00000000E-01
  1.50000000E+00  8.00000000E-01  8.00000000E-01  1.50000000E+00  8.00000000E-01
  8.00000000E-01  1.50000000E+00  8.00000000E-01  8.00000000E-01  1.50000000E+00
  8.00000000E-01  8.00000000E-01  1.50000000E+00  8.00000000E-01  8.00000000E-01
  1.50000000E+00  8.00000000E-01  8.00000000E-01  1.50000000E+00  8.00000000E-01
  8.00000000E-01  1.50000000E+00  8.00000000E-01  8.00000000E-01  1.50000000E+00
  8.00000000E-01  8.00000000E-01  1.50000000E+00  8.00000000E-01  8.00000000E-01
  1.50000000E+00  8.00000000E-01  8.00000000E-01  1.50000000E+00  8.00000000E-01
  8.00000000E-01  1.50000000E+00  8.00000000E-01  8.00000000E-01  1.50000000E+00
  8.00000000E-01  8.00000000E-01  1.50000000E+00  8.00000000E-01  8.00000000E-01
  1.50000000E+00  8.00000000E-01  8.00000000E-01  1.50000000E+00  8.00000000E-01
  8.00000000E-01  1.50000000E+00  8.00000000E-01  8.00000000E-01  1.50000000E+00
  8.00000000E-01  8.00000000E-01  1.50000000E+00  8.00000000E-01  8.00000000E-01
  1.50000000E+00  8.00000000E-01  8.00000000E-01  1.50000000E+00  8.00000000E-01
  8.00000000E-01  1.50000000E+00  8.00000000E-01  8.00000000E-01  1.50000000E+00
  8.00000000E-01  8.00000000E-01  1.50000000E+00  8.00000000E-01  8.00000000E-01
  1.50000000E+00  8.00000000E-01  8.00000000E-01  1.50000000E+00  8.00000000E-01
  8.00000000E-01  1.50000000E+00  8.00000000E-01  8.00000000E-01  1.50000000E+00
  8.00000000E-01  8.00000000E-01  1.50000000E+00  8.00000000E-01  8.00000000E-01
  1.50000000E+00  8.00000000E-01  8.00000000E-01  1.50000000E+00  8.00000000E-01
  8.00000000E-01  1.50000000E+00  8.00000000E-01  8.00000000E-01  1.50000000E+00
  8.00000000E-01  8.00000000E-01  1.50000000E+00  8.00000000E-01  8.00000000E-01
  1.50000000E+00  8.00000000E-01  8.00000000E-01  1.50000000E+00  8.00000000E-01
  8.00000000E-01  1.50000000E+00  8.00000000E-01  8.00000000E-01  1.50000000E+00
  8.00000000E-01  8.00000000E-01  1.50000000E+00  8.00000000E-01  8.00000000E-01
  1.50000000E+00  8.00000000E-01  8.00000000E-01  1.50000000E+00  8.00000000E-01
  8.00000000E-01  1.50000000E+00  8.00000000E-01  8.00000000E-01  1.50000000E+00
  8.00000000E-01  8.00000000E-01  1.50000000E+00  8.00000000E-01  8.00000000E-01
  1.50000000E+00  8.00000000E-01  8.00000000E-01  1.50000000E+00  8.00000000E-01
  8.00000000E-01  1.50000000E+00  8.00000000E-01  8.00000000E-01  1.50000000E+00
  8.00000000E-01  8.00000000E-01  1.50000000E+00  8.00000000E-01  8.00000000E-01
  1.50000000E+00  8.00000000E-01  8.00000000E-01  1.50000000E+00  8.00000000E-01
  8.00000000E-01  1.50000000E+00  8.00000000E-01  8.00000000E-01  1.50000000E+00
  8.00000000E-01  8.00000000E-01  1.50000000E+00  8.00000000E-01  8.00000000E-01
  1.50000000E+00  8.00000000E-01  8.00000000E-01  1.50000000E+00  8.00000000E-01
  8.00000000E-01  1.50000000E+00  8.00000000E-01  8.00000000E-01  1.50000000E+00
  8.00000000E-01  8.00000000E-01  1.50000000E+00  8.00000000E-01  8.00000000E-01
  1.50000000E+00  8.00000000E-01  8.00000000E-01  1.50000000E+00  8.00000000E-01
  8.00000000E-01  1.50000000E+00  8.00000000E-01  8.00000000E-01  1.50000000E+00
  8.00000000E-01  8.00000000E-01  1.50000000E+00  8.00000000E-01  8.00000000E-01
  1.50000000E+00  8.00000000E-01  8.00000000E-01  1.50000000E+00  8.00000000E-01
  8.00000000E-01  1.50000000E+00  8.00000000E-01  8.00000000E-01  1.50000000E+00
  8.00000000E-01  8.00000000E-01  1.50000000E+00  8.00000000E-01  8.00000000E-01
  1.50000000E+00  8.00000000E-01  8.00000000E-01  1.50000000E+00  8.00000000E-01
  8.00000000E-01  1.50000000E+00  8.00000000E-01  8.00000000E-01  1.50000000E+00
  8.00000000E-01  8.00000000E-01  1.50000000E+00  8.00000000E-01  8.00000000E-01
  1.50000000E+00  8.00000000E-01  8.00000000E-01  1.50000000E+00  8.00000000E-01
  8.00000000E-01  1.50000000E+00  8.00000000E-01  8.00000000E-01  1.50000000E+00
  8.00000000E-01  8.00000000E-01  1.50000000E+00  8.00000000E-01  8.00000000E-01
  1.50000000E+00  8.00000000E-01  8.00000000E-01  1.50000000E+00  8.00000000E-01
  8.00000000E-01  1.50000000E+00  8.00000000E-01  8.00000000E-01  1.50000000E+00
  8.00000000E-01  8.00000000E-01  1.50000000E+00  8.00000000E-01  8.00000000E-01
  1.50000000E+00  8.00000000E-01  8.00000000E-01  1.50000000E+00  8.00000000E-01
  8.00000000E-01  1.50000000E+00  8.00000000E-01  8.00000000E-01  1.50000000E+00
  8.00000000E-01  8.00000000E-01  1.50000000E+00  8.00000000E-01  8.00000000E-01
  1.50000000E+00  8.00000000E-01  8.00000000E-01  1.50000000E+00  8.00000000E-01
  8.00000000E-01  1.50000000E+00  8.00000000E-01  8.00000000E-01  1.50000000E+00
  8.00000000E-01  8.00000000E-01  1.50000000E+00  8.00000000E-01  8.00000000E-01
  1.50000000E+00  8.00000000E-01  8.00000000E-01  1.50000000E+00  8.00000000E-01
  8.00000000E-01  1.50000000E+00  8.00000000E-01  8.00000000E-01  1.50000000E+00
  8.00000000E-01  8.00000000E-01  1.50000000E+00  8.00000000E-01  8.00000000E-01
  1.50000000E+00  8.00000000E-01  8.00000000E-01  1.50000000E+00  8.00000000E-01
  8.00000000E-01  1.50000000E+00  8.00000000E-01  8.00000000E-01  1.50000000E+00
  8.00000000E-01  8.00000000E-01  1.50000000E+00  8.00000000E-01  8.00000000E-01
  1.50000000E+00  8.00000000E-01  8.00000000E-01  1.50000000E+00  8.00000000E-01
  8.00000000E-01  1.50000000E+00  8.00000000E-01  8.00000000E-01  1.50000000E+00
  8.00000000E-01  8.00000000E-01  1.50000000E+00  8.00000000E-01  8.00000000E-01
  1.50000000E+00  8.00000000E-01  8.00000000E-01  1.50000000E+00  8.00000000E-01
  8.00000000E-01  1.50000000E+00  8.00000000E-01  8.00000000E-01  1.50000000E+00
  8.00000000E-01  8.00000000E-01  1.50000000E+00  8.00000000E-01  8.00000000E-01
  1.50000000E+00  8.00000000E-01  8.00000000E-01  1.50000000E+00  8.00000000E-01
  8.00000000E-01  1.50000000E+00  8.00000000E-01  8.00000000E-01  1.50000000E+00
  8.00000000E-01  8.00000000E-01  1.50000000E+00  8.00000000E-01  8.00000000E-01
  1.50000000E+00  8.00000000E-01  8.00000000E-01  1.50000000E+00  8.00000000E-01
  8.00000000E-01  1.50000000E+00  8.00000000E-01  8.00000000E-01  1.50000000E+00
  8.00000000E-01  8.00000000E-01  1.50000000E+00  8.00000000E-01  8.00000000E-01
  1.50000000E+00  8.00000000E-01  8.00000000E-01  1.50000000E+00  8.00000000E-01
  8.00000000E-01  1.50000000E+00  8.00000000E-01  8.00000000E-01  1.50000000E+00
  8.00000000E-01  8.00000000E-01  1.50000000E+00  8.00000000E-01  8.00000000E-01
  1.50000000E+00  8.00000000E-01  8.00000000E-01  1.50000000E+00  8.00000000E-01
  8.00000000E-01  1.50000000E+00  8.00000000E-01  8.00000000E-01  1.50000000E+00
  8.00000000E-01  8.00000000E-01  1.50000000E+00  8.00000000E-01  8.00000000E-01
  1.50000000E+00  8.00000000E-01  8.00000000E-01  1.50000000E+00  8.00000000E-01
  8.00000000E-01  1.50000000E+00  8.00000000E-01  8.00000000E-01  1.50000000E+00
  8.00000000E-01  8.00000000E-01  1.50000000E+00  8.00000000E-01  8.00000000E-01
  1.50000000E+00  8.00000000E-01  8.00000000E-01  1.50000000E+00  8.00000000E-01
  8.00000000E-01  1.50000000E+00  8.00000000E-01  8.00000000E-01  1.50000000E+00
  8.00000000E-01  8.00000000E-01  1.50000000E+00  8.00000000E-01  8.00000000E-01
  1.50000000E+00  8.00000000E-01  8.00000000E-01  1.50000000E+00  8.00000000E-01
  8.00000000E-01  1.50000000E+00  8.00000000E-01  8.00000000E-01  1.50000000E+00
  8.00000000E-01  8.00000000E-01  1.50000000E+00  8.00000000E-01  8.00000000E-01
  1.50000000E+00  8.00000000E-01  8.00000000E-01  1.50000000E+00  8.00000000E-01
  8.00000000E-01  1.50000000E+00  8.00000000E-01  8.00000000E-01  1.50000000E+00
  8.00000000E-01  8.00000000E-01  1.50000000E+00  8.00000000E-01  8.00000000E-01
  1.50000000E+00  8.00000000E-01  8.00000000E-01  1.50000000E+00  8.00000000E-01
  8.00000000E-01  1.50000000E+00  8.00000000E-01  8.00000000E-01  1.50000000E+00
  8.00000000E-01  8.00000000E-01  1.50000000E+00  8.00000000E-01  8.00000000E-01
  1.50000000E+00  8.00000000E-01  8.00000000E-01  1.50000000E+00  8.00000000E-01
  8.00000000E-01  1.50000000E+00  8.00000000E-01  8.00000000E-01  1.50000000E+00
  8.00000000E-01  8.00000000E-01  1.50000000E+00  8.00000000E-01  8.00000000E-01
  1.50000000E+00  8.00000000E-01  8.00000000E-01  1.50000000E+00  8.00000000E-01
  8.00000000E-01  1.50000000E+00  8.00000000E-01  8.00000000E-01  1.50000000E+00
  8.00000000E-01  8.00000000E-01  1.50000000E+00  8.00000000E-01  8.00000000E-01
  1.50000000E+00  8.00000000E-01  8.00000000E-01  1.50000000E+00  8.00000000E-01
  8.00000000E-01  1.50000000E+00  8.00000000E-01  8.00000000E-01  1.50000000E+00
  8.00000000E-01  8.00000000E-01  1.50000000E+00  8.00000000E-01  8.00000000E-01
  1.50000000E+00  8.00000000E-01  8.00000000E-01  1.50000000E+00  8.00000000E-01
  8.00000000E-01  1.50000000E+00  8.00000000E-01  8.00000000E-01  1.50000000E+00
  8.00000000E-01  8.00000000E-01  1.50000000E+00  8.00000000E-01  8.00000000E-01
  1.50000000E+00  8.00000000E-01  8.00000000E-01  1.50000000E+00  8.00000000E-01
  8.00000000E-01  1.50000000E+00  8.00000000E-01  8.00000000E-01  1.50000000E+00
  8.00000000E-01  8.00000000E-01  1.50000000E+00  8.00000000E-01  8.00000000E-01
  1.50000000E+00  8.00000000E-01  8.00000000E-01  1.50000000E+00  8.00000000E-01
  8.00000000E-01  1.50000000E+00  8.00000000E-01  8.00000000E-01  1.50000000E+00
  8.00000000E-01  8.00000000E-01  1.50000000E+00  8.00000000E-01  8.00000000E-01
  1.50000000E+00  8.00000000E-01  8.00000000E-01  1.50000000E+00  8.00000000E-01
  8.00000000E-01  1.50000000E+00  8.00000000E-01  8.00000000E-01  1.50000000E+00
  8.00000000E-01  8.00000000E-01  1.50000000E+00  8.00000000E-01  8.00000000E-01
  1.50000000E+00  8.00000000E-01  8.00000000E-01  1.50000000E+00  8.00000000E-01
  8.00000000E-01  1.50000000E+00  8.00000000E-01  8.00000000E-01  1.50000000E+00
  8.00000000E-01  8.00000000E-01  1.50000000E+00  8.00000000E-01  8.00000000E-01
  1.50000000E+00  8.00000000E-01  8.00000000E-01  1.50000000E+00  8.00000000E-01
  8.00000000E-01  1.50000000E+00  8.00000000E-01  8.00000000E-01  1.50000000E+00
  8.00000000E-01  8.00000000E-01  1.50000000E+00  8.00000000E-01  8.00000000E-01
  1.50000000E+00  8.00000000E-01  8.00000000E-01  1.50000000E+00  8.00000000E-01
  8.00000000E-01  1.50000000E+00  8.00000000E-01  8.00000000E-01  1.50000000E+00
  8.00000000E-01  8.00000000E-01  1.50000000E+00  8.00000000E-01  8.00000000E-01
  1.50000000E+00  8.00000000E-01  8.00000000E-01  1.50000000E+00  8.00000000E-01
  8.00000000E-01  1.50000000E+00  8.00000000E-01  8.00000000E-01  1.50000000E+00
  8.00000000E-01  8.00000000E-01  1.50000000E+00  8.00000000E-01  8.00000000E-01
  1.50000000E+00  8.00000000E-01  8.00000000E-01  1.50000000E+00  8.00000000E-01
  8.00000000E-01  1.50000000E+00  8.00000000E-01  8.00000000E-01  1.50000000E+00
  8.00000000E-01  8.00000000E-01  1.50000000E+00  8.00000000E-01  8.00000000E-01
  1.50000000E+00  8.00000000E-01  8.00000000E-01  1.50000000E+00  8.00000000E-01
  8.00000000E-01  1.50000000E+00  8.00000000E-01  8.00000000E-01  1.50000000E+00
  8.00000000E-01  8.00000000E-01  1.50000000E+00  8.00000000E-01  8.00000000E-01
  1.50000000E+00  8.00000000E-01  8.00000000E-01  1.50000000E+00  8.00000000E-01
  8.00000000E-01  1.50000000E+00  8.00000000E-01  8.00000000E-01  1.50000000E+00
  8.00000000E-01  8.00000000E-01  1.50000000E+00  8.00000000E-01  8.00000000E-01
  1.50000000E+00  8.00000000E-01  8.00000000E-01  1.50000000E+00  8.00000000E-01
  8.00000000E-01  1.50000000E+00  8.00000000E-01  8.00000000E-01  1.50000000E+00
  8.00000000E-01  8.00000000E-01  1.50000000E+00  8.00000000E-01  8.00000000E-01
  1.50000000E+00  8.00000000E-01  8.00000000E-01  1.50000000E+00  8.00000000E-01
  8.00000000E-01  1.50000000E+00  8.00000000E-01  8.00000000E-01  1.50000000E+00
  8.00000000E-01  8.00000000E-01  1.50000000E+00  8.00000000E-01  8.00000000E-01
  1.50000000E+00  8.00000000E-01  8.00000000E-01  1.50000000E+00  8.00000000E-01
  8.00000000E-01  1.50000000E+00  8.00000000E-01  8.00000000E-01  1.50000000E+00
  8.00000000E-01  8.00000000E-01  1.50000000E+00  8.00000000E-01  8.00000000E-01
  1.50000000E+00  8.00000000E-01  8.00000000E-01  1.50000000E+00  8.00000000E-01
  8.00000000E-01  1.50000000E+00  8.00000000E-01  8.00000000E-01  1.50000000E+00
  8.00000000E-01  8.00000000E-01  1.50000000E+00  8.00000000E-01  8.00000000E-01
  1.50000000E+00  8.00000000E-01  8.00000000E-01  1.50000000E+00  8.00000000E-01
  8.00000000E-01  1.50000000E+00  8.00000000E-01  8.00000000E-01  1.50000000E+00
  8.00000000E-01  8.00000000E-01  1.50000000E+00  8.00000000E-01  8.00000000E-01
  1.50000000E+00  8.00000000E-01  8.00000000E-01  1.50000000E+00  8.00000000E-01
  8.00000000E-01  1.50000000E+00  8.00000000E-01  8.00000000E-01  1.50000000E+00
  8.00000000E-01  8.00000000E-01  1.50000000E+00  8.00000000E-01  8.00000000E-01
  1.50000000E+00  8.00000000E-01  8.00000000E-01  1.50000000E+00  8.00000000E-01
  8.00000000E-01  1.50000000E+00  8.00000000E-01  8.00000000E-01  1.50000000E+00
  8.00000000E-01  8.00000000E-01  1.50000000E+00  8.00000000E-01  8.00000000E-01
  1.50000000E+00  8.00000000E-01  8.00000000E-01  1.50000000E+00  8.00000000E-01
  8.00000000E-01  1.50000000E+00  8.00000000E-01  8.00000000E-01  1.50000000E+00
  8.00000000E-01  8.00000000E-01  1.50000000E+00  8.00000000E-01  8.00000000E-01
  1.50000000E+00  8.00000000E-01  8.00000000E-01  1.50000000E+00  8.00000000E-01
  8.00000000E-01  1.50000000E+00  8.00000000E-01  8.00000000E-01  1.50000000E+00
  8.00000000E-01  8.00000000E-01  1.50000000E+00  8.00000000E-01  8.00000000E-01
  1.50000000E+00  8.00000000E-01  8.00000000E-01  1.50000000E+00  8.00000000E-01
  8.00000000E-01  1.50000000E+00  8.00000000E-01  8.00000000E-01  1.50000000E+00
  8.00000000E-01  8.00000000E-01  1.50000000E+00  8.00000000E-01  8.00000000E-01
  1.50000000E+00  8.00000000E-01  8.00000000E-01  1.50000000E+00  8.00000000E-01
  8.00000000E-01  1.50000000E+00  8.00000000E-01  8.00000000E-01  1.50000000E+00
  8.00000000E-01  8.00000000E-01  1.50000000E+00  8.00000000E-01  8.00000000E-01
  1.50000000E+00  8.00000000E-01  8.00000000E-01  1.50000000E+00  8.00000000E-01
  8.00000000E-01  1.50000000E+00  8.00000000E-01  8.00000000E-01  1.50000000E+00
  8.00000000E-01  8.00000000E-01  1.50000000E+00  8.00000000E-01  8.00000000E-01
  1.50000000E+00  8.00000000E-01  8.00000000E-01  1.50000000E+00  8.00000000E-01
  8.00000000E-01  1.50000000E+00  8.00000000E-01  8.00000000E-01  1.50000000E+00
  8.00000000E-01  8.00000000E-01  1.50000000E+00  8.00000000E-01  8.00000000E-01
  1.50000000E+00  8.00000000E-01  8.00000000E-01  1.50000000E+00  8.00000000E-01
  8.00000000E-01  1.50000000E+00  8.00000000E-01  8.00000000E-01  1.50000000E+00
  8.00000000E-01  8.00000000E-01  1.50000000E+00  8.00000000E-01  8.00000000E-01
  1.50000000E+00  8.00000000E-01  8.00000000E-01  1.50000000E+00  8.00000000E-01
  8.00000000E-01  1.50000000E+00  8.00000000E-01  8.00000000E-01  1.50000000E+00
  8.00000000E-01  8.00000000E-01  1.50000000E+00  8.00000000E-01  8.00000000E-01
  1.50000000E+00  8.00000000E-01  8.00000000E-01  1.50000000E+00  8.00000000E-01
  8.00000000E-01  1.50000000E+00  8.00000000E-01  8.00000000E-01  1.50000000E+00
  8.00000000E-01  8.00000000E-01  1.50000000E+00  8.00000000E-01  8.00000000E-01
  1.50000000E+00  8.00000000E-01  8.00000000E-01  1.50000000E+00  8.00000000E-01
  8.00000000E-01  1.50000000E+00  8.00000000E-01  8.00000000E-01  1.50000000E+00
  8.00000000E-01  8.00000000E-01  1.50000000E+00  8.00000000E-01  8.00000000E-01
  1.50000000E+00  8.00000000E-01  8.00000000E-01  1.50000000E+00  8.00000000E-01
  8.00000000E-01  1.50000000E+00  8.00000000E-01  8.00000000E-01  1.50000000E+00
  8.00000000E-01  8.00000000E-01  1.50000000E+00  8.00000000E-01  8.00000000E-01
  1.50000000E+00  8.00000000E-01  8.00000000E-01  1.50000000E+00  8.00000000E-01
  8.00000000E-01  1.50000000E+00  8.00000000E-01  8.00000000E-01  1.50000000E+00
  8.00000000E-01  8.00000000E-01  1.50000000E+00  8.00000000E-01  8.00000000E-01
  1.50000000E+00  8.00000000E-01  8.00000000E-01  1.50000000E+00  8.00000000E-01
  8.00000000E-01  1.50000000E+00  8.00000000E-01  8.00000000E-01  1.50000000E+00
  8.00000000E-01  8.00000000E-01  1.50000000E+00  8.00000000E-01  8.00000000E-01
  1.50000000E+00  8.00000000E-01  8.00000000E-01  1.50000000E+00  8.00000000E-01
  8.00000000E-01  1.50000000E+00  8.00000000E-01  8.00000000E-01  1.50000000E+00
  8.00000000E-01  8.00000000E-01  1.50000000E+00  8.00000000E-01  8.00000000E-01
  1.50000000E+00  8.00000000E-01  8.00000000E-01  1.50000000E+00  8.00000000E-01
  8.00000000E-01  1.50000000E+00  8.00000000E-01  8.00000000E-01  1.50000000E+00
  8.00000000E-01  8.00000000E-01  1.50000000E+00  8.00000000E-01  8.00000000E-01
  1.50000000E+00  8.00000000E-01  8.00000000E-01  1.50000000E+00  8.00000000E-01
  8.00000000E-01  1.50000000E+00  8.00000000E-01  8.00000000E-01  1.50000000E+00
  8.00000000E-01  8.00000000E-01  1.50000000E+00  8.00000000E-01  8.00000000E-01
  1.50000000E+00  8.00000000E-01  8.00000000E-01  1.50000000E+00  8.00000000E-01
  8.00000000E-01  1.50000000E+00  8.00000000E-01  8.00000000E-01  1.50000000E+00
  8.00000000E-01  8.00000000E-01  1.50000000E+00  8.00000000E-01  8.00000000E-01
  1.50000000E+00  8.00000000E-01  8.00000000E-01  1.50000000E+00  8.00000000E-01
  8.00000000E-01  1.50000000E+00  8.00000000E-01  8.00000000E-01  1.50000000E+00
  8.00000000E-01  8.00000000E-01  1.50000000E+00  8.00000000E-01  8.00000000E-01
  1.50000000E+00  8.00000000E-01  8.00000000E-01  1.50000000E+00  8.00000000E-01
  8.00000000E-01  1.50000000E+00  8.00000000E-01  8.00000000E-01  1.50000000E+00
  8.00000000E-01  8.00000000E-01  1.50000000E+00  8.00000000E-01  8.00000000E-01
  1.50000000E+00  8.00000000E-01  8.00000000E-01  1.50000000E+00  8.00000000E-01
  8.00000000E-01  1.50000000E+00  8.00000000E-01  8.00000000E-01  1.50000000E+00
  8.00000000E-01  8.00000000E-01  1.50000000E+00  8.00000000E-01  8.00000000E-01
  1.50000000E+00  8.00000000E-01  8.00000000E-01  1.50000000E+00  8.00000000E-01
  8.00000000E-01  1.50000000E+00  8.00000000E-01  8.00000000E-01  1.50000000E+00
  8.00000000E-01  8.00000000E-01  1.50000000E+00  8.00000000E-01  8.00000000E-01
  1.50000000E+00  8.00000000E-01  8.00000000E-01  1.50000000E+00  8.00000000E-01
  8.00000000E-01  1.50000000E+00  8.00000000E-01  8.00000000E-01  1.50000000E+00
  8.00000000E-01  8.00000000E-01  1.50000000E+00  8.00000000E-01  8.00000000E-01
  1.50000000E+00  8.00000000E-01  8.00000000E-01  1.50000000E+00  8.00000000E-01
  8.00000000E-01  1.50000000E+00  8.00000000E-01  8.00000000E-01  1.50000000E+00
  8.00000000E-01  8.00000000E-01  1.50000000E+00  8.00000000E-01  8.00000000E-01
  1.50000000E+00  8.00000000E-01  8.00000000E-01  1.50000000E+00  8.00000000E-01
  8.00000000E-01  1.50000000E+00  8.00000000E-01  8.00000000E-01  1.50000000E+00
  8.00000000E-01  8.00000000E-01  1.50000000E+00  8.00000000E-01  8.00000000E-01
  1.50000000E+00  8.00000000E-01  8.00000000E-01  1.50000000E+00  8.00000000E-01
  8.00000000E-01  1.50000000E+00  8.00000000E-01  8.00000000E-01  1.50000000E+00
  8.00000000E-01  8.00000000E-01  1.50000000E+00  8.00000000E-01  8.00000000E-01
  1.50000000E+00  8.00000000E-01  8.00000000E-01  1.50000000E+00  8.00000000E-01
  8.00000000E-01  1.50000000E+00  8.00000000E-01  8.00000000E-01  1.50000000E+00
  8.00000000E-01  8.00000000E-01  1.50000000E+00  8.00000000E-01  8.00000000E-01
  1.50000000E+00  8.00000000E-01  8.00000000E-01  1.50000000E+00  8.00000000E-01
  8.00000000E-01  1.50000000E+00  8.00000000E-01  8.00000000E-01  1.50000000E+00
  8.00000000E-01  8.00000000E-01  1.50000000E+00  8.00000000E-01  8.00000000E-01
  1.50000000E+00  8.00000000E-01  8.00000000E-01  1.50000000E+00  8.00000000E-01
  8.00000000E-01  1.50000000E+00  8.00000000E-01  8.00000000E-01  1.50000000E+00
  8.00000000E-01  8.00000000E-01  1.50000000E+00  8.00000000E-01  8.00000000E-01
  1.50000000E+00  8.00000000E-01  8.00000000E-01  1.50000000E+00  8.00000000E-01
  8.00000000E-01  1.50000000E+00  8.00000000E-01  8.00000000E-01  1.50000000E+00
  8.00000000E-01  8.00000000E-01  1.50000000E+00  8.00000000E-01  8.00000000E-01
  1.50000000E+00  8.00000000E-01  8.00000000E-01  1.50000000E+00  8.00000000E-01
  8.00000000E-01  1.50000000E+00  8.00000000E-01  8.00000000E-01  1.50000000E+00
  8.00000000E-01  8.00000000E-01  1.50000000E+00  8.00000000E-01  8.00000000E-01
  1.50000000E+00  8.00000000E-01  8.00000000E-01  1.50000000E+00  8.00000000E-01
  8.00000000E-01  1.50000000E+00  8.00000000E-01  8.00000000E-01  1.50000000E+00
  8.00000000E-01  8.00000000E-01  1.50000000E+00  8.00000000E-01  8.00000000E-01
  1.50000000E+00  8.00000000E-01  8.00000000E-01  1.50000000E+00  8.00000000E-01
  8.00000000E-01  1.50000000E+00  8.00000000E-01  8.00000000E-01  1.50000000E+00
  8.00000000E-01  8.00000000E-01  1.50000000E+00  8.00000000E-01  8.00000000E-01
  1.50000000E+00  8.00000000E-01  8.00000000E-01  1.50000000E+00  8.00000000E-01
  8.00000000E-01  1.50000000E+00  8.00000000E-01  8.00000000E-01  1.50000000E+00
  8.00000000E-01  8.00000000E-01  1.50000000E+00  8.00000000E-01  8.00000000E-01
  1.50000000E+00  8.00000000E-01  8.00000000E-01  1.50000000E+00  8.00000000E-01
  8.00000000E-01  1.50000000E+00  8.00000000E-01  8.00000000E-01  1.50000000E+00
  8.00000000E-01  8.00000000E-01  1.50000000E+00  8.00000000E-01  8.00000000E-01
  1.50000000E+00  8.00000000E-01  8.00000000E-01  1.50000000E+00  8.00000000E-01
  8.00000000E-01  1.50000000E+00  8.00000000E-01  8.00000000E-01  1.50000000E+00
  8.00000000E-01  8.00000000E-01  1.50000000E+00  8.00000000E-01  8.00000000E-01
  1.50000000E+00  8.00000000E-01  8.00000000E-01  1.50000000E+00  8.00000000E-01
  8.00000000E-01  1.50000000E+00  8.00000000E-01  8.00000000E-01  1.50000000E+00
  8.00000000E-01  8.00000000E-01  1.50000000E+00  8.00000000E-01  8.00000000E-01
  1.50000000E+00  8.00000000E-01  8.00000000E-01  1.50000000E+00  8.00000000E-01
  8.00000000E-01  1.50000000E+00  8.00000000E-01  8.00000000E-01  1.50000000E+00
  8.00000000E-01  8.00000000E-01  1.50000000E+00  8.00000000E-01  8.00000000E-01
  1.50000000E+00  8.00000000E-01  8.00000000E-01  1.50000000E+00  8.00000000E-01
  8.00000000E-01  1.50000000E+00  8.00000000E-01  8.00000000E-01  1.50000000E+00
  8.00000000E-01  8.00000000E-01  1.50000000E+00  8.00000000E-01  8.00000000E-01
  1.50000000E+00  8.00000000E-01  8.00000000E-01  1.50000000E+00  8.00000000E-01
  8.00000000E-01  1.50000000E+00  8.00000000E-01  8.00000000E-01  1.50000000E+00
  8.00000000E-01  8.00000000E-01  1.50000000E+00  8.00000000E-01  8.00000000E-01
  1.50000000E+00  8.00000000E-01  8.00000000E-01  1.50000000E+00  8.00000000E-01
  8.00000000E-01  1.50000000E+00  8.00000000E-01  8.00000000E-01  1.50000000E+00
  8.00000000E-01  8.00000000E-01  1.50000000E+00  8.00000000E-01  8.00000000E-01
  1.50000000E+00  8.00000000E-01  8.00000000E-01  1.50000000E+00  8.00000000E-01
  8.00000000E-01  1.50000000E+00  8.00000000E-01  8.00000000E-01  1.50000000E+00
  8.00000000E-01  8.00000000E-01  1.50000000E+00  8.00000000E-01  8.00000000E-01
  1.50000000E+00  8.00000000E-01  8.00000000E-01  1.50000000E+00  8.00000000E-01
  8.00000000E-01  1.50000000E+00  8.00000000E-01  8.00000000E-01  1.50000000E+00
  8.00000000E-01  8.00000000E-01  1.50000000E+00  8.00000000E-01  8.00000000E-01
  1.50000000E+00  8.00000000E-01  8.00000000E-01  1.50000000E+00  8.00000000E-01
  8.00000000E-01  1.50000000E+00  8.00000000E-01  8.00000000E-01  1.50000000E+00
  8.00000000E-01  8.00000000E-01  1.50000000E+00  8.00000000E-01  8.00000000E-01
  1.50000000E+00  8.00000000E-01  8.00000000E-01  1.50000000E+00  8.00000000E-01
  8.00000000E-01  1.50000000E+00  8.00000000E-01  8.00000000E-01  1.50000000E+00
  8.00000000E-01  8.00000000E-01  1.50000000E+00  8.00000000E-01  8.00000000E-01
  1.50000000E+00  8.00000000E-01  8.00000000E-01  1.50000000E+00  8.00000000E-01
  8.00000000E-01  1.50000000E+00  8.00000000E-01  8.00000000E-01  1.50000000E+00
  8.00000000E-01  8.00000000E-01  1.50000000E+00  8.00000000E-01  8.00000000E-01
  1.50000000E+00  8.00000000E-01  8.00000000E-01  1.50000000E+00  8.00000000E-01
  8.00000000E-01  1.50000000E+00  8.00000000E-01  8.00000000E-01  1.50000000E+00
  8.00000000E-01  8.00000000E-01  1.50000000E+00  8.00000000E-01  8.00000000E-01
  1.50000000E+00  8.00000000E-01  8.00000000E-01  1.50000000E+00  8.00000000E-01
  8.00000000E-01  1.50000000E+00  8.00000000E-01  8.00000000E-01  1.50000000E+00
  8.00000000E-01  8.00000000E-01  1.50000000E+00  8.00000000E-01  8.00000000E-01
  1.50000000E+00  8.00000000E-01  8.00000000E-01  1.50000000E+00  8.00000000E-01
  8.00000000E-01  1.50000000E+00  8.00000000E-01  8.00000000E-01  1.50000000E+00
  8.00000000E-01  8.00000000E-01  1.50000000E+00  8.00000000E-01  8.00000000E-01
  1.50000000E+00  8.00000000E-01  8.00000000E-01  1.50000000E+00  8.00000000E-01
  8.00000000E-01  1.50000000E+00  8.00000000E-01  8.00000000E-01  1.50000000E+00
  8.00000000E-01  8.00000000E-01  1.50000000E+00  8.00000000E-01  8.00000000E-01
  1.50000000E+00  8.00000000E-01  8.00000000E-01  1.50000000E+00  8.00000000E-01
  8.00000000E-01  1.50000000E+00  8.00000000E-01  8.00000000E-01  1.50000000E+00
  8.00000000E-01  8.00000000E-01  1.50000000E+00  8.00000000E-01  8.00000000E-01
  1.50000000E+00  8.00000000E-01  8.00000000E-01  1.50000000E+00  8.00000000E-01
  8.00000000E-01  1.50000000E+00  8.00000000E-01  8.00000000E-01  1.50000000E+00
  8.00000000E-01  8.00000000E-01  1.50000000E+00  8.00000000E-01  8.00000000E-01
  1.50000000E+00  8.00000000E-01  8.00000000E-01  1.50000000E+00  8.00000000E-01
  8.00000000E-01  1.50000000E+00  8.00000000E-01  8.00000000E-01  1.50000000E+00
  8.00000000E-01  8.00000000E-01  1.50000000E+00  8.00000000E-01  8.00000000E-01
  1.50000000E+00  8.00000000E-01  8.00000000E-01  1.50000000E+00  8.00000000E-01
  8.00000000E-01  1.50000000E+00  8.00000000E-01  8.00000000E-01  1.50000000E+00
  8.00000000E-01  8.00000000E-01  1.50000000E+00  8.00000000E-01  8.00000000E-01
  1.50000000E+00  8.00000000E-01  8.00000000E-01  1.50000000E+00  8.00000000E-01
  8.00000000E-01  1.50000000E+00  8.00000000E-01  8.00000000E-01  1.50000000E+00
  8.00000000E-01  8.00000000E-01  1.50000000E+00  8.00000000E-01  8.00000000E-01
  1.50000000E+00  8.00000000E-01  8.00000000E-01  1.50000000E+00  8.00000000E-01
  8.00000000E-01  1.50000000E+00  8.00000000E-01  8.00000000E-01  1.50000000E+00
  8.00000000E-01  8.00000000E-01  1.50000000E+00  8.00000000E-01  8.00000000E-01
  1.50000000E+00  8.00000000E-01  8.00000000E-01  1.50000000E+00  8.00000000E-01
  8.00000000E-01  1.50000000E+00  8.00000000E-01  8.00000000E-01  1.50000000E+00
  8.00000000E-01  8.00000000E-01  1.50000000E+00  8.00000000E-01  8.00000000E-01
  1.50000000E+00  8.00000000E-01  8.00000000E-01  1.50000000E+00  8.00000000E-01
  8.00000000E-01  1.50000000E+00  8.00000000E-01  8.00000000E-01  1.50000000E+00
  8.00000000E-01  8.00000000E-01  1.50000000E+00  8.00000000E-01  8.00000000E-01
  1.50000000E+00  8.00000000E-01  8.00000000E-01  1.50000000E+00  8.00000000E-01
  8.00000000E-01  1.50000000E+00  8.00000000E-01  8.00000000E-01  1.50000000E+00
  8.00000000E-01  8.00000000E-01  1.50000000E+00  8.00000000E-01  8.00000000E-01
  1.50000000E+00  8.00000000E-01  8.00000000E-01  1.50000000E+00  8.00000000E-01
  8.00000000E-01  1.50000000E+00  8.00000000E-01  8.00000000E-01  1.50000000E+00
  8.00000000E-01  8.00000000E-01  1.50000000E+00  8.00000000E-01  8.00000000E-01
  1.50000000E+00  8.00000000E-01  8.00000000E-01  1.50000000E+00  8.00000000E-01
  8.00000000E-01  1.50000000E+00  8.00000000E-01  8.00000000E-01  1.50000000E+00
  8.00000000E-01  8.00000000E-01  1.50000000E+00  8.00000000E-01  8.00000000E-01
  1.50000000E+00  8.00000000E-01  8.00000000E-01  1.50000000E+00  8.00000000E-01
  8.00000000E-01  1.50000000E+00  8.00000000E-01  8.00000000E-01  1.50000000E+00
  8.00000000E-01  8.00000000E-01  1.50000000E+00  8.00000000E-01  8.00000000E-01
  1.50000000E+00  8.00000000E-01  8.00000000E-01  1.50000000E+00  8.00000000E-01
  8.00000000E-01  1.50000000E+00  8.00000000E-01  8.00000000E-01  1.50000000E+00
  8.00000000E-01  8.00000000E-01  1.50000000E+00  8.00000000E-01  8.00000000E-01
  1.50000000E+00  8.00000000E-01  8.00000000E-01  1.50000000E+00  8.00000000E-01
  8.00000000E-01  1.50000000E+00  8.00000000E-01  8.00000000E-01  1.50000000E+00
  8.00000000E-01  8.00000000E-01  1.50000000E+00  8.00000000E-01  8.00000000E-01
  1.50000000E+00  8.00000000E-01  8.00000000E-01  1.50000000E+00  8.00000000E-01
  8.00000000E-01  1.50000000E+00  8.00000000E-01  8.00000000E-01  1.50000000E+00
  8.00000000E-01  8.00000000E-01  1.50000000E+00  8.00000000E-01  8.00000000E-01
  1.50000000E+00  8.00000000E-01  8.00000000E-01  1.50000000E+00  8.00000000E-01
  8.00000000E-01  1.50000000E+00  8.00000000E-01  8.00000000E-01  1.50000000E+00
  8.00000000E-01  8.00000000E-01  1.50000000E+00  8.00000000E-01  8.00000000E-01
  1.50000000E+00  8.00000000E-01  8.00000000E-01  1.50000000E+00  8.00000000E-01
  8.00000000E-01  1.50000000E+00  8.00000000E-01  8.00000000E-01  1.50000000E+00
  8.00000000E-01  8.00000000E-01  1.50000000E+00  8.00000000E-01  8.00000000E-01
  1.50000000E+00  8.00000000E-01  8.00000000E-01  1.50000000E+00  8.00000000E-01
  8.00000000E-01  1.50000000E+00  8.00000000E-01  8.00000000E-01  1.50000000E+00
  8.00000000E-01  8.00000000E-01  1.50000000E+00  8.00000000E-01  8.00000000E-01
  1.50000000E+00  8.00000000E-01  8.00000000E-01  1.50000000E+00  8.00000000E-01
  8.00000000E-01  1.50000000E+00  8.00000000E-01  8.00000000E-01  1.50000000E+00
  8.00000000E-01  8.00000000E-01  1.50000000E+00  8.00000000E-01  8.00000000E-01
  1.50000000E+00  8.00000000E-01  8.00000000E-01  1.50000000E+00  8.00000000E-01
  8.00000000E-01  1.50000000E+00  8.00000000E-01  8.00000000E-01  1.50000000E+00
  8.00000000E-01  8.00000000E-01  1.50000000E+00  8.00000000E-01  8.00000000E-01
  1.50000000E+00  8.00000000E-01  8.00000000E-01  1.50000000E+00  8.00000000E-01
  8.00000000E-01  1.50000000E+00  8.00000000E-01  8.00000000E-01  1.50000000E+00
  8.00000000E-01  8.00000000E-01  1.50000000E+00  8.00000000E-01  8.00000000E-01
  1.50000000E+00  8.00000000E-01  8.00000000E-01  1.50000000E+00  8.00000000E-01
  8.00000000E-01  1.50000000E+00  8.00000000E-01  8.00000000E-01  1.50000000E+00
  8.00000000E-01  8.00000000E-01  1.50000000E+00  8.00000000E-01  8.00000000E-01
  1.50000000E+00  8.00000000E-01  8.00000000E-01  1.50000000E+00  8.00000000E-01
  8.00000000E-01  1.50000000E+00  8.00000000E-01  8.00000000E-01  1.50000000E+00
  8.00000000E-01  8.00000000E-01  1.50000000E+00  8.00000000E-01  8.00000000E-01
  1.50000000E+00  8.00000000E-01  8.00000000E-01  1.50000000E+00  8.00000000E-01
  8.00000000E-01  1.50000000E+00  8.00000000E-01  8.00000000E-01  1.50000000E+00
  8.00000000E-01  8.00000000E-01  1.50000000E+00  8.00000000E-01  8.00000000E-01
  1.50000000E+00  8.00000000E-01  8.00000000E-01  1.50000000E+00  8.00000000E-01
  8.00000000E-01  1.50000000E+00  8.00000000E-01  8.00000000E-01  1.50000000E+00
  8.00000000E-01  8.00000000E-01  1.50000000E+00  8.00000000E-01  8.00000000E-01
  1.50000000E+00  8.00000000E-01  8.00000000E-01  1.50000000E+00  8.00000000E-01
  8.00000000E-01  1.50000000E+00  8.00000000E-01  8.00000000E-01  1.50000000E+00
  8.00000000E-01  8.00000000E-01  1.50000000E+00  8.00000000E-01  8.00000000E-01
  1.50000000E+00  8.00000000E-01  8.00000000E-01  1.50000000E+00  8.00000000E-01
  8.00000000E-01  1.50000000E+00  8.00000000E-01  8.00000000E-01  1.50000000E+00
  8.00000000E-01  8.00000000E-01  1.50000000E+00  8.00000000E-01  8.00000000E-01
  1.50000000E+00  8.00000000E-01  8.00000000E-01  1.50000000E+00  8.00000000E-01
  8.00000000E-01  1.50000000E+00  8.00000000E-01  8.00000000E-01  1.50000000E+00
  8.00000000E-01  8.00000000E-01  1.50000000E+00  8.00000000E-01  8.00000000E-01
  1.50000000E+00  8.00000000E-01  8.00000000E-01  1.50000000E+00  8.00000000E-01
  8.00000000E-01  1.50000000E+00  8.00000000E-01  8.00000000E-01  1.50000000E+00
  8.00000000E-01  8.00000000E-01  1.50000000E+00  8.00000000E-01  8.00000000E-01
  1.50000000E+00  8.00000000E-01  8.00000000E-01  1.50000000E+00  8.00000000E-01
  8.00000000E-01  1.50000000E+00  8.00000000E-01  8.00000000E-01  1.50000000E+00
  8.00000000E-01  8.00000000E-01  1.50000000E+00  8.00000000E-01  8.00000000E-01
  1.50000000E+00  8.00000000E-01  8.00000000E-01  1.50000000E+00  8.00000000E-01
  8.00000000E-01  1.50000000E+00  8.00000000E-01  8.00000000E-01  1.50000000E+00
  8.00000000E-01  8.00000000E-01  1.50000000E+00  8.00000000E-01  8.00000000E-01
  1.50000000E+00  8.00000000E-01  8.00000000E-01  1.50000000E+00  8.00000000E-01
  8.00000000E-01  1.50000000E+00  8.00000000E-01  8.00000000E-01  1.50000000E+00
  8.00000000E-01  8.00000000E-01  1.50000000E+00  8.00000000E-01  8.00000000E-01
  1.50000000E+00  8.00000000E-01  8.00000000E-01  1.50000000E+00  8.00000000E-01
  8.00000000E-01  1.50000000E+00  8.00000000E-01  8.00000000E-01  1.50000000E+00
  8.00000000E-01  8.00000000E-01  1.50000000E+00  8.00000000E-01  8.00000000E-01
  1.50000000E+00  8.00000000E-01  8.00000000E-01  1.50000000E+00  8.00000000E-01
  8.00000000E-01  1.50000000E+00  8.00000000E-01  8.00000000E-01  1.50000000E+00
  8.00000000E-01  8.00000000E-01  1.50000000E+00  8.00000000E-01  8.00000000E-01
  1.50000000E+00  8.00000000E-01  8.00000000E-01  1.50000000E+00  8.00000000E-01
  8.00000000E-01  1.50000000E+00  8.00000000E-01  8.00000000E-01  1.50000000E+00
  8.00000000E-01  8.00000000E-01  1.50000000E+00  8.00000000E-01  8.00000000E-01
  1.50000000E+00  8.00000000E-01  8.00000000E-01  1.50000000E+00  8.00000000E-01
  8.00000000E-01  1.50000000E+00  8.00000000E-01  8.00000000E-01  1.50000000E+00
  8.00000000E-01  8.00000000E-01  1.50000000E+00  8.00000000E-01  8.00000000E-01
  1.50000000E+00  8.00000000E-01  8.00000000E-01  1.50000000E+00  8.00000000E-01
  8.00000000E-01  1.50000000E+00  8.00000000E-01  8.00000000E-01  1.50000000E+00
  8.00000000E-01  8.00000000E-01  1.50000000E+00  8.00000000E-01  8.00000000E-01
  1.50000000E+00  8.00000000E-01  8.00000000E-01  1.50000000E+00  8.00000000E-01
  8.00000000E-01  1.50000000E+00  8.00000000E-01  8.00000000E-01  1.50000000E+00
  8.00000000E-01  8.00000000E-01  1.50000000E+00  8.00000000E-01  8.00000000E-01
  1.50000000E+00  8.00000000E-01  8.00000000E-01  1.50000000E+00  8.00000000E-01
  8.00000000E-01  1.50000000E+00  8.00000000E-01  8.00000000E-01  1.50000000E+00
  8.00000000E-01  8.00000000E-01  1.50000000E+00  8.00000000E-01  8.00000000E-01
  1.50000000E+00  8.00000000E-01  8.00000000E-01  1.50000000E+00  8.00000000E-01
  8.00000000E-01  1.50000000E+00  8.00000000E-01  8.00000000E-01  1.50000000E+00
  8.00000000E-01  8.00000000E-01  1.50000000E+00  8.00000000E-01  8.00000000E-01
  1.50000000E+00  8.00000000E-01  8.00000000E-01  1.50000000E+00  8.00000000E-01
  8.00000000E-01  1.50000000E+00  8.00000000E-01  8.00000000E-01  1.50000000E+00
  8.00000000E-01  8.00000000E-01  1.50000000E+00  8.00000000E-01  8.00000000E-01
  1.50000000E+00  8.00000000E-01  8.00000000E-01  1.50000000E+00  8.00000000E-01
  8.00000000E-01  1.50000000E+00  8.00000000E-01  8.00000000E-01  1.50000000E+00
  8.00000000E-01  8.00000000E-01  1.50000000E+00  8.00000000E-01  8.00000000E-01
  1.50000000E+00  8.00000000E-01  8.00000000E-01  1.50000000E+00  8.00000000E-01
  8.00000000E-01  1.50000000E+00  8.00000000E-01  8.00000000E-01  1.50000000E+00
  8.00000000E-01  8.00000000E-01  1.50000000E+00  8.00000000E-01  8.00000000E-01
  1.50000000E+00  8.00000000E-01  8.00000000E-01  1.50000000E+00  8.00000000E-01
  8.00000000E-01  1.50000000E+00  8.00000000E-01  8.00000000E-01  1.50000000E+00
  8.00000000E-01  8.00000000E-01  1.50000000E+00  8.00000000E-01  8.00000000E-01
  1.50000000E+00  8.00000000E-01  8.00000000E-01  1.50000000E+00  8.00000000E-01
  8.00000000E-01  1.50000000E+00  8.00000000E-01  8.00000000E-01  1.50000000E+00
  8.00000000E-01  8.00000000E-01  1.50000000E+00  8.00000000E-01  8.00000000E-01
  1.50000000E+00  8.00000000E-01  8.00000000E-01  1.50000000E+00  8.00000000E-01
  8.00000000E-01  1.50000000E+00  8.00000000E-01  8.00000000E-01  1.50000000E+00
  8.00000000E-01  8.00000000E-01  1.50000000E+00  8.00000000E-01  8.00000000E-01
  1.50000000E+00  8.00000000E-01  8.00000000E-01  1.50000000E+00  8.00000000E-01
  8.00000000E-01  1.50000000E+00  8.00000000E-01  8.00000000E-01  1.50000000E+00
  8.00000000E-01  8.00000000E-01  1.50000000E+00  8.00000000E-01  8.00000000E-01
  1.50000000E+00  8.00000000E-01  8.00000000E-01  1.50000000E+00  8.00000000E-01
  8.00000000E-01  1.50000000E+00  8.00000000E-01  8.00000000E-01  1.50000000E+00
  8.00000000E-01  8.00000000E-01  1.50000000E+00  8.00000000E-01  8.00000000E-01
  1.50000000E+00  8.00000000E-01  8.00000000E-01  1.50000000E+00  8.00000000E-01
  8.00000000E-01  1.50000000E+00  8.00000000E-01  8.00000000E-01  1.50000000E+00
  8.00000000E-01  8.00000000E-01  1.50000000E+00  8.00000000E-01  8.00000000E-01
  1.50000000E+00  8.00000000E-01  8.00000000E-01  1.50000000E+00  8.00000000E-01
  8.00000000E-01  1.50000000E+00  8.00000000E-01  8.00000000E-01  1.50000000E+00
  8.00000000E-01  8.00000000E-01  1.50000000E+00  8.00000000E-01  8.00000000E-01
  1.50000000E+00  8.00000000E-01  8.00000000E-01  1.50000000E+00  8.00000000E-01
  8.00000000E-01  1.50000000E+00  8.00000000E-01  8.00000000E-01  1.50000000E+00
  8.00000000E-01  8.00000000E-01  1.50000000E+00  8.00000000E-01  8.00000000E-01
  1.50000000E+00  8.00000000E-01  8.00000000E-01  1.50000000E+00  8.00000000E-01
  8.00000000E-01  1.50000000E+00  8.00000000E-01  8.00000000E-01  1.50000000E+00
  8.00000000E-01  8.00000000E-01  1.50000000E+00  8.00000000E-01  8.00000000E-01
  1.50000000E+00  8.00000000E-01  8.00000000E-01  1.50000000E+00  8.00000000E-01
  8.00000000E-01  1.50000000E+00  8.00000000E-01  8.00000000E-01  1.50000000E+00
  8.00000000E-01  8.00000000E-01  1.50000000E+00  8.00000000E-01  8.00000000E-01
  1.50000000E+00  8.00000000E-01  8.00000000E-01  1.50000000E+00  8.00000000E-01
  8.00000000E-01  1.50000000E+00  8.00000000E-01  8.00000000E-01  1.50000000E+00
  8.00000000E-01  8.00000000E-01  1.50000000E+00  8.00000000E-01  8.00000000E-01
  1.50000000E+00  8.00000000E-01  8.00000000E-01  1.50000000E+00  8.00000000E-01
  8.00000000E-01  1.50000000E+00  8.00000000E-01  8.00000000E-01  1.50000000E+00
  8.00000000E-01  8.00000000E-01  1.50000000E+00  8.00000000E-01  8.00000000E-01
  1.50000000E+00  8.00000000E-01  8.00000000E-01  1.50000000E+00  8.00000000E-01
  8.00000000E-01  1.50000000E+00  8.00000000E-01  8.00000000E-01  1.50000000E+00
  8.00000000E-01  8.00000000E-01  1.50000000E+00  8.00000000E-01  8.00000000E-01
  1.50000000E+00  8.00000000E-01  8.00000000E-01  1.50000000E+00  8.00000000E-01
  8.00000000E-01  1.50000000E+00  8.00000000E-01  8.00000000E-01  1.50000000E+00
  8.00000000E-01  8.00000000E-01  1.50000000E+00  8.00000000E-01  8.00000000E-01
  1.50000000E+00  8.00000000E-01  8.00000000E-01  1.50000000E+00  8.00000000E-01
  8.00000000E-01  1.50000000E+00  8.00000000E-01  8.00000000E-01  1.50000000E+00
  8.00000000E-01  8.00000000E-01  1.50000000E+00  8.00000000E-01  8.00000000E-01
  1.50000000E+00  8.00000000E-01  8.00000000E-01  1.50000000E+00  8.00000000E-01
  8.00000000E-01  1.50000000E+00  8.00000000E-01  8.00000000E-01  1.50000000E+00
  8.00000000E-01  8.00000000E-01  1.50000000E+00  8.00000000E-01  8.00000000E-01
  1.50000000E+00  8.00000000E-01  8.00000000E-01  1.50000000E+00  8.00000000E-01
  8.00000000E-01  1.50000000E+00  8.00000000E-01  8.00000000E-01  1.50000000E+00
  8.00000000E-01  8.00000000E-01  1.50000000E+00  8.00000000E-01  8.00000000E-01
  1.50000000E+00  8.00000000E-01  8.00000000E-01  1.50000000E+00  8.00000000E-01
  8.00000000E-01  1.50000000E+00  8.00000000E-01  8.00000000E-01  1.50000000E+00
  8.00000000E-01  8.00000000E-01  1.50000000E+00  8.00000000E-01  8.00000000E-01
  1.50000000E+00  8.00000000E-01  8.00000000E-01  1.50000000E+00  8.00000000E-01
  8.00000000E-01  1.50000000E+00  8.00000000E-01  8.00000000E-01  1.50000000E+00
  8.00000000E-01  8.00000000E-01  1.50000000E+00  8.00000000E-01  8.00000000E-01
  1.50000000E+00  8.00000000E-01  8.00000000E-01  1.50000000E+00  8.00000000E-01
  8.00000000E-01  1.50000000E+00  8.00000000E-01  8.00000000E-01  1.50000000E+00
  8.00000000E-01  8.00000000E-01  1.50000000E+00  8.00000000E-01  8.00000000E-01
  1.50000000E+00  8.00000000E-01  8.00000000E-01  1.50000000E+00  8.00000000E-01
  8.00000000E-01  1.50000000E+00  8.00000000E-01  8.00000000E-01  1.50000000E+00
  8.00000000E-01  8.00000000E-01  1.50000000E+00  8.00000000E-01  8.00000000E-01
  1.50000000E+00  8.00000000E-01  8.00000000E-01  1.50000000E+00  8.00000000E-01
  8.00000000E-01  1.50000000E+00  8.00000000E-01  8.00000000E-01  1.50000000E+00
  8.00000000E-01  8.00000000E-01  1.50000000E+00  8.00000000E-01  8.00000000E-01
  1.50000000E+00  8.00000000E-01  8.00000000E-01  1.50000000E+00  8.00000000E-01
  8.00000000E-01  1.50000000E+00  8.00000000E-01  8.00000000E-01  1.50000000E+00
  8.00000000E-01  8.00000000E-01  1.50000000E+00  8.00000000E-01  8.00000000E-01
  1.50000000E+00  8.00000000E-01  8.00000000E-01  1.50000000E+00  8.00000000E-01
  8.00000000E-01  1.50000000E+00  8.00000000E-01  8.00000000E-01  1.50000000E+00
  8.00000000E-01  8.00000000E-01  1.50000000E+00  8.00000000E-01  8.00000000E-01
  1.50000000E+00  8.00000000E-01  8.00000000E-01  1.50000000E+00  8.00000000E-01
  8.00000000E-01  1.50000000E+00  8.00000000E-01  8.00000000E-01  1.50000000E+00
  8.00000000E-01  8.00000000E-01  1.50000000E+00  8.00000000E-01  8.00000000E-01
  1.50000000E+00  8.00000000E-01  8.00000000E-01  1.50000000E+00  8.00000000E-01
  8.00000000E-01  1.50000000E+00  8.00000000E-01  8.00000000E-01  1.50000000E+00
  8.00000000E-01  8.00000000E-01  1.50000000E+00  8.00000000E-01  8.00000000E-01
  1.50000000E+00  8.00000000E-01  8.00000000E-01  1.50000000E+00  8.00000000E-01
  8.00000000E-01  1.50000000E+00  8.00000000E-01  8.00000000E-01  1.50000000E+00
  8.00000000E-01  8.00000000E-01  1.50000000E+00  8.00000000E-01  8.00000000E-01
  1.50000000E+00  8.00000000E-01  8.00000000E-01  1.50000000E+00  8.00000000E-01
  8.00000000E-01  1.50000000E+00  8.00000000E-01  8.00000000E-01  1.50000000E+00
  8.00000000E-01  8.00000000E-01  1.50000000E+00  8.00000000E-01  8.00000000E-01
  1.50000000E+00  8.00000000E-01  8.00000000E-01  1.50000000E+00  8.00000000E-01
  8.00000000E-01  1.50000000E+00  8.00000000E-01  8.00000000E-01  1.50000000E+00
  8.00000000E-01  8.00000000E-01  1.50000000E+00  8.00000000E-01  8.00000000E-01
  1.50000000E+00  8.00000000E-01  8.00000000E-01  1.50000000E+00  8.00000000E-01
  8.00000000E-01  1.50000000E+00  8.00000000E-01  8.00000000E-01  1.50000000E+00
  8.00000000E-01  8.00000000E-01  1.50000000E+00  8.00000000E-01  8.00000000E-01
  1.50000000E+00  8.00000000E-01  8.00000000E-01  1.50000000E+00  8.00000000E-01
  8.00000000E-01  1.50000000E+00  8.00000000E-01  8.00000000E-01  1.50000000E+00
  8.00000000E-01  8.00000000E-01  1.50000000E+00  8.00000000E-01  8.00000000E-01
  1.50000000E+00  8.00000000E-01  8.00000000E-01  1.50000000E+00  8.00000000E-01
  8.00000000E-01  1.50000000E+00  8.00000000E-01  8.00000000E-01  1.50000000E+00
  8.00000000E-01  8.00000000E-01  1.50000000E+00  8.00000000E-01  8.00000000E-01
  1.50000000E+00  8.00000000E-01  8.00000000E-01  1.50000000E+00  8.00000000E-01
  8.00000000E-01  1.50000000E+00  8.00000000E-01  8.00000000E-01  1.50000000E+00
  8.00000000E-01  8.00000000E-01  1.50000000E+00  8.00000000E-01  8.00000000E-01
  1.50000000E+00  8.00000000E-01  8.00000000E-01  1.50000000E+00  8.00000000E-01
  8.00000000E-01  1.50000000E+00  8.00000000E-01  8.00000000E-01  1.50000000E+00
  8.00000000E-01  8.00000000E-01  1.50000000E+00  8.00000000E-01  8.00000000E-01
  1.50000000E+00  8.00000000E-01  8.00000000E-01  1.50000000E+00  8.00000000E-01
  8.00000000E-01  1.50000000E+00  8.00000000E-01  8.00000000E-01  1.50000000E+00
  8.00000000E-01  8.00000000E-01  1.50000000E+00  8.00000000E-01  8.00000000E-01
  1.50000000E+00  8.00000000E-01  8.00000000E-01  1.50000000E+00  8.00000000E-01
  8.00000000E-01  1.50000000E+00  8.00000000E-01  8.00000000E-01  1.50000000E+00
  8.00000000E-01  8.00000000E-01  1.50000000E+00  8.00000000E-01  8.00000000E-01
  1.50000000E+00  8.00000000E-01  8.00000000E-01  1.50000000E+00  8.00000000E-01
  8.00000000E-01  1.50000000E+00  8.00000000E-01  8.00000000E-01  1.50000000E+00
  8.00000000E-01  8.00000000E-01  1.50000000E+00  8.00000000E-01  8.00000000E-01
  1.50000000E+00  8.00000000E-01  8.00000000E-01  1.50000000E+00  8.00000000E-01
  8.00000000E-01  1.50000000E+00  8.00000000E-01  8.00000000E-01  1.50000000E+00
  8.00000000E-01  8.00000000E-01  1.50000000E+00  8.00000000E-01  8.00000000E-01
  1.50000000E+00  8.00000000E-01  8.00000000E-01  1.50000000E+00  8.00000000E-01
  8.00000000E-01  1.50000000E+00  8.00000000E-01  8.00000000E-01  1.50000000E+00
  8.00000000E-01  8.00000000E-01  1.50000000E+00  8.00000000E-01  8.00000000E-01
  1.50000000E+00  8.00000000E-01  8.00000000E-01  1.50000000E+00  8.00000000E-01
  8.00000000E-01  1.50000000E+00  8.00000000E-01  8.00000000E-01  1.50000000E+00
  8.00000000E-01  8.00000000E-01  1.50000000E+00  8.00000000E-01  8.00000000E-01
  1.50000000E+00  8.00000000E-01  8.00000000E-01  1.50000000E+00  8.00000000E-01
  8.00000000E-01  1.50000000E+00  8.00000000E-01  8.00000000E-01  1.50000000E+00
  8.00000000E-01  8.00000000E-01  1.50000000E+00  8.00000000E-01  8.00000000E-01
  1.50000000E+00  8.00000000E-01  8.00000000E-01  1.50000000E+00  8.00000000E-01
  8.00000000E-01  1.50000000E+00  8.00000000E-01  8.00000000E-01  1.50000000E+00
  8.00000000E-01  8.00000000E-01  1.50000000E+00  8.00000000E-01  8.00000000E-01
  1.50000000E+00  8.00000000E-01  8.00000000E-01  1.50000000E+00  8.00000000E-01
  8.00000000E-01  1.50000000E+00  8.00000000E-01  8.00000000E-01  1.50000000E+00
  8.00000000E-01  8.00000000E-01  1.50000000E+00  8.00000000E-01  8.00000000E-01
  1.50000000E+00  8.00000000E-01  8.00000000E-01  1.50000000E+00  8.00000000E-01
  8.00000000E-01  1.50000000E+00  8.00000000E-01  8.00000000E-01  1.50000000E+00
  8.00000000E-01  8.00000000E-01  1.50000000E+00  8.00000000E-01  8.00000000E-01
  1.50000000E+00  8.00000000E-01  8.00000000E-01  1.50000000E+00  8.00000000E-01
  8.00000000E-01  1.50000000E+00  8.00000000E-01  8.00000000E-01  1.50000000E+00
  8.00000000E-01  8.00000000E-01  1.50000000E+00  8.00000000E-01  8.00000000E-01
  1.50000000E+00  8.00000000E-01  8.00000000E-01  1.50000000E+00  8.00000000E-01
  8.00000000E-01  1.50000000E+00  8.00000000E-01  8.00000000E-01  1.50000000E+00
  8.00000000E-01  8.00000000E-01  1.50000000E+00  8.00000000E-01  8.00000000E-01
  1.50000000E+00  8.00000000E-01  8.00000000E-01  1.50000000E+00  8.00000000E-01
  8.00000000E-01  1.50000000E+00  8.00000000E-01  8.00000000E-01  1.50000000E+00
  8.00000000E-01  8.00000000E-01  1.50000000E+00  8.00000000E-01  8.00000000E-01
  1.50000000E+00  8.00000000E-01  8.00000000E-01  1.50000000E+00  8.00000000E-01
  8.00000000E-01  1.50000000E+00  8.00000000E-01  8.00000000E-01  1.50000000E+00
  8.00000000E-01  8.00000000E-01  1.50000000E+00  8.00000000E-01  8.00000000E-01
  1.50000000E+00  8.00000000E-01  8.00000000E-01  1.50000000E+00  8.00000000E-01
  8.00000000E-01  1.50000000E+00  8.00000000E-01  8.00000000E-01  1.50000000E+00
  8.00000000E-01  8.00000000E-01  1.50000000E+00  8.00000000E-01  8.00000000E-01
  1.50000000E+00  8.00000000E-01  8.00000000E-01  1.50000000E+00  8.00000000E-01
  8.00000000E-01  1.50000000E+00  8.00000000E-01  8.00000000E-01  1.50000000E+00
  8.00000000E-01  8.00000000E-01  1.50000000E+00  8.00000000E-01  8.00000000E-01
  1.50000000E+00  8.00000000E-01  8.00000000E-01  1.50000000E+00  8.00000000E-01
  8.00000000E-01  1.50000000E+00  8.00000000E-01  8.00000000E-01  1.50000000E+00
  8.00000000E-01  8.00000000E-01  1.50000000E+00  8.00000000E-01  8.00000000E-01
  1.50000000E+00  8.00000000E-01  8.00000000E-01  1.50000000E+00  8.00000000E-01
  8.00000000E-01  1.50000000E+00  8.00000000E-01  8.00000000E-01  1.50000000E+00
  8.00000000E-01  8.00000000E-01  1.50000000E+00  8.00000000E-01  8.00000000E-01
  1.50000000E+00  8.00000000E-01  8.00000000E-01  1.50000000E+00  8.00000000E-01
  8.00000000E-01  1.50000000E+00  8.00000000E-01  8.00000000E-01  1.50000000E+00
  8.00000000E-01  8.00000000E-01  1.50000000E+00  8.00000000E-01  8.00000000E-01
  1.50000000E+00  8.00000000E-01  8.00000000E-01  1.50000000E+00  8.00000000E-01
  8.00000000E-01  1.50000000E+00  8.00000000E-01  8.00000000E-01  1.50000000E+00
  8.00000000E-01  8.00000000E-01  1.50000000E+00  8.00000000E-01  8.00000000E-01
  1.50000000E+00  8.00000000E-01  8.00000000E-01  1.50000000E+00  8.00000000E-01
  8.00000000E-01  1.50000000E+00  8.00000000E-01  8.00000000E-01  1.50000000E+00
  8.00000000E-01  8.00000000E-01  1.50000000E+00  8.00000000E-01  8.00000000E-01
  1.50000000E+00  8.00000000E-01  8.00000000E-01  1.50000000E+00  8.00000000E-01
  8.00000000E-01  1.50000000E+00  8.00000000E-01  8.00000000E-01  1.50000000E+00
  8.00000000E-01  8.00000000E-01  1.50000000E+00  8.00000000E-01  8.00000000E-01
  1.50000000E+00  8.00000000E-01  8.00000000E-01  1.50000000E+00  8.00000000E-01
  8.00000000E-01  1.50000000E+00  8.00000000E-01  8.00000000E-01  1.50000000E+00
  8.00000000E-01  8.00000000E-01  1.50000000E+00  8.00000000E-01  8.00000000E-01
  1.50000000E+00  8.00000000E-01  8.00000000E-01  1.50000000E+00  8.00000000E-01
  8.00000000E-01  1.50000000E+00  8.00000000E-01  8.00000000E-01  1.50000000E+00
  8.00000000E-01  8.00000000E-01  1.50000000E+00  8.00000000E-01  8.00000000E-01
  1.50000000E+00  8.00000000E-01  8.00000000E-01  1.50000000E+00  8.00000000E-01
  8.00000000E-01  1.50000000E+00  8.00000000E-01  8.00000000E-01  1.50000000E+00
  8.00000000E-01  8.00000000E-01  1.50000000E+00  8.00000000E-01  8.00000000E-01
  1.50000000E+00  8.00000000E-01  8.00000000E-01  1.50000000E+00  8.00000000E-01
  8.00000000E-01  1.50000000E+00  8.00000000E-01  8.00000000E-01  1.50000000E+00
  8.00000000E-01  8.00000000E-01  1.50000000E+00  8.00000000E-01  8.00000000E-01
  1.50000000E+00  8.00000000E-01  8.00000000E-01  1.50000000E+00  8.00000000E-01
  8.00000000E-01  1.50000000E+00  8.00000000E-01  8.00000000E-01  1.50000000E+00
  8.00000000E-01  8.00000000E-01  1.50000000E+00  8.00000000E-01  8.00000000E-01
  1.50000000E+00  8.00000000E-01  8.00000000E-01  1.50000000E+00  8.00000000E-01
  8.00000000E-01  1.50000000E+00  8.00000000E-01  8.00000000E-01  1.50000000E+00
  8.00000000E-01  8.00000000E-01  1.50000000E+00  8.00000000E-01  8.00000000E-01
  1.50000000E+00  8.00000000E-01  8.00000000E-01  1.50000000E+00  8.00000000E-01
  8.00000000E-01  1.50000000E+00  8.00000000E-01  8.00000000E-01  1.50000000E+00
  8.00000000E-01  8.00000000E-01  1.50000000E+00  8.00000000E-01  8.00000000E-01
  1.50000000E+00  8.00000000E-01  8.00000000E-01  1.50000000E+00  8.00000000E-01
  8.00000000E-01  1.50000000E+00  8.00000000E-01  8.00000000E-01  1.50000000E+00
  8.00000000E-01  8.00000000E-01  1.50000000E+00  8.00000000E-01  8.00000000E-01
  1.50000000E+00  8.00000000E-01  8.00000000E-01  1.50000000E+00  8.00000000E-01
  8.00000000E-01  1.50000000E+00  8.00000000E-01  8.00000000E-01  1.50000000E+00
  8.00000000E-01  8.00000000E-01  1.50000000E+00  8.00000000E-01  8.00000000E-01
  1.50000000E+00  8.00000000E-01  8.00000000E-01  1.50000000E+00  8.00000000E-01
  8.00000000E-01  1.50000000E+00  8.00000000E-01  8.00000000E-01  1.50000000E+00
  8.00000000E-01  8.00000000E-01  1.50000000E+00  8.00000000E-01  8.00000000E-01
  1.50000000E+00  8.00000000E-01  8.00000000E-01  1.50000000E+00  8.00000000E-01
  8.00000000E-01  1.50000000E+00  8.00000000E-01  8.00000000E-01  1.50000000E+00
  8.00000000E-01  8.00000000E-01  1.50000000E+00  8.00000000E-01  8.00000000E-01
  1.50000000E+00  8.00000000E-01  8.00000000E-01  1.50000000E+00  8.00000000E-01
  8.00000000E-01  1.50000000E+00  8.00000000E-01  8.00000000E-01  1.50000000E+00
  8.00000000E-01  8.00000000E-01  1.50000000E+00  8.00000000E-01  8.00000000E-01
  1.50000000E+00  8.00000000E-01  8.00000000E-01  1.50000000E+00  8.00000000E-01
  8.00000000E-01  1.50000000E+00  8.00000000E-01  8.00000000E-01  1.50000000E+00
  8.00000000E-01  8.00000000E-01  1.50000000E+00  8.00000000E-01  8.00000000E-01
  1.50000000E+00  8.00000000E-01  8.00000000E-01  1.50000000E+00  8.00000000E-01
  8.00000000E-01  1.50000000E+00  8.00000000E-01  8.00000000E-01  1.50000000E+00
  8.00000000E-01  8.00000000E-01  1.50000000E+00  8.00000000E-01  8.00000000E-01
  1.50000000E+00  8.00000000E-01  8.00000000E-01  1.50000000E+00  8.00000000E-01
  8.00000000E-01  1.50000000E+00  8.00000000E-01  8.00000000E-01  1.50000000E+00
  8.00000000E-01  8.00000000E-01  1.50000000E+00  8.00000000E-01  8.00000000E-01
  1.50000000E+00  8.00000000E-01  8.00000000E-01  1.50000000E+00  8.00000000E-01
  8.00000000E-01  1.50000000E+00  8.00000000E-01  8.00000000E-01  1.50000000E+00
  8.00000000E-01  8.00000000E-01  1.50000000E+00  8.00000000E-01  8.00000000E-01
  1.50000000E+00  8.00000000E-01  8.00000000E-01  1.50000000E+00  8.00000000E-01
  8.00000000E-01  1.50000000E+00  8.00000000E-01  8.00000000E-01  1.50000000E+00
  8.00000000E-01  8.00000000E-01  1.50000000E+00  8.00000000E-01  8.00000000E-01
  1.50000000E+00  8.00000000E-01  8.00000000E-01  1.50000000E+00  8.00000000E-01
  8.00000000E-01  1.50000000E+00  8.00000000E-01  8.00000000E-01  1.50000000E+00
  8.00000000E-01  8.00000000E-01  1.50000000E+00  8.00000000E-01  8.00000000E-01
  1.50000000E+00  8.00000000E-01  8.00000000E-01  1.50000000E+00  8.00000000E-01
  8.00000000E-01  1.50000000E+00  8.00000000E-01  8.00000000E-01  1.50000000E+00
  8.00000000E-01  8.00000000E-01  1.50000000E+00  8.00000000E-01  8.00000000E-01
  1.50000000E+00  8.00000000E-01  8.00000000E-01  1.50000000E+00  8.00000000E-01
  8.00000000E-01  1.50000000E+00  8.00000000E-01  8.00000000E-01  1.50000000E+00
  8.00000000E-01  8.00000000E-01  1.50000000E+00  8.00000000E-01  8.00000000E-01
  1.50000000E+00  8.00000000E-01  8.00000000E-01  1.50000000E+00  8.00000000E-01
  8.00000000E-01  1.50000000E+00  8.00000000E-01  8.00000000E-01  1.50000000E+00
  8.00000000E-01  8.00000000E-01  1.50000000E+00  8.00000000E-01  8.00000000E-01
  1.50000000E+00  8.00000000E-01  8.00000000E-01  1.50000000E+00  8.00000000E-01
  8.00000000E-01  1.50000000E+00  8.00000000E-01  8.00000000E-01  1.50000000E+00
  8.00000000E-01  8.00000000E-01  1.50000000E+00  8.00000000E-01  8.00000000E-01
  1.50000000E+00  8.00000000E-01  8.00000000E-01  1.50000000E+00  8.00000000E-01
  8.00000000E-01  1.50000000E+00  8.00000000E-01  8.00000000E-01  1.50000000E+00
  8.00000000E-01  8.00000000E-01  1.50000000E+00  8.00000000E-01  8.00000000E-01
  1.50000000E+00  8.00000000E-01  8.00000000E-01  1.50000000E+00  8.00000000E-01
  8.00000000E-01  1.50000000E+00  8.00000000E-01  8.00000000E-01  1.50000000E+00
  8.00000000E-01  8.00000000E-01  1.50000000E+00  8.00000000E-01  8.00000000E-01
  1.50000000E+00  8.00000000E-01  8.00000000E-01  1.50000000E+00  8.00000000E-01
  8.00000000E-01  1.50000000E+00  8.00000000E-01  8.00000000E-01  1.50000000E+00
  8.00000000E-01  8.00000000E-01  1.50000000E+00  8.00000000E-01  8.00000000E-01
  1.50000000E+00  8.00000000E-01  8.00000000E-01  1.50000000E+00  8.00000000E-01
  8.00000000E-01  1.50000000E+00  8.00000000E-01  8.00000000E-01  1.50000000E+00
  8.00000000E-01  8.00000000E-01  1.50000000E+00  8.00000000E-01  8.00000000E-01
  1.50000000E+00  8.00000000E-01  8.00000000E-01  1.50000000E+00  8.00000000E-01
  8.00000000E-01  1.50000000E+00  8.00000000E-01  8.00000000E-01  1.50000000E+00
  8.00000000E-01  8.00000000E-01  1.50000000E+00  8.00000000E-01  8.00000000E-01
  1.50000000E+00  8.00000000E-01  8.00000000E-01  1.50000000E+00  8.00000000E-01
  8.00000000E-01  1.50000000E+00  8.00000000E-01  8.00000000E-01  1.50000000E+00
  8.00000000E-01  8.00000000E-01  1.50000000E+00  8.00000000E-01  8.00000000E-01
  1.50000000E+00  8.00000000E-01  8.00000000E-01  1.50000000E+00  8.00000000E-01
  8.00000000E-01  1.50000000E+00  8.00000000E-01  8.00000000E-01  1.50000000E+00
  8.00000000E-01  8.00000000E-01  1.50000000E+00  8.00000000E-01  8.00000000E-01
  1.50000000E+00  8.00000000E-01  8.00000000E-01  1.50000000E+00  8.00000000E-01
  8.00000000E-01  1.50000000E+00  8.00000000E-01  8.00000000E-01  1.50000000E+00
  8.00000000E-01  8.00000000E-01  1.50000000E+00  8.00000000E-01  8.00000000E-01
  1.50000000E+00  8.00000000E-01  8.00000000E-01  1.50000000E+00  8.00000000E-01
  8.00000000E-01  1.50000000E+00  8.00000000E-01  8.00000000E-01  1.50000000E+00
  8.00000000E-01  8.00000000E-01  1.50000000E+00  8.00000000E-01  8.00000000E-01
  1.50000000E+00  8.00000000E-01  8.00000000E-01  1.50000000E+00  8.00000000E-01
  8.00000000E-01  1.50000000E+00  8.00000000E-01  8.00000000E-01  1.50000000E+00
  8.00000000E-01  8.00000000E-01  1.50000000E+00  8.00000000E-01  8.00000000E-01
  1.50000000E+00  8.00000000E-01  8.00000000E-01  1.50000000E+00  8.00000000E-01
  8.00000000E-01  1.50000000E+00  8.00000000E-01  8.00000000E-01  1.50000000E+00
  8.00000000E-01  8.00000000E-01  1.50000000E+00  8.00000000E-01  8.00000000E-01
  1.50000000E+00  8.00000000E-01  8.00000000E-01  1.50000000E+00  8.00000000E-01
  8.00000000E-01  1.50000000E+00  8.00000000E-01  8.00000000E-01  1.50000000E+00
  8.00000000E-01  8.00000000E-01  1.50000000E+00  8.00000000E-01  8.00000000E-01
  1.50000000E+00  8.00000000E-01  8.00000000E-01  1.50000000E+00  8.00000000E-01
  8.00000000E-01  1.50000000E+00  8.00000000E-01  8.00000000E-01  1.50000000E+00
  8.00000000E-01  8.00000000E-01  1.50000000E+00  8.00000000E-01  8.00000000E-01
  1.50000000E+00  8.00000000E-01  8.00000000E-01  1.50000000E+00  8.00000000E-01
  8.00000000E-01  1.50000000E+00  8.00000000E-01  8.00000000E-01  1.50000000E+00
  8.00000000E-01  8.00000000E-01  1.50000000E+00  8.00000000E-01  8.00000000E-01
  1.50000000E+00  8.00000000E-01  8.00000000E-01  1.50000000E+00  8.00000000E-01
  8.00000000E-01  1.50000000E+00  8.00000000E-01  8.00000000E-01  1.50000000E+00
  8.00000000E-01  8.00000000E-01  1.50000000E+00  8.00000000E-01  8.00000000E-01
  1.50000000E+00  8.00000000E-01  8.00000000E-01  1.50000000E+00  8.00000000E-01
  8.00000000E-01  1.50000000E+00  8.00000000E-01  8.00000000E-01  1.50000000E+00
  8.00000000E-01  8.00000000E-01  1.50000000E+00  8.00000000E-01  8.00000000E-01
  1.50000000E+00  8.00000000E-01  8.00000000E-01  1.50000000E+00  8.00000000E-01
  8.00000000E-01  1.50000000E+00  8.00000000E-01  8.00000000E-01  1.50000000E+00
  8.00000000E-01  8.00000000E-01  1.50000000E+00  8.00000000E-01  8.00000000E-01
  1.50000000E+00  8.00000000E-01  8.00000000E-01  1.50000000E+00  8.00000000E-01
  8.00000000E-01  1.50000000E+00  8.00000000E-01  8.00000000E-01  1.50000000E+00
  8.00000000E-01  8.00000000E-01  1.50000000E+00  8.00000000E-01  8.00000000E-01
  1.50000000E+00  8.00000000E-01  8.00000000E-01  1.50000000E+00  8.00000000E-01
  8.00000000E-01  1.50000000E+00  8.00000000E-01  8.00000000E-01  1.50000000E+00
  8.00000000E-01  8.00000000E-01  1.50000000E+00  8.00000000E-01  8.00000000E-01
  1.50000000E+00  8.00000000E-01  8.00000000E-01  1.50000000E+00  8.00000000E-01
  8.00000000E-01  1.50000000E+00  8.00000000E-01  8.00000000E-01  1.50000000E+00
  8.00000000E-01  8.00000000E-01  1.50000000E+00  8.00000000E-01  8.00000000E-01
  1.50000000E+00  8.00000000E-01  8.00000000E-01  1.50000000E+00  8.00000000E-01
  8.00000000E-01  1.50000000E+00  8.00000000E-01  8.00000000E-01  1.50000000E+00
  8.00000000E-01  8.00000000E-01  1.50000000E+00  8.00000000E-01  8.00000000E-01
  1.50000000E+00  8.00000000E-01  8.00000000E-01  1.50000000E+00  8.00000000E-01
  8.00000000E-01  1.50000000E+00  8.00000000E-01  8.00000000E-01  1.50000000E+00
  8.00000000E-01  8.00000000E-01  1.50000000E+00  8.00000000E-01  8.00000000E-01
  1.50000000E+00  8.00000000E-01  8.00000000E-01  1.50000000E+00  8.00000000E-01
  8.00000000E-01  1.50000000E+00  8.00000000E-01  8.00000000E-01  1.50000000E+00
  8.00000000E-01  8.00000000E-01  1.50000000E+00  8.00000000E-01  8.00000000E-01
  1.50000000E+00  8.00000000E-01  8.00000000E-01  1.50000000E+00  8.00000000E-01
  8.00000000E-01  1.50000000E+00  8.00000000E-01  8.00000000E-01  1.50000000E+00
  8.00000000E-01  8.00000000E-01  1.50000000E+00  8.00000000E-01  8.00000000E-01
  1.50000000E+00  8.00000000E-01  8.00000000E-01  1.50000000E+00  8.00000000E-01
  8.00000000E-01  1.50000000E+00  8.00000000E-01  8.00000000E-01  1.50000000E+00
  8.00000000E-01  8.00000000E-01  1.50000000E+00  8.00000000E-01  8.00000000E-01
  1.50000000E+00  8.00000000E-01  8.00000000E-01  1.50000000E+00  8.00000000E-01
  8.00000000E-01  1.50000000E+00  8.00000000E-01  8.00000000E-01  1.50000000E+00
  8.00000000E-01  8.00000000E-01  1.50000000E+00  8.00000000E-01  8.00000000E-01
  1.50000000E+00  8.00000000E-01  8.00000000E-01  1.50000000E+00  8.00000000E-01
  8.00000000E-01  1.50000000E+00  8.00000000E-01  8.00000000E-01  1.50000000E+00
  8.00000000E-01  8.00000000E-01  1.50000000E+00  8.00000000E-01  8.00000000E-01
  1.50000000E+00  8.00000000E-01  8.00000000E-01  1.50000000E+00  8.00000000E-01
  8.00000000E-01  1.50000000E+00  8.00000000E-01  8.00000000E-01  1.50000000E+00
  8.00000000E-01  8.00000000E-01  1.50000000E+00  8.00000000E-01  8.00000000E-01
  1.50000000E+00  8.00000000E-01  8.00000000E-01  1.50000000E+00  8.00000000E-01
  8.00000000E-01  1.50000000E+00  8.00000000E-01  8.00000000E-01  1.50000000E+00
  8.00000000E-01  8.00000000E-01  1.50000000E+00  8.00000000E-01  8.00000000E-01
  1.50000000E+00  8.00000000E-01  8.00000000E-01  1.50000000E+00  8.00000000E-01
  8.00000000E-01  1.50000000E+00  8.00000000E-01  8.00000000E-01  1.50000000E+00
  8.00000000E-01  8.00000000E-01  1.50000000E+00  8.00000000E-01  8.00000000E-01
  1.50000000E+00  8.00000000E-01  8.00000000E-01  1.50000000E+00  8.00000000E-01
  8.00000000E-01  1.50000000E+00  8.00000000E-01  8.00000000E-01  1.50000000E+00
  8.00000000E-01  8.00000000E-01  1.50000000E+00  8.00000000E-01  8.00000000E-01
  1.50000000E+00  8.00000000E-01  8.00000000E-01  1.50000000E+00  8.00000000E-01
  8.00000000E-01  1.50000000E+00  8.00000000E-01  8.00000000E-01  1.50000000E+00
  8.00000000E-01  8.00000000E-01  1.50000000E+00  8.00000000E-01  8.00000000E-01
  1.50000000E+00  8.00000000E-01  8.00000000E-01  1.50000000E+00  8.00000000E-01
  8.00000000E-01  1.50000000E+00  8.00000000E-01  8.00000000E-01  1.50000000E+00
  8.00000000E-01  8.00000000E-01  1.50000000E+00  8.00000000E-01  8.00000000E-01
  1.50000000E+00  8.00000000E-01  8.00000000E-01  1.50000000E+00  8.00000000E-01
  8.00000000E-01  1.50000000E+00  8.00000000E-01  8.00000000E-01  1.50000000E+00
  8.00000000E-01  8.00000000E-01  1.50000000E+00  8.00000000E-01  8.00000000E-01
  1.50000000E+00  8.00000000E-01  8.00000000E-01  1.50000000E+00  8.00000000E-01
  8.00000000E-01  1.50000000E+00  8.00000000E-01  8.00000000E-01  1.50000000E+00
  8.00000000E-01  8.00000000E-01  1.50000000E+00  8.00000000E-01  8.00000000E-01
  1.50000000E+00  8.00000000E-01  8.00000000E-01  1.50000000E+00  8.00000000E-01
  8.00000000E-01  1.50000000E+00  8.00000000E-01  8.00000000E-01  1.50000000E+00
  8.00000000E-01  8.00000000E-01  1.50000000E+00  8.00000000E-01  8.00000000E-01
  1.50000000E+00  8.00000000E-01  8.00000000E-01  1.50000000E+00  8.00000000E-01
  8.00000000E-01  1.50000000E+00  8.00000000E-01  8.00000000E-01  1.50000000E+00
  8.00000000E-01  8.00000000E-01  1.50000000E+00  8.00000000E-01  8.00000000E-01
  1.50000000E+00  8.00000000E-01  8.00000000E-01  1.50000000E+00  8.00000000E-01
  8.00000000E-01  1.50000000E+00  8.00000000E-01  8.00000000E-01  1.50000000E+00
  8.00000000E-01  8.00000000E-01  1.50000000E+00  8.00000000E-01  8.00000000E-01
  1.50000000E+00  8.00000000E-01  8.00000000E-01  1.50000000E+00  8.00000000E-01
  8.00000000E-01  1.50000000E+00  8.00000000E-01  8.00000000E-01  1.50000000E+00
  8.00000000E-01  8.00000000E-01  1.50000000E+00  8.00000000E-01  8.00000000E-01
  1.50000000E+00  8.00000000E-01  8.00000000E-01  1.50000000E+00  8.00000000E-01
  8.00000000E-01  1.50000000E+00  8.00000000E-01  8.00000000E-01  1.50000000E+00
  8.00000000E-01  8.00000000E-01  1.50000000E+00  8.00000000E-01  8.00000000E-01
  1.50000000E+00  8.00000000E-01  8.00000000E-01  1.50000000E+00  8.00000000E-01
  8.00000000E-01  1.50000000E+00  8.00000000E-01  8.00000000E-01  1.50000000E+00
  8.00000000E-01  8.00000000E-01  1.50000000E+00  8.00000000E-01  8.00000000E-01
  1.50000000E+00  8.00000000E-01  8.00000000E-01  1.50000000E+00  8.00000000E-01
  8.00000000E-01  1.50000000E+00  8.00000000E-01  8.00000000E-01  1.50000000E+00
  8.00000000E-01  8.00000000E-01  1.50000000E+00  8.00000000E-01  8.00000000E-01
  1.50000000E+00  8.00000000E-01  8.00000000E-01  1.50000000E+00  8.00000000E-01
  8.00000000E-01  1.50000000E+00  8.00000000E-01  8.00000000E-01  1.50000000E+00
  8.00000000E-01  8.00000000E-01  1.50000000E+00  8.00000000E-01  8.00000000E-01
  1.50000000E+00  8.00000000E-01  8.00000000E-01  1.50000000E+00  8.00000000E-01
  8.00000000E-01  1.50000000E+00  8.00000000E-01  8.00000000E-01  1.50000000E+00
  8.00000000E-01  8.00000000E-01  1.50000000E+00  8.00000000E-01  8.00000000E-01
  1.50000000E+00  8.00000000E-01  8.00000000E-01  1.50000000E+00  8.00000000E-01
  8.00000000E-01  1.50000000E+00  8.00000000E-01  8.00000000E-01  1.50000000E+00
  8.00000000E-01  8.00000000E-01  1.50000000E+00  8.00000000E-01  8.00000000E-01
  1.50000000E+00  8.00000000E-01  8.00000000E-01  1.50000000E+00  8.00000000E-01
  8.00000000E-01  1.50000000E+00  8.00000000E-01  8.00000000E-01  1.50000000E+00
  8.00000000E-01  8.00000000E-01  1.50000000E+00  8.00000000E-01  8.00000000E-01
  1.50000000E+00  8.00000000E-01  8.00000000E-01  1.50000000E+00  8.00000000E-01
  8.00000000E-01  1.50000000E+00  8.00000000E-01  8.00000000E-01  1.50000000E+00
  8.00000000E-01  8.00000000E-01  1.50000000E+00  8.00000000E-01  8.00000000E-01
  1.50000000E+00  8.00000000E-01  8.00000000E-01  1.50000000E+00  8.00000000E-01
  8.00000000E-01  1.50000000E+00  8.00000000E-01  8.00000000E-01  1.50000000E+00
  8.00000000E-01  8.00000000E-01  1.50000000E+00  8.00000000E-01  8.00000000E-01
  1.50000000E+00  8.00000000E-01  8.00000000E-01  1.50000000E+00  8.00000000E-01
  8.00000000E-01  1.50000000E+00  8.00000000E-01  8.00000000E-01  1.50000000E+00
  8.00000000E-01  8.00000000E-01  1.50000000E+00  8.00000000E-01  8.00000000E-01
  1.50000000E+00  8.00000000E-01  8.00000000E-01  1.50000000E+00  8.00000000E-01
  8.00000000E-01  1.50000000E+00  8.00000000E-01  8.00000000E-01  1.50000000E+00
  8.00000000E-01  8.00000000E-01  1.50000000E+00  8.00000000E-01  8.00000000E-01
  1.50000000E+00  8.00000000E-01  8.00000000E-01  1.50000000E+00  8.00000000E-01
  8.00000000E-01  1.50000000E+00  8.00000000E-01  8.00000000E-01  1.50000000E+00
  8.00000000E-01  8.00000000E-01  1.50000000E+00  8.00000000E-01  8.00000000E-01
  1.50000000E+00  8.00000000E-01  8.00000000E-01  1.50000000E+00  8.00000000E-01
  8.00000000E-01  1.50000000E+00  8.00000000E-01  8.00000000E-01  1.50000000E+00
  8.00000000E-01  8.00000000E-01  1.50000000E+00  8.00000000E-01  8.00000000E-01
  1.50000000E+00  8.00000000E-01  8.00000000E-01  1.50000000E+00  8.00000000E-01
  8.00000000E-01  1.50000000E+00  8.00000000E-01  8.00000000E-01  1.50000000E+00
  8.00000000E-01  8.00000000E-01  1.50000000E+00  8.00000000E-01  8.00000000E-01
  1.50000000E+00  8.00000000E-01  8.00000000E-01  1.50000000E+00  8.00000000E-01
  8.00000000E-01  1.50000000E+00  8.00000000E-01  8.00000000E-01  1.50000000E+00
  8.00000000E-01  8.00000000E-01  1.50000000E+00  8.00000000E-01  8.00000000E-01
  1.50000000E+00  8.00000000E-01  8.00000000E-01  1.50000000E+00  8.00000000E-01
  8.00000000E-01  1.50000000E+00  8.00000000E-01  8.00000000E-01  1.50000000E+00
  8.00000000E-01  8.00000000E-01  1.50000000E+00  8.00000000E-01  8.00000000E-01
  1.50000000E+00  8.00000000E-01  8.00000000E-01  1.50000000E+00  8.00000000E-01
  8.00000000E-01  1.50000000E+00  8.00000000E-01  8.00000000E-01  1.50000000E+00
  8.00000000E-01  8.00000000E-01  1.50000000E+00  8.00000000E-01  8.00000000E-01
  1.50000000E+00  8.00000000E-01  8.00000000E-01  1.50000000E+00  8.00000000E-01
  8.00000000E-01  1.50000000E+00  8.00000000E-01  8.00000000E-01  1.50000000E+00
  8.00000000E-01  8.00000000E-01  1.50000000E+00  8.00000000E-01  8.00000000E-01
  1.50000000E+00  8.00000000E-01  8.00000000E-01  1.50000000E+00  8.00000000E-01
  8.00000000E-01  1.50000000E+00  8.00000000E-01  8.00000000E-01  1.50000000E+00
  8.00000000E-01  8.00000000E-01  1.50000000E+00  8.00000000E-01  8.00000000E-01
  1.50000000E+00  8.00000000E-01  8.00000000E-01  1.50000000E+00  8.00000000E-01
  8.00000000E-01  1.50000000E+00  8.00000000E-01  8.00000000E-01  1.50000000E+00
  8.00000000E-01  8.00000000E-01  1.50000000E+00  8.00000000E-01  8.00000000E-01
  1.50000000E+00  8.00000000E-01  8.00000000E-01  1.50000000E+00  8.00000000E-01
  8.00000000E-01  1.50000000E+00  8.00000000E-01  8.00000000E-01  1.50000000E+00
  8.00000000E-01  8.00000000E-01  1.50000000E+00  8.00000000E-01  8.00000000E-01
  1.50000000E+00  8.00000000E-01  8.00000000E-01  1.50000000E+00  8.00000000E-01
  8.00000000E-01  1.50000000E+00  8.00000000E-01  8.00000000E-01  1.50000000E+00
  8.00000000E-01  8.00000000E-01  1.50000000E+00  8.00000000E-01  8.00000000E-01
  1.50000000E+00  8.00000000E-01  8.00000000E-01  1.50000000E+00  8.00000000E-01
  8.00000000E-01  1.50000000E+00  8.00000000E-01  8.00000000E-01  1.50000000E+00
  8.00000000E-01  8.00000000E-01  1.50000000E+00  8.00000000E-01  8.00000000E-01
  1.50000000E+00  8.00000000E-01  8.00000000E-01  1.50000000E+00  8.00000000E-01
  8.00000000E-01  1.50000000E+00  8.00000000E-01  8.00000000E-01  1.50000000E+00
  8.00000000E-01  8.00000000E-01  1.50000000E+00  8.00000000E-01  8.00000000E-01
  1.50000000E+00  8.00000000E-01  8.00000000E-01  1.50000000E+00  8.00000000E-01
  8.00000000E-01  1.50000000E+00  8.00000000E-01  8.00000000E-01  1.50000000E+00
  8.00000000E-01  8.00000000E-01  1.50000000E+00  8.00000000E-01  8.00000000E-01
  1.50000000E+00  8.00000000E-01  8.00000000E-01  1.50000000E+00  8.00000000E-01
  8.00000000E-01  1.50000000E+00  8.00000000E-01  8.00000000E-01  1.50000000E+00
  8.00000000E-01  8.00000000E-01  1.50000000E+00  8.00000000E-01  8.00000000E-01
  1.50000000E+00  8.00000000E-01  8.00000000E-01  1.50000000E+00  8.00000000E-01
  8.00000000E-01  1.50000000E+00  8.00000000E-01  8.00000000E-01  1.50000000E+00
  8.00000000E-01  8.00000000E-01  1.50000000E+00  8.00000000E-01  8.00000000E-01
  1.50000000E+00  8.00000000E-01  8.00000000E-01  1.50000000E+00  8.00000000E-01
  8.00000000E-01  1.50000000E+00  8.00000000E-01  8.00000000E-01  1.50000000E+00
  8.00000000E-01  8.00000000E-01  1.50000000E+00  8.00000000E-01  8.00000000E-01
  1.50000000E+00  8.00000000E-01  8.00000000E-01  1.50000000E+00  8.00000000E-01
  8.00000000E-01  1.50000000E+00  8.00000000E-01  8.00000000E-01  1.50000000E+00
  8.00000000E-01  8.00000000E-01  1.50000000E+00  8.00000000E-01  8.00000000E-01
  1.50000000E+00  8.00000000E-01  8.00000000E-01  1.50000000E+00  8.00000000E-01
  8.00000000E-01  1.50000000E+00  8.00000000E-01  8.00000000E-01  1.50000000E+00
  8.00000000E-01  8.00000000E-01  1.50000000E+00  8.00000000E-01  8.00000000E-01
  1.50000000E+00  8.00000000E-01  8.00000000E-01  1.50000000E+00  8.00000000E-01
  8.00000000E-01  1.50000000E+00  8.00000000E-01  8.00000000E-01  1.50000000E+00
  8.00000000E-01  8.00000000E-01  1.50000000E+00  8.00000000E-01  8.00000000E-01
  1.50000000E+00  8.00000000E-01  8.00000000E-01  1.50000000E+00  8.00000000E-01
  8.00000000E-01  1.50000000E+00  8.00000000E-01  8.00000000E-01  1.50000000E+00
  8.00000000E-01  8.00000000E-01  1.50000000E+00  8.00000000E-01  8.00000000E-01
  1.50000000E+00  8.00000000E-01  8.00000000E-01  1.50000000E+00  8.00000000E-01
  8.00000000E-01  1.50000000E+00  8.00000000E-01  8.00000000E-01  1.50000000E+00
  8.00000000E-01  8.00000000E-01  1.50000000E+00  8.00000000E-01  8.00000000E-01
  1.50000000E+00  8.00000000E-01  8.00000000E-01  1.50000000E+00  8.00000000E-01
  8.00000000E-01  1.50000000E+00  8.00000000E-01  8.00000000E-01  1.50000000E+00
  8.00000000E-01  8.00000000E-01  1.50000000E+00  8.00000000E-01  8.00000000E-01
  1.50000000E+00  8.00000000E-01  8.00000000E-01  1.50000000E+00  8.00000000E-01
  8.00000000E-01  1.50000000E+00  8.00000000E-01  8.00000000E-01  1.50000000E+00
  8.00000000E-01  8.00000000E-01  1.50000000E+00  8.00000000E-01  8.00000000E-01
  1.50000000E+00  8.00000000E-01  8.00000000E-01  1.50000000E+00  8.00000000E-01
  8.00000000E-01  1.50000000E+00  8.00000000E-01  8.00000000E-01  1.50000000E+00
  8.00000000E-01  8.00000000E-01  1.50000000E+00  8.00000000E-01  8.00000000E-01
  1.50000000E+00  8.00000000E-01  8.00000000E-01  1.50000000E+00  8.00000000E-01
  8.00000000E-01  1.50000000E+00  8.00000000E-01  8.00000000E-01  1.50000000E+00
  8.00000000E-01  8.00000000E-01  1.50000000E+00  8.00000000E-01  8.00000000E-01
  1.50000000E+00  8.00000000E-01  8.00000000E-01  1.50000000E+00  8.00000000E-01
  8.00000000E-01  1.50000000E+00  8.00000000E-01  8.00000000E-01  1.50000000E+00
  8.00000000E-01  8.00000000E-01  1.50000000E+00  8.00000000E-01  8.00000000E-01
  1.50000000E+00  8.00000000E-01  8.00000000E-01  1.50000000E+00  8.00000000E-01
  8.00000000E-01  1.50000000E+00  8.00000000E-01  8.00000000E-01  1.50000000E+00
  8.00000000E-01  8.00000000E-01  1.50000000E+00  8.00000000E-01  8.00000000E-01
  1.50000000E+00  8.00000000E-01  8.00000000E-01  1.50000000E+00  8.00000000E-01
  8.00000000E-01  1.50000000E+00  8.00000000E-01  8.00000000E-01  1.50000000E+00
  8.00000000E-01  8.00000000E-01  1.50000000E+00  8.00000000E-01  8.00000000E-01
  1.50000000E+00  8.00000000E-01  8.00000000E-01  1.50000000E+00  8.00000000E-01
  8.00000000E-01  1.50000000E+00  8.00000000E-01  8.00000000E-01  1.50000000E+00
  8.00000000E-01  8.00000000E-01  1.50000000E+00  8.00000000E-01  8.00000000E-01
  1.50000000E+00  8.00000000E-01  8.00000000E-01  1.50000000E+00  8.00000000E-01
  8.00000000E-01  1.50000000E+00  8.00000000E-01  8.00000000E-01  1.50000000E+00
  8.00000000E-01  8.00000000E-01  1.50000000E+00  8.00000000E-01  8.00000000E-01
  1.50000000E+00  8.00000000E-01  8.00000000E-01  1.50000000E+00  8.00000000E-01
  8.00000000E-01  1.50000000E+00  8.00000000E-01  8.00000000E-01  1.50000000E+00
  8.00000000E-01  8.00000000E-01  1.50000000E+00  8.00000000E-01  8.00000000E-01
  1.50000000E+00  8.00000000E-01  8.00000000E-01  1.50000000E+00  8.00000000E-01
  8.00000000E-01  1.50000000E+00  8.00000000E-01  8.00000000E-01  1.50000000E+00
  8.00000000E-01  8.00000000E-01  1.50000000E+00  8.00000000E-01  8.00000000E-01
  1.50000000E+00  8.00000000E-01  8.00000000E-01  1.50000000E+00  8.00000000E-01
  8.00000000E-01  1.50000000E+00  8.00000000E-01  8.00000000E-01  1.50000000E+00
  8.00000000E-01  8.00000000E-01  1.50000000E+00  8.00000000E-01  8.00000000E-01
  1.50000000E+00  8.00000000E-01  8.00000000E-01  1.50000000E+00  8.00000000E-01
  8.00000000E-01  1.50000000E+00  8.00000000E-01  8.00000000E-01  1.50000000E+00
  8.00000000E-01  8.00000000E-01  1.50000000E+00  8.00000000E-01  8.00000000E-01
  1.50000000E+00  8.00000000E-01  8.00000000E-01  1.50000000E+00  8.00000000E-01
  8.00000000E-01  1.50000000E+00  8.00000000E-01  8.00000000E-01  1.50000000E+00
  8.00000000E-01  8.00000000E-01  1.50000000E+00  8.00000000E-01  8.00000000E-01
  1.50000000E+00  8.00000000E-01  8.00000000E-01  1.50000000E+00  8.00000000E-01
  8.00000000E-01  1.50000000E+00  8.00000000E-01  8.00000000E-01  1.50000000E+00
  8.00000000E-01  8.00000000E-01  1.50000000E+00  8.00000000E-01  8.00000000E-01
  1.50000000E+00  8.00000000E-01  8.00000000E-01  1.50000000E+00  8.00000000E-01
  8.00000000E-01  1.50000000E+00  8.00000000E-01  8.00000000E-01  1.50000000E+00
  8.00000000E-01  8.00000000E-01  1.50000000E+00  8.00000000E-01  8.00000000E-01
  1.50000000E+00  8.00000000E-01  8.00000000E-01  1.50000000E+00  8.00000000E-01
  8.00000000E-01  1.50000000E+00  8.00000000E-01  8.00000000E-01  1.50000000E+00
  8.00000000E-01  8.00000000E-01  1.50000000E+00  8.00000000E-01  8.00000000E-01
  1.50000000E+00  8.00000000E-01  8.00000000E-01  1.50000000E+00  8.00000000E-01
  8.00000000E-01  1.50000000E+00  8.00000000E-01  8.00000000E-01  1.50000000E+00
  8.00000000E-01  8.00000000E-01  1.50000000E+00  8.00000000E-01  8.00000000E-01
  1.50000000E+00  8.00000000E-01  8.00000000E-01  1.50000000E+00  8.00000000E-01
  8.00000000E-01  1.50000000E+00  8.00000000E-01  8.00000000E-01  1.50000000E+00
  8.00000000E-01  8.00000000E-01  1.50000000E+00  8.00000000E-01  8.00000000E-01
  1.50000000E+00  8.00000000E-01  8.00000000E-01  1.50000000E+00  8.00000000E-01
  8.00000000E-01  1.50000000E+00  8.00000000E-01  8.00000000E-01  1.50000000E+00
  8.00000000E-01  8.00000000E-01  1.50000000E+00  8.00000000E-01  8.00000000E-01
  1.50000000E+00  8.00000000E-01  8.00000000E-01  1.50000000E+00  8.00000000E-01
  8.00000000E-01  1.50000000E+00  8.00000000E-01  8.00000000E-01  1.50000000E+00
  8.00000000E-01  8.00000000E-01  1.50000000E+00  8.00000000E-01  8.00000000E-01
  1.50000000E+00  8.00000000E-01  8.00000000E-01  1.50000000E+00  8.00000000E-01
  8.00000000E-01  1.50000000E+00  8.00000000E-01  8.00000000E-01  1.50000000E+00
  8.00000000E-01  8.00000000E-01  1.50000000E+00  8.00000000E-01  8.00000000E-01
  1.50000000E+00  8.00000000E-01  8.00000000E-01  1.50000000E+00  8.00000000E-01
  8.00000000E-01  1.50000000E+00  8.00000000E-01  8.00000000E-01  1.50000000E+00
  8.00000000E-01  8.00000000E-01  1.50000000E+00  8.00000000E-01  8.00000000E-01
  1.50000000E+00  8.00000000E-01  8.00000000E-01  1.50000000E+00  8.00000000E-01
  8.00000000E-01  1.50000000E+00  8.00000000E-01  8.00000000E-01  1.50000000E+00
  8.00000000E-01  8.00000000E-01  1.50000000E+00  8.00000000E-01  8.00000000E-01
  1.50000000E+00  8.00000000E-01  8.00000000E-01  1.50000000E+00  8.00000000E-01
  8.00000000E-01  1.50000000E+00  8.00000000E-01  8.00000000E-01  1.50000000E+00
  8.00000000E-01  8.00000000E-01  1.50000000E+00  8.00000000E-01  8.00000000E-01
  1.50000000E+00  8.00000000E-01  8.00000000E-01  1.50000000E+00  8.00000000E-01
  8.00000000E-01  1.50000000E+00  8.00000000E-01  8.00000000E-01  1.50000000E+00
  8.00000000E-01  8.00000000E-01  1.50000000E+00  8.00000000E-01  8.00000000E-01
  1.50000000E+00  8.00000000E-01  8.00000000E-01  1.50000000E+00  8.00000000E-01
  8.00000000E-01  1.50000000E+00  8.00000000E-01  8.00000000E-01  1.50000000E+00
  8.00000000E-01  8.00000000E-01  1.50000000E+00  8.00000000E-01  8.00000000E-01
  1.50000000E+00  8.00000000E-01  8.00000000E-01  1.50000000E+00  8.00000000E-01
  8.00000000E-01  1.50000000E+00  8.00000000E-01  8.00000000E-01  1.50000000E+00
  8.00000000E-01  8.00000000E-01  1.50000000E+00  8.00000000E-01  8.00000000E-01
  1.50000000E+00  8.00000000E-01  8.00000000E-01  1.50000000E+00  8.00000000E-01
  8.00000000E-01  1.50000000E+00  8.00000000E-01  8.00000000E-01  1.50000000E+00
  8.00000000E-01  8.00000000E-01  1.50000000E+00  8.00000000E-01  8.00000000E-01
  1.50000000E+00  8.00000000E-01  8.00000000E-01  1.50000000E+00  8.00000000E-01
  8.00000000E-01  1.50000000E+00  8.00000000E-01  8.00000000E-01  1.50000000E+00
  8.00000000E-01  8.00000000E-01  1.50000000E+00  8.00000000E-01  8.00000000E-01
  1.50000000E+00  8.00000000E-01  8.00000000E-01  1.50000000E+00  8.00000000E-01
  8.00000000E-01  1.50000000E+00  8.00000000E-01  8.00000000E-01  1.50000000E+00
  8.00000000E-01  8.00000000E-01  1.50000000E+00  8.00000000E-01  8.00000000E-01
  1.50000000E+00  8.00000000E-01  8.00000000E-01  1.50000000E+00  8.00000000E-01
  8.00000000E-01  1.50000000E+00  8.00000000E-01  8.00000000E-01  1.50000000E+00
  8.00000000E-01  8.00000000E-01  1.50000000E+00  8.00000000E-01  8.00000000E-01
  1.50000000E+00  8.00000000E-01  8.00000000E-01  1.50000000E+00  8.00000000E-01
  8.00000000E-01  1.50000000E+00  8.00000000E-01  8.00000000E-01  1.50000000E+00
  8.00000000E-01  8.00000000E-01  1.50000000E+00  8.00000000E-01  8.00000000E-01
  1.50000000E+00  8.00000000E-01  8.00000000E-01  1.50000000E+00  8.00000000E-01
  8.00000000E-01  1.50000000E+00  8.00000000E-01  8.00000000E-01  1.50000000E+00
  8.00000000E-01  8.00000000E-01  1.50000000E+00  8.00000000E-01  8.00000000E-01
  1.50000000E+00  8.00000000E-01  8.00000000E-01  1.50000000E+00  8.00000000E-01
  8.00000000E-01  1.50000000E+00  8.00000000E-01  8.00000000E-01  1.50000000E+00
  8.00000000E-01  8.00000000E-01  1.50000000E+00  8.00000000E-01  8.00000000E-01
  1.50000000E+00  8.00000000E-01  8.00000000E-01  1.50000000E+00  8.00000000E-01
  8.00000000E-01  1.50000000E+00  8.00000000E-01  8.00000000E-01  1.50000000E+00
  8.00000000E-01  8.00000000E-01  1.50000000E+00  8.00000000E-01  8.00000000E-01
  1.50000000E+00  8.00000000E-01  8.00000000E-01  1.50000000E+00  8.00000000E-01
  8.00000000E-01  1.50000000E+00  8.00000000E-01  8.00000000E-01  1.50000000E+00
  8.00000000E-01  8.00000000E-01  1.50000000E+00  8.00000000E-01  8.00000000E-01
  1.50000000E+00  8.00000000E-01  8.00000000E-01  1.50000000E+00  8.00000000E-01
  8.00000000E-01  1.50000000E+00  8.00000000E-01  8.00000000E-01  1.50000000E+00
  8.00000000E-01  8.00000000E-01  1.50000000E+00  8.00000000E-01  8.00000000E-01
  1.50000000E+00  8.00000000E-01  8.00000000E-01  1.50000000E+00  8.00000000E-01
  8.00000000E-01  1.50000000E+00  8.00000000E-01  8.00000000E-01  1.50000000E+00
  8.00000000E-01  8.00000000E-01  1.50000000E+00  8.00000000E-01  8.00000000E-01
  1.50000000E+00  8.00000000E-01  8.00000000E-01  1.50000000E+00  8.00000000E-01
  8.00000000E-01  1.50000000E+00  8.00000000E-01  8.00000000E-01  1.50000000E+00
  8.00000000E-01  8.00000000E-01  1.50000000E+00  8.00000000E-01  8.00000000E-01
  1.50000000E+00  8.00000000E-01  8.00000000E-01  1.50000000E+00  8.00000000E-01
  8.00000000E-01  1.50000000E+00  8.00000000E-01  8.00000000E-01  1.50000000E+00
  8.00000000E-01  8.00000000E-01  1.50000000E+00  8.00000000E-01  8.00000000E-01
  1.50000000E+00  8.00000000E-01  8.00000000E-01  1.50000000E+00  8.00000000E-01
  8.00000000E-01  1.50000000E+00  8.00000000E-01  8.00000000E-01  1.50000000E+00
  8.00000000E-01  8.00000000E-01  1.50000000E+00  8.00000000E-01  8.00000000E-01
  1.50000000E+00  8.00000000E-01  8.00000000E-01  1.50000000E+00  8.00000000E-01
  8.00000000E-01  1.50000000E+00  8.00000000E-01  8.00000000E-01  1.50000000E+00
  8.00000000E-01  8.00000000E-01  1.50000000E+00  8.00000000E-01  8.00000000E-01
  1.50000000E+00  8.00000000E-01  8.00000000E-01  1.50000000E+00  8.00000000E-01
  8.00000000E-01  1.50000000E+00  8.00000000E-01  8.00000000E-01  1.50000000E+00
  8.00000000E-01  8.00000000E-01  1.50000000E+00  8.00000000E-01  8.00000000E-01
  1.50000000E+00  8.00000000E-01  8.00000000E-01  1.50000000E+00  8.00000000E-01
  8.00000000E-01  1.50000000E+00  8.00000000E-01  8.00000000E-01  1.50000000E+00
  8.00000000E-01  8.00000000E-01  1.50000000E+00  8.00000000E-01  8.00000000E-01
  1.50000000E+00  8.00000000E-01  8.00000000E-01  1.50000000E+00  8.00000000E-01
  8.00000000E-01  1.50000000E+00  8.00000000E-01  8.00000000E-01  1.50000000E+00
  8.00000000E-01  8.00000000E-01  1.50000000E+00  8.00000000E-01  8.00000000E-01
  1.50000000E+00  8.00000000E-01  8.00000000E-01  1.50000000E+00  8.00000000E-01
  8.00000000E-01  1.50000000E+00  8.00000000E-01  8.00000000E-01  1.50000000E+00
  8.00000000E-01  8.00000000E-01  1.50000000E+00  8.00000000E-01  8.00000000E-01
  1.50000000E+00  8.00000000E-01  8.00000000E-01  1.50000000E+00  8.00000000E-01
  8.00000000E-01  1.50000000E+00  8.00000000E-01  8.00000000E-01  1.50000000E+00
  8.00000000E-01  8.00000000E-01  1.50000000E+00  8.00000000E-01  8.00000000E-01
  1.50000000E+00  8.00000000E-01  8.00000000E-01  1.50000000E+00  8.00000000E-01
  8.00000000E-01  1.50000000E+00  8.00000000E-01  8.00000000E-01  1.50000000E+00
  8.00000000E-01  8.00000000E-01  1.50000000E+00  8.00000000E-01  8.00000000E-01
  1.50000000E+00  8.00000000E-01  8.00000000E-01  1.50000000E+00  8.00000000E-01
  8.00000000E-01  1.50000000E+00  8.00000000E-01  8.00000000E-01  1.50000000E+00
  8.00000000E-01  8.00000000E-01  1.50000000E+00  8.00000000E-01  8.00000000E-01
  1.50000000E+00  8.00000000E-01  8.00000000E-01  1.50000000E+00  8.00000000E-01
  8.00000000E-01  1.50000000E+00  8.00000000E-01  8.00000000E-01  1.50000000E+00
  8.00000000E-01  8.00000000E-01  1.50000000E+00  8.00000000E-01  8.00000000E-01
  1.50000000E+00  8.00000000E-01  8.00000000E-01  1.50000000E+00  8.00000000E-01
  8.00000000E-01  1.50000000E+00  8.00000000E-01  8.00000000E-01  1.50000000E+00
  8.00000000E-01  8.00000000E-01  1.50000000E+00  8.00000000E-01  8.00000000E-01
  1.50000000E+00  8.00000000E-01  8.00000000E-01  1.50000000E+00  8.00000000E-01
  8.00000000E-01  1.50000000E+00  8.00000000E-01  8.00000000E-01  1.50000000E+00
  8.00000000E-01  8.00000000E-01  1.50000000E+00  8.00000000E-01  8.00000000E-01
  1.50000000E+00  8.00000000E-01  8.00000000E-01  1.50000000E+00  8.00000000E-01
  8.00000000E-01  1.50000000E+00  8.00000000E-01  8.00000000E-01  1.50000000E+00
  8.00000000E-01  8.00000000E-01  1.50000000E+00  8.00000000E-01  8.00000000E-01
  1.50000000E+00  8.00000000E-01  8.00000000E-01  1.50000000E+00  8.00000000E-01
  8.00000000E-01  1.50000000E+00  8.00000000E-01  8.00000000E-01  1.50000000E+00
  8.00000000E-01  8.00000000E-01  1.50000000E+00  8.00000000E-01  8.00000000E-01
  1.50000000E+00  8.00000000E-01  8.00000000E-01  1.50000000E+00  8.00000000E-01
  8.00000000E-01  1.50000000E+00  8.00000000E-01  8.00000000E-01  1.50000000E+00
  8.00000000E-01  8.00000000E-01  1.50000000E+00  8.00000000E-01  8.00000000E-01
  1.50000000E+00  8.00000000E-01  8.00000000E-01  1.50000000E+00  8.00000000E-01
  8.00000000E-01  1.50000000E+00  8.00000000E-01  8.00000000E-01  1.50000000E+00
  8.00000000E-01  8.00000000E-01  1.50000000E+00  8.00000000E-01  8.00000000E-01
  1.50000000E+00  8.00000000E-01  8.00000000E-01  1.50000000E+00  8.00000000E-01
  8.00000000E-01  1.50000000E+00  8.00000000E-01  8.00000000E-01  1.50000000E+00
  8.00000000E-01  8.00000000E-01  1.50000000E+00  8.00000000E-01  8.00000000E-01
  1.50000000E+00  8.00000000E-01  8.00000000E-01  1.50000000E+00  8.00000000E-01
  8.00000000E-01  1.50000000E+00  8.00000000E-01  8.00000000E-01  1.50000000E+00
  8.00000000E-01  8.00000000E-01  1.50000000E+00  8.00000000E-01  8.00000000E-01
  1.50000000E+00  8.00000000E-01  8.00000000E-01  1.50000000E+00  8.00000000E-01
  8.00000000E-01  1.50000000E+00  8.00000000E-01  8.00000000E-01  1.50000000E+00
  8.00000000E-01  8.00000000E-01  1.50000000E+00  8.00000000E-01  8.00000000E-01
  1.50000000E+00  8.00000000E-01  8.00000000E-01  1.50000000E+00  8.00000000E-01
  8.00000000E-01  1.50000000E+00  8.00000000E-01  8.00000000E-01  1.50000000E+00
  8.00000000E-01  8.00000000E-01  1.50000000E+00  8.00000000E-01  8.00000000E-01
  1.50000000E+00  8.00000000E-01  8.00000000E-01  1.50000000E+00  8.00000000E-01
  8.00000000E-01  1.50000000E+00  8.00000000E-01  8.00000000E-01  1.50000000E+00
  8.00000000E-01  8.00000000E-01  1.50000000E+00  8.00000000E-01  8.00000000E-01
  1.50000000E+00  8.00000000E-01  8.00000000E-01  1.50000000E+00  8.00000000E-01
  8.00000000E-01  1.50000000E+00  8.00000000E-01  8.00000000E-01  1.50000000E+00
  8.00000000E-01  8.00000000E-01  1.50000000E+00  8.00000000E-01  8.00000000E-01
  1.50000000E+00  8.00000000E-01  8.00000000E-01  1.50000000E+00  8.00000000E-01
  8.00000000E-01  1.50000000E+00  8.00000000E-01  8.00000000E-01  1.50000000E+00
  8.00000000E-01  8.00000000E-01  1.50000000E+00  8.00000000E-01  8.00000000E-01
  1.50000000E+00  8.00000000E-01  8.00000000E-01  1.50000000E+00  8.00000000E-01
  8.00000000E-01  1.50000000E+00  8.00000000E-01  8.00000000E-01  1.50000000E+00
  8.00000000E-01  8.00000000E-01  1.50000000E+00  8.00000000E-01  8.00000000E-01
  1.50000000E+00  8.00000000E-01  8.00000000E-01  1.50000000E+00  8.00000000E-01
  8.00000000E-01  1.50000000E+00  8.00000000E-01  8.00000000E-01  1.50000000E+00
  8.00000000E-01  8.00000000E-01  1.50000000E+00  8.00000000E-01  8.00000000E-01
  1.50000000E+00  8.00000000E-01  8.00000000E-01  1.50000000E+00  8.00000000E-01
  8.00000000E-01  1.50000000E+00  8.00000000E-01  8.00000000E-01  1.50000000E+00
  8.00000000E-01  8.00000000E-01  1.50000000E+00  8.00000000E-01  8.00000000E-01
  1.50000000E+00  8.00000000E-01  8.00000000E-01  1.50000000E+00  8.00000000E-01
  8.00000000E-01  1.50000000E+00  8.00000000E-01  8.00000000E-01  1.50000000E+00
  8.00000000E-01  8.00000000E-01  1.50000000E+00  8.00000000E-01  8.00000000E-01
  1.50000000E+00  8.00000000E-01  8.00000000E-01  1.50000000E+00  8.00000000E-01
  8.00000000E-01  1.50000000E+00  8.00000000E-01  8.00000000E-01  1.50000000E+00
  8.00000000E-01  8.00000000E-01  1.50000000E+00  8.00000000E-01  8.00000000E-01
  1.50000000E+00  8.00000000E-01  8.00000000E-01  1.50000000E+00  8.00000000E-01
  8.00000000E-01  1.50000000E+00  8.00000000E-01  8.00000000E-01  1.50000000E+00
  8.00000000E-01  8.00000000E-01  1.50000000E+00  8.00000000E-01  8.00000000E-01
  1.50000000E+00  8.00000000E-01  8.00000000E-01  1.50000000E+00  8.00000000E-01
  8.00000000E-01  1.50000000E+00  8.00000000E-01  8.00000000E-01  1.50000000E+00
  8.00000000E-01  8.00000000E-01  1.50000000E+00  8.00000000E-01  8.00000000E-01
  1.50000000E+00  8.00000000E-01  8.00000000E-01  1.50000000E+00  8.00000000E-01
  8.00000000E-01  1.50000000E+00  8.00000000E-01  8.00000000E-01  1.50000000E+00
  8.00000000E-01  8.00000000E-01  1.50000000E+00  8.00000000E-01  8.00000000E-01
  1.50000000E+00  8.00000000E-01  8.00000000E-01  1.50000000E+00  8.00000000E-01
  8.00000000E-01  1.50000000E+00  8.00000000E-01  8.00000000E-01  1.50000000E+00
  8.00000000E-01  8.00000000E-01  1.50000000E+00  8.00000000E-01  8.00000000E-01
  1.50000000E+00  8.00000000E-01  8.00000000E-01  1.50000000E+00  8.00000000E-01
  8.00000000E-01  1.50000000E+00  8.00000000E-01  8.00000000E-01  1.50000000E+00
  8.00000000E-01  8.00000000E-01  1.50000000E+00  8.00000000E-01  8.00000000E-01
  1.50000000E+00  8.00000000E-01  8.00000000E-01  1.50000000E+00  8.00000000E-01
  8.00000000E-01  1.50000000E+00  8.00000000E-01  8.00000000E-01  1.50000000E+00
  8.00000000E-01  8.00000000E-01  1.50000000E+00  8.00000000E-01  8.00000000E-01
  1.50000000E+00  8.00000000E-01  8.00000000E-01  1.50000000E+00  8.00000000E-01
  8.00000000E-01  1.50000000E+00  8.00000000E-01  8.00000000E-01  1.50000000E+00
  8.00000000E-01  8.00000000E-01  1.50000000E+00  8.00000000E-01  8.00000000E-01
  1.50000000E+00  8.00000000E-01  8.00000000E-01  1.50000000E+00  8.00000000E-01
  8.00000000E-01  1.50000000E+00  8.00000000E-01  8.00000000E-01  1.50000000E+00
  8.00000000E-01  8.00000000E-01  1.50000000E+00  8.00000000E-01  8.00000000E-01
  1.50000000E+00  8.00000000E-01  8.00000000E-01  1.50000000E+00  8.00000000E-01
  8.00000000E-01  1.50000000E+00  8.00000000E-01  8.00000000E-01  1.50000000E+00
  8.00000000E-01  8.00000000E-01  1.50000000E+00  8.00000000E-01  8.00000000E-01
  1.50000000E+00  8.00000000E-01  8.00000000E-01  1.50000000E+00  8.00000000E-01
  8.00000000E-01  1.50000000E+00  8.00000000E-01  8.00000000E-01  1.50000000E+00
  8.00000000E-01  8.00000000E-01  1.50000000E+00  8.00000000E-01  8.00000000E-01
  1.50000000E+00  8.00000000E-01  8.00000000E-01  1.50000000E+00  8.00000000E-01
  8.00000000E-01  1.50000000E+00  8.00000000E-01  8.00000000E-01  1.50000000E+00
  8.00000000E-01  8.00000000E-01  1.50000000E+00  8.00000000E-01  8.00000000E-01
  1.50000000E+00  8.00000000E-01  8.00000000E-01  1.50000000E+00  8.00000000E-01
  8.00000000E-01  1.50000000E+00  8.00000000E-01  8.00000000E-01  1.50000000E+00
  8.00000000E-01  8.00000000E-01  1.50000000E+00  8.00000000E-01  8.00000000E-01
  1.50000000E+00  8.00000000E-01  8.00000000E-01  1.50000000E+00  8.00000000E-01
  8.00000000E-01  1.50000000E+00  8.00000000E-01  8.00000000E-01  1.50000000E+00
  8.00000000E-01  8.00000000E-01  1.50000000E+00  8.00000000E-01  8.00000000E-01
  1.50000000E+00  8.00000000E-01  8.00000000E-01  1.50000000E+00  8.00000000E-01
  8.00000000E-01  1.50000000E+00  8.00000000E-01  8.00000000E-01  1.50000000E+00
  8.00000000E-01  8.00000000E-01  1.50000000E+00  8.00000000E-01  8.00000000E-01
  1.50000000E+00  8.00000000E-01  8.00000000E-01  1.50000000E+00  8.00000000E-01
  8.00000000E-01  1.50000000E+00  8.00000000E-01  8.00000000E-01  1.50000000E+00
  8.00000000E-01  8.00000000E-01  1.50000000E+00  8.00000000E-01  8.00000000E-01
  1.50000000E+00  8.00000000E-01  8.00000000E-01  1.50000000E+00  8.00000000E-01
  8.00000000E-01  1.50000000E+00  8.00000000E-01  8.00000000E-01  1.50000000E+00
  8.00000000E-01  8.00000000E-01  1.50000000E+00  8.00000000E-01  8.00000000E-01
  1.50000000E+00  8.00000000E-01  8.00000000E-01  1.50000000E+00  8.00000000E-01
  8.00000000E-01  1.50000000E+00  8.00000000E-01  8.00000000E-01  1.50000000E+00
  8.00000000E-01  8.00000000E-01  1.50000000E+00  8.00000000E-01  8.00000000E-01
  1.50000000E+00  8.00000000E-01  8.00000000E-01  1.50000000E+00  8.00000000E-01
  8.00000000E-01  1.50000000E+00  8.00000000E-01  8.00000000E-01  1.50000000E+00
  8.00000000E-01  8.00000000E-01  1.50000000E+00  8.00000000E-01  8.00000000E-01
  1.50000000E+00  8.00000000E-01  8.00000000E-01  1.50000000E+00  8.00000000E-01
  8.00000000E-01  1.50000000E+00  8.00000000E-01  8.00000000E-01  1.50000000E+00
  8.00000000E-01  8.00000000E-01  1.50000000E+00  8.00000000E-01  8.00000000E-01
  1.50000000E+00  8.00000000E-01  8.00000000E-01  1.50000000E+00  8.00000000E-01
  8.00000000E-01  1.50000000E+00  8.00000000E-01  8.00000000E-01  1.50000000E+00
  8.00000000E-01  8.00000000E-01  1.50000000E+00  8.00000000E-01  8.00000000E-01
  1.50000000E+00  8.00000000E-01  8.00000000E-01  1.50000000E+00  8.00000000E-01
  8.00000000E-01  1.50000000E+00  8.00000000E-01  8.00000000E-01  1.50000000E+00
  8.00000000E-01  8.00000000E-01  1.50000000E+00  8.00000000E-01  8.00000000E-01
  1.50000000E+00  8.00000000E-01  8.00000000E-01  1.50000000E+00  8.00000000E-01
  8.00000000E-01  1.50000000E+00  8.00000000E-01  8.00000000E-01  1.50000000E+00
  8.00000000E-01  8.00000000E-01  1.50000000E+00  8.00000000E-01  8.00000000E-01
  1.50000000E+00  8.00000000E-01  8.00000000E-01  1.50000000E+00  8.00000000E-01
  8.00000000E-01  1.50000000E+00  8.00000000E-01  8.00000000E-01  1.50000000E+00
  8.00000000E-01  8.00000000E-01  1.50000000E+00  8.00000000E-01  8.00000000E-01
  1.50000000E+00  8.00000000E-01  8.00000000E-01  1.50000000E+00  8.00000000E-01
  8.00000000E-01  1.50000000E+00  8.00000000E-01  8.00000000E-01  1.50000000E+00
  8.00000000E-01  8.00000000E-01  1.50000000E+00  8.00000000E-01  8.00000000E-01
  1.50000000E+00  8.00000000E-01  8.00000000E-01  1.50000000E+00  8.00000000E-01
  8.00000000E-01  1.50000000E+00  8.00000000E-01  8.00000000E-01  1.50000000E+00
  8.00000000E-01  8.00000000E-01  1.50000000E+00  8.00000000E-01  8.00000000E-01
  1.50000000E+00  8.00000000E-01  8.00000000E-01  1.50000000E+00  8.00000000E-01
  8.00000000E-01  1.50000000E+00  8.00000000E-01  8.00000000E-01  1.50000000E+00
  8.00000000E-01  8.00000000E-01  1.50000000E+00  8.00000000E-01  8.00000000E-01
  1.50000000E+00  8.00000000E-01  8.00000000E-01  1.50000000E+00  8.00000000E-01
  8.00000000E-01  1.50000000E+00  8.00000000E-01  8.00000000E-01  1.50000000E+00
  8.00000000E-01  8.00000000E-01  1.50000000E+00  8.00000000E-01  8.00000000E-01
  1.50000000E+00  8.00000000E-01  8.00000000E-01  1.50000000E+00  8.00000000E-01
  8.00000000E-01  1.50000000E+00  8.00000000E-01  8.00000000E-01  1.50000000E+00
  8.00000000E-01  8.00000000E-01  1.50000000E+00  8.00000000E-01  8.00000000E-01
  1.50000000E+00  8.00000000E-01  8.00000000E-01  1.50000000E+00  8.00000000E-01
  8.00000000E-01  1.50000000E+00  8.00000000E-01  8.00000000E-01  1.50000000E+00
  8.00000000E-01  8.00000000E-01  1.50000000E+00  8.00000000E-01  8.00000000E-01
  1.50000000E+00  8.00000000E-01  8.00000000E-01  1.50000000E+00  8.00000000E-01
  8.00000000E-01  1.50000000E+00  8.00000000E-01  8.00000000E-01  1.50000000E+00
  8.00000000E-01  8.00000000E-01  1.50000000E+00  8.00000000E-01  8.00000000E-01
  1.50000000E+00  8.00000000E-01  8.00000000E-01  1.50000000E+00  8.00000000E-01
  8.00000000E-01  1.50000000E+00  8.00000000E-01  8.00000000E-01  1.50000000E+00
  8.00000000E-01  8.00000000E-01  1.50000000E+00  8.00000000E-01  8.00000000E-01
  1.50000000E+00  8.00000000E-01  8.00000000E-01  1.50000000E+00  8.00000000E-01
  8.00000000E-01  1.50000000E+00  8.00000000E-01  8.00000000E-01  1.50000000E+00
  8.00000000E-01  8.00000000E-01  1.50000000E+00  8.00000000E-01  8.00000000E-01
  1.50000000E+00  8.00000000E-01  8.00000000E-01  1.50000000E+00  8.00000000E-01
  8.00000000E-01  1.50000000E+00  8.00000000E-01  8.00000000E-01  1.50000000E+00
  8.00000000E-01  8.00000000E-01  1.50000000E+00  8.00000000E-01  8.00000000E-01
  1.50000000E+00  8.00000000E-01  8.00000000E-01  1.50000000E+00  8.00000000E-01
  8.00000000E-01  1.50000000E+00  8.00000000E-01  8.00000000E-01  1.50000000E+00
  8.00000000E-01  8.00000000E-01  1.50000000E+00  8.00000000E-01  8.00000000E-01
  1.50000000E+00  8.00000000E-01  8.00000000E-01  1.50000000E+00  8.00000000E-01
  8.00000000E-01  1.50000000E+00  8.00000000E-01  8.00000000E-01  1.50000000E+00
  8.00000000E-01  8.00000000E-01  1.50000000E+00  8.00000000E-01  8.00000000E-01
  1.50000000E+00  8.00000000E-01  8.00000000E-01  1.50000000E+00  8.00000000E-01
  8.00000000E-01  1.50000000E+00  8.00000000E-01  8.00000000E-01  1.50000000E+00
  8.00000000E-01  8.00000000E-01  1.50000000E+00  8.00000000E-01  8.00000000E-01
  1.50000000E+00  8.00000000E-01  8.00000000E-01  1.50000000E+00  8.00000000E-01
  8.00000000E-01  1.50000000E+00  8.00000000E-01  8.00000000E-01  1.50000000E+00
  8.00000000E-01  8.00000000E-01  1.50000000E+00  8.00000000E-01  8.00000000E-01
  1.50000000E+00  8.00000000E-01  8.00000000E-01  1.50000000E+00  8.00000000E-01
  8.00000000E-01  1.50000000E+00  8.00000000E-01  8.00000000E-01  1.50000000E+00
  8.00000000E-01  8.00000000E-01  1.50000000E+00  8.00000000E-01  8.00000000E-01
  1.50000000E+00  8.00000000E-01  8.00000000E-01  1.50000000E+00  8.00000000E-01
  8.00000000E-01  1.50000000E+00  8.00000000E-01  8.00000000E-01  1.50000000E+00
  8.00000000E-01  8.00000000E-01  1.50000000E+00  8.00000000E-01  8.00000000E-01
  1.50000000E+00  8.00000000E-01  8.00000000E-01  1.50000000E+00  8.00000000E-01
  8.00000000E-01  1.50000000E+00  8.00000000E-01  8.00000000E-01  1.50000000E+00
  8.00000000E-01  8.00000000E-01  1.50000000E+00  8.00000000E-01  8.00000000E-01
  1.50000000E+00  8.00000000E-01  8.00000000E-01  1.50000000E+00  8.00000000E-01
  8.00000000E-01  1.50000000E+00  8.00000000E-01  8.00000000E-01  1.50000000E+00
  8.00000000E-01  8.00000000E-01  1.50000000E+00  8.00000000E-01  8.00000000E-01
  1.50000000E+00  8.00000000E-01  8.00000000E-01  1.50000000E+00  8.00000000E-01
  8.00000000E-01  1.50000000E+00  8.00000000E-01  8.00000000E-01  1.50000000E+00
  8.00000000E-01  8.00000000E-01  1.50000000E+00  8.00000000E-01  8.00000000E-01
  1.50000000E+00  8.00000000E-01  8.00000000E-01  1.50000000E+00  8.00000000E-01
  8.00000000E-01  1.50000000E+00  8.00000000E-01  8.00000000E-01  1.50000000E+00
  8.00000000E-01  8.00000000E-01  1.50000000E+00  8.00000000E-01  8.00000000E-01
  1.50000000E+00  8.00000000E-01  8.00000000E-01  1.50000000E+00  8.00000000E-01
  8.00000000E-01  1.50000000E+00  8.00000000E-01  8.00000000E-01  1.50000000E+00
  8.00000000E-01  8.00000000E-01  1.50000000E+00  8.00000000E-01  8.00000000E-01
  1.50000000E+00  8.00000000E-01  8.00000000E-01  1.50000000E+00  8.00000000E-01
  8.00000000E-01  1.50000000E+00  8.00000000E-01  8.00000000E-01  1.50000000E+00
  8.00000000E-01  8.00000000E-01  1.50000000E+00  8.00000000E-01  8.00000000E-01
  1.50000000E+00  8.00000000E-01  8.00000000E-01  1.50000000E+00  8.00000000E-01
  8.00000000E-01  1.50000000E+00  8.00000000E-01  8.00000000E-01  1.50000000E+00
  8.00000000E-01  8.00000000E-01  1.50000000E+00  8.00000000E-01  8.00000000E-01
  1.50000000E+00  8.00000000E-01  8.00000000E-01  1.50000000E+00  8.00000000E-01
  8.00000000E-01  1.50000000E+00  8.00000000E-01  8.00000000E-01  1.50000000E+00
  8.00000000E-01  8.00000000E-01  1.50000000E+00  8.00000000E-01  8.00000000E-01
  1.50000000E+00  8.00000000E-01  8.00000000E-01  1.50000000E+00  8.00000000E-01
  8.00000000E-01  1.50000000E+00  8.00000000E-01  8.00000000E-01  1.50000000E+00
  8.00000000E-01  8.00000000E-01  1.50000000E+00  8.00000000E-01  8.00000000E-01
  1.50000000E+00  8.00000000E-01  8.00000000E-01  1.50000000E+00  8.00000000E-01
  8.00000000E-01  1.50000000E+00  8.00000000E-01  8.00000000E-01  1.50000000E+00
  8.00000000E-01  8.00000000E-01  1.50000000E+00  8.00000000E-01  8.00000000E-01
  1.50000000E+00  8.00000000E-01  8.00000000E-01  1.50000000E+00  8.00000000E-01
  8.00000000E-01  1.50000000E+00  8.00000000E-01  8.00000000E-01  1.50000000E+00
  8.00000000E-01  8.00000000E-01  1.50000000E+00  8.00000000E-01  8.00000000E-01
  1.50000000E+00  8.00000000E-01  8.00000000E-01  1.50000000E+00  8.00000000E-01
  8.00000000E-01  1.50000000E+00  8.00000000E-01  8.00000000E-01  1.50000000E+00
  8.00000000E-01  8.00000000E-01  1.50000000E+00  8.00000000E-01  8.00000000E-01
  1.50000000E+00  8.00000000E-01  8.00000000E-01  1.50000000E+00  8.00000000E-01
  8.00000000E-01  1.50000000E+00  8.00000000E-01  8.00000000E-01  1.50000000E+00
  8.00000000E-01  8.00000000E-01  1.50000000E+00  8.00000000E-01  8.00000000E-01
  1.50000000E+00  8.00000000E-01  8.00000000E-01  1.50000000E+00  8.00000000E-01
  8.00000000E-01  1.50000000E+00  8.00000000E-01  8.00000000E-01  1.50000000E+00
  8.00000000E-01  8.00000000E-01  1.50000000E+00  8.00000000E-01  8.00000000E-01
  1.50000000E+00  8.00000000E-01  8.00000000E-01  1.50000000E+00  8.00000000E-01
  8.00000000E-01  1.50000000E+00  8.00000000E-01  8.00000000E-01  1.50000000E+00
  8.00000000E-01  8.00000000E-01  1.50000000E+00  8.00000000E-01  8.00000000E-01
  1.50000000E+00  8.00000000E-01  8.00000000E-01  1.50000000E+00  8.00000000E-01
  8.00000000E-01  1.50000000E+00  8.00000000E-01  8.00000000E-01  1.50000000E+00
  8.00000000E-01  8.00000000E-01  1.50000000E+00  8.00000000E-01  8.00000000E-01
  1.50000000E+00  8.00000000E-01  8.00000000E-01  1.50000000E+00  8.00000000E-01
  8.00000000E-01  1.50000000E+00  8.00000000E-01  8.00000000E-01  1.50000000E+00
  8.00000000E-01  8.00000000E-01  1.50000000E+00  8.00000000E-01  8.00000000E-01
  1.50000000E+00  8.00000000E-01  8.00000000E-01  1.50000000E+00  8.00000000E-01
  8.00000000E-01  1.50000000E+00  8.00000000E-01  8.00000000E-01  1.50000000E+00
  8.00000000E-01  8.00000000E-01  1.50000000E+00  8.00000000E-01  8.00000000E-01
  1.50000000E+00  8.00000000E-01  8.00000000E-01  1.50000000E+00  8.00000000E-01
  8.00000000E-01  1.50000000E+00  8.00000000E-01  8.00000000E-01  1.50000000E+00
  8.00000000E-01  8.00000000E-01  1.50000000E+00  8.00000000E-01  8.00000000E-01
  1.50000000E+00  8.00000000E-01  8.00000000E-01  1.50000000E+00  8.00000000E-01
  8.00000000E-01  1.50000000E+00  8.00000000E-01  8.00000000E-01  1.50000000E+00
  8.00000000E-01  8.00000000E-01  1.50000000E+00  8.00000000E-01  8.00000000E-01
  1.50000000E+00  8.00000000E-01  8.00000000E-01  1.50000000E+00  8.00000000E-01
  8.00000000E-01  1.50000000E+00  8.00000000E-01  8.00000000E-01  1.50000000E+00
  8.00000000E-01  8.00000000E-01  1.50000000E+00  8.00000000E-01  8.00000000E-01
  1.50000000E+00  8.00000000E-01  8.00000000E-01  1.50000000E+00  8.00000000E-01
  8.00000000E-01  1.50000000E+00  8.00000000E-01  8.00000000E-01  1.50000000E+00
  8.00000000E-01  8.00000000E-01  1.50000000E+00  8.00000000E-01  8.00000000E-01
  1.50000000E+00  8.00000000E-01  8.00000000E-01  1.50000000E+00  8.00000000E-01
  8.00000000E-01  1.50000000E+00  8.00000000E-01  8.00000000E-01  1.50000000E+00
  8.00000000E-01  8.00000000E-01  1.50000000E+00  8.00000000E-01  8.00000000E-01
  1.50000000E+00  8.00000000E-01  8.00000000E-01  1.50000000E+00  8.00000000E-01
  8.00000000E-01  1.50000000E+00  8.00000000E-01  8.00000000E-01  1.50000000E+00
  8.00000000E-01  8.00000000E-01  1.50000000E+00  8.00000000E-01  8.00000000E-01
  1.50000000E+00  8.00000000E-01  8.00000000E-01  1.50000000E+00  8.00000000E-01
  8.00000000E-01  1.50000000E+00  8.00000000E-01  8.00000000E-01  1.50000000E+00
  8.00000000E-01  8.00000000E-01  1.50000000E+00  8.00000000E-01  8.00000000E-01
  1.50000000E+00  8.00000000E-01  8.00000000E-01  1.50000000E+00  8.00000000E-01
  8.00000000E-01  1.50000000E+00  8.00000000E-01  8.00000000E-01  1.50000000E+00
  8.00000000E-01  8.00000000E-01  1.50000000E+00  8.00000000E-01  8.00000000E-01
  1.50000000E+00  8.00000000E-01  8.00000000E-01  1.50000000E+00  8.00000000E-01
  8.00000000E-01  1.50000000E+00  8.00000000E-01  8.00000000E-01  1.50000000E+00
  8.00000000E-01  8.00000000E-01  1.50000000E+00  8.00000000E-01  8.00000000E-01
  1.50000000E+00  8.00000000E-01  8.00000000E-01  1.50000000E+00  8.00000000E-01
  8.00000000E-01  1.50000000E+00  8.00000000E-01  8.00000000E-01  1.50000000E+00
  8.00000000E-01  8.00000000E-01  1.50000000E+00  8.00000000E-01  8.00000000E-01
  1.50000000E+00  8.00000000E-01  8.00000000E-01  1.50000000E+00  8.00000000E-01
  8.00000000E-01  1.50000000E+00  8.00000000E-01  8.00000000E-01  1.50000000E+00
  8.00000000E-01  8.00000000E-01  1.50000000E+00  8.00000000E-01  8.00000000E-01
  1.50000000E+00  8.00000000E-01  8.00000000E-01  1.50000000E+00  8.00000000E-01
  8.00000000E-01  1.50000000E+00  8.00000000E-01  8.00000000E-01  1.50000000E+00
  8.00000000E-01  8.00000000E-01  1.50000000E+00  8.00000000E-01  8.00000000E-01
  1.50000000E+00  8.00000000E-01  8.00000000E-01  1.50000000E+00  8.00000000E-01
  8.00000000E-01  1.50000000E+00  8.00000000E-01  8.00000000E-01  1.50000000E+00
  8.00000000E-01  8.00000000E-01  1.50000000E+00  8.00000000E-01  8.00000000E-01
  1.50000000E+00  8.00000000E-01  8.00000000E-01  1.50000000E+00  8.00000000E-01
  8.00000000E-01  1.50000000E+00  8.00000000E-01  8.00000000E-01  1.50000000E+00
  8.00000000E-01  8.00000000E-01  1.50000000E+00  8.00000000E-01  8.00000000E-01
  1.50000000E+00  8.00000000E-01  8.00000000E-01  1.50000000E+00  8.00000000E-01
  8.00000000E-01  1.50000000E+00  8.00000000E-01  8.00000000E-01  1.50000000E+00
  8.00000000E-01  8.00000000E-01  1.50000000E+00  8.00000000E-01  8.00000000E-01
  1.50000000E+00  8.00000000E-01  8.00000000E-01  1.50000000E+00  8.00000000E-01
  8.00000000E-01  1.50000000E+00  8.00000000E-01  8.00000000E-01  1.50000000E+00
  8.00000000E-01  8.00000000E-01  1.50000000E+00  8.00000000E-01  8.00000000E-01
  1.50000000E+00  8.00000000E-01  8.00000000E-01  1.50000000E+00  8.00000000E-01
  8.00000000E-01  1.50000000E+00  8.00000000E-01  8.00000000E-01  1.50000000E+00
  8.00000000E-01  8.00000000E-01  1.50000000E+00  8.00000000E-01  8.00000000E-01
  1.50000000E+00  8.00000000E-01  8.00000000E-01  1.50000000E+00  8.00000000E-01
  8.00000000E-01  1.50000000E+00  8.00000000E-01  8.00000000E-01  1.50000000E+00
  8.00000000E-01  8.00000000E-01  1.50000000E+00  8.00000000E-01  8.00000000E-01
  1.50000000E+00  8.00000000E-01  8.00000000E-01  1.50000000E+00  8.00000000E-01
  8.00000000E-01  1.50000000E+00  8.00000000E-01  8.00000000E-01  1.50000000E+00
  8.00000000E-01  8.00000000E-01  1.50000000E+00  8.00000000E-01  8.00000000E-01
  1.50000000E+00  8.00000000E-01  8.00000000E-01  1.50000000E+00  8.00000000E-01
  8.00000000E-01  1.50000000E+00  8.00000000E-01  8.00000000E-01  1.50000000E+00
  8.00000000E-01  8.00000000E-01  1.50000000E+00  8.00000000E-01  8.00000000E-01
  1.50000000E+00  8.00000000E-01  8.00000000E-01  1.50000000E+00  8.00000000E-01
  8.00000000E-01  1.50000000E+00  8.00000000E-01  8.00000000E-01  1.50000000E+00
  8.00000000E-01  8.00000000E-01  1.50000000E+00  8.00000000E-01  8.00000000E-01
  1.50000000E+00  8.00000000E-01  8.00000000E-01  1.50000000E+00  8.00000000E-01
  8.00000000E-01  1.50000000E+00  8.00000000E-01  8.00000000E-01  1.50000000E+00
  8.00000000E-01  8.00000000E-01  1.50000000E+00  8.00000000E-01  8.00000000E-01
  1.50000000E+00  8.00000000E-01  8.00000000E-01  1.50000000E+00  8.00000000E-01
  8.00000000E-01  1.50000000E+00  8.00000000E-01  8.00000000E-01  1.50000000E+00
  8.00000000E-01  8.00000000E-01  1.50000000E+00  8.00000000E-01  8.00000000E-01
  1.50000000E+00  8.00000000E-01  8.00000000E-01  1.50000000E+00  8.00000000E-01
  8.00000000E-01  1.50000000E+00  8.00000000E-01  8.00000000E-01  1.50000000E+00
  8.00000000E-01  8.00000000E-01  1.50000000E+00  8.00000000E-01  8.00000000E-01
  1.50000000E+00  8.00000000E-01  8.00000000E-01  1.50000000E+00  8.00000000E-01
  8.00000000E-01  1.50000000E+00  8.00000000E-01  8.00000000E-01  1.50000000E+00
  8.00000000E-01  8.00000000E-01  1.50000000E+00  8.00000000E-01  8.00000000E-01
  1.50000000E+00  8.00000000E-01  8.00000000E-01  1.50000000E+00  8.00000000E-01
  8.00000000E-01  1.50000000E+00  8.00000000E-01  8.00000000E-01  1.50000000E+00
  8.00000000E-01  8.00000000E-01  1.50000000E+00  8.00000000E-01  8.00000000E-01
  1.50000000E+00  8.00000000E-01  8.00000000E-01  1.50000000E+00  8.00000000E-01
  8.00000000E-01  1.50000000E+00  8.00000000E-01  8.00000000E-01  1.50000000E+00
  8.00000000E-01  8.00000000E-01  1.50000000E+00  8.00000000E-01  8.00000000E-01
  1.50000000E+00  8.00000000E-01  8.00000000E-01  1.50000000E+00  8.00000000E-01
  8.00000000E-01  1.50000000E+00  8.00000000E-01  8.00000000E-01  1.50000000E+00
  8.00000000E-01  8.00000000E-01  1.50000000E+00  8.00000000E-01  8.00000000E-01
  1.50000000E+00  8.00000000E-01  8.00000000E-01  1.50000000E+00  8.00000000E-01
  8.00000000E-01  1.50000000E+00  8.00000000E-01  8.00000000E-01  1.50000000E+00
  8.00000000E-01  8.00000000E-01  1.50000000E+00  8.00000000E-01  8.00000000E-01
  1.50000000E+00  8.00000000E-01  8.00000000E-01  1.50000000E+00  8.00000000E-01
  8.00000000E-01  1.50000000E+00  8.00000000E-01  8.00000000E-01  1.50000000E+00
  8.00000000E-01  8.00000000E-01  1.50000000E+00  8.00000000E-01  8.00000000E-01
  1.50000000E+00  8.00000000E-01  8.00000000E-01  1.50000000E+00  8.00000000E-01
  8.00000000E-01  1.50000000E+00  8.00000000E-01  8.00000000E-01  1.50000000E+00
  8.00000000E-01  8.00000000E-01  1.50000000E+00  8.00000000E-01  8.00000000E-01
  1.50000000E+00  8.00000000E-01  8.00000000E-01  1.50000000E+00  8.00000000E-01
  8.00000000E-01  1.50000000E+00  8.00000000E-01  8.00000000E-01  1.50000000E+00
  8.00000000E-01  8.00000000E-01  1.50000000E+00  8.00000000E-01  8.00000000E-01
  1.50000000E+00  8.00000000E-01  8.00000000E-01  1.50000000E+00  8.00000000E-01
  8.00000000E-01  1.50000000E+00  8.00000000E-01  8.00000000E-01  1.50000000E+00
  8.00000000E-01  8.00000000E-01  1.50000000E+00  8.00000000E-01  8.00000000E-01
  1.50000000E+00  8.00000000E-01  8.00000000E-01  1.50000000E+00  8.00000000E-01
  8.00000000E-01  1.50000000E+00  8.00000000E-01  8.00000000E-01  1.50000000E+00
  8.00000000E-01  8.00000000E-01  1.50000000E+00  8.00000000E-01  8.00000000E-01
  1.50000000E+00  8.00000000E-01  8.00000000E-01  1.50000000E+00  8.00000000E-01
  8.00000000E-01  1.50000000E+00  8.00000000E-01  8.00000000E-01  1.50000000E+00
  8.00000000E-01  8.00000000E-01  1.50000000E+00  8.00000000E-01  8.00000000E-01
  1.50000000E+00  8.00000000E-01  8.00000000E-01  1.50000000E+00  8.00000000E-01
  8.00000000E-01  1.50000000E+00  8.00000000E-01  8.00000000E-01  1.50000000E+00
  8.00000000E-01  8.00000000E-01  1.50000000E+00  8.00000000E-01  8.00000000E-01
  1.50000000E+00  8.00000000E-01  8.00000000E-01  1.50000000E+00  8.00000000E-01
  8.00000000E-01  1.50000000E+00  8.00000000E-01  8.00000000E-01  1.50000000E+00
  8.00000000E-01  8.00000000E-01  1.50000000E+00  8.00000000E-01  8.00000000E-01
  1.50000000E+00  8.00000000E-01  8.00000000E-01  1.50000000E+00  8.00000000E-01
  8.00000000E-01  1.50000000E+00  8.00000000E-01  8.00000000E-01  1.50000000E+00
  8.00000000E-01  8.00000000E-01  1.50000000E+00  8.00000000E-01  8.00000000E-01
  1.50000000E+00  8.00000000E-01  8.00000000E-01  1.50000000E+00  8.00000000E-01
  8.00000000E-01  1.50000000E+00  8.00000000E-01  8.00000000E-01  1.50000000E+00
  8.00000000E-01  8.00000000E-01  1.50000000E+00  8.00000000E-01  8.00000000E-01
  1.50000000E+00  8.00000000E-01  8.00000000E-01  1.50000000E+00  8.00000000E-01
  8.00000000E-01  1.50000000E+00  8.00000000E-01  8.00000000E-01  1.50000000E+00
  8.00000000E-01  8.00000000E-01  1.50000000E+00  8.00000000E-01  8.00000000E-01
  1.50000000E+00  8.00000000E-01  8.00000000E-01  1.50000000E+00  8.00000000E-01
  8.00000000E-01  1.50000000E+00  8.00000000E-01  8.00000000E-01  1.50000000E+00
  8.00000000E-01  8.00000000E-01  1.50000000E+00  8.00000000E-01  8.00000000E-01
  1.50000000E+00  8.00000000E-01  8.00000000E-01  1.50000000E+00  8.00000000E-01
  8.00000000E-01  1.50000000E+00  8.00000000E-01  8.00000000E-01  1.50000000E+00
  8.00000000E-01  8.00000000E-01  1.50000000E+00  8.00000000E-01  8.00000000E-01
  1.50000000E+00  8.00000000E-01  8.00000000E-01  1.50000000E+00  8.00000000E-01
  8.00000000E-01  1.50000000E+00  8.00000000E-01  8.00000000E-01  1.50000000E+00
  8.00000000E-01  8.00000000E-01  1.50000000E+00  8.00000000E-01  8.00000000E-01
  1.50000000E+00  8.00000000E-01  8.00000000E-01  1.50000000E+00  8.00000000E-01
  8.00000000E-01  1.50000000E+00  8.00000000E-01  8.00000000E-01  1.50000000E+00
  8.00000000E-01  8.00000000E-01  1.50000000E+00  8.00000000E-01  8.00000000E-01
  1.50000000E+00  8.00000000E-01  8.00000000E-01  1.50000000E+00  8.00000000E-01
  8.00000000E-01  1.50000000E+00  8.00000000E-01  8.00000000E-01  1.50000000E+00
  8.00000000E-01  8.00000000E-01  1.50000000E+00  8.00000000E-01  8.00000000E-01
  1.50000000E+00  8.00000000E-01  8.00000000E-01  1.50000000E+00  8.00000000E-01
  8.00000000E-01  1.50000000E+00  8.00000000E-01  8.00000000E-01  1.50000000E+00
  8.00000000E-01  8.00000000E-01  1.50000000E+00  8.00000000E-01  8.00000000E-01
  1.50000000E+00  8.00000000E-01  8.00000000E-01  1.50000000E+00  8.00000000E-01
  8.00000000E-01  1.50000000E+00  8.00000000E-01  8.00000000E-01  1.50000000E+00
  8.00000000E-01  8.00000000E-01  1.50000000E+00  8.00000000E-01  8.00000000E-01
  1.50000000E+00  8.00000000E-01  8.00000000E-01  1.50000000E+00  8.00000000E-01
  8.00000000E-01  1.50000000E+00  8.00000000E-01  8.00000000E-01  1.50000000E+00
  8.00000000E-01  8.00000000E-01  1.50000000E+00  8.00000000E-01  8.00000000E-01
  1.50000000E+00  8.00000000E-01  8.00000000E-01  1.50000000E+00  8.00000000E-01
  8.00000000E-01  1.50000000E+00  8.00000000E-01  8.00000000E-01  1.50000000E+00
  8.00000000E-01  8.00000000E-01  1.50000000E+00  8.00000000E-01  8.00000000E-01
  1.50000000E+00  8.00000000E-01  8.00000000E-01  1.50000000E+00  8.00000000E-01
  8.00000000E-01  1.50000000E+00  8.00000000E-01  8.00000000E-01  1.50000000E+00
  8.00000000E-01  8.00000000E-01  1.50000000E+00  8.00000000E-01  8.00000000E-01
  1.50000000E+00  8.00000000E-01  8.00000000E-01  1.50000000E+00  8.00000000E-01
  8.00000000E-01  1.50000000E+00  8.00000000E-01  8.00000000E-01  1.50000000E+00
  8.00000000E-01  8.00000000E-01  1.50000000E+00  8.00000000E-01  8.00000000E-01
  1.50000000E+00  8.00000000E-01  8.00000000E-01  1.50000000E+00  8.00000000E-01
  8.00000000E-01  1.50000000E+00  8.00000000E-01  8.00000000E-01  1.50000000E+00
  8.00000000E-01  8.00000000E-01  1.50000000E+00  8.00000000E-01  8.00000000E-01
  1.50000000E+00  8.00000000E-01  8.00000000E-01  1.50000000E+00  8.00000000E-01
  8.00000000E-01  1.50000000E+00  8.00000000E-01  8.00000000E-01  1.50000000E+00
  8.00000000E-01  8.00000000E-01  1.50000000E+00  8.00000000E-01  8.00000000E-01
  1.50000000E+00  8.00000000E-01  8.00000000E-01  1.50000000E+00  8.00000000E-01
  8.00000000E-01  1.50000000E+00  8.00000000E-01  8.00000000E-01  1.50000000E+00
  8.00000000E-01  8.00000000E-01  1.50000000E+00  8.00000000E-01  8.00000000E-01
  1.50000000E+00  8.00000000E-01  8.00000000E-01  1.50000000E+00  8.00000000E-01
  8.00000000E-01  1.50000000E+00  8.00000000E-01  8.00000000E-01  1.50000000E+00
  8.00000000E-01  8.00000000E-01  1.50000000E+00  8.00000000E-01  8.00000000E-01
  1.50000000E+00  8.00000000E-01  8.00000000E-01  1.50000000E+00  8.00000000E-01
  8.00000000E-01  1.50000000E+00  8.00000000E-01  8.00000000E-01  1.50000000E+00
  8.00000000E-01  8.00000000E-01  1.50000000E+00  8.00000000E-01  8.00000000E-01
  1.50000000E+00  8.00000000E-01  8.00000000E-01  1.50000000E+00  8.00000000E-01
  8.00000000E-01  1.50000000E+00  8.00000000E-01  8.00000000E-01  1.50000000E+00
  8.00000000E-01  8.00000000E-01  1.50000000E+00  8.00000000E-01  8.00000000E-01
  1.50000000E+00  8.00000000E-01  8.00000000E-01  1.50000000E+00  8.00000000E-01
  8.00000000E-01  1.50000000E+00  8.00000000E-01  8.00000000E-01  1.50000000E+00
  8.00000000E-01  8.00000000E-01  1.50000000E+00  8.00000000E-01  8.00000000E-01
  1.50000000E+00  8.00000000E-01  8.00000000E-01  1.50000000E+00  8.00000000E-01
  8.00000000E-01  1.50000000E+00  8.00000000E-01  8.00000000E-01  1.50000000E+00
  8.00000000E-01  8.00000000E-01  1.50000000E+00  8.00000000E-01  8.00000000E-01
  1.50000000E+00  8.00000000E-01  8.00000000E-01  1.50000000E+00  8.00000000E-01
  8.00000000E-01  1.50000000E+00  8.00000000E-01  8.00000000E-01  1.50000000E+00
  8.00000000E-01  8.00000000E-01  1.50000000E+00  8.00000000E-01  8.00000000E-01
  1.50000000E+00  8.00000000E-01  8.00000000E-01  1.50000000E+00  8.00000000E-01
  8.00000000E-01  1.50000000E+00  8.00000000E-01  8.00000000E-01  1.50000000E+00
  8.00000000E-01  8.00000000E-01  1.50000000E+00  8.00000000E-01  8.00000000E-01
  1.50000000E+00  8.00000000E-01  8.00000000E-01  1.50000000E+00  8.00000000E-01
  8.00000000E-01  1.50000000E+00  8.00000000E-01  8.00000000E-01  1.50000000E+00
  8.00000000E-01  8.00000000E-01  1.50000000E+00  8.00000000E-01  8.00000000E-01
  1.50000000E+00  8.00000000E-01  8.00000000E-01  1.50000000E+00  8.00000000E-01
  8.00000000E-01  1.50000000E+00  8.00000000E-01  8.00000000E-01  1.50000000E+00
  8.00000000E-01  8.00000000E-01  1.50000000E+00  8.00000000E-01  8.00000000E-01
  1.50000000E+00  8.00000000E-01  8.00000000E-01  1.50000000E+00  8.00000000E-01
  8.00000000E-01  1.50000000E+00  8.00000000E-01  8.00000000E-01  1.50000000E+00
  8.00000000E-01  8.00000000E-01  1.50000000E+00  8.00000000E-01  8.00000000E-01
  1.50000000E+00  8.00000000E-01  8.00000000E-01  1.50000000E+00  8.00000000E-01
  8.00000000E-01  1.50000000E+00  8.00000000E-01  8.00000000E-01  1.50000000E+00
  8.00000000E-01  8.00000000E-01  1.50000000E+00  8.00000000E-01  8.00000000E-01
  1.50000000E+00  8.00000000E-01  8.00000000E-01  1.50000000E+00  8.00000000E-01
  8.00000000E-01  1.50000000E+00  8.00000000E-01  8.00000000E-01  1.50000000E+00
  8.00000000E-01  8.00000000E-01  1.50000000E+00  8.00000000E-01  8.00000000E-01
  1.50000000E+00  8.00000000E-01  8.00000000E-01  1.50000000E+00  8.00000000E-01
  8.00000000E-01  1.50000000E+00  8.00000000E-01  8.00000000E-01  1.50000000E+00
  8.00000000E-01  8.00000000E-01  1.50000000E+00  8.00000000E-01  8.00000000E-01
  1.50000000E+00  8.00000000E-01  8.00000000E-01  1.50000000E+00  8.00000000E-01
  8.00000000E-01  1.50000000E+00  8.00000000E-01  8.00000000E-01  1.50000000E+00
  8.00000000E-01  8.00000000E-01  1.50000000E+00  8.00000000E-01  8.00000000E-01
  1.50000000E+00  8.00000000E-01  8.00000000E-01  1.50000000E+00  8.00000000E-01
  8.00000000E-01  1.50000000E+00  8.00000000E-01  8.00000000E-01  1.50000000E+00
  8.00000000E-01  8.00000000E-01  1.50000000E+00  8.00000000E-01  8.00000000E-01
  1.50000000E+00  8.00000000E-01  8.00000000E-01  1.50000000E+00  8.00000000E-01
  8.00000000E-01  1.50000000E+00  8.00000000E-01  8.00000000E-01  1.50000000E+00
  8.00000000E-01  8.00000000E-01  1.50000000E+00  8.00000000E-01  8.00000000E-01
  1.50000000E+00  8.00000000E-01  8.00000000E-01  1.50000000E+00  8.00000000E-01
  8.00000000E-01  1.50000000E+00  8.00000000E-01  8.00000000E-01  1.50000000E+00
  8.00000000E-01  8.00000000E-01  1.50000000E+00  8.00000000E-01  8.00000000E-01
  1.50000000E+00  8.00000000E-01  8.00000000E-01  1.50000000E+00  8.00000000E-01
  8.00000000E-01  1.50000000E+00  8.00000000E-01  8.00000000E-01  1.50000000E+00
  8.00000000E-01  8.00000000E-01  1.50000000E+00  8.00000000E-01  8.00000000E-01
  1.50000000E+00  8.00000000E-01  8.00000000E-01  1.50000000E+00  8.00000000E-01
  8.00000000E-01  1.50000000E+00  8.00000000E-01  8.00000000E-01  1.50000000E+00
  8.00000000E-01  8.00000000E-01  1.50000000E+00  8.00000000E-01  8.00000000E-01
  1.50000000E+00  8.00000000E-01  8.00000000E-01  1.50000000E+00  8.00000000E-01
  8.00000000E-01  1.50000000E+00  8.00000000E-01  8.00000000E-01  1.50000000E+00
  8.00000000E-01  8.00000000E-01  1.50000000E+00  8.00000000E-01  8.00000000E-01
  1.50000000E+00  8.00000000E-01  8.00000000E-01  1.50000000E+00  8.00000000E-01
  8.00000000E-01  1.50000000E+00  8.00000000E-01  8.00000000E-01  1.50000000E+00
  8.00000000E-01  8.00000000E-01  1.50000000E+00  8.00000000E-01  8.00000000E-01
  1.50000000E+00  8.00000000E-01  8.00000000E-01  1.50000000E+00  8.00000000E-01
  8.00000000E-01  1.50000000E+00  8.00000000E-01  8.00000000E-01  1.50000000E+00
  8.00000000E-01  8.00000000E-01  1.50000000E+00  8.00000000E-01  8.00000000E-01
  1.50000000E+00  8.00000000E-01  8.00000000E-01  1.50000000E+00  8.00000000E-01
  8.00000000E-01  1.50000000E+00  8.00000000E-01  8.00000000E-01  1.50000000E+00
  8.00000000E-01  8.00000000E-01  1.50000000E+00  8.00000000E-01  8.00000000E-01
  1.50000000E+00  8.00000000E-01  8.00000000E-01  1.50000000E+00  8.00000000E-01
  8.00000000E-01  1.50000000E+00  8.00000000E-01  8.00000000E-01  1.50000000E+00
  8.00000000E-01  8.00000000E-01  1.50000000E+00  8.00000000E-01  8.00000000E-01
  1.50000000E+00  8.00000000E-01  8.00000000E-01  1.50000000E+00  8.00000000E-01
  8.00000000E-01  1.50000000E+00  8.00000000E-01  8.00000000E-01  1.50000000E+00
  8.00000000E-01  8.00000000E-01  1.50000000E+00  8.00000000E-01  8.00000000E-01
  1.50000000E+00  8.00000000E-01  8.00000000E-01  1.50000000E+00  8.00000000E-01
  8.00000000E-01  1.50000000E+00  8.00000000E-01  8.00000000E-01  1.50000000E+00
  8.00000000E-01  8.00000000E-01  1.50000000E+00  8.00000000E-01  8.00000000E-01
  1.50000000E+00  8.00000000E-01  8.00000000E-01  1.50000000E+00  8.00000000E-01
  8.00000000E-01  1.50000000E+00  8.00000000E-01  8.00000000E-01  1.50000000E+00
  8.00000000E-01  8.00000000E-01  1.50000000E+00  8.00000000E-01  8.00000000E-01
  1.50000000E+00  8.00000000E-01  8.00000000E-01  1.50000000E+00  8.00000000E-01
  8.00000000E-01  1.50000000E+00  8.00000000E-01  8.00000000E-01  1.50000000E+00
  8.00000000E-01  8.00000000E-01  1.50000000E+00  8.00000000E-01  8.00000000E-01
  1.50000000E+00  8.00000000E-01  8.00000000E-01  1.50000000E+00  8.00000000E-01
  8.00000000E-01  1.50000000E+00  8.00000000E-01  8.00000000E-01  1.50000000E+00
  8.00000000E-01  8.00000000E-01  1.50000000E+00  8.00000000E-01  8.00000000E-01
  1.50000000E+00  8.00000000E-01  8.00000000E-01  1.50000000E+00  8.00000000E-01
  8.00000000E-01  1.50000000E+00  8.00000000E-01  8.00000000E-01  1.50000000E+00
  8.00000000E-01  8.00000000E-01  1.50000000E+00  8.00000000E-01  8.00000000E-01
  1.50000000E+00  8.00000000E-01  8.00000000E-01  1.50000000E+00  8.00000000E-01
  8.00000000E-01  1.50000000E+00  8.00000000E-01  8.00000000E-01  1.50000000E+00
  8.00000000E-01  8.00000000E-01  1.50000000E+00  8.00000000E-01  8.00000000E-01
  1.50000000E+00  8.00000000E-01  8.00000000E-01  1.50000000E+00  8.00000000E-01
  8.00000000E-01  1.50000000E+00  8.00000000E-01  8.00000000E-01  1.50000000E+00
  8.00000000E-01  8.00000000E-01  1.50000000E+00  8.00000000E-01  8.00000000E-01
  1.50000000E+00  8.00000000E-01  8.00000000E-01  1.50000000E+00  8.00000000E-01
  8.00000000E-01  1.50000000E+00  8.00000000E-01  8.00000000E-01  1.50000000E+00
  8.00000000E-01  8.00000000E-01  1.50000000E+00  8.00000000E-01  8.00000000E-01
  1.50000000E+00  8.00000000E-01  8.00000000E-01  1.50000000E+00  8.00000000E-01
  8.00000000E-01  1.50000000E+00  8.00000000E-01  8.00000000E-01  1.50000000E+00
  8.00000000E-01  8.00000000E-01  1.50000000E+00  8.00000000E-01  8.00000000E-01
  1.50000000E+00  8.00000000E-01  8.00000000E-01  1.50000000E+00  8.00000000E-01
  8.00000000E-01  1.50000000E+00  8.00000000E-01  8.00000000E-01  1.50000000E+00
  8.00000000E-01  8.00000000E-01  1.50000000E+00  8.00000000E-01  8.00000000E-01
  1.50000000E+00  8.00000000E-01  8.00000000E-01  1.50000000E+00  8.00000000E-01
  8.00000000E-01  1.50000000E+00  8.00000000E-01  8.00000000E-01  1.50000000E+00
  8.00000000E-01  8.00000000E-01  1.50000000E+00  8.00000000E-01  8.00000000E-01
  1.50000000E+00  8.00000000E-01  8.00000000E-01  1.50000000E+00  8.00000000E-01
  8.00000000E-01  1.50000000E+00  8.00000000E-01  8.00000000E-01  1.50000000E+00
  8.00000000E-01  8.00000000E-01  1.50000000E+00  8.00000000E-01  8.00000000E-01
  1.50000000E+00  8.00000000E-01  8.00000000E-01  1.50000000E+00  8.00000000E-01
  8.00000000E-01  1.50000000E+00  8.00000000E-01  8.00000000E-01  1.50000000E+00
  8.00000000E-01  8.00000000E-01  1.50000000E+00  8.00000000E-01  8.00000000E-01
  1.50000000E+00  8.00000000E-01  8.00000000E-01  1.50000000E+00  8.00000000E-01
  8.00000000E-01  1.50000000E+00  8.00000000E-01  8.00000000E-01  1.50000000E+00
  8.00000000E-01  8.00000000E-01  1.50000000E+00  8.00000000E-01  8.00000000E-01
  1.50000000E+00  8.00000000E-01  8.00000000E-01  1.50000000E+00  8.00000000E-01
  8.00000000E-01  1.50000000E+00  8.00000000E-01  8.00000000E-01  1.50000000E+00
  8.00000000E-01  8.00000000E-01  1.50000000E+00  8.00000000E-01  8.00000000E-01
  1.50000000E+00  8.00000000E-01  8.00000000E-01  1.50000000E+00  8.00000000E-01
  8.00000000E-01  1.50000000E+00  8.00000000E-01  8.00000000E-01  1.50000000E+00
  8.00000000E-01  8.00000000E-01  1.50000000E+00  8.00000000E-01  8.00000000E-01
  1.50000000E+00  8.00000000E-01  8.00000000E-01  1.50000000E+00  8.00000000E-01
  8.00000000E-01  1.50000000E+00  8.00000000E-01  8.00000000E-01  1.50000000E+00
  8.00000000E-01  8.00000000E-01  1.50000000E+00  8.00000000E-01  8.00000000E-01
  1.50000000E+00  8.00000000E-01  8.00000000E-01  1.50000000E+00  8.00000000E-01
  8.00000000E-01  1.50000000E+00  8.00000000E-01  8.00000000E-01  1.50000000E+00
  8.00000000E-01  8.00000000E-01  1.50000000E+00  8.00000000E-01  8.00000000E-01
  1.50000000E+00  8.00000000E-01  8.00000000E-01  1.50000000E+00  8.00000000E-01
  8.00000000E-01  1.50000000E+00  8.00000000E-01  8.00000000E-01  1.50000000E+00
  8.00000000E-01  8.00000000E-01  1.50000000E+00  8.00000000E-01  8.00000000E-01
  1.50000000E+00  8.00000000E-01  8.00000000E-01  1.50000000E+00  8.00000000E-01
  8.00000000E-01  1.50000000E+00  8.00000000E-01  8.00000000E-01  1.50000000E+00
  8.00000000E-01  8.00000000E-01  1.50000000E+00  8.00000000E-01  8.00000000E-01
  1.50000000E+00  8.00000000E-01  8.00000000E-01  1.50000000E+00  8.00000000E-01
  8.00000000E-01  1.50000000E+00  8.00000000E-01  8.00000000E-01  1.50000000E+00
  8.00000000E-01  8.00000000E-01  1.50000000E+00  8.00000000E-01  8.00000000E-01
  1.50000000E+00  8.00000000E-01  8.00000000E-01  1.50000000E+00  8.00000000E-01
  8.00000000E-01  1.50000000E+00  8.00000000E-01  8.00000000E-01  1.50000000E+00
  8.00000000E-01  8.00000000E-01  1.50000000E+00  8.00000000E-01  8.00000000E-01
  1.50000000E+00  8.00000000E-01  8.00000000E-01  1.50000000E+00  8.00000000E-01
  8.00000000E-01  1.50000000E+00  8.00000000E-01  8.00000000E-01  1.50000000E+00
  8.00000000E-01  8.00000000E-01  1.50000000E+00  8.00000000E-01  8.00000000E-01
  1.50000000E+00  8.00000000E-01  8.00000000E-01  1.50000000E+00  8.00000000E-01
  8.00000000E-01  1.50000000E+00  8.00000000E-01  8.00000000E-01  1.50000000E+00
  8.00000000E-01  8.00000000E-01  1.50000000E+00  8.00000000E-01  8.00000000E-01
  1.50000000E+00  8.00000000E-01  8.00000000E-01  1.50000000E+00  8.00000000E-01
  8.00000000E-01  1.50000000E+00  8.00000000E-01  8.00000000E-01  1.50000000E+00
  8.00000000E-01  8.00000000E-01  1.50000000E+00  8.00000000E-01  8.00000000E-01
  1.50000000E+00  8.00000000E-01  8.00000000E-01  1.50000000E+00  8.00000000E-01
  8.00000000E-01  1.50000000E+00  8.00000000E-01  8.00000000E-01  1.50000000E+00
  8.00000000E-01  8.00000000E-01  1.50000000E+00  8.00000000E-01  8.00000000E-01
  1.50000000E+00  8.00000000E-01  8.00000000E-01  1.50000000E+00  8.00000000E-01
  8.00000000E-01  1.50000000E+00  8.00000000E-01  8.00000000E-01  1.50000000E+00
  8.00000000E-01  8.00000000E-01  1.50000000E+00  8.00000000E-01  8.00000000E-01
  1.50000000E+00  8.00000000E-01  8.00000000E-01  1.50000000E+00  8.00000000E-01
  8.00000000E-01  1.50000000E+00  8.00000000E-01  8.00000000E-01  1.50000000E+00
  8.00000000E-01  8.00000000E-01  1.50000000E+00  8.00000000E-01  8.00000000E-01
  1.50000000E+00  8.00000000E-01  8.00000000E-01  1.50000000E+00  8.00000000E-01
  8.00000000E-01  1.50000000E+00  8.00000000E-01  8.00000000E-01  1.50000000E+00
  8.00000000E-01  8.00000000E-01  1.50000000E+00  8.00000000E-01  8.00000000E-01
  1.50000000E+00  8.00000000E-01  8.00000000E-01  1.50000000E+00  8.00000000E-01
  8.00000000E-01  1.50000000E+00  8.00000000E-01  8.00000000E-01  1.50000000E+00
  8.00000000E-01  8.00000000E-01  1.50000000E+00  8.00000000E-01  8.00000000E-01
  1.50000000E+00  8.00000000E-01  8.00000000E-01  1.50000000E+00  8.00000000E-01
  8.00000000E-01  1.50000000E+00  8.00000000E-01  8.00000000E-01  1.50000000E+00
  8.00000000E-01  8.00000000E-01  1.50000000E+00  8.00000000E-01  8.00000000E-01
  1.50000000E+00  8.00000000E-01  8.00000000E-01  1.50000000E+00  8.00000000E-01
  8.00000000E-01  1.50000000E+00  8.00000000E-01  8.00000000E-01  1.50000000E+00
  8.00000000E-01  8.00000000E-01  1.50000000E+00  8.00000000E-01  8.00000000E-01
  1.50000000E+00  8.00000000E-01  8.00000000E-01  1.50000000E+00  8.00000000E-01
  8.00000000E-01  1.50000000E+00  8.00000000E-01  8.00000000E-01  1.50000000E+00
  8.00000000E-01  8.00000000E-01  1.50000000E+00  8.00000000E-01  8.00000000E-01
  1.50000000E+00  8.00000000E-01  8.00000000E-01  1.50000000E+00  8.00000000E-01
  8.00000000E-01  1.50000000E+00  8.00000000E-01  8.00000000E-01  1.50000000E+00
  8.00000000E-01  8.00000000E-01  1.50000000E+00  8.00000000E-01  8.00000000E-01
  1.50000000E+00  8.00000000E-01  8.00000000E-01  1.50000000E+00  8.00000000E-01
  8.00000000E-01  1.50000000E+00  8.00000000E-01  8.00000000E-01  1.50000000E+00
  8.00000000E-01  8.00000000E-01  1.50000000E+00  8.00000000E-01  8.00000000E-01
  1.50000000E+00  8.00000000E-01  8.00000000E-01  1.50000000E+00  8.00000000E-01
  8.00000000E-01  1.50000000E+00  8.00000000E-01  8.00000000E-01  1.50000000E+00
  8.00000000E-01  8.00000000E-01  1.50000000E+00  8.00000000E-01  8.00000000E-01
  1.50000000E+00  8.00000000E-01  8.00000000E-01  1.50000000E+00  8.00000000E-01
  8.00000000E-01  1.50000000E+00  8.00000000E-01  8.00000000E-01  1.50000000E+00
  8.00000000E-01  8.00000000E-01  1.50000000E+00  8.00000000E-01  8.00000000E-01
  1.50000000E+00  8.00000000E-01  8.00000000E-01  1.50000000E+00  8.00000000E-01
  8.00000000E-01  1.50000000E+00  8.00000000E-01  8.00000000E-01  1.50000000E+00
  8.00000000E-01  8.00000000E-01  1.50000000E+00  8.00000000E-01  8.00000000E-01
  1.50000000E+00  8.00000000E-01  8.00000000E-01  1.50000000E+00  8.00000000E-01
  8.00000000E-01  1.50000000E+00  8.00000000E-01  8.00000000E-01  1.50000000E+00
  8.00000000E-01  8.00000000E-01  1.50000000E+00  8.00000000E-01  8.00000000E-01
  1.50000000E+00  8.00000000E-01  8.00000000E-01  1.50000000E+00  8.00000000E-01
  8.00000000E-01  1.50000000E+00  8.00000000E-01  8.00000000E-01  1.50000000E+00
  8.00000000E-01  8.00000000E-01  1.50000000E+00  8.00000000E-01  8.00000000E-01
  1.50000000E+00  8.00000000E-01  8.00000000E-01  1.50000000E+00  8.00000000E-01
  8.00000000E-01  1.50000000E+00  8.00000000E-01  8.00000000E-01  1.50000000E+00
  8.00000000E-01  8.00000000E-01  1.50000000E+00  8.00000000E-01  8.00000000E-01
  1.50000000E+00  8.00000000E-01  8.00000000E-01  1.50000000E+00  8.00000000E-01
  8.00000000E-01  1.50000000E+00  8.00000000E-01  8.00000000E-01  1.50000000E+00
  8.00000000E-01  8.00000000E-01  1.50000000E+00  8.00000000E-01  8.00000000E-01
  1.50000000E+00  8.00000000E-01  8.00000000E-01  1.50000000E+00  8.00000000E-01
  8.00000000E-01  1.50000000E+00  8.00000000E-01  8.00000000E-01  1.50000000E+00
  8.00000000E-01  8.00000000E-01  1.50000000E+00  8.00000000E-01  8.00000000E-01
  1.50000000E+00  8.00000000E-01  8.00000000E-01  1.50000000E+00  8.00000000E-01
  8.00000000E-01  1.50000000E+00  8.00000000E-01  8.00000000E-01  1.50000000E+00
  8.00000000E-01  8.00000000E-01  1.50000000E+00  8.00000000E-01  8.00000000E-01
  1.50000000E+00  8.00000000E-01  8.00000000E-01  1.50000000E+00  8.00000000E-01
  8.00000000E-01  1.50000000E+00  8.00000000E-01  8.00000000E-01  1.50000000E+00
  8.00000000E-01  8.00000000E-01  1.50000000E+00  8.00000000E-01  8.00000000E-01
  1.50000000E+00  8.00000000E-01  8.00000000E-01  1.50000000E+00  8.00000000E-01
  8.00000000E-01  1.50000000E+00  8.00000000E-01  8.00000000E-01  1.50000000E+00
  8.00000000E-01  8.00000000E-01  1.50000000E+00  8.00000000E-01  8.00000000E-01
  1.50000000E+00  8.00000000E-01  8.00000000E-01  1.50000000E+00  8.00000000E-01
  8.00000000E-01  1.50000000E+00  8.00000000E-01  8.00000000E-01  1.50000000E+00
  8.00000000E-01  8.00000000E-01  1.50000000E+00  8.00000000E-01  8.00000000E-01
  1.50000000E+00  8.00000000E-01  8.00000000E-01  1.50000000E+00  8.00000000E-01
  8.00000000E-01  1.50000000E+00  8.00000000E-01  8.00000000E-01  1.50000000E+00
  8.00000000E-01  8.00000000E-01  1.50000000E+00  8.00000000E-01  8.00000000E-01
  1.50000000E+00  8.00000000E-01  8.00000000E-01  1.50000000E+00  8.00000000E-01
  8.00000000E-01  1.50000000E+00  8.00000000E-01  8.00000000E-01  1.50000000E+00
  8.00000000E-01  8.00000000E-01  1.50000000E+00  8.00000000E-01  8.00000000E-01
  1.50000000E+00  8.00000000E-01  8.00000000E-01  1.50000000E+00  8.00000000E-01
  8.00000000E-01  1.50000000E+00  8.00000000E-01  8.00000000E-01  1.50000000E+00
  8.00000000E-01  8.00000000E-01  1.50000000E+00  8.00000000E-01  8.00000000E-01
  1.50000000E+00  8.00000000E-01  8.00000000E-01  1.50000000E+00  8.00000000E-01
  8.00000000E-01  1.50000000E+00  8.00000000E-01  8.00000000E-01  1.50000000E+00
  8.00000000E-01  8.00000000E-01  1.50000000E+00  8.00000000E-01  8.00000000E-01
  1.50000000E+00  8.00000000E-01  8.00000000E-01  1.50000000E+00  8.00000000E-01
  8.00000000E-01  1.50000000E+00  8.00000000E-01  8.00000000E-01  1.50000000E+00
  8.00000000E-01  8.00000000E-01  1.50000000E+00  8.00000000E-01  8.00000000E-01
  1.50000000E+00  8.00000000E-01  8.00000000E-01  1.50000000E+00  8.00000000E-01
  8.00000000E-01  1.50000000E+00  8.00000000E-01  8.00000000E-01  1.50000000E+00
  8.00000000E-01  8.00000000E-01  1.50000000E+00  8.00000000E-01  8.00000000E-01
  1.50000000E+00  8.00000000E-01  8.00000000E-01  1.50000000E+00  8.00000000E-01
  8.00000000E-01  1.50000000E+00  8.00000000E-01  8.00000000E-01  1.50000000E+00
  8.00000000E-01  8.00000000E-01  1.50000000E+00  8.00000000E-01  8.00000000E-01
  1.50000000E+00  8.00000000E-01  8.00000000E-01  1.50000000E+00  8.00000000E-01
  8.00000000E-01  1.50000000E+00  8.00000000E-01  8.00000000E-01  1.50000000E+00
  8.00000000E-01  8.00000000E-01  1.50000000E+00  8.00000000E-01  8.00000000E-01
  1.50000000E+00  8.00000000E-01  8.00000000E-01  1.50000000E+00  8.00000000E-01
  8.00000000E-01  1.50000000E+00  8.00000000E-01  8.00000000E-01  1.50000000E+00
  8.00000000E-01  8.00000000E-01  1.50000000E+00  8.00000000E-01  8.00000000E-01
  1.50000000E+00  8.00000000E-01  8.00000000E-01  1.50000000E+00  8.00000000E-01
  8.00000000E-01  1.50000000E+00  8.00000000E-01  8.00000000E-01  1.50000000E+00
  8.00000000E-01  8.00000000E-01  1.50000000E+00  8.00000000E-01  8.00000000E-01
  1.50000000E+00  8.00000000E-01  8.00000000E-01  1.50000000E+00  8.00000000E-01
  8.00000000E-01  1.50000000E+00  8.00000000E-01  8.00000000E-01  1.50000000E+00
  8.00000000E-01  8.00000000E-01  1.50000000E+00  8.00000000E-01  8.00000000E-01
  1.50000000E+00  8.00000000E-01  8.00000000E-01  1.50000000E+00  8.00000000E-01
  8.00000000E-01  1.50000000E+00  8.00000000E-01  8.00000000E-01  1.50000000E+00
  8.00000000E-01  8.00000000E-01  1.50000000E+00  8.00000000E-01  8.00000000E-01
  1.50000000E+00  8.00000000E-01  8.00000000E-01  1.50000000E+00  8.00000000E-01
  8.00000000E-01  1.50000000E+00  8.00000000E-01  8.00000000E-01  1.50000000E+00
  8.00000000E-01  8.00000000E-01  1.50000000E+00  8.00000000E-01  8.00000000E-01
  1.50000000E+00  8.00000000E-01  8.00000000E-01  1.50000000E+00  8.00000000E-01
  8.00000000E-01  1.50000000E+00  8.00000000E-01  8.00000000E-01  1.50000000E+00
  8.00000000E-01  8.00000000E-01  1.50000000E+00  8.00000000E-01  8.00000000E-01
  1.50000000E+00  8.00000000E-01  8.00000000E-01  1.50000000E+00  8.00000000E-01
  8.00000000E-01  1.50000000E+00  8.00000000E-01  8.00000000E-01  1.50000000E+00
  8.00000000E-01  8.00000000E-01  1.50000000E+00  8.00000000E-01  8.00000000E-01
  1.50000000E+00  8.00000000E-01  8.00000000E-01  1.50000000E+00  8.00000000E-01
  8.00000000E-01  1.50000000E+00  8.00000000E-01  8.00000000E-01  1.50000000E+00
  8.00000000E-01  8.00000000E-01  1.50000000E+00  8.00000000E-01  8.00000000E-01
  1.50000000E+00  8.00000000E-01  8.00000000E-01  1.50000000E+00  8.00000000E-01
  8.00000000E-01  1.50000000E+00  8.00000000E-01  8.00000000E-01  1.50000000E+00
  8.00000000E-01  8.00000000E-01  1.50000000E+00  8.00000000E-01  8.00000000E-01
  1.50000000E+00  8.00000000E-01  8.00000000E-01  1.50000000E+00  8.00000000E-01
  8.00000000E-01  1.50000000E+00  8.00000000E-01  8.00000000E-01  1.50000000E+00
  8.00000000E-01  8.00000000E-01  1.50000000E+00  8.00000000E-01  8.00000000E-01
  1.50000000E+00  8.00000000E-01  8.00000000E-01  1.50000000E+00  8.00000000E-01
  8.00000000E-01  1.50000000E+00  8.00000000E-01  8.00000000E-01  1.50000000E+00
  8.00000000E-01  8.00000000E-01  1.50000000E+00  8.00000000E-01  8.00000000E-01
  1.50000000E+00  8.00000000E-01  8.00000000E-01  1.50000000E+00  8.00000000E-01
  8.00000000E-01  1.50000000E+00  8.00000000E-01  8.00000000E-01  1.50000000E+00
  8.00000000E-01  8.00000000E-01  1.50000000E+00  8.00000000E-01  8.00000000E-01
  1.50000000E+00  8.00000000E-01  8.00000000E-01  1.50000000E+00  8.00000000E-01
  8.00000000E-01  1.50000000E+00  8.00000000E-01  8.00000000E-01  1.50000000E+00
  8.00000000E-01  8.00000000E-01  1.50000000E+00  8.00000000E-01  8.00000000E-01
  1.50000000E+00  8.00000000E-01  8.00000000E-01  1.50000000E+00  8.00000000E-01
  8.00000000E-01  1.50000000E+00  8.00000000E-01  8.00000000E-01  1.50000000E+00
  8.00000000E-01  8.00000000E-01  1.50000000E+00  8.00000000E-01  8.00000000E-01
  1.50000000E+00  8.00000000E-01  8.00000000E-01  1.50000000E+00  8.00000000E-01
  8.00000000E-01  1.50000000E+00  8.00000000E-01  8.00000000E-01  1.50000000E+00
  8.00000000E-01  8.00000000E-01  1.50000000E+00  8.00000000E-01  8.00000000E-01
  1.50000000E+00  8.00000000E-01  8.00000000E-01  1.50000000E+00  8.00000000E-01
  8.00000000E-01  1.50000000E+00  8.00000000E-01  8.00000000E-01  1.50000000E+00
  8.00000000E-01  8.00000000E-01  1.50000000E+00  8.00000000E-01  8.00000000E-01
  1.50000000E+00  8.00000000E-01  8.00000000E-01  1.50000000E+00  8.00000000E-01
  8.00000000E-01  1.50000000E+00  8.00000000E-01  8.00000000E-01  1.50000000E+00
  8.00000000E-01  8.00000000E-01  1.50000000E+00  8.00000000E-01  8.00000000E-01
  1.50000000E+00  8.00000000E-01  8.00000000E-01  1.50000000E+00  8.00000000E-01
  8.00000000E-01  1.50000000E+00  8.00000000E-01  8.00000000E-01  1.50000000E+00
  8.00000000E-01  8.00000000E-01  1.50000000E+00  8.00000000E-01  8.00000000E-01
  1.50000000E+00  8.00000000E-01  8.00000000E-01  1.50000000E+00  8.00000000E-01
  8.00000000E-01  1.50000000E+00  8.00000000E-01  8.00000000E-01  1.50000000E+00
  8.00000000E-01  8.00000000E-01  1.50000000E+00  8.00000000E-01  8.00000000E-01
  1.50000000E+00  8.00000000E-01  8.00000000E-01  1.50000000E+00  8.00000000E-01
  8.00000000E-01  1.50000000E+00  8.00000000E-01  8.00000000E-01  1.50000000E+00
  8.00000000E-01  8.00000000E-01  1.50000000E+00  8.00000000E-01  8.00000000E-01
  1.50000000E+00  8.00000000E-01  8.00000000E-01  1.50000000E+00  8.00000000E-01
  8.00000000E-01  1.50000000E+00  8.00000000E-01  8.00000000E-01  1.50000000E+00
  8.00000000E-01  8.00000000E-01  1.50000000E+00  8.00000000E-01  8.00000000E-01
  1.50000000E+00  8.00000000E-01  8.00000000E-01  1.50000000E+00  8.00000000E-01
  8.00000000E-01  1.50000000E+00  8.00000000E-01  8.00000000E-01  1.50000000E+00
  8.00000000E-01  8.00000000E-01  1.50000000E+00  8.00000000E-01  8.00000000E-01
  1.50000000E+00  8.00000000E-01  8.00000000E-01  1.50000000E+00  8.00000000E-01
  8.00000000E-01  1.50000000E+00  8.00000000E-01  8.00000000E-01  1.50000000E+00
  8.00000000E-01  8.00000000E-01  1.50000000E+00  8.00000000E-01  8.00000000E-01
  1.50000000E+00  8.00000000E-01  8.00000000E-01  1.50000000E+00  8.00000000E-01
  8.00000000E-01  1.50000000E+00  8.00000000E-01  8.00000000E-01  1.50000000E+00
  8.00000000E-01  8.00000000E-01  1.50000000E+00  8.00000000E-01  8.00000000E-01
  1.50000000E+00  8.00000000E-01  8.00000000E-01  1.50000000E+00  8.00000000E-01
  8.00000000E-01  1.50000000E+00  8.00000000E-01  8.00000000E-01  1.50000000E+00
  8.00000000E-01  8.00000000E-01  1.50000000E+00  8.00000000E-01  8.00000000E-01
  1.50000000E+00  8.00000000E-01  8.00000000E-01  1.50000000E+00  8.00000000E-01
  8.00000000E-01  1.50000000E+00  8.00000000E-01  8.00000000E-01  1.50000000E+00
  8.00000000E-01  8.00000000E-01  1.50000000E+00  8.00000000E-01  8.00000000E-01
  1.50000000E+00  8.00000000E-01  8.00000000E-01  1.50000000E+00  8.00000000E-01
  8.00000000E-01  1.50000000E+00  8.00000000E-01  8.00000000E-01  1.50000000E+00
  8.00000000E-01  8.00000000E-01  1.50000000E+00  8.00000000E-01  8.00000000E-01
  1.50000000E+00  8.00000000E-01  8.00000000E-01  1.50000000E+00  8.00000000E-01
  8.00000000E-01  1.50000000E+00  8.00000000E-01  8.00000000E-01  1.50000000E+00
  8.00000000E-01  8.00000000E-01  1.50000000E+00  8.00000000E-01  8.00000000E-01
  1.50000000E+00  8.00000000E-01  8.00000000E-01  1.50000000E+00  8.00000000E-01
  8.00000000E-01  1.50000000E+00  8.00000000E-01  8.00000000E-01  1.50000000E+00
  8.00000000E-01  8.00000000E-01  1.50000000E+00  8.00000000E-01  8.00000000E-01
  1.50000000E+00  8.00000000E-01  8.00000000E-01  1.50000000E+00  8.00000000E-01
  8.00000000E-01  1.50000000E+00  8.00000000E-01  8.00000000E-01  1.50000000E+00
  8.00000000E-01  8.00000000E-01  1.50000000E+00  8.00000000E-01  8.00000000E-01
  1.50000000E+00  8.00000000E-01  8.00000000E-01  1.50000000E+00  8.00000000E-01
  8.00000000E-01  1.50000000E+00  8.00000000E-01  8.00000000E-01  1.50000000E+00
  8.00000000E-01  8.00000000E-01  1.50000000E+00  8.00000000E-01  8.00000000E-01
  1.50000000E+00  8.00000000E-01  8.00000000E-01  1.50000000E+00  8.00000000E-01
  8.00000000E-01  1.50000000E+00  8.00000000E-01  8.00000000E-01  1.50000000E+00
  8.00000000E-01  8.00000000E-01  1.50000000E+00  8.00000000E-01  8.00000000E-01
  1.50000000E+00  8.00000000E-01  8.00000000E-01  1.50000000E+00  8.00000000E-01
  8.00000000E-01  1.50000000E+00  8.00000000E-01  8.00000000E-01  1.50000000E+00
  8.00000000E-01  8.00000000E-01  1.50000000E+00  8.00000000E-01  8.00000000E-01
  1.50000000E+00  8.00000000E-01  8.00000000E-01  1.50000000E+00  8.00000000E-01
  8.00000000E-01  1.50000000E+00  8.00000000E-01  8.00000000E-01  1.50000000E+00
  8.00000000E-01  8.00000000E-01  1.50000000E+00  8.00000000E-01  8.00000000E-01
  1.50000000E+00  8.00000000E-01  8.00000000E-01  1.50000000E+00  8.00000000E-01
  8.00000000E-01  1.50000000E+00  8.00000000E-01  8.00000000E-01  1.50000000E+00
  8.00000000E-01  8.00000000E-01  1.50000000E+00  8.00000000E-01  8.00000000E-01
  1.50000000E+00  8.00000000E-01  8.00000000E-01  1.50000000E+00  8.00000000E-01
  8.00000000E-01  1.50000000E+00  8.00000000E-01  8.00000000E-01  1.50000000E+00
  8.00000000E-01  8.00000000E-01  1.50000000E+00  8.00000000E-01  8.00000000E-01
  1.50000000E+00  8.00000000E-01  8.00000000E-01  1.50000000E+00  8.00000000E-01
  8.00000000E-01  1.50000000E+00  8.00000000E-01  8.00000000E-01  1.50000000E+00
  8.00000000E-01  8.00000000E-01  1.50000000E+00  8.00000000E-01  8.00000000E-01
  1.50000000E+00  8.00000000E-01  8.00000000E-01  1.50000000E+00  8.00000000E-01
  8.00000000E-01  1.50000000E+00  8.00000000E-01  8.00000000E-01  1.50000000E+00
  8.00000000E-01  8.00000000E-01  1.50000000E+00  8.00000000E-01  8.00000000E-01
  1.50000000E+00  8.00000000E-01  8.00000000E-01  1.50000000E+00  8.00000000E-01
  8.00000000E-01  1.50000000E+00  8.00000000E-01  8.00000000E-01  1.50000000E+00
  8.00000000E-01  8.00000000E-01  1.50000000E+00  8.00000000E-01  8.00000000E-01
  1.50000000E+00  8.00000000E-01  8.00000000E-01  1.50000000E+00  8.00000000E-01
  8.00000000E-01  1.50000000E+00  8.00000000E-01  8.00000000E-01  1.50000000E+00
  8.00000000E-01  8.00000000E-01  1.50000000E+00  8.00000000E-01  8.00000000E-01
  1.50000000E+00  8.00000000E-01  8.00000000E-01  1.50000000E+00  8.00000000E-01
  8.00000000E-01  1.50000000E+00  8.00000000E-01  8.00000000E-01  1.50000000E+00
  8.00000000E-01  8.00000000E-01  1.50000000E+00  8.00000000E-01  8.00000000E-01
  1.50000000E+00  8.00000000E-01  8.00000000E-01  1.50000000E+00  8.00000000E-01
  8.00000000E-01  1.50000000E+00  8.00000000E-01  8.00000000E-01  1.50000000E+00
  8.00000000E-01  8.00000000E-01  1.50000000E+00  8.00000000E-01  8.00000000E-01
  1.50000000E+00  8.00000000E-01  8.00000000E-01  1.50000000E+00  8.00000000E-01
  8.00000000E-01  1.50000000E+00  8.00000000E-01  8.00000000E-01  1.50000000E+00
  8.00000000E-01  8.00000000E-01  1.50000000E+00  8.00000000E-01  8.00000000E-01
  1.50000000E+00  8.00000000E-01  8.00000000E-01  1.50000000E+00  8.00000000E-01
  8.00000000E-01  1.50000000E+00  8.00000000E-01  8.00000000E-01  1.50000000E+00
  8.00000000E-01  8.00000000E-01  1.50000000E+00  8.00000000E-01  8.00000000E-01
  1.50000000E+00  8.00000000E-01  8.00000000E-01  1.50000000E+00  8.00000000E-01
  8.00000000E-01  1.50000000E+00  8.00000000E-01  8.00000000E-01  1.50000000E+00
  8.00000000E-01  8.00000000E-01  1.50000000E+00  8.00000000E-01  8.00000000E-01
  1.50000000E+00  8.00000000E-01  8.00000000E-01  1.50000000E+00  8.00000000E-01
  8.00000000E-01  1.50000000E+00  8.00000000E-01  8.00000000E-01  1.50000000E+00
  8.00000000E-01  8.00000000E-01  1.50000000E+00  8.00000000E-01  8.00000000E-01
  1.50000000E+00  8.00000000E-01  8.00000000E-01  1.50000000E+00  8.00000000E-01
  8.00000000E-01  1.50000000E+00  8.00000000E-01  8.00000000E-01  1.50000000E+00
  8.00000000E-01  8.00000000E-01  1.50000000E+00  8.00000000E-01  8.00000000E-01
  1.50000000E+00  8.00000000E-01  8.00000000E-01  1.50000000E+00  8.00000000E-01
  8.00000000E-01  1.50000000E+00  8.00000000E-01  8.00000000E-01  1.50000000E+00
  8.00000000E-01  8.00000000E-01  1.50000000E+00  8.00000000E-01  8.00000000E-01
  1.50000000E+00  8.00000000E-01  8.00000000E-01  1.50000000E+00  8.00000000E-01
  8.00000000E-01  1.50000000E+00  8.00000000E-01  8.00000000E-01  1.50000000E+00
  8.00000000E-01  8.00000000E-01  1.50000000E+00  8.00000000E-01  8.00000000E-01
  1.50000000E+00  8.00000000E-01  8.00000000E-01  1.50000000E+00  8.00000000E-01
  8.00000000E-01  1.50000000E+00  8.00000000E-01  8.00000000E-01  1.50000000E+00
  8.00000000E-01  8.00000000E-01  1.50000000E+00  8.00000000E-01  8.00000000E-01
  1.50000000E+00  8.00000000E-01  8.00000000E-01  1.50000000E+00  8.00000000E-01
  8.00000000E-01  1.50000000E+00  8.00000000E-01  8.00000000E-01  1.50000000E+00
  8.00000000E-01  8.00000000E-01  1.50000000E+00  8.00000000E-01  8.00000000E-01
  1.50000000E+00  8.00000000E-01  8.00000000E-01  1.50000000E+00  8.00000000E-01
  8.00000000E-01  1.50000000E+00  8.00000000E-01  8.00000000E-01  1.50000000E+00
  8.00000000E-01  8.00000000E-01  1.50000000E+00  8.00000000E-01  8.00000000E-01
  1.50000000E+00  8.00000000E-01  8.00000000E-01  1.50000000E+00  8.00000000E-01
  8.00000000E-01  1.50000000E+00  8.00000000E-01  8.00000000E-01  1.50000000E+00
  8.00000000E-01  8.00000000E-01  1.50000000E+00  8.00000000E-01  8.00000000E-01
  1.50000000E+00  8.00000000E-01  8.00000000E-01  1.50000000E+00  8.00000000E-01
  8.00000000E-01  1.50000000E+00  8.00000000E-01  8.00000000E-01  1.50000000E+00
  8.00000000E-01  8.00000000E-01  1.50000000E+00  8.00000000E-01  8.00000000E-01
  1.50000000E+00  8.00000000E-01  8.00000000E-01  1.50000000E+00  8.00000000E-01
  8.00000000E-01  1.50000000E+00  8.00000000E-01  8.00000000E-01  1.50000000E+00
  8.00000000E-01  8.00000000E-01  1.50000000E+00  8.00000000E-01  8.00000000E-01
  1.50000000E+00  8.00000000E-01  8.00000000E-01  1.50000000E+00  8.00000000E-01
  8.00000000E-01  1.50000000E+00  8.00000000E-01  8.00000000E-01  1.50000000E+00
  8.00000000E-01  8.00000000E-01  1.50000000E+00  8.00000000E-01  8.00000000E-01
  1.50000000E+00  8.00000000E-01  8.00000000E-01  1.50000000E+00  8.00000000E-01
  8.00000000E-01  1.50000000E+00  8.00000000E-01  8.00000000E-01  1.50000000E+00
  8.00000000E-01  8.00000000E-01  1.50000000E+00  8.00000000E-01  8.00000000E-01
  1.50000000E+00  8.00000000E-01  8.00000000E-01  1.50000000E+00  8.00000000E-01
  8.00000000E-01  1.50000000E+00  8.00000000E-01  8.00000000E-01  1.50000000E+00
  8.00000000E-01  8.00000000E-01  1.50000000E+00  8.00000000E-01  8.00000000E-01
  1.50000000E+00  8.00000000E-01  8.00000000E-01  1.50000000E+00  8.00000000E-01
  8.00000000E-01  1.50000000E+00  8.00000000E-01  8.00000000E-01  1.50000000E+00
  8.00000000E-01  8.00000000E-01  1.50000000E+00  8.00000000E-01  8.00000000E-01
  1.50000000E+00  8.00000000E-01  8.00000000E-01  1.50000000E+00  8.00000000E-01
  8.00000000E-01  1.50000000E+00  8.00000000E-01  8.00000000E-01  1.50000000E+00
  8.00000000E-01  8.00000000E-01  1.50000000E+00  8.00000000E-01  8.00000000E-01
  1.50000000E+00  8.00000000E-01  8.00000000E-01  1.50000000E+00  8.00000000E-01
  8.00000000E-01  1.50000000E+00  8.00000000E-01  8.00000000E-01  1.50000000E+00
  8.00000000E-01  8.00000000E-01  1.50000000E+00  8.00000000E-01  8.00000000E-01
  1.50000000E+00  8.00000000E-01  8.00000000E-01  1.50000000E+00  8.00000000E-01
  8.00000000E-01  1.50000000E+00  8.00000000E-01  8.00000000E-01  1.50000000E+00
  8.00000000E-01  8.00000000E-01  1.50000000E+00  8.00000000E-01  8.00000000E-01
  1.50000000E+00  8.00000000E-01  8.00000000E-01  1.50000000E+00  8.00000000E-01
  8.00000000E-01  1.50000000E+00  8.00000000E-01  8.00000000E-01  1.50000000E+00
  8.00000000E-01  8.00000000E-01  1.50000000E+00  8.00000000E-01  8.00000000E-01
  1.50000000E+00  8.00000000E-01  8.00000000E-01  1.50000000E+00  8.00000000E-01
  8.00000000E-01  1.50000000E+00  8.00000000E-01  8.00000000E-01  1.50000000E+00
  8.00000000E-01  8.00000000E-01  1.50000000E+00  8.00000000E-01  8.00000000E-01
  1.50000000E+00  8.00000000E-01  8.00000000E-01  1.50000000E+00  8.00000000E-01
  8.00000000E-01  1.50000000E+00  8.00000000E-01  8.00000000E-01  1.50000000E+00
  8.00000000E-01  8.00000000E-01  1.50000000E+00  8.00000000E-01  8.00000000E-01
  1.50000000E+00  8.00000000E-01  8.00000000E-01  1.50000000E+00  8.00000000E-01
  8.00000000E-01  1.50000000E+00  8.00000000E-01  8.00000000E-01  1.50000000E+00
  8.00000000E-01  8.00000000E-01  1.50000000E+00  8.00000000E-01  8.00000000E-01
  1.50000000E+00  8.00000000E-01  8.00000000E-01  1.50000000E+00  8.00000000E-01
  8.00000000E-01  1.50000000E+00  8.00000000E-01  8.00000000E-01  1.50000000E+00
  8.00000000E-01  8.00000000E-01  1.50000000E+00  8.00000000E-01  8.00000000E-01
  1.50000000E+00  8.00000000E-01  8.00000000E-01  1.50000000E+00  8.00000000E-01
  8.00000000E-01  1.50000000E+00  8.00000000E-01  8.00000000E-01  1.50000000E+00
  8.00000000E-01  8.00000000E-01  1.50000000E+00  8.00000000E-01  8.00000000E-01
  1.50000000E+00  8.00000000E-01  8.00000000E-01  1.50000000E+00  8.00000000E-01
  8.00000000E-01  1.50000000E+00  8.00000000E-01  8.00000000E-01  1.50000000E+00
  8.00000000E-01  8.00000000E-01  1.50000000E+00  8.00000000E-01  8.00000000E-01
  1.50000000E+00  8.00000000E-01  8.00000000E-01  1.50000000E+00  8.00000000E-01
  8.00000000E-01  1.50000000E+00  8.00000000E-01  8.00000000E-01  1.50000000E+00
  8.00000000E-01  8.00000000E-01  1.50000000E+00  8.00000000E-01  8.00000000E-01
  1.50000000E+00  8.00000000E-01  8.00000000E-01  1.50000000E+00  8.00000000E-01
  8.00000000E-01  1.50000000E+00  8.00000000E-01  8.00000000E-01  1.50000000E+00
  8.00000000E-01  8.00000000E-01  1.50000000E+00  8.00000000E-01  8.00000000E-01
  1.50000000E+00  8.00000000E-01  8.00000000E-01  1.50000000E+00  8.00000000E-01
  8.00000000E-01  1.50000000E+00  8.00000000E-01  8.00000000E-01  1.50000000E+00
  8.00000000E-01  8.00000000E-01  1.50000000E+00  8.00000000E-01  8.00000000E-01
  1.50000000E+00  8.00000000E-01  8.00000000E-01  1.50000000E+00  8.00000000E-01
  8.00000000E-01  1.50000000E+00  8.00000000E-01  8.00000000E-01  1.50000000E+00
  8.00000000E-01  8.00000000E-01  1.50000000E+00  8.00000000E-01  8.00000000E-01
  1.50000000E+00  8.00000000E-01  8.00000000E-01  1.50000000E+00  8.00000000E-01
  8.00000000E-01  1.50000000E+00  8.00000000E-01  8.00000000E-01  1.50000000E+00
  8.00000000E-01  8.00000000E-01  1.50000000E+00  8.00000000E-01  8.00000000E-01
  1.50000000E+00  8.00000000E-01  8.00000000E-01  1.50000000E+00  8.00000000E-01
  8.00000000E-01  1.50000000E+00  8.00000000E-01  8.00000000E-01  1.50000000E+00
  8.00000000E-01  8.00000000E-01  1.50000000E+00  8.00000000E-01  8.00000000E-01
  1.50000000E+00  8.00000000E-01  8.00000000E-01  1.50000000E+00  8.00000000E-01
  8.00000000E-01  1.50000000E+00  8.00000000E-01  8.00000000E-01  1.50000000E+00
  8.00000000E-01  8.00000000E-01  1.50000000E+00  8.00000000E-01  8.00000000E-01
  1.50000000E+00  8.00000000E-01  8.00000000E-01  1.50000000E+00  8.00000000E-01
  8.00000000E-01  1.50000000E+00  8.00000000E-01  8.00000000E-01  1.50000000E+00
  8.00000000E-01  8.00000000E-01  1.50000000E+00  8.00000000E-01  8.00000000E-01
  1.50000000E+00  8.00000000E-01  8.00000000E-01  1.50000000E+00  8.00000000E-01
  8.00000000E-01  1.50000000E+00  8.00000000E-01  8.00000000E-01  1.50000000E+00
  8.00000000E-01  8.00000000E-01  1.50000000E+00  8.00000000E-01  8.00000000E-01
  1.50000000E+00  8.00000000E-01  8.00000000E-01  1.50000000E+00  8.00000000E-01
  8.00000000E-01  1.50000000E+00  8.00000000E-01  8.00000000E-01  1.50000000E+00
  8.00000000E-01  8.00000000E-01  1.50000000E+00  8.00000000E-01  8.00000000E-01
  1.50000000E+00  8.00000000E-01  8.00000000E-01  1.50000000E+00  8.00000000E-01
  8.00000000E-01  1.50000000E+00  8.00000000E-01  8.00000000E-01  1.50000000E+00
  8.00000000E-01  8.00000000E-01  1.50000000E+00  8.00000000E-01  8.00000000E-01
  1.50000000E+00  8.00000000E-01  8.00000000E-01  1.50000000E+00  8.00000000E-01
  8.00000000E-01  1.50000000E+00  8.00000000E-01  8.00000000E-01  1.50000000E+00
  8.00000000E-01  8.00000000E-01  1.50000000E+00  8.00000000E-01  8.00000000E-01
  1.50000000E+00  8.00000000E-01  8.00000000E-01  1.50000000E+00  8.00000000E-01
  8.00000000E-01  1.50000000E+00  8.00000000E-01  8.00000000E-01  1.50000000E+00
  8.00000000E-01  8.00000000E-01  1.50000000E+00  8.00000000E-01  8.00000000E-01
  1.50000000E+00  8.00000000E-01  8.00000000E-01  1.50000000E+00  8.00000000E-01
  8.00000000E-01  1.50000000E+00  8.00000000E-01  8.00000000E-01  1.50000000E+00
  8.00000000E-01  8.00000000E-01  1.50000000E+00  8.00000000E-01  8.00000000E-01
  1.50000000E+00  8.00000000E-01  8.00000000E-01  1.50000000E+00  8.00000000E-01
  8.00000000E-01  1.50000000E+00  8.00000000E-01  8.00000000E-01  1.50000000E+00
  8.00000000E-01  8.00000000E-01  1.50000000E+00  8.00000000E-01  8.00000000E-01
  1.50000000E+00  8.00000000E-01  8.00000000E-01  1.50000000E+00  8.00000000E-01
  8.00000000E-01  1.50000000E+00  8.00000000E-01  8.00000000E-01  1.50000000E+00
  8.00000000E-01  8.00000000E-01  1.50000000E+00  8.00000000E-01  8.00000000E-01
  1.50000000E+00  8.00000000E-01  8.00000000E-01  1.50000000E+00  8.00000000E-01
  8.00000000E-01  1.50000000E+00  8.00000000E-01  8.00000000E-01  1.50000000E+00
  8.00000000E-01  8.00000000E-01  1.50000000E+00  8.00000000E-01  8.00000000E-01
  1.50000000E+00  8.00000000E-01  8.00000000E-01  1.50000000E+00  8.00000000E-01
  8.00000000E-01  1.50000000E+00  8.00000000E-01  8.00000000E-01  1.50000000E+00
  8.00000000E-01  8.00000000E-01  1.50000000E+00  8.00000000E-01  8.00000000E-01
  1.50000000E+00  8.00000000E-01  8.00000000E-01  1.50000000E+00  8.00000000E-01
  8.00000000E-01  1.50000000E+00  8.00000000E-01  8.00000000E-01  1.50000000E+00
  8.00000000E-01  8.00000000E-01  1.50000000E+00  8.00000000E-01  8.00000000E-01
  1.50000000E+00  8.00000000E-01  8.00000000E-01  1.50000000E+00  8.00000000E-01
  8.00000000E-01  1.50000000E+00  8.00000000E-01  8.00000000E-01  1.50000000E+00
  8.00000000E-01  8.00000000E-01  1.50000000E+00  8.00000000E-01  8.00000000E-01
  1.50000000E+00  8.00000000E-01  8.00000000E-01  1.50000000E+00  8.00000000E-01
  8.00000000E-01  1.50000000E+00  8.00000000E-01  8.00000000E-01  1.50000000E+00
  8.00000000E-01  8.00000000E-01  1.50000000E+00  8.00000000E-01  8.00000000E-01
  1.50000000E+00  8.00000000E-01  8.00000000E-01  1.50000000E+00  8.00000000E-01
  8.00000000E-01  1.50000000E+00  8.00000000E-01  8.00000000E-01  1.50000000E+00
  8.00000000E-01  8.00000000E-01  1.50000000E+00  8.00000000E-01  8.00000000E-01
  1.50000000E+00  8.00000000E-01  8.00000000E-01  1.50000000E+00  8.00000000E-01
  8.00000000E-01  1.50000000E+00  8.00000000E-01  8.00000000E-01  1.50000000E+00
  8.00000000E-01  8.00000000E-01  1.50000000E+00  8.00000000E-01  8.00000000E-01
  1.50000000E+00  8.00000000E-01  8.00000000E-01  1.50000000E+00  8.00000000E-01
  8.00000000E-01  1.50000000E+00  8.00000000E-01  8.00000000E-01  1.50000000E+00
  8.00000000E-01  8.00000000E-01  1.50000000E+00  8.00000000E-01  8.00000000E-01
  1.50000000E+00  8.00000000E-01  8.00000000E-01  1.50000000E+00  8.00000000E-01
  8.00000000E-01  1.50000000E+00  8.00000000E-01  8.00000000E-01  1.50000000E+00
  8.00000000E-01  8.00000000E-01  1.50000000E+00  8.00000000E-01  8.00000000E-01
  1.50000000E+00  8.00000000E-01  8.00000000E-01  1.50000000E+00  8.00000000E-01
  8.00000000E-01  1.50000000E+00  8.00000000E-01  8.00000000E-01  1.50000000E+00
  8.00000000E-01  8.00000000E-01  1.50000000E+00  8.00000000E-01  8.00000000E-01
  1.50000000E+00  8.00000000E-01  8.00000000E-01  1.50000000E+00  8.00000000E-01
  8.00000000E-01  1.50000000E+00  8.00000000E-01  8.00000000E-01  1.50000000E+00
  8.00000000E-01  8.00000000E-01  1.50000000E+00  8.00000000E-01  8.00000000E-01
  1.50000000E+00  8.00000000E-01  8.00000000E-01  1.50000000E+00  8.00000000E-01
  8.00000000E-01  1.50000000E+00  8.00000000E-01  8.00000000E-01  1.50000000E+00
  8.00000000E-01  8.00000000E-01  1.50000000E+00  8.00000000E-01  8.00000000E-01
  1.50000000E+00  8.00000000E-01  8.00000000E-01  1.50000000E+00  8.00000000E-01
  8.00000000E-01  1.50000000E+00  8.00000000E-01  8.00000000E-01  1.50000000E+00
  8.00000000E-01  8.00000000E-01  1.50000000E+00  8.00000000E-01  8.00000000E-01
  1.50000000E+00  8.00000000E-01  8.00000000E-01  1.50000000E+00  8.00000000E-01
  8.00000000E-01  1.50000000E+00  8.00000000E-01  8.00000000E-01  1.50000000E+00
  8.00000000E-01  8.00000000E-01  1.50000000E+00  8.00000000E-01  8.00000000E-01
  1.50000000E+00  8.00000000E-01  8.00000000E-01  1.50000000E+00  8.00000000E-01
  8.00000000E-01  1.50000000E+00  8.00000000E-01  8.00000000E-01  1.50000000E+00
  8.00000000E-01  8.00000000E-01  1.50000000E+00  8.00000000E-01  8.00000000E-01
  1.50000000E+00  8.00000000E-01  8.00000000E-01  1.50000000E+00  8.00000000E-01
  8.00000000E-01  1.50000000E+00  8.00000000E-01  8.00000000E-01  1.50000000E+00
  8.00000000E-01  8.00000000E-01  1.50000000E+00  8.00000000E-01  8.00000000E-01
  1.50000000E+00  8.00000000E-01  8.00000000E-01  1.50000000E+00  8.00000000E-01
  8.00000000E-01  1.50000000E+00  8.00000000E-01  8.00000000E-01  1.50000000E+00
  8.00000000E-01  8.00000000E-01  1.50000000E+00  8.00000000E-01  8.00000000E-01
  1.50000000E+00  8.00000000E-01  8.00000000E-01  1.50000000E+00  8.00000000E-01
  8.00000000E-01  1.50000000E+00  8.00000000E-01  8.00000000E-01  1.50000000E+00
  8.00000000E-01  8.00000000E-01  1.50000000E+00  8.00000000E-01  8.00000000E-01
  1.50000000E+00  8.00000000E-01  8.00000000E-01  1.50000000E+00  8.00000000E-01
  8.00000000E-01  1.50000000E+00  8.00000000E-01  8.00000000E-01  1.50000000E+00
  8.00000000E-01  8.00000000E-01  1.50000000E+00  8.00000000E-01  8.00000000E-01
  1.50000000E+00  8.00000000E-01  8.00000000E-01  1.50000000E+00  8.00000000E-01
  8.00000000E-01  1.50000000E+00  8.00000000E-01  8.00000000E-01  1.50000000E+00
  8.00000000E-01  8.00000000E-01  1.50000000E+00  8.00000000E-01  8.00000000E-01
  1.50000000E+00  8.00000000E-01  8.00000000E-01  1.50000000E+00  8.00000000E-01
  8.00000000E-01  1.50000000E+00  8.00000000E-01  8.00000000E-01  1.50000000E+00
  8.00000000E-01  8.00000000E-01  1.50000000E+00  8.00000000E-01  8.00000000E-01
  1.50000000E+00  8.00000000E-01  8.00000000E-01  1.50000000E+00  8.00000000E-01
  8.00000000E-01  1.50000000E+00  8.00000000E-01  8.00000000E-01  1.50000000E+00
  8.00000000E-01  8.00000000E-01  1.50000000E+00  8.00000000E-01  8.00000000E-01
  1.50000000E+00  8.00000000E-01  8.00000000E-01  1.50000000E+00  8.00000000E-01
  8.00000000E-01  1.50000000E+00  8.00000000E-01  8.00000000E-01  1.50000000E+00
  8.00000000E-01  8.00000000E-01  1.50000000E+00  8.00000000E-01  8.00000000E-01
  1.50000000E+00  8.00000000E-01  8.00000000E-01  1.50000000E+00  8.00000000E-01
  8.00000000E-01  1.50000000E+00  8.00000000E-01  8.00000000E-01  1.50000000E+00
  8.00000000E-01  8.00000000E-01  1.50000000E+00  8.00000000E-01  8.00000000E-01
  1.50000000E+00  8.00000000E-01  8.00000000E-01  1.50000000E+00  8.00000000E-01
  8.00000000E-01  1.50000000E+00  8.00000000E-01  8.00000000E-01  1.50000000E+00
  8.00000000E-01  8.00000000E-01  1.50000000E+00  8.00000000E-01  8.00000000E-01
  1.50000000E+00  8.00000000E-01  8.00000000E-01  1.50000000E+00  8.00000000E-01
  8.00000000E-01  1.50000000E+00  8.00000000E-01  8.00000000E-01  1.50000000E+00
  8.00000000E-01  8.00000000E-01  1.50000000E+00  8.00000000E-01  8.00000000E-01
  1.50000000E+00  8.00000000E-01  8.00000000E-01  1.50000000E+00  8.00000000E-01
  8.00000000E-01  1.50000000E+00  8.00000000E-01  8.00000000E-01  1.50000000E+00
  8.00000000E-01  8.00000000E-01  1.50000000E+00  8.00000000E-01  8.00000000E-01
  1.50000000E+00  8.00000000E-01  8.00000000E-01  1.50000000E+00  8.00000000E-01
  8.00000000E-01  1.50000000E+00  8.00000000E-01  8.00000000E-01  1.50000000E+00
  8.00000000E-01  8.00000000E-01  1.50000000E+00  8.00000000E-01  8.00000000E-01
  1.50000000E+00  8.00000000E-01  8.00000000E-01  1.50000000E+00  8.00000000E-01
  8.00000000E-01  1.50000000E+00  8.00000000E-01  8.00000000E-01  1.50000000E+00
  8.00000000E-01  8.00000000E-01  1.50000000E+00  8.00000000E-01  8.00000000E-01
  1.50000000E+00  8.00000000E-01  8.00000000E-01  1.50000000E+00  8.00000000E-01
  8.00000000E-01  1.50000000E+00  8.00000000E-01  8.00000000E-01  1.50000000E+00
  8.00000000E-01  8.00000000E-01  1.50000000E+00  8.00000000E-01  8.00000000E-01
  1.50000000E+00  8.00000000E-01  8.00000000E-01  1.50000000E+00  8.00000000E-01
  8.00000000E-01  1.50000000E+00  8.00000000E-01  8.00000000E-01  1.50000000E+00
  8.00000000E-01  8.00000000E-01  1.50000000E+00  8.00000000E-01  8.00000000E-01
  1.50000000E+00  8.00000000E-01  8.00000000E-01  1.50000000E+00  8.00000000E-01
  8.00000000E-01  1.50000000E+00  8.00000000E-01  8.00000000E-01  1.50000000E+00
  8.00000000E-01  8.00000000E-01  1.50000000E+00  8.00000000E-01  8.00000000E-01
  1.50000000E+00  8.00000000E-01  8.00000000E-01  1.50000000E+00  8.00000000E-01
  8.00000000E-01  1.50000000E+00  8.00000000E-01  8.00000000E-01  1.50000000E+00
  8.00000000E-01  8.00000000E-01  1.50000000E+00  8.00000000E-01  8.00000000E-01
  1.50000000E+00  8.00000000E-01  8.00000000E-01  1.50000000E+00  8.00000000E-01
  8.00000000E-01  1.50000000E+00  8.00000000E-01  8.00000000E-01  1.50000000E+00
  8.00000000E-01  8.00000000E-01  1.50000000E+00  8.00000000E-01  8.00000000E-01
  1.50000000E+00  8.00000000E-01  8.00000000E-01  1.50000000E+00  8.00000000E-01
  8.00000000E-01  1.50000000E+00  8.00000000E-01  8.00000000E-01  1.50000000E+00
  8.00000000E-01  8.00000000E-01  1.50000000E+00  8.00000000E-01  8.00000000E-01
  1.50000000E+00  8.00000000E-01  8.00000000E-01  1.50000000E+00  8.00000000E-01
  8.00000000E-01  1.50000000E+00  8.00000000E-01  8.00000000E-01  1.50000000E+00
  8.00000000E-01  8.00000000E-01  1.50000000E+00  8.00000000E-01  8.00000000E-01
  1.50000000E+00  8.00000000E-01  8.00000000E-01  1.50000000E+00  8.00000000E-01
  8.00000000E-01  1.50000000E+00  8.00000000E-01  8.00000000E-01  1.50000000E+00
  8.00000000E-01  8.00000000E-01  1.50000000E+00  8.00000000E-01  8.00000000E-01
  1.50000000E+00  8.00000000E-01  8.00000000E-01  1.50000000E+00  8.00000000E-01
  8.00000000E-01  1.50000000E+00  8.00000000E-01  8.00000000E-01  1.50000000E+00
  8.00000000E-01  8.00000000E-01  1.50000000E+00  8.00000000E-01  8.00000000E-01
  1.50000000E+00  8.00000000E-01  8.00000000E-01  1.50000000E+00  8.00000000E-01
  8.00000000E-01  1.50000000E+00  8.00000000E-01  8.00000000E-01  1.50000000E+00
  8.00000000E-01  8.00000000E-01  1.50000000E+00  8.00000000E-01  8.00000000E-01
  1.50000000E+00  8.00000000E-01  8.00000000E-01  1.50000000E+00  8.00000000E-01
  8.00000000E-01  1.50000000E+00  8.00000000E-01  8.00000000E-01  1.50000000E+00
  8.00000000E-01  8.00000000E-01  1.50000000E+00  8.00000000E-01  8.00000000E-01
  1.50000000E+00  8.00000000E-01  8.00000000E-01  1.50000000E+00  8.00000000E-01
  8.00000000E-01  1.50000000E+00  8.00000000E-01  8.00000000E-01  1.50000000E+00
  8.00000000E-01  8.00000000E-01  1.50000000E+00  8.00000000E-01  8.00000000E-01
  1.50000000E+00  8.00000000E-01  8.00000000E-01  1.50000000E+00  8.00000000E-01
  8.00000000E-01  1.50000000E+00  8.00000000E-01  8.00000000E-01  1.50000000E+00
  8.00000000E-01  8.00000000E-01  1.50000000E+00  8.00000000E-01  8.00000000E-01
  1.50000000E+00  8.00000000E-01  8.00000000E-01  1.50000000E+00  8.00000000E-01
  8.00000000E-01  1.50000000E+00  8.00000000E-01  8.00000000E-01  1.50000000E+00
  8.00000000E-01  8.00000000E-01  1.50000000E+00  8.00000000E-01  8.00000000E-01
  1.50000000E+00  8.00000000E-01  8.00000000E-01  1.50000000E+00  8.00000000E-01
  8.00000000E-01  1.50000000E+00  8.00000000E-01  8.00000000E-01  1.50000000E+00
  8.00000000E-01  8.00000000E-01  1.50000000E+00  8.00000000E-01  8.00000000E-01
  1.50000000E+00  8.00000000E-01  8.00000000E-01  1.50000000E+00  8.00000000E-01
  8.00000000E-01  1.50000000E+00  8.00000000E-01  8.00000000E-01  1.50000000E+00
  8.00000000E-01  8.00000000E-01  1.50000000E+00  8.00000000E-01  8.00000000E-01
  1.50000000E+00  8.00000000E-01  8.00000000E-01  1.50000000E+00  8.00000000E-01
  8.00000000E-01  1.50000000E+00  8.00000000E-01  8.00000000E-01  1.50000000E+00
  8.00000000E-01  8.00000000E-01  1.50000000E+00  8.00000000E-01  8.00000000E-01
  1.50000000E+00  8.00000000E-01  8.00000000E-01  1.50000000E+00  8.00000000E-01
  8.00000000E-01  1.50000000E+00  8.00000000E-01  8.00000000E-01  1.50000000E+00
  8.00000000E-01  8.00000000E-01  1.50000000E+00  8.00000000E-01  8.00000000E-01
  1.50000000E+00  8.00000000E-01  8.00000000E-01  1.50000000E+00  8.00000000E-01
  8.00000000E-01  1.50000000E+00  8.00000000E-01  8.00000000E-01  1.50000000E+00
  8.00000000E-01  8.00000000E-01  1.50000000E+00  8.00000000E-01  8.00000000E-01
  1.50000000E+00  8.00000000E-01  8.00000000E-01  1.50000000E+00  8.00000000E-01
  8.00000000E-01  1.50000000E+00  8.00000000E-01  8.00000000E-01  1.50000000E+00
  8.00000000E-01  8.00000000E-01  1.50000000E+00  8.00000000E-01  8.00000000E-01
  1.50000000E+00  8.00000000E-01  8.00000000E-01  1.50000000E+00  8.00000000E-01
  8.00000000E-01  1.50000000E+00  8.00000000E-01  8.00000000E-01  1.50000000E+00
  8.00000000E-01  8.00000000E-01  1.50000000E+00  8.00000000E-01  8.00000000E-01
  1.50000000E+00  8.00000000E-01  8.00000000E-01  1.50000000E+00  8.00000000E-01
  8.00000000E-01  1.50000000E+00  8.00000000E-01  8.00000000E-01  1.50000000E+00
  8.00000000E-01  8.00000000E-01  1.50000000E+00  8.00000000E-01  8.00000000E-01
  1.50000000E+00  8.00000000E-01  8.00000000E-01  1.50000000E+00  8.00000000E-01
  8.00000000E-01  1.50000000E+00  8.00000000E-01  8.00000000E-01  1.50000000E+00
  8.00000000E-01  8.00000000E-01  1.50000000E+00  8.00000000E-01  8.00000000E-01
  1.50000000E+00  8.00000000E-01  8.00000000E-01  1.50000000E+00  8.00000000E-01
  8.00000000E-01  1.50000000E+00  8.00000000E-01  8.00000000E-01  1.50000000E+00
  8.00000000E-01  8.00000000E-01  1.50000000E+00  8.00000000E-01  8.00000000E-01
  1.50000000E+00  8.00000000E-01  8.00000000E-01  1.50000000E+00  8.00000000E-01
  8.00000000E-01  1.50000000E+00  8.00000000E-01  8.00000000E-01  1.50000000E+00
  8.00000000E-01  8.00000000E-01  1.50000000E+00  8.00000000E-01  8.00000000E-01
  1.50000000E+00  8.00000000E-01  8.00000000E-01  1.50000000E+00  8.00000000E-01
  8.00000000E-01  1.50000000E+00  8.00000000E-01  8.00000000E-01  1.50000000E+00
  8.00000000E-01  8.00000000E-01  1.50000000E+00  8.00000000E-01  8.00000000E-01
  1.50000000E+00  8.00000000E-01  8.00000000E-01  1.50000000E+00  8.00000000E-01
  8.00000000E-01  1.50000000E+00  8.00000000E-01  8.00000000E-01  1.50000000E+00
  8.00000000E-01  8.00000000E-01  1.50000000E+00  8.00000000E-01  8.00000000E-01
  1.50000000E+00  8.00000000E-01  8.00000000E-01  1.50000000E+00  8.00000000E-01
  8.00000000E-01  1.50000000E+00  8.00000000E-01  8.00000000E-01  1.50000000E+00
  8.00000000E-01  8.00000000E-01  1.50000000E+00  8.00000000E-01  8.00000000E-01
  1.50000000E+00  8.00000000E-01  8.00000000E-01  1.50000000E+00  8.00000000E-01
  8.00000000E-01  1.50000000E+00  8.00000000E-01  8.00000000E-01  1.50000000E+00
  8.00000000E-01  8.00000000E-01  1.50000000E+00  8.00000000E-01  8.00000000E-01
  1.50000000E+00  8.00000000E-01  8.00000000E-01  1.50000000E+00  8.00000000E-01
  8.00000000E-01  1.50000000E+00  8.00000000E-01  8.00000000E-01  1.50000000E+00
  8.00000000E-01  8.00000000E-01  1.50000000E+00  8.00000000E-01  8.00000000E-01
  1.50000000E+00  8.00000000E-01  8.00000000E-01  1.50000000E+00  8.00000000E-01
  8.00000000E-01  1.50000000E+00  8.00000000E-01  8.00000000E-01  1.50000000E+00
  8.00000000E-01  8.00000000E-01  1.50000000E+00  8.00000000E-01  8.00000000E-01
  1.50000000E+00  8.00000000E-01  8.00000000E-01  1.50000000E+00  8.00000000E-01
  8.00000000E-01  1.50000000E+00  8.00000000E-01  8.00000000E-01  1.50000000E+00
  8.00000000E-01  8.00000000E-01  1.50000000E+00  8.00000000E-01  8.00000000E-01
  1.50000000E+00  8.00000000E-01  8.00000000E-01  1.50000000E+00  8.00000000E-01
  8.00000000E-01  1.50000000E+00  8.00000000E-01  8.00000000E-01  1.50000000E+00
  8.00000000E-01  8.00000000E-01  1.50000000E+00  8.00000000E-01  8.00000000E-01
  1.50000000E+00  8.00000000E-01  8.00000000E-01  1.50000000E+00  8.00000000E-01
  8.00000000E-01  1.50000000E+00  8.00000000E-01  8.00000000E-01  1.50000000E+00
  8.00000000E-01  8.00000000E-01  1.50000000E+00  8.00000000E-01  8.00000000E-01
  1.50000000E+00  8.00000000E-01  8.00000000E-01  1.50000000E+00  8.00000000E-01
  8.00000000E-01  1.50000000E+00  8.00000000E-01  8.00000000E-01  1.50000000E+00
  8.00000000E-01  8.00000000E-01  1.50000000E+00  8.00000000E-01  8.00000000E-01
  1.50000000E+00  8.00000000E-01  8.00000000E-01  1.50000000E+00  8.00000000E-01
  8.00000000E-01  1.50000000E+00  8.00000000E-01  8.00000000E-01  1.50000000E+00
  8.00000000E-01  8.00000000E-01  1.50000000E+00  8.00000000E-01  8.00000000E-01
  1.50000000E+00  8.00000000E-01  8.00000000E-01  1.50000000E+00  8.00000000E-01
  8.00000000E-01  1.50000000E+00  8.00000000E-01  8.00000000E-01  1.50000000E+00
  8.00000000E-01  8.00000000E-01  1.50000000E+00  8.00000000E-01  8.00000000E-01
  1.50000000E+00  8.00000000E-01  8.00000000E-01  1.50000000E+00  8.00000000E-01
  8.00000000E-01  1.50000000E+00  8.00000000E-01  8.00000000E-01  1.50000000E+00
  8.00000000E-01  8.00000000E-01  1.50000000E+00  8.00000000E-01  8.00000000E-01
  1.50000000E+00  8.00000000E-01  8.00000000E-01  1.50000000E+00  8.00000000E-01
  8.00000000E-01  1.50000000E+00  8.00000000E-01  8.00000000E-01  1.50000000E+00
  8.00000000E-01  8.00000000E-01  1.50000000E+00  8.00000000E-01  8.00000000E-01
  1.50000000E+00  8.00000000E-01  8.00000000E-01  1.50000000E+00  8.00000000E-01
  8.00000000E-01  1.50000000E+00  8.00000000E-01  8.00000000E-01  1.50000000E+00
  8.00000000E-01  8.00000000E-01  1.50000000E+00  8.00000000E-01  8.00000000E-01
  1.50000000E+00  8.00000000E-01  8.00000000E-01  1.50000000E+00  8.00000000E-01
  8.00000000E-01  1.50000000E+00  8.00000000E-01  8.00000000E-01  1.50000000E+00
  8.00000000E-01  8.00000000E-01  1.50000000E+00  8.00000000E-01  8.00000000E-01
  1.50000000E+00  8.00000000E-01  8.00000000E-01  1.50000000E+00  8.00000000E-01
  8.00000000E-01  1.50000000E+00  8.00000000E-01  8.00000000E-01  1.50000000E+00
  8.00000000E-01  8.00000000E-01  1.50000000E+00  8.00000000E-01  8.00000000E-01
  1.50000000E+00  8.00000000E-01  8.00000000E-01  1.50000000E+00  8.00000000E-01
  8.00000000E-01  1.50000000E+00  8.00000000E-01  8.00000000E-01  1.50000000E+00
  8.00000000E-01  8.00000000E-01  1.50000000E+00  8.00000000E-01  8.00000000E-01
  1.50000000E+00  8.00000000E-01  8.00000000E-01  1.50000000E+00  8.00000000E-01
  8.00000000E-01  1.50000000E+00  8.00000000E-01  8.00000000E-01  1.50000000E+00
  8.00000000E-01  8.00000000E-01  1.50000000E+00  8.00000000E-01  8.00000000E-01
  1.50000000E+00  8.00000000E-01  8.00000000E-01  1.50000000E+00  8.00000000E-01
  8.00000000E-01  1.50000000E+00  8.00000000E-01  8.00000000E-01  1.50000000E+00
  8.00000000E-01  8.00000000E-01  1.50000000E+00  8.00000000E-01  8.00000000E-01
  1.50000000E+00  8.00000000E-01  8.00000000E-01  1.50000000E+00  8.00000000E-01
  8.00000000E-01  1.50000000E+00  8.00000000E-01  8.00000000E-01  1.50000000E+00
  8.00000000E-01  8.00000000E-01  1.50000000E+00  8.00000000E-01  8.00000000E-01
  1.50000000E+00  8.00000000E-01  8.00000000E-01  1.50000000E+00  8.00000000E-01
  8.00000000E-01  1.50000000E+00  8.00000000E-01  8.00000000E-01  1.50000000E+00
  8.00000000E-01  8.00000000E-01  1.50000000E+00  8.00000000E-01  8.00000000E-01
  1.50000000E+00  8.00000000E-01  8.00000000E-01  1.50000000E+00  8.00000000E-01
  8.00000000E-01  1.50000000E+00  8.00000000E-01  8.00000000E-01  1.50000000E+00
  8.00000000E-01  8.00000000E-01  1.50000000E+00  8.00000000E-01  8.00000000E-01
  1.50000000E+00  8.00000000E-01  8.00000000E-01  1.50000000E+00  8.00000000E-01
  8.00000000E-01  1.50000000E+00  8.00000000E-01  8.00000000E-01  1.50000000E+00
  8.00000000E-01  8.00000000E-01  1.50000000E+00  8.00000000E-01  8.00000000E-01
  1.50000000E+00  8.00000000E-01  8.00000000E-01  1.50000000E+00  8.00000000E-01
  8.00000000E-01  1.50000000E+00  8.00000000E-01  8.00000000E-01  1.50000000E+00
  8.00000000E-01  8.00000000E-01  1.50000000E+00  8.00000000E-01  8.00000000E-01
  1.50000000E+00  8.00000000E-01  8.00000000E-01  1.50000000E+00  8.00000000E-01
  8.00000000E-01  1.50000000E+00  8.00000000E-01  8.00000000E-01  1.50000000E+00
  8.00000000E-01  8.00000000E-01  1.50000000E+00  8.00000000E-01  8.00000000E-01
  1.50000000E+00  8.00000000E-01  8.00000000E-01  1.50000000E+00  8.00000000E-01
  8.00000000E-01  1.50000000E+00  8.00000000E-01  8.00000000E-01  1.50000000E+00
  8.00000000E-01  8.00000000E-01  1.50000000E+00  8.00000000E-01  8.00000000E-01
  1.50000000E+00  8.00000000E-01  8.00000000E-01  1.50000000E+00  8.00000000E-01
  8.00000000E-01  1.50000000E+00  8.00000000E-01  8.00000000E-01  1.50000000E+00
  8.00000000E-01  8.00000000E-01  1.50000000E+00  8.00000000E-01  8.00000000E-01
  1.50000000E+00  8.00000000E-01  8.00000000E-01  1.50000000E+00  8.00000000E-01
  8.00000000E-01  1.50000000E+00  8.00000000E-01  8.00000000E-01  1.50000000E+00
  8.00000000E-01  8.00000000E-01  1.50000000E+00  8.00000000E-01  8.00000000E-01
  1.50000000E+00  8.00000000E-01  8.00000000E-01  1.50000000E+00  8.00000000E-01
  8.00000000E-01  1.50000000E+00  8.00000000E-01  8.00000000E-01  1.50000000E+00
  8.00000000E-01  8.00000000E-01  1.50000000E+00  8.00000000E-01  8.00000000E-01
  1.50000000E+00  8.00000000E-01  8.00000000E-01  1.50000000E+00  8.00000000E-01
  8.00000000E-01  1.50000000E+00  8.00000000E-01  8.00000000E-01  1.50000000E+00
  8.00000000E-01  8.00000000E-01  1.50000000E+00  8.00000000E-01  8.00000000E-01
  1.50000000E+00  8.00000000E-01  8.00000000E-01  1.50000000E+00  8.00000000E-01
  8.00000000E-01  1.50000000E+00  8.00000000E-01  8.00000000E-01  1.50000000E+00
  8.00000000E-01  8.00000000E-01  1.50000000E+00  8.00000000E-01  8.00000000E-01
  1.50000000E+00  8.00000000E-01  8.00000000E-01  1.50000000E+00  8.00000000E-01
  8.00000000E-01  1.50000000E+00  8.00000000E-01  8.00000000E-01  1.50000000E+00
  8.00000000E-01  8.00000000E-01  1.50000000E+00  8.00000000E-01  8.00000000E-01
  1.50000000E+00  8.00000000E-01  8.00000000E-01  1.50000000E+00  8.00000000E-01
  8.00000000E-01  1.50000000E+00  8.00000000E-01  8.00000000E-01  1.50000000E+00
  8.00000000E-01  8.00000000E-01  1.50000000E+00  8.00000000E-01  8.00000000E-01
  1.50000000E+00  8.00000000E-01  8.00000000E-01  1.50000000E+00  8.00000000E-01
  8.00000000E-01  1.50000000E+00  8.00000000E-01  8.00000000E-01  1.50000000E+00
  8.00000000E-01  8.00000000E-01  1.50000000E+00  8.00000000E-01  8.00000000E-01
  1.50000000E+00  8.00000000E-01  8.00000000E-01  1.50000000E+00  8.00000000E-01
  8.00000000E-01  1.50000000E+00  8.00000000E-01  8.00000000E-01  1.50000000E+00
  8.00000000E-01  8.00000000E-01  1.50000000E+00  8.00000000E-01  8.00000000E-01
  1.50000000E+00  8.00000000E-01  8.00000000E-01  1.50000000E+00  8.00000000E-01
  8.00000000E-01  1.50000000E+00  8.00000000E-01  8.00000000E-01  1.50000000E+00
  8.00000000E-01  8.00000000E-01  1.50000000E+00  8.00000000E-01  8.00000000E-01
  1.50000000E+00  8.00000000E-01  8.00000000E-01  1.50000000E+00  8.00000000E-01
  8.00000000E-01  1.50000000E+00  8.00000000E-01  8.00000000E-01  1.50000000E+00
  8.00000000E-01  8.00000000E-01  1.50000000E+00  8.00000000E-01  8.00000000E-01
  1.50000000E+00  8.00000000E-01  8.00000000E-01  1.50000000E+00  8.00000000E-01
  8.00000000E-01  1.50000000E+00  8.00000000E-01  8.00000000E-01  1.50000000E+00
  8.00000000E-01  8.00000000E-01  1.50000000E+00  8.00000000E-01  8.00000000E-01
  1.50000000E+00  8.00000000E-01  8.00000000E-01  1.50000000E+00  8.00000000E-01
  8.00000000E-01  1.50000000E+00  8.00000000E-01  8.00000000E-01  1.50000000E+00
  8.00000000E-01  8.00000000E-01  1.50000000E+00  8.00000000E-01  8.00000000E-01
  1.50000000E+00  8.00000000E-01  8.00000000E-01  1.50000000E+00  8.00000000E-01
  8.00000000E-01  1.50000000E+00  8.00000000E-01  8.00000000E-01  1.50000000E+00
  8.00000000E-01  8.00000000E-01  1.50000000E+00  8.00000000E-01  8.00000000E-01
  1.50000000E+00  8.00000000E-01  8.00000000E-01  1.50000000E+00  8.00000000E-01
  8.00000000E-01  1.50000000E+00  8.00000000E-01  8.00000000E-01  1.50000000E+00
  8.00000000E-01  8.00000000E-01  1.50000000E+00  8.00000000E-01  8.00000000E-01
  1.50000000E+00  8.00000000E-01  8.00000000E-01  1.50000000E+00  8.00000000E-01
  8.00000000E-01  1.50000000E+00  8.00000000E-01  8.00000000E-01  1.50000000E+00
  8.00000000E-01  8.00000000E-01  1.50000000E+00  8.00000000E-01  8.00000000E-01
  1.50000000E+00  8.00000000E-01  8.00000000E-01  1.50000000E+00  8.00000000E-01
  8.00000000E-01  1.50000000E+00  8.00000000E-01  8.00000000E-01  1.50000000E+00
  8.00000000E-01  8.00000000E-01  1.50000000E+00  8.00000000E-01  8.00000000E-01
  1.50000000E+00  8.00000000E-01  8.00000000E-01  1.50000000E+00  8.00000000E-01
  8.00000000E-01  1.50000000E+00  8.00000000E-01  8.00000000E-01  1.50000000E+00
  8.00000000E-01  8.00000000E-01  1.50000000E+00  8.00000000E-01  8.00000000E-01
  1.50000000E+00  8.00000000E-01  8.00000000E-01  1.50000000E+00  8.00000000E-01
  8.00000000E-01  1.50000000E+00  8.00000000E-01  8.00000000E-01  1.50000000E+00
  8.00000000E-01  8.00000000E-01  1.50000000E+00  8.00000000E-01  8.00000000E-01
  1.50000000E+00  8.00000000E-01  8.00000000E-01  1.50000000E+00  8.00000000E-01
  8.00000000E-01  1.50000000E+00  8.00000000E-01  8.00000000E-01  1.50000000E+00
  8.00000000E-01  8.00000000E-01  1.50000000E+00  8.00000000E-01  8.00000000E-01
  1.50000000E+00  8.00000000E-01  8.00000000E-01  1.50000000E+00  8.00000000E-01
  8.00000000E-01  1.50000000E+00  8.00000000E-01  8.00000000E-01  1.50000000E+00
  8.00000000E-01  8.00000000E-01  1.50000000E+00  8.00000000E-01  8.00000000E-01
  1.50000000E+00  8.00000000E-01  8.00000000E-01  1.50000000E+00  8.00000000E-01
  8.00000000E-01  1.50000000E+00  8.00000000E-01  8.00000000E-01  1.50000000E+00
  8.00000000E-01  8.00000000E-01  1.50000000E+00  8.00000000E-01  8.00000000E-01
  1.50000000E+00  8.00000000E-01  8.00000000E-01  1.50000000E+00  8.00000000E-01
  8.00000000E-01  1.50000000E+00  8.00000000E-01  8.00000000E-01  1.50000000E+00
  8.00000000E-01  8.00000000E-01  1.50000000E+00  8.00000000E-01  8.00000000E-01
  1.50000000E+00  8.00000000E-01  8.00000000E-01  1.50000000E+00  8.00000000E-01
  8.00000000E-01  1.50000000E+00  8.00000000E-01  8.00000000E-01  1.50000000E+00
  8.00000000E-01  8.00000000E-01  1.50000000E+00  8.00000000E-01  8.00000000E-01
  1.50000000E+00  8.00000000E-01  8.00000000E-01  1.50000000E+00  8.00000000E-01
  8.00000000E-01  1.50000000E+00  8.00000000E-01  8.00000000E-01  1.50000000E+00
  8.00000000E-01  8.00000000E-01  1.50000000E+00  8.00000000E-01  8.00000000E-01
  1.50000000E+00  8.00000000E-01  8.00000000E-01  1.50000000E+00  8.00000000E-01
  8.00000000E-01  1.50000000E+00  8.00000000E-01  8.00000000E-01  1.50000000E+00
  8.00000000E-01  8.00000000E-01  1.50000000E+00  8.00000000E-01  8.00000000E-01
  1.50000000E+00  8.00000000E-01  8.00000000E-01  1.50000000E+00  8.00000000E-01
  8.00000000E-01  1.50000000E+00  8.00000000E-01  8.00000000E-01  1.50000000E+00
  8.00000000E-01  8.00000000E-01  1.50000000E+00  8.00000000E-01  8.00000000E-01
  1.50000000E+00  8.00000000E-01  8.00000000E-01  1.50000000E+00  8.00000000E-01
  8.00000000E-01  1.50000000E+00  8.00000000E-01  8.00000000E-01  1.50000000E+00
  8.00000000E-01  8.00000000E-01  1.50000000E+00  8.00000000E-01  8.00000000E-01
  1.50000000E+00  8.00000000E-01  8.00000000E-01  1.50000000E+00  8.00000000E-01
  8.00000000E-01  1.50000000E+00  8.00000000E-01  8.00000000E-01  1.50000000E+00
  8.00000000E-01  8.00000000E-01  1.50000000E+00  8.00000000E-01  8.00000000E-01
  1.50000000E+00  8.00000000E-01  8.00000000E-01  1.50000000E+00  8.00000000E-01
  8.00000000E-01  1.50000000E+00  8.00000000E-01  8.00000000E-01  1.50000000E+00
  8.00000000E-01  8.00000000E-01  1.50000000E+00  8.00000000E-01  8.00000000E-01
  1.50000000E+00  8.00000000E-01  8.00000000E-01  1.50000000E+00  8.00000000E-01
  8.00000000E-01  1.50000000E+00  8.00000000E-01  8.00000000E-01  1.50000000E+00
  8.00000000E-01  8.00000000E-01  1.50000000E+00  8.00000000E-01  8.00000000E-01
  1.50000000E+00  8.00000000E-01  8.00000000E-01  1.50000000E+00  8.00000000E-01
  8.00000000E-01  1.50000000E+00  8.00000000E-01  8.00000000E-01  1.50000000E+00
  8.00000000E-01  8.00000000E-01  1.50000000E+00  8.00000000E-01  8.00000000E-01
  1.50000000E+00  8.00000000E-01  8.00000000E-01  1.50000000E+00  8.00000000E-01
  8.00000000E-01  1.50000000E+00  8.00000000E-01  8.00000000E-01  1.50000000E+00
  8.00000000E-01  8.00000000E-01  1.50000000E+00  8.00000000E-01  8.00000000E-01
  1.50000000E+00  8.00000000E-01  8.00000000E-01  1.50000000E+00  8.00000000E-01
  8.00000000E-01  1.50000000E+00  8.00000000E-01  8.00000000E-01  1.50000000E+00
  8.00000000E-01  8.00000000E-01  1.50000000E+00  8.00000000E-01  8.00000000E-01
  1.50000000E+00  8.00000000E-01  8.00000000E-01  1.50000000E+00  8.00000000E-01
  8.00000000E-01  1.50000000E+00  8.00000000E-01  8.00000000E-01  1.50000000E+00
  8.00000000E-01  8.00000000E-01  1.50000000E+00  8.00000000E-01  8.00000000E-01
  1.50000000E+00  8.00000000E-01  8.00000000E-01  1.50000000E+00  8.00000000E-01
  8.00000000E-01  1.50000000E+00  8.00000000E-01  8.00000000E-01  1.50000000E+00
  8.00000000E-01  8.00000000E-01  1.50000000E+00  8.00000000E-01  8.00000000E-01
  1.50000000E+00  8.00000000E-01  8.00000000E-01  1.50000000E+00  8.00000000E-01
  8.00000000E-01  1.50000000E+00  8.00000000E-01  8.00000000E-01  1.50000000E+00
  8.00000000E-01  8.00000000E-01  1.50000000E+00  8.00000000E-01  8.00000000E-01
  1.50000000E+00  8.00000000E-01  8.00000000E-01  1.50000000E+00  8.00000000E-01
  8.00000000E-01  1.50000000E+00  8.00000000E-01  8.00000000E-01  1.50000000E+00
  8.00000000E-01  8.00000000E-01  1.50000000E+00  8.00000000E-01  8.00000000E-01
  1.50000000E+00  8.00000000E-01  8.00000000E-01  1.50000000E+00  8.00000000E-01
  8.00000000E-01  1.50000000E+00  8.00000000E-01  8.00000000E-01  1.50000000E+00
  8.00000000E-01  8.00000000E-01  1.50000000E+00  8.00000000E-01  8.00000000E-01
  1.50000000E+00  8.00000000E-01  8.00000000E-01  1.50000000E+00  8.00000000E-01
  8.00000000E-01  1.50000000E+00  8.00000000E-01  8.00000000E-01  1.50000000E+00
  8.00000000E-01  8.00000000E-01  1.50000000E+00  8.00000000E-01  8.00000000E-01
  1.50000000E+00  8.00000000E-01  8.00000000E-01  1.50000000E+00  8.00000000E-01
  8.00000000E-01  1.50000000E+00  8.00000000E-01  8.00000000E-01  1.50000000E+00
  8.00000000E-01  8.00000000E-01  1.50000000E+00  8.00000000E-01  8.00000000E-01
  1.50000000E+00  8.00000000E-01  8.00000000E-01  1.50000000E+00  8.00000000E-01
  8.00000000E-01  1.50000000E+00  8.00000000E-01  8.00000000E-01  1.50000000E+00
  8.00000000E-01  8.00000000E-01  1.50000000E+00  8.00000000E-01  8.00000000E-01
  1.50000000E+00  8.00000000E-01  8.00000000E-01  1.50000000E+00  8.00000000E-01
  8.00000000E-01  1.50000000E+00  8.00000000E-01  8.00000000E-01  1.50000000E+00
  8.00000000E-01  8.00000000E-01  1.50000000E+00  8.00000000E-01  8.00000000E-01
  1.50000000E+00  8.00000000E-01  8.00000000E-01  1.50000000E+00  8.00000000E-01
  8.00000000E-01  1.50000000E+00  8.00000000E-01  8.00000000E-01  1.50000000E+00
  8.00000000E-01  8.00000000E-01  1.50000000E+00  8.00000000E-01  8.00000000E-01
  1.50000000E+00  8.00000000E-01  8.00000000E-01  1.50000000E+00  8.00000000E-01
  8.00000000E-01  1.50000000E+00  8.00000000E-01  8.00000000E-01  1.50000000E+00
  8.00000000E-01  8.00000000E-01  1.50000000E+00  8.00000000E-01  8.00000000E-01
  1.50000000E+00  8.00000000E-01  8.00000000E-01  1.50000000E+00  8.00000000E-01
  8.00000000E-01  1.50000000E+00  8.00000000E-01  8.00000000E-01  1.50000000E+00
  8.00000000E-01  8.00000000E-01  1.50000000E+00  8.00000000E-01  8.00000000E-01
  1.50000000E+00  8.00000000E-01  8.00000000E-01  1.50000000E+00  8.00000000E-01
  8.00000000E-01  1.50000000E+00  8.00000000E-01  8.00000000E-01  1.50000000E+00
  8.00000000E-01  8.00000000E-01  1.50000000E+00  8.00000000E-01  8.00000000E-01
  1.50000000E+00  8.00000000E-01  8.00000000E-01  1.50000000E+00  8.00000000E-01
  8.00000000E-01  1.50000000E+00  8.00000000E-01  8.00000000E-01  1.50000000E+00
  8.00000000E-01  8.00000000E-01  1.50000000E+00  8.00000000E-01  8.00000000E-01
  1.50000000E+00  8.00000000E-01  8.00000000E-01  1.50000000E+00  8.00000000E-01
  8.00000000E-01  1.50000000E+00  8.00000000E-01  8.00000000E-01  1.50000000E+00
  8.00000000E-01  8.00000000E-01  1.50000000E+00  8.00000000E-01  8.00000000E-01
  1.50000000E+00  8.00000000E-01  8.00000000E-01  1.50000000E+00  8.00000000E-01
  8.00000000E-01  1.50000000E+00  8.00000000E-01  8.00000000E-01  1.50000000E+00
  8.00000000E-01  8.00000000E-01  1.50000000E+00  8.00000000E-01  8.00000000E-01
  1.50000000E+00  8.00000000E-01  8.00000000E-01  1.50000000E+00  8.00000000E-01
  8.00000000E-01  1.50000000E+00  8.00000000E-01  8.00000000E-01  1.50000000E+00
  8.00000000E-01  8.00000000E-01  1.50000000E+00  8.00000000E-01  8.00000000E-01
  1.50000000E+00  8.00000000E-01  8.00000000E-01  1.50000000E+00  8.00000000E-01
  8.00000000E-01  1.50000000E+00  8.00000000E-01  8.00000000E-01  1.50000000E+00
  8.00000000E-01  8.00000000E-01  1.50000000E+00  8.00000000E-01  8.00000000E-01
  1.50000000E+00  8.00000000E-01  8.00000000E-01  1.50000000E+00  8.00000000E-01
  8.00000000E-01  1.50000000E+00  8.00000000E-01  8.00000000E-01  1.50000000E+00
  8.00000000E-01  8.00000000E-01  1.50000000E+00  8.00000000E-01  8.00000000E-01
  1.50000000E+00  8.00000000E-01  8.00000000E-01  1.50000000E+00  8.00000000E-01
  8.00000000E-01  1.50000000E+00  8.00000000E-01  8.00000000E-01  1.50000000E+00
  8.00000000E-01  8.00000000E-01  1.50000000E+00  8.00000000E-01  8.00000000E-01
  1.50000000E+00  8.00000000E-01  8.00000000E-01  1.50000000E+00  8.00000000E-01
  8.00000000E-01  1.50000000E+00  8.00000000E-01  8.00000000E-01  1.50000000E+00
  8.00000000E-01  8.00000000E-01  1.50000000E+00  8.00000000E-01  8.00000000E-01
  1.50000000E+00  8.00000000E-01  8.00000000E-01  1.50000000E+00  8.00000000E-01
  8.00000000E-01  1.50000000E+00  8.00000000E-01  8.00000000E-01  1.50000000E+00
  8.00000000E-01  8.00000000E-01  1.50000000E+00  8.00000000E-01  8.00000000E-01
  1.50000000E+00  8.00000000E-01  8.00000000E-01  1.50000000E+00  8.00000000E-01
  8.00000000E-01  1.50000000E+00  8.00000000E-01  8.00000000E-01  1.50000000E+00
  8.00000000E-01  8.00000000E-01  1.50000000E+00  8.00000000E-01  8.00000000E-01
  1.50000000E+00  8.00000000E-01  8.00000000E-01  1.50000000E+00  8.00000000E-01
  8.00000000E-01  1.50000000E+00  8.00000000E-01  8.00000000E-01  1.50000000E+00
  8.00000000E-01  8.00000000E-01  1.50000000E+00  8.00000000E-01  8.00000000E-01
  1.50000000E+00  8.00000000E-01  8.00000000E-01  1.50000000E+00  8.00000000E-01
  8.00000000E-01  1.50000000E+00  8.00000000E-01  8.00000000E-01  1.50000000E+00
  8.00000000E-01  8.00000000E-01  1.50000000E+00  8.00000000E-01  8.00000000E-01
  1.50000000E+00  8.00000000E-01  8.00000000E-01  1.50000000E+00  8.00000000E-01
  8.00000000E-01  1.50000000E+00  8.00000000E-01  8.00000000E-01  1.50000000E+00
  8.00000000E-01  8.00000000E-01  1.50000000E+00  8.00000000E-01  8.00000000E-01
  1.50000000E+00  8.00000000E-01  8.00000000E-01  1.50000000E+00  8.00000000E-01
  8.00000000E-01  1.50000000E+00  8.00000000E-01  8.00000000E-01  1.50000000E+00
  8.00000000E-01  8.00000000E-01  1.50000000E+00  8.00000000E-01  8.00000000E-01
  1.50000000E+00  8.00000000E-01  8.00000000E-01  1.50000000E+00  8.00000000E-01
  8.00000000E-01  1.50000000E+00  8.00000000E-01  8.00000000E-01  1.50000000E+00
  8.00000000E-01  8.00000000E-01  1.50000000E+00  8.00000000E-01  8.00000000E-01
  1.50000000E+00  8.00000000E-01  8.00000000E-01  1.50000000E+00  8.00000000E-01
  8.00000000E-01  1.50000000E+00  8.00000000E-01  8.00000000E-01  1.50000000E+00
  8.00000000E-01  8.00000000E-01  1.50000000E+00  8.00000000E-01  8.00000000E-01
  1.50000000E+00  8.00000000E-01  8.00000000E-01  1.50000000E+00  8.00000000E-01
  8.00000000E-01  1.50000000E+00  8.00000000E-01  8.00000000E-01  1.50000000E+00
  8.00000000E-01  8.00000000E-01  1.50000000E+00  8.00000000E-01  8.00000000E-01
  1.50000000E+00  8.00000000E-01  8.00000000E-01  1.50000000E+00  8.00000000E-01
  8.00000000E-01  1.50000000E+00  8.00000000E-01  8.00000000E-01  1.50000000E+00
  8.00000000E-01  8.00000000E-01  1.50000000E+00  8.00000000E-01  8.00000000E-01
  1.50000000E+00  8.00000000E-01  8.00000000E-01  1.50000000E+00  8.00000000E-01
  8.00000000E-01  1.50000000E+00  8.00000000E-01  8.00000000E-01  1.50000000E+00
  8.00000000E-01  8.00000000E-01  1.50000000E+00  8.00000000E-01  8.00000000E-01
  1.50000000E+00  8.00000000E-01  8.00000000E-01  1.50000000E+00  8.00000000E-01
  8.00000000E-01  1.50000000E+00  8.00000000E-01  8.00000000E-01  1.50000000E+00
  8.00000000E-01  8.00000000E-01  1.50000000E+00  8.00000000E-01  8.00000000E-01
  1.50000000E+00  8.00000000E-01  8.00000000E-01  1.50000000E+00  8.00000000E-01
  8.00000000E-01  1.50000000E+00  8.00000000E-01  8.00000000E-01  1.50000000E+00
  8.00000000E-01  8.00000000E-01  1.50000000E+00  8.00000000E-01  8.00000000E-01
  1.50000000E+00  8.00000000E-01  8.00000000E-01  1.50000000E+00  8.00000000E-01
  8.00000000E-01  1.50000000E+00  8.00000000E-01  8.00000000E-01  1.50000000E+00
  8.00000000E-01  8.00000000E-01  1.50000000E+00  8.00000000E-01  8.00000000E-01
  1.50000000E+00  8.00000000E-01  8.00000000E-01  1.50000000E+00  8.00000000E-01
  8.00000000E-01  1.50000000E+00  8.00000000E-01  8.00000000E-01  1.50000000E+00
  8.00000000E-01  8.00000000E-01  1.50000000E+00  8.00000000E-01  8.00000000E-01
  1.50000000E+00  8.00000000E-01  8.00000000E-01  1.50000000E+00  8.00000000E-01
  8.00000000E-01  1.50000000E+00  8.00000000E-01  8.00000000E-01  1.50000000E+00
  8.00000000E-01  8.00000000E-01  1.50000000E+00  8.00000000E-01  8.00000000E-01
  1.50000000E+00  8.00000000E-01  8.00000000E-01  1.50000000E+00  8.00000000E-01
  8.00000000E-01  1.50000000E+00  8.00000000E-01  8.00000000E-01  1.50000000E+00
  8.00000000E-01  8.00000000E-01  1.50000000E+00  8.00000000E-01  8.00000000E-01
  1.50000000E+00  8.00000000E-01  8.00000000E-01  1.50000000E+00  8.00000000E-01
  8.00000000E-01  1.50000000E+00  8.00000000E-01  8.00000000E-01  1.50000000E+00
  8.00000000E-01  8.00000000E-01  1.50000000E+00  8.00000000E-01  8.00000000E-01
  1.50000000E+00  8.00000000E-01  8.00000000E-01  1.50000000E+00  8.00000000E-01
  8.00000000E-01  1.50000000E+00  8.00000000E-01  8.00000000E-01  1.50000000E+00
  8.00000000E-01  8.00000000E-01  1.50000000E+00  8.00000000E-01  8.00000000E-01
  1.50000000E+00  8.00000000E-01  8.00000000E-01  1.50000000E+00  8.00000000E-01
  8.00000000E-01  1.50000000E+00  8.00000000E-01  8.00000000E-01  1.50000000E+00
  8.00000000E-01  8.00000000E-01  1.50000000E+00  8.00000000E-01  8.00000000E-01
  1.50000000E+00  8.00000000E-01  8.00000000E-01  1.50000000E+00  8.00000000E-01
  8.00000000E-01  1.50000000E+00  8.00000000E-01  8.00000000E-01  1.50000000E+00
  8.00000000E-01  8.00000000E-01  1.50000000E+00  8.00000000E-01  8.00000000E-01
  1.50000000E+00  8.00000000E-01  8.00000000E-01  1.50000000E+00  8.00000000E-01
  8.00000000E-01  1.50000000E+00  8.00000000E-01  8.00000000E-01  1.50000000E+00
  8.00000000E-01  8.00000000E-01  1.50000000E+00  8.00000000E-01  8.00000000E-01
  1.50000000E+00  8.00000000E-01  8.00000000E-01  1.50000000E+00  8.00000000E-01
  8.00000000E-01  1.50000000E+00  8.00000000E-01  8.00000000E-01  1.50000000E+00
  8.00000000E-01  8.00000000E-01  1.50000000E+00  8.00000000E-01  8.00000000E-01
  1.50000000E+00  8.00000000E-01  8.00000000E-01  1.50000000E+00  8.00000000E-01
  8.00000000E-01  1.50000000E+00  8.00000000E-01  8.00000000E-01  1.50000000E+00
  8.00000000E-01  8.00000000E-01  1.50000000E+00  8.00000000E-01  8.00000000E-01
  1.50000000E+00  8.00000000E-01  8.00000000E-01  1.50000000E+00  8.00000000E-01
  8.00000000E-01  1.50000000E+00  8.00000000E-01  8.00000000E-01  1.50000000E+00
  8.00000000E-01  8.00000000E-01  1.50000000E+00  8.00000000E-01  8.00000000E-01
  1.50000000E+00  8.00000000E-01  8.00000000E-01  1.50000000E+00  8.00000000E-01
  8.00000000E-01  1.50000000E+00  8.00000000E-01  8.00000000E-01  1.50000000E+00
  8.00000000E-01  8.00000000E-01  1.50000000E+00  8.00000000E-01  8.00000000E-01
  1.50000000E+00  8.00000000E-01  8.00000000E-01  1.50000000E+00  8.00000000E-01
  8.00000000E-01  1.50000000E+00  8.00000000E-01  8.00000000E-01  1.50000000E+00
  8.00000000E-01  8.00000000E-01  1.50000000E+00  8.00000000E-01  8.00000000E-01
  1.50000000E+00  8.00000000E-01  8.00000000E-01  1.50000000E+00  8.00000000E-01
  8.00000000E-01  1.50000000E+00  8.00000000E-01  8.00000000E-01  1.50000000E+00
  8.00000000E-01  8.00000000E-01  1.50000000E+00  8.00000000E-01  8.00000000E-01
  1.50000000E+00  8.00000000E-01  8.00000000E-01  1.50000000E+00  8.00000000E-01
  8.00000000E-01  1.50000000E+00  8.00000000E-01  8.00000000E-01  1.50000000E+00
  8.00000000E-01  8.00000000E-01  1.50000000E+00  8.00000000E-01  8.00000000E-01
  1.50000000E+00  8.00000000E-01  8.00000000E-01  1.50000000E+00  8.00000000E-01
  8.00000000E-01  1.50000000E+00  8.00000000E-01  8.00000000E-01  1.50000000E+00
  8.00000000E-01  8.00000000E-01  1.50000000E+00  8.00000000E-01  8.00000000E-01
  1.50000000E+00  8.00000000E-01  8.00000000E-01  1.50000000E+00  8.00000000E-01
  8.00000000E-01  1.50000000E+00  8.00000000E-01  8.00000000E-01  1.50000000E+00
  8.00000000E-01  8.00000000E-01  1.50000000E+00  8.00000000E-01  8.00000000E-01
  1.50000000E+00  8.00000000E-01  8.00000000E-01  1.50000000E+00  8.00000000E-01
  8.00000000E-01  1.50000000E+00  8.00000000E-01  8.00000000E-01  1.50000000E+00
  8.00000000E-01  8.00000000E-01  1.50000000E+00  8.00000000E-01  8.00000000E-01
  1.50000000E+00  8.00000000E-01  8.00000000E-01  1.50000000E+00  8.00000000E-01
  8.00000000E-01  1.50000000E+00  8.00000000E-01  8.00000000E-01  1.50000000E+00
  8.00000000E-01  8.00000000E-01  1.50000000E+00  8.00000000E-01  8.00000000E-01
  1.50000000E+00  8.00000000E-01  8.00000000E-01  1.50000000E+00  8.00000000E-01
  8.00000000E-01  1.50000000E+00  8.00000000E-01  8.00000000E-01  1.50000000E+00
  8.00000000E-01  8.00000000E-01  1.50000000E+00  8.00000000E-01  8.00000000E-01
  1.50000000E+00  8.00000000E-01  8.00000000E-01  1.50000000E+00  8.00000000E-01
  8.00000000E-01  1.50000000E+00  8.00000000E-01  8.00000000E-01  1.50000000E+00
  8.00000000E-01  8.00000000E-01  1.50000000E+00  8.00000000E-01  8.00000000E-01
  1.50000000E+00  8.00000000E-01  8.00000000E-01  1.50000000E+00  8.00000000E-01
  8.00000000E-01  1.50000000E+00  8.00000000E-01  8.00000000E-01  1.50000000E+00
  8.00000000E-01  8.00000000E-01  1.50000000E+00  8.00000000E-01  8.00000000E-01
  1.50000000E+00  8.00000000E-01  8.00000000E-01  1.50000000E+00  8.00000000E-01
  8.00000000E-01  1.50000000E+00  8.00000000E-01  8.00000000E-01  1.50000000E+00
  8.00000000E-01  8.00000000E-01  1.50000000E+00  8.00000000E-01  8.00000000E-01
  1.50000000E+00  8.00000000E-01  8.00000000E-01  1.50000000E+00  8.00000000E-01
  8.00000000E-01  1.50000000E+00  8.00000000E-01  8.00000000E-01  1.50000000E+00
  8.00000000E-01  8.00000000E-01  1.50000000E+00  8.00000000E-01  8.00000000E-01
  1.50000000E+00  8.00000000E-01  8.00000000E-01  1.50000000E+00  8.00000000E-01
  8.00000000E-01  1.50000000E+00  8.00000000E-01  8.00000000E-01  1.50000000E+00
  8.00000000E-01  8.00000000E-01  1.50000000E+00  8.00000000E-01  8.00000000E-01
  1.50000000E+00  8.00000000E-01  8.00000000E-01  1.50000000E+00  8.00000000E-01
  8.00000000E-01  1.50000000E+00  8.00000000E-01  8.00000000E-01  1.50000000E+00
  8.00000000E-01  8.00000000E-01  1.50000000E+00  8.00000000E-01  8.00000000E-01
  1.50000000E+00  8.00000000E-01  8.00000000E-01  1.50000000E+00  8.00000000E-01
  8.00000000E-01  1.50000000E+00  8.00000000E-01  8.00000000E-01  1.50000000E+00
  8.00000000E-01  8.00000000E-01  1.50000000E+00  8.00000000E-01  8.00000000E-01
  1.50000000E+00  8.00000000E-01  8.00000000E-01  1.50000000E+00  8.00000000E-01
  8.00000000E-01  1.50000000E+00  8.00000000E-01  8.00000000E-01  1.50000000E+00
  8.00000000E-01  8.00000000E-01  1.50000000E+00  8.00000000E-01  8.00000000E-01
  1.50000000E+00  8.00000000E-01  8.00000000E-01  1.50000000E+00  8.00000000E-01
  8.00000000E-01  1.50000000E+00  8.00000000E-01  8.00000000E-01  1.50000000E+00
  8.00000000E-01  8.00000000E-01  1.50000000E+00  8.00000000E-01  8.00000000E-01
  1.50000000E+00  8.00000000E-01  8.00000000E-01  1.50000000E+00  8.00000000E-01
  8.00000000E-01  1.50000000E+00  8.00000000E-01  8.00000000E-01  1.50000000E+00
  8.00000000E-01  8.00000000E-01  1.50000000E+00  8.00000000E-01  8.00000000E-01
  1.50000000E+00  8.00000000E-01  8.00000000E-01  1.50000000E+00  8.00000000E-01
  8.00000000E-01  1.50000000E+00  8.00000000E-01  8.00000000E-01  1.50000000E+00
  8.00000000E-01  8.00000000E-01  1.50000000E+00  8.00000000E-01  8.00000000E-01
  1.50000000E+00  8.00000000E-01  8.00000000E-01  1.50000000E+00  8.00000000E-01
  8.00000000E-01  1.50000000E+00  8.00000000E-01  8.00000000E-01  1.50000000E+00
  8.00000000E-01  8.00000000E-01  1.50000000E+00  8.00000000E-01  8.00000000E-01
  1.50000000E+00  8.00000000E-01  8.00000000E-01  1.50000000E+00  8.00000000E-01
  8.00000000E-01  1.50000000E+00  8.00000000E-01  8.00000000E-01  1.50000000E+00
  8.00000000E-01  8.00000000E-01  1.50000000E+00  8.00000000E-01  8.00000000E-01
  1.50000000E+00  8.00000000E-01  8.00000000E-01  1.50000000E+00  8.00000000E-01
  8.00000000E-01  1.50000000E+00  8.00000000E-01  8.00000000E-01  1.50000000E+00
  8.00000000E-01  8.00000000E-01  1.50000000E+00  8.00000000E-01  8.00000000E-01
  1.50000000E+00  8.00000000E-01  8.00000000E-01  1.50000000E+00  8.00000000E-01
  8.00000000E-01  1.50000000E+00  8.00000000E-01  8.00000000E-01
%FLAG SCREEN                                                                    
%FORMAT(5E16.8)                                                                 
  7.90000000E-01  7.20000000E-01  8.50000000E-01  7.20000000E-01  7.90000000E-01
  8.50000000E-01  7.20000000E-01  7.90000000E-01  8.50000000E-01  7.20000000E-01
  8.50000000E-01  7.20000000E-01  8.50000000E-01  7.20000000E-01  8.50000000E-01
  7.20000000E-01  7.20000000E-01  7.20000000E-01  7.20000000E-01  7.20000000E-01
  7.20000000E-01  8.50000000E-01  8.50000000E-01  8.50000000E-01  8.50000000E-01
  8.50000000E-01  8.50000000E-01  8.50000000E-01  8.50000000E-01  8.50000000E-01
  8.50000000E-01  8.50000000E-01  8.50000000E-01  8.50000000E-01  8.50000000E-01
  8.50000000E-01  8.50000000E-01  8.50000000E-01  8.50000000E-01  8.00000000E-01
  8.00000000E-01  8.50000000E-01  8.50000000E-01  8.50000000E-01  8.50000000E-01
  8.50000000E-01  8.50000000E-01  8.50000000E-01  8.50000000E-01  8.50000000E-01
  8.50000000E-01  8.50000000E-01  8.50000000E-01  8.50000000E-01  8.50000000E-01
  8.50000000E-01  8.50000000E-01  8.50000000E-01  8.50000000E-01  8.50000000E-01
  8.50000000E-01  8.50000000E-01  8.50000000E-01  8.50000000E-01  8.50000000E-01
  8.50000000E-01  8.50000000E-01  8.50000000E-01  8.50000000E-01  8.50000000E-01
  8.50000000E-01  8.50000000E-01  8.50000000E-01  8.50000000E-01  8.50000000E-01
  8.50000000E-01  8.50000000E-01  8.50000000E-01  8.50000000E-01  8.50000000E-01
  8.50000000E-01  8.50000000E-01  8.50000000E-01  8.50000000E-01  8.50000000E-01
  8.50000000E-01  8.50000000E-01  8.50000000E-01  8.50000000E-01  8.50000000E-01
  8.50000000E-01  8.50000000E-01  8.50000000E-01  8.50000000E-01  8.50000000E-01
  8.50000000E-01  8.50000000E-01  8.50000000E-01  8.50000000E-01  8.50000000E-01
  8.50000000E-01  8.50000000E-01  8.50000000E-01  8.50000000E-01  8.50000000E-01
  8.50000000E-01  8.50000000E-01  8.50000000E-01  8.50000000E-01  8.50000000E-01
  8.50000000E-01  8.50000000E-01  8.50000000E-01  8.50000000E-01  8.50000000E-01
  8.50000000E-01  8.50000000E-01  8.50000000E-01  8.50000000E-01  8.50000000E-01
  8.50000000E-01  8.50000000E-01  8.50000000E-01  8.50000000E-01  8.50000000E-01
  8.50000000E-01  8.50000000E-01  8.50000000E-01  8.50000000E-01  8.50000000E-01
  8.50000000E-01  8.50000000E-01  8.50000000E-01  8.50000000E-01  8.50000000E-01
  8.50000000E-01  8.50000000E-01  8.50000000E-01  8.50000000E-01  8.50000000E-01
  8.50000000E-01  8.50000000E-01  8.50000000E-01  8.50000000E-01  8.50000000E-01
  8.50000000E-01  8.50000000E-01  8.50000000E-01  8.50000000E-01  8.50000000E-01
  8.50000000E-01  8.50000000E-01  8.50000000E-01  8.50000000E-01  8.50000000E-01
  8.50000000E-01  8.50000000E-01  8.50000000E-01  8.50000000E-01  8.50000000E-01
  8.50000000E-01  8.50000000E-01  8.50000000E-01  8.50000000E-01  8.50000000E-01
  8.50000000E-01  8.50000000E-01  8.50000000E-01  8.50000000E-01  8.50000000E-01
  8.50000000E-01  8.50000000E-01  8.50000000E-01  8.50000000E-01  8.50000000E-01
  8.50000000E-01  8.50000000E-01  8.50000000E-01  8.50000000E-01  8.50000000E-01
  8.50000000E-01  8.50000000E-01  8.50000000E-01  8.50000000E-01  8.50000000E-01
  8.50000000E-01  8.50000000E-01  8.50000000E-01  8.50000000E-01  8.50000000E-01
  8.50000000E-01  8.50000000E-01  8.50000000E-01  8.50000000E-01  8.50000000E-01
  8.50000000E-01  8.50000000E-01  8.50000000E-01  8.50000000E-01  8.50000000E-01
  8.50000000E-01  8.50000000E-01  8.50000000E-01  8.50000000E-01  8.50000000E-01
  8.50000000E-01  8.50000000E-01  8.50000000E-01  8.50000000E-01  8.50000000E-01
  8.50000000E-01  8.50000000E-01  8.50000000E-01  8.50000000E-01  8.50000000E-01
  8.50000000E-01  8.50000000E-01  8.50000000E-01  8.50000000E-01  8.50000000E-01
  8.50000000E-01  8.50000000E-01  8.50000000E-01  8.50000000E-01  8.50000000E-01
  8.50000000E-01  8.50000000E-01  8.50000000E-01  8.50000000E-01  8.50000000E-01
  8.50000000E-01  8.50000000E-01  8.50000000E-01  8.50000000E-01  8.50000000E-01
  8.50000000E-01  8.50000000E-01  8.50000000E-01  8.50000000E-01  8.50000000E-01
  8.50000000E-01  8.50000000E-01  8.50000000E-01  8.50000000E-01  8.50000000E-01
  8.50000000E-01  8.50000000E-01  8.50000000E-01  8.50000000E-01  8.50000000E-01
  8.50000000E-01  8.50000000E-01  8.50000000E-01  8.50000000E-01  8.50000000E-01
  8.50000000E-01  8.50000000E-01  8.50000000E-01  8.50000000E-01  8.50000000E-01
  8.50000000E-01  8.50000000E-01  8.50000000E-01  8.50000000E-01  8.50000000E-01
  8.50000000E-01  8.50000000E-01  8.50000000E-01  8.50000000E-01  8.50000000E-01
  8.50000000E-01  8.50000000E-01  8.50000000E-01  8.50000000E-01  8.50000000E-01
  8.50000000E-01  8.50000000E-01  8.50000000E-01  8.50000000E-01  8.50000000E-01
  8.50000000E-01  8.50000000E-01  8.50000000E-01  8.50000000E-01  8.50000000E-01
  8.50000000E-01  8.50000000E-01  8.50000000E-01  8.50000000E-01  8.50000000E-01
  8.50000000E-01  8.50000000E-01  8.50000000E-01  8.50000000E-01  8.50000000E-01
  8.50000000E-01  8.50000000E-01  8.50000000E-01  8.50000000E-01  8.50000000E-01
  8.50000000E-01  8.50000000E-01  8.50000000E-01  8.50000000E-01  8.50000000E-01
  8.50000000E-01  8.50000000E-01  8.50000000E-01  8.50000000E-01  8.50000000E-01
  8.50000000E-01  8.50000000E-01  8.50000000E-01  8.50000000E-01  8.50000000E-01
  8.50000000E-01  8.50000000E-01  8.50000000E-01  8.50000000E-01  8.50000000E-01
  8.50000000E-01  8.50000000E-01  8.50000000E-01  8.50000000E-01  8.50000000E-01
  8.50000000E-01  8.50000000E-01  8.50000000E-01  8.50000000E-01  8.50000000E-01
  8.50000000E-01  8.50000000E-01  8.50000000E-01  8.50000000E-01  8.50000000E-01
  8.50000000E-01  8.50000000E-01  8.50000000E-01  8.50000000E-01  8.50000000E-01
  8.50000000E-01  8.50000000E-01  8.50000000E-01  8.50000000E-01  8.50000000E-01
  8.50000000E-01  8.50000000E-01  8.50000000E-01  8.50000000E-01  8.50000000E-01
  8.50000000E-01  8.50000000E-01  8.50000000E-01  8.50000000E-01  8.50000000E-01
  8.50000000E-01  8.50000000E-01  8.50000000E-01  8.50000000E-01  8.50000000E-01
  8.50000000E-01  8.50000000E-01  8.50000000E-01  8.50000000E-01  8.50000000E-01
  8.50000000E-01  8.50000000E-01  8.50000000E-01  8.50000000E-01  8.50000000E-01
  8.50000000E-01  8.50000000E-01  8.50000000E-01  8.50000000E-01  8.50000000E-01
  8.50000000E-01  8.50000000E-01  8.50000000E-01  8.50000000E-01  8.50000000E-01
  8.50000000E-01  8.50000000E-01  8.50000000E-01  8.50000000E-01  8.50000000E-01
  8.50000000E-01  8.50000000E-01  8.50000000E-01  8.50000000E-01  8.50000000E-01
  8.50000000E-01  8.50000000E-01  8.50000000E-01  8.50000000E-01  8.50000000E-01
  8.50000000E-01  8.50000000E-01  8.50000000E-01  8.50000000E-01  8.50000000E-01
  8.50000000E-01  8.50000000E-01  8.50000000E-01  8.50000000E-01  8.50000000E-01
  8.50000000E-01  8.50000000E-01  8.50000000E-01  8.50000000E-01  8.50000000E-01
  8.50000000E-01  8.50000000E-01  8.50000000E-01  8.50000000E-01  8.50000000E-01
  8.50000000E-01  8.50000000E-01  8.50000000E-01  8.50000000E-01  8.50000000E-01
  8.50000000E-01  8.50000000E-01  8.50000000E-01  8.50000000E-01  8.50000000E-01
  8.50000000E-01  8.50000000E-01  8.50000000E-01  8.50000000E-01  8.50000000E-01
  8.50000000E-01  8.50000000E-01  8.50000000E-01  8.50000000E-01  8.50000000E-01
  8.50000000E-01  8.50000000E-01  8.50000000E-01  8.50000000E-01  8.50000000E-01
  8.50000000E-01  8.50000000E-01  8.50000000E-01  8.50000000E-01  8.50000000E-01
  8.50000000E-01  8.50000000E-01  8.50000000E-01  8.50000000E-01  8.50000000E-01
  8.50000000E-01  8.50000000E-01  8.50000000E-01  8.50000000E-01  8.50000000E-01
  8.50000000E-01  8.50000000E-01  8.50000000E-01  8.50000000E-01  8.50000000E-01
  8.50000000E-01  8.50000000E-01  8.50000000E-01  8.50000000E-01  8.50000000E-01
  8.50000000E-01  8.50000000E-01  8.50000000E-01  8.50000000E-01  8.50000000E-01
  8.50000000E-01  8.50000000E-01  8.50000000E-01  8.50000000E-01  8.50000000E-01
  8.50000000E-01  8.50000000E-01  8.50000000E-01  8.50000000E-01  8.50000000E-01
  8.50000000E-01  8.50000000E-01  8.50000000E-01  8.50000000E-01  8.50000000E-01
  8.50000000E-01  8.50000000E-01  8.50000000E-01  8.50000000E-01  8.50000000E-01
  8.50000000E-01  8.50000000E-01  8.50000000E-01  8.50000000E-01  8.50000000E-01
  8.50000000E-01  8.50000000E-01  8.50000000E-01  8.50000000E-01  8.50000000E-01
  8.50000000E-01  8.50000000E-01  8.50000000E-01  8.50000000E-01  8.50000000E-01
  8.50000000E-01  8.50000000E-01  8.50000000E-01  8.50000000E-01  8.50000000E-01
  8.50000000E-01  8.50000000E-01  8.50000000E-01  8.50000000E-01  8.50000000E-01
  8.50000000E-01  8.50000000E-01  8.50000000E-01  8.50000000E-01  8.50000000E-01
  8.50000000E-01  8.50000000E-01  8.50000000E-01  8.50000000E-01  8.50000000E-01
  8.50000000E-01  8.50000000E-01  8.50000000E-01  8.50000000E-01  8.50000000E-01
  8.50000000E-01  8.50000000E-01  8.50000000E-01  8.50000000E-01  8.50000000E-01
  8.50000000E-01  8.50000000E-01  8.50000000E-01  8.50000000E-01  8.50000000E-01
  8.50000000E-01  8.50000000E-01  8.50000000E-01  8.50000000E-01  8.50000000E-01
  8.50000000E-01  8.50000000E-01  8.50000000E-01  8.50000000E-01  8.50000000E-01
  8.50000000E-01  8.50000000E-01  8.50000000E-01  8.50000000E-01  8.50000000E-01
  8.50000000E-01  8.50000000E-01  8.50000000E-01  8.50000000E-01  8.50000000E-01
  8.50000000E-01  8.50000000E-01  8.50000000E-01  8.50000000E-01  8.50000000E-01
  8.50000000E-01  8.50000000E-01  8.50000000E-01  8.50000000E-01  8.50000000E-01
  8.50000000E-01  8.50000000E-01  8.50000000E-01  8.50000000E-01  8.50000000E-01
  8.50000000E-01  8.50000000E-01  8.50000000E-01  8.50000000E-01  8.50000000E-01
  8.50000000E-01  8.50000000E-01  8.50000000E-01  8.50000000E-01  8.50000000E-01
  8.50000000E-01  8.50000000E-01  8.50000000E-01  8.50000000E-01  8.50000000E-01
  8.50000000E-01  8.50000000E-01  8.50000000E-01  8.50000000E-01  8.50000000E-01
  8.50000000E-01  8.50000000E-01  8.50000000E-01  8.50000000E-01  8.50000000E-01
  8.50000000E-01  8.50000000E-01  8.50000000E-01  8.50000000E-01  8.50000000E-01
  8.50000000E-01  8.50000000E-01  8.50000000E-01  8.50000000E-01  8.50000000E-01
  8.50000000E-01  8.50000000E-01  8.50000000E-01  8.50000000E-01  8.50000000E-01
  8.50000000E-01  8.50000000E-01  8.50000000E-01  8.50000000E-01  8.50000000E-01
  8.50000000E-01  8.50000000E-01  8.50000000E-01  8.50000000E-01  8.50000000E-01
  8.50000000E-01  8.50000000E-01  8.50000000E-01  8.50000000E-01  8.50000000E-01
  8.50000000E-01  8.50000000E-01  8.50000000E-01  8.50000000E-01  8.50000000E-01
  8.50000000E-01  8.50000000E-01  8.50000000E-01  8.50000000E-01  8.50000000E-01
  8.50000000E-01  8.50000000E-01  8.50000000E-01  8.50000000E-01  8.50000000E-01
  8.50000000E-01  8.50000000E-01  8.50000000E-01  8.50000000E-01  8.50000000E-01
  8.50000000E-01  8.50000000E-01  8.50000000E-01  8.50000000E-01  8.50000000E-01
  8.50000000E-01  8.50000000E-01  8.50000000E-01  8.50000000E-01  8.50000000E-01
  8.50000000E-01  8.50000000E-01  8.50000000E-01  8.50000000E-01  8.50000000E-01
  8.50000000E-01  8.50000000E-01  8.50000000E-01  8.50000000E-01  8.50000000E-01
  8.50000000E-01  8.50000000E-01  8.50000000E-01  8.50000000E-01  8.50000000E-01
  8.50000000E-01  8.50000000E-01  8.50000000E-01  8.50000000E-01  8.50000000E-01
  8.50000000E-01  8.50000000E-01  8.50000000E-01  8.50000000E-01  8.50000000E-01
  8.50000000E-01  8.50000000E-01  8.50000000E-01  8.50000000E-01  8.50000000E-01
  8.50000000E-01  8.50000000E-01  8.50000000E-01  8.50000000E-01  8.50000000E-01
  8.50000000E-01  8.50000000E-01  8.50000000E-01  8.50000000E-01  8.50000000E-01
  8.50000000E-01  8.50000000E-01  8.50000000E-01  8.50000000E-01  8.50000000E-01
  8.50000000E-01  8.50000000E-01  8.50000000E-01  8.50000000E-01  8.50000000E-01
  8.50000000E-01  8.50000000E-01  8.50000000E-01  8.50000000E-01  8.50000000E-01
  8.50000000E-01  8.50000000E-01  8.50000000E-01  8.50000000E-01  8.50000000E-01
  8.50000000E-01  8.50000000E-01  8.50000000E-01  8.50000000E-01  8.50000000E-01
  8.50000000E-01  8.50000000E-01  8.50000000E-01  8.50000000E-01  8.50000000E-01
  8.50000000E-01  8.50000000E-01  8.50000000E-01  8.50000000E-01  8.50000000E-01
  8.50000000E-01  8.50000000E-01  8.50000000E-01  8.50000000E-01  8.50000000E-01
  8.50000000E-01  8.50000000E-01  8.50000000E-01  8.50000000E-01  8.50000000E-01
  8.50000000E-01  8.50000000E-01  8.50000000E-01  8.50000000E-01  8.50000000E-01
  8.50000000E-01  8.50000000E-01  8.50000000E-01  8.50000000E-01  8.50000000E-01
  8.50000000E-01  8.50000000E-01  8.50000000E-01  8.50000000E-01  8.50000000E-01
  8.50000000E-01  8.50000000E-01  8.50000000E-01  8.50000000E-01  8.50000000E-01
  8.50000000E-01  8.50000000E-01  8.50000000E-01  8.50000000E-01  8.50000000E-01
  8.50000000E-01  8.50000000E-01  8.50000000E-01  8.50000000E-01  8.50000000E-01
  8.50000000E-01  8.50000000E-01  8.50000000E-01  8.50000000E-01  8.50000000E-01
  8.50000000E-01  8.50000000E-01  8.50000000E-01  8.50000000E-01  8.50000000E-01
  8.50000000E-01  8.50000000E-01  8.50000000E-01  8.50000000E-01  8.50000000E-01
  8.50000000E-01  8.50000000E-01  8.50000000E-01  8.50000000E-01  8.50000000E-01
  8.50000000E-01  8.50000000E-01  8.50000000E-01  8.50000000E-01  8.50000000E-01
  8.50000000E-01  8.50000000E-01  8.50000000E-01  8.50000000E-01  8.50000000E-01
  8.50000000E-01  8.50000000E-01  8.50000000E-01  8.50000000E-01  8.50000000E-01
  8.50000000E-01  8.50000000E-01  8.50000000E-01  8.50000000E-01  8.50000000E-01
  8.50000000E-01  8.50000000E-01  8.50000000E-01  8.50000000E-01  8.50000000E-01
  8.50000000E-01  8.50000000E-01  8.50000000E-01  8.50000000E-01  8.50000000E-01
  8.50000000E-01  8.50000000E-01  8.50000000E-01  8.50000000E-01  8.50000000E-01
  8.50000000E-01  8.50000000E-01  8.50000000E-01  8.50000000E-01  8.50000000E-01
  8.50000000E-01  8.50000000E-01  8.50000000E-01  8.50000000E-01  8.50000000E-01
  8.50000000E-01  8.50000000E-01  8.50000000E-01  8.50000000E-01  8.50000000E-01
  8.50000000E-01  8.50000000E-01  8.50000000E-01  8.50000000E-01  8.50000000E-01
  8.50000000E-01  8.50000000E-01  8.50000000E-01  8.50000000E-01  8.50000000E-01
  8.50000000E-01  8.50000000E-01  8.50000000E-01  8.50000000E-01  8.50000000E-01
  8.50000000E-01  8.50000000E-01  8.50000000E-01  8.50000000E-01  8.50000000E-01
  8.50000000E-01  8.50000000E-01  8.50000000E-01  8.50000000E-01  8.50000000E-01
  8.50000000E-01  8.50000000E-01  8.50000000E-01  8.50000000E-01  8.50000000E-01
  8.50000000E-01  8.50000000E-01  8.50000000E-01  8.50000000E-01  8.50000000E-01
  8.50000000E-01  8.50000000E-01  8.50000000E-01  8.50000000E-01  8.50000000E-01
  8.50000000E-01  8.50000000E-01  8.50000000E-01  8.50000000E-01  8.50000000E-01
  8.50000000E-01  8.50000000E-01  8.50000000E-01  8.50000000E-01  8.50000000E-01
  8.50000000E-01  8.50000000E-01  8.50000000E-01  8.50000000E-01  8.50000000E-01
  8.50000000E-01  8.50000000E-01  8.50000000E-01  8.50000000E-01  8.50000000E-01
  8.50000000E-01  8.50000000E-01  8.50000000E-01  8.50000000E-01  8.50000000E-01
  8.50000000E-01  8.50000000E-01  8.50000000E-01  8.50000000E-01  8.50000000E-01
  8.50000000E-01  8.50000000E-01  8.50000000E-01  8.50000000E-01  8.50000000E-01
  8.50000000E-01  8.50000000E-01  8.50000000E-01  8.50000000E-01  8.50000000E-01
  8.50000000E-01  8.50000000E-01  8.50000000E-01  8.50000000E-01  8.50000000E-01
  8.50000000E-01  8.50000000E-01  8.50000000E-01  8.50000000E-01  8.50000000E-01
  8.50000000E-01  8.50000000E-01  8.50000000E-01  8.50000000E-01  8.50000000E-01
  8.50000000E-01  8.50000000E-01  8.50000000E-01  8.50000000E-01  8.50000000E-01
  8.50000000E-01  8.50000000E-01  8.50000000E-01  8.50000000E-01  8.50000000E-01
  8.50000000E-01  8.50000000E-01  8.50000000E-01  8.50000000E-01  8.50000000E-01
  8.50000000E-01  8.50000000E-01  8.50000000E-01  8.50000000E-01  8.50000000E-01
  8.50000000E-01  8.50000000E-01  8.50000000E-01  8.50000000E-01  8.50000000E-01
  8.50000000E-01  8.50000000E-01  8.50000000E-01  8.50000000E-01  8.50000000E-01
  8.50000000E-01  8.50000000E-01  8.50000000E-01  8.50000000E-01  8.50000000E-01
  8.50000000E-01  8.50000000E-01  8.50000000E-01  8.50000000E-01  8.50000000E-01
  8.50000000E-01  8.50000000E-01  8.50000000E-01  8.50000000E-01  8.50000000E-01
  8.50000000E-01  8.50000000E-01  8.50000000E-01  8.50000000E-01  8.50000000E-01
  8.50000000E-01  8.50000000E-01  8.50000000E-01  8.50000000E-01  8.50000000E-01
  8.50000000E-01  8.50000000E-01  8.50000000E-01  8.50000000E-01  8.50000000E-01
  8.50000000E-01  8.50000000E-01  8.50000000E-01  8.50000000E-01  8.50000000E-01
  8.50000000E-01  8.50000000E-01  8.50000000E-01  8.50000000E-01  8.50000000E-01
  8.50000000E-01  8.50000000E-01  8.50000000E-01  8.50000000E-01  8.50000000E-01
  8.50000000E-01  8.50000000E-01  8.50000000E-01  8.50000000E-01  8.50000000E-01
  8.50000000E-01  8.50000000E-01  8.50000000E-01  8.50000000E-01  8.50000000E-01
  8.50000000E-01  8.50000000E-01  8.50000000E-01  8.50000000E-01  8.50000000E-01
  8.50000000E-01  8.50000000E-01  8.50000000E-01  8.50000000E-01  8.50000000E-01
  8.50000000E-01  8.50000000E-01  8.50000000E-01  8.50000000E-01  8.50000000E-01
  8.50000000E-01  8.50000000E-01  8.50000000E-01  8.50000000E-01  8.50000000E-01
  8.50000000E-01  8.50000000E-01  8.50000000E-01  8.50000000E-01  8.50000000E-01
  8.50000000E-01  8.50000000E-01  8.50000000E-01  8.50000000E-01  8.50000000E-01
  8.50000000E-01  8.50000000E-01  8.50000000E-01  8.50000000E-01  8.50000000E-01
  8.50000000E-01  8.50000000E-01  8.50000000E-01  8.50000000E-01  8.50000000E-01
  8.50000000E-01  8.50000000E-01  8.50000000E-01  8.50000000E-01  8.50000000E-01
  8.50000000E-01  8.50000000E-01  8.50000000E-01  8.50000000E-01  8.50000000E-01
  8.50000000E-01  8.50000000E-01  8.50000000E-01  8.50000000E-01  8.50000000E-01
  8.50000000E-01  8.50000000E-01  8.50000000E-01  8.50000000E-01  8.50000000E-01
  8.50000000E-01  8.50000000E-01  8.50000000E-01  8.50000000E-01  8.50000000E-01
  8.50000000E-01  8.50000000E-01  8.50000000E-01  8.50000000E-01  8.50000000E-01
  8.50000000E-01  8.50000000E-01  8.50000000E-01  8.50000000E-01  8.50000000E-01
  8.50000000E-01  8.50000000E-01  8.50000000E-01  8.50000000E-01  8.50000000E-01
  8.50000000E-01  8.50000000E-01  8.50000000E-01  8.50000000E-01  8.50000000E-01
  8.50000000E-01  8.50000000E-01  8.50000000E-01  8.50000000E-01  8.50000000E-01
  8.50000000E-01  8.50000000E-01  8.50000000E-01  8.50000000E-01  8.50000000E-01
  8.50000000E-01  8.50000000E-01  8.50000000E-01  8.50000000E-01  8.50000000E-01
  8.50000000E-01  8.50000000E-01  8.50000000E-01  8.50000000E-01  8.50000000E-01
  8.50000000E-01  8.50000000E-01  8.50000000E-01  8.50000000E-01  8.50000000E-01
  8.50000000E-01  8.50000000E-01  8.50000000E-01  8.50000000E-01  8.50000000E-01
  8.50000000E-01  8.50000000E-01  8.50000000E-01  8.50000000E-01  8.50000000E-01
  8.50000000E-01  8.50000000E-01  8.50000000E-01  8.50000000E-01  8.50000000E-01
  8.50000000E-01  8.50000000E-01  8.50000000E-01  8.50000000E-01  8.50000000E-01
  8.50000000E-01  8.50000000E-01  8.50000000E-01  8.50000000E-01  8.50000000E-01
  8.50000000E-01  8.50000000E-01  8.50000000E-01  8.50000000E-01  8.50000000E-01
  8.50000000E-01  8.50000000E-01  8.50000000E-01  8.50000000E-01  8.50000000E-01
  8.50000000E-01  8.50000000E-01  8.50000000E-01  8.50000000E-01  8.50000000E-01
  8.50000000E-01  8.50000000E-01  8.50000000E-01  8.50000000E-01  8.50000000E-01
  8.50000000E-01  8.50000000E-01  8.50000000E-01  8.50000000E-01  8.50000000E-01
  8.50000000E-01  8.50000000E-01  8.50000000E-01  8.50000000E-01  8.50000000E-01
  8.50000000E-01  8.50000000E-01  8.50000000E-01  8.50000000E-01  8.50000000E-01
  8.50000000E-01  8.50000000E-01  8.50000000E-01  8.50000000E-01  8.50000000E-01
  8.50000000E-01  8.50000000E-01  8.50000000E-01  8.50000000E-01  8.50000000E-01
  8.50000000E-01  8.50000000E-01  8.50000000E-01  8.50000000E-01  8.50000000E-01
  8.50000000E-01  8.50000000E-01  8.50000000E-01  8.50000000E-01  8.50000000E-01
  8.50000000E-01  8.50000000E-01  8.50000000E-01  8.50000000E-01  8.50000000E-01
  8.50000000E-01  8.50000000E-01  8.50000000E-01  8.50000000E-01  8.50000000E-01
  8.50000000E-01  8.50000000E-01  8.50000000E-01  8.50000000E-01  8.50000000E-01
  8.50000000E-01  8.50000000E-01  8.50000000E-01  8.50000000E-01  8.50000000E-01
  8.50000000E-01  8.50000000E-01  8.50000000E-01  8.50000000E-01  8.50000000E-01
  8.50000000E-01  8.50000000E-01  8.50000000E-01  8.50000000E-01  8.50000000E-01
  8.50000000E-01  8.50000000E-01  8.50000000E-01  8.50000000E-01  8.50000000E-01
  8.50000000E-01  8.50000000E-01  8.50000000E-01  8.50000000E-01  8.50000000E-01
  8.50000000E-01  8.50000000E-01  8.50000000E-01  8.50000000E-01  8.50000000E-01
  8.50000000E-01  8.50000000E-01  8.50000000E-01  8.50000000E-01  8.50000000E-01
  8.50000000E-01  8.50000000E-01  8.50000000E-01  8.50000000E-01  8.50000000E-01
  8.50000000E-01  8.50000000E-01  8.50000000E-01  8.50000000E-01  8.50000000E-01
  8.50000000E-01  8.50000000E-01  8.50000000E-01  8.50000000E-01  8.50000000E-01
  8.50000000E-01  8.50000000E-01  8.50000000E-01  8.50000000E-01  8.50000000E-01
  8.50000000E-01  8.50000000E-01  8.50000000E-01  8.50000000E-01  8.50000000E-01
  8.50000000E-01  8.50000000E-01  8.50000000E-01  8.50000000E-01  8.50000000E-01
  8.50000000E-01  8.50000000E-01  8.50000000E-01  8.50000000E-01  8.50000000E-01
  8.50000000E-01  8.50000000E-01  8.50000000E-01  8.50000000E-01  8.50000000E-01
  8.50000000E-01  8.50000000E-01  8.50000000E-01  8.50000000E-01  8.50000000E-01
  8.50000000E-01  8.50000000E-01  8.50000000E-01  8.50000000E-01  8.50000000E-01
  8.50000000E-01  8.50000000E-01  8.50000000E-01  8.50000000E-01  8.50000000E-01
  8.50000000E-01  8.50000000E-01  8.50000000E-01  8.50000000E-01  8.50000000E-01
  8.50000000E-01  8.50000000E-01  8.50000000E-01  8.50000000E-01  8.50000000E-01
  8.50000000E-01  8.50000000E-01  8.50000000E-01  8.50000000E-01  8.50000000E-01
  8.50000000E-01  8.50000000E-01  8.50000000E-01  8.50000000E-01  8.50000000E-01
  8.50000000E-01  8.50000000E-01  8.50000000E-01  8.50000000E-01  8.50000000E-01
  8.50000000E-01  8.50000000E-01  8.50000000E-01  8.50000000E-01  8.50000000E-01
  8.50000000E-01  8.50000000E-01  8.50000000E-01  8.50000000E-01  8.50000000E-01
  8.50000000E-01  8.50000000E-01  8.50000000E-01  8.50000000E-01  8.50000000E-01
  8.50000000E-01  8.50000000E-01  8.50000000E-01  8.50000000E-01  8.50000000E-01
  8.50000000E-01  8.50000000E-01  8.50000000E-01  8.50000000E-01  8.50000000E-01
  8.50000000E-01  8.50000000E-01  8.50000000E-01  8.50000000E-01  8.50000000E-01
  8.50000000E-01  8.50000000E-01  8.50000000E-01  8.50000000E-01  8.50000000E-01
  8.50000000E-01  8.50000000E-01  8.50000000E-01  8.50000000E-01  8.50000000E-01
  8.50000000E-01  8.50000000E-01  8.50000000E-01  8.50000000E-01  8.50000000E-01
  8.50000000E-01  8.50000000E-01  8.50000000E-01  8.50000000E-01  8.50000000E-01
  8.50000000E-01  8.50000000E-01  8.50000000E-01  8.50000000E-01  8.50000000E-01
  8.50000000E-01  8.50000000E-01  8.50000000E-01  8.50000000E-01  8.50000000E-01
  8.50000000E-01  8.50000000E-01  8.50000000E-01  8.50000000E-01  8.50000000E-01
  8.50000000E-01  8.50000000E-01  8.50000000E-01  8.50000000E-01  8.50000000E-01
  8.50000000E-01  8.50000000E-01  8.50000000E-01  8.50000000E-01  8.50000000E-01
  8.50000000E-01  8.50000000E-01  8.50000000E-01  8.50000000E-01  8.50000000E-01
  8.50000000E-01  8.50000000E-01  8.50000000E-01  8.50000000E-01  8.50000000E-01
  8.50000000E-01  8.50000000E-01  8.50000000E-01  8.50000000E-01  8.50000000E-01
  8.50000000E-01  8.50000000E-01  8.50000000E-01  8.50000000E-01  8.50000000E-01
  8.50000000E-01  8.50000000E-01  8.50000000E-01  8.50000000E-01  8.50000000E-01
  8.50000000E-01  8.50000000E-01  8.50000000E-01  8.50000000E-01  8.50000000E-01
  8.50000000E-01  8.50000000E-01  8.50000000E-01  8.50000000E-01  8.50000000E-01
  8.50000000E-01  8.50000000E-01  8.50000000E-01  8.50000000E-01  8.50000000E-01
  8.50000000E-01  8.50000000E-01  8.50000000E-01  8.50000000E-01  8.50000000E-01
  8.50000000E-01  8.50000000E-01  8.50000000E-01  8.50000000E-01  8.50000000E-01
  8.50000000E-01  8.50000000E-01  8.50000000E-01  8.50000000E-01  8.50000000E-01
  8.50000000E-01  8.50000000E-01  8.50000000E-01  8.50000000E-01  8.50000000E-01
  8.50000000E-01  8.50000000E-01  8.50000000E-01  8.50000000E-01  8.50000000E-01
  8.50000000E-01  8.50000000E-01  8.50000000E-01  8.50000000E-01  8.50000000E-01
  8.50000000E-01  8.50000000E-01  8.50000000E-01  8.50000000E-01  8.50000000E-01
  8.50000000E-01  8.50000000E-01  8.50000000E-01  8.50000000E-01  8.50000000E-01
  8.50000000E-01  8.50000000E-01  8.50000000E-01  8.50000000E-01  8.50000000E-01
  8.50000000E-01  8.50000000E-01  8.50000000E-01  8.50000000E-01  8.50000000E-01
  8.50000000E-01  8.50000000E-01  8.50000000E-01  8.50000000E-01  8.50000000E-01
  8.50000000E-01  8.50000000E-01  8.50000000E-01  8.50000000E-01  8.50000000E-01
  8.50000000E-01  8.50000000E-01  8.50000000E-01  8.50000000E-01  8.50000000E-01
  8.50000000E-01  8.50000000E-01  8.50000000E-01  8.50000000E-01  8.50000000E-01
  8.50000000E-01  8.50000000E-01  8.50000000E-01  8.50000000E-01  8.50000000E-01
  8.50000000E-01  8.50000000E-01  8.50000000E-01  8.50000000E-01  8.50000000E-01
  8.50000000E-01  8.50000000E-01  8.50000000E-01  8.50000000E-01  8.50000000E-01
  8.50000000E-01  8.50000000E-01  8.50000000E-01  8.50000000E-01  8.50000000E-01
  8.50000000E-01  8.50000000E-01  8.50000000E-01  8.50000000E-01  8.50000000E-01
  8.50000000E-01  8.50000000E-01  8.50000000E-01  8.50000000E-01  8.50000000E-01
  8.50000000E-01  8.50000000E-01  8.50000000E-01  8.50000000E-01  8.50000000E-01
  8.50000000E-01  8.50000000E-01  8.50000000E-01  8.50000000E-01  8.50000000E-01
  8.50000000E-01  8.50000000E-01  8.50000000E-01  8.50000000E-01  8.50000000E-01
  8.50000000E-01  8.50000000E-01  8.50000000E-01  8.50000000E-01  8.50000000E-01
  8.50000000E-01  8.50000000E-01  8.50000000E-01  8.50000000E-01  8.50000000E-01
  8.50000000E-01  8.50000000E-01  8.50000000E-01  8.50000000E-01  8.50000000E-01
  8.50000000E-01  8.50000000E-01  8.50000000E-01  8.50000000E-01  8.50000000E-01
  8.50000000E-01  8.50000000E-01  8.50000000E-01  8.50000000E-01  8.50000000E-01
  8.50000000E-01  8.50000000E-01  8.50000000E-01  8.50000000E-01  8.50000000E-01
  8.50000000E-01  8.50000000E-01  8.50000000E-01  8.50000000E-01  8.50000000E-01
  8.50000000E-01  8.50000000E-01  8.50000000E-01  8.50000000E-01  8.50000000E-01
  8.50000000E-01  8.50000000E-01  8.50000000E-01  8.50000000E-01  8.50000000E-01
  8.50000000E-01  8.50000000E-01  8.50000000E-01  8.50000000E-01  8.50000000E-01
  8.50000000E-01  8.50000000E-01  8.50000000E-01  8.50000000E-01  8.50000000E-01
  8.50000000E-01  8.50000000E-01  8.50000000E-01  8.50000000E-01  8.50000000E-01
  8.50000000E-01  8.50000000E-01  8.50000000E-01  8.50000000E-01  8.50000000E-01
  8.50000000E-01  8.50000000E-01  8.50000000E-01  8.50000000E-01  8.50000000E-01
  8.50000000E-01  8.50000000E-01  8.50000000E-01  8.50000000E-01  8.50000000E-01
  8.50000000E-01  8.50000000E-01  8.50000000E-01  8.50000000E-01  8.50000000E-01
  8.50000000E-01  8.50000000E-01  8.50000000E-01  8.50000000E-01  8.50000000E-01
  8.50000000E-01  8.50000000E-01  8.50000000E-01  8.50000000E-01  8.50000000E-01
  8.50000000E-01  8.50000000E-01  8.50000000E-01  8.50000000E-01  8.50000000E-01
  8.50000000E-01  8.50000000E-01  8.50000000E-01  8.50000000E-01  8.50000000E-01
  8.50000000E-01  8.50000000E-01  8.50000000E-01  8.50000000E-01  8.50000000E-01
  8.50000000E-01  8.50000000E-01  8.50000000E-01  8.50000000E-01  8.50000000E-01
  8.50000000E-01  8.50000000E-01  8.50000000E-01  8.50000000E-01  8.50000000E-01
  8.50000000E-01  8.50000000E-01  8.50000000E-01  8.50000000E-01  8.50000000E-01
  8.50000000E-01  8.50000000E-01  8.50000000E-01  8.50000000E-01  8.50000000E-01
  8.50000000E-01  8.50000000E-01  8.50000000E-01  8.50000000E-01  8.50000000E-01
  8.50000000E-01  8.50000000E-01  8.50000000E-01  8.50000000E-01  8.50000000E-01
  8.50000000E-01  8.50000000E-01  8.50000000E-01  8.50000000E-01  8.50000000E-01
  8.50000000E-01  8.50000000E-01  8.50000000E-01  8.50000000E-01  8.50000000E-01
  8.50000000E-01  8.50000000E-01  8.50000000E-01  8.50000000E-01  8.50000000E-01
  8.50000000E-01  8.50000000E-01  8.50000000E-01  8.50000000E-01  8.50000000E-01
  8.50000000E-01  8.50000000E-01  8.50000000E-01  8.50000000E-01  8.50000000E-01
  8.50000000E-01  8.50000000E-01  8.50000000E-01  8.50000000E-01  8.50000000E-01
  8.50000000E-01  8.50000000E-01  8.50000000E-01  8.50000000E-01  8.50000000E-01
  8.50000000E-01  8.50000000E-01  8.50000000E-01  8.50000000E-01  8.50000000E-01
  8.50000000E-01  8.50000000E-01  8.50000000E-01  8.50000000E-01  8.50000000E-01
  8.50000000E-01  8.50000000E-01  8.50000000E-01  8.50000000E-01  8.50000000E-01
  8.50000000E-01  8.50000000E-01  8.50000000E-01  8.50000000E-01  8.50000000E-01
  8.50000000E-01  8.50000000E-01  8.50000000E-01  8.50000000E-01  8.50000000E-01
  8.50000000E-01  8.50000000E-01  8.50000000E-01  8.50000000E-01  8.50000000E-01
  8.50000000E-01  8.50000000E-01  8.50000000E-01  8.50000000E-01  8.50000000E-01
  8.50000000E-01  8.50000000E-01  8.50000000E-01  8.50000000E-01  8.50000000E-01
  8.50000000E-01  8.50000000E-01  8.50000000E-01  8.50000000E-01  8.50000000E-01
  8.50000000E-01  8.50000000E-01  8.50000000E-01  8.50000000E-01  8.50000000E-01
  8.50000000E-01  8.50000000E-01  8.50000000E-01  8.50000000E-01  8.50000000E-01
  8.50000000E-01  8.50000000E-01  8.50000000E-01  8.50000000E-01  8.50000000E-01
  8.50000000E-01  8.50000000E-01  8.50000000E-01  8.50000000E-01  8.50000000E-01
  8.50000000E-01  8.50000000E-01  8.50000000E-01  8.50000000E-01  8.50000000E-01
  8.50000000E-01  8.50000000E-01  8.50000000E-01  8.50000000E-01  8.50000000E-01
  8.50000000E-01  8.50000000E-01  8.50000000E-01  8.50000000E-01  8.50000000E-01
  8.50000000E-01  8.50000000E-01  8.50000000E-01  8.50000000E-01  8.50000000E-01
  8.50000000E-01  8.50000000E-01  8.50000000E-01  8.50000000E-01  8.50000000E-01
  8.50000000E-01  8.50000000E-01  8.50000000E-01  8.50000000E-01  8.50000000E-01
  8.50000000E-01  8.50000000E-01  8.50000000E-01  8.50000000E-01  8.50000000E-01
  8.50000000E-01  8.50000000E-01  8.50000000E-01  8.50000000E-01  8.50000000E-01
  8.50000000E-01  8.50000000E-01  8.50000000E-01  8.50000000E-01  8.50000000E-01
  8.50000000E-01  8.50000000E-01  8.50000000E-01  8.50000000E-01  8.50000000E-01
  8.50000000E-01  8.50000000E-01  8.50000000E-01  8.50000000E-01  8.50000000E-01
  8.50000000E-01  8.50000000E-01  8.50000000E-01  8.50000000E-01  8.50000000E-01
  8.50000000E-01  8.50000000E-01  8.50000000E-01  8.50000000E-01  8.50000000E-01
  8.50000000E-01  8.50000000E-01  8.50000000E-01  8.50000000E-01  8.50000000E-01
  8.50000000E-01  8.50000000E-01  8.50000000E-01  8.50000000E-01  8.50000000E-01
  8.50000000E-01  8.50000000E-01  8.50000000E-01  8.50000000E-01  8.50000000E-01
  8.50000000E-01  8.50000000E-01  8.50000000E-01  8.50000000E-01  8.50000000E-01
  8.50000000E-01  8.50000000E-01  8.50000000E-01  8.50000000E-01  8.50000000E-01
  8.50000000E-01  8.50000000E-01  8.50000000E-01  8.50000000E-01  8.50000000E-01
  8.50000000E-01  8.50000000E-01  8.50000000E-01  8.50000000E-01  8.50000000E-01
  8.50000000E-01  8.50000000E-01  8.50000000E-01  8.50000000E-01  8.50000000E-01
  8.50000000E-01  8.50000000E-01  8.50000000E-01  8.50000000E-01  8.50000000E-01
  8.50000000E-01  8.50000000E-01  8.50000000E-01  8.50000000E-01  8.50000000E-01
  8.50000000E-01  8.50000000E-01  8.50000000E-01  8.50000000E-01  8.50000000E-01
  8.50000000E-01  8.50000000E-01  8.50000000E-01  8.50000000E-01  8.50000000E-01
  8.50000000E-01  8.50000000E-01  8.50000000E-01  8.50000000E-01  8.50000000E-01
  8.50000000E-01  8.50000000E-01  8.50000000E-01  8.50000000E-01  8.50000000E-01
  8.50000000E-01  8.50000000E-01  8.50000000E-01  8.50000000E-01  8.50000000E-01
  8.50000000E-01  8.50000000E-01  8.50000000E-01  8.50000000E-01  8.50000000E-01
  8.50000000E-01  8.50000000E-01  8.50000000E-01  8.50000000E-01  8.50000000E-01
  8.50000000E-01  8.50000000E-01  8.50000000E-01  8.50000000E-01  8.50000000E-01
  8.50000000E-01  8.50000000E-01  8.50000000E-01  8.50000000E-01  8.50000000E-01
  8.50000000E-01  8.50000000E-01  8.50000000E-01  8.50000000E-01  8.50000000E-01
  8.50000000E-01  8.50000000E-01  8.50000000E-01  8.50000000E-01  8.50000000E-01
  8.50000000E-01  8.50000000E-01  8.50000000E-01  8.50000000E-01  8.50000000E-01
  8.50000000E-01  8.50000000E-01  8.50000000E-01  8.50000000E-01  8.50000000E-01
  8.50000000E-01  8.50000000E-01  8.50000000E-01  8.50000000E-01  8.50000000E-01
  8.50000000E-01  8.50000000E-01  8.50000000E-01  8.50000000E-01  8.50000000E-01
  8.50000000E-01  8.50000000E-01  8.50000000E-01  8.50000000E-01  8.50000000E-01
  8.50000000E-01  8.50000000E-01  8.50000000E-01  8.50000000E-01  8.50000000E-01
  8.50000000E-01  8.50000000E-01  8.50000000E-01  8.50000000E-01  8.50000000E-01
  8.50000000E-01  8.50000000E-01  8.50000000E-01  8.50000000E-01  8.50000000E-01
  8.50000000E-01  8.50000000E-01  8.50000000E-01  8.50000000E-01  8.50000000E-01
  8.50000000E-01  8.50000000E-01  8.50000000E-01  8.50000000E-01  8.50000000E-01
  8.50000000E-01  8.50000000E-01  8.50000000E-01  8.50000000E-01  8.50000000E-01
  8.50000000E-01  8.50000000E-01  8.50000000E-01  8.50000000E-01  8.50000000E-01
  8.50000000E-01  8.50000000E-01  8.50000000E-01  8.50000000E-01  8.50000000E-01
  8.50000000E-01  8.50000000E-01  8.50000000E-01  8.50000000E-01  8.50000000E-01
  8.50000000E-01  8.50000000E-01  8.50000000E-01  8.50000000E-01  8.50000000E-01
  8.50000000E-01  8.50000000E-01  8.50000000E-01  8.50000000E-01  8.50000000E-01
  8.50000000E-01  8.50000000E-01  8.50000000E-01  8.50000000E-01  8.50000000E-01
  8.50000000E-01  8.50000000E-01  8.50000000E-01  8.50000000E-01  8.50000000E-01
  8.50000000E-01  8.50000000E-01  8.50000000E-01  8.50000000E-01  8.50000000E-01
  8.50000000E-01  8.50000000E-01  8.50000000E-01  8.50000000E-01  8.50000000E-01
  8.50000000E-01  8.50000000E-01  8.50000000E-01  8.50000000E-01  8.50000000E-01
  8.50000000E-01  8.50000000E-01  8.50000000E-01  8.50000000E-01  8.50000000E-01
  8.50000000E-01  8.50000000E-01  8.50000000E-01  8.50000000E-01  8.50000000E-01
  8.50000000E-01  8.50000000E-01  8.50000000E-01  8.50000000E-01  8.50000000E-01
  8.50000000E-01  8.50000000E-01  8.50000000E-01  8.50000000E-01  8.50000000E-01
  8.50000000E-01  8.50000000E-01  8.50000000E-01  8.50000000E-01  8.50000000E-01
  8.50000000E-01  8.50000000E-01  8.50000000E-01  8.50000000E-01  8.50000000E-01
  8.50000000E-01  8.50000000E-01  8.50000000E-01  8.50000000E-01  8.50000000E-01
  8.50000000E-01  8.50000000E-01  8.50000000E-01  8.50000000E-01  8.50000000E-01
  8.50000000E-01  8.50000000E-01  8.50000000E-01  8.50000000E-01  8.50000000E-01
  8.50000000E-01  8.50000000E-01  8.50000000E-01  8.50000000E-01  8.50000000E-01
  8.50000000E-01  8.50000000E-01  8.50000000E-01  8.50000000E-01  8.50000000E-01
  8.50000000E-01  8.50000000E-01  8.50000000E-01  8.50000000E-01  8.50000000E-01
  8.50000000E-01  8.50000000E-01  8.50000000E-01  8.50000000E-01  8.50000000E-01
  8.50000000E-01  8.50000000E-01  8.50000000E-01  8.50000000E-01  8.50000000E-01
  8.50000000E-01  8.50000000E-01  8.50000000E-01  8.50000000E-01  8.50000000E-01
  8.50000000E-01  8.50000000E-01  8.50000000E-01  8.50000000E-01  8.50000000E-01
  8.50000000E-01  8.50000000E-01  8.50000000E-01  8.50000000E-01  8.50000000E-01
  8.50000000E-01  8.50000000E-01  8.50000000E-01  8.50000000E-01  8.50000000E-01
  8.50000000E-01  8.50000000E-01  8.50000000E-01  8.50000000E-01  8.50000000E-01
  8.50000000E-01  8.50000000E-01  8.50000000E-01  8.50000000E-01  8.50000000E-01
  8.50000000E-01  8.50000000E-01  8.50000000E-01  8.50000000E-01  8.50000000E-01
  8.50000000E-01  8.50000000E-01  8.50000000E-01  8.50000000E-01  8.50000000E-01
  8.50000000E-01  8.50000000E-01  8.50000000E-01  8.50000000E-01  8.50000000E-01
  8.50000000E-01  8.50000000E-01  8.50000000E-01  8.50000000E-01  8.50000000E-01
  8.50000000E-01  8.50000000E-01  8.50000000E-01  8.50000000E-01  8.50000000E-01
  8.50000000E-01  8.50000000E-01  8.50000000E-01  8.50000000E-01  8.50000000E-01
  8.50000000E-01  8.50000000E-01  8.50000000E-01  8.50000000E-01  8.50000000E-01
  8.50000000E-01  8.50000000E-01  8.50000000E-01  8.50000000E-01  8.50000000E-01
  8.50000000E-01  8.50000000E-01  8.50000000E-01  8.50000000E-01  8.50000000E-01
  8.50000000E-01  8.50000000E-01  8.50000000E-01  8.50000000E-01  8.50000000E-01
  8.50000000E-01  8.50000000E-01  8.50000000E-01  8.50000000E-01  8.50000000E-01
  8.50000000E-01  8.50000000E-01  8.50000000E-01  8.50000000E-01  8.50000000E-01
  8.50000000E-01  8.50000000E-01  8.50000000E-01  8.50000000E-01  8.50000000E-01
  8.50000000E-01  8.50000000E-01  8.50000000E-01  8.50000000E-01  8.50000000E-01
  8.50000000E-01  8.50000000E-01  8.50000000E-01  8.50000000E-01  8.50000000E-01
  8.50000000E-01  8.50000000E-01  8.50000000E-01  8.50000000E-01  8.50000000E-01
  8.50000000E-01  8.50000000E-01  8.50000000E-01  8.50000000E-01  8.50000000E-01
  8.50000000E-01  8.50000000E-01  8.50000000E-01  8.50000000E-01  8.50000000E-01
  8.50000000E-01  8.50000000E-01  8.50000000E-01  8.50000000E-01  8.50000000E-01
  8.50000000E-01  8.50000000E-01  8.50000000E-01  8.50000000E-01  8.50000000E-01
  8.50000000E-01  8.50000000E-01  8.50000000E-01  8.50000000E-01  8.50000000E-01
  8.50000000E-01  8.50000000E-01  8.50000000E-01  8.50000000E-01  8.50000000E-01
  8.50000000E-01  8.50000000E-01  8.50000000E-01  8.50000000E-01  8.50000000E-01
  8.50000000E-01  8.50000000E-01  8.50000000E-01  8.50000000E-01  8.50000000E-01
  8.50000000E-01  8.50000000E-01  8.50000000E-01  8.50000000E-01  8.50000000E-01
  8.50000000E-01  8.50000000E-01  8.50000000E-01  8.50000000E-01  8.50000000E-01
  8.50000000E-01  8.50000000E-01  8.50000000E-01  8.50000000E-01  8.50000000E-01
  8.50000000E-01  8.50000000E-01  8.50000000E-01  8.50000000E-01  8.50000000E-01
  8.50000000E-01  8.50000000E-01  8.50000000E-01  8.50000000E-01  8.50000000E-01
  8.50000000E-01  8.50000000E-01  8.50000000E-01  8.50000000E-01  8.50000000E-01
  8.50000000E-01  8.50000000E-01  8.50000000E-01  8.50000000E-01  8.50000000E-01
  8.50000000E-01  8.50000000E-01  8.50000000E-01  8.50000000E-01  8.50000000E-01
  8.50000000E-01  8.50000000E-01  8.50000000E-01  8.50000000E-01  8.50000000E-01
  8.50000000E-01  8.50000000E-01  8.50000000E-01  8.50000000E-01  8.50000000E-01
  8.50000000E-01  8.50000000E-01  8.50000000E-01  8.50000000E-01  8.50000000E-01
  8.50000000E-01  8.50000000E-01  8.50000000E-01  8.50000000E-01  8.50000000E-01
  8.50000000E-01  8.50000000E-01  8.50000000E-01  8.50000000E-01  8.50000000E-01
  8.50000000E-01  8.50000000E-01  8.50000000E-01  8.50000000E-01  8.50000000E-01
  8.50000000E-01  8.50000000E-01  8.50000000E-01  8.50000000E-01  8.50000000E-01
  8.50000000E-01  8.50000000E-01  8.50000000E-01  8.50000000E-01  8.50000000E-01
  8.50000000E-01  8.50000000E-01  8.50000000E-01  8.50000000E-01  8.50000000E-01
  8.50000000E-01  8.50000000E-01  8.50000000E-01  8.50000000E-01  8.50000000E-01
  8.50000000E-01  8.50000000E-01  8.50000000E-01  8.50000000E-01  8.50000000E-01
  8.50000000E-01  8.50000000E-01  8.50000000E-01  8.50000000E-01  8.50000000E-01
  8.50000000E-01  8.50000000E-01  8.50000000E-01  8.50000000E-01  8.50000000E-01
  8.50000000E-01  8.50000000E-01  8.50000000E-01  8.50000000E-01  8.50000000E-01
  8.50000000E-01  8.50000000E-01  8.50000000E-01  8.50000000E-01  8.50000000E-01
  8.50000000E-01  8.50000000E-01  8.50000000E-01  8.50000000E-01  8.50000000E-01
  8.50000000E-01  8.50000000E-01  8.50000000E-01  8.50000000E-01  8.50000000E-01
  8.50000000E-01  8.50000000E-01  8.50000000E-01  8.50000000E-01  8.50000000E-01
  8.50000000E-01  8.50000000E-01  8.50000000E-01  8.50000000E-01  8.50000000E-01
  8.50000000E-01  8.50000000E-01  8.50000000E-01  8.50000000E-01  8.50000000E-01
  8.50000000E-01  8.50000000E-01  8.50000000E-01  8.50000000E-01  8.50000000E-01
  8.50000000E-01  8.50000000E-01  8.50000000E-01  8.50000000E-01  8.50000000E-01
  8.50000000E-01  8.50000000E-01  8.50000000E-01  8.50000000E-01  8.50000000E-01
  8.50000000E-01  8.50000000E-01  8.50000000E-01  8.50000000E-01  8.50000000E-01
  8.50000000E-01  8.50000000E-01  8.50000000E-01  8.50000000E-01  8.50000000E-01
  8.50000000E-01  8.50000000E-01  8.50000000E-01  8.50000000E-01  8.50000000E-01
  8.50000000E-01  8.50000000E-01  8.50000000E-01  8.50000000E-01  8.50000000E-01
  8.50000000E-01  8.50000000E-01  8.50000000E-01  8.50000000E-01  8.50000000E-01
  8.50000000E-01  8.50000000E-01  8.50000000E-01  8.50000000E-01  8.50000000E-01
  8.50000000E-01  8.50000000E-01  8.50000000E-01  8.50000000E-01  8.50000000E-01
  8.50000000E-01  8.50000000E-01  8.50000000E-01  8.50000000E-01  8.50000000E-01
  8.50000000E-01  8.50000000E-01  8.50000000E-01  8.50000000E-01  8.50000000E-01
  8.50000000E-01  8.50000000E-01  8.50000000E-01  8.50000000E-01  8.50000000E-01
  8.50000000E-01  8.50000000E-01  8.50000000E-01  8.50000000E-01  8.50000000E-01
  8.50000000E-01  8.50000000E-01  8.50000000E-01  8.50000000E-01  8.50000000E-01
  8.50000000E-01  8.50000000E-01  8.50000000E-01  8.50000000E-01  8.50000000E-01
  8.50000000E-01  8.50000000E-01  8.50000000E-01  8.50000000E-01  8.50000000E-01
  8.50000000E-01  8.50000000E-01  8.50000000E-01  8.50000000E-01  8.50000000E-01
  8.50000000E-01  8.50000000E-01  8.50000000E-01  8.50000000E-01  8.50000000E-01
  8.50000000E-01  8.50000000E-01  8.50000000E-01  8.50000000E-01  8.50000000E-01
  8.50000000E-01  8.50000000E-01  8.50000000E-01  8.50000000E-01  8.50000000E-01
  8.50000000E-01  8.50000000E-01  8.50000000E-01  8.50000000E-01  8.50000000E-01
  8.50000000E-01  8.50000000E-01  8.50000000E-01  8.50000000E-01  8.50000000E-01
  8.50000000E-01  8.50000000E-01  8.50000000E-01  8.50000000E-01  8.50000000E-01
  8.50000000E-01  8.50000000E-01  8.50000000E-01  8.50000000E-01  8.50000000E-01
  8.50000000E-01  8.50000000E-01  8.50000000E-01  8.50000000E-01  8.50000000E-01
  8.50000000E-01  8.50000000E-01  8.50000000E-01  8.50000000E-01  8.50000000E-01
  8.50000000E-01  8.50000000E-01  8.50000000E-01  8.50000000E-01  8.50000000E-01
  8.50000000E-01  8.50000000E-01  8.50000000E-01  8.50000000E-01  8.50000000E-01
  8.50000000E-01  8.50000000E-01  8.50000000E-01  8.50000000E-01  8.50000000E-01
  8.50000000E-01  8.50000000E-01  8.50000000E-01  8.50000000E-01  8.50000000E-01
  8.50000000E-01  8.50000000E-01  8.50000000E-01  8.50000000E-01  8.50000000E-01
  8.50000000E-01  8.50000000E-01  8.50000000E-01  8.50000000E-01  8.50000000E-01
  8.50000000E-01  8.50000000E-01  8.50000000E-01  8.50000000E-01  8.50000000E-01
  8.50000000E-01  8.50000000E-01  8.50000000E-01  8.50000000E-01  8.50000000E-01
  8.50000000E-01  8.50000000E-01  8.50000000E-01  8.50000000E-01  8.50000000E-01
  8.50000000E-01  8.50000000E-01  8.50000000E-01  8.50000000E-01  8.50000000E-01
  8.50000000E-01  8.50000000E-01  8.50000000E-01  8.50000000E-01  8.50000000E-01
  8.50000000E-01  8.50000000E-01  8.50000000E-01  8.50000000E-01  8.50000000E-01
  8.50000000E-01  8.50000000E-01  8.50000000E-01  8.50000000E-01  8.50000000E-01
  8.50000000E-01  8.50000000E-01  8.50000000E-01  8.50000000E-01  8.50000000E-01
  8.50000000E-01  8.50000000E-01  8.50000000E-01  8.50000000E-01  8.50000000E-01
  8.50000000E-01  8.50000000E-01  8.50000000E-01  8.50000000E-01  8.50000000E-01
  8.50000000E-01  8.50000000E-01  8.50000000E-01  8.50000000E-01  8.50000000E-01
  8.50000000E-01  8.50000000E-01  8.50000000E-01  8.50000000E-01  8.50000000E-01
  8.50000000E-01  8.50000000E-01  8.50000000E-01  8.50000000E-01  8.50000000E-01
  8.50000000E-01  8.50000000E-01  8.50000000E-01  8.50000000E-01  8.50000000E-01
  8.50000000E-01  8.50000000E-01  8.50000000E-01  8.50000000E-01  8.50000000E-01
  8.50000000E-01  8.50000000E-01  8.50000000E-01  8.50000000E-01  8.50000000E-01
  8.50000000E-01  8.50000000E-01  8.50000000E-01  8.50000000E-01  8.50000000E-01
  8.50000000E-01  8.50000000E-01  8.50000000E-01  8.50000000E-01  8.50000000E-01
  8.50000000E-01  8.50000000E-01  8.50000000E-01  8.50000000E-01  8.50000000E-01
  8.50000000E-01  8.50000000E-01  8.50000000E-01  8.50000000E-01  8.50000000E-01
  8.50000000E-01  8.50000000E-01  8.50000000E-01  8.50000000E-01  8.50000000E-01
  8.50000000E-01  8.50000000E-01  8.50000000E-01  8.50000000E-01  8.50000000E-01
  8.50000000E-01  8.50000000E-01  8.50000000E-01  8.50000000E-01  8.50000000E-01
  8.50000000E-01  8.50000000E-01  8.50000000E-01  8.50000000E-01  8.50000000E-01
  8.50000000E-01  8.50000000E-01  8.50000000E-01  8.50000000E-01  8.50000000E-01
  8.50000000E-01  8.50000000E-01  8.50000000E-01  8.50000000E-01  8.50000000E-01
  8.50000000E-01  8.50000000E-01  8.50000000E-01  8.50000000E-01  8.50000000E-01
  8.50000000E-01  8.50000000E-01  8.50000000E-01  8.50000000E-01  8.50000000E-01
  8.50000000E-01  8.50000000E-01  8.50000000E-01  8.50000000E-01  8.50000000E-01
  8.50000000E-01  8.50000000E-01  8.50000000E-01  8.50000000E-01  8.50000000E-01
  8.50000000E-01  8.50000000E-01  8.50000000E-01  8.50000000E-01  8.50000000E-01
  8.50000000E-01  8.50000000E-01  8.50000000E-01  8.50000000E-01  8.50000000E-01
  8.50000000E-01  8.50000000E-01  8.50000000E-01  8.50000000E-01  8.50000000E-01
  8.50000000E-01  8.50000000E-01  8.50000000E-01  8.50000000E-01  8.50000000E-01
  8.50000000E-01  8.50000000E-01  8.50000000E-01  8.50000000E-01  8.50000000E-01
  8.50000000E-01  8.50000000E-01  8.50000000E-01  8.50000000E-01  8.50000000E-01
  8.50000000E-01  8.50000000E-01  8.50000000E-01  8.50000000E-01  8.50000000E-01
  8.50000000E-01  8.50000000E-01  8.50000000E-01  8.50000000E-01  8.50000000E-01
  8.50000000E-01  8.50000000E-01  8.50000000E-01  8.50000000E-01  8.50000000E-01
  8.50000000E-01  8.50000000E-01  8.50000000E-01  8.50000000E-01  8.50000000E-01
  8.50000000E-01  8.50000000E-01  8.50000000E-01  8.50000000E-01  8.50000000E-01
  8.50000000E-01  8.50000000E-01  8.50000000E-01  8.50000000E-01  8.50000000E-01
  8.50000000E-01  8.50000000E-01  8.50000000E-01  8.50000000E-01  8.50000000E-01
  8.50000000E-01  8.50000000E-01  8.50000000E-01  8.50000000E-01  8.50000000E-01
  8.50000000E-01  8.50000000E-01  8.50000000E-01  8.50000000E-01  8.50000000E-01
  8.50000000E-01  8.50000000E-01  8.50000000E-01  8.50000000E-01  8.50000000E-01
  8.50000000E-01  8.50000000E-01  8.50000000E-01  8.50000000E-01  8.50000000E-01
  8.50000000E-01  8.50000000E-01  8.50000000E-01  8.50000000E-01  8.50000000E-01
  8.50000000E-01  8.50000000E-01  8.50000000E-01  8.50000000E-01  8.50000000E-01
  8.50000000E-01  8.50000000E-01  8.50000000E-01  8.50000000E-01  8.50000000E-01
  8.50000000E-01  8.50000000E-01  8.50000000E-01  8.50000000E-01  8.50000000E-01
  8.50000000E-01  8.50000000E-01  8.50000000E-01  8.50000000E-01  8.50000000E-01
  8.50000000E-01  8.50000000E-01  8.50000000E-01  8.50000000E-01  8.50000000E-01
  8.50000000E-01  8.50000000E-01  8.50000000E-01  8.50000000E-01  8.50000000E-01
  8.50000000E-01  8.50000000E-01  8.50000000E-01  8.50000000E-01  8.50000000E-01
  8.50000000E-01  8.50000000E-01  8.50000000E-01  8.50000000E-01  8.50000000E-01
  8.50000000E-01  8.50000000E-01  8.50000000E-01  8.50000000E-01  8.50000000E-01
  8.50000000E-01  8.50000000E-01  8.50000000E-01  8.50000000E-01  8.50000000E-01
  8.50000000E-01  8.50000000E-01  8.50000000E-01  8.50000000E-01  8.50000000E-01
  8.50000000E-01  8.50000000E-01  8.50000000E-01  8.50000000E-01  8.50000000E-01
  8.50000000E-01  8.50000000E-01  8.50000000E-01  8.50000000E-01  8.50000000E-01
  8.50000000E-01  8.50000000E-01  8.50000000E-01  8.50000000E-01  8.50000000E-01
  8.50000000E-01  8.50000000E-01  8.50000000E-01  8.50000000E-01  8.50000000E-01
  8.50000000E-01  8.50000000E-01  8.50000000E-01  8.50000000E-01  8.50000000E-01
  8.50000000E-01  8.50000000E-01  8.50000000E-01  8.50000000E-01  8.50000000E-01
  8.50000000E-01  8.50000000E-01  8.50000000E-01  8.50000000E-01  8.50000000E-01
  8.50000000E-01  8.50000000E-01  8.50000000E-01  8.50000000E-01  8.50000000E-01
  8.50000000E-01  8.50000000E-01  8.50000000E-01  8.50000000E-01  8.50000000E-01
  8.50000000E-01  8.50000000E-01  8.50000000E-01  8.50000000E-01  8.50000000E-01
  8.50000000E-01  8.50000000E-01  8.50000000E-01  8.50000000E-01  8.50000000E-01
  8.50000000E-01  8.50000000E-01  8.50000000E-01  8.50000000E-01  8.50000000E-01
  8.50000000E-01  8.50000000E-01  8.50000000E-01  8.50000000E-01  8.50000000E-01
  8.50000000E-01  8.50000000E-01  8.50000000E-01  8.50000000E-01  8.50000000E-01
  8.50000000E-01  8.50000000E-01  8.50000000E-01  8.50000000E-01  8.50000000E-01
  8.50000000E-01  8.50000000E-01  8.50000000E-01  8.50000000E-01  8.50000000E-01
  8.50000000E-01  8.50000000E-01  8.50000000E-01  8.50000000E-01  8.50000000E-01
  8.50000000E-01  8.50000000E-01  8.50000000E-01  8.50000000E-01  8.50000000E-01
  8.50000000E-01  8.50000000E-01  8.50000000E-01  8.50000000E-01  8.50000000E-01
  8.50000000E-01  8.50000000E-01  8.50000000E-01  8.50000000E-01  8.50000000E-01
  8.50000000E-01  8.50000000E-01  8.50000000E-01  8.50000000E-01  8.50000000E-01
  8.50000000E-01  8.50000000E-01  8.50000000E-01  8.50000000E-01  8.50000000E-01
  8.50000000E-01  8.50000000E-01  8.50000000E-01  8.50000000E-01  8.50000000E-01
  8.50000000E-01  8.50000000E-01  8.50000000E-01  8.50000000E-01  8.50000000E-01
  8.50000000E-01  8.50000000E-01  8.50000000E-01  8.50000000E-01  8.50000000E-01
  8.50000000E-01  8.50000000E-01  8.50000000E-01  8.50000000E-01  8.50000000E-01
  8.50000000E-01  8.50000000E-01  8.50000000E-01  8.50000000E-01  8.50000000E-01
  8.50000000E-01  8.50000000E-01  8.50000000E-01  8.50000000E-01  8.50000000E-01
  8.50000000E-01  8.50000000E-01  8.50000000E-01  8.50000000E-01  8.50000000E-01
  8.50000000E-01  8.50000000E-01  8.50000000E-01  8.50000000E-01  8.50000000E-01
  8.50000000E-01  8.50000000E-01  8.50000000E-01  8.50000000E-01  8.50000000E-01
  8.50000000E-01  8.50000000E-01  8.50000000E-01  8.50000000E-01  8.50000000E-01
  8.50000000E-01  8.50000000E-01  8.50000000E-01  8.50000000E-01  8.50000000E-01
  8.50000000E-01  8.50000000E-01  8.50000000E-01  8.50000000E-01  8.50000000E-01
  8.50000000E-01  8.50000000E-01  8.50000000E-01  8.50000000E-01  8.50000000E-01
  8.50000000E-01  8.50000000E-01  8.50000000E-01  8.50000000E-01  8.50000000E-01
  8.50000000E-01  8.50000000E-01  8.50000000E-01  8.50000000E-01  8.50000000E-01
  8.50000000E-01  8.50000000E-01  8.50000000E-01  8.50000000E-01  8.50000000E-01
  8.50000000E-01  8.50000000E-01  8.50000000E-01  8.50000000E-01  8.50000000E-01
  8.50000000E-01  8.50000000E-01  8.50000000E-01  8.50000000E-01  8.50000000E-01
  8.50000000E-01  8.50000000E-01  8.50000000E-01  8.50000000E-01  8.50000000E-01
  8.50000000E-01  8.50000000E-01  8.50000000E-01  8.50000000E-01  8.50000000E-01
  8.50000000E-01  8.50000000E-01  8.50000000E-01  8.50000000E-01  8.50000000E-01
  8.50000000E-01  8.50000000E-01  8.50000000E-01  8.50000000E-01  8.50000000E-01
  8.50000000E-01  8.50000000E-01  8.50000000E-01  8.50000000E-01  8.50000000E-01
  8.50000000E-01  8.50000000E-01  8.50000000E-01  8.50000000E-01  8.50000000E-01
  8.50000000E-01  8.50000000E-01  8.50000000E-01  8.50000000E-01  8.50000000E-01
  8.50000000E-01  8.50000000E-01  8.50000000E-01  8.50000000E-01  8.50000000E-01
  8.50000000E-01  8.50000000E-01  8.50000000E-01  8.50000000E-01  8.50000000E-01
  8.50000000E-01  8.50000000E-01  8.50000000E-01  8.50000000E-01  8.50000000E-01
  8.50000000E-01  8.50000000E-01  8.50000000E-01  8.50000000E-01  8.50000000E-01
  8.50000000E-01  8.50000000E-01  8.50000000E-01  8.50000000E-01  8.50000000E-01
  8.50000000E-01  8.50000000E-01  8.50000000E-01  8.50000000E-01  8.50000000E-01
  8.50000000E-01  8.50000000E-01  8.50000000E-01  8.50000000E-01  8.50000000E-01
  8.50000000E-01  8.50000000E-01  8.50000000E-01  8.50000000E-01  8.50000000E-01
  8.50000000E-01  8.50000000E-01  8.50000000E-01  8.50000000E-01  8.50000000E-01
  8.50000000E-01  8.50000000E-01  8.50000000E-01  8.50000000E-01  8.50000000E-01
  8.50000000E-01  8.50000000E-01  8.50000000E-01  8.50000000E-01  8.50000000E-01
  8.50000000E-01  8.50000000E-01  8.50000000E-01  8.50000000E-01  8.50000000E-01
  8.50000000E-01  8.50000000E-01  8.50000000E-01  8.50000000E-01  8.50000000E-01
  8.50000000E-01  8.50000000E-01  8.50000000E-01  8.50000000E-01  8.50000000E-01
  8.50000000E-01  8.50000000E-01  8.50000000E-01  8.50000000E-01  8.50000000E-01
  8.50000000E-01  8.50000000E-01  8.50000000E-01  8.50000000E-01  8.50000000E-01
  8.50000000E-01  8.50000000E-01  8.50000000E-01  8.50000000E-01  8.50000000E-01
  8.50000000E-01  8.50000000E-01  8.50000000E-01  8.50000000E-01  8.50000000E-01
  8.50000000E-01  8.50000000E-01  8.50000000E-01  8.50000000E-01  8.50000000E-01
  8.50000000E-01  8.50000000E-01  8.50000000E-01  8.50000000E-01  8.50000000E-01
  8.50000000E-01  8.50000000E-01  8.50000000E-01  8.50000000E-01  8.50000000E-01
  8.50000000E-01  8.50000000E-01  8.50000000E-01  8.50000000E-01  8.50000000E-01
  8.50000000E-01  8.50000000E-01  8.50000000E-01  8.50000000E-01  8.50000000E-01
  8.50000000E-01  8.50000000E-01  8.50000000E-01  8.50000000E-01  8.50000000E-01
  8.50000000E-01  8.50000000E-01  8.50000000E-01  8.50000000E-01  8.50000000E-01
  8.50000000E-01  8.50000000E-01  8.50000000E-01  8.50000000E-01  8.50000000E-01
  8.50000000E-01  8.50000000E-01  8.50000000E-01  8.50000000E-01  8.50000000E-01
  8.50000000E-01  8.50000000E-01  8.50000000E-01  8.50000000E-01  8.50000000E-01
  8.50000000E-01  8.50000000E-01  8.50000000E-01  8.50000000E-01  8.50000000E-01
  8.50000000E-01  8.50000000E-01  8.50000000E-01  8.50000000E-01  8.50000000E-01
  8.50000000E-01  8.50000000E-01  8.50000000E-01  8.50000000E-01  8.50000000E-01
  8.50000000E-01  8.50000000E-01  8.50000000E-01  8.50000000E-01  8.50000000E-01
  8.50000000E-01  8.50000000E-01  8.50000000E-01  8.50000000E-01  8.50000000E-01
  8.50000000E-01  8.50000000E-01  8.50000000E-01  8.50000000E-01  8.50000000E-01
  8.50000000E-01  8.50000000E-01  8.50000000E-01  8.50000000E-01  8.50000000E-01
  8.50000000E-01  8.50000000E-01  8.50000000E-01  8.50000000E-01  8.50000000E-01
  8.50000000E-01  8.50000000E-01  8.50000000E-01  8.50000000E-01  8.50000000E-01
  8.50000000E-01  8.50000000E-01  8.50000000E-01  8.50000000E-01  8.50000000E-01
  8.50000000E-01  8.50000000E-01  8.50000000E-01  8.50000000E-01  8.50000000E-01
  8.50000000E-01  8.50000000E-01  8.50000000E-01  8.50000000E-01  8.50000000E-01
  8.50000000E-01  8.50000000E-01  8.50000000E-01  8.50000000E-01  8.50000000E-01
  8.50000000E-01  8.50000000E-01  8.50000000E-01  8.50000000E-01  8.50000000E-01
  8.50000000E-01  8.50000000E-01  8.50000000E-01  8.50000000E-01  8.50000000E-01
  8.50000000E-01  8.50000000E-01  8.50000000E-01  8.50000000E-01  8.50000000E-01
  8.50000000E-01  8.50000000E-01  8.50000000E-01  8.50000000E-01  8.50000000E-01
  8.50000000E-01  8.50000000E-01  8.50000000E-01  8.50000000E-01  8.50000000E-01
  8.50000000E-01  8.50000000E-01  8.50000000E-01  8.50000000E-01  8.50000000E-01
  8.50000000E-01  8.50000000E-01  8.50000000E-01  8.50000000E-01  8.50000000E-01
  8.50000000E-01  8.50000000E-01  8.50000000E-01  8.50000000E-01  8.50000000E-01
  8.50000000E-01  8.50000000E-01  8.50000000E-01  8.50000000E-01  8.50000000E-01
  8.50000000E-01  8.50000000E-01  8.50000000E-01  8.50000000E-01  8.50000000E-01
  8.50000000E-01  8.50000000E-01  8.50000000E-01  8.50000000E-01  8.50000000E-01
  8.50000000E-01  8.50000000E-01  8.50000000E-01  8.50000000E-01  8.50000000E-01
  8.50000000E-01  8.50000000E-01  8.50000000E-01  8.50000000E-01  8.50000000E-01
  8.50000000E-01  8.50000000E-01  8.50000000E-01  8.50000000E-01  8.50000000E-01
  8.50000000E-01  8.50000000E-01  8.50000000E-01  8.50000000E-01  8.50000000E-01
  8.50000000E-01  8.50000000E-01  8.50000000E-01  8.50000000E-01  8.50000000E-01
  8.50000000E-01  8.50000000E-01  8.50000000E-01  8.50000000E-01  8.50000000E-01
  8.50000000E-01  8.50000000E-01  8.50000000E-01  8.50000000E-01  8.50000000E-01
  8.50000000E-01  8.50000000E-01  8.50000000E-01  8.50000000E-01  8.50000000E-01
  8.50000000E-01  8.50000000E-01  8.50000000E-01  8.50000000E-01  8.50000000E-01
  8.50000000E-01  8.50000000E-01  8.50000000E-01  8.50000000E-01  8.50000000E-01
  8.50000000E-01  8.50000000E-01  8.50000000E-01  8.50000000E-01  8.50000000E-01
  8.50000000E-01  8.50000000E-01  8.50000000E-01  8.50000000E-01  8.50000000E-01
  8.50000000E-01  8.50000000E-01  8.50000000E-01  8.50000000E-01  8.50000000E-01
  8.50000000E-01  8.50000000E-01  8.50000000E-01  8.50000000E-01  8.50000000E-01
  8.50000000E-01  8.50000000E-01  8.50000000E-01  8.50000000E-01  8.50000000E-01
  8.50000000E-01  8.50000000E-01  8.50000000E-01  8.50000000E-01  8.50000000E-01
  8.50000000E-01  8.50000000E-01  8.50000000E-01  8.50000000E-01  8.50000000E-01
  8.50000000E-01  8.50000000E-01  8.50000000E-01  8.50000000E-01  8.50000000E-01
  8.50000000E-01  8.50000000E-01  8.50000000E-01  8.50000000E-01  8.50000000E-01
  8.50000000E-01  8.50000000E-01  8.50000000E-01  8.50000000E-01  8.50000000E-01
  8.50000000E-01  8.50000000E-01  8.50000000E-01  8.50000000E-01  8.50000000E-01
  8.50000000E-01  8.50000000E-01  8.50000000E-01  8.50000000E-01  8.50000000E-01
  8.50000000E-01  8.50000000E-01  8.50000000E-01  8.50000000E-01  8.50000000E-01
  8.50000000E-01  8.50000000E-01  8.50000000E-01  8.50000000E-01  8.50000000E-01
  8.50000000E-01  8.50000000E-01  8.50000000E-01  8.50000000E-01  8.50000000E-01
  8.50000000E-01  8.50000000E-01  8.50000000E-01  8.50000000E-01  8.50000000E-01
  8.50000000E-01  8.50000000E-01  8.50000000E-01  8.50000000E-01  8.50000000E-01
  8.50000000E-01  8.50000000E-01  8.50000000E-01  8.50000000E-01  8.50000000E-01
  8.50000000E-01  8.50000000E-01  8.50000000E-01  8.50000000E-01  8.50000000E-01
  8.50000000E-01  8.50000000E-01  8.50000000E-01  8.50000000E-01  8.50000000E-01
  8.50000000E-01  8.50000000E-01  8.50000000E-01  8.50000000E-01  8.50000000E-01
  8.50000000E-01  8.50000000E-01  8.50000000E-01  8.50000000E-01  8.50000000E-01
  8.50000000E-01  8.50000000E-01  8.50000000E-01  8.50000000E-01  8.50000000E-01
  8.50000000E-01  8.50000000E-01  8.50000000E-01  8.50000000E-01  8.50000000E-01
  8.50000000E-01  8.50000000E-01  8.50000000E-01  8.50000000E-01  8.50000000E-01
  8.50000000E-01  8.50000000E-01  8.50000000E-01  8.50000000E-01  8.50000000E-01
  8.50000000E-01  8.50000000E-01  8.50000000E-01  8.50000000E-01  8.50000000E-01
  8.50000000E-01  8.50000000E-01  8.50000000E-01  8.50000000E-01  8.50000000E-01
  8.50000000E-01  8.50000000E-01  8.50000000E-01  8.50000000E-01  8.50000000E-01
  8.50000000E-01  8.50000000E-01  8.50000000E-01  8.50000000E-01  8.50000000E-01
  8.50000000E-01  8.50000000E-01  8.50000000E-01  8.50000000E-01  8.50000000E-01
  8.50000000E-01  8.50000000E-01  8.50000000E-01  8.50000000E-01  8.50000000E-01
  8.50000000E-01  8.50000000E-01  8.50000000E-01  8.50000000E-01  8.50000000E-01
  8.50000000E-01  8.50000000E-01  8.50000000E-01  8.50000000E-01  8.50000000E-01
  8.50000000E-01  8.50000000E-01  8.50000000E-01  8.50000000E-01  8.50000000E-01
  8.50000000E-01  8.50000000E-01  8.50000000E-01  8.50000000E-01  8.50000000E-01
  8.50000000E-01  8.50000000E-01  8.50000000E-01  8.50000000E-01  8.50000000E-01
  8.50000000E-01  8.50000000E-01  8.50000000E-01  8.50000000E-01  8.50000000E-01
  8.50000000E-01  8.50000000E-01  8.50000000E-01  8.50000000E-01  8.50000000E-01
  8.50000000E-01  8.50000000E-01  8.50000000E-01  8.50000000E-01  8.50000000E-01
  8.50000000E-01  8.50000000E-01  8.50000000E-01  8.50000000E-01  8.50000000E-01
  8.50000000E-01  8.50000000E-01  8.50000000E-01  8.50000000E-01  8.50000000E-01
  8.50000000E-01  8.50000000E-01  8.50000000E-01  8.50000000E-01  8.50000000E-01
  8.50000000E-01  8.50000000E-01  8.50000000E-01  8.50000000E-01  8.50000000E-01
  8.50000000E-01  8.50000000E-01  8.50000000E-01  8.50000000E-01  8.50000000E-01
  8.50000000E-01  8.50000000E-01  8.50000000E-01  8.50000000E-01  8.50000000E-01
  8.50000000E-01  8.50000000E-01  8.50000000E-01  8.50000000E-01  8.50000000E-01
  8.50000000E-01  8.50000000E-01  8.50000000E-01  8.50000000E-01  8.50000000E-01
  8.50000000E-01  8.50000000E-01  8.50000000E-01  8.50000000E-01  8.50000000E-01
  8.50000000E-01  8.50000000E-01  8.50000000E-01  8.50000000E-01  8.50000000E-01
  8.50000000E-01  8.50000000E-01  8.50000000E-01  8.50000000E-01  8.50000000E-01
  8.50000000E-01  8.50000000E-01  8.50000000E-01  8.50000000E-01  8.50000000E-01
  8.50000000E-01  8.50000000E-01  8.50000000E-01  8.50000000E-01  8.50000000E-01
  8.50000000E-01  8.50000000E-01  8.50000000E-01  8.50000000E-01  8.50000000E-01
  8.50000000E-01  8.50000000E-01  8.50000000E-01  8.50000000E-01  8.50000000E-01
  8.50000000E-01  8.50000000E-01  8.50000000E-01  8.50000000E-01  8.50000000E-01
  8.50000000E-01  8.50000000E-01  8.50000000E-01  8.50000000E-01  8.50000000E-01
  8.50000000E-01  8.50000000E-01  8.50000000E-01  8.50000000E-01  8.50000000E-01
  8.50000000E-01  8.50000000E-01  8.50000000E-01  8.50000000E-01  8.50000000E-01
  8.50000000E-01  8.50000000E-01  8.50000000E-01  8.50000000E-01  8.50000000E-01
  8.50000000E-01  8.50000000E-01  8.50000000E-01  8.50000000E-01  8.50000000E-01
  8.50000000E-01  8.50000000E-01  8.50000000E-01  8.50000000E-01  8.50000000E-01
  8.50000000E-01  8.50000000E-01  8.50000000E-01  8.50000000E-01  8.50000000E-01
  8.50000000E-01  8.50000000E-01  8.50000000E-01  8.50000000E-01  8.50000000E-01
  8.50000000E-01  8.50000000E-01  8.50000000E-01  8.50000000E-01  8.50000000E-01
  8.50000000E-01  8.50000000E-01  8.50000000E-01  8.50000000E-01  8.50000000E-01
  8.50000000E-01  8.50000000E-01  8.50000000E-01  8.50000000E-01  8.50000000E-01
  8.50000000E-01  8.50000000E-01  8.50000000E-01  8.50000000E-01  8.50000000E-01
  8.50000000E-01  8.50000000E-01  8.50000000E-01  8.50000000E-01  8.50000000E-01
  8.50000000E-01  8.50000000E-01  8.50000000E-01  8.50000000E-01  8.50000000E-01
  8.50000000E-01  8.50000000E-01  8.50000000E-01  8.50000000E-01  8.50000000E-01
  8.50000000E-01  8.50000000E-01  8.50000000E-01  8.50000000E-01  8.50000000E-01
  8.50000000E-01  8.50000000E-01  8.50000000E-01  8.50000000E-01  8.50000000E-01
  8.50000000E-01  8.50000000E-01  8.50000000E-01  8.50000000E-01  8.50000000E-01
  8.50000000E-01  8.50000000E-01  8.50000000E-01  8.50000000E-01  8.50000000E-01
  8.50000000E-01  8.50000000E-01  8.50000000E-01  8.50000000E-01  8.50000000E-01
  8.50000000E-01  8.50000000E-01  8.50000000E-01  8.50000000E-01  8.50000000E-01
  8.50000000E-01  8.50000000E-01  8.50000000E-01  8.50000000E-01  8.50000000E-01
  8.50000000E-01  8.50000000E-01  8.50000000E-01  8.50000000E-01  8.50000000E-01
  8.50000000E-01  8.50000000E-01  8.50000000E-01  8.50000000E-01  8.50000000E-01
  8.50000000E-01  8.50000000E-01  8.50000000E-01  8.50000000E-01  8.50000000E-01
  8.50000000E-01  8.50000000E-01  8.50000000E-01  8.50000000E-01  8.50000000E-01
  8.50000000E-01  8.50000000E-01  8.50000000E-01  8.50000000E-01  8.50000000E-01
  8.50000000E-01  8.50000000E-01  8.50000000E-01  8.50000000E-01  8.50000000E-01
  8.50000000E-01  8.50000000E-01  8.50000000E-01  8.50000000E-01  8.50000000E-01
  8.50000000E-01  8.50000000E-01  8.50000000E-01  8.50000000E-01  8.50000000E-01
  8.50000000E-01  8.50000000E-01  8.50000000E-01  8.50000000E-01  8.50000000E-01
  8.50000000E-01  8.50000000E-01  8.50000000E-01  8.50000000E-01  8.50000000E-01
  8.50000000E-01  8.50000000E-01  8.50000000E-01  8.50000000E-01  8.50000000E-01
  8.50000000E-01  8.50000000E-01  8.50000000E-01  8.50000000E-01  8.50000000E-01
  8.50000000E-01  8.50000000E-01  8.50000000E-01  8.50000000E-01  8.50000000E-01
  8.50000000E-01  8.50000000E-01  8.50000000E-01  8.50000000E-01  8.50000000E-01
  8.50000000E-01  8.50000000E-01  8.50000000E-01  8.50000000E-01  8.50000000E-01
  8.50000000E-01  8.50000000E-01  8.50000000E-01  8.50000000E-01  8.50000000E-01
  8.50000000E-01  8.50000000E-01  8.50000000E-01  8.50000000E-01  8.50000000E-01
  8.50000000E-01  8.50000000E-01  8.50000000E-01  8.50000000E-01  8.50000000E-01
  8.50000000E-01  8.50000000E-01  8.50000000E-01  8.50000000E-01  8.50000000E-01
  8.50000000E-01  8.50000000E-01  8.50000000E-01  8.50000000E-01  8.50000000E-01
  8.50000000E-01  8.50000000E-01  8.50000000E-01  8.50000000E-01  8.50000000E-01
  8.50000000E-01  8.50000000E-01  8.50000000E-01  8.50000000E-01  8.50000000E-01
  8.50000000E-01  8.50000000E-01  8.50000000E-01  8.50000000E-01  8.50000000E-01
  8.50000000E-01  8.50000000E-01  8.50000000E-01  8.50000000E-01  8.50000000E-01
  8.50000000E-01  8.50000000E-01  8.50000000E-01  8.50000000E-01  8.50000000E-01
  8.50000000E-01  8.50000000E-01  8.50000000E-01  8.50000000E-01  8.50000000E-01
  8.50000000E-01  8.50000000E-01  8.50000000E-01  8.50000000E-01  8.50000000E-01
  8.50000000E-01  8.50000000E-01  8.50000000E-01  8.50000000E-01  8.50000000E-01
  8.50000000E-01  8.50000000E-01  8.50000000E-01  8.50000000E-01  8.50000000E-01
  8.50000000E-01  8.50000000E-01  8.50000000E-01  8.50000000E-01  8.50000000E-01
  8.50000000E-01  8.50000000E-01  8.50000000E-01  8.50000000E-01  8.50000000E-01
  8.50000000E-01  8.50000000E-01  8.50000000E-01  8.50000000E-01  8.50000000E-01
  8.50000000E-01  8.50000000E-01  8.50000000E-01  8.50000000E-01  8.50000000E-01
  8.50000000E-01  8.50000000E-01  8.50000000E-01  8.50000000E-01  8.50000000E-01
  8.50000000E-01  8.50000000E-01  8.50000000E-01  8.50000000E-01  8.50000000E-01
  8.50000000E-01  8.50000000E-01  8.50000000E-01  8.50000000E-01  8.50000000E-01
  8.50000000E-01  8.50000000E-01  8.50000000E-01  8.50000000E-01  8.50000000E-01
  8.50000000E-01  8.50000000E-01  8.50000000E-01  8.50000000E-01  8.50000000E-01
  8.50000000E-01  8.50000000E-01  8.50000000E-01  8.50000000E-01  8.50000000E-01
  8.50000000E-01  8.50000000E-01  8.50000000E-01  8.50000000E-01  8.50000000E-01
  8.50000000E-01  8.50000000E-01  8.50000000E-01  8.50000000E-01  8.50000000E-01
  8.50000000E-01  8.50000000E-01  8.50000000E-01  8.50000000E-01  8.50000000E-01
  8.50000000E-01  8.50000000E-01  8.50000000E-01  8.50000000E-01  8.50000000E-01
  8.50000000E-01  8.50000000E-01  8.50000000E-01  8.50000000E-01  8.50000000E-01
  8.50000000E-01  8.50000000E-01  8.50000000E-01  8.50000000E-01  8.50000000E-01
  8.50000000E-01  8.50000000E-01  8.50000000E-01  8.50000000E-01  8.50000000E-01
  8.50000000E-01  8.50000000E-01  8.50000000E-01  8.50000000E-01  8.50000000E-01
  8.50000000E-01  8.50000000E-01  8.50000000E-01  8.50000000E-01  8.50000000E-01
  8.50000000E-01  8.50000000E-01  8.50000000E-01  8.50000000E-01  8.50000000E-01
  8.50000000E-01  8.50000000E-01  8.50000000E-01  8.50000000E-01  8.50000000E-01
  8.50000000E-01  8.50000000E-01  8.50000000E-01  8.50000000E-01  8.50000000E-01
  8.50000000E-01  8.50000000E-01  8.50000000E-01  8.50000000E-01  8.50000000E-01
  8.50000000E-01  8.50000000E-01  8.50000000E-01  8.50000000E-01  8.50000000E-01
  8.50000000E-01  8.50000000E-01  8.50000000E-01  8.50000000E-01  8.50000000E-01
  8.50000000E-01  8.50000000E-01  8.50000000E-01  8.50000000E-01  8.50000000E-01
  8.50000000E-01  8.50000000E-01  8.50000000E-01  8.50000000E-01  8.50000000E-01
  8.50000000E-01  8.50000000E-01  8.50000000E-01  8.50000000E-01  8.50000000E-01
  8.50000000E-01  8.50000000E-01  8.50000000E-01  8.50000000E-01  8.50000000E-01
  8.50000000E-01  8.50000000E-01  8.50000000E-01  8.50000000E-01  8.50000000E-01
  8.50000000E-01  8.50000000E-01  8.50000000E-01  8.50000000E-01  8.50000000E-01
  8.50000000E-01  8.50000000E-01  8.50000000E-01  8.50000000E-01  8.50000000E-01
  8.50000000E-01  8.50000000E-01  8.50000000E-01  8.50000000E-01  8.50000000E-01
  8.50000000E-01  8.50000000E-01  8.50000000E-01  8.50000000E-01  8.50000000E-01
  8.50000000E-01  8.50000000E-01  8.50000000E-01  8.50000000E-01  8.50000000E-01
  8.50000000E-01  8.50000000E-01  8.50000000E-01  8.50000000E-01  8.50000000E-01
  8.50000000E-01  8.50000000E-01  8.50000000E-01  8.50000000E-01  8.50000000E-01
  8.50000000E-01  8.50000000E-01  8.50000000E-01  8.50000000E-01  8.50000000E-01
  8.50000000E-01  8.50000000E-01  8.50000000E-01  8.50000000E-01  8.50000000E-01
  8.50000000E-01  8.50000000E-01  8.50000000E-01  8.50000000E-01  8.50000000E-01
  8.50000000E-01  8.50000000E-01  8.50000000E-01  8.50000000E-01  8.50000000E-01
  8.50000000E-01  8.50000000E-01  8.50000000E-01  8.50000000E-01  8.50000000E-01
  8.50000000E-01  8.50000000E-01  8.50000000E-01  8.50000000E-01  8.50000000E-01
  8.50000000E-01  8.50000000E-01  8.50000000E-01  8.50000000E-01  8.50000000E-01
  8.50000000E-01  8.50000000E-01  8.50000000E-01  8.50000000E-01  8.50000000E-01
  8.50000000E-01  8.50000000E-01  8.50000000E-01  8.50000000E-01  8.50000000E-01
  8.50000000E-01  8.50000000E-01  8.50000000E-01  8.50000000E-01  8.50000000E-01
  8.50000000E-01  8.50000000E-01  8.50000000E-01  8.50000000E-01  8.50000000E-01
  8.50000000E-01  8.50000000E-01  8.50000000E-01  8.50000000E-01  8.50000000E-01
  8.50000000E-01  8.50000000E-01  8.50000000E-01  8.50000000E-01  8.50000000E-01
  8.50000000E-01  8.50000000E-01  8.50000000E-01  8.50000000E-01  8.50000000E-01
  8.50000000E-01  8.50000000E-01  8.50000000E-01  8.50000000E-01  8.50000000E-01
  8.50000000E-01  8.50000000E-01  8.50000000E-01  8.50000000E-01  8.50000000E-01
  8.50000000E-01  8.50000000E-01  8.50000000E-01  8.50000000E-01  8.50000000E-01
  8.50000000E-01  8.50000000E-01  8.50000000E-01  8.50000000E-01  8.50000000E-01
  8.50000000E-01  8.50000000E-01  8.50000000E-01  8.50000000E-01  8.50000000E-01
  8.50000000E-01  8.50000000E-01  8.50000000E-01  8.50000000E-01  8.50000000E-01
  8.50000000E-01  8.50000000E-01  8.50000000E-01  8.50000000E-01  8.50000000E-01
  8.50000000E-01  8.50000000E-01  8.50000000E-01  8.50000000E-01  8.50000000E-01
  8.50000000E-01  8.50000000E-01  8.50000000E-01  8.50000000E-01  8.50000000E-01
  8.50000000E-01  8.50000000E-01  8.50000000E-01  8.50000000E-01  8.50000000E-01
  8.50000000E-01  8.50000000E-01  8.50000000E-01  8.50000000E-01  8.50000000E-01
  8.50000000E-01  8.50000000E-01  8.50000000E-01  8.50000000E-01  8.50000000E-01
  8.50000000E-01  8.50000000E-01  8.50000000E-01  8.50000000E-01  8.50000000E-01
  8.50000000E-01  8.50000000E-01  8.50000000E-01  8.50000000E-01  8.50000000E-01
  8.50000000E-01  8.50000000E-01  8.50000000E-01  8.50000000E-01  8.50000000E-01
  8.50000000E-01  8.50000000E-01  8.50000000E-01  8.50000000E-01  8.50000000E-01
  8.50000000E-01  8.50000000E-01  8.50000000E-01  8.50000000E-01  8.50000000E-01
  8.50000000E-01  8.50000000E-01  8.50000000E-01  8.50000000E-01  8.50000000E-01
  8.50000000E-01  8.50000000E-01  8.50000000E-01  8.50000000E-01  8.50000000E-01
  8.50000000E-01  8.50000000E-01  8.50000000E-01  8.50000000E-01  8.50000000E-01
  8.50000000E-01  8.50000000E-01  8.50000000E-01  8.50000000E-01  8.50000000E-01
  8.50000000E-01  8.50000000E-01  8.50000000E-01  8.50000000E-01  8.50000000E-01
  8.50000000E-01  8.50000000E-01  8.50000000E-01  8.50000000E-01  8.50000000E-01
  8.50000000E-01  8.50000000E-01  8.50000000E-01  8.50000000E-01  8.50000000E-01
  8.50000000E-01  8.50000000E-01  8.50000000E-01  8.50000000E-01  8.50000000E-01
  8.50000000E-01  8.50000000E-01  8.50000000E-01  8.50000000E-01  8.50000000E-01
  8.50000000E-01  8.50000000E-01  8.50000000E-01  8.50000000E-01  8.50000000E-01
  8.50000000E-01  8.50000000E-01  8.50000000E-01  8.50000000E-01  8.50000000E-01
  8.50000000E-01  8.50000000E-01  8.50000000E-01  8.50000000E-01  8.50000000E-01
  8.50000000E-01  8.50000000E-01  8.50000000E-01  8.50000000E-01  8.50000000E-01
  8.50000000E-01  8.50000000E-01  8.50000000E-01  8.50000000E-01  8.50000000E-01
  8.50000000E-01  8.50000000E-01  8.50000000E-01  8.50000000E-01  8.50000000E-01
  8.50000000E-01  8.50000000E-01  8.50000000E-01  8.50000000E-01  8.50000000E-01
  8.50000000E-01  8.50000000E-01  8.50000000E-01  8.50000000E-01  8.50000000E-01
  8.50000000E-01  8.50000000E-01  8.50000000E-01  8.50000000E-01  8.50000000E-01
  8.50000000E-01  8.50000000E-01  8.50000000E-01  8.50000000E-01  8.50000000E-01
  8.50000000E-01  8.50000000E-01  8.50000000E-01  8.50000000E-01  8.50000000E-01
  8.50000000E-01  8.50000000E-01  8.50000000E-01  8.50000000E-01  8.50000000E-01
  8.50000000E-01  8.50000000E-01  8.50000000E-01  8.50000000E-01  8.50000000E-01
  8.50000000E-01  8.50000000E-01  8.50000000E-01  8.50000000E-01  8.50000000E-01
  8.50000000E-01  8.50000000E-01  8.50000000E-01  8.50000000E-01  8.50000000E-01
  8.50000000E-01  8.50000000E-01  8.50000000E-01  8.50000000E-01  8.50000000E-01
  8.50000000E-01  8.50000000E-01  8.50000000E-01  8.50000000E-01  8.50000000E-01
  8.50000000E-01  8.50000000E-01  8.50000000E-01  8.50000000E-01  8.50000000E-01
  8.50000000E-01  8.50000000E-01  8.50000000E-01  8.50000000E-01  8.50000000E-01
  8.50000000E-01  8.50000000E-01  8.50000000E-01  8.50000000E-01  8.50000000E-01
  8.50000000E-01  8.50000000E-01  8.50000000E-01  8.50000000E-01  8.50000000E-01
  8.50000000E-01  8.50000000E-01  8.50000000E-01  8.50000000E-01  8.50000000E-01
  8.50000000E-01  8.50000000E-01  8.50000000E-01  8.50000000E-01  8.50000000E-01
  8.50000000E-01  8.50000000E-01  8.50000000E-01  8.50000000E-01  8.50000000E-01
  8.50000000E-01  8.50000000E-01  8.50000000E-01  8.50000000E-01  8.50000000E-01
  8.50000000E-01  8.50000000E-01  8.50000000E-01  8.50000000E-01  8.50000000E-01
  8.50000000E-01  8.50000000E-01  8.50000000E-01  8.50000000E-01  8.50000000E-01
  8.50000000E-01  8.50000000E-01  8.50000000E-01  8.50000000E-01  8.50000000E-01
  8.50000000E-01  8.50000000E-01  8.50000000E-01  8.50000000E-01  8.50000000E-01
  8.50000000E-01  8.50000000E-01  8.50000000E-01  8.50000000E-01  8.50000000E-01
  8.50000000E-01  8.50000000E-01  8.50000000E-01  8.50000000E-01  8.50000000E-01
  8.50000000E-01  8.50000000E-01  8.50000000E-01  8.50000000E-01  8.50000000E-01
  8.50000000E-01  8.50000000E-01  8.50000000E-01  8.50000000E-01  8.50000000E-01
  8.50000000E-01  8.50000000E-01  8.50000000E-01  8.50000000E-01  8.50000000E-01
  8.50000000E-01  8.50000000E-01  8.50000000E-01  8.50000000E-01  8.50000000E-01
  8.50000000E-01  8.50000000E-01  8.50000000E-01  8.50000000E-01  8.50000000E-01
  8.50000000E-01  8.50000000E-01  8.50000000E-01  8.50000000E-01  8.50000000E-01
  8.50000000E-01  8.50000000E-01  8.50000000E-01  8.50000000E-01  8.50000000E-01
  8.50000000E-01  8.50000000E-01  8.50000000E-01  8.50000000E-01  8.50000000E-01
  8.50000000E-01  8.50000000E-01  8.50000000E-01  8.50000000E-01  8.50000000E-01
  8.50000000E-01  8.50000000E-01  8.50000000E-01  8.50000000E-01  8.50000000E-01
  8.50000000E-01  8.50000000E-01  8.50000000E-01  8.50000000E-01  8.50000000E-01
  8.50000000E-01  8.50000000E-01  8.50000000E-01  8.50000000E-01  8.50000000E-01
  8.50000000E-01  8.50000000E-01  8.50000000E-01  8.50000000E-01  8.50000000E-01
  8.50000000E-01  8.50000000E-01  8.50000000E-01  8.50000000E-01  8.50000000E-01
  8.50000000E-01  8.50000000E-01  8.50000000E-01  8.50000000E-01  8.50000000E-01
  8.50000000E-01  8.50000000E-01  8.50000000E-01  8.50000000E-01  8.50000000E-01
  8.50000000E-01  8.50000000E-01  8.50000000E-01  8.50000000E-01  8.50000000E-01
  8.50000000E-01  8.50000000E-01  8.50000000E-01  8.50000000E-01  8.50000000E-01
  8.50000000E-01  8.50000000E-01  8.50000000E-01  8.50000000E-01  8.50000000E-01
  8.50000000E-01  8.50000000E-01  8.50000000E-01  8.50000000E-01  8.50000000E-01
  8.50000000E-01  8.50000000E-01  8.50000000E-01  8.50000000E-01  8.50000000E-01
  8.50000000E-01  8.50000000E-01  8.50000000E-01  8.50000000E-01  8.50000000E-01
  8.50000000E-01  8.50000000E-01  8.50000000E-01  8.50000000E-01  8.50000000E-01
  8.50000000E-01  8.50000000E-01  8.50000000E-01  8.50000000E-01  8.50000000E-01
  8.50000000E-01  8.50000000E-01  8.50000000E-01  8.50000000E-01  8.50000000E-01
  8.50000000E-01  8.50000000E-01  8.50000000E-01  8.50000000E-01  8.50000000E-01
  8.50000000E-01  8.50000000E-01  8.50000000E-01  8.50000000E-01  8.50000000E-01
  8.50000000E-01  8.50000000E-01  8.50000000E-01  8.50000000E-01  8.50000000E-01
  8.50000000E-01  8.50000000E-01  8.50000000E-01  8.50000000E-01  8.50000000E-01
  8.50000000E-01  8.50000000E-01  8.50000000E-01  8.50000000E-01  8.50000000E-01
  8.50000000E-01  8.50000000E-01  8.50000000E-01  8.50000000E-01  8.50000000E-01
  8.50000000E-01  8.50000000E-01  8.50000000E-01  8.50000000E-01  8.50000000E-01
  8.50000000E-01  8.50000000E-01  8.50000000E-01  8.50000000E-01  8.50000000E-01
  8.50000000E-01  8.50000000E-01  8.50000000E-01  8.50000000E-01  8.50000000E-01
  8.50000000E-01  8.50000000E-01  8.50000000E-01  8.50000000E-01  8.50000000E-01
  8.50000000E-01  8.50000000E-01  8.50000000E-01  8.50000000E-01  8.50000000E-01
  8.50000000E-01  8.50000000E-01  8.50000000E-01  8.50000000E-01  8.50000000E-01
  8.50000000E-01  8.50000000E-01  8.50000000E-01  8.50000000E-01  8.50000000E-01
  8.50000000E-01  8.50000000E-01  8.50000000E-01  8.50000000E-01  8.50000000E-01
  8.50000000E-01  8.50000000E-01  8.50000000E-01  8.50000000E-01  8.50000000E-01
  8.50000000E-01  8.50000000E-01  8.50000000E-01  8.50000000E-01  8.50000000E-01
  8.50000000E-01  8.50000000E-01  8.50000000E-01  8.50000000E-01  8.50000000E-01
  8.50000000E-01  8.50000000E-01  8.50000000E-01  8.50000000E-01  8.50000000E-01
  8.50000000E-01  8.50000000E-01  8.50000000E-01  8.50000000E-01  8.50000000E-01
  8.50000000E-01  8.50000000E-01  8.50000000E-01  8.50000000E-01  8.50000000E-01
  8.50000000E-01  8.50000000E-01  8.50000000E-01  8.50000000E-01  8.50000000E-01
  8.50000000E-01  8.50000000E-01  8.50000000E-01  8.50000000E-01  8.50000000E-01
  8.50000000E-01  8.50000000E-01  8.50000000E-01  8.50000000E-01  8.50000000E-01
  8.50000000E-01  8.50000000E-01  8.50000000E-01  8.50000000E-01  8.50000000E-01
  8.50000000E-01  8.50000000E-01  8.50000000E-01  8.50000000E-01  8.50000000E-01
  8.50000000E-01  8.50000000E-01  8.50000000E-01  8.50000000E-01  8.50000000E-01
  8.50000000E-01  8.50000000E-01  8.50000000E-01  8.50000000E-01  8.50000000E-01
  8.50000000E-01  8.50000000E-01  8.50000000E-01  8.50000000E-01  8.50000000E-01
  8.50000000E-01  8.50000000E-01  8.50000000E-01  8.50000000E-01  8.50000000E-01
  8.50000000E-01  8.50000000E-01  8.50000000E-01  8.50000000E-01  8.50000000E-01
  8.50000000E-01  8.50000000E-01  8.50000000E-01  8.50000000E-01  8.50000000E-01
  8.50000000E-01  8.50000000E-01  8.50000000E-01  8.50000000E-01  8.50000000E-01
  8.50000000E-01  8.50000000E-01  8.50000000E-01  8.50000000E-01  8.50000000E-01
  8.50000000E-01  8.50000000E-01  8.50000000E-01  8.50000000E-01  8.50000000E-01
  8.50000000E-01  8.50000000E-01  8.50000000E-01  8.50000000E-01  8.50000000E-01
  8.50000000E-01  8.50000000E-01  8.50000000E-01  8.50000000E-01  8.50000000E-01
  8.50000000E-01  8.50000000E-01  8.50000000E-01  8.50000000E-01  8.50000000E-01
  8.50000000E-01  8.50000000E-01  8.50000000E-01  8.50000000E-01  8.50000000E-01
  8.50000000E-01  8.50000000E-01  8.50000000E-01  8.50000000E-01  8.50000000E-01
  8.50000000E-01  8.50000000E-01  8.50000000E-01  8.50000000E-01  8.50000000E-01
  8.50000000E-01  8.50000000E-01  8.50000000E-01  8.50000000E-01  8.50000000E-01
  8.50000000E-01  8.50000000E-01  8.50000000E-01  8.50000000E-01  8.50000000E-01
  8.50000000E-01  8.50000000E-01  8.50000000E-01  8.50000000E-01  8.50000000E-01
  8.50000000E-01  8.50000000E-01  8.50000000E-01  8.50000000E-01  8.50000000E-01
  8.50000000E-01  8.50000000E-01  8.50000000E-01  8.50000000E-01  8.50000000E-01
  8.50000000E-01  8.50000000E-01  8.50000000E-01  8.50000000E-01  8.50000000E-01
  8.50000000E-01  8.50000000E-01  8.50000000E-01  8.50000000E-01  8.50000000E-01
  8.50000000E-01  8.50000000E-01  8.50000000E-01  8.50000000E-01  8.50000000E-01
  8.50000000E-01  8.50000000E-01  8.50000000E-01  8.50000000E-01  8.50000000E-01
  8.50000000E-01  8.50000000E-01  8.50000000E-01  8.50000000E-01  8.50000000E-01
  8.50000000E-01  8.50000000E-01  8.50000000E-01  8.50000000E-01  8.50000000E-01
  8.50000000E-01  8.50000000E-01  8.50000000E-01  8.50000000E-01  8.50000000E-01
  8.50000000E-01  8.50000000E-01  8.50000000E-01  8.50000000E-01  8.50000000E-01
  8.50000000E-01  8.50000000E-01  8.50000000E-01  8.50000000E-01  8.50000000E-01
  8.50000000E-01  8.50000000E-01  8.50000000E-01  8.50000000E-01  8.50000000E-01
  8.50000000E-01  8.50000000E-01  8.50000000E-01  8.50000000E-01  8.50000000E-01
  8.50000000E-01  8.50000000E-01  8.50000000E-01  8.50000000E-01  8.50000000E-01
  8.50000000E-01  8.50000000E-01  8.50000000E-01  8.50000000E-01  8.50000000E-01
  8.50000000E-01  8.50000000E-01  8.50000000E-01  8.50000000E-01  8.50000000E-01
  8.50000000E-01  8.50000000E-01  8.50000000E-01  8.50000000E-01  8.50000000E-01
  8.50000000E-01  8.50000000E-01  8.50000000E-01  8.50000000E-01  8.50000000E-01
  8.50000000E-01  8.50000000E-01  8.50000000E-01  8.50000000E-01  8.50000000E-01
  8.50000000E-01  8.50000000E-01  8.50000000E-01  8.50000000E-01  8.50000000E-01
  8.50000000E-01  8.50000000E-01  8.50000000E-01  8.50000000E-01  8.50000000E-01
  8.50000000E-01  8.50000000E-01  8.50000000E-01  8.50000000E-01  8.50000000E-01
  8.50000000E-01  8.50000000E-01  8.50000000E-01  8.50000000E-01  8.50000000E-01
  8.50000000E-01  8.50000000E-01  8.50000000E-01  8.50000000E-01  8.50000000E-01
  8.50000000E-01  8.50000000E-01  8.50000000E-01  8.50000000E-01  8.50000000E-01
  8.50000000E-01  8.50000000E-01  8.50000000E-01  8.50000000E-01  8.50000000E-01
  8.50000000E-01  8.50000000E-01  8.50000000E-01  8.50000000E-01  8.50000000E-01
  8.50000000E-01  8.50000000E-01  8.50000000E-01  8.50000000E-01  8.50000000E-01
  8.50000000E-01  8.50000000E-01  8.50000000E-01  8.50000000E-01  8.50000000E-01
  8.50000000E-01  8.50000000E-01  8.50000000E-01  8.50000000E-01  8.50000000E-01
  8.50000000E-01  8.50000000E-01  8.50000000E-01  8.50000000E-01  8.50000000E-01
  8.50000000E-01  8.50000000E-01  8.50000000E-01  8.50000000E-01  8.50000000E-01
  8.50000000E-01  8.50000000E-01  8.50000000E-01  8.50000000E-01  8.50000000E-01
  8.50000000E-01  8.50000000E-01  8.50000000E-01  8.50000000E-01  8.50000000E-01
  8.50000000E-01  8.50000000E-01  8.50000000E-01  8.50000000E-01  8.50000000E-01
  8.50000000E-01  8.50000000E-01  8.50000000E-01  8.50000000E-01  8.50000000E-01
  8.50000000E-01  8.50000000E-01  8.50000000E-01  8.50000000E-01  8.50000000E-01
  8.50000000E-01  8.50000000E-01  8.50000000E-01  8.50000000E-01  8.50000000E-01
  8.50000000E-01  8.50000000E-01  8.50000000E-01  8.50000000E-01  8.50000000E-01
  8.50000000E-01  8.50000000E-01  8.50000000E-01  8.50000000E-01  8.50000000E-01
  8.50000000E-01  8.50000000E-01  8.50000000E-01  8.50000000E-01  8.50000000E-01
  8.50000000E-01  8.50000000E-01  8.50000000E-01  8.50000000E-01  8.50000000E-01
  8.50000000E-01  8.50000000E-01  8.50000000E-01  8.50000000E-01  8.50000000E-01
  8.50000000E-01  8.50000000E-01  8.50000000E-01  8.50000000E-01  8.50000000E-01
  8.50000000E-01  8.50000000E-01  8.50000000E-01  8.50000000E-01  8.50000000E-01
  8.50000000E-01  8.50000000E-01  8.50000000E-01  8.50000000E-01  8.50000000E-01
  8.50000000E-01  8.50000000E-01  8.50000000E-01  8.50000000E-01  8.50000000E-01
  8.50000000E-01  8.50000000E-01  8.50000000E-01  8.50000000E-01  8.50000000E-01
  8.50000000E-01  8.50000000E-01  8.50000000E-01  8.50000000E-01  8.50000000E-01
  8.50000000E-01  8.50000000E-01  8.50000000E-01  8.50000000E-01  8.50000000E-01
  8.50000000E-01  8.50000000E-01  8.50000000E-01  8.50000000E-01  8.50000000E-01
  8.50000000E-01  8.50000000E-01  8.50000000E-01  8.50000000E-01  8.50000000E-01
  8.50000000E-01  8.50000000E-01  8.50000000E-01  8.50000000E-01  8.50000000E-01
  8.50000000E-01  8.50000000E-01  8.50000000E-01  8.50000000E-01  8.50000000E-01
  8.50000000E-01  8.50000000E-01  8.50000000E-01  8.50000000E-01  8.50000000E-01
  8.50000000E-01  8.50000000E-01  8.50000000E-01  8.50000000E-01  8.50000000E-01
  8.50000000E-01  8.50000000E-01  8.50000000E-01  8.50000000E-01  8.50000000E-01
  8.50000000E-01  8.50000000E-01  8.50000000E-01  8.50000000E-01  8.50000000E-01
  8.50000000E-01  8.50000000E-01  8.50000000E-01  8.50000000E-01  8.50000000E-01
  8.50000000E-01  8.50000000E-01  8.50000000E-01  8.50000000E-01  8.50000000E-01
  8.50000000E-01  8.50000000E-01  8.50000000E-01  8.50000000E-01  8.50000000E-01
  8.50000000E-01  8.50000000E-01  8.50000000E-01  8.50000000E-01  8.50000000E-01
  8.50000000E-01  8.50000000E-01  8.50000000E-01  8.50000000E-01  8.50000000E-01
  8.50000000E-01  8.50000000E-01  8.50000000E-01  8.50000000E-01  8.50000000E-01
  8.50000000E-01  8.50000000E-01  8.50000000E-01  8.50000000E-01  8.50000000E-01
  8.50000000E-01  8.50000000E-01  8.50000000E-01  8.50000000E-01  8.50000000E-01
  8.50000000E-01  8.50000000E-01  8.50000000E-01  8.50000000E-01  8.50000000E-01
  8.50000000E-01  8.50000000E-01  8.50000000E-01  8.50000000E-01  8.50000000E-01
  8.50000000E-01  8.50000000E-01  8.50000000E-01  8.50000000E-01  8.50000000E-01
  8.50000000E-01  8.50000000E-01  8.50000000E-01  8.50000000E-01  8.50000000E-01
  8.50000000E-01  8.50000000E-01  8.50000000E-01  8.50000000E-01  8.50000000E-01
  8.50000000E-01  8.50000000E-01  8.50000000E-01  8.50000000E-01  8.50000000E-01
  8.50000000E-01  8.50000000E-01  8.50000000E-01  8.50000000E-01  8.50000000E-01
  8.50000000E-01  8.50000000E-01  8.50000000E-01  8.50000000E-01  8.50000000E-01
  8.50000000E-01  8.50000000E-01  8.50000000E-01  8.50000000E-01  8.50000000E-01
  8.50000000E-01  8.50000000E-01  8.50000000E-01  8.50000000E-01  8.50000000E-01
  8.50000000E-01  8.50000000E-01  8.50000000E-01  8.50000000E-01  8.50000000E-01
  8.50000000E-01  8.50000000E-01  8.50000000E-01  8.50000000E-01  8.50000000E-01
  8.50000000E-01  8.50000000E-01  8.50000000E-01  8.50000000E-01  8.50000000E-01
  8.50000000E-01  8.50000000E-01  8.50000000E-01  8.50000000E-01  8.50000000E-01
  8.50000000E-01  8.50000000E-01  8.50000000E-01  8.50000000E-01  8.50000000E-01
  8.50000000E-01  8.50000000E-01  8.50000000E-01  8.50000000E-01  8.50000000E-01
  8.50000000E-01  8.50000000E-01  8.50000000E-01  8.50000000E-01  8.50000000E-01
  8.50000000E-01  8.50000000E-01  8.50000000E-01  8.50000000E-01  8.50000000E-01
  8.50000000E-01  8.50000000E-01  8.50000000E-01  8.50000000E-01  8.50000000E-01
  8.50000000E-01  8.50000000E-01  8.50000000E-01  8.50000000E-01  8.50000000E-01
  8.50000000E-01  8.50000000E-01  8.50000000E-01  8.50000000E-01  8.50000000E-01
  8.50000000E-01  8.50000000E-01  8.50000000E-01  8.50000000E-01  8.50000000E-01
  8.50000000E-01  8.50000000E-01  8.50000000E-01  8.50000000E-01  8.50000000E-01
  8.50000000E-01  8.50000000E-01  8.50000000E-01  8.50000000E-01  8.50000000E-01
  8.50000000E-01  8.50000000E-01  8.50000000E-01  8.50000000E-01  8.50000000E-01
  8.50000000E-01  8.50000000E-01  8.50000000E-01  8.50000000E-01  8.50000000E-01
  8.50000000E-01  8.50000000E-01  8.50000000E-01  8.50000000E-01  8.50000000E-01
  8.50000000E-01  8.50000000E-01  8.50000000E-01  8.50000000E-01  8.50000000E-01
  8.50000000E-01  8.50000000E-01  8.50000000E-01  8.50000000E-01  8.50000000E-01
  8.50000000E-01  8.50000000E-01  8.50000000E-01  8.50000000E-01  8.50000000E-01
  8.50000000E-01  8.50000000E-01  8.50000000E-01  8.50000000E-01  8.50000000E-01
  8.50000000E-01  8.50000000E-01  8.50000000E-01  8.50000000E-01  8.50000000E-01
  8.50000000E-01  8.50000000E-01  8.50000000E-01  8.50000000E-01  8.50000000E-01
  8.50000000E-01  8.50000000E-01  8.50000000E-01  8.50000000E-01  8.50000000E-01
  8.50000000E-01  8.50000000E-01  8.50000000E-01  8.50000000E-01  8.50000000E-01
  8.50000000E-01  8.50000000E-01  8.50000000E-01  8.50000000E-01  8.50000000E-01
  8.50000000E-01  8.50000000E-01  8.50000000E-01  8.50000000E-01  8.50000000E-01
  8.50000000E-01  8.50000000E-01  8.50000000E-01  8.50000000E-01  8.50000000E-01
  8.50000000E-01  8.50000000E-01  8.50000000E-01  8.50000000E-01  8.50000000E-01
  8.50000000E-01  8.50000000E-01  8.50000000E-01  8.50000000E-01  8.50000000E-01
  8.50000000E-01  8.50000000E-01  8.50000000E-01  8.50000000E-01  8.50000000E-01
  8.50000000E-01  8.50000000E-01  8.50000000E-01  8.50000000E-01  8.50000000E-01
  8.50000000E-01  8.50000000E-01  8.50000000E-01  8.50000000E-01  8.50000000E-01
  8.50000000E-01  8.50000000E-01  8.50000000E-01  8.50000000E-01  8.50000000E-01
  8.50000000E-01  8.50000000E-01  8.50000000E-01  8.50000000E-01  8.50000000E-01
  8.50000000E-01  8.50000000E-01  8.50000000E-01  8.50000000E-01  8.50000000E-01
  8.50000000E-01  8.50000000E-01  8.50000000E-01  8.50000000E-01  8.50000000E-01
  8.50000000E-01  8.50000000E-01  8.50000000E-01  8.50000000E-01  8.50000000E-01
  8.50000000E-01  8.50000000E-01  8.50000000E-01  8.50000000E-01  8.50000000E-01
  8.50000000E-01  8.50000000E-01  8.50000000E-01  8.50000000E-01  8.50000000E-01
  8.50000000E-01  8.50000000E-01  8.50000000E-01  8.50000000E-01  8.50000000E-01
  8.50000000E-01  8.50000000E-01  8.50000000E-01  8.50000000E-01  8.50000000E-01
  8.50000000E-01  8.50000000E-01  8.50000000E-01  8.50000000E-01  8.50000000E-01
  8.50000000E-01  8.50000000E-01  8.50000000E-01  8.50000000E-01  8.50000000E-01
  8.50000000E-01  8.50000000E-01  8.50000000E-01  8.50000000E-01  8.50000000E-01
  8.50000000E-01  8.50000000E-01  8.50000000E-01  8.50000000E-01  8.50000000E-01
  8.50000000E-01  8.50000000E-01  8.50000000E-01  8.50000000E-01  8.50000000E-01
  8.50000000E-01  8.50000000E-01  8.50000000E-01  8.50000000E-01  8.50000000E-01
  8.50000000E-01  8.50000000E-01  8.50000000E-01  8.50000000E-01  8.50000000E-01
  8.50000000E-01  8.50000000E-01  8.50000000E-01  8.50000000E-01  8.50000000E-01
  8.50000000E-01  8.50000000E-01  8.50000000E-01  8.50000000E-01  8.50000000E-01
  8.50000000E-01  8.50000000E-01  8.50000000E-01  8.50000000E-01  8.50000000E-01
  8.50000000E-01  8.50000000E-01  8.50000000E-01  8.50000000E-01  8.50000000E-01
  8.50000000E-01  8.50000000E-01  8.50000000E-01  8.50000000E-01  8.50000000E-01
  8.50000000E-01  8.50000000E-01  8.50000000E-01  8.50000000E-01  8.50000000E-01
  8.50000000E-01  8.50000000E-01  8.50000000E-01  8.50000000E-01  8.50000000E-01
  8.50000000E-01  8.50000000E-01  8.50000000E-01  8.50000000E-01  8.50000000E-01
  8.50000000E-01  8.50000000E-01  8.50000000E-01  8.50000000E-01  8.50000000E-01
  8.50000000E-01  8.50000000E-01  8.50000000E-01  8.50000000E-01  8.50000000E-01
  8.50000000E-01  8.50000000E-01  8.50000000E-01  8.50000000E-01  8.50000000E-01
  8.50000000E-01  8.50000000E-01  8.50000000E-01  8.50000000E-01  8.50000000E-01
  8.50000000E-01  8.50000000E-01  8.50000000E-01  8.50000000E-01  8.50000000E-01
  8.50000000E-01  8.50000000E-01  8.50000000E-01  8.50000000E-01  8.50000000E-01
  8.50000000E-01  8.50000000E-01  8.50000000E-01  8.50000000E-01  8.50000000E-01
  8.50000000E-01  8.50000000E-01  8.50000000E-01  8.50000000E-01  8.50000000E-01
  8.50000000E-01  8.50000000E-01  8.50000000E-01  8.50000000E-01  8.50000000E-01
  8.50000000E-01  8.50000000E-01  8.50000000E-01  8.50000000E-01  8.50000000E-01
  8.50000000E-01  8.50000000E-01  8.50000000E-01  8.50000000E-01  8.50000000E-01
  8.50000000E-01  8.50000000E-01  8.50000000E-01  8.50000000E-01  8.50000000E-01
  8.50000000E-01  8.50000000E-01  8.50000000E-01  8.50000000E-01  8.50000000E-01
  8.50000000E-01  8.50000000E-01  8.50000000E-01  8.50000000E-01  8.50000000E-01
  8.50000000E-01  8.50000000E-01  8.50000000E-01  8.50000000E-01  8.50000000E-01
  8.50000000E-01  8.50000000E-01  8.50000000E-01  8.50000000E-01  8.50000000E-01
  8.50000000E-01  8.50000000E-01  8.50000000E-01  8.50000000E-01  8.50000000E-01
  8.50000000E-01  8.50000000E-01  8.50000000E-01  8.50000000E-01  8.50000000E-01
  8.50000000E-01  8.50000000E-01  8.50000000E-01  8.50000000E-01  8.50000000E-01
  8.50000000E-01  8.50000000E-01  8.50000000E-01  8.50000000E-01  8.50000000E-01
  8.50000000E-01  8.50000000E-01  8.50000000E-01  8.50000000E-01  8.50000000E-01
  8.50000000E-01  8.50000000E-01  8.50000000E-01  8.50000000E-01  8.50000000E-01
  8.50000000E-01  8.50000000E-01  8.50000000E-01  8.50000000E-01  8.50000000E-01
  8.50000000E-01  8.50000000E-01  8.50000000E-01  8.50000000E-01  8.50000000E-01
  8.50000000E-01  8.50000000E-01  8.50000000E-01  8.50000000E-01  8.50000000E-01
  8.50000000E-01  8.50000000E-01  8.50000000E-01  8.50000000E-01  8.50000000E-01
  8.50000000E-01  8.50000000E-01  8.50000000E-01  8.50000000E-01  8.50000000E-01
  8.50000000E-01  8.50000000E-01  8.50000000E-01  8.50000000E-01  8.50000000E-01
  8.50000000E-01  8.50000000E-01  8.50000000E-01  8.50000000E-01  8.50000000E-01
  8.50000000E-01  8.50000000E-01  8.50000000E-01  8.50000000E-01  8.50000000E-01
  8.50000000E-01  8.50000000E-01  8.50000000E-01  8.50000000E-01  8.50000000E-01
  8.50000000E-01  8.50000000E-01  8.50000000E-01  8.50000000E-01  8.50000000E-01
  8.50000000E-01  8.50000000E-01  8.50000000E-01  8.50000000E-01  8.50000000E-01
  8.50000000E-01  8.50000000E-01  8.50000000E-01  8.50000000E-01  8.50000000E-01
  8.50000000E-01  8.50000000E-01  8.50000000E-01  8.50000000E-01  8.50000000E-01
  8.50000000E-01  8.50000000E-01  8.50000000E-01  8.50000000E-01  8.50000000E-01
  8.50000000E-01  8.50000000E-01  8.50000000E-01  8.50000000E-01  8.50000000E-01
  8.50000000E-01  8.50000000E-01  8.50000000E-01  8.50000000E-01  8.50000000E-01
  8.50000000E-01  8.50000000E-01  8.50000000E-01  8.50000000E-01  8.50000000E-01
  8.50000000E-01  8.50000000E-01  8.50000000E-01  8.50000000E-01  8.50000000E-01
  8.50000000E-01  8.50000000E-01  8.50000000E-01  8.50000000E-01  8.50000000E-01
  8.50000000E-01  8.50000000E-01  8.50000000E-01  8.50000000E-01  8.50000000E-01
  8.50000000E-01  8.50000000E-01  8.50000000E-01  8.50000000E-01  8.50000000E-01
  8.50000000E-01  8.50000000E-01  8.50000000E-01  8.50000000E-01  8.50000000E-01
  8.50000000E-01  8.50000000E-01  8.50000000E-01  8.50000000E-01  8.50000000E-01
  8.50000000E-01  8.50000000E-01  8.50000000E-01  8.50000000E-01  8.50000000E-01
  8.50000000E-01  8.50000000E-01  8.50000000E-01  8.50000000E-01  8.50000000E-01
  8.50000000E-01  8.50000000E-01  8.50000000E-01  8.50000000E-01  8.50000000E-01
  8.50000000E-01  8.50000000E-01  8.50000000E-01  8.50000000E-01  8.50000000E-01
  8.50000000E-01  8.50000000E-01  8.50000000E-01  8.50000000E-01  8.50000000E-01
  8.50000000E-01  8.50000000E-01  8.50000000E-01  8.50000000E-01  8.50000000E-01
  8.50000000E-01  8.50000000E-01  8.50000000E-01  8.50000000E-01  8.50000000E-01
  8.50000000E-01  8.50000000E-01  8.50000000E-01  8.50000000E-01  8.50000000E-01
  8.50000000E-01  8.50000000E-01  8.50000000E-01  8.50000000E-01  8.50000000E-01
  8.50000000E-01  8.50000000E-01  8.50000000E-01  8.50000000E-01  8.50000000E-01
  8.50000000E-01  8.50000000E-01  8.50000000E-01  8.50000000E-01  8.50000000E-01
  8.50000000E-01  8.50000000E-01  8.50000000E-01  8.50000000E-01  8.50000000E-01
  8.50000000E-01  8.50000000E-01  8.50000000E-01  8.50000000E-01  8.50000000E-01
  8.50000000E-01  8.50000000E-01  8.50000000E-01  8.50000000E-01  8.50000000E-01
  8.50000000E-01  8.50000000E-01  8.50000000E-01  8.50000000E-01  8.50000000E-01
  8.50000000E-01  8.50000000E-01  8.50000000E-01  8.50000000E-01  8.50000000E-01
  8.50000000E-01  8.50000000E-01  8.50000000E-01  8.50000000E-01  8.50000000E-01
  8.50000000E-01  8.50000000E-01  8.50000000E-01  8.50000000E-01  8.50000000E-01
  8.50000000E-01  8.50000000E-01  8.50000000E-01  8.50000000E-01  8.50000000E-01
  8.50000000E-01  8.50000000E-01  8.50000000E-01  8.50000000E-01  8.50000000E-01
  8.50000000E-01  8.50000000E-01  8.50000000E-01  8.50000000E-01  8.50000000E-01
  8.50000000E-01  8.50000000E-01  8.50000000E-01  8.50000000E-01  8.50000000E-01
  8.50000000E-01  8.50000000E-01  8.50000000E-01  8.50000000E-01  8.50000000E-01
  8.50000000E-01  8.50000000E-01  8.50000000E-01  8.50000000E-01  8.50000000E-01
  8.50000000E-01  8.50000000E-01  8.50000000E-01  8.50000000E-01  8.50000000E-01
  8.50000000E-01  8.50000000E-01  8.50000000E-01  8.50000000E-01  8.50000000E-01
  8.50000000E-01  8.50000000E-01  8.50000000E-01  8.50000000E-01  8.50000000E-01
  8.50000000E-01  8.50000000E-01  8.50000000E-01  8.50000000E-01  8.50000000E-01
  8.50000000E-01  8.50000000E-01  8.50000000E-01  8.50000000E-01  8.50000000E-01
  8.50000000E-01  8.50000000E-01  8.50000000E-01  8.50000000E-01  8.50000000E-01
  8.50000000E-01  8.50000000E-01  8.50000000E-01  8.50000000E-01  8.50000000E-01
  8.50000000E-01  8.50000000E-01  8.50000000E-01  8.50000000E-01  8.50000000E-01
  8.50000000E-01  8.50000000E-01  8.50000000E-01  8.50000000E-01  8.50000000E-01
  8.50000000E-01  8.50000000E-01  8.50000000E-01  8.50000000E-01  8.50000000E-01
  8.50000000E-01  8.50000000E-01  8.50000000E-01  8.50000000E-01  8.50000000E-01
  8.50000000E-01  8.50000000E-01  8.50000000E-01  8.50000000E-01  8.50000000E-01
  8.50000000E-01  8.50000000E-01  8.50000000E-01  8.50000000E-01  8.50000000E-01
  8.50000000E-01  8.50000000E-01  8.50000000E-01  8.50000000E-01  8.50000000E-01
  8.50000000E-01  8.50000000E-01  8.50000000E-01  8.50000000E-01  8.50000000E-01
  8.50000000E-01  8.50000000E-01  8.50000000E-01  8.50000000E-01  8.50000000E-01
  8.50000000E-01  8.50000000E-01  8.50000000E-01  8.50000000E-01  8.50000000E-01
  8.50000000E-01  8.50000000E-01  8.50000000E-01  8.50000000E-01  8.50000000E-01
  8.50000000E-01  8.50000000E-01  8.50000000E-01  8.50000000E-01  8.50000000E-01
  8.50000000E-01  8.50000000E-01  8.50000000E-01  8.50000000E-01  8.50000000E-01
  8.50000000E-01  8.50000000E-01  8.50000000E-01  8.50000000E-01  8.50000000E-01
  8.50000000E-01  8.50000000E-01  8.50000000E-01  8.50000000E-01  8.50000000E-01
  8.50000000E-01  8.50000000E-01  8.50000000E-01  8.50000000E-01  8.50000000E-01
  8.50000000E-01  8.50000000E-01  8.50000000E-01  8.50000000E-01  8.50000000E-01
  8.50000000E-01  8.50000000E-01  8.50000000E-01  8.50000000E-01  8.50000000E-01
  8.50000000E-01  8.50000000E-01  8.50000000E-01  8.50000000E-01  8.50000000E-01
  8.50000000E-01  8.50000000E-01  8.50000000E-01  8.50000000E-01  8.50000000E-01
  8.50000000E-01  8.50000000E-01  8.50000000E-01  8.50000000E-01  8.50000000E-01
  8.50000000E-01  8.50000000E-01  8.50000000E-01  8.50000000E-01  8.50000000E-01
  8.50000000E-01  8.50000000E-01  8.50000000E-01  8.50000000E-01  8.50000000E-01
  8.50000000E-01  8.50000000E-01  8.50000000E-01  8.50000000E-01  8.50000000E-01
  8.50000000E-01  8.50000000E-01  8.50000000E-01  8.50000000E-01  8.50000000E-01
  8.50000000E-01  8.50000000E-01  8.50000000E-01  8.50000000E-01  8.50000000E-01
  8.50000000E-01  8.50000000E-01  8.50000000E-01  8.50000000E-01  8.50000000E-01
  8.50000000E-01  8.50000000E-01  8.50000000E-01  8.50000000E-01  8.50000000E-01
  8.50000000E-01  8.50000000E-01  8.50000000E-01  8.50000000E-01  8.50000000E-01
  8.50000000E-01  8.50000000E-01  8.50000000E-01  8.50000000E-01  8.50000000E-01
  8.50000000E-01  8.50000000E-01  8.50000000E-01  8.50000000E-01  8.50000000E-01
  8.50000000E-01  8.50000000E-01  8.50000000E-01  8.50000000E-01  8.50000000E-01
  8.50000000E-01  8.50000000E-01  8.50000000E-01  8.50000000E-01  8.50000000E-01
  8.50000000E-01  8.50000000E-01  8.50000000E-01  8.50000000E-01  8.50000000E-01
  8.50000000E-01  8.50000000E-01  8.50000000E-01  8.50000000E-01  8.50000000E-01
  8.50000000E-01  8.50000000E-01  8.50000000E-01  8.50000000E-01  8.50000000E-01
  8.50000000E-01  8.50000000E-01  8.50000000E-01  8.50000000E-01  8.50000000E-01
  8.50000000E-01  8.50000000E-01  8.50000000E-01  8.50000000E-01  8.50000000E-01
  8.50000000E-01  8.50000000E-01  8.50000000E-01  8.50000000E-01  8.50000000E-01
  8.50000000E-01  8.50000000E-01  8.50000000E-01  8.50000000E-01  8.50000000E-01
  8.50000000E-01  8.50000000E-01  8.50000000E-01  8.50000000E-01  8.50000000E-01
  8.50000000E-01  8.50000000E-01  8.50000000E-01  8.50000000E-01  8.50000000E-01
  8.50000000E-01  8.50000000E-01  8.50000000E-01  8.50000000E-01  8.50000000E-01
  8.50000000E-01  8.50000000E-01  8.50000000E-01  8.50000000E-01  8.50000000E-01
  8.50000000E-01  8.50000000E-01  8.50000000E-01  8.50000000E-01  8.50000000E-01
  8.50000000E-01  8.50000000E-01  8.50000000E-01  8.50000000E-01  8.50000000E-01
  8.50000000E-01  8.50000000E-01  8.50000000E-01  8.50000000E-01  8.50000000E-01
  8.50000000E-01  8.50000000E-01  8.50000000E-01  8.50000000E-01  8.50000000E-01
  8.50000000E-01  8.50000000E-01  8.50000000E-01  8.50000000E-01  8.50000000E-01
  8.50000000E-01  8.50000000E-01  8.50000000E-01  8.50000000E-01  8.50000000E-01
  8.50000000E-01  8.50000000E-01  8.50000000E-01  8.50000000E-01  8.50000000E-01
  8.50000000E-01  8.50000000E-01  8.50000000E-01  8.50000000E-01  8.50000000E-01
  8.50000000E-01  8.50000000E-01  8.50000000E-01  8.50000000E-01  8.50000000E-01
  8.50000000E-01  8.50000000E-01  8.50000000E-01  8.50000000E-01  8.50000000E-01
  8.50000000E-01  8.50000000E-01  8.50000000E-01  8.50000000E-01  8.50000000E-01
  8.50000000E-01  8.50000000E-01  8.50000000E-01  8.50000000E-01  8.50000000E-01
  8.50000000E-01  8.50000000E-01  8.50000000E-01  8.50000000E-01  8.50000000E-01
  8.50000000E-01  8.50000000E-01  8.50000000E-01  8.50000000E-01  8.50000000E-01
  8.50000000E-01  8.50000000E-01  8.50000000E-01  8.50000000E-01  8.50000000E-01
  8.50000000E-01  8.50000000E-01  8.50000000E-01  8.50000000E-01  8.50000000E-01
  8.50000000E-01  8.50000000E-01  8.50000000E-01  8.50000000E-01  8.50000000E-01
  8.50000000E-01  8.50000000E-01  8.50000000E-01  8.50000000E-01  8.50000000E-01
  8.50000000E-01  8.50000000E-01  8.50000000E-01  8.50000000E-01  8.50000000E-01
  8.50000000E-01  8.50000000E-01  8.50000000E-01  8.50000000E-01  8.50000000E-01
  8.50000000E-01  8.50000000E-01  8.50000000E-01  8.50000000E-01  8.50000000E-01
  8.50000000E-01  8.50000000E-01  8.50000000E-01  8.50000000E-01  8.50000000E-01
  8.50000000E-01  8.50000000E-01  8.50000000E-01  8.50000000E-01  8.50000000E-01
  8.50000000E-01  8.50000000E-01  8.50000000E-01  8.50000000E-01  8.50000000E-01
  8.50000000E-01  8.50000000E-01  8.50000000E-01  8.50000000E-01  8.50000000E-01
  8.50000000E-01  8.50000000E-01  8.50000000E-01  8.50000000E-01  8.50000000E-01
  8.50000000E-01  8.50000000E-01  8.50000000E-01  8.50000000E-01  8.50000000E-01
  8.50000000E-01  8.50000000E-01  8.50000000E-01  8.50000000E-01  8.50000000E-01
  8.50000000E-01  8.50000000E-01  8.50000000E-01  8.50000000E-01  8.50000000E-01
  8.50000000E-01  8.50000000E-01  8.50000000E-01  8.50000000E-01  8.50000000E-01
  8.50000000E-01  8.50000000E-01  8.50000000E-01  8.50000000E-01  8.50000000E-01
  8.50000000E-01  8.50000000E-01  8.50000000E-01  8.50000000E-01  8.50000000E-01
  8.50000000E-01  8.50000000E-01  8.50000000E-01  8.50000000E-01  8.50000000E-01
  8.50000000E-01  8.50000000E-01  8.50000000E-01  8.50000000E-01  8.50000000E-01
  8.50000000E-01  8.50000000E-01  8.50000000E-01  8.50000000E-01  8.50000000E-01
  8.50000000E-01  8.50000000E-01  8.50000000E-01  8.50000000E-01  8.50000000E-01
  8.50000000E-01  8.50000000E-01  8.50000000E-01  8.50000000E-01  8.50000000E-01
  8.50000000E-01  8.50000000E-01  8.50000000E-01  8.50000000E-01  8.50000000E-01
  8.50000000E-01  8.50000000E-01  8.50000000E-01  8.50000000E-01  8.50000000E-01
  8.50000000E-01  8.50000000E-01  8.50000000E-01  8.50000000E-01  8.50000000E-01
  8.50000000E-01  8.50000000E-01  8.50000000E-01  8.50000000E-01  8.50000000E-01
  8.50000000E-01  8.50000000E-01  8.50000000E-01  8.50000000E-01  8.50000000E-01
  8.50000000E-01  8.50000000E-01  8.50000000E-01  8.50000000E-01  8.50000000E-01
  8.50000000E-01  8.50000000E-01  8.50000000E-01  8.50000000E-01  8.50000000E-01
  8.50000000E-01  8.50000000E-01  8.50000000E-01  8.50000000E-01  8.50000000E-01
  8.50000000E-01  8.50000000E-01  8.50000000E-01  8.50000000E-01  8.50000000E-01
  8.50000000E-01  8.50000000E-01  8.50000000E-01  8.50000000E-01  8.50000000E-01
  8.50000000E-01  8.50000000E-01  8.50000000E-01  8.50000000E-01  8.50000000E-01
  8.50000000E-01  8.50000000E-01  8.50000000E-01  8.50000000E-01  8.50000000E-01
  8.50000000E-01  8.50000000E-01  8.50000000E-01  8.50000000E-01  8.50000000E-01
  8.50000000E-01  8.50000000E-01  8.50000000E-01  8.50000000E-01  8.50000000E-01
  8.50000000E-01  8.50000000E-01  8.50000000E-01  8.50000000E-01  8.50000000E-01
  8.50000000E-01  8.50000000E-01  8.50000000E-01  8.50000000E-01  8.50000000E-01
  8.50000000E-01  8.50000000E-01  8.50000000E-01  8.50000000E-01  8.50000000E-01
  8.50000000E-01  8.50000000E-01  8.50000000E-01  8.50000000E-01  8.50000000E-01
  8.50000000E-01  8.50000000E-01  8.50000000E-01  8.50000000E-01  8.50000000E-01
  8.50000000E-01  8.50000000E-01  8.50000000E-01  8.50000000E-01  8.50000000E-01
  8.50000000E-01  8.50000000E-01  8.50000000E-01  8.50000000E-01  8.50000000E-01
  8.50000000E-01  8.50000000E-01  8.50000000E-01  8.50000000E-01  8.50000000E-01
  8.50000000E-01  8.50000000E-01  8.50000000E-01  8.50000000E-01  8.50000000E-01
  8.50000000E-01  8.50000000E-01  8.50000000E-01  8.50000000E-01  8.50000000E-01
  8.50000000E-01  8.50000000E-01  8.50000000E-01  8.50000000E-01  8.50000000E-01
  8.50000000E-01  8.50000000E-01  8.50000000E-01  8.50000000E-01  8.50000000E-01
  8.50000000E-01  8.50000000E-01  8.50000000E-01  8.50000000E-01  8.50000000E-01
  8.50000000E-01  8.50000000E-01  8.50000000E-01  8.50000000E-01  8.50000000E-01
  8.50000000E-01  8.50000000E-01  8.50000000E-01  8.50000000E-01  8.50000000E-01
  8.50000000E-01  8.50000000E-01  8.50000000E-01  8.50000000E-01  8.50000000E-01
  8.50000000E-01  8.50000000E-01  8.50000000E-01  8.50000000E-01  8.50000000E-01
  8.50000000E-01  8.50000000E-01  8.50000000E-01  8.50000000E-01  8.50000000E-01
  8.50000000E-01  8.50000000E-01  8.50000000E-01  8.50000000E-01  8.50000000E-01
  8.50000000E-01  8.50000000E-01  8.50000000E-01  8.50000000E-01  8.50000000E-01
  8.50000000E-01  8.50000000E-01  8.50000000E-01  8.50000000E-01  8.50000000E-01
  8.50000000E-01  8.50000000E-01  8.50000000E-01  8.50000000E-01  8.50000000E-01
  8.50000000E-01  8.50000000E-01  8.50000000E-01  8.50000000E-01  8.50000000E-01
  8.50000000E-01  8.50000000E-01  8.50000000E-01  8.50000000E-01  8.50000000E-01
  8.50000000E-01  8.50000000E-01  8.50000000E-01  8.50000000E-01  8.50000000E-01
  8.50000000E-01  8.50000000E-01  8.50000000E-01  8.50000000E-01  8.50000000E-01
  8.50000000E-01  8.50000000E-01  8.50000000E-01  8.50000000E-01  8.50000000E-01
  8.50000000E-01  8.50000000E-01  8.50000000E-01  8.50000000E-01  8.50000000E-01
  8.50000000E-01  8.50000000E-01  8.50000000E-01  8.50000000E-01  8.50000000E-01
  8.50000000E-01  8.50000000E-01  8.50000000E-01  8.50000000E-01  8.50000000E-01
  8.50000000E-01  8.50000000E-01  8.50000000E-01  8.50000000E-01  8.50000000E-01
  8.50000000E-01  8.50000000E-01  8.50000000E-01  8.50000000E-01  8.50000000E-01
  8.50000000E-01  8.50000000E-01  8.50000000E-01  8.50000000E-01  8.50000000E-01
  8.50000000E-01  8.50000000E-01  8.50000000E-01  8.50000000E-01  8.50000000E-01
  8.50000000E-01  8.50000000E-01  8.50000000E-01  8.50000000E-01  8.50000000E-01
  8.50000000E-01  8.50000000E-01  8.50000000E-01  8.50000000E-01  8.50000000E-01
  8.50000000E-01  8.50000000E-01  8.50000000E-01  8.50000000E-01  8.50000000E-01
  8.50000000E-01  8.50000000E-01  8.50000000E-01  8.50000000E-01  8.50000000E-01
  8.50000000E-01  8.50000000E-01  8.50000000E-01  8.50000000E-01  8.50000000E-01
  8.50000000E-01  8.50000000E-01  8.50000000E-01  8.50000000E-01  8.50000000E-01
  8.50000000E-01  8.50000000E-01  8.50000000E-01  8.50000000E-01  8.50000000E-01
  8.50000000E-01  8.50000000E-01  8.50000000E-01  8.50000000E-01  8.50000000E-01
  8.50000000E-01  8.50000000E-01  8.50000000E-01  8.50000000E-01  8.50000000E-01
  8.50000000E-01  8.50000000E-01  8.50000000E-01  8.50000000E-01  8.50000000E-01
  8.50000000E-01  8.50000000E-01  8.50000000E-01  8.50000000E-01  8.50000000E-01
  8.50000000E-01  8.50000000E-01  8.50000000E-01  8.50000000E-01  8.50000000E-01
  8.50000000E-01  8.50000000E-01  8.50000000E-01  8.50000000E-01  8.50000000E-01
  8.50000000E-01  8.50000000E-01  8.50000000E-01  8.50000000E-01  8.50000000E-01
  8.50000000E-01  8.50000000E-01  8.50000000E-01  8.50000000E-01  8.50000000E-01
  8.50000000E-01  8.50000000E-01  8.50000000E-01  8.50000000E-01  8.50000000E-01
  8.50000000E-01  8.50000000E-01  8.50000000E-01  8.50000000E-01  8.50000000E-01
  8.50000000E-01  8.50000000E-01  8.50000000E-01  8.50000000E-01  8.50000000E-01
  8.50000000E-01  8.50000000E-01  8.50000000E-01  8.50000000E-01  8.50000000E-01
  8.50000000E-01  8.50000000E-01  8.50000000E-01  8.50000000E-01  8.50000000E-01
  8.50000000E-01  8.50000000E-01  8.50000000E-01  8.50000000E-01  8.50000000E-01
  8.50000000E-01  8.50000000E-01  8.50000000E-01  8.50000000E-01  8.50000000E-01
  8.50000000E-01  8.50000000E-01  8.50000000E-01  8.50000000E-01  8.50000000E-01
  8.50000000E-01  8.50000000E-01  8.50000000E-01  8.50000000E-01  8.50000000E-01
  8.50000000E-01  8.50000000E-01  8.50000000E-01  8.50000000E-01  8.50000000E-01
  8.50000000E-01  8.50000000E-01  8.50000000E-01  8.50000000E-01  8.50000000E-01
  8.50000000E-01  8.50000000E-01  8.50000000E-01  8.50000000E-01  8.50000000E-01
  8.50000000E-01  8.50000000E-01  8.50000000E-01  8.50000000E-01  8.50000000E-01
  8.50000000E-01  8.50000000E-01  8.50000000E-01  8.50000000E-01  8.50000000E-01
  8.50000000E-01  8.50000000E-01  8.50000000E-01  8.50000000E-01  8.50000000E-01
  8.50000000E-01  8.50000000E-01  8.50000000E-01  8.50000000E-01  8.50000000E-01
  8.50000000E-01  8.50000000E-01  8.50000000E-01  8.50000000E-01  8.50000000E-01
  8.50000000E-01  8.50000000E-01  8.50000000E-01  8.50000000E-01  8.50000000E-01
  8.50000000E-01  8.50000000E-01  8.50000000E-01  8.50000000E-01  8.50000000E-01
  8.50000000E-01  8.50000000E-01  8.50000000E-01  8.50000000E-01  8.50000000E-01
  8.50000000E-01  8.50000000E-01  8.50000000E-01  8.50000000E-01  8.50000000E-01
  8.50000000E-01  8.50000000E-01  8.50000000E-01  8.50000000E-01  8.50000000E-01
  8.50000000E-01  8.50000000E-01  8.50000000E-01  8.50000000E-01  8.50000000E-01
  8.50000000E-01  8.50000000E-01  8.50000000E-01  8.50000000E-01  8.50000000E-01
  8.50000000E-01  8.50000000E-01  8.50000000E-01  8.50000000E-01  8.50000000E-01
  8.50000000E-01  8.50000000E-01  8.50000000E-01  8.50000000E-01  8.50000000E-01
  8.50000000E-01  8.50000000E-01  8.50000000E-01  8.50000000E-01  8.50000000E-01
  8.50000000E-01  8.50000000E-01  8.50000000E-01  8.50000000E-01  8.50000000E-01
  8.50000000E-01  8.50000000E-01  8.50000000E-01  8.50000000E-01  8.50000000E-01
  8.50000000E-01  8.50000000E-01  8.50000000E-01  8.50000000E-01  8.50000000E-01
  8.50000000E-01  8.50000000E-01  8.50000000E-01  8.50000000E-01  8.50000000E-01
  8.50000000E-01  8.50000000E-01  8.50000000E-01  8.50000000E-01  8.50000000E-01
  8.50000000E-01  8.50000000E-01  8.50000000E-01  8.50000000E-01  8.50000000E-01
  8.50000000E-01  8.50000000E-01  8.50000000E-01  8.50000000E-01  8.50000000E-01
  8.50000000E-01  8.50000000E-01  8.50000000E-01  8.50000000E-01  8.50000000E-01
  8.50000000E-01  8.50000000E-01  8.50000000E-01  8.50000000E-01  8.50000000E-01
  8.50000000E-01  8.50000000E-01  8.50000000E-01  8.50000000E-01  8.50000000E-01
  8.50000000E-01  8.50000000E-01  8.50000000E-01  8.50000000E-01  8.50000000E-01
  8.50000000E-01  8.50000000E-01  8.50000000E-01  8.50000000E-01  8.50000000E-01
  8.50000000E-01  8.50000000E-01  8.50000000E-01  8.50000000E-01  8.50000000E-01
  8.50000000E-01  8.50000000E-01  8.50000000E-01  8.50000000E-01  8.50000000E-01
  8.50000000E-01  8.50000000E-01  8.50000000E-01  8.50000000E-01  8.50000000E-01
  8.50000000E-01  8.50000000E-01  8.50000000E-01  8.50000000E-01  8.50000000E-01
  8.50000000E-01  8.50000000E-01  8.50000000E-01  8.50000000E-01  8.50000000E-01
  8.50000000E-01  8.50000000E-01  8.50000000E-01  8.50000000E-01  8.50000000E-01
  8.50000000E-01  8.50000000E-01  8.50000000E-01  8.50000000E-01  8.50000000E-01
  8.50000000E-01  8.50000000E-01  8.50000000E-01  8.50000000E-01  8.50000000E-01
  8.50000000E-01  8.50000000E-01  8.50000000E-01  8.50000000E-01  8.50000000E-01
  8.50000000E-01  8.50000000E-01  8.50000000E-01  8.50000000E-01  8.50000000E-01
  8.50000000E-01  8.50000000E-01  8.50000000E-01  8.50000000E-01  8.50000000E-01
  8.50000000E-01  8.50000000E-01  8.50000000E-01  8.50000000E-01  8.50000000E-01
  8.50000000E-01  8.50000000E-01  8.50000000E-01  8.50000000E-01  8.50000000E-01
  8.50000000E-01  8.50000000E-01  8.50000000E-01  8.50000000E-01  8.50000000E-01
  8.50000000E-01  8.50000000E-01  8.50000000E-01  8.50000000E-01  8.50000000E-01
  8.50000000E-01  8.50000000E-01  8.50000000E-01  8.50000000E-01  8.50000000E-01
  8.50000000E-01  8.50000000E-01  8.50000000E-01  8.50000000E-01  8.50000000E-01
  8.50000000E-01  8.50000000E-01  8.50000000E-01  8.50000000E-01  8.50000000E-01
  8.50000000E-01  8.50000000E-01  8.50000000E-01  8.50000000E-01  8.50000000E-01
  8.50000000E-01  8.50000000E-01  8.50000000E-01  8.50000000E-01  8.50000000E-01
  8.50000000E-01  8.50000000E-01  8.50000000E-01  8.50000000E-01  8.50000000E-01
  8.50000000E-01  8.50000000E-01  8.50000000E-01  8.50000000E-01  8.50000000E-01
  8.50000000E-01  8.50000000E-01  8.50000000E-01  8.50000000E-01  8.50000000E-01
  8.50000000E-01  8.50000000E-01  8.50000000E-01  8.50000000E-01  8.50000000E-01
  8.50000000E-01  8.50000000E-01  8.50000000E-01  8.50000000E-01  8.50000000E-01
  8.50000000E-01  8.50000000E-01  8.50000000E-01  8.50000000E-01  8.50000000E-01
  8.50000000E-01  8.50000000E-01  8.50000000E-01  8.50000000E-01  8.50000000E-01
  8.50000000E-01  8.50000000E-01  8.50000000E-01  8.50000000E-01  8.50000000E-01
  8.50000000E-01  8.50000000E-01  8.50000000E-01  8.50000000E-01  8.50000000E-01
  8.50000000E-01  8.50000000E-01  8.50000000E-01  8.50000000E-01  8.50000000E-01
  8.50000000E-01  8.50000000E-01  8.50000000E-01  8.50000000E-01  8.50000000E-01
  8.50000000E-01  8.50000000E-01  8.50000000E-01  8.50000000E-01  8.50000000E-01
  8.50000000E-01  8.50000000E-01  8.50000000E-01  8.50000000E-01  8.50000000E-01
  8.50000000E-01  8.50000000E-01  8.50000000E-01  8.50000000E-01  8.50000000E-01
  8.50000000E-01  8.50000000E-01  8.50000000E-01  8.50000000E-01  8.50000000E-01
  8.50000000E-01  8.50000000E-01  8.50000000E-01  8.50000000E-01  8.50000000E-01
  8.50000000E-01  8.50000000E-01  8.50000000E-01  8.50000000E-01  8.50000000E-01
  8.50000000E-01  8.50000000E-01  8.50000000E-01  8.50000000E-01  8.50000000E-01
  8.50000000E-01  8.50000000E-01  8.50000000E-01  8.50000000E-01  8.50000000E-01
  8.50000000E-01  8.50000000E-01  8.50000000E-01  8.50000000E-01  8.50000000E-01
  8.50000000E-01  8.50000000E-01  8.50000000E-01  8.50000000E-01  8.50000000E-01
  8.50000000E-01  8.50000000E-01  8.50000000E-01  8.50000000E-01  8.50000000E-01
  8.50000000E-01  8.50000000E-01  8.50000000E-01  8.50000000E-01  8.50000000E-01
  8.50000000E-01  8.50000000E-01  8.50000000E-01  8.50000000E-01  8.50000000E-01
  8.50000000E-01  8.50000000E-01  8.50000000E-01  8.50000000E-01  8.50000000E-01
  8.50000000E-01  8.50000000E-01  8.50000000E-01  8.50000000E-01  8.50000000E-01
  8.50000000E-01  8.50000000E-01  8.50000000E-01  8.50000000E-01  8.50000000E-01
  8.50000000E-01  8.50000000E-01  8.50000000E-01  8.50000000E-01  8.50000000E-01
  8.50000000E-01  8.50000000E-01  8.50000000E-01  8.50000000E-01  8.50000000E-01
  8.50000000E-01  8.50000000E-01  8.50000000E-01  8.50000000E-01  8.50000000E-01
  8.50000000E-01  8.50000000E-01  8.50000000E-01  8.50000000E-01  8.50000000E-01
  8.50000000E-01  8.50000000E-01  8.50000000E-01  8.50000000E-01  8.50000000E-01
  8.50000000E-01  8.50000000E-01  8.50000000E-01  8.50000000E-01  8.50000000E-01
  8.50000000E-01  8.50000000E-01  8.50000000E-01  8.50000000E-01  8.50000000E-01
  8.50000000E-01  8.50000000E-01  8.50000000E-01  8.50000000E-01  8.50000000E-01
  8.50000000E-01  8.50000000E-01  8.50000000E-01  8.50000000E-01  8.50000000E-01
  8.50000000E-01  8.50000000E-01  8.50000000E-01  8.50000000E-01  8.50000000E-01
  8.50000000E-01  8.50000000E-01  8.50000000E-01  8.50000000E-01  8.50000000E-01
  8.50000000E-01  8.50000000E-01  8.50000000E-01  8.50000000E-01  8.50000000E-01
  8.50000000E-01  8.50000000E-01  8.50000000E-01  8.50000000E-01  8.50000000E-01
  8.50000000E-01  8.50000000E-01  8.50000000E-01  8.50000000E-01  8.50000000E-01
  8.50000000E-01  8.50000000E-01  8.50000000E-01  8.50000000E-01  8.50000000E-01
  8.50000000E-01  8.50000000E-01  8.50000000E-01  8.50000000E-01  8.50000000E-01
  8.50000000E-01  8.50000000E-01  8.50000000E-01  8.50000000E-01  8.50000000E-01
  8.50000000E-01  8.50000000E-01  8.50000000E-01  8.50000000E-01  8.50000000E-01
  8.50000000E-01  8.50000000E-01  8.50000000E-01  8.50000000E-01  8.50000000E-01
  8.50000000E-01  8.50000000E-01  8.50000000E-01  8.50000000E-01  8.50000000E-01
  8.50000000E-01  8.50000000E-01  8.50000000E-01  8.50000000E-01  8.50000000E-01
  8.50000000E-01  8.50000000E-01  8.50000000E-01  8.50000000E-01  8.50000000E-01
  8.50000000E-01  8.50000000E-01  8.50000000E-01  8.50000000E-01  8.50000000E-01
  8.50000000E-01  8.50000000E-01  8.50000000E-01  8.50000000E-01  8.50000000E-01
  8.50000000E-01  8.50000000E-01  8.50000000E-01  8.50000000E-01  8.50000000E-01
  8.50000000E-01  8.50000000E-01  8.50000000E-01  8.50000000E-01  8.50000000E-01
  8.50000000E-01  8.50000000E-01  8.50000000E-01  8.50000000E-01  8.50000000E-01
  8.50000000E-01  8.50000000E-01  8.50000000E-01  8.50000000E-01  8.50000000E-01
  8.50000000E-01  8.50000000E-01  8.50000000E-01  8.50000000E-01  8.50000000E-01
  8.50000000E-01  8.50000000E-01  8.50000000E-01  8.50000000E-01  8.50000000E-01
  8.50000000E-01  8.50000000E-01  8.50000000E-01  8.50000000E-01  8.50000000E-01
  8.50000000E-01  8.50000000E-01  8.50000000E-01  8.50000000E-01  8.50000000E-01
  8.50000000E-01  8.50000000E-01  8.50000000E-01  8.50000000E-01  8.50000000E-01
  8.50000000E-01  8.50000000E-01  8.50000000E-01  8.50000000E-01  8.50000000E-01
  8.50000000E-01  8.50000000E-01  8.50000000E-01  8.50000000E-01  8.50000000E-01
  8.50000000E-01  8.50000000E-01  8.50000000E-01  8.50000000E-01  8.50000000E-01
  8.50000000E-01  8.50000000E-01  8.50000000E-01  8.50000000E-01  8.50000000E-01
  8.50000000E-01  8.50000000E-01  8.50000000E-01  8.50000000E-01  8.50000000E-01
  8.50000000E-01  8.50000000E-01  8.50000000E-01  8.50000000E-01  8.50000000E-01
  8.50000000E-01  8.50000000E-01  8.50000000E-01  8.50000000E-01  8.50000000E-01
  8.50000000E-01  8.50000000E-01  8.50000000E-01  8.50000000E-01  8.50000000E-01
  8.50000000E-01  8.50000000E-01  8.50000000E-01  8.50000000E-01  8.50000000E-01
  8.50000000E-01  8.50000000E-01  8.50000000E-01  8.50000000E-01  8.50000000E-01
  8.50000000E-01  8.50000000E-01  8.50000000E-01  8.50000000E-01  8.50000000E-01
  8.50000000E-01  8.50000000E-01  8.50000000E-01  8.50000000E-01  8.50000000E-01
  8.50000000E-01  8.50000000E-01  8.50000000E-01  8.50000000E-01  8.50000000E-01
  8.50000000E-01  8.50000000E-01  8.50000000E-01  8.50000000E-01  8.50000000E-01
  8.50000000E-01  8.50000000E-01  8.50000000E-01  8.50000000E-01  8.50000000E-01
  8.50000000E-01  8.50000000E-01  8.50000000E-01  8.50000000E-01  8.50000000E-01
  8.50000000E-01  8.50000000E-01  8.50000000E-01  8.50000000E-01  8.50000000E-01
  8.50000000E-01  8.50000000E-01  8.50000000E-01  8.50000000E-01  8.50000000E-01
  8.50000000E-01  8.50000000E-01  8.50000000E-01  8.50000000E-01  8.50000000E-01
  8.50000000E-01  8.50000000E-01  8.50000000E-01  8.50000000E-01  8.50000000E-01
  8.50000000E-01  8.50000000E-01  8.50000000E-01  8.50000000E-01  8.50000000E-01
  8.50000000E-01  8.50000000E-01  8.50000000E-01  8.50000000E-01  8.50000000E-01
  8.50000000E-01  8.50000000E-01  8.50000000E-01  8.50000000E-01  8.50000000E-01
  8.50000000E-01  8.50000000E-01  8.50000000E-01  8.50000000E-01  8.50000000E-01
  8.50000000E-01  8.50000000E-01  8.50000000E-01  8.50000000E-01  8.50000000E-01
  8.50000000E-01  8.50000000E-01  8.50000000E-01  8.50000000E-01  8.50000000E-01
  8.50000000E-01  8.50000000E-01  8.50000000E-01  8.50000000E-01  8.50000000E-01
  8.50000000E-01  8.50000000E-01  8.50000000E-01  8.50000000E-01  8.50000000E-01
  8.50000000E-01  8.50000000E-01  8.50000000E-01  8.50000000E-01  8.50000000E-01
  8.50000000E-01  8.50000000E-01  8.50000000E-01  8.50000000E-01  8.50000000E-01
  8.50000000E-01  8.50000000E-01  8.50000000E-01  8.50000000E-01  8.50000000E-01
  8.50000000E-01  8.50000000E-01  8.50000000E-01  8.50000000E-01  8.50000000E-01
  8.50000000E-01  8.50000000E-01  8.50000000E-01  8.50000000E-01  8.50000000E-01
  8.50000000E-01  8.50000000E-01  8.50000000E-01  8.50000000E-01  8.50000000E-01
  8.50000000E-01  8.50000000E-01  8.50000000E-01  8.50000000E-01  8.50000000E-01
  8.50000000E-01  8.50000000E-01  8.50000000E-01  8.50000000E-01  8.50000000E-01
  8.50000000E-01  8.50000000E-01  8.50000000E-01  8.50000000E-01  8.50000000E-01
  8.50000000E-01  8.50000000E-01  8.50000000E-01  8.50000000E-01  8.50000000E-01
  8.50000000E-01  8.50000000E-01  8.50000000E-01  8.50000000E-01  8.50000000E-01
  8.50000000E-01  8.50000000E-01  8.50000000E-01  8.50000000E-01  8.50000000E-01
  8.50000000E-01  8.50000000E-01  8.50000000E-01  8.50000000E-01  8.50000000E-01
  8.50000000E-01  8.50000000E-01  8.50000000E-01  8.50000000E-01  8.50000000E-01
  8.50000000E-01  8.50000000E-01  8.50000000E-01  8.50000000E-01  8.50000000E-01
  8.50000000E-01  8.50000000E-01  8.50000000E-01  8.50000000E-01  8.50000000E-01
  8.50000000E-01  8.50000000E-01  8.50000000E-01  8.50000000E-01  8.50000000E-01
  8.50000000E-01  8.50000000E-01  8.50000000E-01  8.50000000E-01  8.50000000E-01
  8.50000000E-01  8.50000000E-01  8.50000000E-01  8.50000000E-01  8.50000000E-01
  8.50000000E-01  8.50000000E-01  8.50000000E-01  8.50000000E-01  8.50000000E-01
  8.50000000E-01  8.50000000E-01  8.50000000E-01  8.50000000E-01  8.50000000E-01
  8.50000000E-01  8.50000000E-01  8.50000000E-01  8.50000000E-01  8.50000000E-01
  8.50000000E-01  8.50000000E-01  8.50000000E-01  8.50000000E-01  8.50000000E-01
  8.50000000E-01  8.50000000E-01  8.50000000E-01  8.50000000E-01  8.50000000E-01
  8.50000000E-01  8.50000000E-01  8.50000000E-01  8.50000000E-01  8.50000000E-01
  8.50000000E-01  8.50000000E-01  8.50000000E-01  8.50000000E-01  8.50000000E-01
  8.50000000E-01  8.50000000E-01  8.50000000E-01  8.50000000E-01  8.50000000E-01
  8.50000000E-01  8.50000000E-01  8.50000000E-01  8.50000000E-01  8.50000000E-01
  8.50000000E-01  8.50000000E-01  8.50000000E-01  8.50000000E-01  8.50000000E-01
  8.50000000E-01  8.50000000E-01  8.50000000E-01  8.50000000E-01  8.50000000E-01
  8.50000000E-01  8.50000000E-01  8.50000000E-01  8.50000000E-01  8.50000000E-01
  8.50000000E-01  8.50000000E-01  8.50000000E-01  8.50000000E-01  8.50000000E-01
  8.50000000E-01  8.50000000E-01  8.50000000E-01  8.50000000E-01  8.50000000E-01
  8.50000000E-01  8.50000000E-01  8.50000000E-01  8.50000000E-01  8.50000000E-01
  8.50000000E-01  8.50000000E-01  8.50000000E-01  8.50000000E-01  8.50000000E-01
  8.50000000E-01  8.50000000E-01  8.50000000E-01  8.50000000E-01  8.50000000E-01
  8.50000000E-01  8.50000000E-01  8.50000000E-01  8.50000000E-01  8.50000000E-01
  8.50000000E-01  8.50000000E-01  8.50000000E-01  8.50000000E-01  8.50000000E-01
  8.50000000E-01  8.50000000E-01  8.50000000E-01  8.50000000E-01  8.50000000E-01
  8.50000000E-01  8.50000000E-01  8.50000000E-01  8.50000000E-01  8.50000000E-01
  8.50000000E-01  8.50000000E-01  8.50000000E-01  8.50000000E-01  8.50000000E-01
  8.50000000E-01  8.50000000E-01  8.50000000E-01  8.50000000E-01  8.50000000E-01
  8.50000000E-01  8.50000000E-01  8.50000000E-01  8.50000000E-01  8.50000000E-01
  8.50000000E-01  8.50000000E-01  8.50000000E-01  8.50000000E-01  8.50000000E-01
  8.50000000E-01  8.50000000E-01  8.50000000E-01  8.50000000E-01  8.50000000E-01
  8.50000000E-01  8.50000000E-01  8.50000000E-01  8.50000000E-01  8.50000000E-01
  8.50000000E-01  8.50000000E-01  8.50000000E-01  8.50000000E-01  8.50000000E-01
  8.50000000E-01  8.50000000E-01  8.50000000E-01  8.50000000E-01  8.50000000E-01
  8.50000000E-01  8.50000000E-01  8.50000000E-01  8.50000000E-01  8.50000000E-01
  8.50000000E-01  8.50000000E-01  8.50000000E-01  8.50000000E-01  8.50000000E-01
  8.50000000E-01  8.50000000E-01  8.50000000E-01  8.50000000E-01  8.50000000E-01
  8.50000000E-01  8.50000000E-01  8.50000000E-01  8.50000000E-01  8.50000000E-01
  8.50000000E-01  8.50000000E-01  8.50000000E-01  8.50000000E-01  8.50000000E-01
  8.50000000E-01  8.50000000E-01  8.50000000E-01  8.50000000E-01  8.50000000E-01
  8.50000000E-01  8.50000000E-01  8.50000000E-01  8.50000000E-01  8.50000000E-01
  8.50000000E-01  8.50000000E-01  8.50000000E-01  8.50000000E-01  8.50000000E-01
  8.50000000E-01  8.50000000E-01  8.50000000E-01  8.50000000E-01  8.50000000E-01
  8.50000000E-01  8.50000000E-01  8.50000000E-01  8.50000000E-01  8.50000000E-01
  8.50000000E-01  8.50000000E-01  8.50000000E-01  8.50000000E-01  8.50000000E-01
  8.50000000E-01  8.50000000E-01  8.50000000E-01  8.50000000E-01  8.50000000E-01
  8.50000000E-01  8.50000000E-01  8.50000000E-01  8.50000000E-01  8.50000000E-01
  8.50000000E-01  8.50000000E-01  8.50000000E-01  8.50000000E-01  8.50000000E-01
  8.50000000E-01  8.50000000E-01  8.50000000E-01  8.50000000E-01  8.50000000E-01
  8.50000000E-01  8.50000000E-01  8.50000000E-01  8.50000000E-01  8.50000000E-01
  8.50000000E-01  8.50000000E-01  8.50000000E-01  8.50000000E-01  8.50000000E-01
  8.50000000E-01  8.50000000E-01  8.50000000E-01  8.50000000E-01  8.50000000E-01
  8.50000000E-01  8.50000000E-01  8.50000000E-01  8.50000000E-01  8.50000000E-01
  8.50000000E-01  8.50000000E-01  8.50000000E-01  8.50000000E-01  8.50000000E-01
  8.50000000E-01  8.50000000E-01  8.50000000E-01  8.50000000E-01  8.50000000E-01
  8.50000000E-01  8.50000000E-01  8.50000000E-01  8.50000000E-01  8.50000000E-01
  8.50000000E-01  8.50000000E-01  8.50000000E-01  8.50000000E-01  8.50000000E-01
  8.50000000E-01  8.50000000E-01  8.50000000E-01  8.50000000E-01  8.50000000E-01
  8.50000000E-01  8.50000000E-01  8.50000000E-01  8.50000000E-01  8.50000000E-01
  8.50000000E-01  8.50000000E-01  8.50000000E-01  8.50000000E-01  8.50000000E-01
  8.50000000E-01  8.50000000E-01  8.50000000E-01  8.50000000E-01  8.50000000E-01
  8.50000000E-01  8.50000000E-01  8.50000000E-01  8.50000000E-01  8.50000000E-01
  8.50000000E-01  8.50000000E-01  8.50000000E-01  8.50000000E-01  8.50000000E-01
  8.50000000E-01  8.50000000E-01  8.50000000E-01  8.50000000E-01  8.50000000E-01
  8.50000000E-01  8.50000000E-01  8.50000000E-01  8.50000000E-01  8.50000000E-01
  8.50000000E-01  8.50000000E-01  8.50000000E-01  8.50000000E-01  8.50000000E-01
  8.50000000E-01  8.50000000E-01  8.50000000E-01  8.50000000E-01  8.50000000E-01
  8.50000000E-01  8.50000000E-01  8.50000000E-01  8.50000000E-01  8.50000000E-01
  8.50000000E-01  8.50000000E-01  8.50000000E-01  8.50000000E-01  8.50000000E-01
  8.50000000E-01  8.50000000E-01  8.50000000E-01  8.50000000E-01  8.50000000E-01
  8.50000000E-01  8.50000000E-01  8.50000000E-01  8.50000000E-01  8.50000000E-01
  8.50000000E-01  8.50000000E-01  8.50000000E-01  8.50000000E-01  8.50000000E-01
  8.50000000E-01  8.50000000E-01  8.50000000E-01  8.50000000E-01  8.50000000E-01
  8.50000000E-01  8.50000000E-01  8.50000000E-01  8.50000000E-01  8.50000000E-01
  8.50000000E-01  8.50000000E-01  8.50000000E-01  8.50000000E-01  8.50000000E-01
  8.50000000E-01  8.50000000E-01  8.50000000E-01  8.50000000E-01  8.50000000E-01
  8.50000000E-01  8.50000000E-01  8.50000000E-01  8.50000000E-01  8.50000000E-01
  8.50000000E-01  8.50000000E-01  8.50000000E-01  8.50000000E-01  8.50000000E-01
  8.50000000E-01  8.50000000E-01  8.50000000E-01  8.50000000E-01  8.50000000E-01
  8.50000000E-01  8.50000000E-01  8.50000000E-01  8.50000000E-01  8.50000000E-01
  8.50000000E-01  8.50000000E-01  8.50000000E-01  8.50000000E-01  8.50000000E-01
  8.50000000E-01  8.50000000E-01  8.50000000E-01  8.50000000E-01  8.50000000E-01
  8.50000000E-01  8.50000000E-01  8.50000000E-01  8.50000000E-01  8.50000000E-01
  8.50000000E-01  8.50000000E-01  8.50000000E-01  8.50000000E-01  8.50000000E-01
  8.50000000E-01  8.50000000E-01  8.50000000E-01  8.50000000E-01  8.50000000E-01
  8.50000000E-01  8.50000000E-01  8.50000000E-01  8.50000000E-01  8.50000000E-01
  8.50000000E-01  8.50000000E-01  8.50000000E-01  8.50000000E-01  8.50000000E-01
  8.50000000E-01  8.50000000E-01  8.50000000E-01  8.50000000E-01  8.50000000E-01
  8.50000000E-01  8.50000000E-01  8.50000000E-01  8.50000000E-01  8.50000000E-01
  8.50000000E-01  8.50000000E-01  8.50000000E-01  8.50000000E-01  8.50000000E-01
  8.50000000E-01  8.50000000E-01  8.50000000E-01  8.50000000E-01  8.50000000E-01
  8.50000000E-01  8.50000000E-01  8.50000000E-01  8.50000000E-01  8.50000000E-01
  8.50000000E-01  8.50000000E-01  8.50000000E-01  8.50000000E-01  8.50000000E-01
  8.50000000E-01  8.50000000E-01  8.50000000E-01  8.50000000E-01  8.50000000E-01
  8.50000000E-01  8.50000000E-01  8.50000000E-01  8.50000000E-01  8.50000000E-01
  8.50000000E-01  8.50000000E-01  8.50000000E-01  8.50000000E-01  8.50000000E-01
  8.50000000E-01  8.50000000E-01  8.50000000E-01  8.50000000E-01  8.50000000E-01
  8.50000000E-01  8.50000000E-01  8.50000000E-01  8.50000000E-01  8.50000000E-01
  8.50000000E-01  8.50000000E-01  8.50000000E-01  8.50000000E-01  8.50000000E-01
  8.50000000E-01  8.50000000E-01  8.50000000E-01  8.50000000E-01  8.50000000E-01
  8.50000000E-01  8.50000000E-01  8.50000000E-01  8.50000000E-01  8.50000000E-01
  8.50000000E-01  8.50000000E-01  8.50000000E-01  8.50000000E-01  8.50000000E-01
  8.50000000E-01  8.50000000E-01  8.50000000E-01  8.50000000E-01  8.50000000E-01
  8.50000000E-01  8.50000000E-01  8.50000000E-01  8.50000000E-01  8.50000000E-01
  8.50000000E-01  8.50000000E-01  8.50000000E-01  8.50000000E-01  8.50000000E-01
  8.50000000E-01  8.50000000E-01  8.50000000E-01  8.50000000E-01  8.50000000E-01
  8.50000000E-01  8.50000000E-01  8.50000000E-01  8.50000000E-01  8.50000000E-01
  8.50000000E-01  8.50000000E-01  8.50000000E-01  8.50000000E-01  8.50000000E-01
  8.50000000E-01  8.50000000E-01  8.50000000E-01  8.50000000E-01  8.50000000E-01
  8.50000000E-01  8.50000000E-01  8.50000000E-01  8.50000000E-01  8.50000000E-01
  8.50000000E-01  8.50000000E-01  8.50000000E-01  8.50000000E-01  8.50000000E-01
  8.50000000E-01  8.50000000E-01  8.50000000E-01  8.50000000E-01  8.50000000E-01
  8.50000000E-01  8.50000000E-01  8.50000000E-01  8.50000000E-01  8.50000000E-01
  8.50000000E-01  8.50000000E-01  8.50000000E-01  8.50000000E-01  8.50000000E-01
  8.50000000E-01  8.50000000E-01  8.50000000E-01  8.50000000E-01  8.50000000E-01
  8.50000000E-01  8.50000000E-01  8.50000000E-01  8.50000000E-01  8.50000000E-01
  8.50000000E-01  8.50000000E-01  8.50000000E-01  8.50000000E-01  8.50000000E-01
  8.50000000E-01  8.50000000E-01  8.50000000E-01  8.50000000E-01  8.50000000E-01
  8.50000000E-01  8.50000000E-01  8.50000000E-01  8.50000000E-01  8.50000000E-01
  8.50000000E-01  8.50000000E-01  8.50000000E-01  8.50000000E-01  8.50000000E-01
  8.50000000E-01  8.50000000E-01  8.50000000E-01  8.50000000E-01  8.50000000E-01
  8.50000000E-01  8.50000000E-01  8.50000000E-01  8.50000000E-01  8.50000000E-01
  8.50000000E-01  8.50000000E-01  8.50000000E-01  8.50000000E-01  8.50000000E-01
  8.50000000E-01  8.50000000E-01  8.50000000E-01  8.50000000E-01  8.50000000E-01
  8.50000000E-01  8.50000000E-01  8.50000000E-01  8.50000000E-01  8.50000000E-01
  8.50000000E-01  8.50000000E-01  8.50000000E-01  8.50000000E-01  8.50000000E-01
  8.50000000E-01  8.50000000E-01  8.50000000E-01  8.50000000E-01  8.50000000E-01
  8.50000000E-01  8.50000000E-01  8.50000000E-01  8.50000000E-01  8.50000000E-01
  8.50000000E-01  8.50000000E-01  8.50000000E-01  8.50000000E-01  8.50000000E-01
  8.50000000E-01  8.50000000E-01  8.50000000E-01  8.50000000E-01  8.50000000E-01
  8.50000000E-01  8.50000000E-01  8.50000000E-01  8.50000000E-01  8.50000000E-01
  8.50000000E-01  8.50000000E-01  8.50000000E-01  8.50000000E-01  8.50000000E-01
  8.50000000E-01  8.50000000E-01  8.50000000E-01  8.50000000E-01  8.50000000E-01
  8.50000000E-01  8.50000000E-01  8.50000000E-01  8.50000000E-01  8.50000000E-01
  8.50000000E-01  8.50000000E-01  8.50000000E-01  8.50000000E-01  8.50000000E-01
  8.50000000E-01  8.50000000E-01  8.50000000E-01  8.50000000E-01  8.50000000E-01
  8.50000000E-01  8.50000000E-01  8.50000000E-01  8.50000000E-01  8.50000000E-01
  8.50000000E-01  8.50000000E-01  8.50000000E-01  8.50000000E-01  8.50000000E-01
  8.50000000E-01  8.50000000E-01  8.50000000E-01  8.50000000E-01  8.50000000E-01
  8.50000000E-01  8.50000000E-01  8.50000000E-01  8.50000000E-01  8.50000000E-01
  8.50000000E-01  8.50000000E-01  8.50000000E-01  8.50000000E-01  8.50000000E-01
  8.50000000E-01  8.50000000E-01  8.50000000E-01  8.50000000E-01  8.50000000E-01
  8.50000000E-01  8.50000000E-01  8.50000000E-01  8.50000000E-01  8.50000000E-01
  8.50000000E-01  8.50000000E-01  8.50000000E-01  8.50000000E-01  8.50000000E-01
  8.50000000E-01  8.50000000E-01  8.50000000E-01  8.50000000E-01  8.50000000E-01
  8.50000000E-01  8.50000000E-01  8.50000000E-01  8.50000000E-01  8.50000000E-01
  8.50000000E-01  8.50000000E-01  8.50000000E-01  8.50000000E-01  8.50000000E-01
  8.50000000E-01  8.50000000E-01  8.50000000E-01  8.50000000E-01  8.50000000E-01
  8.50000000E-01  8.50000000E-01  8.50000000E-01  8.50000000E-01  8.50000000E-01
  8.50000000E-01  8.50000000E-01  8.50000000E-01  8.50000000E-01  8.50000000E-01
  8.50000000E-01  8.50000000E-01  8.50000000E-01  8.50000000E-01  8.50000000E-01
  8.50000000E-01  8.50000000E-01  8.50000000E-01  8.50000000E-01  8.50000000E-01
  8.50000000E-01  8.50000000E-01  8.50000000E-01  8.50000000E-01  8.50000000E-01
  8.50000000E-01  8.50000000E-01  8.50000000E-01  8.50000000E-01  8.50000000E-01
  8.50000000E-01  8.50000000E-01  8.50000000E-01  8.50000000E-01  8.50000000E-01
  8.50000000E-01  8.50000000E-01  8.50000000E-01  8.50000000E-01  8.50000000E-01
  8.50000000E-01  8.50000000E-01  8.50000000E-01  8.50000000E-01  8.50000000E-01
  8.50000000E-01  8.50000000E-01  8.50000000E-01  8.50000000E-01  8.50000000E-01
  8.50000000E-01  8.50000000E-01  8.50000000E-01  8.50000000E-01  8.50000000E-01
  8.50000000E-01  8.50000000E-01  8.50000000E-01  8.50000000E-01  8.50000000E-01
  8.50000000E-01  8.50000000E-01  8.50000000E-01  8.50000000E-01  8.50000000E-01
  8.50000000E-01  8.50000000E-01  8.50000000E-01  8.50000000E-01  8.50000000E-01
  8.50000000E-01  8.50000000E-01  8.50000000E-01  8.50000000E-01  8.50000000E-01
  8.50000000E-01  8.50000000E-01  8.50000000E-01  8.50000000E-01  8.50000000E-01
  8.50000000E-01  8.50000000E-01  8.50000000E-01  8.50000000E-01  8.50000000E-01
  8.50000000E-01  8.50000000E-01  8.50000000E-01  8.50000000E-01  8.50000000E-01
  8.50000000E-01  8.50000000E-01  8.50000000E-01  8.50000000E-01  8.50000000E-01
  8.50000000E-01  8.50000000E-01  8.50000000E-01  8.50000000E-01  8.50000000E-01
  8.50000000E-01  8.50000000E-01  8.50000000E-01  8.50000000E-01  8.50000000E-01
  8.50000000E-01  8.50000000E-01  8.50000000E-01  8.50000000E-01  8.50000000E-01
  8.50000000E-01  8.50000000E-01  8.50000000E-01  8.50000000E-01  8.50000000E-01
  8.50000000E-01  8.50000000E-01  8.50000000E-01  8.50000000E-01  8.50000000E-01
  8.50000000E-01  8.50000000E-01  8.50000000E-01  8.50000000E-01  8.50000000E-01
  8.50000000E-01  8.50000000E-01  8.50000000E-01  8.50000000E-01  8.50000000E-01
  8.50000000E-01  8.50000000E-01  8.50000000E-01  8.50000000E-01  8.50000000E-01
  8.50000000E-01  8.50000000E-01  8.50000000E-01  8.50000000E-01  8.50000000E-01
  8.50000000E-01  8.50000000E-01  8.50000000E-01  8.50000000E-01  8.50000000E-01
  8.50000000E-01  8.50000000E-01  8.50000000E-01  8.50000000E-01  8.50000000E-01
  8.50000000E-01  8.50000000E-01  8.50000000E-01  8.50000000E-01  8.50000000E-01
  8.50000000E-01  8.50000000E-01  8.50000000E-01  8.50000000E-01  8.50000000E-01
  8.50000000E-01  8.50000000E-01  8.50000000E-01  8.50000000E-01  8.50000000E-01
  8.50000000E-01  8.50000000E-01  8.50000000E-01  8.50000000E-01  8.50000000E-01
  8.50000000E-01  8.50000000E-01  8.50000000E-01  8.50000000E-01  8.50000000E-01
  8.50000000E-01  8.50000000E-01  8.50000000E-01  8.50000000E-01  8.50000000E-01
  8.50000000E-01  8.50000000E-01  8.50000000E-01  8.50000000E-01  8.50000000E-01
  8.50000000E-01  8.50000000E-01  8.50000000E-01  8.50000000E-01  8.50000000E-01
  8.50000000E-01  8.50000000E-01  8.50000000E-01  8.50000000E-01  8.50000000E-01
  8.50000000E-01  8.50000000E-01  8.50000000E-01  8.50000000E-01  8.50000000E-01
  8.50000000E-01  8.50000000E-01  8.50000000E-01  8.50000000E-01  8.50000000E-01
  8.50000000E-01  8.50000000E-01  8.50000000E-01  8.50000000E-01  8.50000000E-01
  8.50000000E-01  8.50000000E-01  8.50000000E-01  8.50000000E-01  8.50000000E-01
  8.50000000E-01  8.50000000E-01  8.50000000E-01  8.50000000E-01  8.50000000E-01
  8.50000000E-01  8.50000000E-01  8.50000000E-01  8.50000000E-01  8.50000000E-01
  8.50000000E-01  8.50000000E-01  8.50000000E-01  8.50000000E-01  8.50000000E-01
  8.50000000E-01  8.50000000E-01  8.50000000E-01  8.50000000E-01  8.50000000E-01
  8.50000000E-01  8.50000000E-01  8.50000000E-01  8.50000000E-01  8.50000000E-01
  8.50000000E-01  8.50000000E-01  8.50000000E-01  8.50000000E-01  8.50000000E-01
  8.50000000E-01  8.50000000E-01  8.50000000E-01  8.50000000E-01  8.50000000E-01
  8.50000000E-01  8.50000000E-01  8.50000000E-01  8.50000000E-01  8.50000000E-01
  8.50000000E-01  8.50000000E-01  8.50000000E-01  8.50000000E-01  8.50000000E-01
  8.50000000E-01  8.50000000E-01  8.50000000E-01  8.50000000E-01  8.50000000E-01
  8.50000000E-01  8.50000000E-01  8.50000000E-01  8.50000000E-01  8.50000000E-01
  8.50000000E-01  8.50000000E-01  8.50000000E-01  8.50000000E-01  8.50000000E-01
  8.50000000E-01  8.50000000E-01  8.50000000E-01  8.50000000E-01  8.50000000E-01
  8.50000000E-01  8.50000000E-01  8.50000000E-01  8.50000000E-01  8.50000000E-01
  8.50000000E-01  8.50000000E-01  8.50000000E-01  8.50000000E-01  8.50000000E-01
  8.50000000E-01  8.50000000E-01  8.50000000E-01  8.50000000E-01  8.50000000E-01
  8.50000000E-01  8.50000000E-01  8.50000000E-01  8.50000000E-01  8.50000000E-01
  8.50000000E-01  8.50000000E-01  8.50000000E-01  8.50000000E-01  8.50000000E-01
  8.50000000E-01  8.50000000E-01  8.50000000E-01  8.50000000E-01  8.50000000E-01
  8.50000000E-01  8.50000000E-01  8.50000000E-01  8.50000000E-01  8.50000000E-01
  8.50000000E-01  8.50000000E-01  8.50000000E-01  8.50000000E-01  8.50000000E-01
  8.50000000E-01  8.50000000E-01  8.50000000E-01  8.50000000E-01  8.50000000E-01
  8.50000000E-01  8.50000000E-01  8.50000000E-01  8.50000000E-01  8.50000000E-01
  8.50000000E-01  8.50000000E-01  8.50000000E-01  8.50000000E-01  8.50000000E-01
  8.50000000E-01  8.50000000E-01  8.50000000E-01  8.50000000E-01  8.50000000E-01
  8.50000000E-01  8.50000000E-01  8.50000000E-01  8.50000000E-01  8.50000000E-01
  8.50000000E-01  8.50000000E-01  8.50000000E-01  8.50000000E-01  8.50000000E-01
  8.50000000E-01  8.50000000E-01  8.50000000E-01  8.50000000E-01  8.50000000E-01
  8.50000000E-01  8.50000000E-01  8.50000000E-01  8.50000000E-01  8.50000000E-01
  8.50000000E-01  8.50000000E-01  8.50000000E-01  8.50000000E-01  8.50000000E-01
  8.50000000E-01  8.50000000E-01  8.50000000E-01  8.50000000E-01  8.50000000E-01
  8.50000000E-01  8.50000000E-01  8.50000000E-01  8.50000000E-01  8.50000000E-01
  8.50000000E-01  8.50000000E-01  8.50000000E-01  8.50000000E-01  8.50000000E-01
  8.50000000E-01  8.50000000E-01  8.50000000E-01  8.50000000E-01  8.50000000E-01
  8.50000000E-01  8.50000000E-01  8.50000000E-01  8.50000000E-01  8.50000000E-01
  8.50000000E-01  8.50000000E-01  8.50000000E-01  8.50000000E-01  8.50000000E-01
  8.50000000E-01  8.50000000E-01  8.50000000E-01  8.50000000E-01  8.50000000E-01
  8.50000000E-01  8.50000000E-01  8.50000000E-01  8.50000000E-01  8.50000000E-01
  8.50000000E-01  8.50000000E-01  8.50000000E-01  8.50000000E-01  8.50000000E-01
  8.50000000E-01  8.50000000E-01  8.50000000E-01  8.50000000E-01  8.50000000E-01
  8.50000000E-01  8.50000000E-01  8.50000000E-01  8.50000000E-01  8.50000000E-01
  8.50000000E-01  8.50000000E-01  8.50000000E-01  8.50000000E-01  8.50000000E-01
  8.50000000E-01  8.50000000E-01  8.50000000E-01  8.50000000E-01  8.50000000E-01
  8.50000000E-01  8.50000000E-01  8.50000000E-01  8.50000000E-01  8.50000000E-01
  8.50000000E-01  8.50000000E-01  8.50000000E-01  8.50000000E-01  8.50000000E-01
  8.50000000E-01  8.50000000E-01  8.50000000E-01  8.50000000E-01  8.50000000E-01
  8.50000000E-01  8.50000000E-01  8.50000000E-01  8.50000000E-01  8.50000000E-01
  8.50000000E-01  8.50000000E-01  8.50000000E-01  8.50000000E-01  8.50000000E-01
  8.50000000E-01  8.50000000E-01  8.50000000E-01  8.50000000E-01  8.50000000E-01
  8.50000000E-01  8.50000000E-01  8.50000000E-01  8.50000000E-01  8.50000000E-01
  8.50000000E-01  8.50000000E-01  8.50000000E-01  8.50000000E-01  8.50000000E-01
  8.50000000E-01  8.50000000E-01  8.50000000E-01  8.50000000E-01  8.50000000E-01
  8.50000000E-01  8.50000000E-01  8.50000000E-01  8.50000000E-01  8.50000000E-01
  8.50000000E-01  8.50000000E-01  8.50000000E-01  8.50000000E-01  8.50000000E-01
  8.50000000E-01  8.50000000E-01  8.50000000E-01  8.50000000E-01  8.50000000E-01
  8.50000000E-01  8.50000000E-01  8.50000000E-01  8.50000000E-01  8.50000000E-01
  8.50000000E-01  8.50000000E-01  8.50000000E-01  8.50000000E-01  8.50000000E-01
  8.50000000E-01  8.50000000E-01  8.50000000E-01  8.50000000E-01  8.50000000E-01
  8.50000000E-01  8.50000000E-01  8.50000000E-01  8.50000000E-01  8.50000000E-01
  8.50000000E-01  8.50000000E-01  8.50000000E-01  8.50000000E-01  8.50000000E-01
  8.50000000E-01  8.50000000E-01  8.50000000E-01  8.50000000E-01  8.50000000E-01
  8.50000000E-01  8.50000000E-01  8.50000000E-01  8.50000000E-01  8.50000000E-01
  8.50000000E-01  8.50000000E-01  8.50000000E-01  8.50000000E-01  8.50000000E-01
  8.50000000E-01  8.50000000E-01  8.50000000E-01  8.50000000E-01  8.50000000E-01
  8.50000000E-01  8.50000000E-01  8.50000000E-01  8.50000000E-01  8.50000000E-01
  8.50000000E-01  8.50000000E-01  8.50000000E-01  8.50000000E-01  8.50000000E-01
  8.50000000E-01  8.50000000E-01  8.50000000E-01  8.50000000E-01  8.50000000E-01
  8.50000000E-01  8.50000000E-01  8.50000000E-01  8.50000000E-01  8.50000000E-01
  8.50000000E-01  8.50000000E-01  8.50000000E-01  8.50000000E-01  8.50000000E-01
  8.50000000E-01  8.50000000E-01  8.50000000E-01  8.50000000E-01  8.50000000E-01
  8.50000000E-01  8.50000000E-01  8.50000000E-01  8.50000000E-01  8.50000000E-01
  8.50000000E-01  8.50000000E-01  8.50000000E-01  8.50000000E-01  8.50000000E-01
  8.50000000E-01  8.50000000E-01  8.50000000E-01  8.50000000E-01  8.50000000E-01
  8.50000000E-01  8.50000000E-01  8.50000000E-01  8.50000000E-01  8.50000000E-01
  8.50000000E-01  8.50000000E-01  8.50000000E-01  8.50000000E-01  8.50000000E-01
  8.50000000E-01  8.50000000E-01  8.50000000E-01  8.50000000E-01  8.50000000E-01
  8.50000000E-01  8.50000000E-01  8.50000000E-01  8.50000000E-01  8.50000000E-01
  8.50000000E-01  8.50000000E-01  8.50000000E-01  8.50000000E-01  8.50000000E-01
  8.50000000E-01  8.50000000E-01  8.50000000E-01  8.50000000E-01  8.50000000E-01
  8.50000000E-01  8.50000000E-01  8.50000000E-01  8.50000000E-01  8.50000000E-01
  8.50000000E-01  8.50000000E-01  8.50000000E-01  8.50000000E-01  8.50000000E-01
  8.50000000E-01  8.50000000E-01  8.50000000E-01  8.50000000E-01  8.50000000E-01
  8.50000000E-01  8.50000000E-01  8.50000000E-01  8.50000000E-01  8.50000000E-01
  8.50000000E-01  8.50000000E-01  8.50000000E-01  8.50000000E-01  8.50000000E-01
  8.50000000E-01  8.50000000E-01  8.50000000E-01  8.50000000E-01  8.50000000E-01
  8.50000000E-01  8.50000000E-01  8.50000000E-01  8.50000000E-01  8.50000000E-01
  8.50000000E-01  8.50000000E-01  8.50000000E-01  8.50000000E-01  8.50000000E-01
  8.50000000E-01  8.50000000E-01  8.50000000E-01  8.50000000E-01  8.50000000E-01
  8.50000000E-01  8.50000000E-01  8.50000000E-01  8.50000000E-01  8.50000000E-01
  8.50000000E-01  8.50000000E-01  8.50000000E-01  8.50000000E-01  8.50000000E-01
  8.50000000E-01  8.50000000E-01  8.50000000E-01  8.50000000E-01  8.50000000E-01
  8.50000000E-01  8.50000000E-01  8.50000000E-01  8.50000000E-01  8.50000000E-01
  8.50000000E-01  8.50000000E-01  8.50000000E-01  8.50000000E-01  8.50000000E-01
  8.50000000E-01  8.50000000E-01  8.50000000E-01  8.50000000E-01  8.50000000E-01
  8.50000000E-01  8.50000000E-01  8.50000000E-01  8.50000000E-01  8.50000000E-01
  8.50000000E-01  8.50000000E-01  8.50000000E-01  8.50000000E-01  8.50000000E-01
  8.50000000E-01  8.50000000E-01  8.50000000E-01  8.50000000E-01  8.50000000E-01
  8.50000000E-01  8.50000000E-01  8.50000000E-01  8.50000000E-01  8.50000000E-01
  8.50000000E-01  8.50000000E-01  8.50000000E-01  8.50000000E-01  8.50000000E-01
  8.50000000E-01  8.50000000E-01  8.50000000E-01  8.50000000E-01  8.50000000E-01
  8.50000000E-01  8.50000000E-01  8.50000000E-01  8.50000000E-01  8.50000000E-01
  8.50000000E-01  8.50000000E-01  8.50000000E-01  8.50000000E-01  8.50000000E-01
  8.50000000E-01  8.50000000E-01  8.50000000E-01  8.50000000E-01  8.50000000E-01
  8.50000000E-01  8.50000000E-01  8.50000000E-01  8.50000000E-01  8.50000000E-01
  8.50000000E-01  8.50000000E-01  8.50000000E-01  8.50000000E-01  8.50000000E-01
  8.50000000E-01  8.50000000E-01  8.50000000E-01  8.50000000E-01  8.50000000E-01
  8.50000000E-01  8.50000000E-01  8.50000000E-01  8.50000000E-01  8.50000000E-01
  8.50000000E-01  8.50000000E-01  8.50000000E-01  8.50000000E-01  8.50000000E-01
  8.50000000E-01  8.50000000E-01  8.50000000E-01  8.50000000E-01  8.50000000E-01
  8.50000000E-01  8.50000000E-01  8.50000000E-01  8.50000000E-01  8.50000000E-01
  8.50000000E-01  8.50000000E-01  8.50000000E-01  8.50000000E-01  8.50000000E-01
  8.50000000E-01  8.50000000E-01  8.50000000E-01  8.50000000E-01  8.50000000E-01
  8.50000000E-01  8.50000000E-01  8.50000000E-01  8.50000000E-01  8.50000000E-01
  8.50000000E-01  8.50000000E-01  8.50000000E-01  8.50000000E-01  8.50000000E-01
  8.50000000E-01  8.50000000E-01  8.50000000E-01  8.50000000E-01  8.50000000E-01
  8.50000000E-01  8.50000000E-01  8.50000000E-01  8.50000000E-01  8.50000000E-01
  8.50000000E-01  8.50000000E-01  8.50000000E-01  8.50000000E-01  8.50000000E-01
  8.50000000E-01  8.50000000E-01  8.50000000E-01  8.50000000E-01  8.50000000E-01
  8.50000000E-01  8.50000000E-01  8.50000000E-01  8.50000000E-01  8.50000000E-01
  8.50000000E-01  8.50000000E-01  8.50000000E-01  8.50000000E-01  8.50000000E-01
  8.50000000E-01  8.50000000E-01  8.50000000E-01  8.50000000E-01  8.50000000E-01
  8.50000000E-01  8.50000000E-01  8.50000000E-01  8.50000000E-01  8.50000000E-01
  8.50000000E-01  8.50000000E-01  8.50000000E-01  8.50000000E-01  8.50000000E-01
  8.50000000E-01  8.50000000E-01  8.50000000E-01  8.50000000E-01  8.50000000E-01
  8.50000000E-01  8.50000000E-01  8.50000000E-01  8.50000000E-01  8.50000000E-01
  8.50000000E-01  8.50000000E-01  8.50000000E-01  8.50000000E-01  8.50000000E-01
  8.50000000E-01  8.50000000E-01  8.50000000E-01  8.50000000E-01  8.50000000E-01
  8.50000000E-01  8.50000000E-01  8.50000000E-01  8.50000000E-01  8.50000000E-01
  8.50000000E-01  8.50000000E-01  8.50000000E-01  8.50000000E-01  8.50000000E-01
  8.50000000E-01  8.50000000E-01  8.50000000E-01  8.50000000E-01  8.50000000E-01
  8.50000000E-01  8.50000000E-01  8.50000000E-01  8.50000000E-01  8.50000000E-01
  8.50000000E-01  8.50000000E-01  8.50000000E-01  8.50000000E-01  8.50000000E-01
  8.50000000E-01  8.50000000E-01  8.50000000E-01  8.50000000E-01  8.50000000E-01
  8.50000000E-01  8.50000000E-01  8.50000000E-01  8.50000000E-01  8.50000000E-01
  8.50000000E-01  8.50000000E-01  8.50000000E-01  8.50000000E-01  8.50000000E-01
  8.50000000E-01  8.50000000E-01  8.50000000E-01  8.50000000E-01  8.50000000E-01
  8.50000000E-01  8.50000000E-01  8.50000000E-01  8.50000000E-01  8.50000000E-01
  8.50000000E-01  8.50000000E-01  8.50000000E-01  8.50000000E-01  8.50000000E-01
  8.50000000E-01  8.50000000E-01  8.50000000E-01  8.50000000E-01  8.50000000E-01
  8.50000000E-01  8.50000000E-01  8.50000000E-01  8.50000000E-01  8.50000000E-01
  8.50000000E-01  8.50000000E-01  8.50000000E-01  8.50000000E-01  8.50000000E-01
  8.50000000E-01  8.50000000E-01  8.50000000E-01  8.50000000E-01  8.50000000E-01
  8.50000000E-01  8.50000000E-01  8.50000000E-01  8.50000000E-01  8.50000000E-01
  8.50000000E-01  8.50000000E-01  8.50000000E-01  8.50000000E-01  8.50000000E-01
  8.50000000E-01  8.50000000E-01  8.50000000E-01  8.50000000E-01  8.50000000E-01
  8.50000000E-01  8.50000000E-01  8.50000000E-01  8.50000000E-01  8.50000000E-01
  8.50000000E-01  8.50000000E-01  8.50000000E-01  8.50000000E-01  8.50000000E-01
  8.50000000E-01  8.50000000E-01  8.50000000E-01  8.50000000E-01  8.50000000E-01
  8.50000000E-01  8.50000000E-01  8.50000000E-01  8.50000000E-01  8.50000000E-01
  8.50000000E-01  8.50000000E-01  8.50000000E-01  8.50000000E-01  8.50000000E-01
  8.50000000E-01  8.50000000E-01  8.50000000E-01  8.50000000E-01  8.50000000E-01
  8.50000000E-01  8.50000000E-01  8.50000000E-01  8.50000000E-01  8.50000000E-01
  8.50000000E-01  8.50000000E-01  8.50000000E-01  8.50000000E-01  8.50000000E-01
  8.50000000E-01  8.50000000E-01  8.50000000E-01  8.50000000E-01  8.50000000E-01
  8.50000000E-01  8.50000000E-01  8.50000000E-01  8.50000000E-01  8.50000000E-01
  8.50000000E-01  8.50000000E-01  8.50000000E-01  8.50000000E-01  8.50000000E-01
  8.50000000E-01  8.50000000E-01  8.50000000E-01  8.50000000E-01  8.50000000E-01
  8.50000000E-01  8.50000000E-01  8.50000000E-01  8.50000000E-01  8.50000000E-01
  8.50000000E-01  8.50000000E-01  8.50000000E-01  8.50000000E-01  8.50000000E-01
  8.50000000E-01  8.50000000E-01  8.50000000E-01  8.50000000E-01  8.50000000E-01
  8.50000000E-01  8.50000000E-01  8.50000000E-01  8.50000000E-01  8.50000000E-01
  8.50000000E-01  8.50000000E-01  8.50000000E-01  8.50000000E-01  8.50000000E-01
  8.50000000E-01  8.50000000E-01  8.50000000E-01  8.50000000E-01  8.50000000E-01
  8.50000000E-01  8.50000000E-01  8.50000000E-01  8.50000000E-01  8.50000000E-01
  8.50000000E-01  8.50000000E-01  8.50000000E-01  8.50000000E-01  8.50000000E-01
  8.50000000E-01  8.50000000E-01  8.50000000E-01  8.50000000E-01  8.50000000E-01
  8.50000000E-01  8.50000000E-01  8.50000000E-01  8.50000000E-01  8.50000000E-01
  8.50000000E-01  8.50000000E-01  8.50000000E-01  8.50000000E-01  8.50000000E-01
  8.50000000E-01  8.50000000E-01  8.50000000E-01  8.50000000E-01  8.50000000E-01
  8.50000000E-01  8.50000000E-01  8.50000000E-01  8.50000000E-01  8.50000000E-01
  8.50000000E-01  8.50000000E-01  8.50000000E-01  8.50000000E-01  8.50000000E-01
  8.50000000E-01  8.50000000E-01  8.50000000E-01  8.50000000E-01  8.50000000E-01
  8.50000000E-01  8.50000000E-01  8.50000000E-01  8.50000000E-01  8.50000000E-01
  8.50000000E-01  8.50000000E-01  8.50000000E-01  8.50000000E-01  8.50000000E-01
  8.50000000E-01  8.50000000E-01  8.50000000E-01  8.50000000E-01  8.50000000E-01
  8.50000000E-01  8.50000000E-01  8.50000000E-01  8.50000000E-01  8.50000000E-01
  8.50000000E-01  8.50000000E-01  8.50000000E-01  8.50000000E-01  8.50000000E-01
  8.50000000E-01  8.50000000E-01  8.50000000E-01  8.50000000E-01  8.50000000E-01
  8.50000000E-01  8.50000000E-01  8.50000000E-01  8.50000000E-01  8.50000000E-01
  8.50000000E-01  8.50000000E-01  8.50000000E-01  8.50000000E-01  8.50000000E-01
  8.50000000E-01  8.50000000E-01  8.50000000E-01  8.50000000E-01  8.50000000E-01
  8.50000000E-01  8.50000000E-01  8.50000000E-01  8.50000000E-01  8.50000000E-01
  8.50000000E-01  8.50000000E-01  8.50000000E-01  8.50000000E-01  8.50000000E-01
  8.50000000E-01  8.50000000E-01  8.50000000E-01  8.50000000E-01  8.50000000E-01
  8.50000000E-01  8.50000000E-01  8.50000000E-01  8.50000000E-01  8.50000000E-01
  8.50000000E-01  8.50000000E-01  8.50000000E-01  8.50000000E-01  8.50000000E-01
  8.50000000E-01  8.50000000E-01  8.50000000E-01  8.50000000E-01  8.50000000E-01
  8.50000000E-01  8.50000000E-01  8.50000000E-01  8.50000000E-01  8.50000000E-01
  8.50000000E-01  8.50000000E-01  8.50000000E-01  8.50000000E-01  8.50000000E-01
  8.50000000E-01  8.50000000E-01  8.50000000E-01  8.50000000E-01  8.50000000E-01
  8.50000000E-01  8.50000000E-01  8.50000000E-01  8.50000000E-01  8.50000000E-01
  8.50000000E-01  8.50000000E-01  8.50000000E-01  8.50000000E-01  8.50000000E-01
  8.50000000E-01  8.50000000E-01  8.50000000E-01  8.50000000E-01  8.50000000E-01
  8.50000000E-01  8.50000000E-01  8.50000000E-01  8.50000000E-01  8.50000000E-01
  8.50000000E-01  8.50000000E-01  8.50000000E-01  8.50000000E-01  8.50000000E-01
  8.50000000E-01  8.50000000E-01  8.50000000E-01  8.50000000E-01  8.50000000E-01
  8.50000000E-01  8.50000000E-01  8.50000000E-01  8.50000000E-01  8.50000000E-01
  8.50000000E-01  8.50000000E-01  8.50000000E-01  8.50000000E-01  8.50000000E-01
  8.50000000E-01  8.50000000E-01  8.50000000E-01  8.50000000E-01  8.50000000E-01
  8.50000000E-01  8.50000000E-01  8.50000000E-01  8.50000000E-01  8.50000000E-01
  8.50000000E-01  8.50000000E-01  8.50000000E-01  8.50000000E-01  8.50000000E-01
  8.50000000E-01  8.50000000E-01  8.50000000E-01  8.50000000E-01  8.50000000E-01
  8.50000000E-01  8.50000000E-01  8.50000000E-01  8.50000000E-01  8.50000000E-01
  8.50000000E-01  8.50000000E-01  8.50000000E-01  8.50000000E-01  8.50000000E-01
  8.50000000E-01  8.50000000E-01  8.50000000E-01  8.50000000E-01  8.50000000E-01
  8.50000000E-01  8.50000000E-01  8.50000000E-01  8.50000000E-01  8.50000000E-01
  8.50000000E-01  8.50000000E-01  8.50000000E-01  8.50000000E-01  8.50000000E-01
  8.50000000E-01  8.50000000E-01  8.50000000E-01  8.50000000E-01  8.50000000E-01
  8.50000000E-01  8.50000000E-01  8.50000000E-01  8.50000000E-01  8.50000000E-01
  8.50000000E-01  8.50000000E-01  8.50000000E-01  8.50000000E-01  8.50000000E-01
  8.50000000E-01  8.50000000E-01  8.50000000E-01  8.50000000E-01  8.50000000E-01
  8.50000000E-01  8.50000000E-01  8.50000000E-01  8.50000000E-01  8.50000000E-01
  8.50000000E-01  8.50000000E-01  8.50000000E-01  8.50000000E-01  8.50000000E-01
  8.50000000E-01  8.50000000E-01  8.50000000E-01  8.50000000E-01  8.50000000E-01
  8.50000000E-01  8.50000000E-01  8.50000000E-01  8.50000000E-01  8.50000000E-01
  8.50000000E-01  8.50000000E-01  8.50000000E-01  8.50000000E-01  8.50000000E-01
  8.50000000E-01  8.50000000E-01  8.50000000E-01  8.50000000E-01  8.50000000E-01
  8.50000000E-01  8.50000000E-01  8.50000000E-01  8.50000000E-01  8.50000000E-01
  8.50000000E-01  8.50000000E-01  8.50000000E-01  8.50000000E-01  8.50000000E-01
  8.50000000E-01  8.50000000E-01  8.50000000E-01  8.50000000E-01  8.50000000E-01
  8.50000000E-01  8.50000000E-01  8.50000000E-01  8.50000000E-01  8.50000000E-01
  8.50000000E-01  8.50000000E-01  8.50000000E-01  8.50000000E-01  8.50000000E-01
  8.50000000E-01  8.50000000E-01  8.50000000E-01  8.50000000E-01  8.50000000E-01
  8.50000000E-01  8.50000000E-01  8.50000000E-01  8.50000000E-01  8.50000000E-01
  8.50000000E-01  8.50000000E-01  8.50000000E-01  8.50000000E-01  8.50000000E-01
  8.50000000E-01  8.50000000E-01  8.50000000E-01  8.50000000E-01  8.50000000E-01
  8.50000000E-01  8.50000000E-01  8.50000000E-01  8.50000000E-01  8.50000000E-01
  8.50000000E-01  8.50000000E-01  8.50000000E-01  8.50000000E-01  8.50000000E-01
  8.50000000E-01  8.50000000E-01  8.50000000E-01  8.50000000E-01  8.50000000E-01
  8.50000000E-01  8.50000000E-01  8.50000000E-01  8.50000000E-01  8.50000000E-01
  8.50000000E-01  8.50000000E-01  8.50000000E-01  8.50000000E-01  8.50000000E-01
  8.50000000E-01  8.50000000E-01  8.50000000E-01  8.50000000E-01  8.50000000E-01
  8.50000000E-01  8.50000000E-01  8.50000000E-01  8.50000000E-01  8.50000000E-01
  8.50000000E-01  8.50000000E-01  8.50000000E-01  8.50000000E-01  8.50000000E-01
  8.50000000E-01  8.50000000E-01  8.50000000E-01  8.50000000E-01  8.50000000E-01
  8.50000000E-01  8.50000000E-01  8.50000000E-01  8.50000000E-01  8.50000000E-01
  8.50000000E-01  8.50000000E-01  8.50000000E-01  8.50000000E-01  8.50000000E-01
  8.50000000E-01  8.50000000E-01  8.50000000E-01  8.50000000E-01  8.50000000E-01
  8.50000000E-01  8.50000000E-01  8.50000000E-01  8.50000000E-01  8.50000000E-01
  8.50000000E-01  8.50000000E-01  8.50000000E-01  8.50000000E-01  8.50000000E-01
  8.50000000E-01  8.50000000E-01  8.50000000E-01  8.50000000E-01  8.50000000E-01
  8.50000000E-01  8.50000000E-01  8.50000000E-01  8.50000000E-01  8.50000000E-01
  8.50000000E-01  8.50000000E-01  8.50000000E-01  8.50000000E-01  8.50000000E-01
  8.50000000E-01  8.50000000E-01  8.50000000E-01  8.50000000E-01  8.50000000E-01
  8.50000000E-01  8.50000000E-01  8.50000000E-01  8.50000000E-01  8.50000000E-01
  8.50000000E-01  8.50000000E-01  8.50000000E-01  8.50000000E-01  8.50000000E-01
  8.50000000E-01  8.50000000E-01  8.50000000E-01  8.50000000E-01  8.50000000E-01
  8.50000000E-01  8.50000000E-01  8.50000000E-01  8.50000000E-01  8.50000000E-01
  8.50000000E-01  8.50000000E-01  8.50000000E-01  8.50000000E-01  8.50000000E-01
  8.50000000E-01  8.50000000E-01  8.50000000E-01  8.50000000E-01  8.50000000E-01
  8.50000000E-01  8.50000000E-01  8.50000000E-01  8.50000000E-01  8.50000000E-01
  8.50000000E-01  8.50000000E-01  8.50000000E-01  8.50000000E-01  8.50000000E-01
  8.50000000E-01  8.50000000E-01  8.50000000E-01  8.50000000E-01  8.50000000E-01
  8.50000000E-01  8.50000000E-01  8.50000000E-01  8.50000000E-01  8.50000000E-01
  8.50000000E-01  8.50000000E-01  8.50000000E-01  8.50000000E-01  8.50000000E-01
  8.50000000E-01  8.50000000E-01  8.50000000E-01  8.50000000E-01  8.50000000E-01
  8.50000000E-01  8.50000000E-01  8.50000000E-01  8.50000000E-01  8.50000000E-01
  8.50000000E-01  8.50000000E-01  8.50000000E-01  8.50000000E-01  8.50000000E-01
  8.50000000E-01  8.50000000E-01  8.50000000E-01  8.50000000E-01  8.50000000E-01
  8.50000000E-01  8.50000000E-01  8.50000000E-01  8.50000000E-01  8.50000000E-01
  8.50000000E-01  8.50000000E-01  8.50000000E-01  8.50000000E-01  8.50000000E-01
  8.50000000E-01  8.50000000E-01  8.50000000E-01  8.50000000E-01  8.50000000E-01
  8.50000000E-01  8.50000000E-01  8.50000000E-01  8.50000000E-01  8.50000000E-01
  8.50000000E-01  8.50000000E-01  8.50000000E-01  8.50000000E-01  8.50000000E-01
  8.50000000E-01  8.50000000E-01  8.50000000E-01  8.50000000E-01  8.50000000E-01
  8.50000000E-01  8.50000000E-01  8.50000000E-01  8.50000000E-01  8.50000000E-01
  8.50000000E-01  8.50000000E-01  8.50000000E-01  8.50000000E-01  8.50000000E-01
  8.50000000E-01  8.50000000E-01  8.50000000E-01  8.50000000E-01  8.50000000E-01
  8.50000000E-01  8.50000000E-01  8.50000000E-01  8.50000000E-01  8.50000000E-01
  8.50000000E-01  8.50000000E-01  8.50000000E-01  8.50000000E-01  8.50000000E-01
  8.50000000E-01  8.50000000E-01  8.50000000E-01  8.50000000E-01  8.50000000E-01
  8.50000000E-01  8.50000000E-01  8.50000000E-01  8.50000000E-01  8.50000000E-01
  8.50000000E-01  8.50000000E-01  8.50000000E-01  8.50000000E-01  8.50000000E-01
  8.50000000E-01  8.50000000E-01  8.50000000E-01  8.50000000E-01  8.50000000E-01
  8.50000000E-01  8.50000000E-01  8.50000000E-01  8.50000000E-01  8.50000000E-01
  8.50000000E-01  8.50000000E-01  8.50000000E-01  8.50000000E-01  8.50000000E-01
  8.50000000E-01  8.50000000E-01  8.50000000E-01  8.50000000E-01  8.50000000E-01
  8.50000000E-01  8.50000000E-01  8.50000000E-01  8.50000000E-01  8.50000000E-01
  8.50000000E-01  8.50000000E-01  8.50000000E-01  8.50000000E-01  8.50000000E-01
  8.50000000E-01  8.50000000E-01  8.50000000E-01  8.50000000E-01  8.50000000E-01
  8.50000000E-01  8.50000000E-01  8.50000000E-01  8.50000000E-01  8.50000000E-01
  8.50000000E-01  8.50000000E-01  8.50000000E-01  8.50000000E-01  8.50000000E-01
  8.50000000E-01  8.50000000E-01  8.50000000E-01  8.50000000E-01  8.50000000E-01
  8.50000000E-01  8.50000000E-01  8.50000000E-01  8.50000000E-01  8.50000000E-01
  8.50000000E-01  8.50000000E-01  8.50000000E-01  8.50000000E-01  8.50000000E-01
  8.50000000E-01  8.50000000E-01  8.50000000E-01  8.50000000E-01  8.50000000E-01
  8.50000000E-01  8.50000000E-01  8.50000000E-01  8.50000000E-01  8.50000000E-01
  8.50000000E-01  8.50000000E-01  8.50000000E-01  8.50000000E-01  8.50000000E-01
  8.50000000E-01  8.50000000E-01  8.50000000E-01  8.50000000E-01  8.50000000E-01
  8.50000000E-01  8.50000000E-01  8.50000000E-01  8.50000000E-01  8.50000000E-01
  8.50000000E-01  8.50000000E-01  8.50000000E-01  8.50000000E-01  8.50000000E-01
  8.50000000E-01  8.50000000E-01  8.50000000E-01  8.50000000E-01  8.50000000E-01
  8.50000000E-01  8.50000000E-01  8.50000000E-01  8.50000000E-01  8.50000000E-01
  8.50000000E-01  8.50000000E-01  8.50000000E-01  8.50000000E-01  8.50000000E-01
  8.50000000E-01  8.50000000E-01  8.50000000E-01  8.50000000E-01  8.50000000E-01
  8.50000000E-01  8.50000000E-01  8.50000000E-01  8.50000000E-01  8.50000000E-01
  8.50000000E-01  8.50000000E-01  8.50000000E-01  8.50000000E-01  8.50000000E-01
  8.50000000E-01  8.50000000E-01  8.50000000E-01  8.50000000E-01  8.50000000E-01
  8.50000000E-01  8.50000000E-01  8.50000000E-01  8.50000000E-01  8.50000000E-01
  8.50000000E-01  8.50000000E-01  8.50000000E-01  8.50000000E-01  8.50000000E-01
  8.50000000E-01  8.50000000E-01  8.50000000E-01  8.50000000E-01  8.50000000E-01
  8.50000000E-01  8.50000000E-01  8.50000000E-01  8.50000000E-01  8.50000000E-01
  8.50000000E-01  8.50000000E-01  8.50000000E-01  8.50000000E-01  8.50000000E-01
  8.50000000E-01  8.50000000E-01  8.50000000E-01  8.50000000E-01  8.50000000E-01
  8.50000000E-01  8.50000000E-01  8.50000000E-01  8.50000000E-01  8.50000000E-01
  8.50000000E-01  8.50000000E-01  8.50000000E-01  8.50000000E-01  8.50000000E-01
  8.50000000E-01  8.50000000E-01  8.50000000E-01  8.50000000E-01  8.50000000E-01
  8.50000000E-01  8.50000000E-01  8.50000000E-01  8.50000000E-01  8.50000000E-01
  8.50000000E-01  8.50000000E-01  8.50000000E-01  8.50000000E-01  8.50000000E-01
  8.50000000E-01  8.50000000E-01  8.50000000E-01  8.50000000E-01  8.50000000E-01
  8.50000000E-01  8.50000000E-01  8.50000000E-01  8.50000000E-01  8.50000000E-01
  8.50000000E-01  8.50000000E-01  8.50000000E-01  8.50000000E-01  8.50000000E-01
  8.50000000E-01  8.50000000E-01  8.50000000E-01  8.50000000E-01  8.50000000E-01
  8.50000000E-01  8.50000000E-01  8.50000000E-01  8.50000000E-01  8.50000000E-01
  8.50000000E-01  8.50000000E-01  8.50000000E-01  8.50000000E-01  8.50000000E-01
  8.50000000E-01  8.50000000E-01  8.50000000E-01  8.50000000E-01  8.50000000E-01
  8.50000000E-01  8.50000000E-01  8.50000000E-01  8.50000000E-01  8.50000000E-01
  8.50000000E-01  8.50000000E-01  8.50000000E-01  8.50000000E-01  8.50000000E-01
  8.50000000E-01  8.50000000E-01  8.50000000E-01  8.50000000E-01  8.50000000E-01
  8.50000000E-01  8.50000000E-01  8.50000000E-01  8.50000000E-01  8.50000000E-01
  8.50000000E-01  8.50000000E-01  8.50000000E-01  8.50000000E-01  8.50000000E-01
  8.50000000E-01  8.50000000E-01  8.50000000E-01  8.50000000E-01  8.50000000E-01
  8.50000000E-01  8.50000000E-01  8.50000000E-01  8.50000000E-01  8.50000000E-01
  8.50000000E-01  8.50000000E-01  8.50000000E-01  8.50000000E-01  8.50000000E-01
  8.50000000E-01  8.50000000E-01  8.50000000E-01  8.50000000E-01  8.50000000E-01
  8.50000000E-01  8.50000000E-01  8.50000000E-01  8.50000000E-01  8.50000000E-01
  8.50000000E-01  8.50000000E-01  8.50000000E-01  8.50000000E-01  8.50000000E-01
  8.50000000E-01  8.50000000E-01  8.50000000E-01  8.50000000E-01  8.50000000E-01
  8.50000000E-01  8.50000000E-01  8.50000000E-01  8.50000000E-01  8.50000000E-01
  8.50000000E-01  8.50000000E-01  8.50000000E-01  8.50000000E-01  8.50000000E-01
  8.50000000E-01  8.50000000E-01  8.50000000E-01  8.50000000E-01  8.50000000E-01
  8.50000000E-01  8.50000000E-01  8.50000000E-01  8.50000000E-01  8.50000000E-01
  8.50000000E-01  8.50000000E-01  8.50000000E-01  8.50000000E-01  8.50000000E-01
  8.50000000E-01  8.50000000E-01  8.50000000E-01  8.50000000E-01  8.50000000E-01
  8.50000000E-01  8.50000000E-01  8.50000000E-01  8.50000000E-01  8.50000000E-01
  8.50000000E-01  8.50000000E-01  8.50000000E-01  8.50000000E-01  8.50000000E-01
  8.50000000E-01  8.50000000E-01  8.50000000E-01  8.50000000E-01  8.50000000E-01
  8.50000000E-01  8.50000000E-01  8.50000000E-01  8.50000000E-01  8.50000000E-01
  8.50000000E-01  8.50000000E-01  8.50000000E-01  8.50000000E-01  8.50000000E-01
  8.50000000E-01  8.50000000E-01  8.50000000E-01  8.50000000E-01  8.50000000E-01
  8.50000000E-01  8.50000000E-01  8.50000000E-01  8.50000000E-01  8.50000000E-01
  8.50000000E-01  8.50000000E-01  8.50000000E-01  8.50000000E-01  8.50000000E-01
  8.50000000E-01  8.50000000E-01  8.50000000E-01  8.50000000E-01  8.50000000E-01
  8.50000000E-01  8.50000000E-01  8.50000000E-01  8.50000000E-01  8.50000000E-01
  8.50000000E-01  8.50000000E-01  8.50000000E-01  8.50000000E-01  8.50000000E-01
  8.50000000E-01  8.50000000E-01  8.50000000E-01  8.50000000E-01  8.50000000E-01
  8.50000000E-01  8.50000000E-01  8.50000000E-01  8.50000000E-01  8.50000000E-01
  8.50000000E-01  8.50000000E-01  8.50000000E-01  8.50000000E-01  8.50000000E-01
  8.50000000E-01  8.50000000E-01  8.50000000E-01  8.50000000E-01  8.50000000E-01
  8.50000000E-01  8.50000000E-01  8.50000000E-01  8.50000000E-01  8.50000000E-01
  8.50000000E-01  8.50000000E-01  8.50000000E-01  8.50000000E-01  8.50000000E-01
  8.50000000E-01  8.50000000E-01  8.50000000E-01  8.50000000E-01  8.50000000E-01
  8.50000000E-01  8.50000000E-01  8.50000000E-01  8.50000000E-01  8.50000000E-01
  8.50000000E-01  8.50000000E-01  8.50000000E-01  8.50000000E-01  8.50000000E-01
  8.50000000E-01  8.50000000E-01  8.50000000E-01  8.50000000E-01  8.50000000E-01
  8.50000000E-01  8.50000000E-01  8.50000000E-01  8.50000000E-01  8.50000000E-01
  8.50000000E-01  8.50000000E-01  8.50000000E-01  8.50000000E-01  8.50000000E-01
  8.50000000E-01  8.50000000E-01  8.50000000E-01  8.50000000E-01  8.50000000E-01
  8.50000000E-01  8.50000000E-01  8.50000000E-01  8.50000000E-01  8.50000000E-01
  8.50000000E-01  8.50000000E-01  8.50000000E-01  8.50000000E-01  8.50000000E-01
  8.50000000E-01  8.50000000E-01  8.50000000E-01  8.50000000E-01  8.50000000E-01
  8.50000000E-01  8.50000000E-01  8.50000000E-01  8.50000000E-01  8.50000000E-01
  8.50000000E-01  8.50000000E-01  8.50000000E-01  8.50000000E-01  8.50000000E-01
  8.50000000E-01  8.50000000E-01  8.50000000E-01  8.50000000E-01  8.50000000E-01
  8.50000000E-01  8.50000000E-01  8.50000000E-01  8.50000000E-01  8.50000000E-01
  8.50000000E-01  8.50000000E-01  8.50000000E-01  8.50000000E-01  8.50000000E-01
  8.50000000E-01  8.50000000E-01  8.50000000E-01  8.50000000E-01  8.50000000E-01
  8.50000000E-01  8.50000000E-01  8.50000000E-01  8.50000000E-01  8.50000000E-01
  8.50000000E-01  8.50000000E-01  8.50000000E-01  8.50000000E-01  8.50000000E-01
  8.50000000E-01  8.50000000E-01  8.50000000E-01  8.50000000E-01  8.50000000E-01
  8.50000000E-01  8.50000000E-01  8.50000000E-01  8.50000000E-01  8.50000000E-01
  8.50000000E-01  8.50000000E-01  8.50000000E-01  8.50000000E-01  8.50000000E-01
  8.50000000E-01  8.50000000E-01  8.50000000E-01  8.50000000E-01  8.50000000E-01
  8.50000000E-01  8.50000000E-01  8.50000000E-01  8.50000000E-01  8.50000000E-01
  8.50000000E-01  8.50000000E-01  8.50000000E-01  8.50000000E-01  8.50000000E-01
  8.50000000E-01  8.50000000E-01  8.50000000E-01  8.50000000E-01  8.50000000E-01
  8.50000000E-01  8.50000000E-01  8.50000000E-01  8.50000000E-01  8.50000000E-01
  8.50000000E-01  8.50000000E-01  8.50000000E-01  8.50000000E-01  8.50000000E-01
  8.50000000E-01  8.50000000E-01  8.50000000E-01  8.50000000E-01  8.50000000E-01
  8.50000000E-01  8.50000000E-01  8.50000000E-01  8.50000000E-01  8.50000000E-01
  8.50000000E-01  8.50000000E-01  8.50000000E-01  8.50000000E-01  8.50000000E-01
  8.50000000E-01  8.50000000E-01  8.50000000E-01  8.50000000E-01  8.50000000E-01
  8.50000000E-01  8.50000000E-01  8.50000000E-01  8.50000000E-01  8.50000000E-01
  8.50000000E-01  8.50000000E-01  8.50000000E-01  8.50000000E-01  8.50000000E-01
  8.50000000E-01  8.50000000E-01  8.50000000E-01  8.50000000E-01  8.50000000E-01
  8.50000000E-01  8.50000000E-01  8.50000000E-01  8.50000000E-01  8.50000000E-01
  8.50000000E-01  8.50000000E-01  8.50000000E-01  8.50000000E-01  8.50000000E-01
  8.50000000E-01  8.50000000E-01  8.50000000E-01  8.50000000E-01  8.50000000E-01
  8.50000000E-01  8.50000000E-01  8.50000000E-01  8.50000000E-01  8.50000000E-01
  8.50000000E-01  8.50000000E-01  8.50000000E-01  8.50000000E-01  8.50000000E-01
  8.50000000E-01  8.50000000E-01  8.50000000E-01  8.50000000E-01  8.50000000E-01
  8.50000000E-01  8.50000000E-01  8.50000000E-01  8.50000000E-01  8.50000000E-01
  8.50000000E-01  8.50000000E-01  8.50000000E-01  8.50000000E-01  8.50000000E-01
  8.50000000E-01  8.50000000E-01  8.50000000E-01  8.50000000E-01  8.50000000E-01
  8.50000000E-01  8.50000000E-01  8.50000000E-01  8.50000000E-01  8.50000000E-01
  8.50000000E-01  8.50000000E-01  8.50000000E-01  8.50000000E-01  8.50000000E-01
  8.50000000E-01  8.50000000E-01  8.50000000E-01  8.50000000E-01  8.50000000E-01
  8.50000000E-01  8.50000000E-01  8.50000000E-01  8.50000000E-01  8.50000000E-01
  8.50000000E-01  8.50000000E-01  8.50000000E-01  8.50000000E-01  8.50000000E-01
  8.50000000E-01  8.50000000E-01  8.50000000E-01  8.50000000E-01  8.50000000E-01
  8.50000000E-01  8.50000000E-01  8.50000000E-01  8.50000000E-01  8.50000000E-01
  8.50000000E-01  8.50000000E-01  8.50000000E-01  8.50000000E-01  8.50000000E-01
  8.50000000E-01  8.50000000E-01  8.50000000E-01  8.50000000E-01  8.50000000E-01
  8.50000000E-01  8.50000000E-01  8.50000000E-01  8.50000000E-01  8.50000000E-01
  8.50000000E-01  8.50000000E-01  8.50000000E-01  8.50000000E-01  8.50000000E-01
  8.50000000E-01  8.50000000E-01  8.50000000E-01  8.50000000E-01  8.50000000E-01
  8.50000000E-01  8.50000000E-01  8.50000000E-01  8.50000000E-01  8.50000000E-01
  8.50000000E-01  8.50000000E-01  8.50000000E-01  8.50000000E-01  8.50000000E-01
  8.50000000E-01  8.50000000E-01  8.50000000E-01  8.50000000E-01  8.50000000E-01
  8.50000000E-01  8.50000000E-01  8.50000000E-01  8.50000000E-01  8.50000000E-01
  8.50000000E-01  8.50000000E-01  8.50000000E-01  8.50000000E-01  8.50000000E-01
  8.50000000E-01  8.50000000E-01  8.50000000E-01  8.50000000E-01  8.50000000E-01
  8.50000000E-01  8.50000000E-01  8.50000000E-01  8.50000000E-01  8.50000000E-01
  8.50000000E-01  8.50000000E-01  8.50000000E-01  8.50000000E-01  8.50000000E-01
  8.50000000E-01  8.50000000E-01  8.50000000E-01  8.50000000E-01  8.50000000E-01
  8.50000000E-01  8.50000000E-01  8.50000000E-01  8.50000000E-01  8.50000000E-01
  8.50000000E-01  8.50000000E-01  8.50000000E-01  8.50000000E-01  8.50000000E-01
  8.50000000E-01  8.50000000E-01  8.50000000E-01  8.50000000E-01  8.50000000E-01
  8.50000000E-01  8.50000000E-01  8.50000000E-01  8.50000000E-01  8.50000000E-01
  8.50000000E-01  8.50000000E-01  8.50000000E-01  8.50000000E-01  8.50000000E-01
  8.50000000E-01  8.50000000E-01  8.50000000E-01  8.50000000E-01  8.50000000E-01
  8.50000000E-01  8.50000000E-01  8.50000000E-01  8.50000000E-01  8.50000000E-01
  8.50000000E-01  8.50000000E-01  8.50000000E-01  8.50000000E-01  8.50000000E-01
  8.50000000E-01  8.50000000E-01  8.50000000E-01  8.50000000E-01  8.50000000E-01
  8.50000000E-01  8.50000000E-01  8.50000000E-01  8.50000000E-01  8.50000000E-01
  8.50000000E-01  8.50000000E-01  8.50000000E-01  8.50000000E-01  8.50000000E-01
  8.50000000E-01  8.50000000E-01  8.50000000E-01  8.50000000E-01  8.50000000E-01
  8.50000000E-01  8.50000000E-01  8.50000000E-01  8.50000000E-01  8.50000000E-01
  8.50000000E-01  8.50000000E-01  8.50000000E-01  8.50000000E-01  8.50000000E-01
  8.50000000E-01  8.50000000E-01  8.50000000E-01  8.50000000E-01  8.50000000E-01
  8.50000000E-01  8.50000000E-01  8.50000000E-01  8.50000000E-01  8.50000000E-01
  8.50000000E-01  8.50000000E-01  8.50000000E-01  8.50000000E-01  8.50000000E-01
  8.50000000E-01  8.50000000E-01  8.50000000E-01  8.50000000E-01  8.50000000E-01
  8.50000000E-01  8.50000000E-01  8.50000000E-01  8.50000000E-01  8.50000000E-01
  8.50000000E-01  8.50000000E-01  8.50000000E-01  8.50000000E-01  8.50000000E-01
  8.50000000E-01  8.50000000E-01  8.50000000E-01  8.50000000E-01  8.50000000E-01
  8.50000000E-01  8.50000000E-01  8.50000000E-01  8.50000000E-01  8.50000000E-01
  8.50000000E-01  8.50000000E-01  8.50000000E-01  8.50000000E-01  8.50000000E-01
  8.50000000E-01  8.50000000E-01  8.50000000E-01  8.50000000E-01  8.50000000E-01
  8.50000000E-01  8.50000000E-01  8.50000000E-01  8.50000000E-01  8.50000000E-01
  8.50000000E-01  8.50000000E-01  8.50000000E-01  8.50000000E-01  8.50000000E-01
  8.50000000E-01  8.50000000E-01  8.50000000E-01  8.50000000E-01  8.50000000E-01
  8.50000000E-01  8.50000000E-01  8.50000000E-01  8.50000000E-01  8.50000000E-01
  8.50000000E-01  8.50000000E-01  8.50000000E-01  8.50000000E-01  8.50000000E-01
  8.50000000E-01  8.50000000E-01  8.50000000E-01  8.50000000E-01  8.50000000E-01
  8.50000000E-01  8.50000000E-01  8.50000000E-01  8.50000000E-01  8.50000000E-01
  8.50000000E-01  8.50000000E-01  8.50000000E-01  8.50000000E-01  8.50000000E-01
  8.50000000E-01  8.50000000E-01  8.50000000E-01  8.50000000E-01  8.50000000E-01
  8.50000000E-01  8.50000000E-01  8.50000000E-01  8.50000000E-01  8.50000000E-01
  8.50000000E-01  8.50000000E-01  8.50000000E-01  8.50000000E-01  8.50000000E-01
  8.50000000E-01  8.50000000E-01  8.50000000E-01  8.50000000E-01  8.50000000E-01
  8.50000000E-01  8.50000000E-01  8.50000000E-01  8.50000000E-01  8.50000000E-01
  8.50000000E-01  8.50000000E-01  8.50000000E-01  8.50000000E-01  8.50000000E-01
  8.50000000E-01  8.50000000E-01  8.50000000E-01  8.50000000E-01  8.50000000E-01
  8.50000000E-01  8.50000000E-01  8.50000000E-01  8.50000000E-01  8.50000000E-01
  8.50000000E-01  8.50000000E-01  8.50000000E-01  8.50000000E-01  8.50000000E-01
  8.50000000E-01  8.50000000E-01  8.50000000E-01  8.50000000E-01  8.50000000E-01
  8.50000000E-01  8.50000000E-01  8.50000000E-01  8.50000000E-01  8.50000000E-01
  8.50000000E-01  8.50000000E-01  8.50000000E-01  8.50000000E-01  8.50000000E-01
  8.50000000E-01  8.50000000E-01  8.50000000E-01  8.50000000E-01  8.50000000E-01
  8.50000000E-01  8.50000000E-01  8.50000000E-01  8.50000000E-01  8.50000000E-01
  8.50000000E-01  8.50000000E-01  8.50000000E-01  8.50000000E-01  8.50000000E-01
  8.50000000E-01  8.50000000E-01  8.50000000E-01  8.50000000E-01  8.50000000E-01
  8.50000000E-01  8.50000000E-01  8.50000000E-01  8.50000000E-01  8.50000000E-01
  8.50000000E-01  8.50000000E-01  8.50000000E-01  8.50000000E-01  8.50000000E-01
  8.50000000E-01  8.50000000E-01  8.50000000E-01  8.50000000E-01  8.50000000E-01
  8.50000000E-01  8.50000000E-01  8.50000000E-01  8.50000000E-01  8.50000000E-01
  8.50000000E-01  8.50000000E-01  8.50000000E-01  8.50000000E-01  8.50000000E-01
  8.50000000E-01  8.50000000E-01  8.50000000E-01  8.50000000E-01  8.50000000E-01
  8.50000000E-01  8.50000000E-01  8.50000000E-01  8.50000000E-01  8.50000000E-01
  8.50000000E-01  8.50000000E-01  8.50000000E-01  8.50000000E-01  8.50000000E-01
  8.50000000E-01  8.50000000E-01  8.50000000E-01  8.50000000E-01  8.50000000E-01
  8.50000000E-01  8.50000000E-01  8.50000000E-01  8.50000000E-01  8.50000000E-01
  8.50000000E-01  8.50000000E-01  8.50000000E-01  8.50000000E-01  8.50000000E-01
  8.50000000E-01  8.50000000E-01  8.50000000E-01  8.50000000E-01  8.50000000E-01
  8.50000000E-01  8.50000000E-01  8.50000000E-01  8.50000000E-01  8.50000000E-01
  8.50000000E-01  8.50000000E-01  8.50000000E-01  8.50000000E-01  8.50000000E-01
  8.50000000E-01  8.50000000E-01  8.50000000E-01  8.50000000E-01  8.50000000E-01
  8.50000000E-01  8.50000000E-01  8.50000000E-01  8.50000000E-01  8.50000000E-01
  8.50000000E-01  8.50000000E-01  8.50000000E-01  8.50000000E-01  8.50000000E-01
  8.50000000E-01  8.50000000E-01  8.50000000E-01  8.50000000E-01  8.50000000E-01
  8.50000000E-01  8.50000000E-01  8.50000000E-01  8.50000000E-01  8.50000000E-01
  8.50000000E-01  8.50000000E-01  8.50000000E-01  8.50000000E-01  8.50000000E-01
  8.50000000E-01  8.50000000E-01  8.50000000E-01  8.50000000E-01  8.50000000E-01
  8.50000000E-01  8.50000000E-01  8.50000000E-01  8.50000000E-01  8.50000000E-01
  8.50000000E-01  8.50000000E-01  8.50000000E-01  8.50000000E-01  8.50000000E-01
  8.50000000E-01  8.50000000E-01  8.50000000E-01  8.50000000E-01  8.50000000E-01
  8.50000000E-01  8.50000000E-01  8.50000000E-01  8.50000000E-01  8.50000000E-01
  8.50000000E-01  8.50000000E-01  8.50000000E-01  8.50000000E-01  8.50000000E-01
  8.50000000E-01  8.50000000E-01  8.50000000E-01  8.50000000E-01  8.50000000E-01
  8.50000000E-01  8.50000000E-01  8.50000000E-01  8.50000000E-01  8.50000000E-01
  8.50000000E-01  8.50000000E-01  8.50000000E-01  8.50000000E-01  8.50000000E-01
  8.50000000E-01  8.50000000E-01  8.50000000E-01  8.50000000E-01  8.50000000E-01
  8.50000000E-01  8.50000000E-01  8.50000000E-01  8.50000000E-01  8.50000000E-01
  8.50000000E-01  8.50000000E-01  8.50000000E-01  8.50000000E-01  8.50000000E-01
  8.50000000E-01  8.50000000E-01  8.50000000E-01  8.50000000E-01  8.50000000E-01
  8.50000000E-01  8.50000000E-01  8.50000000E-01  8.50000000E-01  8.50000000E-01
  8.50000000E-01  8.50000000E-01  8.50000000E-01  8.50000000E-01  8.50000000E-01
  8.50000000E-01  8.50000000E-01  8.50000000E-01  8.50000000E-01  8.50000000E-01
  8.50000000E-01  8.50000000E-01  8.50000000E-01  8.50000000E-01  8.50000000E-01
  8.50000000E-01  8.50000000E-01  8.50000000E-01  8.50000000E-01  8.50000000E-01
  8.50000000E-01  8.50000000E-01  8.50000000E-01  8.50000000E-01  8.50000000E-01
  8.50000000E-01  8.50000000E-01  8.50000000E-01  8.50000000E-01  8.50000000E-01
  8.50000000E-01  8.50000000E-01  8.50000000E-01  8.50000000E-01  8.50000000E-01
  8.50000000E-01  8.50000000E-01  8.50000000E-01  8.50000000E-01  8.50000000E-01
  8.50000000E-01  8.50000000E-01  8.50000000E-01  8.50000000E-01  8.50000000E-01
  8.50000000E-01  8.50000000E-01  8.50000000E-01  8.50000000E-01  8.50000000E-01
  8.50000000E-01  8.50000000E-01  8.50000000E-01  8.50000000E-01  8.50000000E-01
  8.50000000E-01  8.50000000E-01  8.50000000E-01  8.50000000E-01  8.50000000E-01
  8.50000000E-01  8.50000000E-01  8.50000000E-01  8.50000000E-01  8.50000000E-01
  8.50000000E-01  8.50000000E-01  8.50000000E-01  8.50000000E-01  8.50000000E-01
  8.50000000E-01  8.50000000E-01  8.50000000E-01  8.50000000E-01  8.50000000E-01
  8.50000000E-01  8.50000000E-01  8.50000000E-01  8.50000000E-01  8.50000000E-01
  8.50000000E-01  8.50000000E-01  8.50000000E-01  8.50000000E-01  8.50000000E-01
  8.50000000E-01  8.50000000E-01  8.50000000E-01  8.50000000E-01  8.50000000E-01
  8.50000000E-01  8.50000000E-01  8.50000000E-01  8.50000000E-01  8.50000000E-01
  8.50000000E-01  8.50000000E-01  8.50000000E-01  8.50000000E-01  8.50000000E-01
  8.50000000E-01  8.50000000E-01  8.50000000E-01  8.50000000E-01  8.50000000E-01
  8.50000000E-01  8.50000000E-01  8.50000000E-01  8.50000000E-01  8.50000000E-01
  8.50000000E-01  8.50000000E-01  8.50000000E-01  8.50000000E-01  8.50000000E-01
  8.50000000E-01  8.50000000E-01  8.50000000E-01  8.50000000E-01  8.50000000E-01
  8.50000000E-01  8.50000000E-01  8.50000000E-01  8.50000000E-01  8.50000000E-01
  8.50000000E-01  8.50000000E-01  8.50000000E-01  8.50000000E-01  8.50000000E-01
  8.50000000E-01  8.50000000E-01  8.50000000E-01  8.50000000E-01  8.50000000E-01
  8.50000000E-01  8.50000000E-01  8.50000000E-01  8.50000000E-01  8.50000000E-01
  8.50000000E-01  8.50000000E-01  8.50000000E-01  8.50000000E-01  8.50000000E-01
  8.50000000E-01  8.50000000E-01  8.50000000E-01  8.50000000E-01  8.50000000E-01
  8.50000000E-01  8.50000000E-01  8.50000000E-01  8.50000000E-01  8.50000000E-01
  8.50000000E-01  8.50000000E-01  8.50000000E-01  8.50000000E-01  8.50000000E-01
  8.50000000E-01  8.50000000E-01  8.50000000E-01  8.50000000E-01  8.50000000E-01
  8.50000000E-01  8.50000000E-01  8.50000000E-01  8.50000000E-01  8.50000000E-01
  8.50000000E-01  8.50000000E-01  8.50000000E-01  8.50000000E-01  8.50000000E-01
  8.50000000E-01  8.50000000E-01  8.50000000E-01  8.50000000E-01  8.50000000E-01
  8.50000000E-01  8.50000000E-01  8.50000000E-01  8.50000000E-01  8.50000000E-01
  8.50000000E-01  8.50000000E-01  8.50000000E-01  8.50000000E-01  8.50000000E-01
  8.50000000E-01  8.50000000E-01  8.50000000E-01  8.50000000E-01  8.50000000E-01
  8.50000000E-01  8.50000000E-01  8.50000000E-01  8.50000000E-01  8.50000000E-01
  8.50000000E-01  8.50000000E-01  8.50000000E-01  8.50000000E-01  8.50000000E-01
  8.50000000E-01  8.50000000E-01  8.50000000E-01  8.50000000E-01  8.50000000E-01
  8.50000000E-01  8.50000000E-01  8.50000000E-01  8.50000000E-01  8.50000000E-01
  8.50000000E-01  8.50000000E-01  8.50000000E-01  8.50000000E-01  8.50000000E-01
  8.50000000E-01  8.50000000E-01  8.50000000E-01  8.50000000E-01  8.50000000E-01
  8.50000000E-01  8.50000000E-01  8.50000000E-01  8.50000000E-01  8.50000000E-01
  8.50000000E-01  8.50000000E-01  8.50000000E-01  8.50000000E-01  8.50000000E-01
  8.50000000E-01  8.50000000E-01  8.50000000E-01  8.50000000E-01  8.50000000E-01
  8.50000000E-01  8.50000000E-01  8.50000000E-01  8.50000000E-01  8.50000000E-01
  8.50000000E-01  8.50000000E-01  8.50000000E-01  8.50000000E-01  8.50000000E-01
  8.50000000E-01  8.50000000E-01  8.50000000E-01  8.50000000E-01  8.50000000E-01
  8.50000000E-01  8.50000000E-01  8.50000000E-01  8.50000000E-01  8.50000000E-01
  8.50000000E-01  8.50000000E-01  8.50000000E-01  8.50000000E-01  8.50000000E-01
  8.50000000E-01  8.50000000E-01  8.50000000E-01  8.50000000E-01  8.50000000E-01
  8.50000000E-01  8.50000000E-01  8.50000000E-01  8.50000000E-01  8.50000000E-01
  8.50000000E-01  8.50000000E-01  8.50000000E-01  8.50000000E-01  8.50000000E-01
  8.50000000E-01  8.50000000E-01  8.50000000E-01  8.50000000E-01  8.50000000E-01
  8.50000000E-01  8.50000000E-01  8.50000000E-01  8.50000000E-01  8.50000000E-01
  8.50000000E-01  8.50000000E-01  8.50000000E-01  8.50000000E-01  8.50000000E-01
  8.50000000E-01  8.50000000E-01  8.50000000E-01  8.50000000E-01  8.50000000E-01
  8.50000000E-01  8.50000000E-01  8.50000000E-01  8.50000000E-01  8.50000000E-01
  8.50000000E-01  8.50000000E-01  8.50000000E-01  8.50000000E-01  8.50000000E-01
  8.50000000E-01  8.50000000E-01  8.50000000E-01  8.50000000E-01  8.50000000E-01
  8.50000000E-01  8.50000000E-01  8.50000000E-01  8.50000000E-01  8.50000000E-01
  8.50000000E-01  8.50000000E-01  8.50000000E-01  8.50000000E-01  8.50000000E-01
  8.50000000E-01  8.50000000E-01  8.50000000E-01  8.50000000E-01  8.50000000E-01
  8.50000000E-01  8.50000000E-01  8.50000000E-01  8.50000000E-01  8.50000000E-01
  8.50000000E-01  8.50000000E-01  8.50000000E-01  8.50000000E-01  8.50000000E-01
  8.50000000E-01  8.50000000E-01  8.50000000E-01  8.50000000E-01  8.50000000E-01
  8.50000000E-01  8.50000000E-01  8.50000000E-01  8.50000000E-01  8.50000000E-01
  8.50000000E-01  8.50000000E-01  8.50000000E-01  8.50000000E-01  8.50000000E-01
  8.50000000E-01  8.50000000E-01  8.50000000E-01  8.50000000E-01  8.50000000E-01
  8.50000000E-01  8.50000000E-01  8.50000000E-01  8.50000000E-01  8.50000000E-01
  8.50000000E-01  8.50000000E-01  8.50000000E-01  8.50000000E-01  8.50000000E-01
  8.50000000E-01  8.50000000E-01  8.50000000E-01  8.50000000E-01  8.50000000E-01
  8.50000000E-01  8.50000000E-01  8.50000000E-01  8.50000000E-01  8.50000000E-01
  8.50000000E-01  8.50000000E-01  8.50000000E-01  8.50000000E-01  8.50000000E-01
  8.50000000E-01  8.50000000E-01  8.50000000E-01  8.50000000E-01  8.50000000E-01
  8.50000000E-01  8.50000000E-01  8.50000000E-01  8.50000000E-01  8.50000000E-01
  8.50000000E-01  8.50000000E-01  8.50000000E-01  8.50000000E-01  8.50000000E-01
  8.50000000E-01  8.50000000E-01  8.50000000E-01  8.50000000E-01  8.50000000E-01
  8.50000000E-01  8.50000000E-01  8.50000000E-01  8.50000000E-01  8.50000000E-01
  8.50000000E-01  8.50000000E-01  8.50000000E-01  8.50000000E-01  8.50000000E-01
  8.50000000E-01  8.50000000E-01  8.50000000E-01  8.50000000E-01  8.50000000E-01
  8.50000000E-01  8.50000000E-01  8.50000000E-01  8.50000000E-01  8.50000000E-01
  8.50000000E-01  8.50000000E-01  8.50000000E-01  8.50000000E-01  8.50000000E-01
  8.50000000E-01  8.50000000E-01  8.50000000E-01  8.50000000E-01  8.50000000E-01
  8.50000000E-01  8.50000000E-01  8.50000000E-01  8.50000000E-01  8.50000000E-01
  8.50000000E-01  8.50000000E-01  8.50000000E-01  8.50000000E-01  8.50000000E-01
  8.50000000E-01  8.50000000E-01  8.50000000E-01  8.50000000E-01  8.50000000E-01
  8.50000000E-01  8.50000000E-01  8.50000000E-01  8.50000000E-01  8.50000000E-01
  8.50000000E-01  8.50000000E-01  8.50000000E-01  8.50000000E-01  8.50000000E-01
  8.50000000E-01  8.50000000E-01  8.50000000E-01  8.50000000E-01  8.50000000E-01
  8.50000000E-01  8.50000000E-01  8.50000000E-01  8.50000000E-01  8.50000000E-01
  8.50000000E-01  8.50000000E-01  8.50000000E-01  8.50000000E-01  8.50000000E-01
  8.50000000E-01  8.50000000E-01  8.50000000E-01  8.50000000E-01  8.50000000E-01
  8.50000000E-01  8.50000000E-01  8.50000000E-01  8.50000000E-01  8.50000000E-01
  8.50000000E-01  8.50000000E-01  8.50000000E-01  8.50000000E-01  8.50000000E-01
  8.50000000E-01  8.50000000E-01  8.50000000E-01  8.50000000E-01  8.50000000E-01
  8.50000000E-01  8.50000000E-01  8.50000000E-01  8.50000000E-01  8.50000000E-01
  8.50000000E-01  8.50000000E-01  8.50000000E-01  8.50000000E-01  8.50000000E-01
  8.50000000E-01  8.50000000E-01  8.50000000E-01  8.50000000E-01  8.50000000E-01
  8.50000000E-01  8.50000000E-01  8.50000000E-01  8.50000000E-01  8.50000000E-01
  8.50000000E-01  8.50000000E-01  8.50000000E-01  8.50000000E-01  8.50000000E-01
  8.50000000E-01  8.50000000E-01  8.50000000E-01  8.50000000E-01  8.50000000E-01
  8.50000000E-01  8.50000000E-01  8.50000000E-01  8.50000000E-01  8.50000000E-01
  8.50000000E-01  8.50000000E-01  8.50000000E-01  8.50000000E-01  8.50000000E-01
  8.50000000E-01  8.50000000E-01  8.50000000E-01  8.50000000E-01  8.50000000E-01
  8.50000000E-01  8.50000000E-01  8.50000000E-01  8.50000000E-01  8.50000000E-01
  8.50000000E-01  8.50000000E-01  8.50000000E-01  8.50000000E-01  8.50000000E-01
  8.50000000E-01  8.50000000E-01  8.50000000E-01  8.50000000E-01  8.50000000E-01
  8.50000000E-01  8.50000000E-01  8.50000000E-01  8.50000000E-01  8.50000000E-01
  8.50000000E-01  8.50000000E-01  8.50000000E-01  8.50000000E-01  8.50000000E-01
  8.50000000E-01  8.50000000E-01  8.50000000E-01  8.50000000E-01  8.50000000E-01
  8.50000000E-01  8.50000000E-01  8.50000000E-01  8.50000000E-01  8.50000000E-01
  8.50000000E-01  8.50000000E-01  8.50000000E-01  8.50000000E-01  8.50000000E-01
  8.50000000E-01  8.50000000E-01  8.50000000E-01  8.50000000E-01  8.50000000E-01
  8.50000000E-01  8.50000000E-01  8.50000000E-01  8.50000000E-01  8.50000000E-01
  8.50000000E-01  8.50000000E-01  8.50000000E-01  8.50000000E-01  8.50000000E-01
  8.50000000E-01  8.50000000E-01  8.50000000E-01  8.50000000E-01  8.50000000E-01
  8.50000000E-01  8.50000000E-01  8.50000000E-01  8.50000000E-01  8.50000000E-01
  8.50000000E-01  8.50000000E-01  8.50000000E-01  8.50000000E-01  8.50000000E-01
  8.50000000E-01  8.50000000E-01  8.50000000E-01  8.50000000E-01  8.50000000E-01
  8.50000000E-01  8.50000000E-01  8.50000000E-01  8.50000000E-01  8.50000000E-01
  8.50000000E-01  8.50000000E-01  8.50000000E-01  8.50000000E-01  8.50000000E-01
  8.50000000E-01  8.50000000E-01  8.50000000E-01  8.50000000E-01  8.50000000E-01
  8.50000000E-01  8.50000000E-01  8.50000000E-01  8.50000000E-01  8.50000000E-01
  8.50000000E-01  8.50000000E-01  8.50000000E-01  8.50000000E-01  8.50000000E-01
  8.50000000E-01  8.50000000E-01  8.50000000E-01  8.50000000E-01  8.50000000E-01
  8.50000000E-01  8.50000000E-01  8.50000000E-01  8.50000000E-01  8.50000000E-01
  8.50000000E-01  8.50000000E-01  8.50000000E-01  8.50000000E-01  8.50000000E-01
  8.50000000E-01  8.50000000E-01  8.50000000E-01  8.50000000E-01  8.50000000E-01
  8.50000000E-01  8.50000000E-01  8.50000000E-01  8.50000000E-01  8.50000000E-01
  8.50000000E-01  8.50000000E-01  8.50000000E-01  8.50000000E-01  8.50000000E-01
  8.50000000E-01  8.50000000E-01  8.50000000E-01  8.50000000E-01  8.50000000E-01
  8.50000000E-01  8.50000000E-01  8.50000000E-01  8.50000000E-01  8.50000000E-01
  8.50000000E-01  8.50000000E-01  8.50000000E-01  8.50000000E-01  8.50000000E-01
  8.50000000E-01  8.50000000E-01  8.50000000E-01  8.50000000E-01  8.50000000E-01
  8.50000000E-01  8.50000000E-01  8.50000000E-01  8.50000000E-01  8.50000000E-01
  8.50000000E-01  8.50000000E-01  8.50000000E-01  8.50000000E-01  8.50000000E-01
  8.50000000E-01  8.50000000E-01  8.50000000E-01  8.50000000E-01  8.50000000E-01
  8.50000000E-01  8.50000000E-01  8.50000000E-01  8.50000000E-01  8.50000000E-01
  8.50000000E-01  8.50000000E-01  8.50000000E-01  8.50000000E-01  8.50000000E-01
  8.50000000E-01  8.50000000E-01  8.50000000E-01  8.50000000E-01  8.50000000E-01
  8.50000000E-01  8.50000000E-01  8.50000000E-01  8.50000000E-01  8.50000000E-01
  8.50000000E-01  8.50000000E-01  8.50000000E-01  8.50000000E-01  8.50000000E-01
  8.50000000E-01  8.50000000E-01  8.50000000E-01  8.50000000E-01  8.50000000E-01
  8.50000000E-01  8.50000000E-01  8.50000000E-01  8.50000000E-01  8.50000000E-01
  8.50000000E-01  8.50000000E-01  8.50000000E-01  8.50000000E-01  8.50000000E-01
  8.50000000E-01  8.50000000E-01  8.50000000E-01  8.50000000E-01  8.50000000E-01
  8.50000000E-01  8.50000000E-01  8.50000000E-01  8.50000000E-01  8.50000000E-01
  8.50000000E-01  8.50000000E-01  8.50000000E-01  8.50000000E-01  8.50000000E-01
  8.50000000E-01  8.50000000E-01  8.50000000E-01  8.50000000E-01  8.50000000E-01
  8.50000000E-01  8.50000000E-01  8.50000000E-01  8.50000000E-01  8.50000000E-01
  8.50000000E-01  8.50000000E-01  8.50000000E-01  8.50000000E-01  8.50000000E-01
  8.50000000E-01  8.50000000E-01  8.50000000E-01  8.50000000E-01  8.50000000E-01
  8.50000000E-01  8.50000000E-01  8.50000000E-01  8.50000000E-01  8.50000000E-01
  8.50000000E-01  8.50000000E-01  8.50000000E-01  8.50000000E-01  8.50000000E-01
  8.50000000E-01  8.50000000E-01  8.50000000E-01  8.50000000E-01  8.50000000E-01
  8.50000000E-01  8.50000000E-01  8.50000000E-01  8.50000000E-01  8.50000000E-01
  8.50000000E-01  8.50000000E-01  8.50000000E-01  8.50000000E-01  8.50000000E-01
  8.50000000E-01  8.50000000E-01  8.50000000E-01  8.50000000E-01  8.50000000E-01
  8.50000000E-01  8.50000000E-01  8.50000000E-01  8.50000000E-01  8.50000000E-01
  8.50000000E-01  8.50000000E-01  8.50000000E-01  8.50000000E-01  8.50000000E-01
  8.50000000E-01  8.50000000E-01  8.50000000E-01  8.50000000E-01  8.50000000E-01
  8.50000000E-01  8.50000000E-01  8.50000000E-01  8.50000000E-01  8.50000000E-01
  8.50000000E-01  8.50000000E-01  8.50000000E-01  8.50000000E-01  8.50000000E-01
  8.50000000E-01  8.50000000E-01  8.50000000E-01  8.50000000E-01  8.50000000E-01
  8.50000000E-01  8.50000000E-01  8.50000000E-01  8.50000000E-01  8.50000000E-01
  8.50000000E-01  8.50000000E-01  8.50000000E-01  8.50000000E-01  8.50000000E-01
  8.50000000E-01  8.50000000E-01  8.50000000E-01  8.50000000E-01  8.50000000E-01
  8.50000000E-01  8.50000000E-01  8.50000000E-01  8.50000000E-01  8.50000000E-01
  8.50000000E-01  8.50000000E-01  8.50000000E-01  8.50000000E-01  8.50000000E-01
  8.50000000E-01  8.50000000E-01  8.50000000E-01  8.50000000E-01  8.50000000E-01
  8.50000000E-01  8.50000000E-01  8.50000000E-01  8.50000000E-01  8.50000000E-01
  8.50000000E-01  8.50000000E-01  8.50000000E-01  8.50000000E-01  8.50000000E-01
  8.50000000E-01  8.50000000E-01  8.50000000E-01  8.50000000E-01  8.50000000E-01
  8.50000000E-01  8.50000000E-01  8.50000000E-01  8.50000000E-01  8.50000000E-01
  8.50000000E-01  8.50000000E-01  8.50000000E-01  8.50000000E-01  8.50000000E-01
  8.50000000E-01  8.50000000E-01  8.50000000E-01  8.50000000E-01  8.50000000E-01
  8.50000000E-01  8.50000000E-01  8.50000000E-01  8.50000000E-01  8.50000000E-01
  8.50000000E-01  8.50000000E-01  8.50000000E-01  8.50000000E-01  8.50000000E-01
  8.50000000E-01  8.50000000E-01  8.50000000E-01  8.50000000E-01  8.50000000E-01
  8.50000000E-01  8.50000000E-01  8.50000000E-01  8.50000000E-01  8.50000000E-01
  8.50000000E-01  8.50000000E-01  8.50000000E-01  8.50000000E-01  8.50000000E-01
  8.50000000E-01  8.50000000E-01  8.50000000E-01  8.50000000E-01  8.50000000E-01
  8.50000000E-01  8.50000000E-01  8.50000000E-01  8.50000000E-01  8.50000000E-01
  8.50000000E-01  8.50000000E-01  8.50000000E-01  8.50000000E-01  8.50000000E-01
  8.50000000E-01  8.50000000E-01  8.50000000E-01  8.50000000E-01  8.50000000E-01
  8.50000000E-01  8.50000000E-01  8.50000000E-01  8.50000000E-01  8.50000000E-01
  8.50000000E-01  8.50000000E-01  8.50000000E-01  8.50000000E-01  8.50000000E-01
  8.50000000E-01  8.50000000E-01  8.50000000E-01  8.50000000E-01  8.50000000E-01
  8.50000000E-01  8.50000000E-01  8.50000000E-01  8.50000000E-01  8.50000000E-01
  8.50000000E-01  8.50000000E-01  8.50000000E-01  8.50000000E-01  8.50000000E-01
  8.50000000E-01  8.50000000E-01  8.50000000E-01  8.50000000E-01  8.50000000E-01
  8.50000000E-01  8.50000000E-01  8.50000000E-01  8.50000000E-01  8.50000000E-01
  8.50000000E-01  8.50000000E-01  8.50000000E-01  8.50000000E-01  8.50000000E-01
  8.50000000E-01  8.50000000E-01  8.50000000E-01  8.50000000E-01  8.50000000E-01
  8.50000000E-01  8.50000000E-01  8.50000000E-01  8.50000000E-01  8.50000000E-01
  8.50000000E-01  8.50000000E-01  8.50000000E-01  8.50000000E-01  8.50000000E-01
  8.50000000E-01  8.50000000E-01  8.50000000E-01  8.50000000E-01  8.50000000E-01
  8.50000000E-01  8.50000000E-01  8.50000000E-01  8.50000000E-01  8.50000000E-01
  8.50000000E-01  8.50000000E-01  8.50000000E-01  8.50000000E-01  8.50000000E-01
  8.50000000E-01  8.50000000E-01  8.50000000E-01  8.50000000E-01  8.50000000E-01
  8.50000000E-01  8.50000000E-01  8.50000000E-01  8.50000000E-01  8.50000000E-01
  8.50000000E-01  8.50000000E-01  8.50000000E-01  8.50000000E-01  8.50000000E-01
  8.50000000E-01  8.50000000E-01  8.50000000E-01  8.50000000E-01  8.50000000E-01
  8.50000000E-01  8.50000000E-01  8.50000000E-01  8.50000000E-01  8.50000000E-01
  8.50000000E-01  8.50000000E-01  8.50000000E-01  8.50000000E-01  8.50000000E-01
  8.50000000E-01  8.50000000E-01  8.50000000E-01  8.50000000E-01  8.50000000E-01
  8.50000000E-01  8.50000000E-01  8.50000000E-01  8.50000000E-01  8.50000000E-01
  8.50000000E-01  8.50000000E-01  8.50000000E-01  8.50000000E-01  8.50000000E-01
  8.50000000E-01  8.50000000E-01  8.50000000E-01  8.50000000E-01  8.50000000E-01
  8.50000000E-01  8.50000000E-01  8.50000000E-01  8.50000000E-01  8.50000000E-01
  8.50000000E-01  8.50000000E-01  8.50000000E-01  8.50000000E-01  8.50000000E-01
  8.50000000E-01  8.50000000E-01  8.50000000E-01  8.50000000E-01  8.50000000E-01
  8.50000000E-01  8.50000000E-01  8.50000000E-01  8.50000000E-01  8.50000000E-01
  8.50000000E-01  8.50000000E-01  8.50000000E-01  8.50000000E-01  8.50000000E-01
  8.50000000E-01  8.50000000E-01  8.50000000E-01  8.50000000E-01  8.50000000E-01
  8.50000000E-01  8.50000000E-01  8.50000000E-01  8.50000000E-01  8.50000000E-01
  8.50000000E-01  8.50000000E-01  8.50000000E-01  8.50000000E-01  8.50000000E-01
  8.50000000E-01  8.50000000E-01  8.50000000E-01  8.50000000E-01  8.50000000E-01
  8.50000000E-01  8.50000000E-01  8.50000000E-01  8.50000000E-01  8.50000000E-01
  8.50000000E-01  8.50000000E-01  8.50000000E-01  8.50000000E-01  8.50000000E-01
  8.50000000E-01  8.50000000E-01  8.50000000E-01  8.50000000E-01  8.50000000E-01
  8.50000000E-01  8.50000000E-01  8.50000000E-01  8.50000000E-01  8.50000000E-01
  8.50000000E-01  8.50000000E-01  8.50000000E-01  8.50000000E-01  8.50000000E-01
  8.50000000E-01  8.50000000E-01  8.50000000E-01  8.50000000E-01  8.50000000E-01
  8.50000000E-01  8.50000000E-01  8.50000000E-01  8.50000000E-01  8.50000000E-01
  8.50000000E-01  8.50000000E-01  8.50000000E-01  8.50000000E-01  8.50000000E-01
  8.50000000E-01  8.50000000E-01  8.50000000E-01  8.50000000E-01  8.50000000E-01
  8.50000000E-01  8.50000000E-01  8.50000000E-01  8.50000000E-01  8.50000000E-01
  8.50000000E-01  8.50000000E-01  8.50000000E-01  8.50000000E-01  8.50000000E-01
  8.50000000E-01  8.50000000E-01  8.50000000E-01  8.50000000E-01  8.50000000E-01
  8.50000000E-01  8.50000000E-01  8.50000000E-01  8.50000000E-01  8.50000000E-01
  8.50000000E-01  8.50000000E-01  8.50000000E-01  8.50000000E-01  8.50000000E-01
  8.50000000E-01  8.50000000E-01  8.50000000E-01  8.50000000E-01  8.50000000E-01
  8.50000000E-01  8.50000000E-01  8.50000000E-01  8.50000000E-01  8.50000000E-01
  8.50000000E-01  8.50000000E-01  8.50000000E-01  8.50000000E-01  8.50000000E-01
  8.50000000E-01  8.50000000E-01  8.50000000E-01  8.50000000E-01  8.50000000E-01
  8.50000000E-01  8.50000000E-01  8.50000000E-01  8.50000000E-01  8.50000000E-01
  8.50000000E-01  8.50000000E-01  8.50000000E-01  8.50000000E-01  8.50000000E-01
  8.50000000E-01  8.50000000E-01  8.50000000E-01  8.50000000E-01  8.50000000E-01
  8.50000000E-01  8.50000000E-01  8.50000000E-01  8.50000000E-01  8.50000000E-01
  8.50000000E-01  8.50000000E-01  8.50000000E-01  8.50000000E-01  8.50000000E-01
  8.50000000E-01  8.50000000E-01  8.50000000E-01  8.50000000E-01  8.50000000E-01
  8.50000000E-01  8.50000000E-01  8.50000000E-01  8.50000000E-01  8.50000000E-01
  8.50000000E-01  8.50000000E-01  8.50000000E-01  8.50000000E-01  8.50000000E-01
  8.50000000E-01  8.50000000E-01  8.50000000E-01  8.50000000E-01  8.50000000E-01
  8.50000000E-01  8.50000000E-01  8.50000000E-01  8.50000000E-01  8.50000000E-01
  8.50000000E-01  8.50000000E-01  8.50000000E-01  8.50000000E-01  8.50000000E-01
  8.50000000E-01  8.50000000E-01  8.50000000E-01  8.50000000E-01  8.50000000E-01
  8.50000000E-01  8.50000000E-01  8.50000000E-01  8.50000000E-01  8.50000000E-01
  8.50000000E-01  8.50000000E-01  8.50000000E-01  8.50000000E-01  8.50000000E-01
  8.50000000E-01  8.50000000E-01  8.50000000E-01  8.50000000E-01  8.50000000E-01
  8.50000000E-01  8.50000000E-01  8.50000000E-01  8.50000000E-01  8.50000000E-01
  8.50000000E-01  8.50000000E-01  8.50000000E-01  8.50000000E-01  8.50000000E-01
  8.50000000E-01  8.50000000E-01  8.50000000E-01  8.50000000E-01  8.50000000E-01
  8.50000000E-01  8.50000000E-01  8.50000000E-01  8.50000000E-01  8.50000000E-01
  8.50000000E-01  8.50000000E-01  8.50000000E-01  8.50000000E-01  8.50000000E-01
  8.50000000E-01  8.50000000E-01  8.50000000E-01  8.50000000E-01  8.50000000E-01
  8.50000000E-01  8.50000000E-01  8.50000000E-01  8.50000000E-01  8.50000000E-01
  8.50000000E-01  8.50000000E-01  8.50000000E-01  8.50000000E-01  8.50000000E-01
  8.50000000E-01  8.50000000E-01  8.50000000E-01  8.50000000E-01  8.50000000E-01
  8.50000000E-01  8.50000000E-01  8.50000000E-01  8.50000000E-01  8.50000000E-01
  8.50000000E-01  8.50000000E-01  8.50000000E-01  8.50000000E-01  8.50000000E-01
  8.50000000E-01  8.50000000E-01  8.50000000E-01  8.50000000E-01  8.50000000E-01
  8.50000000E-01  8.50000000E-01  8.50000000E-01  8.50000000E-01  8.50000000E-01
  8.50000000E-01  8.50000000E-01  8.50000000E-01  8.50000000E-01  8.50000000E-01
  8.50000000E-01  8.50000000E-01  8.50000000E-01  8.50000000E-01  8.50000000E-01
  8.50000000E-01  8.50000000E-01  8.50000000E-01  8.50000000E-01  8.50000000E-01
  8.50000000E-01  8.50000000E-01  8.50000000E-01  8.50000000E-01  8.50000000E-01
  8.50000000E-01  8.50000000E-01  8.50000000E-01  8.50000000E-01  8.50000000E-01
  8.50000000E-01  8.50000000E-01  8.50000000E-01  8.50000000E-01  8.50000000E-01
  8.50000000E-01  8.50000000E-01  8.50000000E-01  8.50000000E-01  8.50000000E-01
  8.50000000E-01  8.50000000E-01  8.50000000E-01  8.50000000E-01  8.50000000E-01
  8.50000000E-01  8.50000000E-01  8.50000000E-01  8.50000000E-01  8.50000000E-01
  8.50000000E-01  8.50000000E-01  8.50000000E-01  8.50000000E-01  8.50000000E-01
  8.50000000E-01  8.50000000E-01  8.50000000E-01  8.50000000E-01  8.50000000E-01
  8.50000000E-01  8.50000000E-01  8.50000000E-01  8.50000000E-01  8.50000000E-01
  8.50000000E-01  8.50000000E-01  8.50000000E-01  8.50000000E-01  8.50000000E-01
  8.50000000E-01  8.50000000E-01  8.50000000E-01  8.50000000E-01  8.50000000E-01
  8.50000000E-01  8.50000000E-01  8.50000000E-01  8.50000000E-01  8.50000000E-01
  8.50000000E-01  8.50000000E-01  8.50000000E-01  8.50000000E-01  8.50000000E-01
  8.50000000E-01  8.50000000E-01  8.50000000E-01  8.50000000E-01  8.50000000E-01
  8.50000000E-01  8.50000000E-01  8.50000000E-01  8.50000000E-01  8.50000000E-01
  8.50000000E-01  8.50000000E-01  8.50000000E-01  8.50000000E-01  8.50000000E-01
  8.50000000E-01  8.50000000E-01  8.50000000E-01  8.50000000E-01  8.50000000E-01
  8.50000000E-01  8.50000000E-01  8.50000000E-01  8.50000000E-01  8.50000000E-01
  8.50000000E-01  8.50000000E-01  8.50000000E-01  8.50000000E-01  8.50000000E-01
  8.50000000E-01  8.50000000E-01  8.50000000E-01  8.50000000E-01  8.50000000E-01
  8.50000000E-01  8.50000000E-01  8.50000000E-01  8.50000000E-01  8.50000000E-01
  8.50000000E-01  8.50000000E-01  8.50000000E-01  8.50000000E-01  8.50000000E-01
  8.50000000E-01  8.50000000E-01  8.50000000E-01  8.50000000E-01  8.50000000E-01
  8.50000000E-01  8.50000000E-01  8.50000000E-01  8.50000000E-01  8.50000000E-01
  8.50000000E-01  8.50000000E-01  8.50000000E-01  8.50000000E-01  8.50000000E-01
  8.50000000E-01  8.50000000E-01  8.50000000E-01  8.50000000E-01  8.50000000E-01
  8.50000000E-01  8.50000000E-01  8.50000000E-01  8.50000000E-01  8.50000000E-01
  8.50000000E-01  8.50000000E-01  8.50000000E-01  8.50000000E-01  8.50000000E-01
  8.50000000E-01  8.50000000E-01  8.50000000E-01  8.50000000E-01  8.50000000E-01
  8.50000000E-01  8.50000000E-01  8.50000000E-01  8.50000000E-01  8.50000000E-01
  8.50000000E-01  8.50000000E-01  8.50000000E-01  8.50000000E-01  8.50000000E-01
  8.50000000E-01  8.50000000E-01  8.50000000E-01  8.50000000E-01  8.50000000E-01
  8.50000000E-01  8.50000000E-01  8.50000000E-01  8.50000000E-01  8.50000000E-01
  8.50000000E-01  8.50000000E-01  8.50000000E-01  8.50000000E-01  8.50000000E-01
  8.50000000E-01  8.50000000E-01  8.50000000E-01  8.50000000E-01  8.50000000E-01
  8.50000000E-01  8.50000000E-01  8.50000000E-01  8.50000000E-01  8.50000000E-01
  8.50000000E-01  8.50000000E-01  8.50000000E-01  8.50000000E-01  8.50000000E-01
  8.50000000E-01  8.50000000E-01  8.50000000E-01  8.50000000E-01  8.50000000E-01
  8.50000000E-01  8.50000000E-01  8.50000000E-01  8.50000000E-01  8.50000000E-01
  8.50000000E-01  8.50000000E-01  8.50000000E-01  8.50000000E-01  8.50000000E-01
  8.50000000E-01  8.50000000E-01  8.50000000E-01  8.50000000E-01  8.50000000E-01
  8.50000000E-01  8.50000000E-01  8.50000000E-01  8.50000000E-01  8.50000000E-01
  8.50000000E-01  8.50000000E-01  8.50000000E-01  8.50000000E-01  8.50000000E-01
  8.50000000E-01  8.50000000E-01  8.50000000E-01  8.50000000E-01  8.50000000E-01
  8.50000000E-01  8.50000000E-01  8.50000000E-01  8.50000000E-01  8.50000000E-01
  8.50000000E-01  8.50000000E-01  8.50000000E-01  8.50000000E-01  8.50000000E-01
  8.50000000E-01  8.50000000E-01  8.50000000E-01  8.50000000E-01  8.50000000E-01
  8.50000000E-01  8.50000000E-01  8.50000000E-01  8.50000000E-01  8.50000000E-01
  8.50000000E-01  8.50000000E-01  8.50000000E-01  8.50000000E-01  8.50000000E-01
  8.50000000E-01  8.50000000E-01  8.50000000E-01  8.50000000E-01  8.50000000E-01
  8.50000000E-01  8.50000000E-01  8.50000000E-01  8.50000000E-01  8.50000000E-01
  8.50000000E-01  8.50000000E-01  8.50000000E-01  8.50000000E-01  8.50000000E-01
  8.50000000E-01  8.50000000E-01  8.50000000E-01  8.50000000E-01  8.50000000E-01
  8.50000000E-01  8.50000000E-01  8.50000000E-01  8.50000000E-01  8.50000000E-01
  8.50000000E-01  8.50000000E-01  8.50000000E-01  8.50000000E-01  8.50000000E-01
  8.50000000E-01  8.50000000E-01  8.50000000E-01  8.50000000E-01  8.50000000E-01
  8.50000000E-01  8.50000000E-01  8.50000000E-01  8.50000000E-01  8.50000000E-01
  8.50000000E-01  8.50000000E-01  8.50000000E-01  8.50000000E-01  8.50000000E-01
  8.50000000E-01  8.50000000E-01  8.50000000E-01  8.50000000E-01  8.50000000E-01
  8.50000000E-01  8.50000000E-01  8.50000000E-01  8.50000000E-01  8.50000000E-01
  8.50000000E-01  8.50000000E-01  8.50000000E-01  8.50000000E-01  8.50000000E-01
  8.50000000E-01  8.50000000E-01  8.50000000E-01  8.50000000E-01  8.50000000E-01
  8.50000000E-01  8.50000000E-01  8.50000000E-01  8.50000000E-01  8.50000000E-01
  8.50000000E-01  8.50000000E-01  8.50000000E-01  8.50000000E-01  8.50000000E-01
  8.50000000E-01  8.50000000E-01  8.50000000E-01  8.50000000E-01  8.50000000E-01
  8.50000000E-01  8.50000000E-01  8.50000000E-01  8.50000000E-01  8.50000000E-01
  8.50000000E-01  8.50000000E-01  8.50000000E-01  8.50000000E-01  8.50000000E-01
  8.50000000E-01  8.50000000E-01  8.50000000E-01  8.50000000E-01  8.50000000E-01
  8.50000000E-01  8.50000000E-01  8.50000000E-01  8.50000000E-01  8.50000000E-01
  8.50000000E-01  8.50000000E-01  8.50000000E-01  8.50000000E-01  8.50000000E-01
  8.50000000E-01  8.50000000E-01  8.50000000E-01  8.50000000E-01  8.50000000E-01
  8.50000000E-01  8.50000000E-01  8.50000000E-01  8.50000000E-01  8.50000000E-01
  8.50000000E-01  8.50000000E-01  8.50000000E-01  8.50000000E-01  8.50000000E-01
  8.50000000E-01  8.50000000E-01  8.50000000E-01  8.50000000E-01  8.50000000E-01
  8.50000000E-01  8.50000000E-01  8.50000000E-01  8.50000000E-01  8.50000000E-01
  8.50000000E-01  8.50000000E-01  8.50000000E-01  8.50000000E-01  8.50000000E-01
  8.50000000E-01  8.50000000E-01  8.50000000E-01  8.50000000E-01  8.50000000E-01
  8.50000000E-01  8.50000000E-01  8.50000000E-01  8.50000000E-01  8.50000000E-01
  8.50000000E-01  8.50000000E-01  8.50000000E-01  8.50000000E-01  8.50000000E-01
  8.50000000E-01  8.50000000E-01  8.50000000E-01  8.50000000E-01  8.50000000E-01
  8.50000000E-01  8.50000000E-01  8.50000000E-01  8.50000000E-01  8.50000000E-01
  8.50000000E-01  8.50000000E-01  8.50000000E-01  8.50000000E-01  8.50000000E-01
  8.50000000E-01  8.50000000E-01  8.50000000E-01  8.50000000E-01  8.50000000E-01
  8.50000000E-01  8.50000000E-01  8.50000000E-01  8.50000000E-01  8.50000000E-01
  8.50000000E-01  8.50000000E-01  8.50000000E-01  8.50000000E-01  8.50000000E-01
  8.50000000E-01  8.50000000E-01  8.50000000E-01  8.50000000E-01  8.50000000E-01
  8.50000000E-01  8.50000000E-01  8.50000000E-01  8.50000000E-01  8.50000000E-01
  8.50000000E-01  8.50000000E-01  8.50000000E-01  8.50000000E-01  8.50000000E-01
  8.50000000E-01  8.50000000E-01  8.50000000E-01  8.50000000E-01  8.50000000E-01
  8.50000000E-01  8.50000000E-01  8.50000000E-01  8.50000000E-01  8.50000000E-01
  8.50000000E-01  8.50000000E-01  8.50000000E-01  8.50000000E-01  8.50000000E-01
  8.50000000E-01  8.50000000E-01  8.50000000E-01  8.50000000E-01  8.50000000E-01
  8.50000000E-01  8.50000000E-01  8.50000000E-01  8.50000000E-01  8.50000000E-01
  8.50000000E-01  8.50000000E-01  8.50000000E-01  8.50000000E-01  8.50000000E-01
  8.50000000E-01  8.50000000E-01  8.50000000E-01  8.50000000E-01  8.50000000E-01
  8.50000000E-01  8.50000000E-01  8.50000000E-01  8.50000000E-01  8.50000000E-01
  8.50000000E-01  8.50000000E-01  8.50000000E-01  8.50000000E-01  8.50000000E-01
  8.50000000E-01  8.50000000E-01  8.50000000E-01  8.50000000E-01  8.50000000E-01
  8.50000000E-01  8.50000000E-01  8.50000000E-01  8.50000000E-01  8.50000000E-01
  8.50000000E-01  8.50000000E-01  8.50000000E-01  8.50000000E-01  8.50000000E-01
  8.50000000E-01  8.50000000E-01  8.50000000E-01  8.50000000E-01  8.50000000E-01
  8.50000000E-01  8.50000000E-01  8.50000000E-01  8.50000000E-01  8.50000000E-01
  8.50000000E-01  8.50000000E-01  8.50000000E-01  8.50000000E-01  8.50000000E-01
  8.50000000E-01  8.50000000E-01  8.50000000E-01  8.50000000E-01  8.50000000E-01
  8.50000000E-01  8.50000000E-01  8.50000000E-01  8.50000000E-01  8.50000000E-01
  8.50000000E-01  8.50000000E-01  8.50000000E-01  8.50000000E-01  8.50000000E-01
  8.50000000E-01  8.50000000E-01  8.50000000E-01  8.50000000E-01  8.50000000E-01
  8.50000000E-01  8.50000000E-01  8.50000000E-01  8.50000000E-01  8.50000000E-01
  8.50000000E-01  8.50000000E-01  8.50000000E-01  8.50000000E-01  8.50000000E-01
  8.50000000E-01  8.50000000E-01  8.50000000E-01  8.50000000E-01  8.50000000E-01
  8.50000000E-01  8.50000000E-01  8.50000000E-01  8.50000000E-01  8.50000000E-01
  8.50000000E-01  8.50000000E-01  8.50000000E-01  8.50000000E-01  8.50000000E-01
  8.50000000E-01  8.50000000E-01  8.50000000E-01  8.50000000E-01  8.50000000E-01
  8.50000000E-01  8.50000000E-01  8.50000000E-01  8.50000000E-01  8.50000000E-01
  8.50000000E-01  8.50000000E-01  8.50000000E-01  8.50000000E-01  8.50000000E-01
  8.50000000E-01  8.50000000E-01  8.50000000E-01  8.50000000E-01  8.50000000E-01
  8.50000000E-01  8.50000000E-01  8.50000000E-01  8.50000000E-01  8.50000000E-01
  8.50000000E-01  8.50000000E-01  8.50000000E-01  8.50000000E-01  8.50000000E-01
  8.50000000E-01  8.50000000E-01  8.50000000E-01  8.50000000E-01  8.50000000E-01
  8.50000000E-01  8.50000000E-01  8.50000000E-01  8.50000000E-01  8.50000000E-01
  8.50000000E-01  8.50000000E-01  8.50000000E-01  8.50000000E-01  8.50000000E-01
  8.50000000E-01  8.50000000E-01  8.50000000E-01  8.50000000E-01  8.50000000E-01
  8.50000000E-01  8.50000000E-01  8.50000000E-01  8.50000000E-01  8.50000000E-01
  8.50000000E-01  8.50000000E-01  8.50000000E-01  8.50000000E-01  8.50000000E-01
  8.50000000E-01  8.50000000E-01  8.50000000E-01  8.50000000E-01  8.50000000E-01
  8.50000000E-01  8.50000000E-01  8.50000000E-01  8.50000000E-01  8.50000000E-01
  8.50000000E-01  8.50000000E-01  8.50000000E-01  8.50000000E-01  8.50000000E-01
  8.50000000E-01  8.50000000E-01  8.50000000E-01  8.50000000E-01  8.50000000E-01
  8.50000000E-01  8.50000000E-01  8.50000000E-01  8.50000000E-01  8.50000000E-01
  8.50000000E-01  8.50000000E-01  8.50000000E-01  8.50000000E-01  8.50000000E-01
  8.50000000E-01  8.50000000E-01  8.50000000E-01  8.50000000E-01  8.50000000E-01
  8.50000000E-01  8.50000000E-01  8.50000000E-01  8.50000000E-01  8.50000000E-01
  8.50000000E-01  8.50000000E-01  8.50000000E-01  8.50000000E-01  8.50000000E-01
  8.50000000E-01  8.50000000E-01  8.50000000E-01  8.50000000E-01  8.50000000E-01
  8.50000000E-01  8.50000000E-01  8.50000000E-01  8.50000000E-01  8.50000000E-01
  8.50000000E-01  8.50000000E-01  8.50000000E-01  8.50000000E-01  8.50000000E-01
  8.50000000E-01  8.50000000E-01  8.50000000E-01  8.50000000E-01  8.50000000E-01
  8.50000000E-01  8.50000000E-01  8.50000000E-01  8.50000000E-01  8.50000000E-01
  8.50000000E-01  8.50000000E-01  8.50000000E-01  8.50000000E-01  8.50000000E-01
  8.50000000E-01  8.50000000E-01  8.50000000E-01  8.50000000E-01  8.50000000E-01
  8.50000000E-01  8.50000000E-01  8.50000000E-01  8.50000000E-01  8.50000000E-01
  8.50000000E-01  8.50000000E-01  8.50000000E-01  8.50000000E-01  8.50000000E-01
  8.50000000E-01  8.50000000E-01  8.50000000E-01  8.50000000E-01  8.50000000E-01
  8.50000000E-01  8.50000000E-01  8.50000000E-01  8.50000000E-01  8.50000000E-01
  8.50000000E-01  8.50000000E-01  8.50000000E-01  8.50000000E-01  8.50000000E-01
  8.50000000E-01  8.50000000E-01  8.50000000E-01  8.50000000E-01  8.50000000E-01
  8.50000000E-01  8.50000000E-01  8.50000000E-01  8.50000000E-01  8.50000000E-01
  8.50000000E-01  8.50000000E-01  8.50000000E-01  8.50000000E-01  8.50000000E-01
  8.50000000E-01  8.50000000E-01  8.50000000E-01  8.50000000E-01  8.50000000E-01
  8.50000000E-01  8.50000000E-01  8.50000000E-01  8.50000000E-01  8.50000000E-01
  8.50000000E-01  8.50000000E-01  8.50000000E-01  8.50000000E-01  8.50000000E-01
  8.50000000E-01  8.50000000E-01  8.50000000E-01  8.50000000E-01  8.50000000E-01
  8.50000000E-01  8.50000000E-01  8.50000000E-01  8.50000000E-01  8.50000000E-01
  8.50000000E-01  8.50000000E-01  8.50000000E-01  8.50000000E-01  8.50000000E-01
  8.50000000E-01  8.50000000E-01  8.50000000E-01  8.50000000E-01  8.50000000E-01
  8.50000000E-01  8.50000000E-01  8.50000000E-01  8.50000000E-01  8.50000000E-01
  8.50000000E-01  8.50000000E-01  8.50000000E-01  8.50000000E-01  8.50000000E-01
  8.50000000E-01  8.50000000E-01  8.50000000E-01  8.50000000E-01  8.50000000E-01
  8.50000000E-01  8.50000000E-01  8.50000000E-01  8.50000000E-01  8.50000000E-01
  8.50000000E-01  8.50000000E-01  8.50000000E-01  8.50000000E-01  8.50000000E-01
  8.50000000E-01  8.50000000E-01  8.50000000E-01  8.50000000E-01  8.50000000E-01
  8.50000000E-01  8.50000000E-01  8.50000000E-01  8.50000000E-01  8.50000000E-01
  8.50000000E-01  8.50000000E-01  8.50000000E-01  8.50000000E-01  8.50000000E-01
  8.50000000E-01  8.50000000E-01  8.50000000E-01  8.50000000E-01  8.50000000E-01
  8.50000000E-01  8.50000000E-01  8.50000000E-01  8.50000000E-01  8.50000000E-01
  8.50000000E-01  8.50000000E-01  8.50000000E-01  8.50000000E-01  8.50000000E-01
  8.50000000E-01  8.50000000E-01  8.50000000E-01  8.50000000E-01  8.50000000E-01
  8.50000000E-01  8.50000000E-01  8.50000000E-01  8.50000000E-01  8.50000000E-01
  8.50000000E-01  8.50000000E-01  8.50000000E-01  8.50000000E-01  8.50000000E-01
  8.50000000E-01  8.50000000E-01  8.50000000E-01  8.50000000E-01  8.50000000E-01
  8.50000000E-01  8.50000000E-01  8.50000000E-01  8.50000000E-01  8.50000000E-01
  8.50000000E-01  8.50000000E-01  8.50000000E-01  8.50000000E-01  8.50000000E-01
  8.50000000E-01  8.50000000E-01  8.50000000E-01  8.50000000E-01  8.50000000E-01
  8.50000000E-01  8.50000000E-01  8.50000000E-01  8.50000000E-01  8.50000000E-01
  8.50000000E-01  8.50000000E-01  8.50000000E-01  8.50000000E-01  8.50000000E-01
  8.50000000E-01  8.50000000E-01  8.50000000E-01  8.50000000E-01  8.50000000E-01
  8.50000000E-01  8.50000000E-01  8.50000000E-01  8.50000000E-01  8.50000000E-01
  8.50000000E-01  8.50000000E-01  8.50000000E-01  8.50000000E-01  8.50000000E-01
  8.50000000E-01  8.50000000E-01  8.50000000E-01  8.50000000E-01  8.50000000E-01
  8.50000000E-01  8.50000000E-01  8.50000000E-01  8.50000000E-01  8.50000000E-01
  8.50000000E-01  8.50000000E-01  8.50000000E-01  8.50000000E-01  8.50000000E-01
  8.50000000E-01  8.50000000E-01  8.50000000E-01  8.50000000E-01  8.50000000E-01
  8.50000000E-01  8.50000000E-01  8.50000000E-01  8.50000000E-01  8.50000000E-01
  8.50000000E-01  8.50000000E-01  8.50000000E-01  8.50000000E-01  8.50000000E-01
  8.50000000E-01  8.50000000E-01  8.50000000E-01  8.50000000E-01  8.50000000E-01
  8.50000000E-01  8.50000000E-01  8.50000000E-01  8.50000000E-01  8.50000000E-01
  8.50000000E-01  8.50000000E-01  8.50000000E-01  8.50000000E-01  8.50000000E-01
  8.50000000E-01  8.50000000E-01  8.50000000E-01  8.50000000E-01  8.50000000E-01
  8.50000000E-01  8.50000000E-01  8.50000000E-01  8.50000000E-01  8.50000000E-01
  8.50000000E-01  8.50000000E-01  8.50000000E-01  8.50000000E-01  8.50000000E-01
  8.50000000E-01  8.50000000E-01  8.50000000E-01  8.50000000E-01  8.50000000E-01
  8.50000000E-01  8.50000000E-01  8.50000000E-01  8.50000000E-01  8.50000000E-01
  8.50000000E-01  8.50000000E-01  8.50000000E-01  8.50000000E-01  8.50000000E-01
  8.50000000E-01  8.50000000E-01  8.50000000E-01  8.50000000E-01  8.50000000E-01
  8.50000000E-01  8.50000000E-01  8.50000000E-01  8.50000000E-01  8.50000000E-01
  8.50000000E-01  8.50000000E-01  8.50000000E-01  8.50000000E-01  8.50000000E-01
  8.50000000E-01  8.50000000E-01  8.50000000E-01  8.50000000E-01  8.50000000E-01
  8.50000000E-01  8.50000000E-01  8.50000000E-01  8.50000000E-01  8.50000000E-01
  8.50000000E-01  8.50000000E-01  8.50000000E-01  8.50000000E-01  8.50000000E-01
  8.50000000E-01  8.50000000E-01  8.50000000E-01  8.50000000E-01  8.50000000E-01
  8.50000000E-01  8.50000000E-01  8.50000000E-01  8.50000000E-01  8.50000000E-01
  8.50000000E-01  8.50000000E-01  8.50000000E-01  8.50000000E-01  8.50000000E-01
  8.50000000E-01  8.50000000E-01  8.50000000E-01  8.50000000E-01  8.50000000E-01
  8.50000000E-01  8.50000000E-01  8.50000000E-01  8.50000000E-01  8.50000000E-01
  8.50000000E-01  8.50000000E-01  8.50000000E-01  8.50000000E-01  8.50000000E-01
  8.50000000E-01  8.50000000E-01  8.50000000E-01  8.50000000E-01  8.50000000E-01
  8.50000000E-01  8.50000000E-01  8.50000000E-01  8.50000000E-01  8.50000000E-01
  8.50000000E-01  8.50000000E-01  8.50000000E-01  8.50000000E-01  8.50000000E-01
  8.50000000E-01  8.50000000E-01  8.50000000E-01  8.50000000E-01  8.50000000E-01
  8.50000000E-01  8.50000000E-01  8.50000000E-01  8.50000000E-01  8.50000000E-01
  8.50000000E-01  8.50000000E-01  8.50000000E-01  8.50000000E-01  8.50000000E-01
  8.50000000E-01  8.50000000E-01  8.50000000E-01  8.50000000E-01  8.50000000E-01
  8.50000000E-01  8.50000000E-01  8.50000000E-01  8.50000000E-01  8.50000000E-01
  8.50000000E-01  8.50000000E-01  8.50000000E-01  8.50000000E-01  8.50000000E-01
  8.50000000E-01  8.50000000E-01  8.50000000E-01  8.50000000E-01  8.50000000E-01
  8.50000000E-01  8.50000000E-01  8.50000000E-01  8.50000000E-01  8.50000000E-01
  8.50000000E-01  8.50000000E-01  8.50000000E-01  8.50000000E-01  8.50000000E-01
  8.50000000E-01  8.50000000E-01  8.50000000E-01  8.50000000E-01  8.50000000E-01
  8.50000000E-01  8.50000000E-01  8.50000000E-01  8.50000000E-01  8.50000000E-01
  8.50000000E-01  8.50000000E-01  8.50000000E-01  8.50000000E-01  8.50000000E-01
  8.50000000E-01  8.50000000E-01  8.50000000E-01  8.50000000E-01  8.50000000E-01
  8.50000000E-01  8.50000000E-01  8.50000000E-01  8.50000000E-01  8.50000000E-01
  8.50000000E-01  8.50000000E-01  8.50000000E-01  8.50000000E-01  8.50000000E-01
  8.50000000E-01  8.50000000E-01  8.50000000E-01  8.50000000E-01  8.50000000E-01
  8.50000000E-01  8.50000000E-01  8.50000000E-01  8.50000000E-01  8.50000000E-01
  8.50000000E-01  8.50000000E-01  8.50000000E-01  8.50000000E-01  8.50000000E-01
  8.50000000E-01  8.50000000E-01  8.50000000E-01  8.50000000E-01  8.50000000E-01
  8.50000000E-01  8.50000000E-01  8.50000000E-01  8.50000000E-01  8.50000000E-01
  8.50000000E-01  8.50000000E-01  8.50000000E-01  8.50000000E-01  8.50000000E-01
  8.50000000E-01  8.50000000E-01  8.50000000E-01  8.50000000E-01  8.50000000E-01
  8.50000000E-01  8.50000000E-01  8.50000000E-01  8.50000000E-01  8.50000000E-01
  8.50000000E-01  8.50000000E-01  8.50000000E-01  8.50000000E-01  8.50000000E-01
  8.50000000E-01  8.50000000E-01  8.50000000E-01  8.50000000E-01  8.50000000E-01
  8.50000000E-01  8.50000000E-01  8.50000000E-01  8.50000000E-01  8.50000000E-01
  8.50000000E-01  8.50000000E-01  8.50000000E-01  8.50000000E-01  8.50000000E-01
  8.50000000E-01  8.50000000E-01  8.50000000E-01  8.50000000E-01  8.50000000E-01
  8.50000000E-01  8.50000000E-01  8.50000000E-01  8.50000000E-01  8.50000000E-01
  8.50000000E-01  8.50000000E-01  8.50000000E-01  8.50000000E-01  8.50000000E-01
  8.50000000E-01  8.50000000E-01  8.50000000E-01  8.50000000E-01  8.50000000E-01
  8.50000000E-01  8.50000000E-01  8.50000000E-01  8.50000000E-01  8.50000000E-01
  8.50000000E-01  8.50000000E-01  8.50000000E-01  8.50000000E-01  8.50000000E-01
  8.50000000E-01  8.50000000E-01  8.50000000E-01  8.50000000E-01  8.50000000E-01
  8.50000000E-01  8.50000000E-01  8.50000000E-01  8.50000000E-01  8.50000000E-01
  8.50000000E-01  8.50000000E-01  8.50000000E-01  8.50000000E-01  8.50000000E-01
  8.50000000E-01  8.50000000E-01  8.50000000E-01  8.50000000E-01  8.50000000E-01
  8.50000000E-01  8.50000000E-01  8.50000000E-01  8.50000000E-01  8.50000000E-01
  8.50000000E-01  8.50000000E-01  8.50000000E-01  8.50000000E-01  8.50000000E-01
  8.50000000E-01  8.50000000E-01  8.50000000E-01  8.50000000E-01  8.50000000E-01
  8.50000000E-01  8.50000000E-01  8.50000000E-01  8.50000000E-01  8.50000000E-01
  8.50000000E-01  8.50000000E-01  8.50000000E-01  8.50000000E-01  8.50000000E-01
  8.50000000E-01  8.50000000E-01  8.50000000E-01  8.50000000E-01  8.50000000E-01
  8.50000000E-01  8.50000000E-01  8.50000000E-01  8.50000000E-01  8.50000000E-01
  8.50000000E-01  8.50000000E-01  8.50000000E-01  8.50000000E-01  8.50000000E-01
  8.50000000E-01  8.50000000E-01  8.50000000E-01  8.50000000E-01  8.50000000E-01
  8.50000000E-01  8.50000000E-01  8.50000000E-01  8.50000000E-01  8.50000000E-01
  8.50000000E-01  8.50000000E-01  8.50000000E-01  8.50000000E-01  8.50000000E-01
  8.50000000E-01  8.50000000E-01  8.50000000E-01  8.50000000E-01  8.50000000E-01
  8.50000000E-01  8.50000000E-01  8.50000000E-01  8.50000000E-01  8.50000000E-01
  8.50000000E-01  8.50000000E-01  8.50000000E-01  8.50000000E-01  8.50000000E-01
  8.50000000E-01  8.50000000E-01  8.50000000E-01  8.50000000E-01  8.50000000E-01
  8.50000000E-01  8.50000000E-01  8.50000000E-01  8.50000000E-01  8.50000000E-01
  8.50000000E-01  8.50000000E-01  8.50000000E-01  8.50000000E-01  8.50000000E-01
  8.50000000E-01  8.50000000E-01  8.50000000E-01  8.50000000E-01  8.50000000E-01
  8.50000000E-01  8.50000000E-01  8.50000000E-01  8.50000000E-01  8.50000000E-01
  8.50000000E-01  8.50000000E-01  8.50000000E-01  8.50000000E-01  8.50000000E-01
  8.50000000E-01  8.50000000E-01  8.50000000E-01  8.50000000E-01  8.50000000E-01
  8.50000000E-01  8.50000000E-01  8.50000000E-01  8.50000000E-01  8.50000000E-01
  8.50000000E-01  8.50000000E-01  8.50000000E-01  8.50000000E-01  8.50000000E-01
  8.50000000E-01  8.50000000E-01  8.50000000E-01  8.50000000E-01  8.50000000E-01
  8.50000000E-01  8.50000000E-01  8.50000000E-01  8.50000000E-01  8.50000000E-01
  8.50000000E-01  8.50000000E-01  8.50000000E-01  8.50000000E-01  8.50000000E-01
  8.50000000E-01  8.50000000E-01  8.50000000E-01  8.50000000E-01  8.50000000E-01
  8.50000000E-01  8.50000000E-01  8.50000000E-01  8.50000000E-01  8.50000000E-01
  8.50000000E-01  8.50000000E-01  8.50000000E-01  8.50000000E-01  8.50000000E-01
  8.50000000E-01  8.50000000E-01  8.50000000E-01  8.50000000E-01  8.50000000E-01
  8.50000000E-01  8.50000000E-01  8.50000000E-01  8.50000000E-01  8.50000000E-01
  8.50000000E-01  8.50000000E-01  8.50000000E-01  8.50000000E-01  8.50000000E-01
  8.50000000E-01  8.50000000E-01  8.50000000E-01  8.50000000E-01  8.50000000E-01
  8.50000000E-01  8.50000000E-01  8.50000000E-01  8.50000000E-01  8.50000000E-01
  8.50000000E-01  8.50000000E-01  8.50000000E-01  8.50000000E-01  8.50000000E-01
  8.50000000E-01  8.50000000E-01  8.50000000E-01  8.50000000E-01  8.50000000E-01
  8.50000000E-01  8.50000000E-01  8.50000000E-01  8.50000000E-01  8.50000000E-01
  8.50000000E-01  8.50000000E-01  8.50000000E-01  8.50000000E-01  8.50000000E-01
  8.50000000E-01  8.50000000E-01  8.50000000E-01  8.50000000E-01  8.50000000E-01
  8.50000000E-01  8.50000000E-01  8.50000000E-01  8.50000000E-01  8.50000000E-01
  8.50000000E-01  8.50000000E-01  8.50000000E-01  8.50000000E-01  8.50000000E-01
  8.50000000E-01  8.50000000E-01  8.50000000E-01  8.50000000E-01  8.50000000E-01
  8.50000000E-01  8.50000000E-01  8.50000000E-01  8.50000000E-01  8.50000000E-01
  8.50000000E-01  8.50000000E-01  8.50000000E-01  8.50000000E-01  8.50000000E-01
  8.50000000E-01  8.50000000E-01  8.50000000E-01  8.50000000E-01  8.50000000E-01
  8.50000000E-01  8.50000000E-01  8.50000000E-01  8.50000000E-01  8.50000000E-01
  8.50000000E-01  8.50000000E-01  8.50000000E-01  8.50000000E-01  8.50000000E-01
  8.50000000E-01  8.50000000E-01  8.50000000E-01  8.50000000E-01  8.50000000E-01
  8.50000000E-01  8.50000000E-01  8.50000000E-01  8.50000000E-01  8.50000000E-01
  8.50000000E-01  8.50000000E-01  8.50000000E-01  8.50000000E-01  8.50000000E-01
  8.50000000E-01  8.50000000E-01  8.50000000E-01  8.50000000E-01  8.50000000E-01
  8.50000000E-01  8.50000000E-01  8.50000000E-01  8.50000000E-01  8.50000000E-01
  8.50000000E-01  8.50000000E-01  8.50000000E-01  8.50000000E-01  8.50000000E-01
  8.50000000E-01  8.50000000E-01  8.50000000E-01  8.50000000E-01  8.50000000E-01
  8.50000000E-01  8.50000000E-01  8.50000000E-01  8.50000000E-01  8.50000000E-01
  8.50000000E-01  8.50000000E-01  8.50000000E-01  8.50000000E-01  8.50000000E-01
  8.50000000E-01  8.50000000E-01  8.50000000E-01  8.50000000E-01  8.50000000E-01
  8.50000000E-01  8.50000000E-01  8.50000000E-01  8.50000000E-01  8.50000000E-01
  8.50000000E-01  8.50000000E-01  8.50000000E-01  8.50000000E-01  8.50000000E-01
  8.50000000E-01  8.50000000E-01  8.50000000E-01  8.50000000E-01  8.50000000E-01
  8.50000000E-01  8.50000000E-01  8.50000000E-01  8.50000000E-01  8.50000000E-01
  8.50000000E-01  8.50000000E-01  8.50000000E-01  8.50000000E-01  8.50000000E-01
  8.50000000E-01  8.50000000E-01  8.50000000E-01  8.50000000E-01  8.50000000E-01
  8.50000000E-01  8.50000000E-01  8.50000000E-01  8.50000000E-01  8.50000000E-01
  8.50000000E-01  8.50000000E-01  8.50000000E-01  8.50000000E-01  8.50000000E-01
  8.50000000E-01  8.50000000E-01  8.50000000E-01  8.50000000E-01  8.50000000E-01
  8.50000000E-01  8.50000000E-01  8.50000000E-01  8.50000000E-01  8.50000000E-01
  8.50000000E-01  8.50000000E-01  8.50000000E-01  8.50000000E-01  8.50000000E-01
  8.50000000E-01  8.50000000E-01  8.50000000E-01  8.50000000E-01  8.50000000E-01
  8.50000000E-01  8.50000000E-01  8.50000000E-01  8.50000000E-01  8.50000000E-01
  8.50000000E-01  8.50000000E-01  8.50000000E-01  8.50000000E-01  8.50000000E-01
  8.50000000E-01  8.50000000E-01  8.50000000E-01  8.50000000E-01  8.50000000E-01
  8.50000000E-01  8.50000000E-01  8.50000000E-01  8.50000000E-01  8.50000000E-01
  8.50000000E-01  8.50000000E-01  8.50000000E-01  8.50000000E-01  8.50000000E-01
  8.50000000E-01  8.50000000E-01  8.50000000E-01  8.50000000E-01  8.50000000E-01
  8.50000000E-01  8.50000000E-01  8.50000000E-01  8.50000000E-01  8.50000000E-01
  8.50000000E-01  8.50000000E-01  8.50000000E-01  8.50000000E-01  8.50000000E-01
  8.50000000E-01  8.50000000E-01  8.50000000E-01  8.50000000E-01  8.50000000E-01
  8.50000000E-01  8.50000000E-01  8.50000000E-01  8.50000000E-01  8.50000000E-01
  8.50000000E-01  8.50000000E-01  8.50000000E-01  8.50000000E-01  8.50000000E-01
  8.50000000E-01  8.50000000E-01  8.50000000E-01  8.50000000E-01  8.50000000E-01
  8.50000000E-01  8.50000000E-01  8.50000000E-01  8.50000000E-01  8.50000000E-01
  8.50000000E-01  8.50000000E-01  8.50000000E-01  8.50000000E-01  8.50000000E-01
  8.50000000E-01  8.50000000E-01  8.50000000E-01  8.50000000E-01  8.50000000E-01
  8.50000000E-01  8.50000000E-01  8.50000000E-01  8.50000000E-01  8.50000000E-01
  8.50000000E-01  8.50000000E-01  8.50000000E-01  8.50000000E-01  8.50000000E-01
  8.50000000E-01  8.50000000E-01  8.50000000E-01  8.50000000E-01  8.50000000E-01
  8.50000000E-01  8.50000000E-01  8.50000000E-01  8.50000000E-01  8.50000000E-01
  8.50000000E-01  8.50000000E-01  8.50000000E-01  8.50000000E-01  8.50000000E-01
  8.50000000E-01  8.50000000E-01  8.50000000E-01  8.50000000E-01  8.50000000E-01
  8.50000000E-01  8.50000000E-01  8.50000000E-01  8.50000000E-01  8.50000000E-01
  8.50000000E-01  8.50000000E-01  8.50000000E-01  8.50000000E-01  8.50000000E-01
  8.50000000E-01  8.50000000E-01  8.50000000E-01  8.50000000E-01  8.50000000E-01
  8.50000000E-01  8.50000000E-01  8.50000000E-01  8.50000000E-01  8.50000000E-01
  8.50000000E-01  8.50000000E-01  8.50000000E-01  8.50000000E-01  8.50000000E-01
  8.50000000E-01  8.50000000E-01  8.50000000E-01  8.50000000E-01  8.50000000E-01
  8.50000000E-01  8.50000000E-01  8.50000000E-01  8.50000000E-01  8.50000000E-01
  8.50000000E-01  8.50000000E-01  8.50000000E-01  8.50000000E-01  8.50000000E-01
  8.50000000E-01  8.50000000E-01  8.50000000E-01  8.50000000E-01  8.50000000E-01
  8.50000000E-01  8.50000000E-01  8.50000000E-01  8.50000000E-01  8.50000000E-01
  8.50000000E-01  8.50000000E-01  8.50000000E-01  8.50000000E-01  8.50000000E-01
  8.50000000E-01  8.50000000E-01  8.50000000E-01  8.50000000E-01  8.50000000E-01
  8.50000000E-01  8.50000000E-01  8.50000000E-01  8.50000000E-01  8.50000000E-01
  8.50000000E-01  8.50000000E-01  8.50000000E-01  8.50000000E-01  8.50000000E-01
  8.50000000E-01  8.50000000E-01  8.50000000E-01  8.50000000E-01  8.50000000E-01
  8.50000000E-01  8.50000000E-01  8.50000000E-01  8.50000000E-01  8.50000000E-01
  8.50000000E-01  8.50000000E-01  8.50000000E-01  8.50000000E-01  8.50000000E-01
  8.50000000E-01  8.50000000E-01  8.50000000E-01  8.50000000E-01  8.50000000E-01
  8.50000000E-01  8.50000000E-01  8.50000000E-01  8.50000000E-01  8.50000000E-01
  8.50000000E-01  8.50000000E-01  8.50000000E-01  8.50000000E-01  8.50000000E-01
  8.50000000E-01  8.50000000E-01  8.50000000E-01  8.50000000E-01  8.50000000E-01
  8.50000000E-01  8.50000000E-01  8.50000000E-01  8.50000000E-01  8.50000000E-01
  8.50000000E-01  8.50000000E-01  8.50000000E-01  8.50000000E-01  8.50000000E-01
  8.50000000E-01  8.50000000E-01  8.50000000E-01  8.50000000E-01  8.50000000E-01
  8.50000000E-01  8.50000000E-01  8.50000000E-01  8.50000000E-01  8.50000000E-01
  8.50000000E-01  8.50000000E-01  8.50000000E-01  8.50000000E-01  8.50000000E-01
  8.50000000E-01  8.50000000E-01  8.50000000E-01  8.50000000E-01  8.50000000E-01
  8.50000000E-01  8.50000000E-01  8.50000000E-01  8.50000000E-01  8.50000000E-01
  8.50000000E-01  8.50000000E-01  8.50000000E-01  8.50000000E-01  8.50000000E-01
  8.50000000E-01  8.50000000E-01  8.50000000E-01  8.50000000E-01  8.50000000E-01
  8.50000000E-01  8.50000000E-01  8.50000000E-01  8.50000000E-01  8.50000000E-01
  8.50000000E-01  8.50000000E-01  8.50000000E-01  8.50000000E-01  8.50000000E-01
  8.50000000E-01  8.50000000E-01  8.50000000E-01  8.50000000E-01  8.50000000E-01
  8.50000000E-01  8.50000000E-01  8.50000000E-01  8.50000000E-01  8.50000000E-01
  8.50000000E-01  8.50000000E-01  8.50000000E-01  8.50000000E-01  8.50000000E-01
  8.50000000E-01  8.50000000E-01  8.50000000E-01  8.50000000E-01  8.50000000E-01
  8.50000000E-01  8.50000000E-01  8.50000000E-01  8.50000000E-01  8.50000000E-01
  8.50000000E-01  8.50000000E-01  8.50000000E-01  8.50000000E-01  8.50000000E-01
  8.50000000E-01  8.50000000E-01  8.50000000E-01  8.50000000E-01  8.50000000E-01
  8.50000000E-01  8.50000000E-01  8.50000000E-01  8.50000000E-01  8.50000000E-01
  8.50000000E-01  8.50000000E-01  8.50000000E-01  8.50000000E-01  8.50000000E-01
  8.50000000E-01  8.50000000E-01  8.50000000E-01  8.50000000E-01  8.50000000E-01
  8.50000000E-01  8.50000000E-01  8.50000000E-01  8.50000000E-01  8.50000000E-01
  8.50000000E-01  8.50000000E-01  8.50000000E-01  8.50000000E-01  8.50000000E-01
  8.50000000E-01  8.50000000E-01  8.50000000E-01  8.50000000E-01  8.50000000E-01
  8.50000000E-01  8.50000000E-01  8.50000000E-01  8.50000000E-01  8.50000000E-01
  8.50000000E-01  8.50000000E-01  8.50000000E-01  8.50000000E-01  8.50000000E-01
  8.50000000E-01  8.50000000E-01  8.50000000E-01  8.50000000E-01  8.50000000E-01
  8.50000000E-01  8.50000000E-01  8.50000000E-01  8.50000000E-01  8.50000000E-01
  8.50000000E-01  8.50000000E-01  8.50000000E-01  8.50000000E-01  8.50000000E-01
  8.50000000E-01  8.50000000E-01  8.50000000E-01  8.50000000E-01  8.50000000E-01
  8.50000000E-01  8.50000000E-01  8.50000000E-01  8.50000000E-01  8.50000000E-01
  8.50000000E-01  8.50000000E-01  8.50000000E-01  8.50000000E-01  8.50000000E-01
  8.50000000E-01  8.50000000E-01  8.50000000E-01  8.50000000E-01  8.50000000E-01
  8.50000000E-01  8.50000000E-01  8.50000000E-01  8.50000000E-01  8.50000000E-01
  8.50000000E-01  8.50000000E-01  8.50000000E-01  8.50000000E-01  8.50000000E-01
  8.50000000E-01  8.50000000E-01  8.50000000E-01  8.50000000E-01  8.50000000E-01
  8.50000000E-01  8.50000000E-01  8.50000000E-01  8.50000000E-01  8.50000000E-01
  8.50000000E-01  8.50000000E-01  8.50000000E-01  8.50000000E-01  8.50000000E-01
  8.50000000E-01  8.50000000E-01  8.50000000E-01  8.50000000E-01  8.50000000E-01
  8.50000000E-01  8.50000000E-01  8.50000000E-01  8.50000000E-01  8.50000000E-01
  8.50000000E-01  8.50000000E-01  8.50000000E-01  8.50000000E-01  8.50000000E-01
  8.50000000E-01  8.50000000E-01  8.50000000E-01  8.50000000E-01  8.50000000E-01
  8.50000000E-01  8.50000000E-01  8.50000000E-01  8.50000000E-01  8.50000000E-01
  8.50000000E-01  8.50000000E-01  8.50000000E-01  8.50000000E-01  8.50000000E-01
  8.50000000E-01  8.50000000E-01  8.50000000E-01  8.50000000E-01  8.50000000E-01
  8.50000000E-01  8.50000000E-01  8.50000000E-01  8.50000000E-01  8.50000000E-01
  8.50000000E-01  8.50000000E-01  8.50000000E-01  8.50000000E-01  8.50000000E-01
  8.50000000E-01  8.50000000E-01  8.50000000E-01  8.50000000E-01  8.50000000E-01
  8.50000000E-01  8.50000000E-01  8.50000000E-01  8.50000000E-01  8.50000000E-01
  8.50000000E-01  8.50000000E-01  8.50000000E-01  8.50000000E-01  8.50000000E-01
  8.50000000E-01  8.50000000E-01  8.50000000E-01  8.50000000E-01  8.50000000E-01
  8.50000000E-01  8.50000000E-01  8.50000000E-01  8.50000000E-01  8.50000000E-01
  8.50000000E-01  8.50000000E-01  8.50000000E-01  8.50000000E-01  8.50000000E-01
  8.50000000E-01  8.50000000E-01  8.50000000E-01  8.50000000E-01  8.50000000E-01
  8.50000000E-01  8.50000000E-01  8.50000000E-01  8.50000000E-01  8.50000000E-01
  8.50000000E-01  8.50000000E-01  8.50000000E-01  8.50000000E-01  8.50000000E-01
  8.50000000E-01  8.50000000E-01  8.50000000E-01  8.50000000E-01  8.50000000E-01
  8.50000000E-01  8.50000000E-01  8.50000000E-01  8.50000000E-01  8.50000000E-01
  8.50000000E-01  8.50000000E-01  8.50000000E-01  8.50000000E-01  8.50000000E-01
  8.50000000E-01  8.50000000E-01  8.50000000E-01  8.50000000E-01  8.50000000E-01
  8.50000000E-01  8.50000000E-01  8.50000000E-01  8.50000000E-01  8.50000000E-01
  8.50000000E-01  8.50000000E-01  8.50000000E-01  8.50000000E-01  8.50000000E-01
  8.50000000E-01  8.50000000E-01  8.50000000E-01  8.50000000E-01  8.50000000E-01
  8.50000000E-01  8.50000000E-01  8.50000000E-01  8.50000000E-01  8.50000000E-01
  8.50000000E-01  8.50000000E-01  8.50000000E-01  8.50000000E-01  8.50000000E-01
  8.50000000E-01  8.50000000E-01  8.50000000E-01  8.50000000E-01  8.50000000E-01
  8.50000000E-01  8.50000000E-01  8.50000000E-01  8.50000000E-01  8.50000000E-01
  8.50000000E-01  8.50000000E-01  8.50000000E-01  8.50000000E-01  8.50000000E-01
  8.50000000E-01  8.50000000E-01  8.50000000E-01  8.50000000E-01  8.50000000E-01
  8.50000000E-01  8.50000000E-01  8.50000000E-01  8.50000000E-01  8.50000000E-01
  8.50000000E-01  8.50000000E-01  8.50000000E-01  8.50000000E-01  8.50000000E-01
  8.50000000E-01  8.50000000E-01  8.50000000E-01  8.50000000E-01  8.50000000E-01
  8.50000000E-01  8.50000000E-01  8.50000000E-01  8.50000000E-01  8.50000000E-01
  8.50000000E-01  8.50000000E-01  8.50000000E-01  8.50000000E-01  8.50000000E-01
  8.50000000E-01  8.50000000E-01  8.50000000E-01  8.50000000E-01  8.50000000E-01
  8.50000000E-01  8.50000000E-01  8.50000000E-01  8.50000000E-01  8.50000000E-01
  8.50000000E-01  8.50000000E-01  8.50000000E-01  8.50000000E-01  8.50000000E-01
  8.50000000E-01  8.50000000E-01  8.50000000E-01  8.50000000E-01  8.50000000E-01
  8.50000000E-01  8.50000000E-01  8.50000000E-01  8.50000000E-01  8.50000000E-01
  8.50000000E-01  8.50000000E-01  8.50000000E-01  8.50000000E-01  8.50000000E-01
  8.50000000E-01  8.50000000E-01  8.50000000E-01  8.50000000E-01  8.50000000E-01
  8.50000000E-01  8.50000000E-01  8.50000000E-01  8.50000000E-01  8.50000000E-01
  8.50000000E-01  8.50000000E-01  8.50000000E-01  8.50000000E-01  8.50000000E-01
  8.50000000E-01  8.50000000E-01  8.50000000E-01  8.50000000E-01  8.50000000E-01
  8.50000000E-01  8.50000000E-01  8.50000000E-01  8.50000000E-01  8.50000000E-01
  8.50000000E-01  8.50000000E-01  8.50000000E-01  8.50000000E-01  8.50000000E-01
  8.50000000E-01  8.50000000E-01  8.50000000E-01  8.50000000E-01  8.50000000E-01
  8.50000000E-01  8.50000000E-01  8.50000000E-01  8.50000000E-01  8.50000000E-01
  8.50000000E-01  8.50000000E-01  8.50000000E-01  8.50000000E-01  8.50000000E-01
  8.50000000E-01  8.50000000E-01  8.50000000E-01  8.50000000E-01  8.50000000E-01
  8.50000000E-01  8.50000000E-01  8.50000000E-01  8.50000000E-01  8.50000000E-01
  8.50000000E-01  8.50000000E-01  8.50000000E-01  8.50000000E-01  8.50000000E-01
  8.50000000E-01  8.50000000E-01  8.50000000E-01  8.50000000E-01  8.50000000E-01
  8.50000000E-01  8.50000000E-01  8.50000000E-01  8.50000000E-01  8.50000000E-01
  8.50000000E-01  8.50000000E-01  8.50000000E-01  8.50000000E-01  8.50000000E-01
  8.50000000E-01  8.50000000E-01  8.50000000E-01  8.50000000E-01  8.50000000E-01
  8.50000000E-01  8.50000000E-01  8.50000000E-01  8.50000000E-01  8.50000000E-01
  8.50000000E-01  8.50000000E-01  8.50000000E-01  8.50000000E-01  8.50000000E-01
  8.50000000E-01  8.50000000E-01  8.50000000E-01  8.50000000E-01  8.50000000E-01
  8.50000000E-01  8.50000000E-01  8.50000000E-01  8.50000000E-01  8.50000000E-01
  8.50000000E-01  8.50000000E-01  8.50000000E-01  8.50000000E-01  8.50000000E-01
  8.50000000E-01  8.50000000E-01  8.50000000E-01  8.50000000E-01  8.50000000E-01
  8.50000000E-01  8.50000000E-01  8.50000000E-01  8.50000000E-01  8.50000000E-01
  8.50000000E-01  8.50000000E-01  8.50000000E-01  8.50000000E-01  8.50000000E-01
  8.50000000E-01  8.50000000E-01  8.50000000E-01  8.50000000E-01  8.50000000E-01
  8.50000000E-01  8.50000000E-01  8.50000000E-01  8.50000000E-01  8.50000000E-01
  8.50000000E-01  8.50000000E-01  8.50000000E-01  8.50000000E-01  8.50000000E-01
  8.50000000E-01  8.50000000E-01  8.50000000E-01  8.50000000E-01  8.50000000E-01
  8.50000000E-01  8.50000000E-01  8.50000000E-01  8.50000000E-01  8.50000000E-01
  8.50000000E-01  8.50000000E-01  8.50000000E-01  8.50000000E-01  8.50000000E-01
  8.50000000E-01  8.50000000E-01  8.50000000E-01  8.50000000E-01  8.50000000E-01
  8.50000000E-01  8.50000000E-01  8.50000000E-01  8.50000000E-01  8.50000000E-01
  8.50000000E-01  8.50000000E-01  8.50000000E-01  8.50000000E-01  8.50000000E-01
  8.50000000E-01  8.50000000E-01  8.50000000E-01  8.50000000E-01  8.50000000E-01
  8.50000000E-01  8.50000000E-01  8.50000000E-01  8.50000000E-01  8.50000000E-01
  8.50000000E-01  8.50000000E-01  8.50000000E-01  8.50000000E-01  8.50000000E-01
  8.50000000E-01  8.50000000E-01  8.50000000E-01  8.50000000E-01  8.50000000E-01
  8.50000000E-01  8.50000000E-01  8.50000000E-01  8.50000000E-01  8.50000000E-01
  8.50000000E-01  8.50000000E-01  8.50000000E-01  8.50000000E-01  8.50000000E-01
  8.50000000E-01  8.50000000E-01  8.50000000E-01  8.50000000E-01  8.50000000E-01
  8.50000000E-01  8.50000000E-01  8.50000000E-01  8.50000000E-01  8.50000000E-01
  8.50000000E-01  8.50000000E-01  8.50000000E-01  8.50000000E-01  8.50000000E-01
  8.50000000E-01  8.50000000E-01  8.50000000E-01  8.50000000E-01  8.50000000E-01
  8.50000000E-01  8.50000000E-01  8.50000000E-01  8.50000000E-01  8.50000000E-01
  8.50000000E-01  8.50000000E-01  8.50000000E-01  8.50000000E-01  8.50000000E-01
  8.50000000E-01  8.50000000E-01  8.50000000E-01  8.50000000E-01  8.50000000E-01
  8.50000000E-01  8.50000000E-01  8.50000000E-01  8.50000000E-01  8.50000000E-01
  8.50000000E-01  8.50000000E-01  8.50000000E-01  8.50000000E-01  8.50000000E-01
  8.50000000E-01  8.50000000E-01  8.50000000E-01  8.50000000E-01  8.50000000E-01
  8.50000000E-01  8.50000000E-01  8.50000000E-01  8.50000000E-01  8.50000000E-01
  8.50000000E-01  8.50000000E-01  8.50000000E-01  8.50000000E-01  8.50000000E-01
  8.50000000E-01  8.50000000E-01  8.50000000E-01  8.50000000E-01  8.50000000E-01
  8.50000000E-01  8.50000000E-01  8.50000000E-01  8.50000000E-01  8.50000000E-01
  8.50000000E-01  8.50000000E-01  8.50000000E-01  8.50000000E-01  8.50000000E-01
  8.50000000E-01  8.50000000E-01  8.50000000E-01  8.50000000E-01  8.50000000E-01
  8.50000000E-01  8.50000000E-01  8.50000000E-01  8.50000000E-01  8.50000000E-01
  8.50000000E-01  8.50000000E-01  8.50000000E-01  8.50000000E-01  8.50000000E-01
  8.50000000E-01  8.50000000E-01  8.50000000E-01  8.50000000E-01  8.50000000E-01
  8.50000000E-01  8.50000000E-01  8.50000000E-01  8.50000000E-01  8.50000000E-01
  8.50000000E-01  8.50000000E-01  8.50000000E-01  8.50000000E-01  8.50000000E-01
  8.50000000E-01  8.50000000E-01  8.50000000E-01  8.50000000E-01  8.50000000E-01
  8.50000000E-01  8.50000000E-01  8.50000000E-01  8.50000000E-01  8.50000000E-01
  8.50000000E-01  8.50000000E-01  8.50000000E-01  8.50000000E-01  8.50000000E-01
  8.50000000E-01  8.50000000E-01  8.50000000E-01  8.50000000E-01  8.50000000E-01
  8.50000000E-01  8.50000000E-01  8.50000000E-01  8.50000000E-01  8.50000000E-01
  8.50000000E-01  8.50000000E-01  8.50000000E-01  8.50000000E-01  8.50000000E-01
  8.50000000E-01  8.50000000E-01  8.50000000E-01  8.50000000E-01  8.50000000E-01
  8.50000000E-01  8.50000000E-01  8.50000000E-01  8.50000000E-01  8.50000000E-01
  8.50000000E-01  8.50000000E-01  8.50000000E-01  8.50000000E-01  8.50000000E-01
  8.50000000E-01  8.50000000E-01  8.50000000E-01  8.50000000E-01  8.50000000E-01
  8.50000000E-01  8.50000000E-01  8.50000000E-01  8.50000000E-01  8.50000000E-01
  8.50000000E-01  8.50000000E-01  8.50000000E-01  8.50000000E-01  8.50000000E-01
  8.50000000E-01  8.50000000E-01  8.50000000E-01  8.50000000E-01  8.50000000E-01
  8.50000000E-01  8.50000000E-01  8.50000000E-01  8.50000000E-01  8.50000000E-01
  8.50000000E-01  8.50000000E-01  8.50000000E-01  8.50000000E-01  8.50000000E-01
  8.50000000E-01  8.50000000E-01  8.50000000E-01  8.50000000E-01  8.50000000E-01
  8.50000000E-01  8.50000000E-01  8.50000000E-01  8.50000000E-01  8.50000000E-01
  8.50000000E-01  8.50000000E-01  8.50000000E-01  8.50000000E-01  8.50000000E-01
  8.50000000E-01  8.50000000E-01  8.50000000E-01  8.50000000E-01  8.50000000E-01
  8.50000000E-01  8.50000000E-01  8.50000000E-01  8.50000000E-01  8.50000000E-01
  8.50000000E-01  8.50000000E-01  8.50000000E-01  8.50000000E-01  8.50000000E-01
  8.50000000E-01  8.50000000E-01  8.50000000E-01  8.50000000E-01  8.50000000E-01
  8.50000000E-01  8.50000000E-01  8.50000000E-01  8.50000000E-01  8.50000000E-01
  8.50000000E-01  8.50000000E-01  8.50000000E-01  8.50000000E-01  8.50000000E-01
  8.50000000E-01  8.50000000E-01  8.50000000E-01  8.50000000E-01  8.50000000E-01
  8.50000000E-01  8.50000000E-01  8.50000000E-01  8.50000000E-01  8.50000000E-01
  8.50000000E-01  8.50000000E-01  8.50000000E-01  8.50000000E-01  8.50000000E-01
  8.50000000E-01  8.50000000E-01  8.50000000E-01  8.50000000E-01  8.50000000E-01
  8.50000000E-01  8.50000000E-01  8.50000000E-01  8.50000000E-01  8.50000000E-01
  8.50000000E-01  8.50000000E-01  8.50000000E-01  8.50000000E-01  8.50000000E-01
  8.50000000E-01  8.50000000E-01  8.50000000E-01  8.50000000E-01  8.50000000E-01
  8.50000000E-01  8.50000000E-01  8.50000000E-01  8.50000000E-01  8.50000000E-01
  8.50000000E-01  8.50000000E-01  8.50000000E-01  8.50000000E-01  8.50000000E-01
  8.50000000E-01  8.50000000E-01  8.50000000E-01  8.50000000E-01  8.50000000E-01
  8.50000000E-01  8.50000000E-01  8.50000000E-01  8.50000000E-01  8.50000000E-01
  8.50000000E-01  8.50000000E-01  8.50000000E-01  8.50000000E-01  8.50000000E-01
  8.50000000E-01  8.50000000E-01  8.50000000E-01  8.50000000E-01  8.50000000E-01
  8.50000000E-01  8.50000000E-01  8.50000000E-01  8.50000000E-01  8.50000000E-01
  8.50000000E-01  8.50000000E-01  8.50000000E-01  8.50000000E-01  8.50000000E-01
  8.50000000E-01  8.50000000E-01  8.50000000E-01  8.50000000E-01  8.50000000E-01
  8.50000000E-01  8.50000000E-01  8.50000000E-01  8.50000000E-01  8.50000000E-01
  8.50000000E-01  8.50000000E-01  8.50000000E-01  8.50000000E-01  8.50000000E-01
  8.50000000E-01  8.50000000E-01  8.50000000E-01  8.50000000E-01  8.50000000E-01
  8.50000000E-01  8.50000000E-01  8.50000000E-01  8.50000000E-01  8.50000000E-01
  8.50000000E-01  8.50000000E-01  8.50000000E-01  8.50000000E-01  8.50000000E-01
  8.50000000E-01  8.50000000E-01  8.50000000E-01  8.50000000E-01  8.50000000E-01
  8.50000000E-01  8.50000000E-01  8.50000000E-01  8.50000000E-01  8.50000000E-01
  8.50000000E-01  8.50000000E-01  8.50000000E-01  8.50000000E-01  8.50000000E-01
  8.50000000E-01  8.50000000E-01  8.50000000E-01  8.50000000E-01  8.50000000E-01
  8.50000000E-01  8.50000000E-01  8.50000000E-01  8.50000000E-01  8.50000000E-01
  8.50000000E-01  8.50000000E-01  8.50000000E-01  8.50000000E-01  8.50000000E-01
  8.50000000E-01  8.50000000E-01  8.50000000E-01  8.50000000E-01  8.50000000E-01
  8.50000000E-01  8.50000000E-01  8.50000000E-01  8.50000000E-01  8.50000000E-01
  8.50000000E-01  8.50000000E-01  8.50000000E-01  8.50000000E-01  8.50000000E-01
  8.50000000E-01  8.50000000E-01  8.50000000E-01  8.50000000E-01  8.50000000E-01
  8.50000000E-01  8.50000000E-01  8.50000000E-01  8.50000000E-01  8.50000000E-01
  8.50000000E-01  8.50000000E-01  8.50000000E-01  8.50000000E-01  8.50000000E-01
  8.50000000E-01  8.50000000E-01  8.50000000E-01  8.50000000E-01  8.50000000E-01
  8.50000000E-01  8.50000000E-01  8.50000000E-01  8.50000000E-01  8.50000000E-01
  8.50000000E-01  8.50000000E-01  8.50000000E-01  8.50000000E-01  8.50000000E-01
  8.50000000E-01  8.50000000E-01  8.50000000E-01  8.50000000E-01  8.50000000E-01
  8.50000000E-01  8.50000000E-01  8.50000000E-01  8.50000000E-01  8.50000000E-01
  8.50000000E-01  8.50000000E-01  8.50000000E-01  8.50000000E-01  8.50000000E-01
  8.50000000E-01  8.50000000E-01  8.50000000E-01  8.50000000E-01  8.50000000E-01
  8.50000000E-01  8.50000000E-01  8.50000000E-01  8.50000000E-01  8.50000000E-01
  8.50000000E-01  8.50000000E-01  8.50000000E-01  8.50000000E-01  8.50000000E-01
  8.50000000E-01  8.50000000E-01  8.50000000E-01  8.50000000E-01  8.50000000E-01
  8.50000000E-01  8.50000000E-01  8.50000000E-01  8.50000000E-01  8.50000000E-01
  8.50000000E-01  8.50000000E-01  8.50000000E-01  8.50000000E-01  8.50000000E-01
  8.50000000E-01  8.50000000E-01  8.50000000E-01  8.50000000E-01  8.50000000E-01
  8.50000000E-01  8.50000000E-01  8.50000000E-01  8.50000000E-01  8.50000000E-01
  8.50000000E-01  8.50000000E-01  8.50000000E-01  8.50000000E-01  8.50000000E-01
  8.50000000E-01  8.50000000E-01  8.50000000E-01  8.50000000E-01  8.50000000E-01
  8.50000000E-01  8.50000000E-01  8.50000000E-01  8.50000000E-01  8.50000000E-01
  8.50000000E-01  8.50000000E-01  8.50000000E-01  8.50000000E-01  8.50000000E-01
  8.50000000E-01  8.50000000E-01  8.50000000E-01  8.50000000E-01  8.50000000E-01
  8.50000000E-01  8.50000000E-01  8.50000000E-01  8.50000000E-01  8.50000000E-01
  8.50000000E-01  8.50000000E-01  8.50000000E-01  8.50000000E-01  8.50000000E-01
  8.50000000E-01  8.50000000E-01  8.50000000E-01  8.50000000E-01  8.50000000E-01
  8.50000000E-01  8.50000000E-01  8.50000000E-01  8.50000000E-01  8.50000000E-01
  8.50000000E-01  8.50000000E-01  8.50000000E-01  8.50000000E-01  8.50000000E-01
  8.50000000E-01  8.50000000E-01  8.50000000E-01  8.50000000E-01  8.50000000E-01
  8.50000000E-01  8.50000000E-01  8.50000000E-01  8.50000000E-01  8.50000000E-01
  8.50000000E-01  8.50000000E-01  8.50000000E-01  8.50000000E-01  8.50000000E-01
  8.50000000E-01  8.50000000E-01  8.50000000E-01  8.50000000E-01  8.50000000E-01
  8.50000000E-01  8.50000000E-01  8.50000000E-01  8.50000000E-01  8.50000000E-01
  8.50000000E-01  8.50000000E-01  8.50000000E-01  8.50000000E-01  8.50000000E-01
  8.50000000E-01  8.50000000E-01  8.50000000E-01  8.50000000E-01  8.50000000E-01
  8.50000000E-01  8.50000000E-01  8.50000000E-01  8.50000000E-01  8.50000000E-01
  8.50000000E-01  8.50000000E-01  8.50000000E-01  8.50000000E-01  8.50000000E-01
  8.50000000E-01  8.50000000E-01  8.50000000E-01  8.50000000E-01  8.50000000E-01
  8.50000000E-01  8.50000000E-01  8.50000000E-01  8.50000000E-01  8.50000000E-01
  8.50000000E-01  8.50000000E-01  8.50000000E-01  8.50000000E-01  8.50000000E-01
  8.50000000E-01  8.50000000E-01  8.50000000E-01  8.50000000E-01  8.50000000E-01
  8.50000000E-01  8.50000000E-01  8.50000000E-01  8.50000000E-01  8.50000000E-01
  8.50000000E-01  8.50000000E-01  8.50000000E-01  8.50000000E-01  8.50000000E-01
  8.50000000E-01  8.50000000E-01  8.50000000E-01  8.50000000E-01  8.50000000E-01
  8.50000000E-01  8.50000000E-01  8.50000000E-01  8.50000000E-01  8.50000000E-01
  8.50000000E-01  8.50000000E-01  8.50000000E-01  8.50000000E-01  8.50000000E-01
  8.50000000E-01  8.50000000E-01  8.50000000E-01  8.50000000E-01  8.50000000E-01
  8.50000000E-01  8.50000000E-01  8.50000000E-01  8.50000000E-01  8.50000000E-01
  8.50000000E-01  8.50000000E-01  8.50000000E-01  8.50000000E-01  8.50000000E-01
  8.50000000E-01  8.50000000E-01  8.50000000E-01  8.50000000E-01  8.50000000E-01
  8.50000000E-01  8.50000000E-01  8.50000000E-01  8.50000000E-01  8.50000000E-01
  8.50000000E-01  8.50000000E-01  8.50000000E-01  8.50000000E-01  8.50000000E-01
  8.50000000E-01  8.50000000E-01  8.50000000E-01  8.50000000E-01  8.50000000E-01
  8.50000000E-01  8.50000000E-01  8.50000000E-01  8.50000000E-01  8.50000000E-01
  8.50000000E-01  8.50000000E-01  8.50000000E-01  8.50000000E-01  8.50000000E-01
  8.50000000E-01  8.50000000E-01  8.50000000E-01  8.50000000E-01  8.50000000E-01
  8.50000000E-01  8.50000000E-01  8.50000000E-01  8.50000000E-01  8.50000000E-01
  8.50000000E-01  8.50000000E-01  8.50000000E-01  8.50000000E-01  8.50000000E-01
  8.50000000E-01  8.50000000E-01  8.50000000E-01  8.50000000E-01  8.50000000E-01
  8.50000000E-01  8.50000000E-01  8.50000000E-01  8.50000000E-01  8.50000000E-01
  8.50000000E-01  8.50000000E-01  8.50000000E-01  8.50000000E-01  8.50000000E-01
  8.50000000E-01  8.50000000E-01  8.50000000E-01  8.50000000E-01  8.50000000E-01
  8.50000000E-01  8.50000000E-01  8.50000000E-01  8.50000000E-01  8.50000000E-01
  8.50000000E-01  8.50000000E-01  8.50000000E-01  8.50000000E-01  8.50000000E-01
  8.50000000E-01  8.50000000E-01  8.50000000E-01  8.50000000E-01  8.50000000E-01
  8.50000000E-01  8.50000000E-01  8.50000000E-01  8.50000000E-01  8.50000000E-01
  8.50000000E-01  8.50000000E-01  8.50000000E-01  8.50000000E-01  8.50000000E-01
  8.50000000E-01  8.50000000E-01  8.50000000E-01  8.50000000E-01  8.50000000E-01
  8.50000000E-01  8.50000000E-01  8.50000000E-01  8.50000000E-01  8.50000000E-01
  8.50000000E-01  8.50000000E-01  8.50000000E-01  8.50000000E-01  8.50000000E-01
  8.50000000E-01  8.50000000E-01  8.50000000E-01  8.50000000E-01  8.50000000E-01
  8.50000000E-01  8.50000000E-01  8.50000000E-01  8.50000000E-01  8.50000000E-01
  8.50000000E-01  8.50000000E-01  8.50000000E-01  8.50000000E-01  8.50000000E-01
  8.50000000E-01  8.50000000E-01  8.50000000E-01  8.50000000E-01  8.50000000E-01
  8.50000000E-01  8.50000000E-01  8.50000000E-01  8.50000000E-01  8.50000000E-01
  8.50000000E-01  8.50000000E-01  8.50000000E-01  8.50000000E-01  8.50000000E-01
  8.50000000E-01  8.50000000E-01  8.50000000E-01  8.50000000E-01  8.50000000E-01
  8.50000000E-01  8.50000000E-01  8.50000000E-01  8.50000000E-01  8.50000000E-01
  8.50000000E-01  8.50000000E-01  8.50000000E-01  8.50000000E-01  8.50000000E-01
  8.50000000E-01  8.50000000E-01  8.50000000E-01  8.50000000E-01  8.50000000E-01
  8.50000000E-01  8.50000000E-01  8.50000000E-01  8.50000000E-01  8.50000000E-01
  8.50000000E-01  8.50000000E-01  8.50000000E-01  8.50000000E-01  8.50000000E-01
  8.50000000E-01  8.50000000E-01  8.50000000E-01  8.50000000E-01  8.50000000E-01
  8.50000000E-01  8.50000000E-01  8.50000000E-01  8.50000000E-01  8.50000000E-01
  8.50000000E-01  8.50000000E-01  8.50000000E-01  8.50000000E-01  8.50000000E-01
  8.50000000E-01  8.50000000E-01  8.50000000E-01  8.50000000E-01  8.50000000E-01
  8.50000000E-01  8.50000000E-01  8.50000000E-01  8.50000000E-01  8.50000000E-01
  8.50000000E-01  8.50000000E-01  8.50000000E-01  8.50000000E-01  8.50000000E-01
  8.50000000E-01  8.50000000E-01  8.50000000E-01  8.50000000E-01  8.50000000E-01
  8.50000000E-01  8.50000000E-01  8.50000000E-01  8.50000000E-01  8.50000000E-01
  8.50000000E-01  8.50000000E-01  8.50000000E-01  8.50000000E-01  8.50000000E-01
  8.50000000E-01  8.50000000E-01  8.50000000E-01  8.50000000E-01  8.50000000E-01
  8.50000000E-01  8.50000000E-01  8.50000000E-01  8.50000000E-01  8.50000000E-01
  8.50000000E-01  8.50000000E-01  8.50000000E-01  8.50000000E-01  8.50000000E-01
  8.50000000E-01  8.50000000E-01  8.50000000E-01  8.50000000E-01  8.50000000E-01
  8.50000000E-01  8.50000000E-01  8.50000000E-01  8.50000000E-01  8.50000000E-01
  8.50000000E-01  8.50000000E-01  8.50000000E-01  8.50000000E-01  8.50000000E-01
  8.50000000E-01  8.50000000E-01  8.50000000E-01  8.50000000E-01  8.50000000E-01
  8.50000000E-01  8.50000000E-01  8.50000000E-01  8.50000000E-01  8.50000000E-01
  8.50000000E-01  8.50000000E-01  8.50000000E-01  8.50000000E-01  8.50000000E-01
  8.50000000E-01  8.50000000E-01  8.50000000E-01  8.50000000E-01  8.50000000E-01
  8.50000000E-01  8.50000000E-01  8.50000000E-01  8.50000000E-01  8.50000000E-01
  8.50000000E-01  8.50000000E-01  8.50000000E-01  8.50000000E-01  8.50000000E-01
  8.50000000E-01  8.50000000E-01  8.50000000E-01  8.50000000E-01  8.50000000E-01
  8.50000000E-01  8.50000000E-01  8.50000000E-01  8.50000000E-01  8.50000000E-01
  8.50000000E-01  8.50000000E-01  8.50000000E-01  8.50000000E-01  8.50000000E-01
  8.50000000E-01  8.50000000E-01  8.50000000E-01  8.50000000E-01  8.50000000E-01
  8.50000000E-01  8.50000000E-01  8.50000000E-01  8.50000000E-01  8.50000000E-01
  8.50000000E-01  8.50000000E-01  8.50000000E-01  8.50000000E-01  8.50000000E-01
  8.50000000E-01  8.50000000E-01  8.50000000E-01  8.50000000E-01  8.50000000E-01
  8.50000000E-01  8.50000000E-01  8.50000000E-01  8.50000000E-01  8.50000000E-01
  8.50000000E-01  8.50000000E-01  8.50000000E-01  8.50000000E-01  8.50000000E-01
  8.50000000E-01  8.50000000E-01  8.50000000E-01  8.50000000E-01  8.50000000E-01
  8.50000000E-01  8.50000000E-01  8.50000000E-01  8.50000000E-01  8.50000000E-01
  8.50000000E-01  8.50000000E-01  8.50000000E-01  8.50000000E-01  8.50000000E-01
  8.50000000E-01  8.50000000E-01  8.50000000E-01  8.50000000E-01  8.50000000E-01
  8.50000000E-01  8.50000000E-01  8.50000000E-01  8.50000000E-01  8.50000000E-01
  8.50000000E-01  8.50000000E-01  8.50000000E-01  8.50000000E-01  8.50000000E-01
  8.50000000E-01  8.50000000E-01  8.50000000E-01  8.50000000E-01  8.50000000E-01
  8.50000000E-01  8.50000000E-01  8.50000000E-01  8.50000000E-01  8.50000000E-01
  8.50000000E-01  8.50000000E-01  8.50000000E-01  8.50000000E-01  8.50000000E-01
  8.50000000E-01  8.50000000E-01  8.50000000E-01  8.50000000E-01  8.50000000E-01
  8.50000000E-01  8.50000000E-01  8.50000000E-01  8.50000000E-01  8.50000000E-01
  8.50000000E-01  8.50000000E-01  8.50000000E-01  8.50000000E-01  8.50000000E-01
  8.50000000E-01  8.50000000E-01  8.50000000E-01  8.50000000E-01  8.50000000E-01
  8.50000000E-01  8.50000000E-01  8.50000000E-01  8.50000000E-01  8.50000000E-01
  8.50000000E-01  8.50000000E-01  8.50000000E-01  8.50000000E-01  8.50000000E-01
  8.50000000E-01  8.50000000E-01  8.50000000E-01  8.50000000E-01  8.50000000E-01
  8.50000000E-01  8.50000000E-01  8.50000000E-01  8.50000000E-01  8.50000000E-01
  8.50000000E-01  8.50000000E-01  8.50000000E-01  8.50000000E-01  8.50000000E-01
  8.50000000E-01  8.50000000E-01  8.50000000E-01  8.50000000E-01  8.50000000E-01
  8.50000000E-01  8.50000000E-01  8.50000000E-01  8.50000000E-01  8.50000000E-01
  8.50000000E-01  8.50000000E-01  8.50000000E-01  8.50000000E-01  8.50000000E-01
  8.50000000E-01  8.50000000E-01  8.50000000E-01  8.50000000E-01  8.50000000E-01
  8.50000000E-01  8.50000000E-01  8.50000000E-01  8.50000000E-01  8.50000000E-01
  8.50000000E-01  8.50000000E-01  8.50000000E-01  8.50000000E-01  8.50000000E-01
  8.50000000E-01  8.50000000E-01  8.50000000E-01  8.50000000E-01  8.50000000E-01
  8.50000000E-01  8.50000000E-01  8.50000000E-01  8.50000000E-01  8.50000000E-01
  8.50000000E-01  8.50000000E-01  8.50000000E-01  8.50000000E-01  8.50000000E-01
  8.50000000E-01  8.50000000E-01  8.50000000E-01  8.50000000E-01  8.50000000E-01
  8.50000000E-01  8.50000000E-01  8.50000000E-01  8.50000000E-01  8.50000000E-01
  8.50000000E-01  8.50000000E-01  8.50000000E-01  8.50000000E-01  8.50000000E-01
  8.50000000E-01  8.50000000E-01  8.50000000E-01  8.50000000E-01  8.50000000E-01
  8.50000000E-01  8.50000000E-01  8.50000000E-01  8.50000000E-01  8.50000000E-01
  8.50000000E-01  8.50000000E-01  8.50000000E-01  8.50000000E-01  8.50000000E-01
  8.50000000E-01  8.50000000E-01  8.50000000E-01  8.50000000E-01  8.50000000E-01
  8.50000000E-01  8.50000000E-01  8.50000000E-01  8.50000000E-01  8.50000000E-01
  8.50000000E-01  8.50000000E-01  8.50000000E-01  8.50000000E-01  8.50000000E-01
  8.50000000E-01  8.50000000E-01  8.50000000E-01  8.50000000E-01  8.50000000E-01
  8.50000000E-01  8.50000000E-01  8.50000000E-01  8.50000000E-01  8.50000000E-01
  8.50000000E-01  8.50000000E-01  8.50000000E-01  8.50000000E-01  8.50000000E-01
  8.50000000E-01  8.50000000E-01  8.50000000E-01  8.50000000E-01  8.50000000E-01
  8.50000000E-01  8.50000000E-01  8.50000000E-01  8.50000000E-01  8.50000000E-01
  8.50000000E-01  8.50000000E-01  8.50000000E-01  8.50000000E-01  8.50000000E-01
  8.50000000E-01  8.50000000E-01  8.50000000E-01  8.50000000E-01  8.50000000E-01
  8.50000000E-01  8.50000000E-01  8.50000000E-01  8.50000000E-01  8.50000000E-01
  8.50000000E-01  8.50000000E-01  8.50000000E-01  8.50000000E-01  8.50000000E-01
  8.50000000E-01  8.50000000E-01  8.50000000E-01  8.50000000E-01  8.50000000E-01
  8.50000000E-01  8.50000000E-01  8.50000000E-01  8.50000000E-01  8.50000000E-01
  8.50000000E-01  8.50000000E-01  8.50000000E-01  8.50000000E-01  8.50000000E-01
  8.50000000E-01  8.50000000E-01  8.50000000E-01  8.50000000E-01  8.50000000E-01
  8.50000000E-01  8.50000000E-01  8.50000000E-01  8.50000000E-01  8.50000000E-01
  8.50000000E-01  8.50000000E-01  8.50000000E-01  8.50000000E-01  8.50000000E-01
  8.50000000E-01  8.50000000E-01  8.50000000E-01  8.50000000E-01  8.50000000E-01
  8.50000000E-01  8.50000000E-01  8.50000000E-01  8.50000000E-01  8.50000000E-01
  8.50000000E-01  8.50000000E-01  8.50000000E-01  8.50000000E-01  8.50000000E-01
  8.50000000E-01  8.50000000E-01  8.50000000E-01  8.50000000E-01  8.50000000E-01
  8.50000000E-01  8.50000000E-01  8.50000000E-01  8.50000000E-01  8.50000000E-01
  8.50000000E-01  8.50000000E-01  8.50000000E-01  8.50000000E-01  8.50000000E-01
  8.50000000E-01  8.50000000E-01  8.50000000E-01  8.50000000E-01  8.50000000E-01
  8.50000000E-01  8.50000000E-01  8.50000000E-01  8.50000000E-01  8.50000000E-01
  8.50000000E-01  8.50000000E-01  8.50000000E-01  8.50000000E-01  8.50000000E-01
  8.50000000E-01  8.50000000E-01  8.50000000E-01  8.50000000E-01  8.50000000E-01
  8.50000000E-01  8.50000000E-01  8.50000000E-01  8.50000000E-01  8.50000000E-01
  8.50000000E-01  8.50000000E-01  8.50000000E-01  8.50000000E-01  8.50000000E-01
  8.50000000E-01  8.50000000E-01  8.50000000E-01  8.50000000E-01  8.50000000E-01
  8.50000000E-01  8.50000000E-01  8.50000000E-01  8.50000000E-01  8.50000000E-01
  8.50000000E-01  8.50000000E-01  8.50000000E-01  8.50000000E-01  8.50000000E-01
  8.50000000E-01  8.50000000E-01  8.50000000E-01  8.50000000E-01  8.50000000E-01
  8.50000000E-01  8.50000000E-01  8.50000000E-01  8.50000000E-01  8.50000000E-01
  8.50000000E-01  8.50000000E-01  8.50000000E-01  8.50000000E-01  8.50000000E-01
  8.50000000E-01  8.50000000E-01  8.50000000E-01  8.50000000E-01  8.50000000E-01
  8.50000000E-01  8.50000000E-01  8.50000000E-01  8.50000000E-01  8.50000000E-01
  8.50000000E-01  8.50000000E-01  8.50000000E-01  8.50000000E-01  8.50000000E-01
  8.50000000E-01  8.50000000E-01  8.50000000E-01  8.50000000E-01  8.50000000E-01
  8.50000000E-01  8.50000000E-01  8.50000000E-01  8.50000000E-01  8.50000000E-01
  8.50000000E-01  8.50000000E-01  8.50000000E-01  8.50000000E-01  8.50000000E-01
  8.50000000E-01  8.50000000E-01  8.50000000E-01  8.50000000E-01  8.50000000E-01
  8.50000000E-01  8.50000000E-01  8.50000000E-01  8.50000000E-01  8.50000000E-01
  8.50000000E-01  8.50000000E-01  8.50000000E-01  8.50000000E-01  8.50000000E-01
  8.50000000E-01  8.50000000E-01  8.50000000E-01  8.50000000E-01  8.50000000E-01
  8.50000000E-01  8.50000000E-01  8.50000000E-01  8.50000000E-01  8.50000000E-01
  8.50000000E-01  8.50000000E-01  8.50000000E-01  8.50000000E-01  8.50000000E-01
  8.50000000E-01  8.50000000E-01  8.50000000E-01  8.50000000E-01  8.50000000E-01
  8.50000000E-01  8.50000000E-01  8.50000000E-01  8.50000000E-01  8.50000000E-01
  8.50000000E-01  8.50000000E-01  8.50000000E-01  8.50000000E-01  8.50000000E-01
  8.50000000E-01  8.50000000E-01  8.50000000E-01  8.50000000E-01  8.50000000E-01
  8.50000000E-01  8.50000000E-01  8.50000000E-01  8.50000000E-01  8.50000000E-01
  8.50000000E-01  8.50000000E-01  8.50000000E-01  8.50000000E-01  8.50000000E-01
  8.50000000E-01  8.50000000E-01  8.50000000E-01  8.50000000E-01  8.50000000E-01
  8.50000000E-01  8.50000000E-01  8.50000000E-01  8.50000000E-01  8.50000000E-01
  8.50000000E-01  8.50000000E-01  8.50000000E-01  8.50000000E-01  8.50000000E-01
  8.50000000E-01  8.50000000E-01  8.50000000E-01  8.50000000E-01  8.50000000E-01
  8.50000000E-01  8.50000000E-01  8.50000000E-01  8.50000000E-01  8.50000000E-01
  8.50000000E-01  8.50000000E-01  8.50000000E-01  8.50000000E-01  8.50000000E-01
  8.50000000E-01  8.50000000E-01  8.50000000E-01  8.50000000E-01  8.50000000E-01
  8.50000000E-01  8.50000000E-01  8.50000000E-01  8.50000000E-01  8.50000000E-01
  8.50000000E-01  8.50000000E-01  8.50000000E-01  8.50000000E-01  8.50000000E-01
  8.50000000E-01  8.50000000E-01  8.50000000E-01  8.50000000E-01  8.50000000E-01
  8.50000000E-01  8.50000000E-01  8.50000000E-01  8.50000000E-01  8.50000000E-01
  8.50000000E-01  8.50000000E-01  8.50000000E-01  8.50000000E-01  8.50000000E-01
  8.50000000E-01  8.50000000E-01  8.50000000E-01  8.50000000E-01  8.50000000E-01
  8.50000000E-01  8.50000000E-01  8.50000000E-01  8.50000000E-01  8.50000000E-01
  8.50000000E-01  8.50000000E-01  8.50000000E-01  8.50000000E-01  8.50000000E-01
  8.50000000E-01  8.50000000E-01  8.50000000E-01  8.50000000E-01  8.50000000E-01
  8.50000000E-01  8.50000000E-01  8.50000000E-01  8.50000000E-01  8.50000000E-01
  8.50000000E-01  8.50000000E-01  8.50000000E-01  8.50000000E-01  8.50000000E-01
  8.50000000E-01  8.50000000E-01  8.50000000E-01  8.50000000E-01  8.50000000E-01
  8.50000000E-01  8.50000000E-01  8.50000000E-01  8.50000000E-01  8.50000000E-01
  8.50000000E-01  8.50000000E-01  8.50000000E-01  8.50000000E-01  8.50000000E-01
  8.50000000E-01  8.50000000E-01  8.50000000E-01  8.50000000E-01  8.50000000E-01
  8.50000000E-01  8.50000000E-01  8.50000000E-01  8.50000000E-01  8.50000000E-01
  8.50000000E-01  8.50000000E-01  8.50000000E-01  8.50000000E-01  8.50000000E-01
  8.50000000E-01  8.50000000E-01  8.50000000E-01  8.50000000E-01  8.50000000E-01
  8.50000000E-01  8.50000000E-01  8.50000000E-01  8.50000000E-01  8.50000000E-01
  8.50000000E-01  8.50000000E-01  8.50000000E-01  8.50000000E-01  8.50000000E-01
  8.50000000E-01  8.50000000E-01  8.50000000E-01  8.50000000E-01  8.50000000E-01
  8.50000000E-01  8.50000000E-01  8.50000000E-01  8.50000000E-01  8.50000000E-01
  8.50000000E-01  8.50000000E-01  8.50000000E-01  8.50000000E-01  8.50000000E-01
  8.50000000E-01  8.50000000E-01  8.50000000E-01  8.50000000E-01  8.50000000E-01
  8.50000000E-01  8.50000000E-01  8.50000000E-01  8.50000000E-01  8.50000000E-01
  8.50000000E-01  8.50000000E-01  8.50000000E-01  8.50000000E-01  8.50000000E-01
  8.50000000E-01  8.50000000E-01  8.50000000E-01  8.50000000E-01  8.50000000E-01
  8.50000000E-01  8.50000000E-01  8.50000000E-01  8.50000000E-01  8.50000000E-01
  8.50000000E-01  8.50000000E-01  8.50000000E-01  8.50000000E-01  8.50000000E-01
  8.50000000E-01  8.50000000E-01  8.50000000E-01  8.50000000E-01  8.50000000E-01
  8.50000000E-01  8.50000000E-01  8.50000000E-01  8.50000000E-01  8.50000000E-01
  8.50000000E-01  8.50000000E-01  8.50000000E-01  8.50000000E-01  8.50000000E-01
  8.50000000E-01  8.50000000E-01  8.50000000E-01  8.50000000E-01  8.50000000E-01
  8.50000000E-01  8.50000000E-01  8.50000000E-01  8.50000000E-01  8.50000000E-01
  8.50000000E-01  8.50000000E-01  8.50000000E-01  8.50000000E-01  8.50000000E-01
  8.50000000E-01  8.50000000E-01  8.50000000E-01  8.50000000E-01  8.50000000E-01
  8.50000000E-01  8.50000000E-01  8.50000000E-01  8.50000000E-01  8.50000000E-01
  8.50000000E-01  8.50000000E-01  8.50000000E-01  8.50000000E-01  8.50000000E-01
  8.50000000E-01  8.50000000E-01  8.50000000E-01  8.50000000E-01  8.50000000E-01
  8.50000000E-01  8.50000000E-01  8.50000000E-01  8.50000000E-01  8.50000000E-01
  8.50000000E-01  8.50000000E-01  8.50000000E-01  8.50000000E-01  8.50000000E-01
  8.50000000E-01  8.50000000E-01  8.50000000E-01  8.50000000E-01  8.50000000E-01
  8.50000000E-01  8.50000000E-01  8.50000000E-01  8.50000000E-01  8.50000000E-01
  8.50000000E-01  8.50000000E-01  8.50000000E-01  8.50000000E-01  8.50000000E-01
  8.50000000E-01  8.50000000E-01  8.50000000E-01  8.50000000E-01  8.50000000E-01
  8.50000000E-01  8.50000000E-01  8.50000000E-01  8.50000000E-01  8.50000000E-01
  8.50000000E-01  8.50000000E-01  8.50000000E-01  8.50000000E-01  8.50000000E-01
  8.50000000E-01  8.50000000E-01  8.50000000E-01  8.50000000E-01  8.50000000E-01
  8.50000000E-01  8.50000000E-01  8.50000000E-01  8.50000000E-01  8.50000000E-01
  8.50000000E-01  8.50000000E-01  8.50000000E-01  8.50000000E-01  8.50000000E-01
  8.50000000E-01  8.50000000E-01  8.50000000E-01  8.50000000E-01  8.50000000E-01
  8.50000000E-01  8.50000000E-01  8.50000000E-01  8.50000000E-01  8.50000000E-01
  8.50000000E-01  8.50000000E-01  8.50000000E-01  8.50000000E-01  8.50000000E-01
  8.50000000E-01  8.50000000E-01  8.50000000E-01  8.50000000E-01  8.50000000E-01
  8.50000000E-01  8.50000000E-01  8.50000000E-01  8.50000000E-01  8.50000000E-01
  8.50000000E-01  8.50000000E-01  8.50000000E-01  8.50000000E-01  8.50000000E-01
  8.50000000E-01  8.50000000E-01  8.50000000E-01  8.50000000E-01  8.50000000E-01
  8.50000000E-01  8.50000000E-01  8.50000000E-01  8.50000000E-01  8.50000000E-01
  8.50000000E-01  8.50000000E-01  8.50000000E-01  8.50000000E-01  8.50000000E-01
  8.50000000E-01  8.50000000E-01  8.50000000E-01  8.50000000E-01  8.50000000E-01
  8.50000000E-01  8.50000000E-01  8.50000000E-01  8.50000000E-01  8.50000000E-01
  8.50000000E-01  8.50000000E-01  8.50000000E-01  8.50000000E-01  8.50000000E-01
  8.50000000E-01  8.50000000E-01  8.50000000E-01  8.50000000E-01  8.50000000E-01
  8.50000000E-01  8.50000000E-01  8.50000000E-01  8.50000000E-01  8.50000000E-01
  8.50000000E-01  8.50000000E-01  8.50000000E-01  8.50000000E-01  8.50000000E-01
  8.50000000E-01  8.50000000E-01  8.50000000E-01  8.50000000E-01  8.50000000E-01
  8.50000000E-01  8.50000000E-01  8.50000000E-01  8.50000000E-01  8.50000000E-01
  8.50000000E-01  8.50000000E-01  8.50000000E-01  8.50000000E-01  8.50000000E-01
  8.50000000E-01  8.50000000E-01  8.50000000E-01  8.50000000E-01  8.50000000E-01
  8.50000000E-01  8.50000000E-01  8.50000000E-01  8.50000000E-01  8.50000000E-01
  8.50000000E-01  8.50000000E-01  8.50000000E-01  8.50000000E-01  8.50000000E-01
  8.50000000E-01  8.50000000E-01  8.50000000E-01  8.50000000E-01  8.50000000E-01
  8.50000000E-01  8.50000000E-01  8.50000000E-01  8.50000000E-01  8.50000000E-01
  8.50000000E-01  8.50000000E-01  8.50000000E-01  8.50000000E-01  8.50000000E-01
  8.50000000E-01  8.50000000E-01  8.50000000E-01  8.50000000E-01  8.50000000E-01
  8.50000000E-01  8.50000000E-01  8.50000000E-01  8.50000000E-01  8.50000000E-01
  8.50000000E-01  8.50000000E-01  8.50000000E-01  8.50000000E-01  8.50000000E-01
  8.50000000E-01  8.50000000E-01  8.50000000E-01  8.50000000E-01  8.50000000E-01
  8.50000000E-01  8.50000000E-01  8.50000000E-01  8.50000000E-01  8.50000000E-01
  8.50000000E-01  8.50000000E-01  8.50000000E-01  8.50000000E-01  8.50000000E-01
  8.50000000E-01  8.50000000E-01  8.50000000E-01  8.50000000E-01  8.50000000E-01
  8.50000000E-01  8.50000000E-01  8.50000000E-01  8.50000000E-01  8.50000000E-01
  8.50000000E-01  8.50000000E-01  8.50000000E-01  8.50000000E-01  8.50000000E-01
  8.50000000E-01  8.50000000E-01  8.50000000E-01  8.50000000E-01  8.50000000E-01
  8.50000000E-01  8.50000000E-01  8.50000000E-01  8.50000000E-01  8.50000000E-01
  8.50000000E-01  8.50000000E-01  8.50000000E-01  8.50000000E-01  8.50000000E-01
  8.50000000E-01  8.50000000E-01  8.50000000E-01  8.50000000E-01  8.50000000E-01
  8.50000000E-01  8.50000000E-01  8.50000000E-01  8.50000000E-01  8.50000000E-01
  8.50000000E-01  8.50000000E-01  8.50000000E-01  8.50000000E-01  8.50000000E-01
  8.50000000E-01  8.50000000E-01  8.50000000E-01  8.50000000E-01  8.50000000E-01
  8.50000000E-01  8.50000000E-01  8.50000000E-01  8.50000000E-01  8.50000000E-01
  8.50000000E-01  8.50000000E-01  8.50000000E-01  8.50000000E-01  8.50000000E-01
  8.50000000E-01  8.50000000E-01  8.50000000E-01  8.50000000E-01  8.50000000E-01
  8.50000000E-01  8.50000000E-01  8.50000000E-01  8.50000000E-01  8.50000000E-01
  8.50000000E-01  8.50000000E-01  8.50000000E-01  8.50000000E-01  8.50000000E-01
  8.50000000E-01  8.50000000E-01  8.50000000E-01  8.50000000E-01  8.50000000E-01
  8.50000000E-01  8.50000000E-01  8.50000000E-01  8.50000000E-01  8.50000000E-01
  8.50000000E-01  8.50000000E-01  8.50000000E-01  8.50000000E-01  8.50000000E-01
  8.50000000E-01  8.50000000E-01  8.50000000E-01  8.50000000E-01  8.50000000E-01
  8.50000000E-01  8.50000000E-01  8.50000000E-01  8.50000000E-01  8.50000000E-01
  8.50000000E-01  8.50000000E-01  8.50000000E-01  8.50000000E-01  8.50000000E-01
  8.50000000E-01  8.50000000E-01  8.50000000E-01  8.50000000E-01  8.50000000E-01
  8.50000000E-01  8.50000000E-01  8.50000000E-01  8.50000000E-01  8.50000000E-01
  8.50000000E-01  8.50000000E-01  8.50000000E-01  8.50000000E-01  8.50000000E-01
  8.50000000E-01  8.50000000E-01  8.50000000E-01  8.50000000E-01  8.50000000E-01
  8.50000000E-01  8.50000000E-01  8.50000000E-01  8.50000000E-01  8.50000000E-01
  8.50000000E-01  8.50000000E-01  8.50000000E-01  8.50000000E-01  8.50000000E-01
  8.50000000E-01  8.50000000E-01  8.50000000E-01  8.50000000E-01  8.50000000E-01
  8.50000000E-01  8.50000000E-01  8.50000000E-01  8.50000000E-01  8.50000000E-01
  8.50000000E-01  8.50000000E-01  8.50000000E-01  8.50000000E-01  8.50000000E-01
  8.50000000E-01  8.50000000E-01  8.50000000E-01  8.50000000E-01  8.50000000E-01
  8.50000000E-01  8.50000000E-01  8.50000000E-01  8.50000000E-01  8.50000000E-01
  8.50000000E-01  8.50000000E-01  8.50000000E-01  8.50000000E-01  8.50000000E-01
  8.50000000E-01  8.50000000E-01  8.50000000E-01  8.50000000E-01  8.50000000E-01
  8.50000000E-01  8.50000000E-01  8.50000000E-01  8.50000000E-01  8.50000000E-01
  8.50000000E-01  8.50000000E-01  8.50000000E-01  8.50000000E-01  8.50000000E-01
  8.50000000E-01  8.50000000E-01  8.50000000E-01  8.50000000E-01  8.50000000E-01
  8.50000000E-01  8.50000000E-01  8.50000000E-01  8.50000000E-01  8.50000000E-01
  8.50000000E-01  8.50000000E-01  8.50000000E-01  8.50000000E-01  8.50000000E-01
  8.50000000E-01  8.50000000E-01  8.50000000E-01  8.50000000E-01  8.50000000E-01
  8.50000000E-01  8.50000000E-01  8.50000000E-01  8.50000000E-01  8.50000000E-01
  8.50000000E-01  8.50000000E-01  8.50000000E-01  8.50000000E-01  8.50000000E-01
  8.50000000E-01  8.50000000E-01  8.50000000E-01  8.50000000E-01  8.50000000E-01
  8.50000000E-01  8.50000000E-01  8.50000000E-01  8.50000000E-01  8.50000000E-01
  8.50000000E-01  8.50000000E-01  8.50000000E-01  8.50000000E-01  8.50000000E-01
  8.50000000E-01  8.50000000E-01  8.50000000E-01  8.50000000E-01  8.50000000E-01
  8.50000000E-01  8.50000000E-01  8.50000000E-01  8.50000000E-01  8.50000000E-01
  8.50000000E-01  8.50000000E-01  8.50000000E-01  8.50000000E-01  8.50000000E-01
  8.50000000E-01  8.50000000E-01  8.50000000E-01  8.50000000E-01  8.50000000E-01
  8.50000000E-01  8.50000000E-01  8.50000000E-01  8.50000000E-01  8.50000000E-01
  8.50000000E-01  8.50000000E-01  8.50000000E-01  8.50000000E-01  8.50000000E-01
  8.50000000E-01  8.50000000E-01  8.50000000E-01  8.50000000E-01  8.50000000E-01
  8.50000000E-01  8.50000000E-01  8.50000000E-01  8.50000000E-01  8.50000000E-01
  8.50000000E-01  8.50000000E-01  8.50000000E-01  8.50000000E-01  8.50000000E-01
  8.50000000E-01  8.50000000E-01  8.50000000E-01  8.50000000E-01  8.50000000E-01
  8.50000000E-01  8.50000000E-01  8.50000000E-01  8.50000000E-01  8.50000000E-01
  8.50000000E-01  8.50000000E-01  8.50000000E-01  8.50000000E-01  8.50000000E-01
  8.50000000E-01  8.50000000E-01  8.50000000E-01  8.50000000E-01  8.50000000E-01
  8.50000000E-01  8.50000000E-01  8.50000000E-01  8.50000000E-01  8.50000000E-01
  8.50000000E-01  8.50000000E-01  8.50000000E-01  8.50000000E-01  8.50000000E-01
  8.50000000E-01  8.50000000E-01  8.50000000E-01  8.50000000E-01  8.50000000E-01
  8.50000000E-01  8.50000000E-01  8.50000000E-01  8.50000000E-01  8.50000000E-01
  8.50000000E-01  8.50000000E-01  8.50000000E-01  8.50000000E-01  8.50000000E-01
  8.50000000E-01  8.50000000E-01  8.50000000E-01  8.50000000E-01  8.50000000E-01
  8.50000000E-01  8.50000000E-01  8.50000000E-01  8.50000000E-01  8.50000000E-01
  8.50000000E-01  8.50000000E-01  8.50000000E-01  8.50000000E-01  8.50000000E-01
  8.50000000E-01  8.50000000E-01  8.50000000E-01  8.50000000E-01  8.50000000E-01
  8.50000000E-01  8.50000000E-01  8.50000000E-01  8.50000000E-01  8.50000000E-01
  8.50000000E-01  8.50000000E-01  8.50000000E-01  8.50000000E-01  8.50000000E-01
  8.50000000E-01  8.50000000E-01  8.50000000E-01  8.50000000E-01  8.50000000E-01
  8.50000000E-01  8.50000000E-01  8.50000000E-01  8.50000000E-01  8.50000000E-01
  8.50000000E-01  8.50000000E-01  8.50000000E-01  8.50000000E-01  8.50000000E-01
  8.50000000E-01  8.50000000E-01  8.50000000E-01  8.50000000E-01  8.50000000E-01
  8.50000000E-01  8.50000000E-01  8.50000000E-01  8.50000000E-01  8.50000000E-01
  8.50000000E-01  8.50000000E-01  8.50000000E-01  8.50000000E-01  8.50000000E-01
  8.50000000E-01  8.50000000E-01  8.50000000E-01  8.50000000E-01  8.50000000E-01
  8.50000000E-01  8.50000000E-01  8.50000000E-01  8.50000000E-01  8.50000000E-01
  8.50000000E-01  8.50000000E-01  8.50000000E-01  8.50000000E-01  8.50000000E-01
  8.50000000E-01  8.50000000E-01  8.50000000E-01  8.50000000E-01  8.50000000E-01
  8.50000000E-01  8.50000000E-01  8.50000000E-01  8.50000000E-01  8.50000000E-01
  8.50000000E-01  8.50000000E-01  8.50000000E-01  8.50000000E-01  8.50000000E-01
  8.50000000E-01  8.50000000E-01  8.50000000E-01  8.50000000E-01  8.50000000E-01
  8.50000000E-01  8.50000000E-01  8.50000000E-01  8.50000000E-01  8.50000000E-01
  8.50000000E-01  8.50000000E-01  8.50000000E-01  8.50000000E-01  8.50000000E-01
  8.50000000E-01  8.50000000E-01  8.50000000E-01  8.50000000E-01  8.50000000E-01
  8.50000000E-01  8.50000000E-01  8.50000000E-01  8.50000000E-01  8.50000000E-01
  8.50000000E-01  8.50000000E-01  8.50000000E-01  8.50000000E-01  8.50000000E-01
  8.50000000E-01  8.50000000E-01  8.50000000E-01  8.50000000E-01  8.50000000E-01
  8.50000000E-01  8.50000000E-01  8.50000000E-01  8.50000000E-01  8.50000000E-01
  8.50000000E-01  8.50000000E-01  8.50000000E-01  8.50000000E-01  8.50000000E-01
  8.50000000E-01  8.50000000E-01  8.50000000E-01  8.50000000E-01  8.50000000E-01
  8.50000000E-01  8.50000000E-01  8.50000000E-01  8.50000000E-01  8.50000000E-01
  8.50000000E-01  8.50000000E-01  8.50000000E-01  8.50000000E-01  8.50000000E-01
  8.50000000E-01  8.50000000E-01  8.50000000E-01  8.50000000E-01  8.50000000E-01
  8.50000000E-01  8.50000000E-01  8.50000000E-01  8.50000000E-01  8.50000000E-01
  8.50000000E-01  8.50000000E-01  8.50000000E-01  8.50000000E-01  8.50000000E-01
  8.50000000E-01  8.50000000E-01  8.50000000E-01  8.50000000E-01  8.50000000E-01
  8.50000000E-01  8.50000000E-01  8.50000000E-01  8.50000000E-01  8.50000000E-01
  8.50000000E-01  8.50000000E-01  8.50000000E-01  8.50000000E-01  8.50000000E-01
  8.50000000E-01  8.50000000E-01  8.50000000E-01  8.50000000E-01  8.50000000E-01
  8.50000000E-01  8.50000000E-01  8.50000000E-01  8.50000000E-01  8.50000000E-01
  8.50000000E-01  8.50000000E-01  8.50000000E-01  8.50000000E-01  8.50000000E-01
  8.50000000E-01  8.50000000E-01  8.50000000E-01  8.50000000E-01  8.50000000E-01
  8.50000000E-01  8.50000000E-01  8.50000000E-01  8.50000000E-01  8.50000000E-01
  8.50000000E-01  8.50000000E-01  8.50000000E-01  8.50000000E-01  8.50000000E-01
  8.50000000E-01  8.50000000E-01  8.50000000E-01  8.50000000E-01  8.50000000E-01
  8.50000000E-01  8.50000000E-01  8.50000000E-01  8.50000000E-01  8.50000000E-01
  8.50000000E-01  8.50000000E-01  8.50000000E-01  8.50000000E-01  8.50000000E-01
  8.50000000E-01  8.50000000E-01  8.50000000E-01  8.50000000E-01  8.50000000E-01
  8.50000000E-01  8.50000000E-01  8.50000000E-01  8.50000000E-01  8.50000000E-01
  8.50000000E-01  8.50000000E-01  8.50000000E-01  8.50000000E-01  8.50000000E-01
  8.50000000E-01  8.50000000E-01  8.50000000E-01  8.50000000E-01  8.50000000E-01
  8.50000000E-01  8.50000000E-01  8.50000000E-01  8.50000000E-01  8.50000000E-01
  8.50000000E-01  8.50000000E-01  8.50000000E-01  8.50000000E-01  8.50000000E-01
  8.50000000E-01  8.50000000E-01  8.50000000E-01  8.50000000E-01  8.50000000E-01
  8.50000000E-01  8.50000000E-01  8.50000000E-01  8.50000000E-01  8.50000000E-01
  8.50000000E-01  8.50000000E-01  8.50000000E-01  8.50000000E-01  8.50000000E-01
  8.50000000E-01  8.50000000E-01  8.50000000E-01  8.50000000E-01  8.50000000E-01
  8.50000000E-01  8.50000000E-01  8.50000000E-01  8.50000000E-01  8.50000000E-01
  8.50000000E-01  8.50000000E-01  8.50000000E-01  8.50000000E-01  8.50000000E-01
  8.50000000E-01  8.50000000E-01  8.50000000E-01  8.50000000E-01  8.50000000E-01
  8.50000000E-01  8.50000000E-01  8.50000000E-01  8.50000000E-01  8.50000000E-01
  8.50000000E-01  8.50000000E-01  8.50000000E-01  8.50000000E-01  8.50000000E-01
  8.50000000E-01  8.50000000E-01  8.50000000E-01  8.50000000E-01  8.50000000E-01
  8.50000000E-01  8.50000000E-01  8.50000000E-01  8.50000000E-01  8.50000000E-01
  8.50000000E-01  8.50000000E-01  8.50000000E-01  8.50000000E-01  8.50000000E-01
  8.50000000E-01  8.50000000E-01  8.50000000E-01  8.50000000E-01  8.50000000E-01
  8.50000000E-01  8.50000000E-01  8.50000000E-01  8.50000000E-01  8.50000000E-01
  8.50000000E-01  8.50000000E-01  8.50000000E-01  8.50000000E-01  8.50000000E-01
  8.50000000E-01  8.50000000E-01  8.50000000E-01  8.50000000E-01  8.50000000E-01
  8.50000000E-01  8.50000000E-01  8.50000000E-01  8.50000000E-01  8.50000000E-01
  8.50000000E-01  8.50000000E-01  8.50000000E-01  8.50000000E-01  8.50000000E-01
  8.50000000E-01  8.50000000E-01  8.50000000E-01  8.50000000E-01  8.50000000E-01
  8.50000000E-01  8.50000000E-01  8.50000000E-01  8.50000000E-01  8.50000000E-01
  8.50000000E-01  8.50000000E-01  8.50000000E-01  8.50000000E-01  8.50000000E-01
  8.50000000E-01  8.50000000E-01  8.50000000E-01  8.50000000E-01  8.50000000E-01
  8.50000000E-01  8.50000000E-01  8.50000000E-01  8.50000000E-01  8.50000000E-01
  8.50000000E-01  8.50000000E-01  8.50000000E-01  8.50000000E-01  8.50000000E-01
  8.50000000E-01  8.50000000E-01  8.50000000E-01  8.50000000E-01  8.50000000E-01
  8.50000000E-01  8.50000000E-01  8.50000000E-01  8.50000000E-01  8.50000000E-01
  8.50000000E-01  8.50000000E-01  8.50000000E-01  8.50000000E-01  8.50000000E-01
  8.50000000E-01  8.50000000E-01  8.50000000E-01  8.50000000E-01  8.50000000E-01
  8.50000000E-01  8.50000000E-01  8.50000000E-01  8.50000000E-01  8.50000000E-01
  8.50000000E-01  8.50000000E-01  8.50000000E-01  8.50000000E-01  8.50000000E-01
  8.50000000E-01  8.50000000E-01  8.50000000E-01  8.50000000E-01  8.50000000E-01
  8.50000000E-01  8.50000000E-01  8.50000000E-01  8.50000000E-01  8.50000000E-01
  8.50000000E-01  8.50000000E-01  8.50000000E-01  8.50000000E-01  8.50000000E-01
  8.50000000E-01  8.50000000E-01  8.50000000E-01  8.50000000E-01  8.50000000E-01
  8.50000000E-01  8.50000000E-01  8.50000000E-01  8.50000000E-01  8.50000000E-01
  8.50000000E-01  8.50000000E-01  8.50000000E-01  8.50000000E-01  8.50000000E-01
  8.50000000E-01  8.50000000E-01  8.50000000E-01  8.50000000E-01  8.50000000E-01
  8.50000000E-01  8.50000000E-01  8.50000000E-01  8.50000000E-01  8.50000000E-01
  8.50000000E-01  8.50000000E-01  8.50000000E-01  8.50000000E-01  8.50000000E-01
  8.50000000E-01  8.50000000E-01  8.50000000E-01  8.50000000E-01  8.50000000E-01
  8.50000000E-01  8.50000000E-01  8.50000000E-01  8.50000000E-01  8.50000000E-01
  8.50000000E-01  8.50000000E-01  8.50000000E-01  8.50000000E-01  8.50000000E-01
  8.50000000E-01  8.50000000E-01  8.50000000E-01  8.50000000E-01  8.50000000E-01
  8.50000000E-01  8.50000000E-01  8.50000000E-01  8.50000000E-01  8.50000000E-01
  8.50000000E-01  8.50000000E-01  8.50000000E-01  8.50000000E-01  8.50000000E-01
  8.50000000E-01  8.50000000E-01  8.50000000E-01  8.50000000E-01  8.50000000E-01
  8.50000000E-01  8.50000000E-01  8.50000000E-01  8.50000000E-01  8.50000000E-01
  8.50000000E-01  8.50000000E-01  8.50000000E-01  8.50000000E-01  8.50000000E-01
  8.50000000E-01  8.50000000E-01  8.50000000E-01  8.50000000E-01  8.50000000E-01
  8.50000000E-01  8.50000000E-01  8.50000000E-01  8.50000000E-01  8.50000000E-01
  8.50000000E-01  8.50000000E-01  8.50000000E-01  8.50000000E-01  8.50000000E-01
  8.50000000E-01  8.50000000E-01  8.50000000E-01  8.50000000E-01  8.50000000E-01
  8.50000000E-01  8.50000000E-01  8.50000000E-01  8.50000000E-01  8.50000000E-01
  8.50000000E-01  8.50000000E-01  8.50000000E-01  8.50000000E-01  8.50000000E-01
  8.50000000E-01  8.50000000E-01  8.50000000E-01  8.50000000E-01  8.50000000E-01
  8.50000000E-01  8.50000000E-01  8.50000000E-01  8.50000000E-01  8.50000000E-01
  8.50000000E-01  8.50000000E-01  8.50000000E-01  8.50000000E-01  8.50000000E-01
  8.50000000E-01  8.50000000E-01  8.50000000E-01  8.50000000E-01  8.50000000E-01
  8.50000000E-01  8.50000000E-01  8.50000000E-01  8.50000000E-01  8.50000000E-01
  8.50000000E-01  8.50000000E-01  8.50000000E-01  8.50000000E-01  8.50000000E-01
  8.50000000E-01  8.50000000E-01  8.50000000E-01  8.50000000E-01  8.50000000E-01
  8.50000000E-01  8.50000000E-01  8.50000000E-01  8.50000000E-01  8.50000000E-01
  8.50000000E-01  8.50000000E-01  8.50000000E-01  8.50000000E-01  8.50000000E-01
  8.50000000E-01  8.50000000E-01  8.50000000E-01  8.50000000E-01  8.50000000E-01
  8.50000000E-01  8.50000000E-01  8.50000000E-01  8.50000000E-01  8.50000000E-01
  8.50000000E-01  8.50000000E-01  8.50000000E-01  8.50000000E-01  8.50000000E-01
  8.50000000E-01  8.50000000E-01  8.50000000E-01  8.50000000E-01  8.50000000E-01
  8.50000000E-01  8.50000000E-01  8.50000000E-01  8.50000000E-01  8.50000000E-01
  8.50000000E-01  8.50000000E-01  8.50000000E-01  8.50000000E-01  8.50000000E-01
  8.50000000E-01  8.50000000E-01  8.50000000E-01  8.50000000E-01  8.50000000E-01
  8.50000000E-01  8.50000000E-01  8.50000000E-01  8.50000000E-01  8.50000000E-01
  8.50000000E-01  8.50000000E-01  8.50000000E-01  8.50000000E-01  8.50000000E-01
  8.50000000E-01  8.50000000E-01  8.50000000E-01  8.50000000E-01  8.50000000E-01
  8.50000000E-01  8.50000000E-01  8.50000000E-01  8.50000000E-01  8.50000000E-01
  8.50000000E-01  8.50000000E-01  8.50000000E-01  8.50000000E-01  8.50000000E-01
  8.50000000E-01  8.50000000E-01  8.50000000E-01  8.50000000E-01  8.50000000E-01
  8.50000000E-01  8.50000000E-01  8.50000000E-01  8.50000000E-01  8.50000000E-01
  8.50000000E-01  8.50000000E-01  8.50000000E-01  8.50000000E-01  8.50000000E-01
  8.50000000E-01  8.50000000E-01  8.50000000E-01  8.50000000E-01  8.50000000E-01
  8.50000000E-01  8.50000000E-01  8.50000000E-01  8.50000000E-01  8.50000000E-01
  8.50000000E-01  8.50000000E-01  8.50000000E-01  8.50000000E-01  8.50000000E-01
  8.50000000E-01  8.50000000E-01  8.50000000E-01  8.50000000E-01  8.50000000E-01
  8.50000000E-01  8.50000000E-01  8.50000000E-01  8.50000000E-01  8.50000000E-01
  8.50000000E-01  8.50000000E-01  8.50000000E-01  8.50000000E-01  8.50000000E-01
  8.50000000E-01  8.50000000E-01  8.50000000E-01  8.50000000E-01  8.50000000E-01
  8.50000000E-01  8.50000000E-01  8.50000000E-01  8.50000000E-01  8.50000000E-01
  8.50000000E-01  8.50000000E-01  8.50000000E-01  8.50000000E-01  8.50000000E-01
  8.50000000E-01  8.50000000E-01  8.50000000E-01  8.50000000E-01  8.50000000E-01
  8.50000000E-01  8.50000000E-01  8.50000000E-01  8.50000000E-01  8.50000000E-01
  8.50000000E-01  8.50000000E-01  8.50000000E-01  8.50000000E-01  8.50000000E-01
  8.50000000E-01  8.50000000E-01  8.50000000E-01  8.50000000E-01  8.50000000E-01
  8.50000000E-01  8.50000000E-01  8.50000000E-01  8.50000000E-01  8.50000000E-01
  8.50000000E-01  8.50000000E-01  8.50000000E-01  8.50000000E-01  8.50000000E-01
  8.50000000E-01  8.50000000E-01  8.50000000E-01  8.50000000E-01  8.50000000E-01
  8.50000000E-01  8.50000000E-01  8.50000000E-01  8.50000000E-01  8.50000000E-01
  8.50000000E-01  8.50000000E-01  8.50000000E-01  8.50000000E-01  8.50000000E-01
  8.50000000E-01  8.50000000E-01  8.50000000E-01  8.50000000E-01  8.50000000E-01
  8.50000000E-01  8.50000000E-01  8.50000000E-01  8.50000000E-01  8.50000000E-01
  8.50000000E-01  8.50000000E-01  8.50000000E-01  8.50000000E-01  8.50000000E-01
  8.50000000E-01  8.50000000E-01  8.50000000E-01  8.50000000E-01  8.50000000E-01
  8.50000000E-01  8.50000000E-01  8.50000000E-01  8.50000000E-01  8.50000000E-01
  8.50000000E-01  8.50000000E-01  8.50000000E-01  8.50000000E-01  8.50000000E-01
  8.50000000E-01  8.50000000E-01  8.50000000E-01  8.50000000E-01  8.50000000E-01
  8.50000000E-01  8.50000000E-01  8.50000000E-01  8.50000000E-01  8.50000000E-01
  8.50000000E-01  8.50000000E-01  8.50000000E-01  8.50000000E-01  8.50000000E-01
  8.50000000E-01  8.50000000E-01  8.50000000E-01  8.50000000E-01  8.50000000E-01
  8.50000000E-01  8.50000000E-01  8.50000000E-01  8.50000000E-01  8.50000000E-01
  8.50000000E-01  8.50000000E-01  8.50000000E-01  8.50000000E-01  8.50000000E-01
  8.50000000E-01  8.50000000E-01  8.50000000E-01  8.50000000E-01  8.50000000E-01
  8.50000000E-01  8.50000000E-01  8.50000000E-01  8.50000000E-01  8.50000000E-01
  8.50000000E-01  8.50000000E-01  8.50000000E-01  8.50000000E-01  8.50000000E-01
  8.50000000E-01  8.50000000E-01  8.50000000E-01  8.50000000E-01  8.50000000E-01
  8.50000000E-01  8.50000000E-01  8.50000000E-01  8.50000000E-01  8.50000000E-01
  8.50000000E-01  8.50000000E-01  8.50000000E-01  8.50000000E-01  8.50000000E-01
  8.50000000E-01  8.50000000E-01  8.50000000E-01  8.50000000E-01  8.50000000E-01
  8.50000000E-01  8.50000000E-01  8.50000000E-01  8.50000000E-01  8.50000000E-01
  8.50000000E-01  8.50000000E-01  8.50000000E-01  8.50000000E-01  8.50000000E-01
  8.50000000E-01  8.50000000E-01  8.50000000E-01  8.50000000E-01  8.50000000E-01
  8.50000000E-01  8.50000000E-01  8.50000000E-01  8.50000000E-01  8.50000000E-01
  8.50000000E-01  8.50000000E-01  8.50000000E-01  8.50000000E-01  8.50000000E-01
  8.50000000E-01  8.50000000E-01  8.50000000E-01  8.50000000E-01  8.50000000E-01
  8.50000000E-01  8.50000000E-01  8.50000000E-01  8.50000000E-01  8.50000000E-01
  8.50000000E-01  8.50000000E-01  8.50000000E-01  8.50000000E-01  8.50000000E-01
  8.50000000E-01  8.50000000E-01  8.50000000E-01  8.50000000E-01  8.50000000E-01
  8.50000000E-01  8.50000000E-01  8.50000000E-01  8.50000000E-01  8.50000000E-01
  8.50000000E-01  8.50000000E-01  8.50000000E-01  8.50000000E-01  8.50000000E-01
  8.50000000E-01  8.50000000E-01  8.50000000E-01  8.50000000E-01  8.50000000E-01
  8.50000000E-01  8.50000000E-01  8.50000000E-01  8.50000000E-01  8.50000000E-01
  8.50000000E-01  8.50000000E-01  8.50000000E-01  8.50000000E-01  8.50000000E-01
  8.50000000E-01  8.50000000E-01  8.50000000E-01  8.50000000E-01  8.50000000E-01
  8.50000000E-01  8.50000000E-01  8.50000000E-01  8.50000000E-01  8.50000000E-01
  8.50000000E-01  8.50000000E-01  8.50000000E-01  8.50000000E-01  8.50000000E-01
  8.50000000E-01  8.50000000E-01  8.50000000E-01  8.50000000E-01  8.50000000E-01
  8.50000000E-01  8.50000000E-01  8.50000000E-01  8.50000000E-01  8.50000000E-01
  8.50000000E-01  8.50000000E-01  8.50000000E-01  8.50000000E-01  8.50000000E-01
  8.50000000E-01  8.50000000E-01  8.50000000E-01  8.50000000E-01  8.50000000E-01
  8.50000000E-01  8.50000000E-01  8.50000000E-01  8.50000000E-01  8.50000000E-01
  8.50000000E-01  8.50000000E-01  8.50000000E-01  8.50000000E-01  8.50000000E-01
  8.50000000E-01  8.50000000E-01  8.50000000E-01  8.50000000E-01  8.50000000E-01
  8.50000000E-01  8.50000000E-01  8.50000000E-01  8.50000000E-01  8.50000000E-01
  8.50000000E-01  8.50000000E-01  8.50000000E-01  8.50000000E-01  8.50000000E-01
  8.50000000E-01  8.50000000E-01  8.50000000E-01  8.50000000E-01  8.50000000E-01
  8.50000000E-01  8.50000000E-01  8.50000000E-01  8.50000000E-01  8.50000000E-01
  8.50000000E-01  8.50000000E-01  8.50000000E-01  8.50000000E-01  8.50000000E-01
  8.50000000E-01  8.50000000E-01  8.50000000E-01  8.50000000E-01  8.50000000E-01
  8.50000000E-01  8.50000000E-01  8.50000000E-01  8.50000000E-01  8.50000000E-01
  8.50000000E-01  8.50000000E-01  8.50000000E-01  8.50000000E-01  8.50000000E-01
  8.50000000E-01  8.50000000E-01  8.50000000E-01  8.50000000E-01  8.50000000E-01
  8.50000000E-01  8.50000000E-01  8.50000000E-01  8.50000000E-01  8.50000000E-01
  8.50000000E-01  8.50000000E-01  8.50000000E-01  8.50000000E-01  8.50000000E-01
  8.50000000E-01  8.50000000E-01  8.50000000E-01  8.50000000E-01  8.50000000E-01
  8.50000000E-01  8.50000000E-01  8.50000000E-01  8.50000000E-01  8.50000000E-01
  8.50000000E-01  8.50000000E-01  8.50000000E-01  8.50000000E-01  8.50000000E-01
  8.50000000E-01  8.50000000E-01  8.50000000E-01  8.50000000E-01  8.50000000E-01
  8.50000000E-01  8.50000000E-01  8.50000000E-01  8.50000000E-01  8.50000000E-01
  8.50000000E-01  8.50000000E-01  8.50000000E-01  8.50000000E-01  8.50000000E-01
  8.50000000E-01  8.50000000E-01  8.50000000E-01  8.50000000E-01  8.50000000E-01
  8.50000000E-01  8.50000000E-01  8.50000000E-01  8.50000000E-01  8.50000000E-01
  8.50000000E-01  8.50000000E-01  8.50000000E-01  8.50000000E-01  8.50000000E-01
  8.50000000E-01  8.50000000E-01  8.50000000E-01  8.50000000E-01  8.50000000E-01
  8.50000000E-01  8.50000000E-01  8.50000000E-01  8.50000000E-01  8.50000000E-01
  8.50000000E-01  8.50000000E-01  8.50000000E-01  8.50000000E-01  8.50000000E-01
  8.50000000E-01  8.50000000E-01  8.50000000E-01  8.50000000E-01  8.50000000E-01
  8.50000000E-01  8.50000000E-01  8.50000000E-01  8.50000000E-01  8.50000000E-01
  8.50000000E-01  8.50000000E-01  8.50000000E-01  8.50000000E-01  8.50000000E-01
  8.50000000E-01  8.50000000E-01  8.50000000E-01  8.50000000E-01  8.50000000E-01
  8.50000000E-01  8.50000000E-01  8.50000000E-01  8.50000000E-01  8.50000000E-01
  8.50000000E-01  8.50000000E-01  8.50000000E-01  8.50000000E-01  8.50000000E-01
  8.50000000E-01  8.50000000E-01  8.50000000E-01  8.50000000E-01  8.50000000E-01
  8.50000000E-01  8.50000000E-01  8.50000000E-01  8.50000000E-01  8.50000000E-01
  8.50000000E-01  8.50000000E-01  8.50000000E-01  8.50000000E-01  8.50000000E-01
  8.50000000E-01  8.50000000E-01  8.50000000E-01  8.50000000E-01  8.50000000E-01
  8.50000000E-01  8.50000000E-01  8.50000000E-01  8.50000000E-01  8.50000000E-01
  8.50000000E-01  8.50000000E-01  8.50000000E-01  8.50000000E-01  8.50000000E-01
  8.50000000E-01  8.50000000E-01  8.50000000E-01  8.50000000E-01  8.50000000E-01
  8.50000000E-01  8.50000000E-01  8.50000000E-01  8.50000000E-01  8.50000000E-01
  8.50000000E-01  8.50000000E-01  8.50000000E-01  8.50000000E-01  8.50000000E-01
  8.50000000E-01  8.50000000E-01  8.50000000E-01  8.50000000E-01  8.50000000E-01
  8.50000000E-01  8.50000000E-01  8.50000000E-01  8.50000000E-01  8.50000000E-01
  8.50000000E-01  8.50000000E-01  8.50000000E-01  8.50000000E-01  8.50000000E-01
  8.50000000E-01  8.50000000E-01  8.50000000E-01  8.50000000E-01  8.50000000E-01
  8.50000000E-01  8.50000000E-01  8.50000000E-01  8.50000000E-01  8.50000000E-01
  8.50000000E-01  8.50000000E-01  8.50000000E-01  8.50000000E-01  8.50000000E-01
  8.50000000E-01  8.50000000E-01  8.50000000E-01  8.50000000E-01  8.50000000E-01
  8.50000000E-01  8.50000000E-01  8.50000000E-01  8.50000000E-01  8.50000000E-01
  8.50000000E-01  8.50000000E-01  8.50000000E-01  8.50000000E-01  8.50000000E-01
  8.50000000E-01  8.50000000E-01  8.50000000E-01  8.50000000E-01  8.50000000E-01
  8.50000000E-01  8.50000000E-01  8.50000000E-01  8.50000000E-01  8.50000000E-01
  8.50000000E-01  8.50000000E-01  8.50000000E-01  8.50000000E-01  8.50000000E-01
  8.50000000E-01  8.50000000E-01  8.50000000E-01  8.50000000E-01  8.50000000E-01
  8.50000000E-01  8.50000000E-01  8.50000000E-01  8.50000000E-01  8.50000000E-01
  8.50000000E-01  8.50000000E-01  8.50000000E-01  8.50000000E-01  8.50000000E-01
  8.50000000E-01  8.50000000E-01  8.50000000E-01  8.50000000E-01  8.50000000E-01
  8.50000000E-01  8.50000000E-01  8.50000000E-01  8.50000000E-01  8.50000000E-01
  8.50000000E-01  8.50000000E-01  8.50000000E-01  8.50000000E-01  8.50000000E-01
  8.50000000E-01  8.50000000E-01  8.50000000E-01  8.50000000E-01  8.50000000E-01
  8.50000000E-01  8.50000000E-01  8.50000000E-01  8.50000000E-01  8.50000000E-01
  8.50000000E-01  8.50000000E-01  8.50000000E-01  8.50000000E-01  8.50000000E-01
  8.50000000E-01  8.50000000E-01  8.50000000E-01  8.50000000E-01  8.50000000E-01
  8.50000000E-01  8.50000000E-01  8.50000000E-01  8.50000000E-01  8.50000000E-01
  8.50000000E-01  8.50000000E-01  8.50000000E-01  8.50000000E-01  8.50000000E-01
  8.50000000E-01  8.50000000E-01  8.50000000E-01  8.50000000E-01  8.50000000E-01
  8.50000000E-01  8.50000000E-01  8.50000000E-01  8.50000000E-01  8.50000000E-01
  8.50000000E-01  8.50000000E-01  8.50000000E-01  8.50000000E-01  8.50000000E-01
  8.50000000E-01  8.50000000E-01  8.50000000E-01  8.50000000E-01  8.50000000E-01
  8.50000000E-01  8.50000000E-01  8.50000000E-01  8.50000000E-01  8.50000000E-01
  8.50000000E-01  8.50000000E-01  8.50000000E-01  8.50000000E-01  8.50000000E-01
  8.50000000E-01  8.50000000E-01  8.50000000E-01  8.50000000E-01  8.50000000E-01
  8.50000000E-01  8.50000000E-01  8.50000000E-01  8.50000000E-01  8.50000000E-01
  8.50000000E-01  8.50000000E-01  8.50000000E-01  8.50000000E-01  8.50000000E-01
  8.50000000E-01  8.50000000E-01  8.50000000E-01  8.50000000E-01  8.50000000E-01
  8.50000000E-01  8.50000000E-01  8.50000000E-01  8.50000000E-01  8.50000000E-01
  8.50000000E-01  8.50000000E-01  8.50000000E-01  8.50000000E-01  8.50000000E-01
  8.50000000E-01  8.50000000E-01  8.50000000E-01  8.50000000E-01  8.50000000E-01
  8.50000000E-01  8.50000000E-01  8.50000000E-01  8.50000000E-01  8.50000000E-01
  8.50000000E-01  8.50000000E-01  8.50000000E-01  8.50000000E-01  8.50000000E-01
  8.50000000E-01  8.50000000E-01  8.50000000E-01  8.50000000E-01  8.50000000E-01
  8.50000000E-01  8.50000000E-01  8.50000000E-01  8.50000000E-01  8.50000000E-01
  8.50000000E-01  8.50000000E-01  8.50000000E-01  8.50000000E-01  8.50000000E-01
  8.50000000E-01  8.50000000E-01  8.50000000E-01  8.50000000E-01  8.50000000E-01
  8.50000000E-01  8.50000000E-01  8.50000000E-01  8.50000000E-01  8.50000000E-01
  8.50000000E-01  8.50000000E-01  8.50000000E-01  8.50000000E-01  8.50000000E-01
  8.50000000E-01  8.50000000E-01  8.50000000E-01  8.50000000E-01  8.50000000E-01
  8.50000000E-01  8.50000000E-01  8.50000000E-01  8.50000000E-01  8.50000000E-01
  8.50000000E-01  8.50000000E-01  8.50000000E-01  8.50000000E-01  8.50000000E-01
  8.50000000E-01  8.50000000E-01  8.50000000E-01  8.50000000E-01  8.50000000E-01
  8.50000000E-01  8.50000000E-01  8.50000000E-01  8.50000000E-01  8.50000000E-01
  8.50000000E-01  8.50000000E-01  8.50000000E-01  8.50000000E-01  8.50000000E-01
  8.50000000E-01  8.50000000E-01  8.50000000E-01  8.50000000E-01  8.50000000E-01
  8.50000000E-01  8.50000000E-01  8.50000000E-01  8.50000000E-01  8.50000000E-01
  8.50000000E-01  8.50000000E-01  8.50000000E-01  8.50000000E-01  8.50000000E-01
  8.50000000E-01  8.50000000E-01  8.50000000E-01  8.50000000E-01  8.50000000E-01
  8.50000000E-01  8.50000000E-01  8.50000000E-01  8.50000000E-01  8.50000000E-01
  8.50000000E-01  8.50000000E-01  8.50000000E-01  8.50000000E-01  8.50000000E-01
  8.50000000E-01  8.50000000E-01  8.50000000E-01  8.50000000E-01  8.50000000E-01
  8.50000000E-01  8.50000000E-01  8.50000000E-01  8.50000000E-01  8.50000000E-01
  8.50000000E-01  8.50000000E-01  8.50000000E-01  8.50000000E-01  8.50000000E-01
  8.50000000E-01  8.50000000E-01  8.50000000E-01  8.50000000E-01  8.50000000E-01
  8.50000000E-01  8.50000000E-01  8.50000000E-01  8.50000000E-01  8.50000000E-01
  8.50000000E-01  8.50000000E-01  8.50000000E-01  8.50000000E-01  8.50000000E-01
  8.50000000E-01  8.50000000E-01  8.50000000E-01  8.50000000E-01  8.50000000E-01
  8.50000000E-01  8.50000000E-01  8.50000000E-01  8.50000000E-01  8.50000000E-01
  8.50000000E-01  8.50000000E-01  8.50000000E-01  8.50000000E-01  8.50000000E-01
  8.50000000E-01  8.50000000E-01  8.50000000E-01  8.50000000E-01  8.50000000E-01
  8.50000000E-01  8.50000000E-01  8.50000000E-01  8.50000000E-01  8.50000000E-01
  8.50000000E-01  8.50000000E-01  8.50000000E-01  8.50000000E-01  8.50000000E-01
  8.50000000E-01  8.50000000E-01  8.50000000E-01  8.50000000E-01  8.50000000E-01
  8.50000000E-01  8.50000000E-01  8.50000000E-01  8.50000000E-01  8.50000000E-01
  8.50000000E-01  8.50000000E-01  8.50000000E-01  8.50000000E-01  8.50000000E-01
  8.50000000E-01  8.50000000E-01  8.50000000E-01  8.50000000E-01  8.50000000E-01
  8.50000000E-01  8.50000000E-01  8.50000000E-01  8.50000000E-01  8.50000000E-01
  8.50000000E-01  8.50000000E-01  8.50000000E-01  8.50000000E-01  8.50000000E-01
  8.50000000E-01  8.50000000E-01  8.50000000E-01  8.50000000E-01  8.50000000E-01
  8.50000000E-01  8.50000000E-01  8.50000000E-01  8.50000000E-01  8.50000000E-01
  8.50000000E-01  8.50000000E-01  8.50000000E-01  8.50000000E-01  8.50000000E-01
  8.50000000E-01  8.50000000E-01  8.50000000E-01  8.50000000E-01  8.50000000E-01
  8.50000000E-01  8.50000000E-01  8.50000000E-01  8.50000000E-01  8.50000000E-01
  8.50000000E-01  8.50000000E-01  8.50000000E-01  8.50000000E-01  8.50000000E-01
  8.50000000E-01  8.50000000E-01  8.50000000E-01  8.50000000E-01  8.50000000E-01
  8.50000000E-01  8.50000000E-01  8.50000000E-01  8.50000000E-01  8.50000000E-01
  8.50000000E-01  8.50000000E-01  8.50000000E-01  8.50000000E-01  8.50000000E-01
  8.50000000E-01  8.50000000E-01  8.50000000E-01  8.50000000E-01  8.50000000E-01
  8.50000000E-01  8.50000000E-01  8.50000000E-01  8.50000000E-01  8.50000000E-01
  8.50000000E-01  8.50000000E-01  8.50000000E-01  8.50000000E-01  8.50000000E-01
  8.50000000E-01  8.50000000E-01  8.50000000E-01  8.50000000E-01  8.50000000E-01
  8.50000000E-01  8.50000000E-01  8.50000000E-01  8.50000000E-01  8.50000000E-01
  8.50000000E-01  8.50000000E-01  8.50000000E-01  8.50000000E-01  8.50000000E-01
  8.50000000E-01  8.50000000E-01  8.50000000E-01  8.50000000E-01  8.50000000E-01
  8.50000000E-01  8.50000000E-01  8.50000000E-01  8.50000000E-01  8.50000000E-01
  8.50000000E-01  8.50000000E-01  8.50000000E-01  8.50000000E-01  8.50000000E-01
  8.50000000E-01  8.50000000E-01  8.50000000E-01  8.50000000E-01  8.50000000E-01
  8.50000000E-01  8.50000000E-01  8.50000000E-01  8.50000000E-01  8.50000000E-01
  8.50000000E-01  8.50000000E-01  8.50000000E-01  8.50000000E-01  8.50000000E-01
  8.50000000E-01  8.50000000E-01  8.50000000E-01  8.50000000E-01  8.50000000E-01
  8.50000000E-01  8.50000000E-01  8.50000000E-01  8.50000000E-01  8.50000000E-01
  8.50000000E-01  8.50000000E-01  8.50000000E-01  8.50000000E-01  8.50000000E-01
  8.50000000E-01  8.50000000E-01  8.50000000E-01  8.50000000E-01  8.50000000E-01
  8.50000000E-01  8.50000000E-01  8.50000000E-01  8.50000000E-01  8.50000000E-01
  8.50000000E-01  8.50000000E-01  8.50000000E-01  8.50000000E-01  8.50000000E-01
  8.50000000E-01  8.50000000E-01  8.50000000E-01  8.50000000E-01  8.50000000E-01
  8.50000000E-01  8.50000000E-01  8.50000000E-01  8.50000000E-01  8.50000000E-01
  8.50000000E-01  8.50000000E-01  8.50000000E-01  8.50000000E-01  8.50000000E-01
  8.50000000E-01  8.50000000E-01  8.50000000E-01  8.50000000E-01  8.50000000E-01
  8.50000000E-01  8.50000000E-01  8.50000000E-01  8.50000000E-01  8.50000000E-01
  8.50000000E-01  8.50000000E-01  8.50000000E-01  8.50000000E-01  8.50000000E-01
  8.50000000E-01  8.50000000E-01  8.50000000E-01  8.50000000E-01  8.50000000E-01
  8.50000000E-01  8.50000000E-01  8.50000000E-01  8.50000000E-01  8.50000000E-01
  8.50000000E-01  8.50000000E-01  8.50000000E-01  8.50000000E-01  8.50000000E-01
  8.50000000E-01  8.50000000E-01  8.50000000E-01  8.50000000E-01  8.50000000E-01
  8.50000000E-01  8.50000000E-01  8.50000000E-01  8.50000000E-01  8.50000000E-01
  8.50000000E-01  8.50000000E-01  8.50000000E-01  8.50000000E-01  8.50000000E-01
  8.50000000E-01  8.50000000E-01  8.50000000E-01  8.50000000E-01  8.50000000E-01
  8.50000000E-01  8.50000000E-01  8.50000000E-01  8.50000000E-01  8.50000000E-01
  8.50000000E-01  8.50000000E-01  8.50000000E-01  8.50000000E-01  8.50000000E-01
  8.50000000E-01  8.50000000E-01  8.50000000E-01  8.50000000E-01  8.50000000E-01
  8.50000000E-01  8.50000000E-01  8.50000000E-01  8.50000000E-01  8.50000000E-01
  8.50000000E-01  8.50000000E-01  8.50000000E-01  8.50000000E-01  8.50000000E-01
  8.50000000E-01  8.50000000E-01  8.50000000E-01  8.50000000E-01  8.50000000E-01
  8.50000000E-01  8.50000000E-01  8.50000000E-01  8.50000000E-01  8.50000000E-01
  8.50000000E-01  8.50000000E-01  8.50000000E-01  8.50000000E-01  8.50000000E-01
  8.50000000E-01  8.50000000E-01  8.50000000E-01  8.50000000E-01  8.50000000E-01
  8.50000000E-01  8.50000000E-01  8.50000000E-01  8.50000000E-01  8.50000000E-01
  8.50000000E-01  8.50000000E-01  8.50000000E-01  8.50000000E-01  8.50000000E-01
  8.50000000E-01  8.50000000E-01  8.50000000E-01  8.50000000E-01  8.50000000E-01
  8.50000000E-01  8.50000000E-01  8.50000000E-01  8.50000000E-01  8.50000000E-01
  8.50000000E-01  8.50000000E-01  8.50000000E-01  8.50000000E-01  8.50000000E-01
  8.50000000E-01  8.50000000E-01  8.50000000E-01  8.50000000E-01  8.50000000E-01
  8.50000000E-01  8.50000000E-01  8.50000000E-01  8.50000000E-01  8.50000000E-01
  8.50000000E-01  8.50000000E-01  8.50000000E-01  8.50000000E-01  8.50000000E-01
  8.50000000E-01  8.50000000E-01  8.50000000E-01  8.50000000E-01  8.50000000E-01
  8.50000000E-01  8.50000000E-01  8.50000000E-01  8.50000000E-01  8.50000000E-01
  8.50000000E-01  8.50000000E-01  8.50000000E-01  8.50000000E-01  8.50000000E-01
  8.50000000E-01  8.50000000E-01  8.50000000E-01  8.50000000E-01  8.50000000E-01
  8.50000000E-01  8.50000000E-01  8.50000000E-01  8.50000000E-01  8.50000000E-01
  8.50000000E-01  8.50000000E-01  8.50000000E-01  8.50000000E-01  8.50000000E-01
  8.50000000E-01  8.50000000E-01  8.50000000E-01  8.50000000E-01  8.50000000E-01
  8.50000000E-01  8.50000000E-01  8.50000000E-01  8.50000000E-01  8.50000000E-01
  8.50000000E-01  8.50000000E-01  8.50000000E-01  8.50000000E-01  8.50000000E-01
  8.50000000E-01  8.50000000E-01  8.50000000E-01  8.50000000E-01  8.50000000E-01
  8.50000000E-01  8.50000000E-01  8.50000000E-01  8.50000000E-01  8.50000000E-01
  8.50000000E-01  8.50000000E-01  8.50000000E-01  8.50000000E-01  8.50000000E-01
  8.50000000E-01  8.50000000E-01  8.50000000E-01  8.50000000E-01  8.50000000E-01
  8.50000000E-01  8.50000000E-01  8.50000000E-01  8.50000000E-01  8.50000000E-01
  8.50000000E-01  8.50000000E-01  8.50000000E-01  8.50000000E-01  8.50000000E-01
  8.50000000E-01  8.50000000E-01  8.50000000E-01  8.50000000E-01  8.50000000E-01
  8.50000000E-01  8.50000000E-01  8.50000000E-01  8.50000000E-01  8.50000000E-01
  8.50000000E-01  8.50000000E-01  8.50000000E-01  8.50000000E-01  8.50000000E-01
  8.50000000E-01  8.50000000E-01  8.50000000E-01  8.50000000E-01  8.50000000E-01
  8.50000000E-01  8.50000000E-01  8.50000000E-01  8.50000000E-01  8.50000000E-01
  8.50000000E-01  8.50000000E-01  8.50000000E-01  8.50000000E-01  8.50000000E-01
  8.50000000E-01  8.50000000E-01  8.50000000E-01  8.50000000E-01  8.50000000E-01
  8.50000000E-01  8.50000000E-01  8.50000000E-01  8.50000000E-01  8.50000000E-01
  8.50000000E-01  8.50000000E-01  8.50000000E-01  8.50000000E-01  8.50000000E-01
  8.50000000E-01  8.50000000E-01  8.50000000E-01  8.50000000E-01  8.50000000E-01
  8.50000000E-01  8.50000000E-01  8.50000000E-01  8.50000000E-01  8.50000000E-01
  8.50000000E-01  8.50000000E-01  8.50000000E-01  8.50000000E-01  8.50000000E-01
  8.50000000E-01  8.50000000E-01  8.50000000E-01  8.50000000E-01  8.50000000E-01
  8.50000000E-01  8.50000000E-01  8.50000000E-01  8.50000000E-01  8.50000000E-01
  8.50000000E-01  8.50000000E-01  8.50000000E-01  8.50000000E-01  8.50000000E-01
  8.50000000E-01  8.50000000E-01  8.50000000E-01  8.50000000E-01  8.50000000E-01
  8.50000000E-01  8.50000000E-01  8.50000000E-01  8.50000000E-01  8.50000000E-01
  8.50000000E-01  8.50000000E-01  8.50000000E-01  8.50000000E-01  8.50000000E-01
  8.50000000E-01  8.50000000E-01  8.50000000E-01  8.50000000E-01  8.50000000E-01
  8.50000000E-01  8.50000000E-01  8.50000000E-01  8.50000000E-01  8.50000000E-01
  8.50000000E-01  8.50000000E-01  8.50000000E-01  8.50000000E-01  8.50000000E-01
  8.50000000E-01  8.50000000E-01  8.50000000E-01  8.50000000E-01  8.50000000E-01
  8.50000000E-01  8.50000000E-01  8.50000000E-01  8.50000000E-01  8.50000000E-01
  8.50000000E-01  8.50000000E-01  8.50000000E-01  8.50000000E-01  8.50000000E-01
  8.50000000E-01  8.50000000E-01  8.50000000E-01  8.50000000E-01  8.50000000E-01
  8.50000000E-01  8.50000000E-01  8.50000000E-01  8.50000000E-01  8.50000000E-01
  8.50000000E-01  8.50000000E-01  8.50000000E-01  8.50000000E-01  8.50000000E-01
  8.50000000E-01  8.50000000E-01  8.50000000E-01  8.50000000E-01  8.50000000E-01
  8.50000000E-01  8.50000000E-01  8.50000000E-01  8.50000000E-01  8.50000000E-01
  8.50000000E-01  8.50000000E-01  8.50000000E-01  8.50000000E-01  8.50000000E-01
  8.50000000E-01  8.50000000E-01  8.50000000E-01  8.50000000E-01  8.50000000E-01
  8.50000000E-01  8.50000000E-01  8.50000000E-01  8.50000000E-01  8.50000000E-01
  8.50000000E-01  8.50000000E-01  8.50000000E-01  8.50000000E-01  8.50000000E-01
  8.50000000E-01  8.50000000E-01  8.50000000E-01  8.50000000E-01  8.50000000E-01
  8.50000000E-01  8.50000000E-01  8.50000000E-01  8.50000000E-01  8.50000000E-01
  8.50000000E-01  8.50000000E-01  8.50000000E-01  8.50000000E-01  8.50000000E-01
  8.50000000E-01  8.50000000E-01  8.50000000E-01  8.50000000E-01  8.50000000E-01
  8.50000000E-01  8.50000000E-01  8.50000000E-01  8.50000000E-01  8.50000000E-01
  8.50000000E-01  8.50000000E-01  8.50000000E-01  8.50000000E-01  8.50000000E-01
  8.50000000E-01  8.50000000E-01  8.50000000E-01  8.50000000E-01  8.50000000E-01
  8.50000000E-01  8.50000000E-01  8.50000000E-01  8.50000000E-01  8.50000000E-01
  8.50000000E-01  8.50000000E-01  8.50000000E-01  8.50000000E-01  8.50000000E-01
  8.50000000E-01  8.50000000E-01  8.50000000E-01  8.50000000E-01  8.50000000E-01
  8.50000000E-01  8.50000000E-01  8.50000000E-01  8.50000000E-01  8.50000000E-01
  8.50000000E-01  8.50000000E-01  8.50000000E-01  8.50000000E-01  8.50000000E-01
  8.50000000E-01  8.50000000E-01  8.50000000E-01  8.50000000E-01  8.50000000E-01
  8.50000000E-01  8.50000000E-01  8.50000000E-01  8.50000000E-01  8.50000000E-01
  8.50000000E-01  8.50000000E-01  8.50000000E-01  8.50000000E-01  8.50000000E-01
  8.50000000E-01  8.50000000E-01  8.50000000E-01  8.50000000E-01  8.50000000E-01
  8.50000000E-01  8.50000000E-01  8.50000000E-01  8.50000000E-01  8.50000000E-01
  8.50000000E-01  8.50000000E-01  8.50000000E-01  8.50000000E-01  8.50000000E-01
  8.50000000E-01  8.50000000E-01  8.50000000E-01  8.50000000E-01  8.50000000E-01
  8.50000000E-01  8.50000000E-01  8.50000000E-01  8.50000000E-01  8.50000000E-01
  8.50000000E-01  8.50000000E-01  8.50000000E-01  8.50000000E-01  8.50000000E-01
  8.50000000E-01  8.50000000E-01  8.50000000E-01  8.50000000E-01  8.50000000E-01
  8.50000000E-01  8.50000000E-01  8.50000000E-01  8.50000000E-01  8.50000000E-01
  8.50000000E-01  8.50000000E-01  8.50000000E-01  8.50000000E-01  8.50000000E-01
  8.50000000E-01  8.50000000E-01  8.50000000E-01  8.50000000E-01  8.50000000E-01
  8.50000000E-01  8.50000000E-01  8.50000000E-01  8.50000000E-01  8.50000000E-01
  8.50000000E-01  8.50000000E-01  8.50000000E-01  8.50000000E-01  8.50000000E-01
  8.50000000E-01  8.50000000E-01  8.50000000E-01  8.50000000E-01  8.50000000E-01
  8.50000000E-01  8.50000000E-01  8.50000000E-01  8.50000000E-01  8.50000000E-01
  8.50000000E-01  8.50000000E-01  8.50000000E-01  8.50000000E-01  8.50000000E-01
  8.50000000E-01  8.50000000E-01  8.50000000E-01  8.50000000E-01  8.50000000E-01
  8.50000000E-01  8.50000000E-01  8.50000000E-01  8.50000000E-01  8.50000000E-01
  8.50000000E-01  8.50000000E-01  8.50000000E-01  8.50000000E-01  8.50000000E-01
  8.50000000E-01  8.50000000E-01  8.50000000E-01  8.50000000E-01  8.50000000E-01
  8.50000000E-01  8.50000000E-01  8.50000000E-01  8.50000000E-01  8.50000000E-01
  8.50000000E-01  8.50000000E-01  8.50000000E-01  8.50000000E-01  8.50000000E-01
  8.50000000E-01  8.50000000E-01  8.50000000E-01  8.50000000E-01  8.50000000E-01
  8.50000000E-01  8.50000000E-01  8.50000000E-01  8.50000000E-01  8.50000000E-01
  8.50000000E-01  8.50000000E-01  8.50000000E-01  8.50000000E-01  8.50000000E-01
  8.50000000E-01  8.50000000E-01  8.50000000E-01  8.50000000E-01  8.50000000E-01
  8.50000000E-01  8.50000000E-01  8.50000000E-01  8.50000000E-01  8.50000000E-01
  8.50000000E-01  8.50000000E-01  8.50000000E-01  8.50000000E-01  8.50000000E-01
  8.50000000E-01  8.50000000E-01  8.50000000E-01  8.50000000E-01  8.50000000E-01
  8.50000000E-01  8.50000000E-01  8.50000000E-01  8.50000000E-01  8.50000000E-01
  8.50000000E-01  8.50000000E-01  8.50000000E-01  8.50000000E-01  8.50000000E-01
  8.50000000E-01  8.50000000E-01  8.50000000E-01  8.50000000E-01  8.50000000E-01
  8.50000000E-01  8.50000000E-01  8.50000000E-01  8.50000000E-01  8.50000000E-01
  8.50000000E-01  8.50000000E-01  8.50000000E-01  8.50000000E-01  8.50000000E-01
  8.50000000E-01  8.50000000E-01  8.50000000E-01  8.50000000E-01  8.50000000E-01
  8.50000000E-01  8.50000000E-01  8.50000000E-01  8.50000000E-01  8.50000000E-01
  8.50000000E-01  8.50000000E-01  8.50000000E-01  8.50000000E-01  8.50000000E-01
  8.50000000E-01  8.50000000E-01  8.50000000E-01  8.50000000E-01  8.50000000E-01
  8.50000000E-01  8.50000000E-01  8.50000000E-01  8.50000000E-01  8.50000000E-01
  8.50000000E-01  8.50000000E-01  8.50000000E-01  8.50000000E-01  8.50000000E-01
  8.50000000E-01  8.50000000E-01  8.50000000E-01  8.50000000E-01  8.50000000E-01
  8.50000000E-01  8.50000000E-01  8.50000000E-01  8.50000000E-01  8.50000000E-01
  8.50000000E-01  8.50000000E-01  8.50000000E-01  8.50000000E-01  8.50000000E-01
  8.50000000E-01  8.50000000E-01  8.50000000E-01  8.50000000E-01  8.50000000E-01
  8.50000000E-01  8.50000000E-01  8.50000000E-01  8.50000000E-01  8.50000000E-01
  8.50000000E-01  8.50000000E-01  8.50000000E-01  8.50000000E-01  8.50000000E-01
  8.50000000E-01  8.50000000E-01  8.50000000E-01  8.50000000E-01  8.50000000E-01
  8.50000000E-01  8.50000000E-01  8.50000000E-01  8.50000000E-01  8.50000000E-01
  8.50000000E-01  8.50000000E-01  8.50000000E-01  8.50000000E-01  8.50000000E-01
  8.50000000E-01  8.50000000E-01  8.50000000E-01  8.50000000E-01  8.50000000E-01
  8.50000000E-01  8.50000000E-01  8.50000000E-01  8.50000000E-01  8.50000000E-01
  8.50000000E-01  8.50000000E-01  8.50000000E-01  8.50000000E-01  8.50000000E-01
  8.50000000E-01  8.50000000E-01  8.50000000E-01  8.50000000E-01  8.50000000E-01
  8.50000000E-01  8.50000000E-01  8.50000000E-01  8.50000000E-01  8.50000000E-01
  8.50000000E-01  8.50000000E-01  8.50000000E-01  8.50000000E-01  8.50000000E-01
  8.50000000E-01  8.50000000E-01  8.50000000E-01  8.50000000E-01  8.50000000E-01
  8.50000000E-01  8.50000000E-01  8.50000000E-01  8.50000000E-01  8.50000000E-01
  8.50000000E-01  8.50000000E-01  8.50000000E-01  8.50000000E-01  8.50000000E-01
  8.50000000E-01  8.50000000E-01  8.50000000E-01  8.50000000E-01  8.50000000E-01
  8.50000000E-01  8.50000000E-01  8.50000000E-01  8.50000000E-01  8.50000000E-01
  8.50000000E-01  8.50000000E-01  8.50000000E-01  8.50000000E-01  8.50000000E-01
  8.50000000E-01  8.50000000E-01  8.50000000E-01  8.50000000E-01  8.50000000E-01
  8.50000000E-01  8.50000000E-01  8.50000000E-01  8.50000000E-01  8.50000000E-01
  8.50000000E-01  8.50000000E-01  8.50000000E-01  8.50000000E-01  8.50000000E-01
  8.50000000E-01  8.50000000E-01  8.50000000E-01  8.50000000E-01  8.50000000E-01
  8.50000000E-01  8.50000000E-01  8.50000000E-01  8.50000000E-01  8.50000000E-01
  8.50000000E-01  8.50000000E-01  8.50000000E-01  8.50000000E-01  8.50000000E-01
  8.50000000E-01  8.50000000E-01  8.50000000E-01  8.50000000E-01  8.50000000E-01
  8.50000000E-01  8.50000000E-01  8.50000000E-01  8.50000000E-01  8.50000000E-01
  8.50000000E-01  8.50000000E-01  8.50000000E-01  8.50000000E-01  8.50000000E-01
  8.50000000E-01  8.50000000E-01  8.50000000E-01  8.50000000E-01  8.50000000E-01
  8.50000000E-01  8.50000000E-01  8.50000000E-01  8.50000000E-01  8.50000000E-01
  8.50000000E-01  8.50000000E-01  8.50000000E-01  8.50000000E-01  8.50000000E-01
  8.50000000E-01  8.50000000E-01  8.50000000E-01  8.50000000E-01  8.50000000E-01
  8.50000000E-01  8.50000000E-01  8.50000000E-01  8.50000000E-01  8.50000000E-01
  8.50000000E-01  8.50000000E-01  8.50000000E-01  8.50000000E-01  8.50000000E-01
  8.50000000E-01  8.50000000E-01  8.50000000E-01  8.50000000E-01  8.50000000E-01
  8.50000000E-01  8.50000000E-01  8.50000000E-01  8.50000000E-01  8.50000000E-01
  8.50000000E-01  8.50000000E-01  8.50000000E-01  8.50000000E-01  8.50000000E-01
  8.50000000E-01  8.50000000E-01  8.50000000E-01  8.50000000E-01  8.50000000E-01
  8.50000000E-01  8.50000000E-01  8.50000000E-01  8.50000000E-01  8.50000000E-01
  8.50000000E-01  8.50000000E-01  8.50000000E-01  8.50000000E-01  8.50000000E-01
  8.50000000E-01  8.50000000E-01  8.50000000E-01  8.50000000E-01  8.50000000E-01
  8.50000000E-01  8.50000000E-01  8.50000000E-01  8.50000000E-01  8.50000000E-01
  8.50000000E-01  8.50000000E-01  8.50000000E-01  8.50000000E-01  8.50000000E-01
  8.50000000E-01  8.50000000E-01  8.50000000E-01  8.50000000E-01  8.50000000E-01
  8.50000000E-01  8.50000000E-01  8.50000000E-01  8.50000000E-01  8.50000000E-01
  8.50000000E-01  8.50000000E-01  8.50000000E-01  8.50000000E-01  8.50000000E-01
  8.50000000E-01  8.50000000E-01  8.50000000E-01  8.50000000E-01  8.50000000E-01
  8.50000000E-01  8.50000000E-01  8.50000000E-01  8.50000000E-01  8.50000000E-01
  8.50000000E-01  8.50000000E-01  8.50000000E-01  8.50000000E-01  8.50000000E-01
  8.50000000E-01  8.50000000E-01  8.50000000E-01  8.50000000E-01  8.50000000E-01
  8.50000000E-01  8.50000000E-01  8.50000000E-01  8.50000000E-01  8.50000000E-01
  8.50000000E-01  8.50000000E-01  8.50000000E-01  8.50000000E-01  8.50000000E-01
  8.50000000E-01  8.50000000E-01  8.50000000E-01  8.50000000E-01  8.50000000E-01
  8.50000000E-01  8.50000000E-01  8.50000000E-01  8.50000000E-01  8.50000000E-01
  8.50000000E-01  8.50000000E-01  8.50000000E-01  8.50000000E-01  8.50000000E-01
  8.50000000E-01  8.50000000E-01  8.50000000E-01  8.50000000E-01  8.50000000E-01
  8.50000000E-01  8.50000000E-01  8.50000000E-01  8.50000000E-01  8.50000000E-01
  8.50000000E-01  8.50000000E-01  8.50000000E-01  8.50000000E-01  8.50000000E-01
  8.50000000E-01  8.50000000E-01  8.50000000E-01  8.50000000E-01  8.50000000E-01
  8.50000000E-01  8.50000000E-01  8.50000000E-01  8.50000000E-01  8.50000000E-01
  8.50000000E-01  8.50000000E-01  8.50000000E-01  8.50000000E-01  8.50000000E-01
  8.50000000E-01  8.50000000E-01  8.50000000E-01  8.50000000E-01  8.50000000E-01
  8.50000000E-01  8.50000000E-01  8.50000000E-01  8.50000000E-01  8.50000000E-01
  8.50000000E-01  8.50000000E-01  8.50000000E-01  8.50000000E-01  8.50000000E-01
  8.50000000E-01  8.50000000E-01  8.50000000E-01  8.50000000E-01  8.50000000E-01
  8.50000000E-01  8.50000000E-01  8.50000000E-01  8.50000000E-01  8.50000000E-01
  8.50000000E-01  8.50000000E-01  8.50000000E-01  8.50000000E-01  8.50000000E-01
  8.50000000E-01  8.50000000E-01  8.50000000E-01  8.50000000E-01  8.50000000E-01
  8.50000000E-01  8.50000000E-01  8.50000000E-01  8.50000000E-01  8.50000000E-01
  8.50000000E-01  8.50000000E-01  8.50000000E-01  8.50000000E-01  8.50000000E-01
  8.50000000E-01  8.50000000E-01  8.50000000E-01  8.50000000E-01  8.50000000E-01
  8.50000000E-01  8.50000000E-01  8.50000000E-01  8.50000000E-01  8.50000000E-01
  8.50000000E-01  8.50000000E-01  8.50000000E-01  8.50000000E-01  8.50000000E-01
  8.50000000E-01  8.50000000E-01  8.50000000E-01  8.50000000E-01  8.50000000E-01
  8.50000000E-01  8.50000000E-01  8.50000000E-01  8.50000000E-01  8.50000000E-01
  8.50000000E-01  8.50000000E-01  8.50000000E-01  8.50000000E-01  8.50000000E-01
  8.50000000E-01  8.50000000E-01  8.50000000E-01  8.50000000E-01  8.50000000E-01
  8.50000000E-01  8.50000000E-01  8.50000000E-01  8.50000000E-01  8.50000000E-01
  8.50000000E-01  8.50000000E-01  8.50000000E-01  8.50000000E-01  8.50000000E-01
  8.50000000E-01  8.50000000E-01  8.50000000E-01  8.50000000E-01  8.50000000E-01
  8.50000000E-01  8.50000000E-01  8.50000000E-01  8.50000000E-01  8.50000000E-01
  8.50000000E-01  8.50000000E-01  8.50000000E-01  8.50000000E-01  8.50000000E-01
  8.50000000E-01  8.50000000E-01  8.50000000E-01  8.50000000E-01  8.50000000E-01
  8.50000000E-01  8.50000000E-01  8.50000000E-01  8.50000000E-01  8.50000000E-01
  8.50000000E-01  8.50000000E-01  8.50000000E-01  8.50000000E-01  8.50000000E-01
  8.50000000E-01  8.50000000E-01  8.50000000E-01  8.50000000E-01  8.50000000E-01
  8.50000000E-01  8.50000000E-01  8.50000000E-01  8.50000000E-01  8.50000000E-01
  8.50000000E-01  8.50000000E-01  8.50000000E-01  8.50000000E-01  8.50000000E-01
  8.50000000E-01  8.50000000E-01  8.50000000E-01  8.50000000E-01  8.50000000E-01
  8.50000000E-01  8.50000000E-01  8.50000000E-01  8.50000000E-01  8.50000000E-01
  8.50000000E-01  8.50000000E-01  8.50000000E-01  8.50000000E-01  8.50000000E-01
  8.50000000E-01  8.50000000E-01  8.50000000E-01  8.50000000E-01  8.50000000E-01
  8.50000000E-01  8.50000000E-01  8.50000000E-01  8.50000000E-01  8.50000000E-01
  8.50000000E-01  8.50000000E-01  8.50000000E-01  8.50000000E-01  8.50000000E-01
  8.50000000E-01  8.50000000E-01  8.50000000E-01  8.50000000E-01  8.50000000E-01
  8.50000000E-01  8.50000000E-01  8.50000000E-01  8.50000000E-01  8.50000000E-01
  8.50000000E-01  8.50000000E-01  8.50000000E-01  8.50000000E-01  8.50000000E-01
  8.50000000E-01  8.50000000E-01  8.50000000E-01  8.50000000E-01  8.50000000E-01
  8.50000000E-01  8.50000000E-01  8.50000000E-01  8.50000000E-01  8.50000000E-01
  8.50000000E-01  8.50000000E-01  8.50000000E-01  8.50000000E-01  8.50000000E-01
  8.50000000E-01  8.50000000E-01  8.50000000E-01  8.50000000E-01  8.50000000E-01
  8.50000000E-01  8.50000000E-01  8.50000000E-01  8.50000000E-01  8.50000000E-01
  8.50000000E-01  8.50000000E-01  8.50000000E-01  8.50000000E-01  8.50000000E-01
  8.50000000E-01  8.50000000E-01  8.50000000E-01  8.50000000E-01  8.50000000E-01
  8.50000000E-01  8.50000000E-01  8.50000000E-01  8.50000000E-01  8.50000000E-01
  8.50000000E-01  8.50000000E-01  8.50000000E-01  8.50000000E-01  8.50000000E-01
  8.50000000E-01  8.50000000E-01  8.50000000E-01  8.50000000E-01  8.50000000E-01
  8.50000000E-01  8.50000000E-01  8.50000000E-01  8.50000000E-01  8.50000000E-01
  8.50000000E-01  8.50000000E-01  8.50000000E-01  8.50000000E-01  8.50000000E-01
  8.50000000E-01  8.50000000E-01  8.50000000E-01  8.50000000E-01  8.50000000E-01
  8.50000000E-01  8.50000000E-01  8.50000000E-01  8.50000000E-01  8.50000000E-01
  8.50000000E-01  8.50000000E-01  8.50000000E-01  8.50000000E-01  8.50000000E-01
  8.50000000E-01  8.50000000E-01  8.50000000E-01  8.50000000E-01  8.50000000E-01
  8.50000000E-01  8.50000000E-01  8.50000000E-01  8.50000000E-01  8.50000000E-01
  8.50000000E-01  8.50000000E-01  8.50000000E-01  8.50000000E-01  8.50000000E-01
  8.50000000E-01  8.50000000E-01  8.50000000E-01  8.50000000E-01  8.50000000E-01
  8.50000000E-01  8.50000000E-01  8.50000000E-01  8.50000000E-01  8.50000000E-01
  8.50000000E-01  8.50000000E-01  8.50000000E-01  8.50000000E-01  8.50000000E-01
  8.50000000E-01  8.50000000E-01  8.50000000E-01  8.50000000E-01  8.50000000E-01
  8.50000000E-01  8.50000000E-01  8.50000000E-01  8.50000000E-01  8.50000000E-01
  8.50000000E-01  8.50000000E-01  8.50000000E-01  8.50000000E-01  8.50000000E-01
  8.50000000E-01  8.50000000E-01  8.50000000E-01  8.50000000E-01  8.50000000E-01
  8.50000000E-01  8.50000000E-01  8.50000000E-01  8.50000000E-01  8.50000000E-01
  8.50000000E-01  8.50000000E-01  8.50000000E-01  8.50000000E-01  8.50000000E-01
  8.50000000E-01  8.50000000E-01  8.50000000E-01  8.50000000E-01  8.50000000E-01
  8.50000000E-01  8.50000000E-01  8.50000000E-01  8.50000000E-01  8.50000000E-01
  8.50000000E-01  8.50000000E-01  8.50000000E-01  8.50000000E-01  8.50000000E-01
  8.50000000E-01  8.50000000E-01  8.50000000E-01  8.50000000E-01  8.50000000E-01
  8.50000000E-01  8.50000000E-01  8.50000000E-01  8.50000000E-01  8.50000000E-01
  8.50000000E-01  8.50000000E-01  8.50000000E-01  8.50000000E-01  8.50000000E-01
  8.50000000E-01  8.50000000E-01  8.50000000E-01  8.50000000E-01  8.50000000E-01
  8.50000000E-01  8.50000000E-01  8.50000000E-01  8.50000000E-01  8.50000000E-01
  8.50000000E-01  8.50000000E-01  8.50000000E-01  8.50000000E-01  8.50000000E-01
  8.50000000E-01  8.50000000E-01  8.50000000E-01  8.50000000E-01  8.50000000E-01
  8.50000000E-01  8.50000000E-01  8.50000000E-01  8.50000000E-01  8.50000000E-01
  8.50000000E-01  8.50000000E-01  8.50000000E-01  8.50000000E-01  8.50000000E-01
  8.50000000E-01  8.50000000E-01  8.50000000E-01  8.50000000E-01  8.50000000E-01
  8.50000000E-01  8.50000000E-01  8.50000000E-01  8.50000000E-01  8.50000000E-01
  8.50000000E-01  8.50000000E-01  8.50000000E-01  8.50000000E-01  8.50000000E-01
  8.50000000E-01  8.50000000E-01  8.50000000E-01  8.50000000E-01  8.50000000E-01
  8.50000000E-01  8.50000000E-01  8.50000000E-01  8.50000000E-01  8.50000000E-01
  8.50000000E-01  8.50000000E-01  8.50000000E-01  8.50000000E-01  8.50000000E-01
  8.50000000E-01  8.50000000E-01  8.50000000E-01  8.50000000E-01  8.50000000E-01
  8.50000000E-01  8.50000000E-01  8.50000000E-01  8.50000000E-01  8.50000000E-01
  8.50000000E-01  8.50000000E-01  8.50000000E-01  8.50000000E-01  8.50000000E-01
  8.50000000E-01  8.50000000E-01  8.50000000E-01  8.50000000E-01  8.50000000E-01
  8.50000000E-01  8.50000000E-01  8.50000000E-01  8.50000000E-01  8.50000000E-01
  8.50000000E-01  8.50000000E-01  8.50000000E-01  8.50000000E-01  8.50000000E-01
  8.50000000E-01  8.50000000E-01  8.50000000E-01  8.50000000E-01  8.50000000E-01
  8.50000000E-01  8.50000000E-01  8.50000000E-01  8.50000000E-01  8.50000000E-01
  8.50000000E-01  8.50000000E-01  8.50000000E-01  8.50000000E-01  8.50000000E-01
  8.50000000E-01  8.50000000E-01  8.50000000E-01  8.50000000E-01  8.50000000E-01
  8.50000000E-01  8.50000000E-01  8.50000000E-01  8.50000000E-01  8.50000000E-01
  8.50000000E-01  8.50000000E-01  8.50000000E-01  8.50000000E-01  8.50000000E-01
  8.50000000E-01  8.50000000E-01  8.50000000E-01  8.50000000E-01  8.50000000E-01
  8.50000000E-01  8.50000000E-01  8.50000000E-01  8.50000000E-01  8.50000000E-01
  8.50000000E-01  8.50000000E-01  8.50000000E-01  8.50000000E-01  8.50000000E-01
  8.50000000E-01  8.50000000E-01  8.50000000E-01  8.50000000E-01  8.50000000E-01
  8.50000000E-01  8.50000000E-01  8.50000000E-01  8.50000000E-01  8.50000000E-01
  8.50000000E-01  8.50000000E-01  8.50000000E-01  8.50000000E-01  8.50000000E-01
  8.50000000E-01  8.50000000E-01  8.50000000E-01  8.50000000E-01  8.50000000E-01
  8.50000000E-01  8.50000000E-01  8.50000000E-01  8.50000000E-01  8.50000000E-01
  8.50000000E-01  8.50000000E-01  8.50000000E-01  8.50000000E-01  8.50000000E-01
  8.50000000E-01  8.50000000E-01  8.50000000E-01  8.50000000E-01  8.50000000E-01
  8.50000000E-01  8.50000000E-01  8.50000000E-01  8.50000000E-01  8.50000000E-01
  8.50000000E-01  8.50000000E-01  8.50000000E-01  8.50000000E-01  8.50000000E-01
  8.50000000E-01  8.50000000E-01  8.50000000E-01  8.50000000E-01  8.50000000E-01
  8.50000000E-01  8.50000000E-01  8.50000000E-01  8.50000000E-01  8.50000000E-01
  8.50000000E-01  8.50000000E-01  8.50000000E-01  8.50000000E-01  8.50000000E-01
  8.50000000E-01  8.50000000E-01  8.50000000E-01  8.50000000E-01  8.50000000E-01
  8.50000000E-01  8.50000000E-01  8.50000000E-01  8.50000000E-01  8.50000000E-01
  8.50000000E-01  8.50000000E-01  8.50000000E-01  8.50000000E-01  8.50000000E-01
  8.50000000E-01  8.50000000E-01  8.50000000E-01  8.50000000E-01  8.50000000E-01
  8.50000000E-01  8.50000000E-01  8.50000000E-01  8.50000000E-01  8.50000000E-01
  8.50000000E-01  8.50000000E-01  8.50000000E-01  8.50000000E-01  8.50000000E-01
  8.50000000E-01  8.50000000E-01  8.50000000E-01  8.50000000E-01  8.50000000E-01
  8.50000000E-01  8.50000000E-01  8.50000000E-01  8.50000000E-01  8.50000000E-01
  8.50000000E-01  8.50000000E-01  8.50000000E-01  8.50000000E-01  8.50000000E-01
  8.50000000E-01  8.50000000E-01  8.50000000E-01  8.50000000E-01  8.50000000E-01
  8.50000000E-01  8.50000000E-01  8.50000000E-01  8.50000000E-01  8.50000000E-01
  8.50000000E-01  8.50000000E-01  8.50000000E-01  8.50000000E-01  8.50000000E-01
  8.50000000E-01  8.50000000E-01  8.50000000E-01  8.50000000E-01  8.50000000E-01
  8.50000000E-01  8.50000000E-01  8.50000000E-01  8.50000000E-01  8.50000000E-01
  8.50000000E-01  8.50000000E-01  8.50000000E-01  8.50000000E-01  8.50000000E-01
  8.50000000E-01  8.50000000E-01  8.50000000E-01  8.50000000E-01  8.50000000E-01
  8.50000000E-01  8.50000000E-01  8.50000000E-01  8.50000000E-01  8.50000000E-01
  8.50000000E-01  8.50000000E-01  8.50000000E-01  8.50000000E-01  8.50000000E-01
  8.50000000E-01  8.50000000E-01  8.50000000E-01  8.50000000E-01  8.50000000E-01
  8.50000000E-01  8.50000000E-01  8.50000000E-01  8.50000000E-01  8.50000000E-01
  8.50000000E-01  8.50000000E-01  8.50000000E-01  8.50000000E-01  8.50000000E-01
  8.50000000E-01  8.50000000E-01  8.50000000E-01  8.50000000E-01  8.50000000E-01
  8.50000000E-01  8.50000000E-01  8.50000000E-01  8.50000000E-01  8.50000000E-01
  8.50000000E-01  8.50000000E-01  8.50000000E-01  8.50000000E-01  8.50000000E-01
  8.50000000E-01  8.50000000E-01  8.50000000E-01  8.50000000E-01  8.50000000E-01
  8.50000000E-01  8.50000000E-01  8.50000000E-01  8.50000000E-01  8.50000000E-01
  8.50000000E-01  8.50000000E-01  8.50000000E-01  8.50000000E-01  8.50000000E-01
  8.50000000E-01  8.50000000E-01  8.50000000E-01  8.50000000E-01  8.50000000E-01
  8.50000000E-01  8.50000000E-01  8.50000000E-01  8.50000000E-01  8.50000000E-01
  8.50000000E-01  8.50000000E-01  8.50000000E-01  8.50000000E-01  8.50000000E-01
  8.50000000E-01  8.50000000E-01  8.50000000E-01  8.50000000E-01  8.50000000E-01
  8.50000000E-01  8.50000000E-01  8.50000000E-01  8.50000000E-01  8.50000000E-01
  8.50000000E-01  8.50000000E-01  8.50000000E-01  8.50000000E-01  8.50000000E-01
  8.50000000E-01  8.50000000E-01  8.50000000E-01  8.50000000E-01  8.50000000E-01
  8.50000000E-01  8.50000000E-01  8.50000000E-01  8.50000000E-01  8.50000000E-01
  8.50000000E-01  8.50000000E-01  8.50000000E-01  8.50000000E-01  8.50000000E-01
  8.50000000E-01  8.50000000E-01  8.50000000E-01  8.50000000E-01  8.50000000E-01
  8.50000000E-01  8.50000000E-01  8.50000000E-01  8.50000000E-01  8.50000000E-01
  8.50000000E-01  8.50000000E-01  8.50000000E-01  8.50000000E-01  8.50000000E-01
  8.50000000E-01  8.50000000E-01  8.50000000E-01  8.50000000E-01  8.50000000E-01
  8.50000000E-01  8.50000000E-01  8.50000000E-01  8.50000000E-01  8.50000000E-01
  8.50000000E-01  8.50000000E-01  8.50000000E-01  8.50000000E-01  8.50000000E-01
  8.50000000E-01  8.50000000E-01  8.50000000E-01  8.50000000E-01  8.50000000E-01
  8.50000000E-01  8.50000000E-01  8.50000000E-01  8.50000000E-01  8.50000000E-01
  8.50000000E-01  8.50000000E-01  8.50000000E-01  8.50000000E-01  8.50000000E-01
  8.50000000E-01  8.50000000E-01  8.50000000E-01  8.50000000E-01  8.50000000E-01
  8.50000000E-01  8.50000000E-01  8.50000000E-01  8.50000000E-01  8.50000000E-01
  8.50000000E-01  8.50000000E-01  8.50000000E-01  8.50000000E-01  8.50000000E-01
  8.50000000E-01  8.50000000E-01  8.50000000E-01  8.50000000E-01  8.50000000E-01
  8.50000000E-01  8.50000000E-01  8.50000000E-01  8.50000000E-01  8.50000000E-01
  8.50000000E-01  8.50000000E-01  8.50000000E-01  8.50000000E-01  8.50000000E-01
  8.50000000E-01  8.50000000E-01  8.50000000E-01  8.50000000E-01  8.50000000E-01
  8.50000000E-01  8.50000000E-01  8.50000000E-01  8.50000000E-01  8.50000000E-01
  8.50000000E-01  8.50000000E-01  8.50000000E-01  8.50000000E-01  8.50000000E-01
  8.50000000E-01  8.50000000E-01  8.50000000E-01  8.50000000E-01  8.50000000E-01
  8.50000000E-01  8.50000000E-01  8.50000000E-01  8.50000000E-01  8.50000000E-01
  8.50000000E-01  8.50000000E-01  8.50000000E-01  8.50000000E-01  8.50000000E-01
  8.50000000E-01  8.50000000E-01  8.50000000E-01  8.50000000E-01  8.50000000E-01
  8.50000000E-01  8.50000000E-01  8.50000000E-01  8.50000000E-01  8.50000000E-01
  8.50000000E-01  8.50000000E-01  8.50000000E-01  8.50000000E-01  8.50000000E-01
  8.50000000E-01  8.50000000E-01  8.50000000E-01  8.50000000E-01  8.50000000E-01
  8.50000000E-01  8.50000000E-01  8.50000000E-01  8.50000000E-01  8.50000000E-01
  8.50000000E-01  8.50000000E-01  8.50000000E-01  8.50000000E-01  8.50000000E-01
  8.50000000E-01  8.50000000E-01  8.50000000E-01  8.50000000E-01  8.50000000E-01
  8.50000000E-01  8.50000000E-01  8.50000000E-01  8.50000000E-01  8.50000000E-01
  8.50000000E-01  8.50000000E-01  8.50000000E-01  8.50000000E-01  8.50000000E-01
  8.50000000E-01  8.50000000E-01  8.50000000E-01  8.50000000E-01  8.50000000E-01
  8.50000000E-01  8.50000000E-01  8.50000000E-01  8.50000000E-01  8.50000000E-01
  8.50000000E-01  8.50000000E-01  8.50000000E-01  8.50000000E-01  8.50000000E-01
  8.50000000E-01  8.50000000E-01  8.50000000E-01  8.50000000E-01  8.50000000E-01
  8.50000000E-01  8.50000000E-01  8.50000000E-01  8.50000000E-01  8.50000000E-01
  8.50000000E-01  8.50000000E-01  8.50000000E-01  8.50000000E-01  8.50000000E-01
  8.50000000E-01  8.50000000E-01  8.50000000E-01  8.50000000E-01  8.50000000E-01
  8.50000000E-01  8.50000000E-01  8.50000000E-01  8.50000000E-01  8.50000000E-01
  8.50000000E-01  8.50000000E-01  8.50000000E-01  8.50000000E-01  8.50000000E-01
  8.50000000E-01  8.50000000E-01  8.50000000E-01  8.50000000E-01  8.50000000E-01
  8.50000000E-01  8.50000000E-01  8.50000000E-01  8.50000000E-01  8.50000000E-01
  8.50000000E-01  8.50000000E-01  8.50000000E-01  8.50000000E-01  8.50000000E-01
  8.50000000E-01  8.50000000E-01  8.50000000E-01  8.50000000E-01  8.50000000E-01
  8.50000000E-01  8.50000000E-01  8.50000000E-01  8.50000000E-01  8.50000000E-01
  8.50000000E-01  8.50000000E-01  8.50000000E-01  8.50000000E-01  8.50000000E-01
  8.50000000E-01  8.50000000E-01  8.50000000E-01  8.50000000E-01  8.50000000E-01
  8.50000000E-01  8.50000000E-01  8.50000000E-01  8.50000000E-01  8.50000000E-01
  8.50000000E-01  8.50000000E-01  8.50000000E-01  8.50000000E-01  8.50000000E-01
  8.50000000E-01  8.50000000E-01  8.50000000E-01  8.50000000E-01  8.50000000E-01
  8.50000000E-01  8.50000000E-01  8.50000000E-01  8.50000000E-01  8.50000000E-01
  8.50000000E-01  8.50000000E-01  8.50000000E-01  8.50000000E-01  8.50000000E-01
  8.50000000E-01  8.50000000E-01  8.50000000E-01  8.50000000E-01  8.50000000E-01
  8.50000000E-01  8.50000000E-01  8.50000000E-01  8.50000000E-01  8.50000000E-01
  8.50000000E-01  8.50000000E-01  8.50000000E-01  8.50000000E-01  8.50000000E-01
  8.50000000E-01  8.50000000E-01  8.50000000E-01  8.50000000E-01  8.50000000E-01
  8.50000000E-01  8.50000000E-01  8.50000000E-01  8.50000000E-01  8.50000000E-01
  8.50000000E-01  8.50000000E-01  8.50000000E-01  8.50000000E-01  8.50000000E-01
  8.50000000E-01  8.50000000E-01  8.50000000E-01  8.50000000E-01  8.50000000E-01
  8.50000000E-01  8.50000000E-01  8.50000000E-01  8.50000000E-01  8.50000000E-01
  8.50000000E-01  8.50000000E-01  8.50000000E-01  8.50000000E-01  8.50000000E-01
  8.50000000E-01  8.50000000E-01  8.50000000E-01  8.50000000E-01  8.50000000E-01
  8.50000000E-01  8.50000000E-01  8.50000000E-01  8.50000000E-01  8.50000000E-01
  8.50000000E-01  8.50000000E-01  8.50000000E-01  8.50000000E-01  8.50000000E-01
  8.50000000E-01  8.50000000E-01  8.50000000E-01  8.50000000E-01  8.50000000E-01
  8.50000000E-01  8.50000000E-01  8.50000000E-01  8.50000000E-01  8.50000000E-01
  8.50000000E-01  8.50000000E-01  8.50000000E-01  8.50000000E-01  8.50000000E-01
  8.50000000E-01  8.50000000E-01  8.50000000E-01  8.50000000E-01  8.50000000E-01
  8.50000000E-01  8.50000000E-01  8.50000000E-01  8.50000000E-01  8.50000000E-01
  8.50000000E-01  8.50000000E-01  8.50000000E-01  8.50000000E-01  8.50000000E-01
  8.50000000E-01  8.50000000E-01  8.50000000E-01  8.50000000E-01  8.50000000E-01
  8.50000000E-01  8.50000000E-01  8.50000000E-01  8.50000000E-01  8.50000000E-01
  8.50000000E-01  8.50000000E-01  8.50000000E-01  8.50000000E-01  8.50000000E-01
  8.50000000E-01  8.50000000E-01  8.50000000E-01  8.50000000E-01  8.50000000E-01
  8.50000000E-01  8.50000000E-01  8.50000000E-01  8.50000000E-01  8.50000000E-01
  8.50000000E-01  8.50000000E-01  8.50000000E-01  8.50000000E-01  8.50000000E-01
  8.50000000E-01  8.50000000E-01  8.50000000E-01  8.50000000E-01  8.50000000E-01
  8.50000000E-01  8.50000000E-01  8.50000000E-01  8.50000000E-01  8.50000000E-01
  8.50000000E-01  8.50000000E-01  8.50000000E-01  8.50000000E-01  8.50000000E-01
  8.50000000E-01  8.50000000E-01  8.50000000E-01  8.50000000E-01  8.50000000E-01
  8.50000000E-01  8.50000000E-01  8.50000000E-01  8.50000000E-01  8.50000000E-01
  8.50000000E-01  8.50000000E-01  8.50000000E-01  8.50000000E-01  8.50000000E-01
  8.50000000E-01  8.50000000E-01  8.50000000E-01  8.50000000E-01  8.50000000E-01
  8.50000000E-01  8.50000000E-01  8.50000000E-01  8.50000000E-01  8.50000000E-01
  8.50000000E-01  8.50000000E-01  8.50000000E-01  8.50000000E-01  8.50000000E-01
  8.50000000E-01  8.50000000E-01  8.50000000E-01  8.50000000E-01  8.50000000E-01
  8.50000000E-01  8.50000000E-01  8.50000000E-01  8.50000000E-01  8.50000000E-01
  8.50000000E-01  8.50000000E-01  8.50000000E-01  8.50000000E-01  8.50000000E-01
  8.50000000E-01  8.50000000E-01  8.50000000E-01  8.50000000E-01  8.50000000E-01
  8.50000000E-01  8.50000000E-01  8.50000000E-01  8.50000000E-01  8.50000000E-01
  8.50000000E-01  8.50000000E-01  8.50000000E-01  8.50000000E-01  8.50000000E-01
  8.50000000E-01  8.50000000E-01  8.50000000E-01  8.50000000E-01  8.50000000E-01
  8.50000000E-01  8.50000000E-01  8.50000000E-01  8.50000000E-01  8.50000000E-01
  8.50000000E-01  8.50000000E-01  8.50000000E-01  8.50000000E-01  8.50000000E-01
  8.50000000E-01  8.50000000E-01  8.50000000E-01  8.50000000E-01  8.50000000E-01
  8.50000000E-01  8.50000000E-01  8.50000000E-01  8.50000000E-01  8.50000000E-01
  8.50000000E-01  8.50000000E-01  8.50000000E-01  8.50000000E-01  8.50000000E-01
  8.50000000E-01  8.50000000E-01  8.50000000E-01  8.50000000E-01  8.50000000E-01
  8.50000000E-01  8.50000000E-01  8.50000000E-01  8.50000000E-01  8.50000000E-01
  8.50000000E-01  8.50000000E-01  8.50000000E-01  8.50000000E-01  8.50000000E-01
  8.50000000E-01  8.50000000E-01  8.50000000E-01  8.50000000E-01  8.50000000E-01
  8.50000000E-01  8.50000000E-01  8.50000000E-01  8.50000000E-01  8.50000000E-01
  8.50000000E-01  8.50000000E-01  8.50000000E-01  8.50000000E-01  8.50000000E-01
  8.50000000E-01  8.50000000E-01  8.50000000E-01  8.50000000E-01  8.50000000E-01
  8.50000000E-01  8.50000000E-01  8.50000000E-01  8.50000000E-01  8.50000000E-01
  8.50000000E-01  8.50000000E-01  8.50000000E-01  8.50000000E-01  8.50000000E-01
  8.50000000E-01  8.50000000E-01  8.50000000E-01  8.50000000E-01  8.50000000E-01
  8.50000000E-01  8.50000000E-01  8.50000000E-01  8.50000000E-01  8.50000000E-01
  8.50000000E-01  8.50000000E-01  8.50000000E-01  8.50000000E-01  8.50000000E-01
  8.50000000E-01  8.50000000E-01  8.50000000E-01  8.50000000E-01  8.50000000E-01
  8.50000000E-01  8.50000000E-01  8.50000000E-01  8.50000000E-01  8.50000000E-01
  8.50000000E-01  8.50000000E-01  8.50000000E-01  8.50000000E-01  8.50000000E-01
  8.50000000E-01  8.50000000E-01  8.50000000E-01  8.50000000E-01  8.50000000E-01
  8.50000000E-01  8.50000000E-01  8.50000000E-01  8.50000000E-01  8.50000000E-01
  8.50000000E-01  8.50000000E-01  8.50000000E-01  8.50000000E-01  8.50000000E-01
  8.50000000E-01  8.50000000E-01  8.50000000E-01  8.50000000E-01  8.50000000E-01
  8.50000000E-01  8.50000000E-01  8.50000000E-01  8.50000000E-01  8.50000000E-01
  8.50000000E-01  8.50000000E-01  8.50000000E-01  8.50000000E-01  8.50000000E-01
  8.50000000E-01  8.50000000E-01  8.50000000E-01  8.50000000E-01  8.50000000E-01
  8.50000000E-01  8.50000000E-01  8.50000000E-01  8.50000000E-01  8.50000000E-01
  8.50000000E-01  8.50000000E-01  8.50000000E-01  8.50000000E-01  8.50000000E-01
  8.50000000E-01  8.50000000E-01  8.50000000E-01  8.50000000E-01  8.50000000E-01
  8.50000000E-01  8.50000000E-01  8.50000000E-01  8.50000000E-01  8.50000000E-01
  8.50000000E-01  8.50000000E-01  8.50000000E-01  8.50000000E-01  8.50000000E-01
  8.50000000E-01  8.50000000E-01  8.50000000E-01  8.50000000E-01  8.50000000E-01
  8.50000000E-01  8.50000000E-01  8.50000000E-01  8.50000000E-01  8.50000000E-01
  8.50000000E-01  8.50000000E-01  8.50000000E-01  8.50000000E-01  8.50000000E-01
  8.50000000E-01  8.50000000E-01  8.50000000E-01  8.50000000E-01  8.50000000E-01
  8.50000000E-01  8.50000000E-01  8.50000000E-01  8.50000000E-01  8.50000000E-01
  8.50000000E-01  8.50000000E-01  8.50000000E-01  8.50000000E-01  8.50000000E-01
  8.50000000E-01  8.50000000E-01  8.50000000E-01  8.50000000E-01  8.50000000E-01
  8.50000000E-01  8.50000000E-01  8.50000000E-01  8.50000000E-01  8.50000000E-01
  8.50000000E-01  8.50000000E-01  8.50000000E-01  8.50000000E-01  8.50000000E-01
  8.50000000E-01  8.50000000E-01  8.50000000E-01  8.50000000E-01  8.50000000E-01
  8.50000000E-01  8.50000000E-01  8.50000000E-01  8.50000000E-01  8.50000000E-01
  8.50000000E-01  8.50000000E-01  8.50000000E-01  8.50000000E-01  8.50000000E-01
  8.50000000E-01  8.50000000E-01  8.50000000E-01  8.50000000E-01  8.50000000E-01
  8.50000000E-01  8.50000000E-01  8.50000000E-01  8.50000000E-01  8.50000000E-01
  8.50000000E-01  8.50000000E-01  8.50000000E-01  8.50000000E-01  8.50000000E-01
  8.50000000E-01  8.50000000E-01  8.50000000E-01  8.50000000E-01  8.50000000E-01
  8.50000000E-01  8.50000000E-01  8.50000000E-01  8.50000000E-01  8.50000000E-01
  8.50000000E-01  8.50000000E-01  8.50000000E-01  8.50000000E-01  8.50000000E-01
  8.50000000E-01  8.50000000E-01  8.50000000E-01  8.50000000E-01  8.50000000E-01
  8.50000000E-01  8.50000000E-01  8.50000000E-01  8.50000000E-01  8.50000000E-01
  8.50000000E-01  8.50000000E-01  8.50000000E-01  8.50000000E-01  8.50000000E-01
  8.50000000E-01  8.50000000E-01  8.50000000E-01  8.50000000E-01  8.50000000E-01
  8.50000000E-01  8.50000000E-01  8.50000000E-01  8.50000000E-01  8.50000000E-01
  8.50000000E-01  8.50000000E-01  8.50000000E-01  8.50000000E-01  8.50000000E-01
  8.50000000E-01  8.50000000E-01  8.50000000E-01  8.50000000E-01  8.50000000E-01
  8.50000000E-01  8.50000000E-01  8.50000000E-01  8.50000000E-01  8.50000000E-01
  8.50000000E-01  8.50000000E-01  8.50000000E-01  8.50000000E-01  8.50000000E-01
  8.50000000E-01  8.50000000E-01  8.50000000E-01  8.50000000E-01  8.50000000E-01
  8.50000000E-01  8.50000000E-01  8.50000000E-01  8.50000000E-01  8.50000000E-01
  8.50000000E-01  8.50000000E-01  8.50000000E-01  8.50000000E-01  8.50000000E-01
  8.50000000E-01  8.50000000E-01  8.50000000E-01  8.50000000E-01  8.50000000E-01
  8.50000000E-01  8.50000000E-01  8.50000000E-01  8.50000000E-01  8.50000000E-01
  8.50000000E-01  8.50000000E-01  8.50000000E-01  8.50000000E-01  8.50000000E-01
  8.50000000E-01  8.50000000E-01  8.50000000E-01  8.50000000E-01  8.50000000E-01
  8.50000000E-01  8.50000000E-01  8.50000000E-01  8.50000000E-01  8.50000000E-01
  8.50000000E-01  8.50000000E-01  8.50000000E-01  8.50000000E-01  8.50000000E-01
  8.50000000E-01  8.50000000E-01  8.50000000E-01  8.50000000E-01  8.50000000E-01
  8.50000000E-01  8.50000000E-01  8.50000000E-01  8.50000000E-01  8.50000000E-01
  8.50000000E-01  8.50000000E-01  8.50000000E-01  8.50000000E-01  8.50000000E-01
  8.50000000E-01  8.50000000E-01  8.50000000E-01  8.50000000E-01  8.50000000E-01
  8.50000000E-01  8.50000000E-01  8.50000000E-01  8.50000000E-01  8.50000000E-01
  8.50000000E-01  8.50000000E-01  8.50000000E-01  8.50000000E-01  8.50000000E-01
  8.50000000E-01  8.50000000E-01  8.50000000E-01  8.50000000E-01  8.50000000E-01
  8.50000000E-01  8.50000000E-01  8.50000000E-01  8.50000000E-01  8.50000000E-01
  8.50000000E-01  8.50000000E-01  8.50000000E-01  8.50000000E-01  8.50000000E-01
  8.50000000E-01  8.50000000E-01  8.50000000E-01  8.50000000E-01  8.50000000E-01
  8.50000000E-01  8.50000000E-01  8.50000000E-01  8.50000000E-01  8.50000000E-01
  8.50000000E-01  8.50000000E-01  8.50000000E-01  8.50000000E-01  8.50000000E-01
  8.50000000E-01  8.50000000E-01  8.50000000E-01  8.50000000E-01  8.50000000E-01
  8.50000000E-01  8.50000000E-01  8.50000000E-01  8.50000000E-01  8.50000000E-01
  8.50000000E-01  8.50000000E-01  8.50000000E-01  8.50000000E-01  8.50000000E-01
  8.50000000E-01  8.50000000E-01  8.50000000E-01  8.50000000E-01  8.50000000E-01
  8.50000000E-01  8.50000000E-01  8.50000000E-01  8.50000000E-01  8.50000000E-01
  8.50000000E-01  8.50000000E-01  8.50000000E-01  8.50000000E-01  8.50000000E-01
  8.50000000E-01  8.50000000E-01  8.50000000E-01  8.50000000E-01  8.50000000E-01
  8.50000000E-01  8.50000000E-01  8.50000000E-01  8.50000000E-01  8.50000000E-01
  8.50000000E-01  8.50000000E-01  8.50000000E-01  8.50000000E-01  8.50000000E-01
  8.50000000E-01  8.50000000E-01  8.50000000E-01  8.50000000E-01  8.50000000E-01
  8.50000000E-01  8.50000000E-01  8.50000000E-01  8.50000000E-01  8.50000000E-01
  8.50000000E-01  8.50000000E-01  8.50000000E-01  8.50000000E-01  8.50000000E-01
  8.50000000E-01  8.50000000E-01  8.50000000E-01  8.50000000E-01  8.50000000E-01
  8.50000000E-01  8.50000000E-01  8.50000000E-01  8.50000000E-01  8.50000000E-01
  8.50000000E-01  8.50000000E-01  8.50000000E-01  8.50000000E-01  8.50000000E-01
  8.50000000E-01  8.50000000E-01  8.50000000E-01  8.50000000E-01  8.50000000E-01
  8.50000000E-01  8.50000000E-01  8.50000000E-01  8.50000000E-01  8.50000000E-01
  8.50000000E-01  8.50000000E-01  8.50000000E-01  8.50000000E-01  8.50000000E-01
  8.50000000E-01  8.50000000E-01  8.50000000E-01  8.50000000E-01  8.50000000E-01
  8.50000000E-01  8.50000000E-01  8.50000000E-01  8.50000000E-01  8.50000000E-01
  8.50000000E-01  8.50000000E-01  8.50000000E-01  8.50000000E-01  8.50000000E-01
  8.50000000E-01  8.50000000E-01  8.50000000E-01  8.50000000E-01  8.50000000E-01
  8.50000000E-01  8.50000000E-01  8.50000000E-01  8.50000000E-01  8.50000000E-01
  8.50000000E-01  8.50000000E-01  8.50000000E-01  8.50000000E-01  8.50000000E-01
  8.50000000E-01  8.50000000E-01  8.50000000E-01  8.50000000E-01  8.50000000E-01
  8.50000000E-01  8.50000000E-01  8.50000000E-01  8.50000000E-01  8.50000000E-01
  8.50000000E-01  8.50000000E-01  8.50000000E-01  8.50000000E-01  8.50000000E-01
  8.50000000E-01  8.50000000E-01  8.50000000E-01  8.50000000E-01  8.50000000E-01
  8.50000000E-01  8.50000000E-01  8.50000000E-01  8.50000000E-01  8.50000000E-01
  8.50000000E-01  8.50000000E-01  8.50000000E-01  8.50000000E-01  8.50000000E-01
  8.50000000E-01  8.50000000E-01  8.50000000E-01  8.50000000E-01  8.50000000E-01
  8.50000000E-01  8.50000000E-01  8.50000000E-01  8.50000000E-01  8.50000000E-01
  8.50000000E-01  8.50000000E-01  8.50000000E-01  8.50000000E-01  8.50000000E-01
  8.50000000E-01  8.50000000E-01  8.50000000E-01  8.50000000E-01  8.50000000E-01
  8.50000000E-01  8.50000000E-01  8.50000000E-01  8.50000000E-01  8.50000000E-01
  8.50000000E-01  8.50000000E-01  8.50000000E-01  8.50000000E-01  8.50000000E-01
  8.50000000E-01  8.50000000E-01  8.50000000E-01  8.50000000E-01  8.50000000E-01
  8.50000000E-01  8.50000000E-01  8.50000000E-01  8.50000000E-01  8.50000000E-01
  8.50000000E-01  8.50000000E-01  8.50000000E-01  8.50000000E-01  8.50000000E-01
  8.50000000E-01  8.50000000E-01  8.50000000E-01  8.50000000E-01  8.50000000E-01
  8.50000000E-01  8.50000000E-01  8.50000000E-01  8.50000000E-01  8.50000000E-01
  8.50000000E-01  8.50000000E-01  8.50000000E-01  8.50000000E-01  8.50000000E-01
  8.50000000E-01  8.50000000E-01  8.50000000E-01  8.50000000E-01  8.50000000E-01
  8.50000000E-01  8.50000000E-01  8.50000000E-01  8.50000000E-01  8.50000000E-01
  8.50000000E-01  8.50000000E-01  8.50000000E-01  8.50000000E-01  8.50000000E-01
  8.50000000E-01  8.50000000E-01  8.50000000E-01  8.50000000E-01  8.50000000E-01
  8.50000000E-01  8.50000000E-01  8.50000000E-01  8.50000000E-01  8.50000000E-01
  8.50000000E-01  8.50000000E-01  8.50000000E-01  8.50000000E-01  8.50000000E-01
  8.50000000E-01  8.50000000E-01  8.50000000E-01  8.50000000E-01  8.50000000E-01
  8.50000000E-01  8.50000000E-01  8.50000000E-01  8.50000000E-01  8.50000000E-01
  8.50000000E-01  8.50000000E-01  8.50000000E-01  8.50000000E-01  8.50000000E-01
  8.50000000E-01  8.50000000E-01  8.50000000E-01  8.50000000E-01  8.50000000E-01
  8.50000000E-01  8.50000000E-01  8.50000000E-01  8.50000000E-01  8.50000000E-01
  8.50000000E-01  8.50000000E-01  8.50000000E-01  8.50000000E-01  8.50000000E-01
  8.50000000E-01  8.50000000E-01  8.50000000E-01  8.50000000E-01  8.50000000E-01
  8.50000000E-01  8.50000000E-01  8.50000000E-01  8.50000000E-01  8.50000000E-01
  8.50000000E-01  8.50000000E-01  8.50000000E-01  8.50000000E-01  8.50000000E-01
  8.50000000E-01  8.50000000E-01  8.50000000E-01  8.50000000E-01  8.50000000E-01
  8.50000000E-01  8.50000000E-01  8.50000000E-01  8.50000000E-01  8.50000000E-01
  8.50000000E-01  8.50000000E-01  8.50000000E-01  8.50000000E-01  8.50000000E-01
  8.50000000E-01  8.50000000E-01  8.50000000E-01  8.50000000E-01  8.50000000E-01
  8.50000000E-01  8.50000000E-01  8.50000000E-01  8.50000000E-01  8.50000000E-01
  8.50000000E-01  8.50000000E-01  8.50000000E-01  8.50000000E-01  8.50000000E-01
  8.50000000E-01  8.50000000E-01  8.50000000E-01  8.50000000E-01  8.50000000E-01
  8.50000000E-01  8.50000000E-01  8.50000000E-01  8.50000000E-01  8.50000000E-01
  8.50000000E-01  8.50000000E-01  8.50000000E-01  8.50000000E-01  8.50000000E-01
  8.50000000E-01  8.50000000E-01  8.50000000E-01  8.50000000E-01  8.50000000E-01
  8.50000000E-01  8.50000000E-01  8.50000000E-01  8.50000000E-01  8.50000000E-01
  8.50000000E-01  8.50000000E-01  8.50000000E-01  8.50000000E-01  8.50000000E-01
  8.50000000E-01  8.50000000E-01  8.50000000E-01  8.50000000E-01  8.50000000E-01
  8.50000000E-01  8.50000000E-01  8.50000000E-01  8.50000000E-01  8.50000000E-01
  8.50000000E-01  8.50000000E-01  8.50000000E-01  8.50000000E-01  8.50000000E-01
  8.50000000E-01  8.50000000E-01  8.50000000E-01  8.50000000E-01  8.50000000E-01
  8.50000000E-01  8.50000000E-01  8.50000000E-01  8.50000000E-01  8.50000000E-01
  8.50000000E-01  8.50000000E-01  8.50000000E-01  8.50000000E-01  8.50000000E-01
  8.50000000E-01  8.50000000E-01  8.50000000E-01  8.50000000E-01  8.50000000E-01
  8.50000000E-01  8.50000000E-01  8.50000000E-01  8.50000000E-01  8.50000000E-01
  8.50000000E-01  8.50000000E-01  8.50000000E-01  8.50000000E-01  8.50000000E-01
  8.50000000E-01  8.50000000E-01  8.50000000E-01  8.50000000E-01  8.50000000E-01
  8.50000000E-01  8.50000000E-01  8.50000000E-01  8.50000000E-01  8.50000000E-01
  8.50000000E-01  8.50000000E-01  8.50000000E-01  8.50000000E-01  8.50000000E-01
  8.50000000E-01  8.50000000E-01  8.50000000E-01  8.50000000E-01  8.50000000E-01
  8.50000000E-01  8.50000000E-01  8.50000000E-01  8.50000000E-01  8.50000000E-01
  8.50000000E-01  8.50000000E-01  8.50000000E-01  8.50000000E-01  8.50000000E-01
  8.50000000E-01  8.50000000E-01  8.50000000E-01  8.50000000E-01  8.50000000E-01
  8.50000000E-01  8.50000000E-01  8.50000000E-01  8.50000000E-01  8.50000000E-01
  8.50000000E-01  8.50000000E-01  8.50000000E-01  8.50000000E-01  8.50000000E-01
  8.50000000E-01  8.50000000E-01  8.50000000E-01  8.50000000E-01  8.50000000E-01
  8.50000000E-01  8.50000000E-01  8.50000000E-01  8.50000000E-01  8.50000000E-01
  8.50000000E-01  8.50000000E-01  8.50000000E-01  8.50000000E-01  8.50000000E-01
  8.50000000E-01  8.50000000E-01  8.50000000E-01  8.50000000E-01  8.50000000E-01
  8.50000000E-01  8.50000000E-01  8.50000000E-01  8.50000000E-01  8.50000000E-01
  8.50000000E-01  8.50000000E-01  8.50000000E-01  8.50000000E-01  8.50000000E-01
  8.50000000E-01  8.50000000E-01  8.50000000E-01  8.50000000E-01  8.50000000E-01
  8.50000000E-01  8.50000000E-01  8.50000000E-01  8.50000000E-01  8.50000000E-01
  8.50000000E-01  8.50000000E-01  8.50000000E-01  8.50000000E-01  8.50000000E-01
  8.50000000E-01  8.50000000E-01  8.50000000E-01  8.50000000E-01  8.50000000E-01
  8.50000000E-01  8.50000000E-01  8.50000000E-01  8.50000000E-01  8.50000000E-01
  8.50000000E-01  8.50000000E-01  8.50000000E-01  8.50000000E-01  8.50000000E-01
  8.50000000E-01  8.50000000E-01  8.50000000E-01  8.50000000E-01  8.50000000E-01
  8.50000000E-01  8.50000000E-01  8.50000000E-01  8.50000000E-01  8.50000000E-01
  8.50000000E-01  8.50000000E-01  8.50000000E-01  8.50000000E-01  8.50000000E-01
  8.50000000E-01  8.50000000E-01  8.50000000E-01  8.50000000E-01  8.50000000E-01
  8.50000000E-01  8.50000000E-01  8.50000000E-01  8.50000000E-01  8.50000000E-01
  8.50000000E-01  8.50000000E-01  8.50000000E-01  8.50000000E-01  8.50000000E-01
  8.50000000E-01  8.50000000E-01  8.50000000E-01  8.50000000E-01  8.50000000E-01
  8.50000000E-01  8.50000000E-01  8.50000000E-01  8.50000000E-01  8.50000000E-01
  8.50000000E-01  8.50000000E-01  8.50000000E-01  8.50000000E-01  8.50000000E-01
  8.50000000E-01  8.50000000E-01  8.50000000E-01  8.50000000E-01  8.50000000E-01
  8.50000000E-01  8.50000000E-01  8.50000000E-01  8.50000000E-01  8.50000000E-01
  8.50000000E-01  8.50000000E-01  8.50000000E-01  8.50000000E-01  8.50000000E-01
  8.50000000E-01  8.50000000E-01  8.50000000E-01  8.50000000E-01  8.50000000E-01
  8.50000000E-01  8.50000000E-01  8.50000000E-01  8.50000000E-01  8.50000000E-01
  8.50000000E-01  8.50000000E-01  8.50000000E-01  8.50000000E-01  8.50000000E-01
  8.50000000E-01  8.50000000E-01  8.50000000E-01  8.50000000E-01  8.50000000E-01
  8.50000000E-01  8.50000000E-01  8.50000000E-01  8.50000000E-01  8.50000000E-01
  8.50000000E-01  8.50000000E-01  8.50000000E-01  8.50000000E-01  8.50000000E-01
  8.50000000E-01  8.50000000E-01  8.50000000E-01  8.50000000E-01  8.50000000E-01
  8.50000000E-01  8.50000000E-01  8.50000000E-01  8.50000000E-01  8.50000000E-01
  8.50000000E-01  8.50000000E-01  8.50000000E-01  8.50000000E-01  8.50000000E-01
  8.50000000E-01  8.50000000E-01  8.50000000E-01  8.50000000E-01  8.50000000E-01
  8.50000000E-01  8.50000000E-01  8.50000000E-01  8.50000000E-01  8.50000000E-01
  8.50000000E-01  8.50000000E-01  8.50000000E-01  8.50000000E-01  8.50000000E-01
  8.50000000E-01  8.50000000E-01  8.50000000E-01  8.50000000E-01  8.50000000E-01
  8.50000000E-01  8.50000000E-01  8.50000000E-01  8.50000000E-01  8.50000000E-01
  8.50000000E-01  8.50000000E-01  8.50000000E-01  8.50000000E-01  8.50000000E-01
  8.50000000E-01  8.50000000E-01  8.50000000E-01  8.50000000E-01  8.50000000E-01
  8.50000000E-01  8.50000000E-01  8.50000000E-01  8.50000000E-01  8.50000000E-01
  8.50000000E-01  8.50000000E-01  8.50000000E-01  8.50000000E-01  8.50000000E-01
  8.50000000E-01  8.50000000E-01  8.50000000E-01  8.50000000E-01  8.50000000E-01
  8.50000000E-01  8.50000000E-01  8.50000000E-01  8.50000000E-01  8.50000000E-01
  8.50000000E-01  8.50000000E-01  8.50000000E-01  8.50000000E-01  8.50000000E-01
  8.50000000E-01  8.50000000E-01  8.50000000E-01  8.50000000E-01  8.50000000E-01
  8.50000000E-01  8.50000000E-01  8.50000000E-01  8.50000000E-01  8.50000000E-01
  8.50000000E-01  8.50000000E-01  8.50000000E-01  8.50000000E-01  8.50000000E-01
  8.50000000E-01  8.50000000E-01  8.50000000E-01  8.50000000E-01  8.50000000E-01
  8.50000000E-01  8.50000000E-01  8.50000000E-01  8.50000000E-01  8.50000000E-01
  8.50000000E-01  8.50000000E-01  8.50000000E-01  8.50000000E-01  8.50000000E-01
  8.50000000E-01  8.50000000E-01  8.50000000E-01  8.50000000E-01  8.50000000E-01
  8.50000000E-01  8.50000000E-01  8.50000000E-01  8.50000000E-01  8.50000000E-01
  8.50000000E-01  8.50000000E-01  8.50000000E-01  8.50000000E-01  8.50000000E-01
  8.50000000E-01  8.50000000E-01  8.50000000E-01  8.50000000E-01  8.50000000E-01
  8.50000000E-01  8.50000000E-01  8.50000000E-01  8.50000000E-01  8.50000000E-01
  8.50000000E-01  8.50000000E-01  8.50000000E-01  8.50000000E-01  8.50000000E-01
  8.50000000E-01  8.50000000E-01  8.50000000E-01  8.50000000E-01  8.50000000E-01
  8.50000000E-01  8.50000000E-01  8.50000000E-01  8.50000000E-01  8.50000000E-01
  8.50000000E-01  8.50000000E-01  8.50000000E-01  8.50000000E-01  8.50000000E-01
  8.50000000E-01  8.50000000E-01  8.50000000E-01  8.50000000E-01  8.50000000E-01
  8.50000000E-01  8.50000000E-01  8.50000000E-01  8.50000000E-01  8.50000000E-01
  8.50000000E-01  8.50000000E-01  8.50000000E-01  8.50000000E-01  8.50000000E-01
  8.50000000E-01  8.50000000E-01  8.50000000E-01  8.50000000E-01  8.50000000E-01
  8.50000000E-01  8.50000000E-01  8.50000000E-01  8.50000000E-01  8.50000000E-01
  8.50000000E-01  8.50000000E-01  8.50000000E-01  8.50000000E-01  8.50000000E-01
  8.50000000E-01  8.50000000E-01  8.50000000E-01  8.50000000E-01  8.50000000E-01
  8.50000000E-01  8.50000000E-01  8.50000000E-01  8.50000000E-01  8.50000000E-01
  8.50000000E-01  8.50000000E-01  8.50000000E-01  8.50000000E-01  8.50000000E-01
  8.50000000E-01  8.50000000E-01  8.50000000E-01  8.50000000E-01  8.50000000E-01
  8.50000000E-01  8.50000000E-01  8.50000000E-01  8.50000000E-01  8.50000000E-01
  8.50000000E-01  8.50000000E-01  8.50000000E-01  8.50000000E-01  8.50000000E-01
  8.50000000E-01  8.50000000E-01  8.50000000E-01  8.50000000E-01  8.50000000E-01
  8.50000000E-01  8.50000000E-01  8.50000000E-01  8.50000000E-01  8.50000000E-01
  8.50000000E-01  8.50000000E-01  8.50000000E-01  8.50000000E-01  8.50000000E-01
  8.50000000E-01  8.50000000E-01  8.50000000E-01  8.50000000E-01  8.50000000E-01
  8.50000000E-01  8.50000000E-01  8.50000000E-01  8.50000000E-01  8.50000000E-01
  8.50000000E-01  8.50000000E-01  8.50000000E-01  8.50000000E-01  8.50000000E-01
  8.50000000E-01  8.50000000E-01  8.50000000E-01  8.50000000E-01  8.50000000E-01
  8.50000000E-01  8.50000000E-01  8.50000000E-01  8.50000000E-01  8.50000000E-01
  8.50000000E-01  8.50000000E-01  8.50000000E-01  8.50000000E-01  8.50000000E-01
  8.50000000E-01  8.50000000E-01  8.50000000E-01  8.50000000E-01  8.50000000E-01
  8.50000000E-01  8.50000000E-01  8.50000000E-01  8.50000000E-01  8.50000000E-01
  8.50000000E-01  8.50000000E-01  8.50000000E-01  8.50000000E-01  8.50000000E-01
  8.50000000E-01  8.50000000E-01  8.50000000E-01  8.50000000E-01  8.50000000E-01
  8.50000000E-01  8.50000000E-01  8.50000000E-01  8.50000000E-01  8.50000000E-01
  8.50000000E-01  8.50000000E-01  8.50000000E-01  8.50000000E-01  8.50000000E-01
  8.50000000E-01  8.50000000E-01  8.50000000E-01  8.50000000E-01  8.50000000E-01
  8.50000000E-01  8.50000000E-01  8.50000000E-01  8.50000000E-01  8.50000000E-01
  8.50000000E-01  8.50000000E-01  8.50000000E-01  8.50000000E-01  8.50000000E-01
  8.50000000E-01  8.50000000E-01  8.50000000E-01  8.50000000E-01  8.50000000E-01
  8.50000000E-01  8.50000000E-01  8.50000000E-01  8.50000000E-01  8.50000000E-01
  8.50000000E-01  8.50000000E-01  8.50000000E-01  8.50000000E-01  8.50000000E-01
  8.50000000E-01  8.50000000E-01  8.50000000E-01  8.50000000E-01  8.50000000E-01
  8.50000000E-01  8.50000000E-01  8.50000000E-01  8.50000000E-01  8.50000000E-01
  8.50000000E-01  8.50000000E-01  8.50000000E-01  8.50000000E-01  8.50000000E-01
  8.50000000E-01  8.50000000E-01  8.50000000E-01  8.50000000E-01  8.50000000E-01
  8.50000000E-01  8.50000000E-01  8.50000000E-01  8.50000000E-01  8.50000000E-01
  8.50000000E-01  8.50000000E-01  8.50000000E-01  8.50000000E-01  8.50000000E-01
  8.50000000E-01  8.50000000E-01  8.50000000E-01  8.50000000E-01  8.50000000E-01
  8.50000000E-01  8.50000000E-01  8.50000000E-01  8.50000000E-01  8.50000000E-01
  8.50000000E-01  8.50000000E-01  8.50000000E-01  8.50000000E-01  8.50000000E-01
  8.50000000E-01  8.50000000E-01  8.50000000E-01  8.50000000E-01  8.50000000E-01
  8.50000000E-01  8.50000000E-01  8.50000000E-01  8.50000000E-01  8.50000000E-01
  8.50000000E-01  8.50000000E-01  8.50000000E-01  8.50000000E-01  8.50000000E-01
  8.50000000E-01  8.50000000E-01  8.50000000E-01  8.50000000E-01  8.50000000E-01
  8.50000000E-01  8.50000000E-01  8.50000000E-01  8.50000000E-01  8.50000000E-01
  8.50000000E-01  8.50000000E-01  8.50000000E-01  8.50000000E-01  8.50000000E-01
  8.50000000E-01  8.50000000E-01  8.50000000E-01  8.50000000E-01  8.50000000E-01
  8.50000000E-01  8.50000000E-01  8.50000000E-01  8.50000000E-01  8.50000000E-01
  8.50000000E-01  8.50000000E-01  8.50000000E-01  8.50000000E-01  8.50000000E-01
  8.50000000E-01  8.50000000E-01  8.50000000E-01  8.50000000E-01  8.50000000E-01
  8.50000000E-01  8.50000000E-01  8.50000000E-01  8.50000000E-01  8.50000000E-01
  8.50000000E-01  8.50000000E-01  8.50000000E-01  8.50000000E-01  8.50000000E-01
  8.50000000E-01  8.50000000E-01  8.50000000E-01  8.50000000E-01  8.50000000E-01
  8.50000000E-01  8.50000000E-01  8.50000000E-01  8.50000000E-01  8.50000000E-01
  8.50000000E-01  8.50000000E-01  8.50000000E-01  8.50000000E-01  8.50000000E-01
  8.50000000E-01  8.50000000E-01  8.50000000E-01  8.50000000E-01  8.50000000E-01
  8.50000000E-01  8.50000000E-01  8.50000000E-01  8.50000000E-01  8.50000000E-01
  8.50000000E-01  8.50000000E-01  8.50000000E-01  8.50000000E-01  8.50000000E-01
  8.50000000E-01  8.50000000E-01  8.50000000E-01  8.50000000E-01  8.50000000E-01
  8.50000000E-01  8.50000000E-01  8.50000000E-01  8.50000000E-01  8.50000000E-01
  8.50000000E-01  8.50000000E-01  8.50000000E-01  8.50000000E-01  8.50000000E-01
  8.50000000E-01  8.50000000E-01  8.50000000E-01  8.50000000E-01  8.50000000E-01
  8.50000000E-01  8.50000000E-01  8.50000000E-01  8.50000000E-01  8.50000000E-01
  8.50000000E-01  8.50000000E-01  8.50000000E-01  8.50000000E-01  8.50000000E-01
  8.50000000E-01  8.50000000E-01  8.50000000E-01  8.50000000E-01  8.50000000E-01
  8.50000000E-01  8.50000000E-01  8.50000000E-01  8.50000000E-01  8.50000000E-01
  8.50000000E-01  8.50000000E-01  8.50000000E-01  8.50000000E-01  8.50000000E-01
  8.50000000E-01  8.50000000E-01  8.50000000E-01  8.50000000E-01  8.50000000E-01
  8.50000000E-01  8.50000000E-01  8.50000000E-01  8.50000000E-01  8.50000000E-01
  8.50000000E-01  8.50000000E-01  8.50000000E-01  8.50000000E-01  8.50000000E-01
  8.50000000E-01  8.50000000E-01  8.50000000E-01  8.50000000E-01  8.50000000E-01
  8.50000000E-01  8.50000000E-01  8.50000000E-01  8.50000000E-01  8.50000000E-01
  8.50000000E-01  8.50000000E-01  8.50000000E-01  8.50000000E-01  8.50000000E-01
  8.50000000E-01  8.50000000E-01  8.50000000E-01  8.50000000E-01  8.50000000E-01
  8.50000000E-01  8.50000000E-01  8.50000000E-01  8.50000000E-01  8.50000000E-01
  8.50000000E-01  8.50000000E-01  8.50000000E-01  8.50000000E-01  8.50000000E-01
  8.50000000E-01  8.50000000E-01  8.50000000E-01  8.50000000E-01  8.50000000E-01
  8.50000000E-01  8.50000000E-01  8.50000000E-01  8.50000000E-01  8.50000000E-01
  8.50000000E-01  8.50000000E-01  8.50000000E-01  8.50000000E-01  8.50000000E-01
  8.50000000E-01  8.50000000E-01  8.50000000E-01  8.50000000E-01  8.50000000E-01
  8.50000000E-01  8.50000000E-01  8.50000000E-01  8.50000000E-01  8.50000000E-01
  8.50000000E-01  8.50000000E-01  8.50000000E-01  8.50000000E-01  8.50000000E-01
  8.50000000E-01  8.50000000E-01  8.50000000E-01  8.50000000E-01  8.50000000E-01
  8.50000000E-01  8.50000000E-01  8.50000000E-01  8.50000000E-01  8.50000000E-01
  8.50000000E-01  8.50000000E-01  8.50000000E-01  8.50000000E-01  8.50000000E-01
  8.50000000E-01  8.50000000E-01  8.50000000E-01  8.50000000E-01  8.50000000E-01
  8.50000000E-01  8.50000000E-01  8.50000000E-01  8.50000000E-01  8.50000000E-01
  8.50000000E-01  8.50000000E-01  8.50000000E-01  8.50000000E-01  8.50000000E-01
  8.50000000E-01  8.50000000E-01  8.50000000E-01  8.50000000E-01  8.50000000E-01
  8.50000000E-01  8.50000000E-01  8.50000000E-01  8.50000000E-01  8.50000000E-01
  8.50000000E-01  8.50000000E-01  8.50000000E-01  8.50000000E-01  8.50000000E-01
  8.50000000E-01  8.50000000E-01  8.50000000E-01  8.50000000E-01  8.50000000E-01
  8.50000000E-01  8.50000000E-01  8.50000000E-01  8.50000000E-01  8.50000000E-01
  8.50000000E-01  8.50000000E-01  8.50000000E-01  8.50000000E-01  8.50000000E-01
  8.50000000E-01  8.50000000E-01  8.50000000E-01  8.50000000E-01  8.50000000E-01
  8.50000000E-01  8.50000000E-01  8.50000000E-01  8.50000000E-01  8.50000000E-01
  8.50000000E-01  8.50000000E-01  8.50000000E-01  8.50000000E-01  8.50000000E-01
  8.50000000E-01  8.50000000E-01  8.50000000E-01  8.50000000E-01  8.50000000E-01
  8.50000000E-01  8.50000000E-01  8.50000000E-01  8.50000000E-01  8.50000000E-01
  8.50000000E-01  8.50000000E-01  8.50000000E-01  8.50000000E-01  8.50000000E-01
  8.50000000E-01  8.50000000E-01  8.50000000E-01  8.50000000E-01  8.50000000E-01
  8.50000000E-01  8.50000000E-01  8.50000000E-01  8.50000000E-01  8.50000000E-01
  8.50000000E-01  8.50000000E-01  8.50000000E-01  8.50000000E-01  8.50000000E-01
  8.50000000E-01  8.50000000E-01  8.50000000E-01  8.50000000E-01  8.50000000E-01
  8.50000000E-01  8.50000000E-01  8.50000000E-01  8.50000000E-01  8.50000000E-01
  8.50000000E-01  8.50000000E-01  8.50000000E-01  8.50000000E-01  8.50000000E-01
  8.50000000E-01  8.50000000E-01  8.50000000E-01  8.50000000E-01  8.50000000E-01
  8.50000000E-01  8.50000000E-01  8.50000000E-01  8.50000000E-01  8.50000000E-01
  8.50000000E-01  8.50000000E-01  8.50000000E-01  8.50000000E-01  8.50000000E-01
  8.50000000E-01  8.50000000E-01  8.50000000E-01  8.50000000E-01  8.50000000E-01
  8.50000000E-01  8.50000000E-01  8.50000000E-01  8.50000000E-01  8.50000000E-01
  8.50000000E-01  8.50000000E-01  8.50000000E-01  8.50000000E-01  8.50000000E-01
  8.50000000E-01  8.50000000E-01  8.50000000E-01  8.50000000E-01  8.50000000E-01
  8.50000000E-01  8.50000000E-01  8.50000000E-01  8.50000000E-01  8.50000000E-01
  8.50000000E-01  8.50000000E-01  8.50000000E-01  8.50000000E-01  8.50000000E-01
  8.50000000E-01  8.50000000E-01  8.50000000E-01  8.50000000E-01  8.50000000E-01
  8.50000000E-01  8.50000000E-01  8.50000000E-01  8.50000000E-01  8.50000000E-01
  8.50000000E-01  8.50000000E-01  8.50000000E-01  8.50000000E-01  8.50000000E-01
  8.50000000E-01  8.50000000E-01  8.50000000E-01  8.50000000E-01  8.50000000E-01
  8.50000000E-01  8.50000000E-01  8.50000000E-01  8.50000000E-01  8.50000000E-01
  8.50000000E-01  8.50000000E-01  8.50000000E-01  8.50000000E-01  8.50000000E-01
  8.50000000E-01  8.50000000E-01  8.50000000E-01  8.50000000E-01  8.50000000E-01
  8.50000000E-01  8.50000000E-01  8.50000000E-01  8.50000000E-01  8.50000000E-01
  8.50000000E-01  8.50000000E-01  8.50000000E-01  8.50000000E-01  8.50000000E-01
  8.50000000E-01  8.50000000E-01  8.50000000E-01  8.50000000E-01  8.50000000E-01
  8.50000000E-01  8.50000000E-01  8.50000000E-01  8.50000000E-01  8.50000000E-01
  8.50000000E-01  8.50000000E-01  8.50000000E-01  8.50000000E-01  8.50000000E-01
  8.50000000E-01  8.50000000E-01  8.50000000E-01  8.50000000E-01  8.50000000E-01
  8.50000000E-01  8.50000000E-01  8.50000000E-01  8.50000000E-01  8.50000000E-01
  8.50000000E-01  8.50000000E-01  8.50000000E-01  8.50000000E-01  8.50000000E-01
  8.50000000E-01  8.50000000E-01  8.50000000E-01  8.50000000E-01  8.50000000E-01
  8.50000000E-01  8.50000000E-01  8.50000000E-01  8.50000000E-01  8.50000000E-01
  8.50000000E-01  8.50000000E-01  8.50000000E-01  8.50000000E-01  8.50000000E-01
  8.50000000E-01  8.50000000E-01  8.50000000E-01  8.50000000E-01  8.50000000E-01
  8.50000000E-01  8.50000000E-01  8.50000000E-01  8.50000000E-01  8.50000000E-01
  8.50000000E-01  8.50000000E-01  8.50000000E-01  8.50000000E-01  8.50000000E-01
  8.50000000E-01  8.50000000E-01  8.50000000E-01  8.50000000E-01  8.50000000E-01
  8.50000000E-01  8.50000000E-01  8.50000000E-01  8.50000000E-01  8.50000000E-01
  8.50000000E-01  8.50000000E-01  8.50000000E-01  8.50000000E-01  8.50000000E-01
  8.50000000E-01  8.50000000E-01  8.50000000E-01  8.50000000E-01  8.50000000E-01
  8.50000000E-01  8.50000000E-01  8.50000000E-01  8.50000000E-01  8.50000000E-01
  8.50000000E-01  8.50000000E-01  8.50000000E-01  8.50000000E-01  8.50000000E-01
  8.50000000E-01  8.50000000E-01  8.50000000E-01  8.50000000E-01  8.50000000E-01
  8.50000000E-01  8.50000000E-01  8.50000000E-01  8.50000000E-01  8.50000000E-01
  8.50000000E-01  8.50000000E-01  8.50000000E-01  8.50000000E-01  8.50000000E-01
  8.50000000E-01  8.50000000E-01  8.50000000E-01  8.50000000E-01  8.50000000E-01
  8.50000000E-01  8.50000000E-01  8.50000000E-01  8.50000000E-01  8.50000000E-01
  8.50000000E-01  8.50000000E-01  8.50000000E-01  8.50000000E-01  8.50000000E-01
  8.50000000E-01  8.50000000E-01  8.50000000E-01  8.50000000E-01  8.50000000E-01
  8.50000000E-01  8.50000000E-01  8.50000000E-01  8.50000000E-01  8.50000000E-01
  8.50000000E-01  8.50000000E-01  8.50000000E-01  8.50000000E-01  8.50000000E-01
  8.50000000E-01  8.50000000E-01  8.50000000E-01  8.50000000E-01  8.50000000E-01
  8.50000000E-01  8.50000000E-01  8.50000000E-01  8.50000000E-01  8.50000000E-01
  8.50000000E-01  8.50000000E-01  8.50000000E-01  8.50000000E-01  8.50000000E-01
  8.50000000E-01  8.50000000E-01  8.50000000E-01  8.50000000E-01  8.50000000E-01
  8.50000000E-01  8.50000000E-01  8.50000000E-01  8.50000000E-01  8.50000000E-01
  8.50000000E-01  8.50000000E-01  8.50000000E-01  8.50000000E-01  8.50000000E-01
  8.50000000E-01  8.50000000E-01  8.50000000E-01  8.50000000E-01  8.50000000E-01
  8.50000000E-01  8.50000000E-01  8.50000000E-01  8.50000000E-01  8.50000000E-01
  8.50000000E-01  8.50000000E-01  8.50000000E-01  8.50000000E-01  8.50000000E-01
  8.50000000E-01  8.50000000E-01  8.50000000E-01  8.50000000E-01  8.50000000E-01
  8.50000000E-01  8.50000000E-01  8.50000000E-01  8.50000000E-01  8.50000000E-01
  8.50000000E-01  8.50000000E-01  8.50000000E-01  8.50000000E-01  8.50000000E-01
  8.50000000E-01  8.50000000E-01  8.50000000E-01  8.50000000E-01  8.50000000E-01
  8.50000000E-01  8.50000000E-01  8.50000000E-01  8.50000000E-01  8.50000000E-01
  8.50000000E-01  8.50000000E-01  8.50000000E-01  8.50000000E-01  8.50000000E-01
  8.50000000E-01  8.50000000E-01  8.50000000E-01  8.50000000E-01  8.50000000E-01
  8.50000000E-01  8.50000000E-01  8.50000000E-01  8.50000000E-01  8.50000000E-01
  8.50000000E-01  8.50000000E-01  8.50000000E-01  8.50000000E-01  8.50000000E-01
  8.50000000E-01  8.50000000E-01  8.50000000E-01  8.50000000E-01  8.50000000E-01
  8.50000000E-01  8.50000000E-01  8.50000000E-01  8.50000000E-01  8.50000000E-01
  8.50000000E-01  8.50000000E-01  8.50000000E-01  8.50000000E-01  8.50000000E-01
  8.50000000E-01  8.50000000E-01  8.50000000E-01  8.50000000E-01  8.50000000E-01
  8.50000000E-01  8.50000000E-01  8.50000000E-01  8.50000000E-01  8.50000000E-01
  8.50000000E-01  8.50000000E-01  8.50000000E-01  8.50000000E-01  8.50000000E-01
  8.50000000E-01  8.50000000E-01  8.50000000E-01  8.50000000E-01  8.50000000E-01
  8.50000000E-01  8.50000000E-01  8.50000000E-01  8.50000000E-01  8.50000000E-01
  8.50000000E-01  8.50000000E-01  8.50000000E-01  8.50000000E-01  8.50000000E-01
  8.50000000E-01  8.50000000E-01  8.50000000E-01  8.50000000E-01  8.50000000E-01
  8.50000000E-01  8.50000000E-01  8.50000000E-01  8.50000000E-01  8.50000000E-01
  8.50000000E-01  8.50000000E-01  8.50000000E-01  8.50000000E-01  8.50000000E-01
  8.50000000E-01  8.50000000E-01  8.50000000E-01  8.50000000E-01  8.50000000E-01
  8.50000000E-01  8.50000000E-01  8.50000000E-01  8.50000000E-01  8.50000000E-01
  8.50000000E-01  8.50000000E-01  8.50000000E-01  8.50000000E-01  8.50000000E-01
  8.50000000E-01  8.50000000E-01  8.50000000E-01  8.50000000E-01  8.50000000E-01
  8.50000000E-01  8.50000000E-01  8.50000000E-01  8.50000000E-01  8.50000000E-01
  8.50000000E-01  8.50000000E-01  8.50000000E-01  8.50000000E-01  8.50000000E-01
  8.50000000E-01  8.50000000E-01  8.50000000E-01  8.50000000E-01  8.50000000E-01
  8.50000000E-01  8.50000000E-01  8.50000000E-01  8.50000000E-01  8.50000000E-01
  8.50000000E-01  8.50000000E-01  8.50000000E-01  8.50000000E-01  8.50000000E-01
  8.50000000E-01  8.50000000E-01  8.50000000E-01  8.50000000E-01  8.50000000E-01
  8.50000000E-01  8.50000000E-01  8.50000000E-01  8.50000000E-01  8.50000000E-01
  8.50000000E-01  8.50000000E-01  8.50000000E-01  8.50000000E-01  8.50000000E-01
  8.50000000E-01  8.50000000E-01  8.50000000E-01  8.50000000E-01  8.50000000E-01
  8.50000000E-01  8.50000000E-01  8.50000000E-01  8.50000000E-01  8.50000000E-01
  8.50000000E-01  8.50000000E-01  8.50000000E-01  8.50000000E-01  8.50000000E-01
  8.50000000E-01  8.50000000E-01  8.50000000E-01  8.50000000E-01  8.50000000E-01
  8.50000000E-01  8.50000000E-01  8.50000000E-01  8.50000000E-01  8.50000000E-01
  8.50000000E-01  8.50000000E-01  8.50000000E-01  8.50000000E-01  8.50000000E-01
  8.50000000E-01  8.50000000E-01  8.50000000E-01  8.50000000E-01  8.50000000E-01
  8.50000000E-01  8.50000000E-01  8.50000000E-01  8.50000000E-01  8.50000000E-01
  8.50000000E-01  8.50000000E-01  8.50000000E-01  8.50000000E-01  8.50000000E-01
  8.50000000E-01  8.50000000E-01  8.50000000E-01  8.50000000E-01  8.50000000E-01
  8.50000000E-01  8.50000000E-01  8.50000000E-01  8.50000000E-01  8.50000000E-01
  8.50000000E-01  8.50000000E-01  8.50000000E-01  8.50000000E-01  8.50000000E-01
  8.50000000E-01  8.50000000E-01  8.50000000E-01  8.50000000E-01  8.50000000E-01
  8.50000000E-01  8.50000000E-01  8.50000000E-01  8.50000000E-01  8.50000000E-01
  8.50000000E-01  8.50000000E-01  8.50000000E-01  8.50000000E-01  8.50000000E-01
  8.50000000E-01  8.50000000E-01  8.50000000E-01  8.50000000E-01  8.50000000E-01
  8.50000000E-01  8.50000000E-01  8.50000000E-01  8.50000000E-01  8.50000000E-01
  8.50000000E-01  8.50000000E-01  8.50000000E-01  8.50000000E-01  8.50000000E-01
  8.50000000E-01  8.50000000E-01  8.50000000E-01  8.50000000E-01  8.50000000E-01
  8.50000000E-01  8.50000000E-01  8.50000000E-01  8.50000000E-01  8.50000000E-01
  8.50000000E-01  8.50000000E-01  8.50000000E-01  8.50000000E-01  8.50000000E-01
  8.50000000E-01  8.50000000E-01  8.50000000E-01  8.50000000E-01  8.50000000E-01
  8.50000000E-01  8.50000000E-01  8.50000000E-01  8.50000000E-01  8.50000000E-01
  8.50000000E-01  8.50000000E-01  8.50000000E-01  8.50000000E-01  8.50000000E-01
  8.50000000E-01  8.50000000E-01  8.50000000E-01  8.50000000E-01  8.50000000E-01
  8.50000000E-01  8.50000000E-01  8.50000000E-01  8.50000000E-01  8.50000000E-01
  8.50000000E-01  8.50000000E-01  8.50000000E-01  8.50000000E-01  8.50000000E-01
  8.50000000E-01  8.50000000E-01  8.50000000E-01  8.50000000E-01  8.50000000E-01
  8.50000000E-01  8.50000000E-01  8.50000000E-01  8.50000000E-01  8.50000000E-01
  8.50000000E-01  8.50000000E-01  8.50000000E-01  8.50000000E-01  8.50000000E-01
  8.50000000E-01  8.50000000E-01  8.50000000E-01  8.50000000E-01  8.50000000E-01
  8.50000000E-01  8.50000000E-01  8.50000000E-01  8.50000000E-01  8.50000000E-01
  8.50000000E-01  8.50000000E-01  8.50000000E-01  8.50000000E-01  8.50000000E-01
  8.50000000E-01  8.50000000E-01  8.50000000E-01  8.50000000E-01  8.50000000E-01
  8.50000000E-01  8.50000000E-01  8.50000000E-01  8.50000000E-01  8.50000000E-01
  8.50000000E-01  8.50000000E-01  8.50000000E-01  8.50000000E-01  8.50000000E-01
  8.50000000E-01  8.50000000E-01  8.50000000E-01  8.50000000E-01  8.50000000E-01
  8.50000000E-01  8.50000000E-01  8.50000000E-01  8.50000000E-01  8.50000000E-01
  8.50000000E-01  8.50000000E-01  8.50000000E-01  8.50000000E-01  8.50000000E-01
  8.50000000E-01  8.50000000E-01  8.50000000E-01  8.50000000E-01  8.50000000E-01
  8.50000000E-01  8.50000000E-01  8.50000000E-01  8.50000000E-01  8.50000000E-01
  8.50000000E-01  8.50000000E-01  8.50000000E-01  8.50000000E-01  8.50000000E-01
  8.50000000E-01  8.50000000E-01  8.50000000E-01  8.50000000E-01  8.50000000E-01
  8.50000000E-01  8.50000000E-01  8.50000000E-01  8.50000000E-01  8.50000000E-01
  8.50000000E-01  8.50000000E-01  8.50000000E-01  8.50000000E-01  8.50000000E-01
  8.50000000E-01  8.50000000E-01  8.50000000E-01  8.50000000E-01  8.50000000E-01
  8.50000000E-01  8.50000000E-01  8.50000000E-01  8.50000000E-01  8.50000000E-01
  8.50000000E-01  8.50000000E-01  8.50000000E-01  8.50000000E-01  8.50000000E-01
  8.50000000E-01  8.50000000E-01  8.50000000E-01  8.50000000E-01  8.50000000E-01
  8.50000000E-01  8.50000000E-01  8.50000000E-01  8.50000000E-01  8.50000000E-01
  8.50000000E-01  8.50000000E-01  8.50000000E-01  8.50000000E-01  8.50000000E-01
  8.50000000E-01  8.50000000E-01  8.50000000E-01  8.50000000E-01  8.50000000E-01
  8.50000000E-01  8.50000000E-01  8.50000000E-01  8.50000000E-01  8.50000000E-01
  8.50000000E-01  8.50000000E-01  8.50000000E-01  8.50000000E-01  8.50000000E-01
  8.50000000E-01  8.50000000E-01  8.50000000E-01  8.50000000E-01  8.50000000E-01
  8.50000000E-01  8.50000000E-01  8.50000000E-01  8.50000000E-01  8.50000000E-01
  8.50000000E-01  8.50000000E-01  8.50000000E-01  8.50000000E-01  8.50000000E-01
  8.50000000E-01  8.50000000E-01  8.50000000E-01  8.50000000E-01  8.50000000E-01
  8.50000000E-01  8.50000000E-01  8.50000000E-01  8.50000000E-01  8.50000000E-01
  8.50000000E-01  8.50000000E-01  8.50000000E-01  8.50000000E-01  8.50000000E-01
  8.50000000E-01  8.50000000E-01  8.50000000E-01  8.50000000E-01  8.50000000E-01
  8.50000000E-01  8.50000000E-01  8.50000000E-01  8.50000000E-01  8.50000000E-01
  8.50000000E-01  8.50000000E-01  8.50000000E-01  8.50000000E-01  8.50000000E-01
  8.50000000E-01  8.50000000E-01  8.50000000E-01  8.50000000E-01  8.50000000E-01
  8.50000000E-01  8.50000000E-01  8.50000000E-01  8.50000000E-01  8.50000000E-01
  8.50000000E-01  8.50000000E-01  8.50000000E-01  8.50000000E-01  8.50000000E-01
  8.50000000E-01  8.50000000E-01  8.50000000E-01  8.50000000E-01  8.50000000E-01
  8.50000000E-01  8.50000000E-01  8.50000000E-01  8.50000000E-01  8.50000000E-01
  8.50000000E-01  8.50000000E-01  8.50000000E-01  8.50000000E-01  8.50000000E-01
  8.50000000E-01  8.50000000E-01  8.50000000E-01  8.50000000E-01  8.50000000E-01
  8.50000000E-01  8.50000000E-01  8.50000000E-01  8.50000000E-01  8.50000000E-01
  8.50000000E-01  8.50000000E-01  8.50000000E-01  8.50000000E-01  8.50000000E-01
  8.50000000E-01  8.50000000E-01  8.50000000E-01  8.50000000E-01  8.50000000E-01
  8.50000000E-01  8.50000000E-01  8.50000000E-01  8.50000000E-01  8.50000000E-01
  8.50000000E-01  8.50000000E-01  8.50000000E-01  8.50000000E-01  8.50000000E-01
  8.50000000E-01  8.50000000E-01  8.50000000E-01  8.50000000E-01  8.50000000E-01
  8.50000000E-01  8.50000000E-01  8.50000000E-01  8.50000000E-01  8.50000000E-01
  8.50000000E-01  8.50000000E-01  8.50000000E-01  8.50000000E-01  8.50000000E-01
  8.50000000E-01  8.50000000E-01  8.50000000E-01  8.50000000E-01  8.50000000E-01
  8.50000000E-01  8.50000000E-01  8.50000000E-01  8.50000000E-01  8.50000000E-01
  8.50000000E-01  8.50000000E-01  8.50000000E-01  8.50000000E-01  8.50000000E-01
  8.50000000E-01  8.50000000E-01  8.50000000E-01  8.50000000E-01  8.50000000E-01
  8.50000000E-01  8.50000000E-01  8.50000000E-01  8.50000000E-01  8.50000000E-01
  8.50000000E-01  8.50000000E-01  8.50000000E-01  8.50000000E-01  8.50000000E-01
  8.50000000E-01  8.50000000E-01  8.50000000E-01  8.50000000E-01  8.50000000E-01
  8.50000000E-01  8.50000000E-01  8.50000000E-01  8.50000000E-01  8.50000000E-01
  8.50000000E-01  8.50000000E-01  8.50000000E-01  8.50000000E-01  8.50000000E-01
  8.50000000E-01  8.50000000E-01  8.50000000E-01  8.50000000E-01  8.50000000E-01
  8.50000000E-01  8.50000000E-01  8.50000000E-01  8.50000000E-01  8.50000000E-01
  8.50000000E-01  8.50000000E-01  8.50000000E-01  8.50000000E-01  8.50000000E-01
  8.50000000E-01  8.50000000E-01  8.50000000E-01  8.50000000E-01  8.50000000E-01
  8.50000000E-01  8.50000000E-01  8.50000000E-01  8.50000000E-01  8.50000000E-01
  8.50000000E-01  8.50000000E-01  8.50000000E-01  8.50000000E-01  8.50000000E-01
  8.50000000E-01  8.50000000E-01  8.50000000E-01  8.50000000E-01  8.50000000E-01
  8.50000000E-01  8.50000000E-01  8.50000000E-01  8.50000000E-01  8.50000000E-01
  8.50000000E-01  8.50000000E-01  8.50000000E-01  8.50000000E-01  8.50000000E-01
  8.50000000E-01  8.50000000E-01  8.50000000E-01  8.50000000E-01  8.50000000E-01
  8.50000000E-01  8.50000000E-01  8.50000000E-01  8.50000000E-01  8.50000000E-01
  8.50000000E-01  8.50000000E-01  8.50000000E-01  8.50000000E-01  8.50000000E-01
  8.50000000E-01  8.50000000E-01  8.50000000E-01  8.50000000E-01  8.50000000E-01
  8.50000000E-01  8.50000000E-01  8.50000000E-01  8.50000000E-01  8.50000000E-01
  8.50000000E-01  8.50000000E-01  8.50000000E-01  8.50000000E-01  8.50000000E-01
  8.50000000E-01  8.50000000E-01  8.50000000E-01  8.50000000E-01  8.50000000E-01
  8.50000000E-01  8.50000000E-01  8.50000000E-01  8.50000000E-01  8.50000000E-01
  8.50000000E-01  8.50000000E-01  8.50000000E-01  8.50000000E-01  8.50000000E-01
  8.50000000E-01  8.50000000E-01  8.50000000E-01  8.50000000E-01  8.50000000E-01
  8.50000000E-01  8.50000000E-01  8.50000000E-01  8.50000000E-01  8.50000000E-01
  8.50000000E-01  8.50000000E-01  8.50000000E-01  8.50000000E-01  8.50000000E-01
  8.50000000E-01  8.50000000E-01  8.50000000E-01  8.50000000E-01  8.50000000E-01
  8.50000000E-01  8.50000000E-01  8.50000000E-01  8.50000000E-01  8.50000000E-01
  8.50000000E-01  8.50000000E-01  8.50000000E-01  8.50000000E-01  8.50000000E-01
  8.50000000E-01  8.50000000E-01  8.50000000E-01  8.50000000E-01  8.50000000E-01
  8.50000000E-01  8.50000000E-01  8.50000000E-01  8.50000000E-01  8.50000000E-01
  8.50000000E-01  8.50000000E-01  8.50000000E-01  8.50000000E-01  8.50000000E-01
  8.50000000E-01  8.50000000E-01  8.50000000E-01  8.50000000E-01  8.50000000E-01
  8.50000000E-01  8.50000000E-01  8.50000000E-01  8.50000000E-01  8.50000000E-01
  8.50000000E-01  8.50000000E-01  8.50000000E-01  8.50000000E-01  8.50000000E-01
  8.50000000E-01  8.50000000E-01  8.50000000E-01  8.50000000E-01  8.50000000E-01
  8.50000000E-01  8.50000000E-01  8.50000000E-01  8.50000000E-01  8.50000000E-01
  8.50000000E-01  8.50000000E-01  8.50000000E-01  8.50000000E-01  8.50000000E-01
  8.50000000E-01  8.50000000E-01  8.50000000E-01  8.50000000E-01  8.50000000E-01
  8.50000000E-01  8.50000000E-01  8.50000000E-01  8.50000000E-01  8.50000000E-01
  8.50000000E-01  8.50000000E-01  8.50000000E-01  8.50000000E-01  8.50000000E-01
  8.50000000E-01  8.50000000E-01  8.50000000E-01  8.50000000E-01  8.50000000E-01
  8.50000000E-01  8.50000000E-01  8.50000000E-01  8.50000000E-01  8.50000000E-01
  8.50000000E-01  8.50000000E-01  8.50000000E-01  8.50000000E-01  8.50000000E-01
  8.50000000E-01  8.50000000E-01  8.50000000E-01  8.50000000E-01  8.50000000E-01
  8.50000000E-01  8.50000000E-01  8.50000000E-01  8.50000000E-01  8.50000000E-01
  8.50000000E-01  8.50000000E-01  8.50000000E-01  8.50000000E-01  8.50000000E-01
  8.50000000E-01  8.50000000E-01  8.50000000E-01  8.50000000E-01  8.50000000E-01
  8.50000000E-01  8.50000000E-01  8.50000000E-01  8.50000000E-01  8.50000000E-01
  8.50000000E-01  8.50000000E-01  8.50000000E-01  8.50000000E-01  8.50000000E-01
  8.50000000E-01  8.50000000E-01  8.50000000E-01  8.50000000E-01  8.50000000E-01
  8.50000000E-01  8.50000000E-01  8.50000000E-01  8.50000000E-01  8.50000000E-01
  8.50000000E-01  8.50000000E-01  8.50000000E-01  8.50000000E-01  8.50000000E-01
  8.50000000E-01  8.50000000E-01  8.50000000E-01  8.50000000E-01  8.50000000E-01
  8.50000000E-01  8.50000000E-01  8.50000000E-01  8.50000000E-01  8.50000000E-01
  8.50000000E-01  8.50000000E-01  8.50000000E-01  8.50000000E-01  8.50000000E-01
  8.50000000E-01  8.50000000E-01  8.50000000E-01  8.50000000E-01  8.50000000E-01
  8.50000000E-01  8.50000000E-01  8.50000000E-01  8.50000000E-01  8.50000000E-01
  8.50000000E-01  8.50000000E-01  8.50000000E-01  8.50000000E-01  8.50000000E-01
  8.50000000E-01  8.50000000E-01  8.50000000E-01  8.50000000E-01  8.50000000E-01
  8.50000000E-01  8.50000000E-01  8.50000000E-01  8.50000000E-01  8.50000000E-01
  8.50000000E-01  8.50000000E-01  8.50000000E-01  8.50000000E-01  8.50000000E-01
  8.50000000E-01  8.50000000E-01  8.50000000E-01  8.50000000E-01  8.50000000E-01
  8.50000000E-01  8.50000000E-01  8.50000000E-01  8.50000000E-01  8.50000000E-01
  8.50000000E-01  8.50000000E-01  8.50000000E-01  8.50000000E-01  8.50000000E-01
  8.50000000E-01  8.50000000E-01  8.50000000E-01  8.50000000E-01  8.50000000E-01
  8.50000000E-01  8.50000000E-01  8.50000000E-01  8.50000000E-01  8.50000000E-01
  8.50000000E-01  8.50000000E-01  8.50000000E-01  8.50000000E-01  8.50000000E-01
  8.50000000E-01  8.50000000E-01  8.50000000E-01  8.50000000E-01  8.50000000E-01
  8.50000000E-01  8.50000000E-01  8.50000000E-01  8.50000000E-01  8.50000000E-01
  8.50000000E-01  8.50000000E-01  8.50000000E-01  8.50000000E-01  8.50000000E-01
  8.50000000E-01  8.50000000E-01  8.50000000E-01  8.50000000E-01  8.50000000E-01
  8.50000000E-01  8.50000000E-01  8.50000000E-01  8.50000000E-01  8.50000000E-01
  8.50000000E-01  8.50000000E-01  8.50000000E-01  8.50000000E-01  8.50000000E-01
  8.50000000E-01  8.50000000E-01  8.50000000E-01  8.50000000E-01  8.50000000E-01
  8.50000000E-01  8.50000000E-01  8.50000000E-01  8.50000000E-01  8.50000000E-01
  8.50000000E-01  8.50000000E-01  8.50000000E-01  8.50000000E-01  8.50000000E-01
  8.50000000E-01  8.50000000E-01  8.50000000E-01  8.50000000E-01  8.50000000E-01
  8.50000000E-01  8.50000000E-01  8.50000000E-01  8.50000000E-01  8.50000000E-01
  8.50000000E-01  8.50000000E-01  8.50000000E-01  8.50000000E-01  8.50000000E-01
  8.50000000E-01  8.50000000E-01  8.50000000E-01  8.50000000E-01  8.50000000E-01
  8.50000000E-01  8.50000000E-01  8.50000000E-01  8.50000000E-01  8.50000000E-01
  8.50000000E-01  8.50000000E-01  8.50000000E-01  8.50000000E-01  8.50000000E-01
  8.50000000E-01  8.50000000E-01  8.50000000E-01  8.50000000E-01  8.50000000E-01
  8.50000000E-01  8.50000000E-01  8.50000000E-01  8.50000000E-01  8.50000000E-01
  8.50000000E-01  8.50000000E-01  8.50000000E-01  8.50000000E-01  8.50000000E-01
  8.50000000E-01  8.50000000E-01  8.50000000E-01  8.50000000E-01  8.50000000E-01
  8.50000000E-01  8.50000000E-01  8.50000000E-01  8.50000000E-01  8.50000000E-01
  8.50000000E-01  8.50000000E-01  8.50000000E-01  8.50000000E-01  8.50000000E-01
  8.50000000E-01  8.50000000E-01  8.50000000E-01  8.50000000E-01  8.50000000E-01
  8.50000000E-01  8.50000000E-01  8.50000000E-01  8.50000000E-01  8.50000000E-01
  8.50000000E-01  8.50000000E-01  8.50000000E-01  8.50000000E-01  8.50000000E-01
  8.50000000E-01  8.50000000E-01  8.50000000E-01  8.50000000E-01  8.50000000E-01
  8.50000000E-01  8.50000000E-01  8.50000000E-01  8.50000000E-01  8.50000000E-01
  8.50000000E-01  8.50000000E-01  8.50000000E-01  8.50000000E-01  8.50000000E-01
  8.50000000E-01  8.50000000E-01  8.50000000E-01  8.50000000E-01  8.50000000E-01
  8.50000000E-01  8.50000000E-01  8.50000000E-01  8.50000000E-01  8.50000000E-01
  8.50000000E-01  8.50000000E-01  8.50000000E-01  8.50000000E-01  8.50000000E-01
  8.50000000E-01  8.50000000E-01  8.50000000E-01  8.50000000E-01  8.50000000E-01
  8.50000000E-01  8.50000000E-01  8.50000000E-01  8.50000000E-01  8.50000000E-01
  8.50000000E-01  8.50000000E-01  8.50000000E-01  8.50000000E-01  8.50000000E-01
  8.50000000E-01  8.50000000E-01  8.50000000E-01  8.50000000E-01  8.50000000E-01
  8.50000000E-01  8.50000000E-01  8.50000000E-01  8.50000000E-01  8.50000000E-01
  8.50000000E-01  8.50000000E-01  8.50000000E-01  8.50000000E-01  8.50000000E-01
  8.50000000E-01  8.50000000E-01  8.50000000E-01  8.50000000E-01  8.50000000E-01
  8.50000000E-01  8.50000000E-01  8.50000000E-01  8.50000000E-01  8.50000000E-01
  8.50000000E-01  8.50000000E-01  8.50000000E-01  8.50000000E-01  8.50000000E-01
  8.50000000E-01  8.50000000E-01  8.50000000E-01  8.50000000E-01  8.50000000E-01
  8.50000000E-01  8.50000000E-01  8.50000000E-01  8.50000000E-01  8.50000000E-01
  8.50000000E-01  8.50000000E-01  8.50000000E-01  8.50000000E-01  8.50000000E-01
  8.50000000E-01  8.50000000E-01  8.50000000E-01  8.50000000E-01  8.50000000E-01
  8.50000000E-01  8.50000000E-01  8.50000000E-01  8.50000000E-01  8.50000000E-01
  8.50000000E-01  8.50000000E-01  8.50000000E-01  8.50000000E-01  8.50000000E-01
  8.50000000E-01  8.50000000E-01  8.50000000E-01  8.50000000E-01  8.50000000E-01
  8.50000000E-01  8.50000000E-01  8.50000000E-01  8.50000000E-01  8.50000000E-01
  8.50000000E-01  8.50000000E-01  8.50000000E-01  8.50000000E-01  8.50000000E-01
  8.50000000E-01  8.50000000E-01  8.50000000E-01  8.50000000E-01  8.50000000E-01
  8.50000000E-01  8.50000000E-01  8.50000000E-01  8.50000000E-01  8.50000000E-01
  8.50000000E-01  8.50000000E-01  8.50000000E-01  8.50000000E-01  8.50000000E-01
  8.50000000E-01  8.50000000E-01  8.50000000E-01  8.50000000E-01  8.50000000E-01
  8.50000000E-01  8.50000000E-01  8.50000000E-01  8.50000000E-01  8.50000000E-01
  8.50000000E-01  8.50000000E-01  8.50000000E-01  8.50000000E-01  8.50000000E-01
  8.50000000E-01  8.50000000E-01  8.50000000E-01  8.50000000E-01  8.50000000E-01
  8.50000000E-01  8.50000000E-01  8.50000000E-01  8.50000000E-01  8.50000000E-01
  8.50000000E-01  8.50000000E-01  8.50000000E-01  8.50000000E-01  8.50000000E-01
  8.50000000E-01  8.50000000E-01  8.50000000E-01  8.50000000E-01  8.50000000E-01
  8.50000000E-01  8.50000000E-01  8.50000000E-01  8.50000000E-01  8.50000000E-01
  8.50000000E-01  8.50000000E-01  8.50000000E-01  8.50000000E-01  8.50000000E-01
  8.50000000E-01  8.50000000E-01  8.50000000E-01  8.50000000E-01  8.50000000E-01
  8.50000000E-01  8.50000000E-01  8.50000000E-01  8.50000000E-01  8.50000000E-01
  8.50000000E-01  8.50000000E-01  8.50000000E-01  8.50000000E-01  8.50000000E-01
  8.50000000E-01  8.50000000E-01  8.50000000E-01  8.50000000E-01  8.50000000E-01
  8.50000000E-01  8.50000000E-01  8.50000000E-01  8.50000000E-01  8.50000000E-01
  8.50000000E-01  8.50000000E-01  8.50000000E-01  8.50000000E-01  8.50000000E-01
  8.50000000E-01  8.50000000E-01  8.50000000E-01  8.50000000E-01  8.50000000E-01
  8.50000000E-01  8.50000000E-01  8.50000000E-01  8.50000000E-01  8.50000000E-01
  8.50000000E-01  8.50000000E-01  8.50000000E-01  8.50000000E-01  8.50000000E-01
  8.50000000E-01  8.50000000E-01  8.50000000E-01  8.50000000E-01  8.50000000E-01
  8.50000000E-01  8.50000000E-01  8.50000000E-01  8.50000000E-01  8.50000000E-01
  8.50000000E-01  8.50000000E-01  8.50000000E-01  8.50000000E-01  8.50000000E-01
  8.50000000E-01  8.50000000E-01  8.50000000E-01  8.50000000E-01  8.50000000E-01
  8.50000000E-01  8.50000000E-01  8.50000000E-01  8.50000000E-01  8.50000000E-01
  8.50000000E-01  8.50000000E-01  8.50000000E-01  8.50000000E-01  8.50000000E-01
  8.50000000E-01  8.50000000E-01  8.50000000E-01  8.50000000E-01  8.50000000E-01
  8.50000000E-01  8.50000000E-01  8.50000000E-01  8.50000000E-01  8.50000000E-01
  8.50000000E-01  8.50000000E-01  8.50000000E-01  8.50000000E-01  8.50000000E-01
  8.50000000E-01  8.50000000E-01  8.50000000E-01  8.50000000E-01  8.50000000E-01
  8.50000000E-01  8.50000000E-01  8.50000000E-01  8.50000000E-01  8.50000000E-01
  8.50000000E-01  8.50000000E-01  8.50000000E-01  8.50000000E-01  8.50000000E-01
  8.50000000E-01  8.50000000E-01  8.50000000E-01  8.50000000E-01  8.50000000E-01
  8.50000000E-01  8.50000000E-01  8.50000000E-01  8.50000000E-01  8.50000000E-01
  8.50000000E-01  8.50000000E-01  8.50000000E-01  8.50000000E-01  8.50000000E-01
  8.50000000E-01  8.50000000E-01  8.50000000E-01  8.50000000E-01  8.50000000E-01
  8.50000000E-01  8.50000000E-01  8.50000000E-01  8.50000000E-01  8.50000000E-01
  8.50000000E-01  8.50000000E-01  8.50000000E-01  8.50000000E-01  8.50000000E-01
  8.50000000E-01  8.50000000E-01  8.50000000E-01  8.50000000E-01  8.50000000E-01
  8.50000000E-01  8.50000000E-01  8.50000000E-01  8.50000000E-01  8.50000000E-01
  8.50000000E-01  8.50000000E-01  8.50000000E-01  8.50000000E-01  8.50000000E-01
  8.50000000E-01  8.50000000E-01  8.50000000E-01  8.50000000E-01  8.50000000E-01
  8.50000000E-01  8.50000000E-01  8.50000000E-01  8.50000000E-01  8.50000000E-01
  8.50000000E-01  8.50000000E-01  8.50000000E-01  8.50000000E-01  8.50000000E-01
  8.50000000E-01  8.50000000E-01  8.50000000E-01  8.50000000E-01  8.50000000E-01
  8.50000000E-01  8.50000000E-01  8.50000000E-01  8.50000000E-01  8.50000000E-01
  8.50000000E-01  8.50000000E-01  8.50000000E-01  8.50000000E-01  8.50000000E-01
  8.50000000E-01  8.50000000E-01  8.50000000E-01  8.50000000E-01  8.50000000E-01
  8.50000000E-01  8.50000000E-01  8.50000000E-01  8.50000000E-01  8.50000000E-01
  8.50000000E-01  8.50000000E-01  8.50000000E-01  8.50000000E-01  8.50000000E-01
  8.50000000E-01  8.50000000E-01  8.50000000E-01  8.50000000E-01  8.50000000E-01
  8.50000000E-01  8.50000000E-01  8.50000000E-01  8.50000000E-01  8.50000000E-01
  8.50000000E-01  8.50000000E-01  8.50000000E-01  8.50000000E-01  8.50000000E-01
  8.50000000E-01  8.50000000E-01  8.50000000E-01  8.50000000E-01  8.50000000E-01
  8.50000000E-01  8.50000000E-01  8.50000000E-01  8.50000000E-01  8.50000000E-01
  8.50000000E-01  8.50000000E-01  8.50000000E-01  8.50000000E-01  8.50000000E-01
  8.50000000E-01  8.50000000E-01  8.50000000E-01  8.50000000E-01  8.50000000E-01
  8.50000000E-01  8.50000000E-01  8.50000000E-01  8.50000000E-01  8.50000000E-01
  8.50000000E-01  8.50000000E-01  8.50000000E-01  8.50000000E-01  8.50000000E-01
  8.50000000E-01  8.50000000E-01  8.50000000E-01  8.50000000E-01  8.50000000E-01
  8.50000000E-01  8.50000000E-01  8.50000000E-01  8.50000000E-01  8.50000000E-01
  8.50000000E-01  8.50000000E-01  8.50000000E-01  8.50000000E-01  8.50000000E-01
  8.50000000E-01  8.50000000E-01  8.50000000E-01  8.50000000E-01  8.50000000E-01
  8.50000000E-01  8.50000000E-01  8.50000000E-01  8.50000000E-01  8.50000000E-01
  8.50000000E-01  8.50000000E-01  8.50000000E-01  8.50000000E-01  8.50000000E-01
  8.50000000E-01  8.50000000E-01  8.50000000E-01  8.50000000E-01  8.50000000E-01
  8.50000000E-01  8.50000000E-01  8.50000000E-01  8.50000000E-01  8.50000000E-01
  8.50000000E-01  8.50000000E-01  8.50000000E-01  8.50000000E-01  8.50000000E-01
  8.50000000E-01  8.50000000E-01  8.50000000E-01  8.50000000E-01  8.50000000E-01
  8.50000000E-01  8.50000000E-01  8.50000000E-01  8.50000000E-01  8.50000000E-01
  8.50000000E-01  8.50000000E-01  8.50000000E-01  8.50000000E-01  8.50000000E-01
  8.50000000E-01  8.50000000E-01  8.50000000E-01  8.50000000E-01  8.50000000E-01
  8.50000000E-01  8.50000000E-01  8.50000000E-01  8.50000000E-01  8.50000000E-01
  8.50000000E-01  8.50000000E-01  8.50000000E-01  8.50000000E-01  8.50000000E-01
  8.50000000E-01  8.50000000E-01  8.50000000E-01  8.50000000E-01  8.50000000E-01
  8.50000000E-01  8.50000000E-01  8.50000000E-01  8.50000000E-01  8.50000000E-01
  8.50000000E-01  8.50000000E-01  8.50000000E-01  8.50000000E-01  8.50000000E-01
  8.50000000E-01  8.50000000E-01  8.50000000E-01  8.50000000E-01  8.50000000E-01
  8.50000000E-01  8.50000000E-01  8.50000000E-01  8.50000000E-01  8.50000000E-01
  8.50000000E-01  8.50000000E-01  8.50000000E-01  8.50000000E-01  8.50000000E-01
  8.50000000E-01  8.50000000E-01  8.50000000E-01  8.50000000E-01  8.50000000E-01
  8.50000000E-01  8.50000000E-01  8.50000000E-01  8.50000000E-01  8.50000000E-01
  8.50000000E-01  8.50000000E-01  8.50000000E-01  8.50000000E-01  8.50000000E-01
  8.50000000E-01  8.50000000E-01  8.50000000E-01  8.50000000E-01  8.50000000E-01
  8.50000000E-01  8.50000000E-01  8.50000000E-01  8.50000000E-01  8.50000000E-01
  8.50000000E-01  8.50000000E-01  8.50000000E-01  8.50000000E-01  8.50000000E-01
  8.50000000E-01  8.50000000E-01  8.50000000E-01  8.50000000E-01  8.50000000E-01
  8.50000000E-01  8.50000000E-01  8.50000000E-01  8.50000000E-01  8.50000000E-01
  8.50000000E-01  8.50000000E-01  8.50000000E-01  8.50000000E-01  8.50000000E-01
  8.50000000E-01  8.50000000E-01  8.50000000E-01  8.50000000E-01  8.50000000E-01
  8.50000000E-01  8.50000000E-01  8.50000000E-01  8.50000000E-01  8.50000000E-01
  8.50000000E-01  8.50000000E-01  8.50000000E-01  8.50000000E-01  8.50000000E-01
  8.50000000E-01  8.50000000E-01  8.50000000E-01  8.50000000E-01  8.50000000E-01
  8.50000000E-01  8.50000000E-01  8.50000000E-01  8.50000000E-01  8.50000000E-01
  8.50000000E-01  8.50000000E-01  8.50000000E-01  8.50000000E-01  8.50000000E-01
  8.50000000E-01  8.50000000E-01  8.50000000E-01  8.50000000E-01  8.50000000E-01
  8.50000000E-01  8.50000000E-01  8.50000000E-01  8.50000000E-01  8.50000000E-01
  8.50000000E-01  8.50000000E-01  8.50000000E-01  8.50000000E-01  8.50000000E-01
  8.50000000E-01  8.50000000E-01  8.50000000E-01  8.50000000E-01  8.50000000E-01
  8.50000000E-01  8.50000000E-01  8.50000000E-01  8.50000000E-01  8.50000000E-01
  8.50000000E-01  8.50000000E-01  8.50000000E-01  8.50000000E-01  8.50000000E-01
  8.50000000E-01  8.50000000E-01  8.50000000E-01  8.50000000E-01  8.50000000E-01
  8.50000000E-01  8.50000000E-01  8.50000000E-01  8.50000000E-01  8.50000000E-01
  8.50000000E-01  8.50000000E-01  8.50000000E-01  8.50000000E-01  8.50000000E-01
  8.50000000E-01  8.50000000E-01  8.50000000E-01  8.50000000E-01  8.50000000E-01
  8.50000000E-01  8.50000000E-01  8.50000000E-01  8.50000000E-01  8.50000000E-01
  8.50000000E-01  8.50000000E-01  8.50000000E-01  8.50000000E-01  8.50000000E-01
  8.50000000E-01  8.50000000E-01  8.50000000E-01  8.50000000E-01  8.50000000E-01
  8.50000000E-01  8.50000000E-01  8.50000000E-01  8.50000000E-01  8.50000000E-01
  8.50000000E-01  8.50000000E-01  8.50000000E-01  8.50000000E-01  8.50000000E-01
  8.50000000E-01  8.50000000E-01  8.50000000E-01  8.50000000E-01  8.50000000E-01
  8.50000000E-01  8.50000000E-01  8.50000000E-01  8.50000000E-01  8.50000000E-01
  8.50000000E-01  8.50000000E-01  8.50000000E-01  8.50000000E-01  8.50000000E-01
  8.50000000E-01  8.50000000E-01  8.50000000E-01  8.50000000E-01  8.50000000E-01
  8.50000000E-01  8.50000000E-01  8.50000000E-01  8.50000000E-01  8.50000000E-01
  8.50000000E-01  8.50000000E-01  8.50000000E-01  8.50000000E-01  8.50000000E-01
  8.50000000E-01  8.50000000E-01  8.50000000E-01  8.50000000E-01  8.50000000E-01
  8.50000000E-01  8.50000000E-01  8.50000000E-01  8.50000000E-01  8.50000000E-01
  8.50000000E-01  8.50000000E-01  8.50000000E-01  8.50000000E-01  8.50000000E-01
  8.50000000E-01  8.50000000E-01  8.50000000E-01  8.50000000E-01  8.50000000E-01
  8.50000000E-01  8.50000000E-01  8.50000000E-01  8.50000000E-01  8.50000000E-01
  8.50000000E-01  8.50000000E-01  8.50000000E-01  8.50000000E-01  8.50000000E-01
  8.50000000E-01  8.50000000E-01  8.50000000E-01  8.50000000E-01  8.50000000E-01
  8.50000000E-01  8.50000000E-01  8.50000000E-01  8.50000000E-01  8.50000000E-01
  8.50000000E-01  8.50000000E-01  8.50000000E-01  8.50000000E-01  8.50000000E-01
  8.50000000E-01  8.50000000E-01  8.50000000E-01  8.50000000E-01  8.50000000E-01
  8.50000000E-01  8.50000000E-01  8.50000000E-01  8.50000000E-01  8.50000000E-01
  8.50000000E-01  8.50000000E-01  8.50000000E-01  8.50000000E-01  8.50000000E-01
  8.50000000E-01  8.50000000E-01  8.50000000E-01  8.50000000E-01  8.50000000E-01
  8.50000000E-01  8.50000000E-01  8.50000000E-01  8.50000000E-01  8.50000000E-01
  8.50000000E-01  8.50000000E-01  8.50000000E-01  8.50000000E-01  8.50000000E-01
  8.50000000E-01  8.50000000E-01  8.50000000E-01  8.50000000E-01  8.50000000E-01
  8.50000000E-01  8.50000000E-01  8.50000000E-01  8.50000000E-01  8.50000000E-01
  8.50000000E-01  8.50000000E-01  8.50000000E-01  8.50000000E-01  8.50000000E-01
  8.50000000E-01  8.50000000E-01  8.50000000E-01  8.50000000E-01  8.50000000E-01
  8.50000000E-01  8.50000000E-01  8.50000000E-01  8.50000000E-01  8.50000000E-01
  8.50000000E-01  8.50000000E-01  8.50000000E-01  8.50000000E-01  8.50000000E-01
  8.50000000E-01  8.50000000E-01  8.50000000E-01  8.50000000E-01  8.50000000E-01
  8.50000000E-01  8.50000000E-01  8.50000000E-01  8.50000000E-01  8.50000000E-01
  8.50000000E-01  8.50000000E-01  8.50000000E-01  8.50000000E-01  8.50000000E-01
  8.50000000E-01  8.50000000E-01  8.50000000E-01  8.50000000E-01  8.50000000E-01
  8.50000000E-01  8.50000000E-01  8.50000000E-01  8.50000000E-01  8.50000000E-01
  8.50000000E-01  8.50000000E-01  8.50000000E-01  8.50000000E-01  8.50000000E-01
  8.50000000E-01  8.50000000E-01  8.50000000E-01  8.50000000E-01  8.50000000E-01
  8.50000000E-01  8.50000000E-01  8.50000000E-01  8.50000000E-01  8.50000000E-01
  8.50000000E-01  8.50000000E-01  8.50000000E-01  8.50000000E-01  8.50000000E-01
  8.50000000E-01  8.50000000E-01  8.50000000E-01  8.50000000E-01  8.50000000E-01
  8.50000000E-01  8.50000000E-01  8.50000000E-01  8.50000000E-01  8.50000000E-01
  8.50000000E-01  8.50000000E-01  8.50000000E-01  8.50000000E-01  8.50000000E-01
  8.50000000E-01  8.50000000E-01  8.50000000E-01  8.50000000E-01  8.50000000E-01
  8.50000000E-01  8.50000000E-01  8.50000000E-01  8.50000000E-01  8.50000000E-01
  8.50000000E-01  8.50000000E-01  8.50000000E-01  8.50000000E-01  8.50000000E-01
  8.50000000E-01  8.50000000E-01  8.50000000E-01  8.50000000E-01  8.50000000E-01
  8.50000000E-01  8.50000000E-01  8.50000000E-01  8.50000000E-01  8.50000000E-01
  8.50000000E-01  8.50000000E-01  8.50000000E-01  8.50000000E-01  8.50000000E-01
  8.50000000E-01  8.50000000E-01  8.50000000E-01  8.50000000E-01  8.50000000E-01
  8.50000000E-01  8.50000000E-01  8.50000000E-01  8.50000000E-01  8.50000000E-01
  8.50000000E-01  8.50000000E-01  8.50000000E-01  8.50000000E-01  8.50000000E-01
  8.50000000E-01  8.50000000E-01  8.50000000E-01  8.50000000E-01  8.50000000E-01
  8.50000000E-01  8.50000000E-01  8.50000000E-01  8.50000000E-01  8.50000000E-01
  8.50000000E-01  8.50000000E-01  8.50000000E-01  8.50000000E-01  8.50000000E-01
  8.50000000E-01  8.50000000E-01  8.50000000E-01  8.50000000E-01  8.50000000E-01
  8.50000000E-01  8.50000000E-01  8.50000000E-01  8.50000000E-01  8.50000000E-01
  8.50000000E-01  8.50000000E-01  8.50000000E-01  8.50000000E-01  8.50000000E-01
  8.50000000E-01  8.50000000E-01  8.50000000E-01  8.50000000E-01  8.50000000E-01
  8.50000000E-01  8.50000000E-01  8.50000000E-01  8.50000000E-01  8.50000000E-01
  8.50000000E-01  8.50000000E-01  8.50000000E-01  8.50000000E-01  8.50000000E-01
  8.50000000E-01  8.50000000E-01  8.50000000E-01  8.50000000E-01  8.50000000E-01
  8.50000000E-01  8.50000000E-01  8.50000000E-01  8.50000000E-01  8.50000000E-01
  8.50000000E-01  8.50000000E-01  8.50000000E-01  8.50000000E-01  8.50000000E-01
  8.50000000E-01  8.50000000E-01  8.50000000E-01  8.50000000E-01  8.50000000E-01
  8.50000000E-01  8.50000000E-01  8.50000000E-01  8.50000000E-01  8.50000000E-01
  8.50000000E-01  8.50000000E-01  8.50000000E-01  8.50000000E-01  8.50000000E-01
  8.50000000E-01  8.50000000E-01  8.50000000E-01  8.50000000E-01  8.50000000E-01
  8.50000000E-01  8.50000000E-01  8.50000000E-01  8.50000000E-01  8.50000000E-01
  8.50000000E-01  8.50000000E-01  8.50000000E-01  8.50000000E-01  8.50000000E-01
  8.50000000E-01  8.50000000E-01  8.50000000E-01  8.50000000E-01  8.50000000E-01
  8.50000000E-01  8.50000000E-01  8.50000000E-01  8.50000000E-01  8.50000000E-01
  8.50000000E-01  8.50000000E-01  8.50000000E-01  8.50000000E-01  8.50000000E-01
  8.50000000E-01  8.50000000E-01  8.50000000E-01  8.50000000E-01  8.50000000E-01
  8.50000000E-01  8.50000000E-01  8.50000000E-01  8.50000000E-01  8.50000000E-01
  8.50000000E-01  8.50000000E-01  8.50000000E-01  8.50000000E-01  8.50000000E-01
  8.50000000E-01  8.50000000E-01  8.50000000E-01  8.50000000E-01  8.50000000E-01
  8.50000000E-01  8.50000000E-01  8.50000000E-01  8.50000000E-01  8.50000000E-01
  8.50000000E-01  8.50000000E-01  8.50000000E-01  8.50000000E-01  8.50000000E-01
  8.50000000E-01  8.50000000E-01  8.50000000E-01  8.50000000E-01  8.50000000E-01
  8.50000000E-01  8.50000000E-01  8.50000000E-01  8.50000000E-01  8.50000000E-01
  8.50000000E-01  8.50000000E-01  8.50000000E-01  8.50000000E-01  8.50000000E-01
  8.50000000E-01  8.50000000E-01  8.50000000E-01  8.50000000E-01  8.50000000E-01
  8.50000000E-01  8.50000000E-01  8.50000000E-01  8.50000000E-01  8.50000000E-01
  8.50000000E-01  8.50000000E-01  8.50000000E-01  8.50000000E-01  8.50000000E-01
  8.50000000E-01  8.50000000E-01  8.50000000E-01  8.50000000E-01  8.50000000E-01
  8.50000000E-01  8.50000000E-01  8.50000000E-01  8.50000000E-01  8.50000000E-01
  8.50000000E-01  8.50000000E-01  8.50000000E-01  8.50000000E-01  8.50000000E-01
  8.50000000E-01  8.50000000E-01  8.50000000E-01  8.50000000E-01  8.50000000E-01
  8.50000000E-01  8.50000000E-01  8.50000000E-01  8.50000000E-01  8.50000000E-01
  8.50000000E-01  8.50000000E-01  8.50000000E-01  8.50000000E-01  8.50000000E-01
  8.50000000E-01  8.50000000E-01  8.50000000E-01  8.50000000E-01  8.50000000E-01
  8.50000000E-01  8.50000000E-01  8.50000000E-01  8.50000000E-01  8.50000000E-01
  8.50000000E-01  8.50000000E-01  8.50000000E-01  8.50000000E-01  8.50000000E-01
  8.50000000E-01  8.50000000E-01  8.50000000E-01  8.50000000E-01  8.50000000E-01
  8.50000000E-01  8.50000000E-01  8.50000000E-01  8.50000000E-01  8.50000000E-01
  8.50000000E-01  8.50000000E-01  8.50000000E-01  8.50000000E-01  8.50000000E-01
  8.50000000E-01  8.50000000E-01  8.50000000E-01  8.50000000E-01  8.50000000E-01
  8.50000000E-01  8.50000000E-01  8.50000000E-01  8.50000000E-01  8.50000000E-01
  8.50000000E-01  8.50000000E-01  8.50000000E-01  8.50000000E-01  8.50000000E-01
  8.50000000E-01  8.50000000E-01  8.50000000E-01  8.50000000E-01  8.50000000E-01
  8.50000000E-01  8.50000000E-01  8.50000000E-01  8.50000000E-01  8.50000000E-01
  8.50000000E-01  8.50000000E-01  8.50000000E-01  8.50000000E-01  8.50000000E-01
  8.50000000E-01  8.50000000E-01  8.50000000E-01  8.50000000E-01  8.50000000E-01
  8.50000000E-01  8.50000000E-01  8.50000000E-01  8.50000000E-01  8.50000000E-01
  8.50000000E-01  8.50000000E-01  8.50000000E-01  8.50000000E-01  8.50000000E-01
  8.50000000E-01  8.50000000E-01  8.50000000E-01  8.50000000E-01  8.50000000E-01
  8.50000000E-01  8.50000000E-01  8.50000000E-01  8.50000000E-01  8.50000000E-01
  8.50000000E-01  8.50000000E-01  8.50000000E-01  8.50000000E-01  8.50000000E-01
  8.50000000E-01  8.50000000E-01  8.50000000E-01  8.50000000E-01  8.50000000E-01
  8.50000000E-01  8.50000000E-01  8.50000000E-01  8.50000000E-01  8.50000000E-01
  8.50000000E-01  8.50000000E-01  8.50000000E-01  8.50000000E-01  8.50000000E-01
  8.50000000E-01  8.50000000E-01  8.50000000E-01  8.50000000E-01  8.50000000E-01
  8.50000000E-01  8.50000000E-01  8.50000000E-01  8.50000000E-01  8.50000000E-01
  8.50000000E-01  8.50000000E-01  8.50000000E-01  8.50000000E-01  8.50000000E-01
  8.50000000E-01  8.50000000E-01  8.50000000E-01  8.50000000E-01  8.50000000E-01
  8.50000000E-01  8.50000000E-01  8.50000000E-01  8.50000000E-01  8.50000000E-01
  8.50000000E-01  8.50000000E-01  8.50000000E-01  8.50000000E-01  8.50000000E-01
  8.50000000E-01  8.50000000E-01  8.50000000E-01  8.50000000E-01  8.50000000E-01
  8.50000000E-01  8.50000000E-01  8.50000000E-01  8.50000000E-01  8.50000000E-01
  8.50000000E-01  8.50000000E-01  8.50000000E-01  8.50000000E-01  8.50000000E-01
  8.50000000E-01  8.50000000E-01  8.50000000E-01  8.50000000E-01  8.50000000E-01
  8.50000000E-01  8.50000000E-01  8.50000000E-01  8.50000000E-01  8.50000000E-01
  8.50000000E-01  8.50000000E-01  8.50000000E-01  8.50000000E-01  8.50000000E-01
  8.50000000E-01  8.50000000E-01  8.50000000E-01  8.50000000E-01  8.50000000E-01
  8.50000000E-01  8.50000000E-01  8.50000000E-01  8.50000000E-01  8.50000000E-01
  8.50000000E-01  8.50000000E-01  8.50000000E-01  8.50000000E-01  8.50000000E-01
  8.50000000E-01  8.50000000E-01  8.50000000E-01  8.50000000E-01  8.50000000E-01
  8.50000000E-01  8.50000000E-01  8.50000000E-01  8.50000000E-01  8.50000000E-01
  8.50000000E-01  8.50000000E-01  8.50000000E-01  8.50000000E-01  8.50000000E-01
  8.50000000E-01  8.50000000E-01  8.50000000E-01  8.50000000E-01  8.50000000E-01
  8.50000000E-01  8.50000000E-01  8.50000000E-01  8.50000000E-01  8.50000000E-01
  8.50000000E-01  8.50000000E-01  8.50000000E-01  8.50000000E-01  8.50000000E-01
  8.50000000E-01  8.50000000E-01  8.50000000E-01  8.50000000E-01  8.50000000E-01
  8.50000000E-01  8.50000000E-01  8.50000000E-01  8.50000000E-01  8.50000000E-01
  8.50000000E-01  8.50000000E-01  8.50000000E-01  8.50000000E-01  8.50000000E-01
  8.50000000E-01  8.50000000E-01  8.50000000E-01  8.50000000E-01  8.50000000E-01
  8.50000000E-01  8.50000000E-01  8.50000000E-01  8.50000000E-01  8.50000000E-01
  8.50000000E-01  8.50000000E-01  8.50000000E-01  8.50000000E-01  8.50000000E-01
  8.50000000E-01  8.50000000E-01  8.50000000E-01  8.50000000E-01  8.50000000E-01
  8.50000000E-01  8.50000000E-01  8.50000000E-01  8.50000000E-01  8.50000000E-01
  8.50000000E-01  8.50000000E-01  8.50000000E-01  8.50000000E-01  8.50000000E-01
  8.50000000E-01  8.50000000E-01  8.50000000E-01  8.50000000E-01  8.50000000E-01
  8.50000000E-01  8.50000000E-01  8.50000000E-01  8.50000000E-01  8.50000000E-01
  8.50000000E-01  8.50000000E-01  8.50000000E-01  8.50000000E-01  8.50000000E-01
  8.50000000E-01  8.50000000E-01  8.50000000E-01  8.50000000E-01  8.50000000E-01
  8.50000000E-01  8.50000000E-01  8.50000000E-01  8.50000000E-01  8.50000000E-01
  8.50000000E-01  8.50000000E-01  8.50000000E-01  8.50000000E-01  8.50000000E-01
  8.50000000E-01  8.50000000E-01  8.50000000E-01  8.50000000E-01  8.50000000E-01
  8.50000000E-01  8.50000000E-01  8.50000000E-01  8.50000000E-01  8.50000000E-01
  8.50000000E-01  8.50000000E-01  8.50000000E-01  8.50000000E-01  8.50000000E-01
  8.50000000E-01  8.50000000E-01  8.50000000E-01  8.50000000E-01  8.50000000E-01
  8.50000000E-01  8.50000000E-01  8.50000000E-01  8.50000000E-01  8.50000000E-01
  8.50000000E-01  8.50000000E-01  8.50000000E-01  8.50000000E-01  8.50000000E-01
  8.50000000E-01  8.50000000E-01  8.50000000E-01  8.50000000E-01  8.50000000E-01
  8.50000000E-01  8.50000000E-01  8.50000000E-01  8.50000000E-01  8.50000000E-01
  8.50000000E-01  8.50000000E-01  8.50000000E-01  8.50000000E-01  8.50000000E-01
  8.50000000E-01  8.50000000E-01  8.50000000E-01  8.50000000E-01  8.50000000E-01
  8.50000000E-01  8.50000000E-01  8.50000000E-01  8.50000000E-01  8.50000000E-01
  8.50000000E-01  8.50000000E-01  8.50000000E-01  8.50000000E-01  8.50000000E-01
  8.50000000E-01  8.50000000E-01  8.50000000E-01  8.50000000E-01  8.50000000E-01
  8.50000000E-01  8.50000000E-01  8.50000000E-01  8.50000000E-01  8.50000000E-01
  8.50000000E-01  8.50000000E-01  8.50000000E-01  8.50000000E-01  8.50000000E-01
  8.50000000E-01  8.50000000E-01  8.50000000E-01  8.50000000E-01  8.50000000E-01
  8.50000000E-01  8.50000000E-01  8.50000000E-01  8.50000000E-01  8.50000000E-01
  8.50000000E-01  8.50000000E-01  8.50000000E-01  8.50000000E-01  8.50000000E-01
  8.50000000E-01  8.50000000E-01  8.50000000E-01  8.50000000E-01  8.50000000E-01
  8.50000000E-01  8.50000000E-01  8.50000000E-01  8.50000000E-01  8.50000000E-01
  8.50000000E-01  8.50000000E-01  8.50000000E-01  8.50000000E-01  8.50000000E-01
  8.50000000E-01  8.50000000E-01  8.50000000E-01  8.50000000E-01  8.50000000E-01
  8.50000000E-01  8.50000000E-01  8.50000000E-01  8.50000000E-01  8.50000000E-01
  8.50000000E-01  8.50000000E-01  8.50000000E-01  8.50000000E-01  8.50000000E-01
  8.50000000E-01  8.50000000E-01  8.50000000E-01  8.50000000E-01  8.50000000E-01
  8.50000000E-01  8.50000000E-01  8.50000000E-01  8.50000000E-01  8.50000000E-01
  8.50000000E-01  8.50000000E-01  8.50000000E-01  8.50000000E-01  8.50000000E-01
  8.50000000E-01  8.50000000E-01  8.50000000E-01  8.50000000E-01  8.50000000E-01
  8.50000000E-01  8.50000000E-01  8.50000000E-01  8.50000000E-01  8.50000000E-01
  8.50000000E-01  8.50000000E-01  8.50000000E-01  8.50000000E-01  8.50000000E-01
  8.50000000E-01  8.50000000E-01  8.50000000E-01  8.50000000E-01  8.50000000E-01
  8.50000000E-01  8.50000000E-01  8.50000000E-01  8.50000000E-01  8.50000000E-01
  8.50000000E-01  8.50000000E-01  8.50000000E-01  8.50000000E-01  8.50000000E-01
  8.50000000E-01  8.50000000E-01  8.50000000E-01  8.50000000E-01  8.50000000E-01
  8.50000000E-01  8.50000000E-01  8.50000000E-01  8.50000000E-01  8.50000000E-01
  8.50000000E-01  8.50000000E-01  8.50000000E-01  8.50000000E-01  8.50000000E-01
  8.50000000E-01  8.50000000E-01  8.50000000E-01  8.50000000E-01  8.50000000E-01
  8.50000000E-01  8.50000000E-01  8.50000000E-01  8.50000000E-01  8.50000000E-01
  8.50000000E-01  8.50000000E-01  8.50000000E-01  8.50000000E-01  8.50000000E-01
  8.50000000E-01  8.50000000E-01  8.50000000E-01  8.50000000E-01  8.50000000E-01
  8.50000000E-01  8.50000000E-01  8.50000000E-01  8.50000000E-01  8.50000000E-01
  8.50000000E-01  8.50000000E-01  8.50000000E-01  8.50000000E-01  8.50000000E-01
  8.50000000E-01  8.50000000E-01  8.50000000E-01  8.50000000E-01  8.50000000E-01
  8.50000000E-01  8.50000000E-01  8.50000000E-01  8.50000000E-01  8.50000000E-01
  8.50000000E-01  8.50000000E-01  8.50000000E-01  8.50000000E-01  8.50000000E-01
  8.50000000E-01  8.50000000E-01  8.50000000E-01  8.50000000E-01  8.50000000E-01
  8.50000000E-01  8.50000000E-01  8.50000000E-01  8.50000000E-01  8.50000000E-01
  8.50000000E-01  8.50000000E-01  8.50000000E-01  8.50000000E-01  8.50000000E-01
  8.50000000E-01  8.50000000E-01  8.50000000E-01  8.50000000E-01  8.50000000E-01
  8.50000000E-01  8.50000000E-01  8.50000000E-01  8.50000000E-01  8.50000000E-01
  8.50000000E-01  8.50000000E-01  8.50000000E-01  8.50000000E-01  8.50000000E-01
  8.50000000E-01  8.50000000E-01  8.50000000E-01  8.50000000E-01  8.50000000E-01
  8.50000000E-01  8.50000000E-01  8.50000000E-01  8.50000000E-01  8.50000000E-01
  8.50000000E-01  8.50000000E-01  8.50000000E-01  8.50000000E-01  8.50000000E-01
  8.50000000E-01  8.50000000E-01  8.50000000E-01  8.50000000E-01  8.50000000E-01
  8.50000000E-01  8.50000000E-01  8.50000000E-01  8.50000000E-01  8.50000000E-01
  8.50000000E-01  8.50000000E-01  8.50000000E-01  8.50000000E-01  8.50000000E-01
  8.50000000E-01  8.50000000E-01  8.50000000E-01  8.50000000E-01  8.50000000E-01
  8.50000000E-01  8.50000000E-01  8.50000000E-01  8.50000000E-01  8.50000000E-01
  8.50000000E-01  8.50000000E-01  8.50000000E-01  8.50000000E-01  8.50000000E-01
  8.50000000E-01  8.50000000E-01  8.50000000E-01  8.50000000E-01  8.50000000E-01
  8.50000000E-01  8.50000000E-01  8.50000000E-01  8.50000000E-01  8.50000000E-01
  8.50000000E-01  8.50000000E-01  8.50000000E-01  8.50000000E-01  8.50000000E-01
  8.50000000E-01  8.50000000E-01  8.50000000E-01  8.50000000E-01  8.50000000E-01
  8.50000000E-01  8.50000000E-01  8.50000000E-01  8.50000000E-01  8.50000000E-01
  8.50000000E-01  8.50000000E-01  8.50000000E-01  8.50000000E-01  8.50000000E-01
  8.50000000E-01  8.50000000E-01  8.50000000E-01  8.50000000E-01  8.50000000E-01
  8.50000000E-01  8.50000000E-01  8.50000000E-01  8.50000000E-01  8.50000000E-01
  8.50000000E-01  8.50000000E-01  8.50000000E-01  8.50000000E-01  8.50000000E-01
  8.50000000E-01  8.50000000E-01  8.50000000E-01  8.50000000E-01  8.50000000E-01
  8.50000000E-01  8.50000000E-01  8.50000000E-01  8.50000000E-01  8.50000000E-01
  8.50000000E-01  8.50000000E-01  8.50000000E-01  8.50000000E-01  8.50000000E-01
  8.50000000E-01  8.50000000E-01  8.50000000E-01  8.50000000E-01  8.50000000E-01
  8.50000000E-01  8.50000000E-01  8.50000000E-01  8.50000000E-01  8.50000000E-01
  8.50000000E-01  8.50000000E-01  8.50000000E-01  8.50000000E-01  8.50000000E-01
  8.50000000E-01  8.50000000E-01  8.50000000E-01  8.50000000E-01  8.50000000E-01
  8.50000000E-01  8.50000000E-01  8.50000000E-01  8.50000000E-01  8.50000000E-01
  8.50000000E-01  8.50000000E-01  8.50000000E-01  8.50000000E-01  8.50000000E-01
  8.50000000E-01  8.50000000E-01  8.50000000E-01  8.50000000E-01  8.50000000E-01
  8.50000000E-01  8.50000000E-01  8.50000000E-01  8.50000000E-01  8.50000000E-01
  8.50000000E-01  8.50000000E-01  8.50000000E-01  8.50000000E-01  8.50000000E-01
  8.50000000E-01  8.50000000E-01  8.50000000E-01  8.50000000E-01  8.50000000E-01
  8.50000000E-01  8.50000000E-01  8.50000000E-01  8.50000000E-01  8.50000000E-01
  8.50000000E-01  8.50000000E-01  8.50000000E-01  8.50000000E-01  8.50000000E-01
  8.50000000E-01  8.50000000E-01  8.50000000E-01  8.50000000E-01  8.50000000E-01
  8.50000000E-01  8.50000000E-01  8.50000000E-01  8.50000000E-01  8.50000000E-01
  8.50000000E-01  8.50000000E-01  8.50000000E-01  8.50000000E-01  8.50000000E-01
  8.50000000E-01  8.50000000E-01  8.50000000E-01  8.50000000E-01  8.50000000E-01
  8.50000000E-01  8.50000000E-01  8.50000000E-01  8.50000000E-01  8.50000000E-01
  8.50000000E-01  8.50000000E-01  8.50000000E-01  8.50000000E-01  8.50000000E-01
  8.50000000E-01  8.50000000E-01  8.50000000E-01  8.50000000E-01  8.50000000E-01
  8.50000000E-01  8.50000000E-01  8.50000000E-01  8.50000000E-01  8.50000000E-01
  8.50000000E-01  8.50000000E-01  8.50000000E-01  8.50000000E-01  8.50000000E-01
  8.50000000E-01  8.50000000E-01  8.50000000E-01  8.50000000E-01  8.50000000E-01
  8.50000000E-01  8.50000000E-01  8.50000000E-01  8.50000000E-01  8.50000000E-01
  8.50000000E-01  8.50000000E-01  8.50000000E-01  8.50000000E-01  8.50000000E-01
  8.50000000E-01  8.50000000E-01  8.50000000E-01  8.50000000E-01  8.50000000E-01
  8.50000000E-01  8.50000000E-01  8.50000000E-01  8.50000000E-01  8.50000000E-01
  8.50000000E-01  8.50000000E-01  8.50000000E-01  8.50000000E-01  8.50000000E-01
  8.50000000E-01  8.50000000E-01  8.50000000E-01  8.50000000E-01  8.50000000E-01
  8.50000000E-01  8.50000000E-01  8.50000000E-01  8.50000000E-01  8.50000000E-01
  8.50000000E-01  8.50000000E-01  8.50000000E-01  8.50000000E-01  8.50000000E-01
  8.50000000E-01  8.50000000E-01  8.50000000E-01  8.50000000E-01  8.50000000E-01
  8.50000000E-01  8.50000000E-01  8.50000000E-01  8.50000000E-01  8.50000000E-01
  8.50000000E-01  8.50000000E-01  8.50000000E-01  8.50000000E-01  8.50000000E-01
  8.50000000E-01  8.50000000E-01  8.50000000E-01  8.50000000E-01  8.50000000E-01
  8.50000000E-01  8.50000000E-01  8.50000000E-01  8.50000000E-01  8.50000000E-01
  8.50000000E-01  8.50000000E-01  8.50000000E-01  8.50000000E-01  8.50000000E-01
  8.50000000E-01  8.50000000E-01  8.50000000E-01  8.50000000E-01  8.50000000E-01
  8.50000000E-01  8.50000000E-01  8.50000000E-01  8.50000000E-01  8.50000000E-01
  8.50000000E-01  8.50000000E-01  8.50000000E-01  8.50000000E-01  8.50000000E-01
  8.50000000E-01  8.50000000E-01  8.50000000E-01  8.50000000E-01  8.50000000E-01
  8.50000000E-01  8.50000000E-01  8.50000000E-01  8.50000000E-01  8.50000000E-01
  8.50000000E-01  8.50000000E-01  8.50000000E-01  8.50000000E-01  8.50000000E-01
  8.50000000E-01  8.50000000E-01  8.50000000E-01  8.50000000E-01  8.50000000E-01
  8.50000000E-01  8.50000000E-01  8.50000000E-01  8.50000000E-01  8.50000000E-01
  8.50000000E-01  8.50000000E-01  8.50000000E-01  8.50000000E-01  8.50000000E-01
  8.50000000E-01  8.50000000E-01  8.50000000E-01  8.50000000E-01  8.50000000E-01
  8.50000000E-01  8.50000000E-01  8.50000000E-01  8.50000000E-01  8.50000000E-01
  8.50000000E-01  8.50000000E-01  8.50000000E-01  8.50000000E-01  8.50000000E-01
  8.50000000E-01  8.50000000E-01  8.50000000E-01  8.50000000E-01  8.50000000E-01
  8.50000000E-01  8.50000000E-01  8.50000000E-01  8.50000000E-01  8.50000000E-01
  8.50000000E-01  8.50000000E-01  8.50000000E-01  8.50000000E-01  8.50000000E-01
  8.50000000E-01  8.50000000E-01  8.50000000E-01  8.50000000E-01  8.50000000E-01
  8.50000000E-01  8.50000000E-01  8.50000000E-01  8.50000000E-01  8.50000000E-01
  8.50000000E-01  8.50000000E-01  8.50000000E-01  8.50000000E-01  8.50000000E-01
  8.50000000E-01  8.50000000E-01  8.50000000E-01  8.50000000E-01  8.50000000E-01
  8.50000000E-01  8.50000000E-01  8.50000000E-01  8.50000000E-01  8.50000000E-01
  8.50000000E-01  8.50000000E-01  8.50000000E-01  8.50000000E-01  8.50000000E-01
  8.50000000E-01  8.50000000E-01  8.50000000E-01  8.50000000E-01  8.50000000E-01
  8.50000000E-01  8.50000000E-01  8.50000000E-01  8.50000000E-01  8.50000000E-01
  8.50000000E-01  8.50000000E-01  8.50000000E-01  8.50000000E-01  8.50000000E-01
  8.50000000E-01  8.50000000E-01  8.50000000E-01  8.50000000E-01  8.50000000E-01
  8.50000000E-01  8.50000000E-01  8.50000000E-01  8.50000000E-01  8.50000000E-01
  8.50000000E-01  8.50000000E-01  8.50000000E-01  8.50000000E-01  8.50000000E-01
  8.50000000E-01  8.50000000E-01  8.50000000E-01  8.50000000E-01  8.50000000E-01
  8.50000000E-01  8.50000000E-01  8.50000000E-01  8.50000000E-01  8.50000000E-01
  8.50000000E-01  8.50000000E-01  8.50000000E-01  8.50000000E-01  8.50000000E-01
  8.50000000E-01  8.50000000E-01  8.50000000E-01  8.50000000E-01  8.50000000E-01
  8.50000000E-01  8.50000000E-01  8.50000000E-01  8.50000000E-01  8.50000000E-01
  8.50000000E-01  8.50000000E-01  8.50000000E-01  8.50000000E-01  8.50000000E-01
  8.50000000E-01  8.50000000E-01  8.50000000E-01  8.50000000E-01  8.50000000E-01
  8.50000000E-01  8.50000000E-01  8.50000000E-01  8.50000000E-01  8.50000000E-01
  8.50000000E-01  8.50000000E-01  8.50000000E-01  8.50000000E-01  8.50000000E-01
  8.50000000E-01  8.50000000E-01  8.50000000E-01  8.50000000E-01  8.50000000E-01
  8.50000000E-01  8.50000000E-01  8.50000000E-01  8.50000000E-01  8.50000000E-01
  8.50000000E-01  8.50000000E-01  8.50000000E-01  8.50000000E-01  8.50000000E-01
  8.50000000E-01  8.50000000E-01  8.50000000E-01  8.50000000E-01  8.50000000E-01
  8.50000000E-01  8.50000000E-01  8.50000000E-01  8.50000000E-01  8.50000000E-01
  8.50000000E-01  8.50000000E-01  8.50000000E-01  8.50000000E-01  8.50000000E-01
  8.50000000E-01  8.50000000E-01  8.50000000E-01  8.50000000E-01  8.50000000E-01
  8.50000000E-01  8.50000000E-01  8.50000000E-01  8.50000000E-01  8.50000000E-01
  8.50000000E-01  8.50000000E-01  8.50000000E-01  8.50000000E-01  8.50000000E-01
  8.50000000E-01  8.50000000E-01  8.50000000E-01  8.50000000E-01  8.50000000E-01
  8.50000000E-01  8.50000000E-01  8.50000000E-01  8.50000000E-01  8.50000000E-01
  8.50000000E-01  8.50000000E-01  8.50000000E-01  8.50000000E-01  8.50000000E-01
  8.50000000E-01  8.50000000E-01  8.50000000E-01  8.50000000E-01  8.50000000E-01
  8.50000000E-01  8.50000000E-01  8.50000000E-01  8.50000000E-01  8.50000000E-01
  8.50000000E-01  8.50000000E-01  8.50000000E-01  8.50000000E-01  8.50000000E-01
  8.50000000E-01  8.50000000E-01  8.50000000E-01  8.50000000E-01  8.50000000E-01
  8.50000000E-01  8.50000000E-01  8.50000000E-01  8.50000000E-01  8.50000000E-01
  8.50000000E-01  8.50000000E-01  8.50000000E-01  8.50000000E-01  8.50000000E-01
  8.50000000E-01  8.50000000E-01  8.50000000E-01  8.50000000E-01  8.50000000E-01
  8.50000000E-01  8.50000000E-01  8.50000000E-01  8.50000000E-01  8.50000000E-01
  8.50000000E-01  8.50000000E-01  8.50000000E-01  8.50000000E-01  8.50000000E-01
  8.50000000E-01  8.50000000E-01  8.50000000E-01  8.50000000E-01  8.50000000E-01
  8.50000000E-01  8.50000000E-01  8.50000000E-01  8.50000000E-01  8.50000000E-01
  8.50000000E-01  8.50000000E-01  8.50000000E-01  8.50000000E-01  8.50000000E-01
  8.50000000E-01  8.50000000E-01  8.50000000E-01  8.50000000E-01  8.50000000E-01
  8.50000000E-01  8.50000000E-01  8.50000000E-01  8.50000000E-01  8.50000000E-01
  8.50000000E-01  8.50000000E-01  8.50000000E-01  8.50000000E-01  8.50000000E-01
  8.50000000E-01  8.50000000E-01  8.50000000E-01  8.50000000E-01  8.50000000E-01
  8.50000000E-01  8.50000000E-01  8.50000000E-01  8.50000000E-01  8.50000000E-01
  8.50000000E-01  8.50000000E-01  8.50000000E-01  8.50000000E-01  8.50000000E-01
  8.50000000E-01  8.50000000E-01  8.50000000E-01  8.50000000E-01  8.50000000E-01
  8.50000000E-01  8.50000000E-01  8.50000000E-01  8.50000000E-01  8.50000000E-01
  8.50000000E-01  8.50000000E-01  8.50000000E-01  8.50000000E-01  8.50000000E-01
  8.50000000E-01  8.50000000E-01  8.50000000E-01  8.50000000E-01  8.50000000E-01
  8.50000000E-01  8.50000000E-01  8.50000000E-01  8.50000000E-01  8.50000000E-01
  8.50000000E-01  8.50000000E-01  8.50000000E-01  8.50000000E-01  8.50000000E-01
  8.50000000E-01  8.50000000E-01  8.50000000E-01  8.50000000E-01  8.50000000E-01
  8.50000000E-01  8.50000000E-01  8.50000000E-01  8.50000000E-01  8.50000000E-01
  8.50000000E-01  8.50000000E-01  8.50000000E-01  8.50000000E-01  8.50000000E-01
  8.50000000E-01  8.50000000E-01  8.50000000E-01  8.50000000E-01  8.50000000E-01
  8.50000000E-01  8.50000000E-01  8.50000000E-01  8.50000000E-01  8.50000000E-01
  8.50000000E-01  8.50000000E-01  8.50000000E-01  8.50000000E-01  8.50000000E-01
  8.50000000E-01  8.50000000E-01  8.50000000E-01  8.50000000E-01  8.50000000E-01
  8.50000000E-01  8.50000000E-01  8.50000000E-01  8.50000000E-01  8.50000000E-01
  8.50000000E-01  8.50000000E-01  8.50000000E-01  8.50000000E-01  8.50000000E-01
  8.50000000E-01  8.50000000E-01  8.50000000E-01  8.50000000E-01  8.50000000E-01
  8.50000000E-01  8.50000000E-01  8.50000000E-01  8.50000000E-01  8.50000000E-01
  8.50000000E-01  8.50000000E-01  8.50000000E-01  8.50000000E-01  8.50000000E-01
  8.50000000E-01  8.50000000E-01  8.50000000E-01  8.50000000E-01  8.50000000E-01
  8.50000000E-01  8.50000000E-01  8.50000000E-01  8.50000000E-01  8.50000000E-01
  8.50000000E-01  8.50000000E-01  8.50000000E-01  8.50000000E-01  8.50000000E-01
  8.50000000E-01  8.50000000E-01  8.50000000E-01  8.50000000E-01  8.50000000E-01
  8.50000000E-01  8.50000000E-01  8.50000000E-01  8.50000000E-01  8.50000000E-01
  8.50000000E-01  8.50000000E-01  8.50000000E-01  8.50000000E-01  8.50000000E-01
  8.50000000E-01  8.50000000E-01  8.50000000E-01  8.50000000E-01  8.50000000E-01
  8.50000000E-01  8.50000000E-01  8.50000000E-01  8.50000000E-01  8.50000000E-01
  8.50000000E-01  8.50000000E-01  8.50000000E-01  8.50000000E-01  8.50000000E-01
  8.50000000E-01  8.50000000E-01  8.50000000E-01  8.50000000E-01  8.50000000E-01
  8.50000000E-01  8.50000000E-01  8.50000000E-01  8.50000000E-01  8.50000000E-01
  8.50000000E-01  8.50000000E-01  8.50000000E-01  8.50000000E-01  8.50000000E-01
  8.50000000E-01  8.50000000E-01  8.50000000E-01  8.50000000E-01  8.50000000E-01
  8.50000000E-01  8.50000000E-01  8.50000000E-01  8.50000000E-01  8.50000000E-01
  8.50000000E-01  8.50000000E-01  8.50000000E-01  8.50000000E-01  8.50000000E-01
  8.50000000E-01  8.50000000E-01  8.50000000E-01  8.50000000E-01  8.50000000E-01
  8.50000000E-01  8.50000000E-01  8.50000000E-01  8.50000000E-01  8.50000000E-01
  8.50000000E-01  8.50000000E-01  8.50000000E-01  8.50000000E-01  8.50000000E-01
  8.50000000E-01  8.50000000E-01  8.50000000E-01  8.50000000E-01  8.50000000E-01
  8.50000000E-01  8.50000000E-01  8.50000000E-01  8.50000000E-01  8.50000000E-01
  8.50000000E-01  8.50000000E-01  8.50000000E-01  8.50000000E-01  8.50000000E-01
  8.50000000E-01  8.50000000E-01  8.50000000E-01  8.50000000E-01  8.50000000E-01
  8.50000000E-01  8.50000000E-01  8.50000000E-01  8.50000000E-01  8.50000000E-01
  8.50000000E-01  8.50000000E-01  8.50000000E-01  8.50000000E-01  8.50000000E-01
  8.50000000E-01  8.50000000E-01  8.50000000E-01  8.50000000E-01  8.50000000E-01
  8.50000000E-01  8.50000000E-01  8.50000000E-01  8.50000000E-01  8.50000000E-01
  8.50000000E-01  8.50000000E-01  8.50000000E-01  8.50000000E-01  8.50000000E-01
  8.50000000E-01  8.50000000E-01  8.50000000E-01  8.50000000E-01  8.50000000E-01
  8.50000000E-01  8.50000000E-01  8.50000000E-01  8.50000000E-01  8.50000000E-01
  8.50000000E-01  8.50000000E-01  8.50000000E-01  8.50000000E-01  8.50000000E-01
  8.50000000E-01  8.50000000E-01  8.50000000E-01  8.50000000E-01  8.50000000E-01
  8.50000000E-01  8.50000000E-01  8.50000000E-01  8.50000000E-01  8.50000000E-01
  8.50000000E-01  8.50000000E-01  8.50000000E-01  8.50000000E-01  8.50000000E-01
  8.50000000E-01  8.50000000E-01  8.50000000E-01  8.50000000E-01  8.50000000E-01
  8.50000000E-01  8.50000000E-01  8.50000000E-01  8.50000000E-01  8.50000000E-01
  8.50000000E-01  8.50000000E-01  8.50000000E-01  8.50000000E-01  8.50000000E-01
  8.50000000E-01  8.50000000E-01  8.50000000E-01  8.50000000E-01  8.50000000E-01
  8.50000000E-01  8.50000000E-01  8.50000000E-01  8.50000000E-01  8.50000000E-01
  8.50000000E-01  8.50000000E-01  8.50000000E-01  8.50000000E-01  8.50000000E-01
  8.50000000E-01  8.50000000E-01  8.50000000E-01  8.50000000E-01  8.50000000E-01
  8.50000000E-01  8.50000000E-01  8.50000000E-01  8.50000000E-01  8.50000000E-01
  8.50000000E-01  8.50000000E-01  8.50000000E-01  8.50000000E-01  8.50000000E-01
  8.50000000E-01  8.50000000E-01  8.50000000E-01  8.50000000E-01  8.50000000E-01
  8.50000000E-01  8.50000000E-01  8.50000000E-01  8.50000000E-01  8.50000000E-01
  8.50000000E-01  8.50000000E-01  8.50000000E-01  8.50000000E-01  8.50000000E-01
  8.50000000E-01  8.50000000E-01  8.50000000E-01  8.50000000E-01  8.50000000E-01
  8.50000000E-01  8.50000000E-01  8.50000000E-01  8.50000000E-01  8.50000000E-01
  8.50000000E-01  8.50000000E-01  8.50000000E-01  8.50000000E-01  8.50000000E-01
  8.50000000E-01  8.50000000E-01  8.50000000E-01  8.50000000E-01  8.50000000E-01
  8.50000000E-01  8.50000000E-01  8.50000000E-01  8.50000000E-01  8.50000000E-01
  8.50000000E-01  8.50000000E-01  8.50000000E-01  8.50000000E-01  8.50000000E-01
  8.50000000E-01  8.50000000E-01  8.50000000E-01  8.50000000E-01  8.50000000E-01
  8.50000000E-01  8.50000000E-01  8.50000000E-01  8.50000000E-01  8.50000000E-01
  8.50000000E-01  8.50000000E-01  8.50000000E-01  8.50000000E-01  8.50000000E-01
  8.50000000E-01  8.50000000E-01  8.50000000E-01  8.50000000E-01  8.50000000E-01
  8.50000000E-01  8.50000000E-01  8.50000000E-01  8.50000000E-01  8.50000000E-01
  8.50000000E-01  8.50000000E-01  8.50000000E-01  8.50000000E-01  8.50000000E-01
  8.50000000E-01  8.50000000E-01  8.50000000E-01  8.50000000E-01  8.50000000E-01
  8.50000000E-01  8.50000000E-01  8.50000000E-01  8.50000000E-01  8.50000000E-01
  8.50000000E-01  8.50000000E-01  8.50000000E-01  8.50000000E-01  8.50000000E-01
  8.50000000E-01  8.50000000E-01  8.50000000E-01  8.50000000E-01  8.50000000E-01
  8.50000000E-01  8.50000000E-01  8.50000000E-01  8.50000000E-01  8.50000000E-01
  8.50000000E-01  8.50000000E-01  8.50000000E-01  8.50000000E-01  8.50000000E-01
  8.50000000E-01  8.50000000E-01  8.50000000E-01  8.50000000E-01  8.50000000E-01
  8.50000000E-01  8.50000000E-01  8.50000000E-01  8.50000000E-01  8.50000000E-01
  8.50000000E-01  8.50000000E-01  8.50000000E-01  8.50000000E-01  8.50000000E-01
  8.50000000E-01  8.50000000E-01  8.50000000E-01  8.50000000E-01  8.50000000E-01
  8.50000000E-01  8.50000000E-01  8.50000000E-01  8.50000000E-01  8.50000000E-01
  8.50000000E-01  8.50000000E-01  8.50000000E-01  8.50000000E-01  8.50000000E-01
  8.50000000E-01  8.50000000E-01  8.50000000E-01  8.50000000E-01  8.50000000E-01
  8.50000000E-01  8.50000000E-01  8.50000000E-01  8.50000000E-01  8.50000000E-01
  8.50000000E-01  8.50000000E-01  8.50000000E-01  8.50000000E-01  8.50000000E-01
  8.50000000E-01  8.50000000E-01  8.50000000E-01  8.50000000E-01  8.50000000E-01
  8.50000000E-01  8.50000000E-01  8.50000000E-01  8.50000000E-01  8.50000000E-01
  8.50000000E-01  8.50000000E-01  8.50000000E-01  8.50000000E-01  8.50000000E-01
  8.50000000E-01  8.50000000E-01  8.50000000E-01  8.50000000E-01  8.50000000E-01
  8.50000000E-01  8.50000000E-01  8.50000000E-01  8.50000000E-01  8.50000000E-01
  8.50000000E-01  8.50000000E-01  8.50000000E-01  8.50000000E-01  8.50000000E-01
  8.50000000E-01  8.50000000E-01  8.50000000E-01  8.50000000E-01  8.50000000E-01
  8.50000000E-01  8.50000000E-01  8.50000000E-01  8.50000000E-01  8.50000000E-01
  8.50000000E-01  8.50000000E-01  8.50000000E-01  8.50000000E-01  8.50000000E-01
  8.50000000E-01  8.50000000E-01  8.50000000E-01  8.50000000E-01  8.50000000E-01
  8.50000000E-01  8.50000000E-01  8.50000000E-01  8.50000000E-01  8.50000000E-01
  8.50000000E-01  8.50000000E-01  8.50000000E-01  8.50000000E-01  8.50000000E-01
  8.50000000E-01  8.50000000E-01  8.50000000E-01  8.50000000E-01  8.50000000E-01
  8.50000000E-01  8.50000000E-01  8.50000000E-01  8.50000000E-01  8.50000000E-01
  8.50000000E-01  8.50000000E-01  8.50000000E-01  8.50000000E-01  8.50000000E-01
  8.50000000E-01  8.50000000E-01  8.50000000E-01  8.50000000E-01  8.50000000E-01
  8.50000000E-01  8.50000000E-01  8.50000000E-01  8.50000000E-01  8.50000000E-01
  8.50000000E-01  8.50000000E-01  8.50000000E-01  8.50000000E-01  8.50000000E-01
  8.50000000E-01  8.50000000E-01  8.50000000E-01  8.50000000E-01  8.50000000E-01
  8.50000000E-01  8.50000000E-01  8.50000000E-01  8.50000000E-01  8.50000000E-01
  8.50000000E-01  8.50000000E-01  8.50000000E-01  8.50000000E-01  8.50000000E-01
  8.50000000E-01  8.50000000E-01  8.50000000E-01  8.50000000E-01  8.50000000E-01
  8.50000000E-01  8.50000000E-01  8.50000000E-01  8.50000000E-01  8.50000000E-01
  8.50000000E-01  8.50000000E-01  8.50000000E-01  8.50000000E-01  8.50000000E-01
  8.50000000E-01  8.50000000E-01  8.50000000E-01  8.50000000E-01  8.50000000E-01
  8.50000000E-01  8.50000000E-01  8.50000000E-01  8.50000000E-01  8.50000000E-01
  8.50000000E-01  8.50000000E-01  8.50000000E-01  8.50000000E-01  8.50000000E-01
  8.50000000E-01  8.50000000E-01  8.50000000E-01  8.50000000E-01  8.50000000E-01
  8.50000000E-01  8.50000000E-01  8.50000000E-01  8.50000000E-01  8.50000000E-01
  8.50000000E-01  8.50000000E-01  8.50000000E-01  8.50000000E-01  8.50000000E-01
  8.50000000E-01  8.50000000E-01  8.50000000E-01  8.50000000E-01  8.50000000E-01
  8.50000000E-01  8.50000000E-01  8.50000000E-01  8.50000000E-01  8.50000000E-01
  8.50000000E-01  8.50000000E-01  8.50000000E-01  8.50000000E-01  8.50000000E-01
  8.50000000E-01  8.50000000E-01  8.50000000E-01  8.50000000E-01  8.50000000E-01
  8.50000000E-01  8.50000000E-01  8.50000000E-01  8.50000000E-01  8.50000000E-01
  8.50000000E-01  8.50000000E-01  8.50000000E-01  8.50000000E-01  8.50000000E-01
  8.50000000E-01  8.50000000E-01  8.50000000E-01  8.50000000E-01  8.50000000E-01
  8.50000000E-01  8.50000000E-01  8.50000000E-01  8.50000000E-01  8.50000000E-01
  8.50000000E-01  8.50000000E-01  8.50000000E-01  8.50000000E-01  8.50000000E-01
  8.50000000E-01  8.50000000E-01  8.50000000E-01  8.50000000E-01  8.50000000E-01
  8.50000000E-01  8.50000000E-01  8.50000000E-01  8.50000000E-01  8.50000000E-01
  8.50000000E-01  8.50000000E-01  8.50000000E-01  8.50000000E-01  8.50000000E-01
  8.50000000E-01  8.50000000E-01  8.50000000E-01  8.50000000E-01  8.50000000E-01
  8.50000000E-01  8.50000000E-01  8.50000000E-01  8.50000000E-01  8.50000000E-01
  8.50000000E-01  8.50000000E-01  8.50000000E-01  8.50000000E-01  8.50000000E-01
  8.50000000E-01  8.50000000E-01  8.50000000E-01  8.50000000E-01  8.50000000E-01
  8.50000000E-01  8.50000000E-01  8.50000000E-01  8.50000000E-01  8.50000000E-01
  8.50000000E-01  8.50000000E-01  8.50000000E-01  8.50000000E-01  8.50000000E-01
  8.50000000E-01  8.50000000E-01  8.50000000E-01  8.50000000E-01  8.50000000E-01
  8.50000000E-01  8.50000000E-01  8.50000000E-01  8.50000000E-01  8.50000000E-01
  8.50000000E-01  8.50000000E-01  8.50000000E-01  8.50000000E-01  8.50000000E-01
  8.50000000E-01  8.50000000E-01  8.50000000E-01  8.50000000E-01  8.50000000E-01
  8.50000000E-01  8.50000000E-01  8.50000000E-01  8.50000000E-01  8.50000000E-01
  8.50000000E-01  8.50000000E-01  8.50000000E-01  8.50000000E-01  8.50000000E-01
  8.50000000E-01  8.50000000E-01  8.50000000E-01  8.50000000E-01  8.50000000E-01
  8.50000000E-01  8.50000000E-01  8.50000000E-01  8.50000000E-01  8.50000000E-01
  8.50000000E-01  8.50000000E-01  8.50000000E-01  8.50000000E-01  8.50000000E-01
  8.50000000E-01  8.50000000E-01  8.50000000E-01  8.50000000E-01  8.50000000E-01
  8.50000000E-01  8.50000000E-01  8.50000000E-01  8.50000000E-01  8.50000000E-01
  8.50000000E-01  8.50000000E-01  8.50000000E-01  8.50000000E-01  8.50000000E-01
  8.50000000E-01  8.50000000E-01  8.50000000E-01  8.50000000E-01  8.50000000E-01
  8.50000000E-01  8.50000000E-01  8.50000000E-01  8.50000000E-01  8.50000000E-01
  8.50000000E-01  8.50000000E-01  8.50000000E-01  8.50000000E-01  8.50000000E-01
  8.50000000E-01  8.50000000E-01  8.50000000E-01  8.50000000E-01  8.50000000E-01
  8.50000000E-01  8.50000000E-01  8.50000000E-01  8.50000000E-01  8.50000000E-01
  8.50000000E-01  8.50000000E-01  8.50000000E-01  8.50000000E-01  8.50000000E-01
  8.50000000E-01  8.50000000E-01  8.50000000E-01  8.50000000E-01  8.50000000E-01
  8.50000000E-01  8.50000000E-01  8.50000000E-01  8.50000000E-01  8.50000000E-01
  8.50000000E-01  8.50000000E-01  8.50000000E-01  8.50000000E-01  8.50000000E-01
  8.50000000E-01  8.50000000E-01  8.50000000E-01  8.50000000E-01  8.50000000E-01
  8.50000000E-01  8.50000000E-01  8.50000000E-01  8.50000000E-01  8.50000000E-01
  8.50000000E-01  8.50000000E-01  8.50000000E-01  8.50000000E-01  8.50000000E-01
  8.50000000E-01  8.50000000E-01  8.50000000E-01  8.50000000E-01  8.50000000E-01
  8.50000000E-01  8.50000000E-01  8.50000000E-01  8.50000000E-01  8.50000000E-01
  8.50000000E-01  8.50000000E-01  8.50000000E-01  8.50000000E-01  8.50000000E-01
  8.50000000E-01  8.50000000E-01  8.50000000E-01  8.50000000E-01  8.50000000E-01
  8.50000000E-01  8.50000000E-01  8.50000000E-01  8.50000000E-01  8.50000000E-01
  8.50000000E-01  8.50000000E-01  8.50000000E-01  8.50000000E-01  8.50000000E-01
  8.50000000E-01  8.50000000E-01  8.50000000E-01  8.50000000E-01  8.50000000E-01
  8.50000000E-01  8.50000000E-01  8.50000000E-01  8.50000000E-01  8.50000000E-01
  8.50000000E-01  8.50000000E-01  8.50000000E-01  8.50000000E-01  8.50000000E-01
  8.50000000E-01  8.50000000E-01  8.50000000E-01  8.50000000E-01  8.50000000E-01
  8.50000000E-01  8.50000000E-01  8.50000000E-01  8.50000000E-01  8.50000000E-01
  8.50000000E-01  8.50000000E-01  8.50000000E-01  8.50000000E-01  8.50000000E-01
  8.50000000E-01  8.50000000E-01  8.50000000E-01  8.50000000E-01  8.50000000E-01
  8.50000000E-01  8.50000000E-01  8.50000000E-01  8.50000000E-01  8.50000000E-01
  8.50000000E-01  8.50000000E-01  8.50000000E-01  8.50000000E-01  8.50000000E-01
  8.50000000E-01  8.50000000E-01  8.50000000E-01  8.50000000E-01  8.50000000E-01
  8.50000000E-01  8.50000000E-01  8.50000000E-01  8.50000000E-01  8.50000000E-01
  8.50000000E-01  8.50000000E-01  8.50000000E-01  8.50000000E-01  8.50000000E-01
  8.50000000E-01  8.50000000E-01  8.50000000E-01  8.50000000E-01  8.50000000E-01
  8.50000000E-01  8.50000000E-01  8.50000000E-01  8.50000000E-01  8.50000000E-01
  8.50000000E-01  8.50000000E-01  8.50000000E-01  8.50000000E-01  8.50000000E-01
  8.50000000E-01  8.50000000E-01  8.50000000E-01  8.50000000E-01  8.50000000E-01
  8.50000000E-01  8.50000000E-01  8.50000000E-01  8.50000000E-01  8.50000000E-01
  8.50000000E-01  8.50000000E-01  8.50000000E-01  8.50000000E-01  8.50000000E-01
  8.50000000E-01  8.50000000E-01  8.50000000E-01  8.50000000E-01  8.50000000E-01
  8.50000000E-01  8.50000000E-01  8.50000000E-01  8.50000000E-01  8.50000000E-01
  8.50000000E-01  8.50000000E-01  8.50000000E-01  8.50000000E-01  8.50000000E-01
  8.50000000E-01  8.50000000E-01  8.50000000E-01  8.50000000E-01  8.50000000E-01
  8.50000000E-01  8.50000000E-01  8.50000000E-01  8.50000000E-01  8.50000000E-01
  8.50000000E-01  8.50000000E-01  8.50000000E-01  8.50000000E-01  8.50000000E-01
  8.50000000E-01  8.50000000E-01  8.50000000E-01  8.50000000E-01  8.50000000E-01
  8.50000000E-01  8.50000000E-01  8.50000000E-01  8.50000000E-01  8.50000000E-01
  8.50000000E-01  8.50000000E-01  8.50000000E-01  8.50000000E-01  8.50000000E-01
  8.50000000E-01  8.50000000E-01  8.50000000E-01  8.50000000E-01  8.50000000E-01
  8.50000000E-01  8.50000000E-01  8.50000000E-01  8.50000000E-01  8.50000000E-01
  8.50000000E-01  8.50000000E-01  8.50000000E-01  8.50000000E-01  8.50000000E-01
  8.50000000E-01  8.50000000E-01  8.50000000E-01  8.50000000E-01  8.50000000E-01
  8.50000000E-01  8.50000000E-01  8.50000000E-01  8.50000000E-01  8.50000000E-01
  8.50000000E-01  8.50000000E-01  8.50000000E-01  8.50000000E-01  8.50000000E-01
  8.50000000E-01  8.50000000E-01  8.50000000E-01  8.50000000E-01  8.50000000E-01
  8.50000000E-01  8.50000000E-01  8.50000000E-01  8.50000000E-01  8.50000000E-01
  8.50000000E-01  8.50000000E-01  8.50000000E-01  8.50000000E-01  8.50000000E-01
  8.50000000E-01  8.50000000E-01  8.50000000E-01  8.50000000E-01  8.50000000E-01
  8.50000000E-01  8.50000000E-01  8.50000000E-01  8.50000000E-01  8.50000000E-01
  8.50000000E-01  8.50000000E-01  8.50000000E-01  8.50000000E-01  8.50000000E-01
  8.50000000E-01  8.50000000E-01  8.50000000E-01  8.50000000E-01  8.50000000E-01
  8.50000000E-01  8.50000000E-01  8.50000000E-01  8.50000000E-01  8.50000000E-01
  8.50000000E-01  8.50000000E-01  8.50000000E-01  8.50000000E-01  8.50000000E-01
  8.50000000E-01  8.50000000E-01  8.50000000E-01  8.50000000E-01  8.50000000E-01
  8.50000000E-01  8.50000000E-01  8.50000000E-01  8.50000000E-01  8.50000000E-01
  8.50000000E-01  8.50000000E-01  8.50000000E-01  8.50000000E-01  8.50000000E-01
  8.50000000E-01  8.50000000E-01  8.50000000E-01  8.50000000E-01  8.50000000E-01
  8.50000000E-01  8.50000000E-01  8.50000000E-01  8.50000000E-01  8.50000000E-01
  8.50000000E-01  8.50000000E-01  8.50000000E-01  8.50000000E-01  8.50000000E-01
  8.50000000E-01  8.50000000E-01  8.50000000E-01  8.50000000E-01  8.50000000E-01
  8.50000000E-01  8.50000000E-01  8.50000000E-01  8.50000000E-01  8.50000000E-01
  8.50000000E-01  8.50000000E-01  8.50000000E-01  8.50000000E-01  8.50000000E-01
  8.50000000E-01  8.50000000E-01  8.50000000E-01  8.50000000E-01  8.50000000E-01
  8.50000000E-01  8.50000000E-01  8.50000000E-01  8.50000000E-01  8.50000000E-01
  8.50000000E-01  8.50000000E-01  8.50000000E-01  8.50000000E-01  8.50000000E-01
  8.50000000E-01  8.50000000E-01  8.50000000E-01  8.50000000E-01  8.50000000E-01
  8.50000000E-01  8.50000000E-01  8.50000000E-01  8.50000000E-01  8.50000000E-01
  8.50000000E-01  8.50000000E-01  8.50000000E-01  8.50000000E-01  8.50000000E-01
  8.50000000E-01  8.50000000E-01  8.50000000E-01  8.50000000E-01  8.50000000E-01
  8.50000000E-01  8.50000000E-01  8.50000000E-01  8.50000000E-01  8.50000000E-01
  8.50000000E-01  8.50000000E-01  8.50000000E-01  8.50000000E-01  8.50000000E-01
  8.50000000E-01  8.50000000E-01  8.50000000E-01  8.50000000E-01  8.50000000E-01
  8.50000000E-01  8.50000000E-01  8.50000000E-01  8.50000000E-01  8.50000000E-01
  8.50000000E-01  8.50000000E-01  8.50000000E-01  8.50000000E-01  8.50000000E-01
  8.50000000E-01  8.50000000E-01  8.50000000E-01  8.50000000E-01  8.50000000E-01
  8.50000000E-01  8.50000000E-01  8.50000000E-01  8.50000000E-01  8.50000000E-01
  8.50000000E-01  8.50000000E-01  8.50000000E-01  8.50000000E-01  8.50000000E-01
  8.50000000E-01  8.50000000E-01  8.50000000E-01  8.50000000E-01  8.50000000E-01
  8.50000000E-01  8.50000000E-01  8.50000000E-01  8.50000000E-01  8.50000000E-01
  8.50000000E-01  8.50000000E-01  8.50000000E-01  8.50000000E-01  8.50000000E-01
  8.50000000E-01  8.50000000E-01  8.50000000E-01  8.50000000E-01  8.50000000E-01
  8.50000000E-01  8.50000000E-01  8.50000000E-01  8.50000000E-01  8.50000000E-01
  8.50000000E-01  8.50000000E-01  8.50000000E-01  8.50000000E-01  8.50000000E-01
  8.50000000E-01  8.50000000E-01  8.50000000E-01  8.50000000E-01  8.50000000E-01
  8.50000000E-01  8.50000000E-01  8.50000000E-01  8.50000000E-01  8.50000000E-01
  8.50000000E-01  8.50000000E-01  8.50000000E-01  8.50000000E-01  8.50000000E-01
  8.50000000E-01  8.50000000E-01  8.50000000E-01  8.50000000E-01  8.50000000E-01
  8.50000000E-01  8.50000000E-01  8.50000000E-01  8.50000000E-01  8.50000000E-01
  8.50000000E-01  8.50000000E-01  8.50000000E-01  8.50000000E-01  8.50000000E-01
  8.50000000E-01  8.50000000E-01  8.50000000E-01  8.50000000E-01  8.50000000E-01
  8.50000000E-01  8.50000000E-01  8.50000000E-01  8.50000000E-01  8.50000000E-01
  8.50000000E-01  8.50000000E-01  8.50000000E-01  8.50000000E-01  8.50000000E-01
  8.50000000E-01  8.50000000E-01  8.50000000E-01  8.50000000E-01  8.50000000E-01
  8.50000000E-01  8.50000000E-01  8.50000000E-01  8.50000000E-01  8.50000000E-01
  8.50000000E-01  8.50000000E-01  8.50000000E-01  8.50000000E-01  8.50000000E-01
  8.50000000E-01  8.50000000E-01  8.50000000E-01  8.50000000E-01  8.50000000E-01
  8.50000000E-01  8.50000000E-01  8.50000000E-01  8.50000000E-01  8.50000000E-01
  8.50000000E-01  8.50000000E-01  8.50000000E-01  8.50000000E-01  8.50000000E-01
  8.50000000E-01  8.50000000E-01  8.50000000E-01  8.50000000E-01  8.50000000E-01
  8.50000000E-01  8.50000000E-01  8.50000000E-01  8.50000000E-01  8.50000000E-01
  8.50000000E-01  8.50000000E-01  8.50000000E-01  8.50000000E-01  8.50000000E-01
  8.50000000E-01  8.50000000E-01  8.50000000E-01  8.50000000E-01  8.50000000E-01
  8.50000000E-01  8.50000000E-01  8.50000000E-01  8.50000000E-01  8.50000000E-01
  8.50000000E-01  8.50000000E-01  8.50000000E-01  8.50000000E-01  8.50000000E-01
  8.50000000E-01  8.50000000E-01  8.50000000E-01  8.50000000E-01  8.50000000E-01
  8.50000000E-01  8.50000000E-01  8.50000000E-01  8.50000000E-01  8.50000000E-01
  8.50000000E-01  8.50000000E-01  8.50000000E-01  8.50000000E-01  8.50000000E-01
  8.50000000E-01  8.50000000E-01  8.50000000E-01  8.50000000E-01  8.50000000E-01
  8.50000000E-01  8.50000000E-01  8.50000000E-01  8.50000000E-01  8.50000000E-01
  8.50000000E-01  8.50000000E-01  8.50000000E-01  8.50000000E-01  8.50000000E-01
  8.50000000E-01  8.50000000E-01  8.50000000E-01  8.50000000E-01  8.50000000E-01
  8.50000000E-01  8.50000000E-01  8.50000000E-01  8.50000000E-01  8.50000000E-01
  8.50000000E-01  8.50000000E-01  8.50000000E-01  8.50000000E-01  8.50000000E-01
  8.50000000E-01  8.50000000E-01  8.50000000E-01  8.50000000E-01  8.50000000E-01
  8.50000000E-01  8.50000000E-01  8.50000000E-01  8.50000000E-01  8.50000000E-01
  8.50000000E-01  8.50000000E-01  8.50000000E-01  8.50000000E-01  8.50000000E-01
  8.50000000E-01  8.50000000E-01  8.50000000E-01  8.50000000E-01  8.50000000E-01
  8.50000000E-01  8.50000000E-01  8.50000000E-01  8.50000000E-01  8.50000000E-01
  8.50000000E-01  8.50000000E-01  8.50000000E-01  8.50000000E-01  8.50000000E-01
  8.50000000E-01  8.50000000E-01  8.50000000E-01  8.50000000E-01  8.50000000E-01
  8.50000000E-01  8.50000000E-01  8.50000000E-01  8.50000000E-01  8.50000000E-01
  8.50000000E-01  8.50000000E-01  8.50000000E-01  8.50000000E-01  8.50000000E-01
  8.50000000E-01  8.50000000E-01  8.50000000E-01  8.50000000E-01  8.50000000E-01
  8.50000000E-01  8.50000000E-01  8.50000000E-01  8.50000000E-01  8.50000000E-01
  8.50000000E-01  8.50000000E-01  8.50000000E-01  8.50000000E-01  8.50000000E-01
  8.50000000E-01  8.50000000E-01  8.50000000E-01  8.50000000E-01  8.50000000E-01
  8.50000000E-01  8.50000000E-01  8.50000000E-01  8.50000000E-01  8.50000000E-01
  8.50000000E-01  8.50000000E-01  8.50000000E-01  8.50000000E-01  8.50000000E-01
  8.50000000E-01  8.50000000E-01  8.50000000E-01  8.50000000E-01  8.50000000E-01
  8.50000000E-01  8.50000000E-01  8.50000000E-01  8.50000000E-01  8.50000000E-01
  8.50000000E-01  8.50000000E-01  8.50000000E-01  8.50000000E-01  8.50000000E-01
  8.50000000E-01  8.50000000E-01  8.50000000E-01  8.50000000E-01  8.50000000E-01
  8.50000000E-01  8.50000000E-01  8.50000000E-01  8.50000000E-01  8.50000000E-01
  8.50000000E-01  8.50000000E-01  8.50000000E-01  8.50000000E-01  8.50000000E-01
  8.50000000E-01  8.50000000E-01  8.50000000E-01  8.50000000E-01  8.50000000E-01
  8.50000000E-01  8.50000000E-01  8.50000000E-01  8.50000000E-01  8.50000000E-01
  8.50000000E-01  8.50000000E-01  8.50000000E-01  8.50000000E-01  8.50000000E-01
  8.50000000E-01  8.50000000E-01  8.50000000E-01  8.50000000E-01  8.50000000E-01
  8.50000000E-01  8.50000000E-01  8.50000000E-01  8.50000000E-01  8.50000000E-01
  8.50000000E-01  8.50000000E-01  8.50000000E-01  8.50000000E-01  8.50000000E-01
  8.50000000E-01  8.50000000E-01  8.50000000E-01  8.50000000E-01  8.50000000E-01
  8.50000000E-01  8.50000000E-01  8.50000000E-01  8.50000000E-01  8.50000000E-01
  8.50000000E-01  8.50000000E-01  8.50000000E-01  8.50000000E-01  8.50000000E-01
  8.50000000E-01  8.50000000E-01  8.50000000E-01  8.50000000E-01  8.50000000E-01
  8.50000000E-01  8.50000000E-01  8.50000000E-01  8.50000000E-01  8.50000000E-01
  8.50000000E-01  8.50000000E-01  8.50000000E-01  8.50000000E-01  8.50000000E-01
  8.50000000E-01  8.50000000E-01  8.50000000E-01  8.50000000E-01  8.50000000E-01
  8.50000000E-01  8.50000000E-01  8.50000000E-01  8.50000000E-01  8.50000000E-01
  8.50000000E-01  8.50000000E-01  8.50000000E-01  8.50000000E-01  8.50000000E-01
  8.50000000E-01  8.50000000E-01  8.50000000E-01  8.50000000E-01  8.50000000E-01
  8.50000000E-01  8.50000000E-01  8.50000000E-01  8.50000000E-01  8.50000000E-01
  8.50000000E-01  8.50000000E-01  8.50000000E-01  8.50000000E-01  8.50000000E-01
  8.50000000E-01  8.50000000E-01  8.50000000E-01  8.50000000E-01  8.50000000E-01
  8.50000000E-01  8.50000000E-01  8.50000000E-01  8.50000000E-01  8.50000000E-01
  8.50000000E-01  8.50000000E-01  8.50000000E-01  8.50000000E-01  8.50000000E-01
  8.50000000E-01  8.50000000E-01  8.50000000E-01  8.50000000E-01  8.50000000E-01
  8.50000000E-01  8.50000000E-01  8.50000000E-01  8.50000000E-01  8.50000000E-01
  8.50000000E-01  8.50000000E-01  8.50000000E-01  8.50000000E-01  8.50000000E-01
  8.50000000E-01  8.50000000E-01  8.50000000E-01  8.50000000E-01  8.50000000E-01
  8.50000000E-01  8.50000000E-01  8.50000000E-01  8.50000000E-01  8.50000000E-01
  8.50000000E-01  8.50000000E-01  8.50000000E-01  8.50000000E-01  8.50000000E-01
  8.50000000E-01  8.50000000E-01  8.50000000E-01  8.50000000E-01  8.50000000E-01
  8.50000000E-01  8.50000000E-01  8.50000000E-01  8.50000000E-01  8.50000000E-01
  8.50000000E-01  8.50000000E-01  8.50000000E-01  8.50000000E-01  8.50000000E-01
  8.50000000E-01  8.50000000E-01  8.50000000E-01  8.50000000E-01  8.50000000E-01
  8.50000000E-01  8.50000000E-01  8.50000000E-01  8.50000000E-01  8.50000000E-01
  8.50000000E-01  8.50000000E-01  8.50000000E-01  8.50000000E-01  8.50000000E-01
  8.50000000E-01  8.50000000E-01  8.50000000E-01  8.50000000E-01  8.50000000E-01
  8.50000000E-01  8.50000000E-01  8.50000000E-01  8.50000000E-01  8.50000000E-01
  8.50000000E-01  8.50000000E-01  8.50000000E-01  8.50000000E-01  8.50000000E-01
  8.50000000E-01  8.50000000E-01  8.50000000E-01  8.50000000E-01  8.50000000E-01
  8.50000000E-01  8.50000000E-01  8.50000000E-01  8.50000000E-01  8.50000000E-01
  8.50000000E-01  8.50000000E-01  8.50000000E-01  8.50000000E-01  8.50000000E-01
  8.50000000E-01  8.50000000E-01  8.50000000E-01  8.50000000E-01  8.50000000E-01
  8.50000000E-01  8.50000000E-01  8.50000000E-01  8.50000000E-01  8.50000000E-01
  8.50000000E-01  8.50000000E-01  8.50000000E-01  8.50000000E-01  8.50000000E-01
  8.50000000E-01  8.50000000E-01  8.50000000E-01  8.50000000E-01  8.50000000E-01
  8.50000000E-01  8.50000000E-01  8.50000000E-01  8.50000000E-01  8.50000000E-01
  8.50000000E-01  8.50000000E-01  8.50000000E-01  8.50000000E-01  8.50000000E-01
  8.50000000E-01  8.50000000E-01  8.50000000E-01  8.50000000E-01  8.50000000E-01
  8.50000000E-01  8.50000000E-01  8.50000000E-01  8.50000000E-01  8.50000000E-01
  8.50000000E-01  8.50000000E-01  8.50000000E-01  8.50000000E-01  8.50000000E-01
  8.50000000E-01  8.50000000E-01  8.50000000E-01  8.50000000E-01  8.50000000E-01
  8.50000000E-01  8.50000000E-01  8.50000000E-01  8.50000000E-01  8.50000000E-01
  8.50000000E-01  8.50000000E-01  8.50000000E-01  8.50000000E-01  8.50000000E-01
  8.50000000E-01  8.50000000E-01  8.50000000E-01  8.50000000E-01  8.50000000E-01
  8.50000000E-01  8.50000000E-01  8.50000000E-01  8.50000000E-01  8.50000000E-01
  8.50000000E-01  8.50000000E-01  8.50000000E-01  8.50000000E-01  8.50000000E-01
  8.50000000E-01  8.50000000E-01  8.50000000E-01  8.50000000E-01  8.50000000E-01
  8.50000000E-01  8.50000000E-01  8.50000000E-01  8.50000000E-01  8.50000000E-01
  8.50000000E-01  8.50000000E-01  8.50000000E-01  8.50000000E-01  8.50000000E-01
  8.50000000E-01  8.50000000E-01  8.50000000E-01  8.50000000E-01  8.50000000E-01
  8.50000000E-01  8.50000000E-01  8.50000000E-01  8.50000000E-01  8.50000000E-01
  8.50000000E-01  8.50000000E-01  8.50000000E-01  8.50000000E-01  8.50000000E-01
  8.50000000E-01  8.50000000E-01  8.50000000E-01  8.50000000E-01  8.50000000E-01
  8.50000000E-01  8.50000000E-01  8.50000000E-01  8.50000000E-01  8.50000000E-01
  8.50000000E-01  8.50000000E-01  8.50000000E-01  8.50000000E-01  8.50000000E-01
  8.50000000E-01  8.50000000E-01  8.50000000E-01  8.50000000E-01  8.50000000E-01
  8.50000000E-01  8.50000000E-01  8.50000000E-01  8.50000000E-01  8.50000000E-01
  8.50000000E-01  8.50000000E-01  8.50000000E-01  8.50000000E-01  8.50000000E-01
  8.50000000E-01  8.50000000E-01  8.50000000E-01  8.50000000E-01  8.50000000E-01
  8.50000000E-01  8.50000000E-01  8.50000000E-01  8.50000000E-01  8.50000000E-01
  8.50000000E-01  8.50000000E-01  8.50000000E-01  8.50000000E-01  8.50000000E-01
  8.50000000E-01  8.50000000E-01  8.50000000E-01  8.50000000E-01  8.50000000E-01
  8.50000000E-01  8.50000000E-01  8.50000000E-01  8.50000000E-01  8.50000000E-01
  8.50000000E-01  8.50000000E-01  8.50000000E-01  8.50000000E-01  8.50000000E-01
  8.50000000E-01  8.50000000E-01  8.50000000E-01  8.50000000E-01  8.50000000E-01
  8.50000000E-01  8.50000000E-01  8.50000000E-01  8.50000000E-01  8.50000000E-01
  8.50000000E-01  8.50000000E-01  8.50000000E-01  8.50000000E-01  8.50000000E-01
  8.50000000E-01  8.50000000E-01  8.50000000E-01  8.50000000E-01  8.50000000E-01
  8.50000000E-01  8.50000000E-01  8.50000000E-01  8.50000000E-01  8.50000000E-01
  8.50000000E-01  8.50000000E-01  8.50000000E-01  8.50000000E-01  8.50000000E-01
  8.50000000E-01  8.50000000E-01  8.50000000E-01  8.50000000E-01  8.50000000E-01
  8.50000000E-01  8.50000000E-01  8.50000000E-01  8.50000000E-01  8.50000000E-01
  8.50000000E-01  8.50000000E-01  8.50000000E-01  8.50000000E-01  8.50000000E-01
  8.50000000E-01  8.50000000E-01  8.50000000E-01  8.50000000E-01  8.50000000E-01
  8.50000000E-01  8.50000000E-01  8.50000000E-01  8.50000000E-01  8.50000000E-01
  8.50000000E-01  8.50000000E-01  8.50000000E-01  8.50000000E-01  8.50000000E-01
  8.50000000E-01  8.50000000E-01  8.50000000E-01  8.50000000E-01  8.50000000E-01
  8.50000000E-01  8.50000000E-01  8.50000000E-01  8.50000000E-01  8.50000000E-01
  8.50000000E-01  8.50000000E-01  8.50000000E-01  8.50000000E-01  8.50000000E-01
  8.50000000E-01  8.50000000E-01  8.50000000E-01  8.50000000E-01  8.50000000E-01
  8.50000000E-01  8.50000000E-01  8.50000000E-01  8.50000000E-01  8.50000000E-01
  8.50000000E-01  8.50000000E-01  8.50000000E-01  8.50000000E-01  8.50000000E-01
  8.50000000E-01  8.50000000E-01  8.50000000E-01  8.50000000E-01  8.50000000E-01
  8.50000000E-01  8.50000000E-01  8.50000000E-01  8.50000000E-01  8.50000000E-01
  8.50000000E-01  8.50000000E-01  8.50000000E-01  8.50000000E-01  8.50000000E-01
  8.50000000E-01  8.50000000E-01  8.50000000E-01  8.50000000E-01  8.50000000E-01
  8.50000000E-01  8.50000000E-01  8.50000000E-01  8.50000000E-01  8.50000000E-01
  8.50000000E-01  8.50000000E-01  8.50000000E-01  8.50000000E-01  8.50000000E-01
  8.50000000E-01  8.50000000E-01  8.50000000E-01  8.50000000E-01  8.50000000E-01
  8.50000000E-01  8.50000000E-01  8.50000000E-01  8.50000000E-01  8.50000000E-01
  8.50000000E-01  8.50000000E-01  8.50000000E-01  8.50000000E-01  8.50000000E-01
  8.50000000E-01  8.50000000E-01  8.50000000E-01  8.50000000E-01  8.50000000E-01
  8.50000000E-01  8.50000000E-01  8.50000000E-01  8.50000000E-01  8.50000000E-01
  8.50000000E-01  8.50000000E-01  8.50000000E-01  8.50000000E-01  8.50000000E-01
  8.50000000E-01  8.50000000E-01  8.50000000E-01  8.50000000E-01  8.50000000E-01
  8.50000000E-01  8.50000000E-01  8.50000000E-01  8.50000000E-01  8.50000000E-01
  8.50000000E-01  8.50000000E-01  8.50000000E-01  8.50000000E-01  8.50000000E-01
  8.50000000E-01  8.50000000E-01  8.50000000E-01  8.50000000E-01  8.50000000E-01
  8.50000000E-01  8.50000000E-01  8.50000000E-01  8.50000000E-01  8.50000000E-01
  8.50000000E-01  8.50000000E-01  8.50000000E-01  8.50000000E-01  8.50000000E-01
  8.50000000E-01  8.50000000E-01  8.50000000E-01  8.50000000E-01  8.50000000E-01
  8.50000000E-01  8.50000000E-01  8.50000000E-01  8.50000000E-01  8.50000000E-01
  8.50000000E-01  8.50000000E-01  8.50000000E-01  8.50000000E-01  8.50000000E-01
  8.50000000E-01  8.50000000E-01  8.50000000E-01  8.50000000E-01  8.50000000E-01
  8.50000000E-01  8.50000000E-01  8.50000000E-01  8.50000000E-01  8.50000000E-01
  8.50000000E-01  8.50000000E-01  8.50000000E-01  8.50000000E-01  8.50000000E-01
  8.50000000E-01  8.50000000E-01  8.50000000E-01  8.50000000E-01  8.50000000E-01
  8.50000000E-01  8.50000000E-01  8.50000000E-01  8.50000000E-01  8.50000000E-01
  8.50000000E-01  8.50000000E-01  8.50000000E-01  8.50000000E-01  8.50000000E-01
  8.50000000E-01  8.50000000E-01  8.50000000E-01  8.50000000E-01  8.50000000E-01
  8.50000000E-01  8.50000000E-01  8.50000000E-01  8.50000000E-01  8.50000000E-01
  8.50000000E-01  8.50000000E-01  8.50000000E-01  8.50000000E-01  8.50000000E-01
  8.50000000E-01  8.50000000E-01  8.50000000E-01  8.50000000E-01  8.50000000E-01
  8.50000000E-01  8.50000000E-01  8.50000000E-01  8.50000000E-01  8.50000000E-01
  8.50000000E-01  8.50000000E-01  8.50000000E-01  8.50000000E-01  8.50000000E-01
  8.50000000E-01  8.50000000E-01  8.50000000E-01  8.50000000E-01  8.50000000E-01
  8.50000000E-01  8.50000000E-01  8.50000000E-01  8.50000000E-01  8.50000000E-01
  8.50000000E-01  8.50000000E-01  8.50000000E-01  8.50000000E-01  8.50000000E-01
  8.50000000E-01  8.50000000E-01  8.50000000E-01  8.50000000E-01  8.50000000E-01
  8.50000000E-01  8.50000000E-01  8.50000000E-01  8.50000000E-01  8.50000000E-01
  8.50000000E-01  8.50000000E-01  8.50000000E-01  8.50000000E-01  8.50000000E-01
  8.50000000E-01  8.50000000E-01  8.50000000E-01  8.50000000E-01  8.50000000E-01
  8.50000000E-01  8.50000000E-01  8.50000000E-01  8.50000000E-01  8.50000000E-01
  8.50000000E-01  8.50000000E-01  8.50000000E-01  8.50000000E-01  8.50000000E-01
  8.50000000E-01  8.50000000E-01  8.50000000E-01  8.50000000E-01  8.50000000E-01
  8.50000000E-01  8.50000000E-01  8.50000000E-01  8.50000000E-01  8.50000000E-01
  8.50000000E-01  8.50000000E-01  8.50000000E-01  8.50000000E-01  8.50000000E-01
  8.50000000E-01  8.50000000E-01  8.50000000E-01  8.50000000E-01  8.50000000E-01
  8.50000000E-01  8.50000000E-01  8.50000000E-01  8.50000000E-01  8.50000000E-01
  8.50000000E-01  8.50000000E-01  8.50000000E-01  8.50000000E-01  8.50000000E-01
  8.50000000E-01  8.50000000E-01  8.50000000E-01  8.50000000E-01  8.50000000E-01
  8.50000000E-01  8.50000000E-01  8.50000000E-01  8.50000000E-01  8.50000000E-01
  8.50000000E-01  8.50000000E-01  8.50000000E-01  8.50000000E-01  8.50000000E-01
  8.50000000E-01  8.50000000E-01  8.50000000E-01  8.50000000E-01  8.50000000E-01
  8.50000000E-01  8.50000000E-01  8.50000000E-01  8.50000000E-01  8.50000000E-01
  8.50000000E-01  8.50000000E-01  8.50000000E-01  8.50000000E-01  8.50000000E-01
  8.50000000E-01  8.50000000E-01  8.50000000E-01  8.50000000E-01  8.50000000E-01
  8.50000000E-01  8.50000000E-01  8.50000000E-01  8.50000000E-01  8.50000000E-01
  8.50000000E-01  8.50000000E-01  8.50000000E-01  8.50000000E-01  8.50000000E-01
  8.50000000E-01  8.50000000E-01  8.50000000E-01  8.50000000E-01  8.50000000E-01
  8.50000000E-01  8.50000000E-01  8.50000000E-01  8.50000000E-01  8.50000000E-01
  8.50000000E-01  8.50000000E-01  8.50000000E-01  8.50000000E-01  8.50000000E-01
  8.50000000E-01  8.50000000E-01  8.50000000E-01  8.50000000E-01  8.50000000E-01
  8.50000000E-01  8.50000000E-01  8.50000000E-01  8.50000000E-01  8.50000000E-01
  8.50000000E-01  8.50000000E-01  8.50000000E-01  8.50000000E-01  8.50000000E-01
  8.50000000E-01  8.50000000E-01  8.50000000E-01  8.50000000E-01  8.50000000E-01
  8.50000000E-01  8.50000000E-01  8.50000000E-01  8.50000000E-01  8.50000000E-01
  8.50000000E-01  8.50000000E-01  8.50000000E-01  8.50000000E-01  8.50000000E-01
  8.50000000E-01  8.50000000E-01  8.50000000E-01  8.50000000E-01  8.50000000E-01
  8.50000000E-01  8.50000000E-01  8.50000000E-01  8.50000000E-01  8.50000000E-01
  8.50000000E-01  8.50000000E-01  8.50000000E-01  8.50000000E-01  8.50000000E-01
  8.50000000E-01  8.50000000E-01  8.50000000E-01  8.50000000E-01  8.50000000E-01
  8.50000000E-01  8.50000000E-01  8.50000000E-01  8.50000000E-01  8.50000000E-01
  8.50000000E-01  8.50000000E-01  8.50000000E-01  8.50000000E-01  8.50000000E-01
  8.50000000E-01  8.50000000E-01  8.50000000E-01  8.50000000E-01  8.50000000E-01
  8.50000000E-01  8.50000000E-01  8.50000000E-01  8.50000000E-01  8.50000000E-01
  8.50000000E-01  8.50000000E-01  8.50000000E-01  8.50000000E-01  8.50000000E-01
  8.50000000E-01  8.50000000E-01  8.50000000E-01  8.50000000E-01  8.50000000E-01
  8.50000000E-01  8.50000000E-01  8.50000000E-01  8.50000000E-01  8.50000000E-01
  8.50000000E-01  8.50000000E-01  8.50000000E-01  8.50000000E-01  8.50000000E-01
  8.50000000E-01  8.50000000E-01  8.50000000E-01  8.50000000E-01  8.50000000E-01
  8.50000000E-01  8.50000000E-01  8.50000000E-01  8.50000000E-01  8.50000000E-01
  8.50000000E-01  8.50000000E-01  8.50000000E-01  8.50000000E-01  8.50000000E-01
  8.50000000E-01  8.50000000E-01  8.50000000E-01  8.50000000E-01  8.50000000E-01
  8.50000000E-01  8.50000000E-01  8.50000000E-01  8.50000000E-01  8.50000000E-01
  8.50000000E-01  8.50000000E-01  8.50000000E-01  8.50000000E-01  8.50000000E-01
  8.50000000E-01  8.50000000E-01  8.50000000E-01  8.50000000E-01  8.50000000E-01
  8.50000000E-01  8.50000000E-01  8.50000000E-01  8.50000000E-01  8.50000000E-01
  8.50000000E-01  8.50000000E-01  8.50000000E-01  8.50000000E-01  8.50000000E-01
  8.50000000E-01  8.50000000E-01  8.50000000E-01  8.50000000E-01  8.50000000E-01
  8.50000000E-01  8.50000000E-01  8.50000000E-01  8.50000000E-01  8.50000000E-01
  8.50000000E-01  8.50000000E-01  8.50000000E-01  8.50000000E-01  8.50000000E-01
  8.50000000E-01  8.50000000E-01  8.50000000E-01  8.50000000E-01  8.50000000E-01
  8.50000000E-01  8.50000000E-01  8.50000000E-01  8.50000000E-01  8.50000000E-01
  8.50000000E-01  8.50000000E-01  8.50000000E-01  8.50000000E-01  8.50000000E-01
  8.50000000E-01  8.50000000E-01  8.50000000E-01  8.50000000E-01  8.50000000E-01
  8.50000000E-01  8.50000000E-01  8.50000000E-01  8.50000000E-01  8.50000000E-01
  8.50000000E-01  8.50000000E-01  8.50000000E-01  8.50000000E-01  8.50000000E-01
  8.50000000E-01  8.50000000E-01  8.50000000E-01  8.50000000E-01  8.50000000E-01
  8.50000000E-01  8.50000000E-01  8.50000000E-01  8.50000000E-01  8.50000000E-01
  8.50000000E-01  8.50000000E-01  8.50000000E-01  8.50000000E-01  8.50000000E-01
  8.50000000E-01  8.50000000E-01  8.50000000E-01  8.50000000E-01  8.50000000E-01
  8.50000000E-01  8.50000000E-01  8.50000000E-01  8.50000000E-01  8.50000000E-01
  8.50000000E-01  8.50000000E-01  8.50000000E-01  8.50000000E-01  8.50000000E-01
  8.50000000E-01  8.50000000E-01  8.50000000E-01  8.50000000E-01  8.50000000E-01
  8.50000000E-01  8.50000000E-01  8.50000000E-01  8.50000000E-01  8.50000000E-01
  8.50000000E-01  8.50000000E-01  8.50000000E-01  8.50000000E-01  8.50000000E-01
  8.50000000E-01  8.50000000E-01  8.50000000E-01  8.50000000E-01  8.50000000E-01
  8.50000000E-01  8.50000000E-01  8.50000000E-01  8.50000000E-01  8.50000000E-01
  8.50000000E-01  8.50000000E-01  8.50000000E-01  8.50000000E-01  8.50000000E-01
  8.50000000E-01  8.50000000E-01  8.50000000E-01  8.50000000E-01  8.50000000E-01
  8.50000000E-01  8.50000000E-01  8.50000000E-01  8.50000000E-01  8.50000000E-01
  8.50000000E-01  8.50000000E-01  8.50000000E-01  8.50000000E-01  8.50000000E-01
  8.50000000E-01  8.50000000E-01  8.50000000E-01  8.50000000E-01  8.50000000E-01
  8.50000000E-01  8.50000000E-01  8.50000000E-01  8.50000000E-01  8.50000000E-01
  8.50000000E-01  8.50000000E-01  8.50000000E-01  8.50000000E-01  8.50000000E-01
  8.50000000E-01  8.50000000E-01  8.50000000E-01  8.50000000E-01  8.50000000E-01
  8.50000000E-01  8.50000000E-01  8.50000000E-01  8.50000000E-01  8.50000000E-01
  8.50000000E-01  8.50000000E-01  8.50000000E-01  8.50000000E-01  8.50000000E-01
  8.50000000E-01  8.50000000E-01  8.50000000E-01  8.50000000E-01  8.50000000E-01
  8.50000000E-01  8.50000000E-01  8.50000000E-01  8.50000000E-01  8.50000000E-01
  8.50000000E-01  8.50000000E-01  8.50000000E-01  8.50000000E-01  8.50000000E-01
  8.50000000E-01  8.50000000E-01  8.50000000E-01  8.50000000E-01  8.50000000E-01
  8.50000000E-01  8.50000000E-01  8.50000000E-01  8.50000000E-01  8.50000000E-01
  8.50000000E-01  8.50000000E-01  8.50000000E-01  8.50000000E-01  8.50000000E-01
  8.50000000E-01  8.50000000E-01  8.50000000E-01  8.50000000E-01  8.50000000E-01
  8.50000000E-01  8.50000000E-01  8.50000000E-01  8.50000000E-01  8.50000000E-01
  8.50000000E-01  8.50000000E-01  8.50000000E-01  8.50000000E-01  8.50000000E-01
  8.50000000E-01  8.50000000E-01  8.50000000E-01  8.50000000E-01  8.50000000E-01
  8.50000000E-01  8.50000000E-01  8.50000000E-01  8.50000000E-01  8.50000000E-01
  8.50000000E-01  8.50000000E-01  8.50000000E-01  8.50000000E-01  8.50000000E-01
  8.50000000E-01  8.50000000E-01  8.50000000E-01  8.50000000E-01  8.50000000E-01
  8.50000000E-01  8.50000000E-01  8.50000000E-01  8.50000000E-01  8.50000000E-01
  8.50000000E-01  8.50000000E-01  8.50000000E-01  8.50000000E-01  8.50000000E-01
  8.50000000E-01  8.50000000E-01  8.50000000E-01  8.50000000E-01  8.50000000E-01
  8.50000000E-01  8.50000000E-01  8.50000000E-01  8.50000000E-01  8.50000000E-01
  8.50000000E-01  8.50000000E-01  8.50000000E-01  8.50000000E-01  8.50000000E-01
  8.50000000E-01  8.50000000E-01  8.50000000E-01  8.50000000E-01  8.50000000E-01
  8.50000000E-01  8.50000000E-01  8.50000000E-01  8.50000000E-01  8.50000000E-01
  8.50000000E-01  8.50000000E-01  8.50000000E-01  8.50000000E-01  8.50000000E-01
  8.50000000E-01  8.50000000E-01  8.50000000E-01  8.50000000E-01  8.50000000E-01
  8.50000000E-01  8.50000000E-01  8.50000000E-01  8.50000000E-01  8.50000000E-01
  8.50000000E-01  8.50000000E-01  8.50000000E-01  8.50000000E-01  8.50000000E-01
  8.50000000E-01  8.50000000E-01  8.50000000E-01  8.50000000E-01  8.50000000E-01
  8.50000000E-01  8.50000000E-01  8.50000000E-01  8.50000000E-01  8.50000000E-01
  8.50000000E-01  8.50000000E-01  8.50000000E-01  8.50000000E-01  8.50000000E-01
  8.50000000E-01  8.50000000E-01  8.50000000E-01  8.50000000E-01  8.50000000E-01
  8.50000000E-01  8.50000000E-01  8.50000000E-01  8.50000000E-01  8.50000000E-01
  8.50000000E-01  8.50000000E-01  8.50000000E-01  8.50000000E-01  8.50000000E-01
  8.50000000E-01  8.50000000E-01  8.50000000E-01  8.50000000E-01  8.50000000E-01
  8.50000000E-01  8.50000000E-01  8.50000000E-01  8.50000000E-01  8.50000000E-01
  8.50000000E-01  8.50000000E-01  8.50000000E-01  8.50000000E-01  8.50000000E-01
  8.50000000E-01  8.50000000E-01  8.50000000E-01  8.50000000E-01  8.50000000E-01
  8.50000000E-01  8.50000000E-01  8.50000000E-01  8.50000000E-01  8.50000000E-01
  8.50000000E-01  8.50000000E-01  8.50000000E-01  8.50000000E-01  8.50000000E-01
  8.50000000E-01  8.50000000E-01  8.50000000E-01  8.50000000E-01  8.50000000E-01
  8.50000000E-01  8.50000000E-01  8.50000000E-01  8.50000000E-01  8.50000000E-01
  8.50000000E-01  8.50000000E-01  8.50000000E-01  8.50000000E-01  8.50000000E-01
  8.50000000E-01  8.50000000E-01  8.50000000E-01  8.50000000E-01  8.50000000E-01
  8.50000000E-01  8.50000000E-01  8.50000000E-01  8.50000000E-01  8.50000000E-01
  8.50000000E-01  8.50000000E-01  8.50000000E-01  8.50000000E-01  8.50000000E-01
  8.50000000E-01  8.50000000E-01  8.50000000E-01  8.50000000E-01  8.50000000E-01
  8.50000000E-01  8.50000000E-01  8.50000000E-01  8.50000000E-01  8.50000000E-01
  8.50000000E-01  8.50000000E-01  8.50000000E-01  8.50000000E-01  8.50000000E-01
  8.50000000E-01  8.50000000E-01  8.50000000E-01  8.50000000E-01  8.50000000E-01
  8.50000000E-01  8.50000000E-01  8.50000000E-01  8.50000000E-01  8.50000000E-01
  8.50000000E-01  8.50000000E-01  8.50000000E-01  8.50000000E-01  8.50000000E-01
  8.50000000E-01  8.50000000E-01  8.50000000E-01  8.50000000E-01  8.50000000E-01
  8.50000000E-01  8.50000000E-01  8.50000000E-01  8.50000000E-01  8.50000000E-01
  8.50000000E-01  8.50000000E-01  8.50000000E-01  8.50000000E-01  8.50000000E-01
  8.50000000E-01  8.50000000E-01  8.50000000E-01  8.50000000E-01  8.50000000E-01
  8.50000000E-01  8.50000000E-01  8.50000000E-01  8.50000000E-01  8.50000000E-01
  8.50000000E-01  8.50000000E-01  8.50000000E-01  8.50000000E-01  8.50000000E-01
  8.50000000E-01  8.50000000E-01  8.50000000E-01  8.50000000E-01  8.50000000E-01
  8.50000000E-01  8.50000000E-01  8.50000000E-01  8.50000000E-01  8.50000000E-01
  8.50000000E-01  8.50000000E-01  8.50000000E-01  8.50000000E-01  8.50000000E-01
  8.50000000E-01  8.50000000E-01  8.50000000E-01  8.50000000E-01  8.50000000E-01
  8.50000000E-01  8.50000000E-01  8.50000000E-01  8.50000000E-01  8.50000000E-01
  8.50000000E-01  8.50000000E-01  8.50000000E-01  8.50000000E-01  8.50000000E-01
  8.50000000E-01  8.50000000E-01  8.50000000E-01  8.50000000E-01  8.50000000E-01
  8.50000000E-01  8.50000000E-01  8.50000000E-01  8.50000000E-01  8.50000000E-01
  8.50000000E-01  8.50000000E-01  8.50000000E-01  8.50000000E-01  8.50000000E-01
  8.50000000E-01  8.50000000E-01  8.50000000E-01  8.50000000E-01  8.50000000E-01
  8.50000000E-01  8.50000000E-01  8.50000000E-01  8.50000000E-01  8.50000000E-01
  8.50000000E-01  8.50000000E-01  8.50000000E-01  8.50000000E-01  8.50000000E-01
  8.50000000E-01  8.50000000E-01  8.50000000E-01  8.50000000E-01  8.50000000E-01
  8.50000000E-01  8.50000000E-01  8.50000000E-01  8.50000000E-01  8.50000000E-01
  8.50000000E-01  8.50000000E-01  8.50000000E-01  8.50000000E-01  8.50000000E-01
  8.50000000E-01  8.50000000E-01  8.50000000E-01  8.50000000E-01  8.50000000E-01
  8.50000000E-01  8.50000000E-01  8.50000000E-01  8.50000000E-01  8.50000000E-01
  8.50000000E-01  8.50000000E-01  8.50000000E-01  8.50000000E-01  8.50000000E-01
  8.50000000E-01  8.50000000E-01  8.50000000E-01  8.50000000E-01  8.50000000E-01
  8.50000000E-01  8.50000000E-01  8.50000000E-01  8.50000000E-01  8.50000000E-01
  8.50000000E-01  8.50000000E-01  8.50000000E-01  8.50000000E-01  8.50000000E-01
  8.50000000E-01  8.50000000E-01  8.50000000E-01  8.50000000E-01  8.50000000E-01
  8.50000000E-01  8.50000000E-01  8.50000000E-01  8.50000000E-01  8.50000000E-01
  8.50000000E-01  8.50000000E-01  8.50000000E-01  8.50000000E-01  8.50000000E-01
  8.50000000E-01  8.50000000E-01  8.50000000E-01  8.50000000E-01  8.50000000E-01
  8.50000000E-01  8.50000000E-01  8.50000000E-01  8.50000000E-01  8.50000000E-01
  8.50000000E-01  8.50000000E-01  8.50000000E-01  8.50000000E-01  8.50000000E-01
  8.50000000E-01  8.50000000E-01  8.50000000E-01  8.50000000E-01  8.50000000E-01
  8.50000000E-01  8.50000000E-01  8.50000000E-01  8.50000000E-01  8.50000000E-01
  8.50000000E-01  8.50000000E-01  8.50000000E-01  8.50000000E-01  8.50000000E-01
  8.50000000E-01  8.50000000E-01  8.50000000E-01  8.50000000E-01  8.50000000E-01
  8.50000000E-01  8.50000000E-01  8.50000000E-01  8.50000000E-01  8.50000000E-01
  8.50000000E-01  8.50000000E-01  8.50000000E-01  8.50000000E-01  8.50000000E-01
  8.50000000E-01  8.50000000E-01  8.50000000E-01  8.50000000E-01  8.50000000E-01
  8.50000000E-01  8.50000000E-01  8.50000000E-01  8.50000000E-01  8.50000000E-01
  8.50000000E-01  8.50000000E-01  8.50000000E-01  8.50000000E-01  8.50000000E-01
  8.50000000E-01  8.50000000E-01  8.50000000E-01  8.50000000E-01  8.50000000E-01
  8.50000000E-01  8.50000000E-01  8.50000000E-01  8.50000000E-01  8.50000000E-01
  8.50000000E-01  8.50000000E-01  8.50000000E-01  8.50000000E-01  8.50000000E-01
  8.50000000E-01  8.50000000E-01  8.50000000E-01  8.50000000E-01  8.50000000E-01
  8.50000000E-01  8.50000000E-01  8.50000000E-01  8.50000000E-01  8.50000000E-01
  8.50000000E-01  8.50000000E-01  8.50000000E-01  8.50000000E-01  8.50000000E-01
  8.50000000E-01  8.50000000E-01  8.50000000E-01  8.50000000E-01  8.50000000E-01
  8.50000000E-01  8.50000000E-01  8.50000000E-01  8.50000000E-01  8.50000000E-01
  8.50000000E-01  8.50000000E-01  8.50000000E-01  8.50000000E-01  8.50000000E-01
  8.50000000E-01  8.50000000E-01  8.50000000E-01  8.50000000E-01  8.50000000E-01
  8.50000000E-01  8.50000000E-01  8.50000000E-01  8.50000000E-01  8.50000000E-01
  8.50000000E-01  8.50000000E-01  8.50000000E-01  8.50000000E-01  8.50000000E-01
  8.50000000E-01  8.50000000E-01  8.50000000E-01  8.50000000E-01  8.50000000E-01
  8.50000000E-01  8.50000000E-01  8.50000000E-01  8.50000000E-01  8.50000000E-01
  8.50000000E-01  8.50000000E-01  8.50000000E-01  8.50000000E-01  8.50000000E-01
  8.50000000E-01  8.50000000E-01  8.50000000E-01  8.50000000E-01  8.50000000E-01
  8.50000000E-01  8.50000000E-01  8.50000000E-01  8.50000000E-01  8.50000000E-01
  8.50000000E-01  8.50000000E-01  8.50000000E-01  8.50000000E-01  8.50000000E-01
  8.50000000E-01  8.50000000E-01  8.50000000E-01  8.50000000E-01  8.50000000E-01
  8.50000000E-01  8.50000000E-01  8.50000000E-01  8.50000000E-01  8.50000000E-01
  8.50000000E-01  8.50000000E-01  8.50000000E-01  8.50000000E-01  8.50000000E-01
  8.50000000E-01  8.50000000E-01  8.50000000E-01  8.50000000E-01  8.50000000E-01
  8.50000000E-01  8.50000000E-01  8.50000000E-01  8.50000000E-01  8.50000000E-01
  8.50000000E-01  8.50000000E-01  8.50000000E-01  8.50000000E-01  8.50000000E-01
  8.50000000E-01  8.50000000E-01  8.50000000E-01  8.50000000E-01  8.50000000E-01
  8.50000000E-01  8.50000000E-01  8.50000000E-01  8.50000000E-01  8.50000000E-01
  8.50000000E-01  8.50000000E-01  8.50000000E-01  8.50000000E-01  8.50000000E-01
  8.50000000E-01  8.50000000E-01  8.50000000E-01  8.50000000E-01  8.50000000E-01
  8.50000000E-01  8.50000000E-01  8.50000000E-01  8.50000000E-01  8.50000000E-01
  8.50000000E-01  8.50000000E-01  8.50000000E-01  8.50000000E-01  8.50000000E-01
  8.50000000E-01  8.50000000E-01  8.50000000E-01  8.50000000E-01  8.50000000E-01
  8.50000000E-01  8.50000000E-01  8.50000000E-01  8.50000000E-01  8.50000000E-01
  8.50000000E-01  8.50000000E-01  8.50000000E-01  8.50000000E-01  8.50000000E-01
  8.50000000E-01  8.50000000E-01  8.50000000E-01  8.50000000E-01  8.50000000E-01
  8.50000000E-01  8.50000000E-01  8.50000000E-01  8.50000000E-01  8.50000000E-01
  8.50000000E-01  8.50000000E-01  8.50000000E-01  8.50000000E-01  8.50000000E-01
  8.50000000E-01  8.50000000E-01  8.50000000E-01  8.50000000E-01  8.50000000E-01
  8.50000000E-01  8.50000000E-01  8.50000000E-01  8.50000000E-01  8.50000000E-01
  8.50000000E-01  8.50000000E-01  8.50000000E-01  8.50000000E-01  8.50000000E-01
  8.50000000E-01  8.50000000E-01  8.50000000E-01  8.50000000E-01  8.50000000E-01
  8.50000000E-01  8.50000000E-01  8.50000000E-01  8.50000000E-01  8.50000000E-01
  8.50000000E-01  8.50000000E-01  8.50000000E-01  8.50000000E-01  8.50000000E-01
  8.50000000E-01  8.50000000E-01  8.50000000E-01  8.50000000E-01  8.50000000E-01
  8.50000000E-01  8.50000000E-01  8.50000000E-01  8.50000000E-01  8.50000000E-01
  8.50000000E-01  8.50000000E-01  8.50000000E-01  8.50000000E-01  8.50000000E-01
  8.50000000E-01  8.50000000E-01  8.50000000E-01  8.50000000E-01  8.50000000E-01
  8.50000000E-01  8.50000000E-01  8.50000000E-01  8.50000000E-01  8.50000000E-01
  8.50000000E-01  8.50000000E-01  8.50000000E-01  8.50000000E-01  8.50000000E-01
  8.50000000E-01  8.50000000E-01  8.50000000E-01  8.50000000E-01  8.50000000E-01
  8.50000000E-01  8.50000000E-01  8.50000000E-01  8.50000000E-01  8.50000000E-01
  8.50000000E-01  8.50000000E-01  8.50000000E-01  8.50000000E-01  8.50000000E-01
  8.50000000E-01  8.50000000E-01  8.50000000E-01  8.50000000E-01  8.50000000E-01
  8.50000000E-01  8.50000000E-01  8.50000000E-01  8.50000000E-01  8.50000000E-01
  8.50000000E-01  8.50000000E-01  8.50000000E-01  8.50000000E-01  8.50000000E-01
  8.50000000E-01  8.50000000E-01  8.50000000E-01  8.50000000E-01  8.50000000E-01
  8.50000000E-01  8.50000000E-01  8.50000000E-01  8.50000000E-01  8.50000000E-01
  8.50000000E-01  8.50000000E-01  8.50000000E-01  8.50000000E-01  8.50000000E-01
  8.50000000E-01  8.50000000E-01  8.50000000E-01  8.50000000E-01  8.50000000E-01
  8.50000000E-01  8.50000000E-01  8.50000000E-01  8.50000000E-01  8.50000000E-01
  8.50000000E-01  8.50000000E-01  8.50000000E-01  8.50000000E-01  8.50000000E-01
  8.50000000E-01  8.50000000E-01  8.50000000E-01  8.50000000E-01  8.50000000E-01
  8.50000000E-01  8.50000000E-01  8.50000000E-01  8.50000000E-01  8.50000000E-01
  8.50000000E-01  8.50000000E-01  8.50000000E-01  8.50000000E-01  8.50000000E-01
  8.50000000E-01  8.50000000E-01  8.50000000E-01  8.50000000E-01  8.50000000E-01
  8.50000000E-01  8.50000000E-01  8.50000000E-01  8.50000000E-01  8.50000000E-01
  8.50000000E-01  8.50000000E-01  8.50000000E-01  8.50000000E-01  8.50000000E-01
  8.50000000E-01  8.50000000E-01  8.50000000E-01  8.50000000E-01  8.50000000E-01
  8.50000000E-01  8.50000000E-01  8.50000000E-01  8.50000000E-01  8.50000000E-01
  8.50000000E-01  8.50000000E-01  8.50000000E-01  8.50000000E-01  8.50000000E-01
  8.50000000E-01  8.50000000E-01  8.50000000E-01  8.50000000E-01  8.50000000E-01
  8.50000000E-01  8.50000000E-01  8.50000000E-01  8.50000000E-01  8.50000000E-01
  8.50000000E-01  8.50000000E-01  8.50000000E-01  8.50000000E-01  8.50000000E-01
  8.50000000E-01  8.50000000E-01  8.50000000E-01  8.50000000E-01  8.50000000E-01
  8.50000000E-01  8.50000000E-01  8.50000000E-01  8.50000000E-01  8.50000000E-01
  8.50000000E-01  8.50000000E-01  8.50000000E-01  8.50000000E-01  8.50000000E-01
  8.50000000E-01  8.50000000E-01  8.50000000E-01  8.50000000E-01  8.50000000E-01
  8.50000000E-01  8.50000000E-01  8.50000000E-01  8.50000000E-01  8.50000000E-01
  8.50000000E-01  8.50000000E-01  8.50000000E-01  8.50000000E-01  8.50000000E-01
  8.50000000E-01  8.50000000E-01  8.50000000E-01  8.50000000E-01  8.50000000E-01
  8.50000000E-01  8.50000000E-01  8.50000000E-01  8.50000000E-01  8.50000000E-01
  8.50000000E-01  8.50000000E-01  8.50000000E-01  8.50000000E-01  8.50000000E-01
  8.50000000E-01  8.50000000E-01  8.50000000E-01  8.50000000E-01  8.50000000E-01
  8.50000000E-01  8.50000000E-01  8.50000000E-01  8.50000000E-01  8.50000000E-01
  8.50000000E-01  8.50000000E-01  8.50000000E-01  8.50000000E-01  8.50000000E-01
  8.50000000E-01  8.50000000E-01  8.50000000E-01  8.50000000E-01  8.50000000E-01
  8.50000000E-01  8.50000000E-01  8.50000000E-01  8.50000000E-01  8.50000000E-01
  8.50000000E-01  8.50000000E-01  8.50000000E-01  8.50000000E-01  8.50000000E-01
  8.50000000E-01  8.50000000E-01  8.50000000E-01  8.50000000E-01  8.50000000E-01
  8.50000000E-01  8.50000000E-01  8.50000000E-01  8.50000000E-01  8.50000000E-01
  8.50000000E-01  8.50000000E-01  8.50000000E-01  8.50000000E-01  8.50000000E-01
  8.50000000E-01  8.50000000E-01  8.50000000E-01  8.50000000E-01  8.50000000E-01
  8.50000000E-01  8.50000000E-01  8.50000000E-01  8.50000000E-01  8.50000000E-01
  8.50000000E-01  8.50000000E-01  8.50000000E-01  8.50000000E-01  8.50000000E-01
  8.50000000E-01  8.50000000E-01  8.50000000E-01  8.50000000E-01  8.50000000E-01
  8.50000000E-01  8.50000000E-01  8.50000000E-01  8.50000000E-01  8.50000000E-01
  8.50000000E-01  8.50000000E-01  8.50000000E-01  8.50000000E-01  8.50000000E-01
  8.50000000E-01  8.50000000E-01  8.50000000E-01  8.50000000E-01  8.50000000E-01
  8.50000000E-01  8.50000000E-01  8.50000000E-01  8.50000000E-01  8.50000000E-01
  8.50000000E-01  8.50000000E-01  8.50000000E-01  8.50000000E-01  8.50000000E-01
  8.50000000E-01  8.50000000E-01  8.50000000E-01  8.50000000E-01  8.50000000E-01
  8.50000000E-01  8.50000000E-01  8.50000000E-01  8.50000000E-01  8.50000000E-01
  8.50000000E-01  8.50000000E-01  8.50000000E-01  8.50000000E-01  8.50000000E-01
  8.50000000E-01  8.50000000E-01  8.50000000E-01  8.50000000E-01  8.50000000E-01
  8.50000000E-01  8.50000000E-01  8.50000000E-01  8.50000000E-01  8.50000000E-01
  8.50000000E-01  8.50000000E-01  8.50000000E-01  8.50000000E-01  8.50000000E-01
  8.50000000E-01  8.50000000E-01  8.50000000E-01  8.50000000E-01  8.50000000E-01
  8.50000000E-01  8.50000000E-01  8.50000000E-01  8.50000000E-01  8.50000000E-01
  8.50000000E-01  8.50000000E-01  8.50000000E-01  8.50000000E-01  8.50000000E-01
  8.50000000E-01  8.50000000E-01  8.50000000E-01  8.50000000E-01  8.50000000E-01
  8.50000000E-01  8.50000000E-01  8.50000000E-01  8.50000000E-01  8.50000000E-01
  8.50000000E-01  8.50000000E-01  8.50000000E-01  8.50000000E-01  8.50000000E-01
  8.50000000E-01  8.50000000E-01  8.50000000E-01  8.50000000E-01  8.50000000E-01
  8.50000000E-01  8.50000000E-01  8.50000000E-01  8.50000000E-01  8.50000000E-01
  8.50000000E-01  8.50000000E-01  8.50000000E-01  8.50000000E-01  8.50000000E-01
  8.50000000E-01  8.50000000E-01  8.50000000E-01  8.50000000E-01  8.50000000E-01
  8.50000000E-01  8.50000000E-01  8.50000000E-01  8.50000000E-01  8.50000000E-01
  8.50000000E-01  8.50000000E-01  8.50000000E-01  8.50000000E-01  8.50000000E-01
  8.50000000E-01  8.50000000E-01  8.50000000E-01  8.50000000E-01  8.50000000E-01
  8.50000000E-01  8.50000000E-01  8.50000000E-01  8.50000000E-01  8.50000000E-01
  8.50000000E-01  8.50000000E-01  8.50000000E-01  8.50000000E-01  8.50000000E-01
  8.50000000E-01  8.50000000E-01  8.50000000E-01  8.50000000E-01  8.50000000E-01
  8.50000000E-01  8.50000000E-01  8.50000000E-01  8.50000000E-01  8.50000000E-01
  8.50000000E-01  8.50000000E-01  8.50000000E-01  8.50000000E-01  8.50000000E-01
  8.50000000E-01  8.50000000E-01  8.50000000E-01  8.50000000E-01  8.50000000E-01
  8.50000000E-01  8.50000000E-01  8.50000000E-01  8.50000000E-01  8.50000000E-01
  8.50000000E-01  8.50000000E-01  8.50000000E-01  8.50000000E-01  8.50000000E-01
  8.50000000E-01  8.50000000E-01  8.50000000E-01  8.50000000E-01  8.50000000E-01
  8.50000000E-01  8.50000000E-01  8.50000000E-01  8.50000000E-01  8.50000000E-01
  8.50000000E-01  8.50000000E-01  8.50000000E-01  8.50000000E-01  8.50000000E-01
  8.50000000E-01  8.50000000E-01  8.50000000E-01  8.50000000E-01  8.50000000E-01
  8.50000000E-01  8.50000000E-01  8.50000000E-01  8.50000000E-01  8.50000000E-01
  8.50000000E-01  8.50000000E-01  8.50000000E-01  8.50000000E-01  8.50000000E-01
  8.50000000E-01  8.50000000E-01  8.50000000E-01  8.50000000E-01  8.50000000E-01
  8.50000000E-01  8.50000000E-01  8.50000000E-01  8.50000000E-01  8.50000000E-01
  8.50000000E-01  8.50000000E-01  8.50000000E-01  8.50000000E-01  8.50000000E-01
  8.50000000E-01  8.50000000E-01  8.50000000E-01  8.50000000E-01  8.50000000E-01
  8.50000000E-01  8.50000000E-01  8.50000000E-01  8.50000000E-01  8.50000000E-01
  8.50000000E-01  8.50000000E-01  8.50000000E-01  8.50000000E-01  8.50000000E-01
  8.50000000E-01  8.50000000E-01  8.50000000E-01  8.50000000E-01  8.50000000E-01
  8.50000000E-01  8.50000000E-01  8.50000000E-01  8.50000000E-01  8.50000000E-01
  8.50000000E-01  8.50000000E-01  8.50000000E-01  8.50000000E-01  8.50000000E-01
  8.50000000E-01  8.50000000E-01  8.50000000E-01  8.50000000E-01  8.50000000E-01
  8.50000000E-01  8.50000000E-01  8.50000000E-01  8.50000000E-01  8.50000000E-01
  8.50000000E-01  8.50000000E-01  8.50000000E-01  8.50000000E-01  8.50000000E-01
  8.50000000E-01  8.50000000E-01  8.50000000E-01  8.50000000E-01  8.50000000E-01
  8.50000000E-01  8.50000000E-01  8.50000000E-01  8.50000000E-01  8.50000000E-01
  8.50000000E-01  8.50000000E-01  8.50000000E-01  8.50000000E-01  8.50000000E-01
  8.50000000E-01  8.50000000E-01  8.50000000E-01  8.50000000E-01  8.50000000E-01
  8.50000000E-01  8.50000000E-01  8.50000000E-01  8.50000000E-01  8.50000000E-01
  8.50000000E-01  8.50000000E-01  8.50000000E-01  8.50000000E-01  8.50000000E-01
  8.50000000E-01  8.50000000E-01  8.50000000E-01  8.50000000E-01  8.50000000E-01
  8.50000000E-01  8.50000000E-01  8.50000000E-01  8.50000000E-01  8.50000000E-01
  8.50000000E-01  8.50000000E-01  8.50000000E-01  8.50000000E-01  8.50000000E-01
  8.50000000E-01  8.50000000E-01  8.50000000E-01  8.50000000E-01  8.50000000E-01
  8.50000000E-01  8.50000000E-01  8.50000000E-01  8.50000000E-01  8.50000000E-01
  8.50000000E-01  8.50000000E-01  8.50000000E-01  8.50000000E-01  8.50000000E-01
  8.50000000E-01  8.50000000E-01  8.50000000E-01  8.50000000E-01  8.50000000E-01
  8.50000000E-01  8.50000000E-01  8.50000000E-01  8.50000000E-01  8.50000000E-01
  8.50000000E-01  8.50000000E-01  8.50000000E-01  8.50000000E-01  8.50000000E-01
  8.50000000E-01  8.50000000E-01  8.50000000E-01  8.50000000E-01  8.50000000E-01
  8.50000000E-01  8.50000000E-01  8.50000000E-01  8.50000000E-01  8.50000000E-01
  8.50000000E-01  8.50000000E-01  8.50000000E-01  8.50000000E-01  8.50000000E-01
  8.50000000E-01  8.50000000E-01  8.50000000E-01  8.50000000E-01  8.50000000E-01
  8.50000000E-01  8.50000000E-01  8.50000000E-01  8.50000000E-01  8.50000000E-01
  8.50000000E-01  8.50000000E-01  8.50000000E-01  8.50000000E-01  8.50000000E-01
  8.50000000E-01  8.50000000E-01  8.50000000E-01  8.50000000E-01  8.50000000E-01
  8.50000000E-01  8.50000000E-01  8.50000000E-01  8.50000000E-01  8.50000000E-01
  8.50000000E-01  8.50000000E-01  8.50000000E-01  8.50000000E-01  8.50000000E-01
  8.50000000E-01  8.50000000E-01  8.50000000E-01  8.50000000E-01  8.50000000E-01
  8.50000000E-01  8.50000000E-01  8.50000000E-01  8.50000000E-01  8.50000000E-01
  8.50000000E-01  8.50000000E-01  8.50000000E-01  8.50000000E-01  8.50000000E-01
  8.50000000E-01  8.50000000E-01  8.50000000E-01  8.50000000E-01  8.50000000E-01
  8.50000000E-01  8.50000000E-01  8.50000000E-01  8.50000000E-01  8.50000000E-01
  8.50000000E-01  8.50000000E-01  8.50000000E-01  8.50000000E-01  8.50000000E-01
  8.50000000E-01  8.50000000E-01  8.50000000E-01  8.50000000E-01  8.50000000E-01
  8.50000000E-01  8.50000000E-01  8.50000000E-01  8.50000000E-01  8.50000000E-01
  8.50000000E-01  8.50000000E-01  8.50000000E-01  8.50000000E-01  8.50000000E-01
  8.50000000E-01  8.50000000E-01  8.50000000E-01  8.50000000E-01  8.50000000E-01
  8.50000000E-01  8.50000000E-01  8.50000000E-01  8.50000000E-01  8.50000000E-01
  8.50000000E-01  8.50000000E-01  8.50000000E-01  8.50000000E-01  8.50000000E-01
  8.50000000E-01  8.50000000E-01  8.50000000E-01  8.50000000E-01  8.50000000E-01
  8.50000000E-01  8.50000000E-01  8.50000000E-01  8.50000000E-01  8.50000000E-01
  8.50000000E-01  8.50000000E-01  8.50000000E-01  8.50000000E-01  8.50000000E-01
  8.50000000E-01  8.50000000E-01  8.50000000E-01  8.50000000E-01  8.50000000E-01
  8.50000000E-01  8.50000000E-01  8.50000000E-01  8.50000000E-01  8.50000000E-01
  8.50000000E-01  8.50000000E-01  8.50000000E-01  8.50000000E-01  8.50000000E-01
  8.50000000E-01  8.50000000E-01  8.50000000E-01  8.50000000E-01  8.50000000E-01
  8.50000000E-01  8.50000000E-01  8.50000000E-01  8.50000000E-01  8.50000000E-01
  8.50000000E-01  8.50000000E-01  8.50000000E-01  8.50000000E-01  8.50000000E-01
  8.50000000E-01  8.50000000E-01  8.50000000E-01  8.50000000E-01  8.50000000E-01
  8.50000000E-01  8.50000000E-01  8.50000000E-01  8.50000000E-01  8.50000000E-01
  8.50000000E-01  8.50000000E-01  8.50000000E-01  8.50000000E-01  8.50000000E-01
  8.50000000E-01  8.50000000E-01  8.50000000E-01  8.50000000E-01  8.50000000E-01
  8.50000000E-01  8.50000000E-01  8.50000000E-01  8.50000000E-01  8.50000000E-01
  8.50000000E-01  8.50000000E-01  8.50000000E-01  8.50000000E-01  8.50000000E-01
  8.50000000E-01  8.50000000E-01  8.50000000E-01  8.50000000E-01  8.50000000E-01
  8.50000000E-01  8.50000000E-01  8.50000000E-01  8.50000000E-01  8.50000000E-01
  8.50000000E-01  8.50000000E-01  8.50000000E-01  8.50000000E-01  8.50000000E-01
  8.50000000E-01  8.50000000E-01  8.50000000E-01  8.50000000E-01  8.50000000E-01
  8.50000000E-01  8.50000000E-01  8.50000000E-01  8.50000000E-01  8.50000000E-01
  8.50000000E-01  8.50000000E-01  8.50000000E-01  8.50000000E-01  8.50000000E-01
  8.50000000E-01  8.50000000E-01  8.50000000E-01  8.50000000E-01  8.50000000E-01
  8.50000000E-01  8.50000000E-01  8.50000000E-01  8.50000000E-01  8.50000000E-01
  8.50000000E-01  8.50000000E-01  8.50000000E-01  8.50000000E-01  8.50000000E-01
  8.50000000E-01  8.50000000E-01  8.50000000E-01  8.50000000E-01  8.50000000E-01
  8.50000000E-01  8.50000000E-01  8.50000000E-01  8.50000000E-01  8.50000000E-01
  8.50000000E-01  8.50000000E-01  8.50000000E-01  8.50000000E-01  8.50000000E-01
  8.50000000E-01  8.50000000E-01  8.50000000E-01  8.50000000E-01  8.50000000E-01
  8.50000000E-01  8.50000000E-01  8.50000000E-01  8.50000000E-01  8.50000000E-01
  8.50000000E-01  8.50000000E-01  8.50000000E-01  8.50000000E-01  8.50000000E-01
  8.50000000E-01  8.50000000E-01  8.50000000E-01  8.50000000E-01  8.50000000E-01
  8.50000000E-01  8.50000000E-01  8.50000000E-01  8.50000000E-01  8.50000000E-01
  8.50000000E-01  8.50000000E-01  8.50000000E-01  8.50000000E-01  8.50000000E-01
  8.50000000E-01  8.50000000E-01  8.50000000E-01  8.50000000E-01  8.50000000E-01
  8.50000000E-01  8.50000000E-01  8.50000000E-01  8.50000000E-01  8.50000000E-01
  8.50000000E-01  8.50000000E-01  8.50000000E-01  8.50000000E-01  8.50000000E-01
  8.50000000E-01  8.50000000E-01  8.50000000E-01  8.50000000E-01  8.50000000E-01
  8.50000000E-01  8.50000000E-01  8.50000000E-01  8.50000000E-01  8.50000000E-01
  8.50000000E-01  8.50000000E-01  8.50000000E-01  8.50000000E-01  8.50000000E-01
  8.50000000E-01  8.50000000E-01  8.50000000E-01  8.50000000E-01  8.50000000E-01
  8.50000000E-01  8.50000000E-01  8.50000000E-01  8.50000000E-01  8.50000000E-01
  8.50000000E-01  8.50000000E-01  8.50000000E-01  8.50000000E-01  8.50000000E-01
  8.50000000E-01  8.50000000E-01  8.50000000E-01  8.50000000E-01  8.50000000E-01
  8.50000000E-01  8.50000000E-01  8.50000000E-01  8.50000000E-01  8.50000000E-01
  8.50000000E-01  8.50000000E-01  8.50000000E-01  8.50000000E-01  8.50000000E-01
  8.50000000E-01  8.50000000E-01  8.50000000E-01  8.50000000E-01  8.50000000E-01
  8.50000000E-01  8.50000000E-01  8.50000000E-01  8.50000000E-01  8.50000000E-01
  8.50000000E-01  8.50000000E-01  8.50000000E-01  8.50000000E-01  8.50000000E-01
  8.50000000E-01  8.50000000E-01  8.50000000E-01  8.50000000E-01  8.50000000E-01
  8.50000000E-01  8.50000000E-01  8.50000000E-01  8.50000000E-01  8.50000000E-01
  8.50000000E-01  8.50000000E-01  8.50000000E-01  8.50000000E-01  8.50000000E-01
  8.50000000E-01  8.50000000E-01  8.50000000E-01  8.50000000E-01  8.50000000E-01
  8.50000000E-01  8.50000000E-01  8.50000000E-01  8.50000000E-01  8.50000000E-01
  8.50000000E-01  8.50000000E-01  8.50000000E-01  8.50000000E-01  8.50000000E-01
  8.50000000E-01  8.50000000E-01  8.50000000E-01  8.50000000E-01  8.50000000E-01
  8.50000000E-01  8.50000000E-01  8.50000000E-01  8.50000000E-01  8.50000000E-01
  8.50000000E-01  8.50000000E-01  8.50000000E-01  8.50000000E-01  8.50000000E-01
  8.50000000E-01  8.50000000E-01  8.50000000E-01  8.50000000E-01  8.50000000E-01
  8.50000000E-01  8.50000000E-01  8.50000000E-01  8.50000000E-01  8.50000000E-01
  8.50000000E-01  8.50000000E-01  8.50000000E-01  8.50000000E-01  8.50000000E-01
  8.50000000E-01  8.50000000E-01  8.50000000E-01  8.50000000E-01  8.50000000E-01
  8.50000000E-01  8.50000000E-01  8.50000000E-01  8.50000000E-01  8.50000000E-01
  8.50000000E-01  8.50000000E-01  8.50000000E-01  8.50000000E-01  8.50000000E-01
  8.50000000E-01  8.50000000E-01  8.50000000E-01  8.50000000E-01  8.50000000E-01
  8.50000000E-01  8.50000000E-01  8.50000000E-01  8.50000000E-01  8.50000000E-01
  8.50000000E-01  8.50000000E-01  8.50000000E-01  8.50000000E-01  8.50000000E-01
  8.50000000E-01  8.50000000E-01  8.50000000E-01  8.50000000E-01  8.50000000E-01
  8.50000000E-01  8.50000000E-01  8.50000000E-01  8.50000000E-01  8.50000000E-01
  8.50000000E-01  8.50000000E-01  8.50000000E-01  8.50000000E-01  8.50000000E-01
  8.50000000E-01  8.50000000E-01  8.50000000E-01  8.50000000E-01  8.50000000E-01
  8.50000000E-01  8.50000000E-01  8.50000000E-01  8.50000000E-01  8.50000000E-01
  8.50000000E-01  8.50000000E-01  8.50000000E-01  8.50000000E-01  8.50000000E-01
  8.50000000E-01  8.50000000E-01  8.50000000E-01  8.50000000E-01  8.50000000E-01
  8.50000000E-01  8.50000000E-01  8.50000000E-01  8.50000000E-01  8.50000000E-01
  8.50000000E-01  8.50000000E-01  8.50000000E-01  8.50000000E-01  8.50000000E-01
  8.50000000E-01  8.50000000E-01  8.50000000E-01  8.50000000E-01  8.50000000E-01
  8.50000000E-01  8.50000000E-01  8.50000000E-01  8.50000000E-01  8.50000000E-01
  8.50000000E-01  8.50000000E-01  8.50000000E-01  8.50000000E-01  8.50000000E-01
  8.50000000E-01  8.50000000E-01  8.50000000E-01  8.50000000E-01  8.50000000E-01
  8.50000000E-01  8.50000000E-01  8.50000000E-01  8.50000000E-01  8.50000000E-01
  8.50000000E-01  8.50000000E-01  8.50000000E-01  8.50000000E-01  8.50000000E-01
  8.50000000E-01  8.50000000E-01  8.50000000E-01  8.50000000E-01  8.50000000E-01
  8.50000000E-01  8.50000000E-01  8.50000000E-01  8.50000000E-01  8.50000000E-01
  8.50000000E-01  8.50000000E-01  8.50000000E-01  8.50000000E-01  8.50000000E-01
  8.50000000E-01  8.50000000E-01  8.50000000E-01  8.50000000E-01  8.50000000E-01
  8.50000000E-01  8.50000000E-01  8.50000000E-01  8.50000000E-01  8.50000000E-01
  8.50000000E-01  8.50000000E-01  8.50000000E-01  8.50000000E-01  8.50000000E-01
  8.50000000E-01  8.50000000E-01  8.50000000E-01  8.50000000E-01  8.50000000E-01
  8.50000000E-01  8.50000000E-01  8.50000000E-01  8.50000000E-01  8.50000000E-01
  8.50000000E-01  8.50000000E-01  8.50000000E-01  8.50000000E-01  8.50000000E-01
  8.50000000E-01  8.50000000E-01  8.50000000E-01  8.50000000E-01  8.50000000E-01
  8.50000000E-01  8.50000000E-01  8.50000000E-01  8.50000000E-01  8.50000000E-01
  8.50000000E-01  8.50000000E-01  8.50000000E-01  8.50000000E-01  8.50000000E-01
  8.50000000E-01  8.50000000E-01  8.50000000E-01  8.50000000E-01  8.50000000E-01
  8.50000000E-01  8.50000000E-01  8.50000000E-01  8.50000000E-01  8.50000000E-01
  8.50000000E-01  8.50000000E-01  8.50000000E-01  8.50000000E-01  8.50000000E-01
  8.50000000E-01  8.50000000E-01  8.50000000E-01  8.50000000E-01  8.50000000E-01
  8.50000000E-01  8.50000000E-01  8.50000000E-01  8.50000000E-01  8.50000000E-01
  8.50000000E-01  8.50000000E-01  8.50000000E-01  8.50000000E-01  8.50000000E-01
  8.50000000E-01  8.50000000E-01  8.50000000E-01  8.50000000E-01  8.50000000E-01
  8.50000000E-01  8.50000000E-01  8.50000000E-01  8.50000000E-01  8.50000000E-01
  8.50000000E-01  8.50000000E-01  8.50000000E-01  8.50000000E-01  8.50000000E-01
  8.50000000E-01  8.50000000E-01  8.50000000E-01  8.50000000E-01  8.50000000E-01
  8.50000000E-01  8.50000000E-01  8.50000000E-01  8.50000000E-01  8.50000000E-01
  8.50000000E-01  8.50000000E-01  8.50000000E-01  8.50000000E-01  8.50000000E-01
  8.50000000E-01  8.50000000E-01  8.50000000E-01  8.50000000E-01  8.50000000E-01
  8.50000000E-01  8.50000000E-01  8.50000000E-01  8.50000000E-01  8.50000000E-01
  8.50000000E-01  8.50000000E-01  8.50000000E-01  8.50000000E-01  8.50000000E-01
  8.50000000E-01  8.50000000E-01  8.50000000E-01  8.50000000E-01  8.50000000E-01
  8.50000000E-01  8.50000000E-01  8.50000000E-01  8.50000000E-01  8.50000000E-01
  8.50000000E-01  8.50000000E-01  8.50000000E-01  8.50000000E-01  8.50000000E-01
  8.50000000E-01  8.50000000E-01  8.50000000E-01  8.50000000E-01  8.50000000E-01
  8.50000000E-01  8.50000000E-01  8.50000000E-01  8.50000000E-01  8.50000000E-01
  8.50000000E-01  8.50000000E-01  8.50000000E-01  8.50000000E-01  8.50000000E-01
  8.50000000E-01  8.50000000E-01  8.50000000E-01  8.50000000E-01  8.50000000E-01
  8.50000000E-01  8.50000000E-01  8.50000000E-01  8.50000000E-01  8.50000000E-01
  8.50000000E-01  8.50000000E-01  8.50000000E-01  8.50000000E-01  8.50000000E-01
  8.50000000E-01  8.50000000E-01  8.50000000E-01  8.50000000E-01  8.50000000E-01
  8.50000000E-01  8.50000000E-01  8.50000000E-01  8.50000000E-01  8.50000000E-01
  8.50000000E-01  8.50000000E-01  8.50000000E-01  8.50000000E-01  8.50000000E-01
  8.50000000E-01  8.50000000E-01  8.50000000E-01  8.50000000E-01  8.50000000E-01
  8.50000000E-01  8.50000000E-01  8.50000000E-01  8.50000000E-01  8.50000000E-01
  8.50000000E-01  8.50000000E-01  8.50000000E-01  8.50000000E-01  8.50000000E-01
  8.50000000E-01  8.50000000E-01  8.50000000E-01  8.50000000E-01  8.50000000E-01
  8.50000000E-01  8.50000000E-01  8.50000000E-01  8.50000000E-01  8.50000000E-01
  8.50000000E-01  8.50000000E-01  8.50000000E-01  8.50000000E-01  8.50000000E-01
  8.50000000E-01  8.50000000E-01  8.50000000E-01  8.50000000E-01  8.50000000E-01
  8.50000000E-01  8.50000000E-01  8.50000000E-01  8.50000000E-01  8.50000000E-01
  8.50000000E-01  8.50000000E-01  8.50000000E-01  8.50000000E-01  8.50000000E-01
  8.50000000E-01  8.50000000E-01  8.50000000E-01  8.50000000E-01  8.50000000E-01
  8.50000000E-01  8.50000000E-01  8.50000000E-01  8.50000000E-01  8.50000000E-01
  8.50000000E-01  8.50000000E-01  8.50000000E-01  8.50000000E-01  8.50000000E-01
  8.50000000E-01  8.50000000E-01  8.50000000E-01  8.50000000E-01  8.50000000E-01
  8.50000000E-01  8.50000000E-01  8.50000000E-01  8.50000000E-01  8.50000000E-01
  8.50000000E-01  8.50000000E-01  8.50000000E-01  8.50000000E-01  8.50000000E-01
  8.50000000E-01  8.50000000E-01  8.50000000E-01  8.50000000E-01  8.50000000E-01
  8.50000000E-01  8.50000000E-01  8.50000000E-01  8.50000000E-01  8.50000000E-01
  8.50000000E-01  8.50000000E-01  8.50000000E-01  8.50000000E-01  8.50000000E-01
  8.50000000E-01  8.50000000E-01  8.50000000E-01  8.50000000E-01  8.50000000E-01
  8.50000000E-01  8.50000000E-01  8.50000000E-01  8.50000000E-01  8.50000000E-01
  8.50000000E-01  8.50000000E-01  8.50000000E-01  8.50000000E-01  8.50000000E-01
  8.50000000E-01  8.50000000E-01  8.50000000E-01  8.50000000E-01  8.50000000E-01
  8.50000000E-01  8.50000000E-01  8.50000000E-01  8.50000000E-01  8.50000000E-01
  8.50000000E-01  8.50000000E-01  8.50000000E-01  8.50000000E-01  8.50000000E-01
  8.50000000E-01  8.50000000E-01  8.50000000E-01  8.50000000E-01  8.50000000E-01
  8.50000000E-01  8.50000000E-01  8.50000000E-01  8.50000000E-01  8.50000000E-01
  8.50000000E-01  8.50000000E-01  8.50000000E-01  8.50000000E-01  8.50000000E-01
  8.50000000E-01  8.50000000E-01  8.50000000E-01  8.50000000E-01  8.50000000E-01
  8.50000000E-01  8.50000000E-01  8.50000000E-01  8.50000000E-01  8.50000000E-01
  8.50000000E-01  8.50000000E-01  8.50000000E-01  8.50000000E-01  8.50000000E-01
  8.50000000E-01  8.50000000E-01  8.50000000E-01  8.50000000E-01  8.50000000E-01
  8.50000000E-01  8.50000000E-01  8.50000000E-01  8.50000000E-01  8.50000000E-01
  8.50000000E-01  8.50000000E-01  8.50000000E-01  8.50000000E-01  8.50000000E-01
  8.50000000E-01  8.50000000E-01  8.50000000E-01  8.50000000E-01  8.50000000E-01
  8.50000000E-01  8.50000000E-01  8.50000000E-01  8.50000000E-01  8.50000000E-01
  8.50000000E-01  8.50000000E-01  8.50000000E-01  8.50000000E-01  8.50000000E-01
  8.50000000E-01  8.50000000E-01  8.50000000E-01  8.50000000E-01  8.50000000E-01
  8.50000000E-01  8.50000000E-01  8.50000000E-01  8.50000000E-01  8.50000000E-01
  8.50000000E-01  8.50000000E-01  8.50000000E-01  8.50000000E-01  8.50000000E-01
  8.50000000E-01  8.50000000E-01  8.50000000E-01  8.50000000E-01  8.50000000E-01
  8.50000000E-01  8.50000000E-01  8.50000000E-01  8.50000000E-01  8.50000000E-01
  8.50000000E-01  8.50000000E-01  8.50000000E-01  8.50000000E-01  8.50000000E-01
  8.50000000E-01  8.50000000E-01  8.50000000E-01  8.50000000E-01  8.50000000E-01
  8.50000000E-01  8.50000000E-01  8.50000000E-01  8.50000000E-01  8.50000000E-01
  8.50000000E-01  8.50000000E-01  8.50000000E-01  8.50000000E-01  8.50000000E-01
  8.50000000E-01  8.50000000E-01  8.50000000E-01  8.50000000E-01  8.50000000E-01
  8.50000000E-01  8.50000000E-01  8.50000000E-01  8.50000000E-01  8.50000000E-01
  8.50000000E-01  8.50000000E-01  8.50000000E-01  8.50000000E-01  8.50000000E-01
  8.50000000E-01  8.50000000E-01  8.50000000E-01  8.50000000E-01  8.50000000E-01
  8.50000000E-01  8.50000000E-01  8.50000000E-01  8.50000000E-01  8.50000000E-01
  8.50000000E-01  8.50000000E-01  8.50000000E-01  8.50000000E-01  8.50000000E-01
  8.50000000E-01  8.50000000E-01  8.50000000E-01  8.50000000E-01  8.50000000E-01
  8.50000000E-01  8.50000000E-01  8.50000000E-01  8.50000000E-01  8.50000000E-01
  8.50000000E-01  8.50000000E-01  8.50000000E-01  8.50000000E-01  8.50000000E-01
  8.50000000E-01  8.50000000E-01  8.50000000E-01  8.50000000E-01  8.50000000E-01
  8.50000000E-01  8.50000000E-01  8.50000000E-01  8.50000000E-01  8.50000000E-01
  8.50000000E-01  8.50000000E-01  8.50000000E-01  8.50000000E-01  8.50000000E-01
  8.50000000E-01  8.50000000E-01  8.50000000E-01  8.50000000E-01  8.50000000E-01
  8.50000000E-01  8.50000000E-01  8.50000000E-01  8.50000000E-01  8.50000000E-01
  8.50000000E-01  8.50000000E-01  8.50000000E-01  8.50000000E-01  8.50000000E-01
  8.50000000E-01  8.50000000E-01  8.50000000E-01  8.50000000E-01  8.50000000E-01
  8.50000000E-01  8.50000000E-01  8.50000000E-01  8.50000000E-01  8.50000000E-01
  8.50000000E-01  8.50000000E-01  8.50000000E-01  8.50000000E-01  8.50000000E-01
  8.50000000E-01  8.50000000E-01  8.50000000E-01  8.50000000E-01  8.50000000E-01
  8.50000000E-01  8.50000000E-01  8.50000000E-01  8.50000000E-01  8.50000000E-01
  8.50000000E-01  8.50000000E-01  8.50000000E-01  8.50000000E-01  8.50000000E-01
  8.50000000E-01  8.50000000E-01  8.50000000E-01  8.50000000E-01  8.50000000E-01
  8.50000000E-01  8.50000000E-01  8.50000000E-01  8.50000000E-01  8.50000000E-01
  8.50000000E-01  8.50000000E-01  8.50000000E-01  8.50000000E-01  8.50000000E-01
  8.50000000E-01  8.50000000E-01  8.50000000E-01  8.50000000E-01  8.50000000E-01
  8.50000000E-01  8.50000000E-01  8.50000000E-01  8.50000000E-01  8.50000000E-01
  8.50000000E-01  8.50000000E-01  8.50000000E-01  8.50000000E-01  8.50000000E-01
  8.50000000E-01  8.50000000E-01  8.50000000E-01  8.50000000E-01  8.50000000E-01
  8.50000000E-01  8.50000000E-01  8.50000000E-01  8.50000000E-01  8.50000000E-01
  8.50000000E-01  8.50000000E-01  8.50000000E-01  8.50000000E-01  8.50000000E-01
  8.50000000E-01  8.50000000E-01  8.50000000E-01  8.50000000E-01  8.50000000E-01
  8.50000000E-01  8.50000000E-01  8.50000000E-01  8.50000000E-01  8.50000000E-01
  8.50000000E-01  8.50000000E-01  8.50000000E-01  8.50000000E-01  8.50000000E-01
  8.50000000E-01  8.50000000E-01  8.50000000E-01  8.50000000E-01  8.50000000E-01
  8.50000000E-01  8.50000000E-01  8.50000000E-01  8.50000000E-01  8.50000000E-01
  8.50000000E-01  8.50000000E-01  8.50000000E-01  8.50000000E-01  8.50000000E-01
  8.50000000E-01  8.50000000E-01  8.50000000E-01  8.50000000E-01  8.50000000E-01
  8.50000000E-01  8.50000000E-01  8.50000000E-01  8.50000000E-01  8.50000000E-01
  8.50000000E-01  8.50000000E-01  8.50000000E-01  8.50000000E-01  8.50000000E-01
  8.50000000E-01  8.50000000E-01  8.50000000E-01  8.50000000E-01  8.50000000E-01
  8.50000000E-01  8.50000000E-01  8.50000000E-01  8.50000000E-01  8.50000000E-01
  8.50000000E-01  8.50000000E-01  8.50000000E-01  8.50000000E-01  8.50000000E-01
  8.50000000E-01  8.50000000E-01  8.50000000E-01  8.50000000E-01  8.50000000E-01
  8.50000000E-01  8.50000000E-01  8.50000000E-01  8.50000000E-01  8.50000000E-01
  8.50000000E-01  8.50000000E-01  8.50000000E-01  8.50000000E-01  8.50000000E-01
  8.50000000E-01  8.50000000E-01  8.50000000E-01  8.50000000E-01  8.50000000E-01
  8.50000000E-01  8.50000000E-01  8.50000000E-01  8.50000000E-01  8.50000000E-01
  8.50000000E-01  8.50000000E-01  8.50000000E-01  8.50000000E-01  8.50000000E-01
  8.50000000E-01  8.50000000E-01  8.50000000E-01  8.50000000E-01  8.50000000E-01
  8.50000000E-01  8.50000000E-01  8.50000000E-01  8.50000000E-01  8.50000000E-01
  8.50000000E-01  8.50000000E-01  8.50000000E-01  8.50000000E-01  8.50000000E-01
  8.50000000E-01  8.50000000E-01  8.50000000E-01  8.50000000E-01  8.50000000E-01
  8.50000000E-01  8.50000000E-01  8.50000000E-01  8.50000000E-01  8.50000000E-01
  8.50000000E-01  8.50000000E-01  8.50000000E-01  8.50000000E-01  8.50000000E-01
  8.50000000E-01  8.50000000E-01  8.50000000E-01  8.50000000E-01  8.50000000E-01
  8.50000000E-01  8.50000000E-01  8.50000000E-01  8.50000000E-01  8.50000000E-01
  8.50000000E-01  8.50000000E-01  8.50000000E-01  8.50000000E-01  8.50000000E-01
  8.50000000E-01  8.50000000E-01  8.50000000E-01  8.50000000E-01  8.50000000E-01
  8.50000000E-01  8.50000000E-01  8.50000000E-01  8.50000000E-01  8.50000000E-01
  8.50000000E-01  8.50000000E-01  8.50000000E-01  8.50000000E-01  8.50000000E-01
  8.50000000E-01  8.50000000E-01  8.50000000E-01  8.50000000E-01  8.50000000E-01
  8.50000000E-01  8.50000000E-01  8.50000000E-01  8.50000000E-01  8.50000000E-01
  8.50000000E-01  8.50000000E-01  8.50000000E-01  8.50000000E-01  8.50000000E-01
  8.50000000E-01  8.50000000E-01  8.50000000E-01  8.50000000E-01  8.50000000E-01
  8.50000000E-01  8.50000000E-01  8.50000000E-01  8.50000000E-01  8.50000000E-01
  8.50000000E-01  8.50000000E-01  8.50000000E-01  8.50000000E-01  8.50000000E-01
  8.50000000E-01  8.50000000E-01  8.50000000E-01  8.50000000E-01  8.50000000E-01
  8.50000000E-01  8.50000000E-01  8.50000000E-01  8.50000000E-01  8.50000000E-01
  8.50000000E-01  8.50000000E-01  8.50000000E-01  8.50000000E-01  8.50000000E-01
  8.50000000E-01  8.50000000E-01  8.50000000E-01  8.50000000E-01  8.50000000E-01
  8.50000000E-01  8.50000000E-01  8.50000000E-01  8.50000000E-01  8.50000000E-01
  8.50000000E-01  8.50000000E-01  8.50000000E-01  8.50000000E-01  8.50000000E-01
  8.50000000E-01  8.50000000E-01  8.50000000E-01  8.50000000E-01  8.50000000E-01
  8.50000000E-01  8.50000000E-01  8.50000000E-01  8.50000000E-01  8.50000000E-01
  8.50000000E-01  8.50000000E-01  8.50000000E-01  8.50000000E-01  8.50000000E-01
  8.50000000E-01  8.50000000E-01  8.50000000E-01  8.50000000E-01  8.50000000E-01
  8.50000000E-01  8.50000000E-01  8.50000000E-01  8.50000000E-01  8.50000000E-01
  8.50000000E-01  8.50000000E-01  8.50000000E-01  8.50000000E-01  8.50000000E-01
  8.50000000E-01  8.50000000E-01  8.50000000E-01  8.50000000E-01  8.50000000E-01
  8.50000000E-01  8.50000000E-01  8.50000000E-01  8.50000000E-01  8.50000000E-01
  8.50000000E-01  8.50000000E-01  8.50000000E-01  8.50000000E-01  8.50000000E-01
  8.50000000E-01  8.50000000E-01  8.50000000E-01  8.50000000E-01  8.50000000E-01
  8.50000000E-01  8.50000000E-01  8.50000000E-01  8.50000000E-01  8.50000000E-01
  8.50000000E-01  8.50000000E-01  8.50000000E-01  8.50000000E-01  8.50000000E-01
  8.50000000E-01  8.50000000E-01  8.50000000E-01  8.50000000E-01  8.50000000E-01
  8.50000000E-01  8.50000000E-01  8.50000000E-01  8.50000000E-01  8.50000000E-01
  8.50000000E-01  8.50000000E-01  8.50000000E-01  8.50000000E-01  8.50000000E-01
  8.50000000E-01  8.50000000E-01  8.50000000E-01  8.50000000E-01  8.50000000E-01
  8.50000000E-01  8.50000000E-01  8.50000000E-01  8.50000000E-01  8.50000000E-01
  8.50000000E-01  8.50000000E-01  8.50000000E-01  8.50000000E-01  8.50000000E-01
  8.50000000E-01  8.50000000E-01  8.50000000E-01  8.50000000E-01  8.50000000E-01
  8.50000000E-01  8.50000000E-01  8.50000000E-01  8.50000000E-01  8.50000000E-01
  8.50000000E-01  8.50000000E-01  8.50000000E-01  8.50000000E-01  8.50000000E-01
  8.50000000E-01  8.50000000E-01  8.50000000E-01  8.50000000E-01  8.50000000E-01
  8.50000000E-01  8.50000000E-01  8.50000000E-01  8.50000000E-01  8.50000000E-01
  8.50000000E-01  8.50000000E-01  8.50000000E-01  8.50000000E-01  8.50000000E-01
  8.50000000E-01  8.50000000E-01  8.50000000E-01  8.50000000E-01  8.50000000E-01
  8.50000000E-01  8.50000000E-01  8.50000000E-01  8.50000000E-01  8.50000000E-01
  8.50000000E-01  8.50000000E-01  8.50000000E-01  8.50000000E-01  8.50000000E-01
  8.50000000E-01  8.50000000E-01  8.50000000E-01  8.50000000E-01  8.50000000E-01
  8.50000000E-01  8.50000000E-01  8.50000000E-01  8.50000000E-01  8.50000000E-01
  8.50000000E-01  8.50000000E-01  8.50000000E-01  8.50000000E-01  8.50000000E-01
  8.50000000E-01  8.50000000E-01  8.50000000E-01  8.50000000E-01  8.50000000E-01
  8.50000000E-01  8.50000000E-01  8.50000000E-01  8.50000000E-01  8.50000000E-01
  8.50000000E-01  8.50000000E-01  8.50000000E-01  8.50000000E-01  8.50000000E-01
  8.50000000E-01  8.50000000E-01  8.50000000E-01  8.50000000E-01  8.50000000E-01
  8.50000000E-01  8.50000000E-01  8.50000000E-01  8.50000000E-01  8.50000000E-01
  8.50000000E-01  8.50000000E-01  8.50000000E-01  8.50000000E-01  8.50000000E-01
  8.50000000E-01  8.50000000E-01  8.50000000E-01  8.50000000E-01  8.50000000E-01
  8.50000000E-01  8.50000000E-01  8.50000000E-01  8.50000000E-01  8.50000000E-01
  8.50000000E-01  8.50000000E-01  8.50000000E-01  8.50000000E-01  8.50000000E-01
  8.50000000E-01  8.50000000E-01  8.50000000E-01  8.50000000E-01  8.50000000E-01
  8.50000000E-01  8.50000000E-01  8.50000000E-01  8.50000000E-01  8.50000000E-01
  8.50000000E-01  8.50000000E-01  8.50000000E-01  8.50000000E-01  8.50000000E-01
  8.50000000E-01  8.50000000E-01  8.50000000E-01  8.50000000E-01  8.50000000E-01
  8.50000000E-01  8.50000000E-01  8.50000000E-01  8.50000000E-01  8.50000000E-01
  8.50000000E-01  8.50000000E-01  8.50000000E-01  8.50000000E-01  8.50000000E-01
  8.50000000E-01  8.50000000E-01  8.50000000E-01  8.50000000E-01  8.50000000E-01
  8.50000000E-01  8.50000000E-01  8.50000000E-01  8.50000000E-01  8.50000000E-01
  8.50000000E-01  8.50000000E-01  8.50000000E-01  8.50000000E-01  8.50000000E-01
  8.50000000E-01  8.50000000E-01  8.50000000E-01  8.50000000E-01  8.50000000E-01
  8.50000000E-01  8.50000000E-01  8.50000000E-01  8.50000000E-01  8.50000000E-01
  8.50000000E-01  8.50000000E-01  8.50000000E-01  8.50000000E-01  8.50000000E-01
  8.50000000E-01  8.50000000E-01  8.50000000E-01  8.50000000E-01  8.50000000E-01
  8.50000000E-01  8.50000000E-01  8.50000000E-01  8.50000000E-01  8.50000000E-01
  8.50000000E-01  8.50000000E-01  8.50000000E-01  8.50000000E-01  8.50000000E-01
  8.50000000E-01  8.50000000E-01  8.50000000E-01  8.50000000E-01  8.50000000E-01
  8.50000000E-01  8.50000000E-01  8.50000000E-01  8.50000000E-01  8.50000000E-01
  8.50000000E-01  8.50000000E-01  8.50000000E-01  8.50000000E-01  8.50000000E-01
  8.50000000E-01  8.50000000E-01  8.50000000E-01  8.50000000E-01  8.50000000E-01
  8.50000000E-01  8.50000000E-01  8.50000000E-01  8.50000000E-01  8.50000000E-01
  8.50000000E-01  8.50000000E-01  8.50000000E-01  8.50000000E-01  8.50000000E-01
  8.50000000E-01  8.50000000E-01  8.50000000E-01  8.50000000E-01  8.50000000E-01
  8.50000000E-01  8.50000000E-01  8.50000000E-01  8.50000000E-01  8.50000000E-01
  8.50000000E-01  8.50000000E-01  8.50000000E-01  8.50000000E-01  8.50000000E-01
  8.50000000E-01  8.50000000E-01  8.50000000E-01  8.50000000E-01  8.50000000E-01
  8.50000000E-01  8.50000000E-01  8.50000000E-01  8.50000000E-01  8.50000000E-01
  8.50000000E-01  8.50000000E-01  8.50000000E-01  8.50000000E-01  8.50000000E-01
  8.50000000E-01  8.50000000E-01  8.50000000E-01  8.50000000E-01  8.50000000E-01
  8.50000000E-01  8.50000000E-01  8.50000000E-01  8.50000000E-01  8.50000000E-01
  8.50000000E-01  8.50000000E-01  8.50000000E-01  8.50000000E-01  8.50000000E-01
  8.50000000E-01  8.50000000E-01  8.50000000E-01  8.50000000E-01  8.50000000E-01
  8.50000000E-01  8.50000000E-01  8.50000000E-01  8.50000000E-01  8.50000000E-01
  8.50000000E-01  8.50000000E-01  8.50000000E-01  8.50000000E-01  8.50000000E-01
  8.50000000E-01  8.50000000E-01  8.50000000E-01  8.50000000E-01  8.50000000E-01
  8.50000000E-01  8.50000000E-01  8.50000000E-01  8.50000000E-01  8.50000000E-01
  8.50000000E-01  8.50000000E-01  8.50000000E-01  8.50000000E-01  8.50000000E-01
  8.50000000E-01  8.50000000E-01  8.50000000E-01  8.50000000E-01  8.50000000E-01
  8.50000000E-01  8.50000000E-01  8.50000000E-01  8.50000000E-01  8.50000000E-01
  8.50000000E-01  8.50000000E-01  8.50000000E-01  8.50000000E-01  8.50000000E-01
  8.50000000E-01  8.50000000E-01  8.50000000E-01  8.50000000E-01  8.50000000E-01
  8.50000000E-01  8.50000000E-01  8.50000000E-01  8.50000000E-01  8.50000000E-01
  8.50000000E-01  8.50000000E-01  8.50000000E-01  8.50000000E-01  8.50000000E-01
  8.50000000E-01  8.50000000E-01  8.50000000E-01  8.50000000E-01  8.50000000E-01
  8.50000000E-01  8.50000000E-01  8.50000000E-01  8.50000000E-01  8.50000000E-01
  8.50000000E-01  8.50000000E-01  8.50000000E-01  8.50000000E-01  8.50000000E-01
  8.50000000E-01  8.50000000E-01  8.50000000E-01  8.50000000E-01  8.50000000E-01
  8.50000000E-01  8.50000000E-01  8.50000000E-01  8.50000000E-01  8.50000000E-01
  8.50000000E-01  8.50000000E-01  8.50000000E-01  8.50000000E-01  8.50000000E-01
  8.50000000E-01  8.50000000E-01  8.50000000E-01  8.50000000E-01  8.50000000E-01
  8.50000000E-01  8.50000000E-01  8.50000000E-01  8.50000000E-01  8.50000000E-01
  8.50000000E-01  8.50000000E-01  8.50000000E-01  8.50000000E-01  8.50000000E-01
  8.50000000E-01  8.50000000E-01  8.50000000E-01  8.50000000E-01  8.50000000E-01
  8.50000000E-01  8.50000000E-01  8.50000000E-01  8.50000000E-01  8.50000000E-01
  8.50000000E-01  8.50000000E-01  8.50000000E-01  8.50000000E-01  8.50000000E-01
  8.50000000E-01  8.50000000E-01  8.50000000E-01  8.50000000E-01  8.50000000E-01
  8.50000000E-01  8.50000000E-01  8.50000000E-01  8.50000000E-01  8.50000000E-01
  8.50000000E-01  8.50000000E-01  8.50000000E-01  8.50000000E-01  8.50000000E-01
  8.50000000E-01  8.50000000E-01  8.50000000E-01  8.50000000E-01  8.50000000E-01
  8.50000000E-01  8.50000000E-01  8.50000000E-01  8.50000000E-01  8.50000000E-01
  8.50000000E-01  8.50000000E-01  8.50000000E-01  8.50000000E-01  8.50000000E-01
  8.50000000E-01  8.50000000E-01  8.50000000E-01  8.50000000E-01  8.50000000E-01
  8.50000000E-01  8.50000000E-01  8.50000000E-01  8.50000000E-01  8.50000000E-01
  8.50000000E-01  8.50000000E-01  8.50000000E-01  8.50000000E-01  8.50000000E-01
  8.50000000E-01  8.50000000E-01  8.50000000E-01  8.50000000E-01  8.50000000E-01
  8.50000000E-01  8.50000000E-01  8.50000000E-01  8.50000000E-01  8.50000000E-01
  8.50000000E-01  8.50000000E-01  8.50000000E-01  8.50000000E-01  8.50000000E-01
  8.50000000E-01  8.50000000E-01  8.50000000E-01  8.50000000E-01  8.50000000E-01
  8.50000000E-01  8.50000000E-01  8.50000000E-01  8.50000000E-01  8.50000000E-01
  8.50000000E-01  8.50000000E-01  8.50000000E-01  8.50000000E-01  8.50000000E-01
  8.50000000E-01  8.50000000E-01  8.50000000E-01  8.50000000E-01  8.50000000E-01
  8.50000000E-01  8.50000000E-01  8.50000000E-01  8.50000000E-01  8.50000000E-01
  8.50000000E-01  8.50000000E-01  8.50000000E-01  8.50000000E-01  8.50000000E-01
  8.50000000E-01  8.50000000E-01  8.50000000E-01  8.50000000E-01  8.50000000E-01
  8.50000000E-01  8.50000000E-01  8.50000000E-01  8.50000000E-01  8.50000000E-01
  8.50000000E-01  8.50000000E-01  8.50000000E-01  8.50000000E-01  8.50000000E-01
  8.50000000E-01  8.50000000E-01  8.50000000E-01  8.50000000E-01  8.50000000E-01
  8.50000000E-01  8.50000000E-01  8.50000000E-01  8.50000000E-01  8.50000000E-01
  8.50000000E-01  8.50000000E-01  8.50000000E-01  8.50000000E-01  8.50000000E-01
  8.50000000E-01  8.50000000E-01  8.50000000E-01  8.50000000E-01  8.50000000E-01
  8.50000000E-01  8.50000000E-01  8.50000000E-01  8.50000000E-01  8.50000000E-01
  8.50000000E-01  8.50000000E-01  8.50000000E-01  8.50000000E-01  8.50000000E-01
  8.50000000E-01  8.50000000E-01  8.50000000E-01  8.50000000E-01  8.50000000E-01
  8.50000000E-01  8.50000000E-01  8.50000000E-01  8.50000000E-01  8.50000000E-01
  8.50000000E-01  8.50000000E-01  8.50000000E-01  8.50000000E-01  8.50000000E-01
  8.50000000E-01  8.50000000E-01  8.50000000E-01  8.50000000E-01  8.50000000E-01
  8.50000000E-01  8.50000000E-01  8.50000000E-01  8.50000000E-01  8.50000000E-01
  8.50000000E-01  8.50000000E-01  8.50000000E-01  8.50000000E-01  8.50000000E-01
  8.50000000E-01  8.50000000E-01  8.50000000E-01  8.50000000E-01  8.50000000E-01
  8.50000000E-01  8.50000000E-01  8.50000000E-01  8.50000000E-01  8.50000000E-01
  8.50000000E-01  8.50000000E-01  8.50000000E-01  8.50000000E-01  8.50000000E-01
  8.50000000E-01  8.50000000E-01  8.50000000E-01  8.50000000E-01  8.50000000E-01
  8.50000000E-01  8.50000000E-01  8.50000000E-01  8.50000000E-01  8.50000000E-01
  8.50000000E-01  8.50000000E-01  8.50000000E-01  8.50000000E-01  8.50000000E-01
  8.50000000E-01  8.50000000E-01  8.50000000E-01  8.50000000E-01  8.50000000E-01
  8.50000000E-01  8.50000000E-01  8.50000000E-01  8.50000000E-01  8.50000000E-01
  8.50000000E-01  8.50000000E-01  8.50000000E-01  8.50000000E-01  8.50000000E-01
  8.50000000E-01  8.50000000E-01  8.50000000E-01  8.50000000E-01  8.50000000E-01
  8.50000000E-01  8.50000000E-01  8.50000000E-01  8.50000000E-01  8.50000000E-01
  8.50000000E-01  8.50000000E-01  8.50000000E-01  8.50000000E-01  8.50000000E-01
  8.50000000E-01  8.50000000E-01  8.50000000E-01  8.50000000E-01  8.50000000E-01
  8.50000000E-01  8.50000000E-01  8.50000000E-01  8.50000000E-01  8.50000000E-01
  8.50000000E-01  8.50000000E-01  8.50000000E-01  8.50000000E-01  8.50000000E-01
  8.50000000E-01  8.50000000E-01  8.50000000E-01  8.50000000E-01  8.50000000E-01
  8.50000000E-01  8.50000000E-01  8.50000000E-01  8.50000000E-01  8.50000000E-01
  8.50000000E-01  8.50000000E-01  8.50000000E-01  8.50000000E-01  8.50000000E-01
  8.50000000E-01  8.50000000E-01  8.50000000E-01  8.50000000E-01  8.50000000E-01
  8.50000000E-01  8.50000000E-01  8.50000000E-01  8.50000000E-01  8.50000000E-01
  8.50000000E-01  8.50000000E-01  8.50000000E-01  8.50000000E-01  8.50000000E-01
  8.50000000E-01  8.50000000E-01  8.50000000E-01  8.50000000E-01  8.50000000E-01
  8.50000000E-01  8.50000000E-01  8.50000000E-01  8.50000000E-01  8.50000000E-01
  8.50000000E-01  8.50000000E-01  8.50000000E-01  8.50000000E-01  8.50000000E-01
  8.50000000E-01  8.50000000E-01  8.50000000E-01  8.50000000E-01  8.50000000E-01
  8.50000000E-01  8.50000000E-01  8.50000000E-01  8.50000000E-01  8.50000000E-01
  8.50000000E-01  8.50000000E-01  8.50000000E-01  8.50000000E-01  8.50000000E-01
  8.50000000E-01  8.50000000E-01  8.50000000E-01  8.50000000E-01  8.50000000E-01
  8.50000000E-01  8.50000000E-01  8.50000000E-01  8.50000000E-01  8.50000000E-01
  8.50000000E-01  8.50000000E-01  8.50000000E-01  8.50000000E-01  8.50000000E-01
  8.50000000E-01  8.50000000E-01  8.50000000E-01  8.50000000E-01  8.50000000E-01
  8.50000000E-01  8.50000000E-01  8.50000000E-01  8.50000000E-01  8.50000000E-01
  8.50000000E-01  8.50000000E-01  8.50000000E-01  8.50000000E-01  8.50000000E-01
  8.50000000E-01  8.50000000E-01  8.50000000E-01  8.50000000E-01  8.50000000E-01
  8.50000000E-01  8.50000000E-01  8.50000000E-01  8.50000000E-01  8.50000000E-01
  8.50000000E-01  8.50000000E-01  8.50000000E-01  8.50000000E-01  8.50000000E-01
  8.50000000E-01  8.50000000E-01  8.50000000E-01  8.50000000E-01  8.50000000E-01
  8.50000000E-01  8.50000000E-01  8.50000000E-01  8.50000000E-01  8.50000000E-01
  8.50000000E-01  8.50000000E-01  8.50000000E-01  8.50000000E-01  8.50000000E-01
  8.50000000E-01  8.50000000E-01  8.50000000E-01  8.50000000E-01  8.50000000E-01
  8.50000000E-01  8.50000000E-01  8.50000000E-01  8.50000000E-01  8.50000000E-01
  8.50000000E-01  8.50000000E-01  8.50000000E-01  8.50000000E-01  8.50000000E-01
  8.50000000E-01  8.50000000E-01  8.50000000E-01  8.50000000E-01  8.50000000E-01
  8.50000000E-01  8.50000000E-01  8.50000000E-01  8.50000000E-01  8.50000000E-01
  8.50000000E-01  8.50000000E-01  8.50000000E-01  8.50000000E-01  8.50000000E-01
  8.50000000E-01  8.50000000E-01  8.50000000E-01  8.50000000E-01  8.50000000E-01
  8.50000000E-01  8.50000000E-01  8.50000000E-01  8.50000000E-01  8.50000000E-01
  8.50000000E-01  8.50000000E-01  8.50000000E-01  8.50000000E-01  8.50000000E-01
  8.50000000E-01  8.50000000E-01  8.50000000E-01  8.50000000E-01  8.50000000E-01
  8.50000000E-01  8.50000000E-01  8.50000000E-01  8.50000000E-01  8.50000000E-01
  8.50000000E-01  8.50000000E-01  8.50000000E-01  8.50000000E-01  8.50000000E-01
  8.50000000E-01  8.50000000E-01  8.50000000E-01  8.50000000E-01  8.50000000E-01
  8.50000000E-01  8.50000000E-01  8.50000000E-01  8.50000000E-01  8.50000000E-01
  8.50000000E-01  8.50000000E-01  8.50000000E-01  8.50000000E-01  8.50000000E-01
  8.50000000E-01  8.50000000E-01  8.50000000E-01  8.50000000E-01  8.50000000E-01
  8.50000000E-01  8.50000000E-01  8.50000000E-01  8.50000000E-01  8.50000000E-01
  8.50000000E-01  8.50000000E-01  8.50000000E-01  8.50000000E-01  8.50000000E-01
  8.50000000E-01  8.50000000E-01  8.50000000E-01  8.50000000E-01  8.50000000E-01
  8.50000000E-01  8.50000000E-01  8.50000000E-01  8.50000000E-01  8.50000000E-01
  8.50000000E-01  8.50000000E-01  8.50000000E-01  8.50000000E-01  8.50000000E-01
  8.50000000E-01  8.50000000E-01  8.50000000E-01  8.50000000E-01  8.50000000E-01
  8.50000000E-01  8.50000000E-01  8.50000000E-01  8.50000000E-01  8.50000000E-01
  8.50000000E-01  8.50000000E-01  8.50000000E-01  8.50000000E-01  8.50000000E-01
  8.50000000E-01  8.50000000E-01  8.50000000E-01  8.50000000E-01  8.50000000E-01
  8.50000000E-01  8.50000000E-01  8.50000000E-01  8.50000000E-01  8.50000000E-01
  8.50000000E-01  8.50000000E-01  8.50000000E-01  8.50000000E-01  8.50000000E-01
  8.50000000E-01  8.50000000E-01  8.50000000E-01  8.50000000E-01  8.50000000E-01
  8.50000000E-01  8.50000000E-01  8.50000000E-01  8.50000000E-01  8.50000000E-01
  8.50000000E-01  8.50000000E-01  8.50000000E-01  8.50000000E-01  8.50000000E-01
  8.50000000E-01  8.50000000E-01  8.50000000E-01  8.50000000E-01  8.50000000E-01
  8.50000000E-01  8.50000000E-01  8.50000000E-01  8.50000000E-01  8.50000000E-01
  8.50000000E-01  8.50000000E-01  8.50000000E-01  8.50000000E-01  8.50000000E-01
  8.50000000E-01  8.50000000E-01  8.50000000E-01  8.50000000E-01  8.50000000E-01
  8.50000000E-01  8.50000000E-01  8.50000000E-01  8.50000000E-01  8.50000000E-01
  8.50000000E-01  8.50000000E-01  8.50000000E-01  8.50000000E-01  8.50000000E-01
  8.50000000E-01  8.50000000E-01  8.50000000E-01  8.50000000E-01  8.50000000E-01
  8.50000000E-01  8.50000000E-01  8.50000000E-01  8.50000000E-01  8.50000000E-01
  8.50000000E-01  8.50000000E-01  8.50000000E-01  8.50000000E-01  8.50000000E-01
  8.50000000E-01  8.50000000E-01  8.50000000E-01  8.50000000E-01  8.50000000E-01
  8.50000000E-01  8.50000000E-01  8.50000000E-01  8.50000000E-01  8.50000000E-01
  8.50000000E-01  8.50000000E-01  8.50000000E-01  8.50000000E-01  8.50000000E-01
  8.50000000E-01  8.50000000E-01  8.50000000E-01  8.50000000E-01  8.50000000E-01
  8.50000000E-01  8.50000000E-01  8.50000000E-01  8.50000000E-01  8.50000000E-01
  8.50000000E-01  8.50000000E-01  8.50000000E-01  8.50000000E-01  8.50000000E-01
  8.50000000E-01  8.50000000E-01  8.50000000E-01  8.50000000E-01  8.50000000E-01
  8.50000000E-01  8.50000000E-01  8.50000000E-01  8.50000000E-01  8.50000000E-01
  8.50000000E-01  8.50000000E-01  8.50000000E-01  8.50000000E-01  8.50000000E-01
  8.50000000E-01  8.50000000E-01  8.50000000E-01  8.50000000E-01  8.50000000E-01
  8.50000000E-01  8.50000000E-01  8.50000000E-01  8.50000000E-01  8.50000000E-01
  8.50000000E-01  8.50000000E-01  8.50000000E-01  8.50000000E-01  8.50000000E-01
  8.50000000E-01  8.50000000E-01  8.50000000E-01  8.50000000E-01  8.50000000E-01
  8.50000000E-01  8.50000000E-01  8.50000000E-01  8.50000000E-01  8.50000000E-01
  8.50000000E-01  8.50000000E-01  8.50000000E-01  8.50000000E-01  8.50000000E-01
  8.50000000E-01  8.50000000E-01  8.50000000E-01  8.50000000E-01  8.50000000E-01
  8.50000000E-01  8.50000000E-01  8.50000000E-01  8.50000000E-01  8.50000000E-01
  8.50000000E-01  8.50000000E-01  8.50000000E-01  8.50000000E-01  8.50000000E-01
  8.50000000E-01  8.50000000E-01  8.50000000E-01  8.50000000E-01  8.50000000E-01
  8.50000000E-01  8.50000000E-01  8.50000000E-01  8.50000000E-01  8.50000000E-01
  8.50000000E-01  8.50000000E-01  8.50000000E-01  8.50000000E-01  8.50000000E-01
  8.50000000E-01  8.50000000E-01  8.50000000E-01  8.50000000E-01  8.50000000E-01
  8.50000000E-01  8.50000000E-01  8.50000000E-01  8.50000000E-01  8.50000000E-01
  8.50000000E-01  8.50000000E-01  8.50000000E-01  8.50000000E-01  8.50000000E-01
  8.50000000E-01  8.50000000E-01  8.50000000E-01  8.50000000E-01  8.50000000E-01
  8.50000000E-01  8.50000000E-01  8.50000000E-01  8.50000000E-01  8.50000000E-01
  8.50000000E-01  8.50000000E-01  8.50000000E-01  8.50000000E-01  8.50000000E-01
  8.50000000E-01  8.50000000E-01  8.50000000E-01  8.50000000E-01  8.50000000E-01
  8.50000000E-01  8.50000000E-01  8.50000000E-01  8.50000000E-01  8.50000000E-01
  8.50000000E-01  8.50000000E-01  8.50000000E-01  8.50000000E-01  8.50000000E-01
  8.50000000E-01  8.50000000E-01  8.50000000E-01  8.50000000E-01  8.50000000E-01
  8.50000000E-01  8.50000000E-01  8.50000000E-01  8.50000000E-01  8.50000000E-01
  8.50000000E-01  8.50000000E-01  8.50000000E-01  8.50000000E-01  8.50000000E-01
  8.50000000E-01  8.50000000E-01  8.50000000E-01  8.50000000E-01  8.50000000E-01
  8.50000000E-01  8.50000000E-01  8.50000000E-01  8.50000000E-01  8.50000000E-01
  8.50000000E-01  8.50000000E-01  8.50000000E-01  8.50000000E-01  8.50000000E-01
  8.50000000E-01  8.50000000E-01  8.50000000E-01  8.50000000E-01  8.50000000E-01
  8.50000000E-01  8.50000000E-01  8.50000000E-01  8.50000000E-01  8.50000000E-01
  8.50000000E-01  8.50000000E-01  8.50000000E-01  8.50000000E-01  8.50000000E-01
  8.50000000E-01  8.50000000E-01  8.50000000E-01  8.50000000E-01  8.50000000E-01
  8.50000000E-01  8.50000000E-01  8.50000000E-01  8.50000000E-01  8.50000000E-01
  8.50000000E-01  8.50000000E-01  8.50000000E-01  8.50000000E-01  8.50000000E-01
  8.50000000E-01  8.50000000E-01  8.50000000E-01  8.50000000E-01  8.50000000E-01
  8.50000000E-01  8.50000000E-01  8.50000000E-01  8.50000000E-01  8.50000000E-01
  8.50000000E-01  8.50000000E-01  8.50000000E-01  8.50000000E-01  8.50000000E-01
  8.50000000E-01  8.50000000E-01  8.50000000E-01  8.50000000E-01  8.50000000E-01
  8.50000000E-01  8.50000000E-01  8.50000000E-01  8.50000000E-01  8.50000000E-01
  8.50000000E-01  8.50000000E-01  8.50000000E-01  8.50000000E-01  8.50000000E-01
  8.50000000E-01  8.50000000E-01  8.50000000E-01  8.50000000E-01  8.50000000E-01
  8.50000000E-01  8.50000000E-01  8.50000000E-01  8.50000000E-01  8.50000000E-01
  8.50000000E-01  8.50000000E-01  8.50000000E-01  8.50000000E-01  8.50000000E-01
  8.50000000E-01  8.50000000E-01  8.50000000E-01  8.50000000E-01  8.50000000E-01
  8.50000000E-01  8.50000000E-01  8.50000000E-01  8.50000000E-01  8.50000000E-01
  8.50000000E-01  8.50000000E-01  8.50000000E-01  8.50000000E-01  8.50000000E-01
  8.50000000E-01  8.50000000E-01  8.50000000E-01  8.50000000E-01  8.50000000E-01
  8.50000000E-01  8.50000000E-01  8.50000000E-01  8.50000000E-01  8.50000000E-01
  8.50000000E-01  8.50000000E-01  8.50000000E-01  8.50000000E-01  8.50000000E-01
  8.50000000E-01  8.50000000E-01  8.50000000E-01  8.50000000E-01  8.50000000E-01
  8.50000000E-01  8.50000000E-01  8.50000000E-01  8.50000000E-01  8.50000000E-01
  8.50000000E-01  8.50000000E-01  8.50000000E-01  8.50000000E-01  8.50000000E-01
  8.50000000E-01  8.50000000E-01  8.50000000E-01  8.50000000E-01  8.50000000E-01
  8.50000000E-01  8.50000000E-01  8.50000000E-01  8.50000000E-01  8.50000000E-01
  8.50000000E-01  8.50000000E-01  8.50000000E-01  8.50000000E-01  8.50000000E-01
  8.50000000E-01  8.50000000E-01  8.50000000E-01  8.50000000E-01  8.50000000E-01
  8.50000000E-01  8.50000000E-01  8.50000000E-01  8.50000000E-01  8.50000000E-01
  8.50000000E-01  8.50000000E-01  8.50000000E-01  8.50000000E-01  8.50000000E-01
  8.50000000E-01  8.50000000E-01  8.50000000E-01  8.50000000E-01  8.50000000E-01
  8.50000000E-01  8.50000000E-01  8.50000000E-01  8.50000000E-01  8.50000000E-01
  8.50000000E-01  8.50000000E-01  8.50000000E-01  8.50000000E-01  8.50000000E-01
  8.50000000E-01  8.50000000E-01  8.50000000E-01  8.50000000E-01  8.50000000E-01
  8.50000000E-01  8.50000000E-01  8.50000000E-01  8.50000000E-01  8.50000000E-01
  8.50000000E-01  8.50000000E-01  8.50000000E-01  8.50000000E-01  8.50000000E-01
  8.50000000E-01  8.50000000E-01  8.50000000E-01  8.50000000E-01  8.50000000E-01
  8.50000000E-01  8.50000000E-01  8.50000000E-01  8.50000000E-01  8.50000000E-01
  8.50000000E-01  8.50000000E-01  8.50000000E-01  8.50000000E-01  8.50000000E-01
  8.50000000E-01  8.50000000E-01  8.50000000E-01  8.50000000E-01  8.50000000E-01
  8.50000000E-01  8.50000000E-01  8.50000000E-01  8.50000000E-01  8.50000000E-01
  8.50000000E-01  8.50000000E-01  8.50000000E-01  8.50000000E-01  8.50000000E-01
  8.50000000E-01  8.50000000E-01  8.50000000E-01  8.50000000E-01  8.50000000E-01
  8.50000000E-01  8.50000000E-01  8.50000000E-01  8.50000000E-01  8.50000000E-01
  8.50000000E-01  8.50000000E-01  8.50000000E-01  8.50000000E-01  8.50000000E-01
  8.50000000E-01  8.50000000E-01  8.50000000E-01  8.50000000E-01  8.50000000E-01
  8.50000000E-01  8.50000000E-01  8.50000000E-01  8.50000000E-01  8.50000000E-01
  8.50000000E-01  8.50000000E-01  8.50000000E-01  8.50000000E-01  8.50000000E-01
  8.50000000E-01  8.50000000E-01  8.50000000E-01  8.50000000E-01  8.50000000E-01
  8.50000000E-01  8.50000000E-01  8.50000000E-01  8.50000000E-01  8.50000000E-01
  8.50000000E-01  8.50000000E-01  8.50000000E-01  8.50000000E-01  8.50000000E-01
  8.50000000E-01  8.50000000E-01  8.50000000E-01  8.50000000E-01  8.50000000E-01
  8.50000000E-01  8.50000000E-01  8.50000000E-01  8.50000000E-01  8.50000000E-01
  8.50000000E-01  8.50000000E-01  8.50000000E-01  8.50000000E-01  8.50000000E-01
  8.50000000E-01  8.50000000E-01  8.50000000E-01  8.50000000E-01  8.50000000E-01
  8.50000000E-01  8.50000000E-01  8.50000000E-01  8.50000000E-01  8.50000000E-01
  8.50000000E-01  8.50000000E-01  8.50000000E-01  8.50000000E-01  8.50000000E-01
  8.50000000E-01  8.50000000E-01  8.50000000E-01  8.50000000E-01  8.50000000E-01
  8.50000000E-01  8.50000000E-01  8.50000000E-01  8.50000000E-01  8.50000000E-01
  8.50000000E-01  8.50000000E-01  8.50000000E-01  8.50000000E-01  8.50000000E-01
  8.50000000E-01  8.50000000E-01  8.50000000E-01  8.50000000E-01  8.50000000E-01
  8.50000000E-01  8.50000000E-01  8.50000000E-01  8.50000000E-01  8.50000000E-01
  8.50000000E-01  8.50000000E-01  8.50000000E-01  8.50000000E-01  8.50000000E-01
  8.50000000E-01  8.50000000E-01  8.50000000E-01  8.50000000E-01  8.50000000E-01
  8.50000000E-01  8.50000000E-01  8.50000000E-01  8.50000000E-01  8.50000000E-01
  8.50000000E-01  8.50000000E-01  8.50000000E-01  8.50000000E-01  8.50000000E-01
  8.50000000E-01  8.50000000E-01  8.50000000E-01  8.50000000E-01  8.50000000E-01
  8.50000000E-01  8.50000000E-01  8.50000000E-01  8.50000000E-01  8.50000000E-01
  8.50000000E-01  8.50000000E-01  8.50000000E-01  8.50000000E-01  8.50000000E-01
  8.50000000E-01  8.50000000E-01  8.50000000E-01  8.50000000E-01  8.50000000E-01
  8.50000000E-01  8.50000000E-01  8.50000000E-01  8.50000000E-01  8.50000000E-01
  8.50000000E-01  8.50000000E-01  8.50000000E-01  8.50000000E-01  8.50000000E-01
  8.50000000E-01  8.50000000E-01  8.50000000E-01  8.50000000E-01  8.50000000E-01
  8.50000000E-01  8.50000000E-01  8.50000000E-01  8.50000000E-01  8.50000000E-01
  8.50000000E-01  8.50000000E-01  8.50000000E-01  8.50000000E-01  8.50000000E-01
  8.50000000E-01  8.50000000E-01  8.50000000E-01  8.50000000E-01  8.50000000E-01
  8.50000000E-01  8.50000000E-01  8.50000000E-01  8.50000000E-01  8.50000000E-01
  8.50000000E-01  8.50000000E-01  8.50000000E-01  8.50000000E-01  8.50000000E-01
  8.50000000E-01  8.50000000E-01  8.50000000E-01  8.50000000E-01  8.50000000E-01
  8.50000000E-01  8.50000000E-01  8.50000000E-01  8.50000000E-01  8.50000000E-01
  8.50000000E-01  8.50000000E-01  8.50000000E-01  8.50000000E-01  8.50000000E-01
  8.50000000E-01  8.50000000E-01  8.50000000E-01  8.50000000E-01  8.50000000E-01
  8.50000000E-01  8.50000000E-01  8.50000000E-01  8.50000000E-01  8.50000000E-01
  8.50000000E-01  8.50000000E-01  8.50000000E-01  8.50000000E-01  8.50000000E-01
  8.50000000E-01  8.50000000E-01  8.50000000E-01  8.50000000E-01  8.50000000E-01
  8.50000000E-01  8.50000000E-01  8.50000000E-01  8.50000000E-01  8.50000000E-01
  8.50000000E-01  8.50000000E-01  8.50000000E-01  8.50000000E-01  8.50000000E-01
  8.50000000E-01  8.50000000E-01  8.50000000E-01  8.50000000E-01  8.50000000E-01
  8.50000000E-01  8.50000000E-01  8.50000000E-01  8.50000000E-01  8.50000000E-01
  8.50000000E-01  8.50000000E-01  8.50000000E-01  8.50000000E-01  8.50000000E-01
  8.50000000E-01  8.50000000E-01  8.50000000E-01  8.50000000E-01  8.50000000E-01
  8.50000000E-01  8.50000000E-01  8.50000000E-01  8.50000000E-01  8.50000000E-01
  8.50000000E-01  8.50000000E-01  8.50000000E-01  8.50000000E-01  8.50000000E-01
  8.50000000E-01  8.50000000E-01  8.50000000E-01  8.50000000E-01  8.50000000E-01
  8.50000000E-01  8.50000000E-01  8.50000000E-01  8.50000000E-01  8.50000000E-01
  8.50000000E-01  8.50000000E-01  8.50000000E-01  8.50000000E-01  8.50000000E-01
  8.50000000E-01  8.50000000E-01  8.50000000E-01  8.50000000E-01  8.50000000E-01
  8.50000000E-01  8.50000000E-01  8.50000000E-01  8.50000000E-01  8.50000000E-01
  8.50000000E-01  8.50000000E-01  8.50000000E-01  8.50000000E-01  8.50000000E-01
  8.50000000E-01  8.50000000E-01  8.50000000E-01  8.50000000E-01  8.50000000E-01
  8.50000000E-01  8.50000000E-01  8.50000000E-01  8.50000000E-01  8.50000000E-01
  8.50000000E-01  8.50000000E-01  8.50000000E-01  8.50000000E-01  8.50000000E-01
  8.50000000E-01  8.50000000E-01  8.50000000E-01  8.50000000E-01  8.50000000E-01
  8.50000000E-01  8.50000000E-01  8.50000000E-01  8.50000000E-01  8.50000000E-01
  8.50000000E-01  8.50000000E-01  8.50000000E-01  8.50000000E-01  8.50000000E-01
  8.50000000E-01  8.50000000E-01  8.50000000E-01  8.50000000E-01  8.50000000E-01
  8.50000000E-01  8.50000000E-01  8.50000000E-01  8.50000000E-01  8.50000000E-01
  8.50000000E-01  8.50000000E-01  8.50000000E-01  8.50000000E-01  8.50000000E-01
  8.50000000E-01  8.50000000E-01  8.50000000E-01  8.50000000E-01  8.50000000E-01
  8.50000000E-01  8.50000000E-01  8.50000000E-01  8.50000000E-01  8.50000000E-01
  8.50000000E-01  8.50000000E-01  8.50000000E-01  8.50000000E-01  8.50000000E-01
  8.50000000E-01  8.50000000E-01  8.50000000E-01  8.50000000E-01  8.50000000E-01
  8.50000000E-01  8.50000000E-01  8.50000000E-01  8.50000000E-01  8.50000000E-01
  8.50000000E-01  8.50000000E-01  8.50000000E-01  8.50000000E-01  8.50000000E-01
  8.50000000E-01  8.50000000E-01  8.50000000E-01  8.50000000E-01  8.50000000E-01
  8.50000000E-01  8.50000000E-01  8.50000000E-01  8.50000000E-01  8.50000000E-01
  8.50000000E-01  8.50000000E-01  8.50000000E-01  8.50000000E-01  8.50000000E-01
  8.50000000E-01  8.50000000E-01  8.50000000E-01  8.50000000E-01  8.50000000E-01
  8.50000000E-01  8.50000000E-01  8.50000000E-01  8.50000000E-01  8.50000000E-01
  8.50000000E-01  8.50000000E-01  8.50000000E-01  8.50000000E-01  8.50000000E-01
  8.50000000E-01  8.50000000E-01  8.50000000E-01  8.50000000E-01  8.50000000E-01
  8.50000000E-01  8.50000000E-01  8.50000000E-01  8.50000000E-01  8.50000000E-01
  8.50000000E-01  8.50000000E-01  8.50000000E-01  8.50000000E-01  8.50000000E-01
  8.50000000E-01  8.50000000E-01  8.50000000E-01  8.50000000E-01  8.50000000E-01
  8.50000000E-01  8.50000000E-01  8.50000000E-01  8.50000000E-01  8.50000000E-01
  8.50000000E-01  8.50000000E-01  8.50000000E-01  8.50000000E-01  8.50000000E-01
  8.50000000E-01  8.50000000E-01  8.50000000E-01  8.50000000E-01  8.50000000E-01
  8.50000000E-01  8.50000000E-01  8.50000000E-01  8.50000000E-01  8.50000000E-01
  8.50000000E-01  8.50000000E-01  8.50000000E-01  8.50000000E-01  8.50000000E-01
  8.50000000E-01  8.50000000E-01  8.50000000E-01  8.50000000E-01  8.50000000E-01
  8.50000000E-01  8.50000000E-01  8.50000000E-01  8.50000000E-01  8.50000000E-01
  8.50000000E-01  8.50000000E-01  8.50000000E-01  8.50000000E-01  8.50000000E-01
  8.50000000E-01  8.50000000E-01  8.50000000E-01  8.50000000E-01  8.50000000E-01
  8.50000000E-01  8.50000000E-01  8.50000000E-01  8.50000000E-01  8.50000000E-01
  8.50000000E-01  8.50000000E-01  8.50000000E-01  8.50000000E-01  8.50000000E-01
  8.50000000E-01  8.50000000E-01  8.50000000E-01  8.50000000E-01  8.50000000E-01
  8.50000000E-01  8.50000000E-01  8.50000000E-01  8.50000000E-01  8.50000000E-01
  8.50000000E-01  8.50000000E-01  8.50000000E-01  8.50000000E-01  8.50000000E-01
  8.50000000E-01  8.50000000E-01  8.50000000E-01  8.50000000E-01  8.50000000E-01
  8.50000000E-01  8.50000000E-01  8.50000000E-01  8.50000000E-01  8.50000000E-01
  8.50000000E-01  8.50000000E-01  8.50000000E-01  8.50000000E-01  8.50000000E-01
  8.50000000E-01  8.50000000E-01  8.50000000E-01  8.50000000E-01  8.50000000E-01
  8.50000000E-01  8.50000000E-01  8.50000000E-01  8.50000000E-01  8.50000000E-01
  8.50000000E-01  8.50000000E-01  8.50000000E-01  8.50000000E-01  8.50000000E-01
  8.50000000E-01  8.50000000E-01  8.50000000E-01  8.50000000E-01  8.50000000E-01
  8.50000000E-01  8.50000000E-01  8.50000000E-01  8.50000000E-01  8.50000000E-01
  8.50000000E-01  8.50000000E-01  8.50000000E-01  8.50000000E-01  8.50000000E-01
  8.50000000E-01  8.50000000E-01  8.50000000E-01  8.50000000E-01  8.50000000E-01
  8.50000000E-01  8.50000000E-01  8.50000000E-01  8.50000000E-01  8.50000000E-01
  8.50000000E-01  8.50000000E-01  8.50000000E-01  8.50000000E-01  8.50000000E-01
  8.50000000E-01  8.50000000E-01  8.50000000E-01  8.50000000E-01  8.50000000E-01
  8.50000000E-01  8.50000000E-01  8.50000000E-01  8.50000000E-01  8.50000000E-01
  8.50000000E-01  8.50000000E-01  8.50000000E-01  8.50000000E-01  8.50000000E-01
  8.50000000E-01  8.50000000E-01  8.50000000E-01  8.50000000E-01  8.50000000E-01
  8.50000000E-01  8.50000000E-01  8.50000000E-01  8.50000000E-01  8.50000000E-01
  8.50000000E-01  8.50000000E-01  8.50000000E-01  8.50000000E-01  8.50000000E-01
  8.50000000E-01  8.50000000E-01  8.50000000E-01  8.50000000E-01  8.50000000E-01
  8.50000000E-01  8.50000000E-01  8.50000000E-01  8.50000000E-01  8.50000000E-01
  8.50000000E-01  8.50000000E-01  8.50000000E-01  8.50000000E-01  8.50000000E-01
  8.50000000E-01  8.50000000E-01  8.50000000E-01  8.50000000E-01  8.50000000E-01
  8.50000000E-01  8.50000000E-01  8.50000000E-01  8.50000000E-01  8.50000000E-01
  8.50000000E-01  8.50000000E-01  8.50000000E-01  8.50000000E-01  8.50000000E-01
  8.50000000E-01  8.50000000E-01  8.50000000E-01  8.50000000E-01  8.50000000E-01
  8.50000000E-01  8.50000000E-01  8.50000000E-01  8.50000000E-01  8.50000000E-01
  8.50000000E-01  8.50000000E-01  8.50000000E-01  8.50000000E-01  8.50000000E-01
  8.50000000E-01  8.50000000E-01  8.50000000E-01  8.50000000E-01  8.50000000E-01
  8.50000000E-01  8.50000000E-01  8.50000000E-01  8.50000000E-01  8.50000000E-01
  8.50000000E-01  8.50000000E-01  8.50000000E-01  8.50000000E-01  8.50000000E-01
  8.50000000E-01  8.50000000E-01  8.50000000E-01  8.50000000E-01  8.50000000E-01
  8.50000000E-01  8.50000000E-01  8.50000000E-01  8.50000000E-01  8.50000000E-01
  8.50000000E-01  8.50000000E-01  8.50000000E-01  8.50000000E-01  8.50000000E-01
  8.50000000E-01  8.50000000E-01  8.50000000E-01  8.50000000E-01  8.50000000E-01
  8.50000000E-01  8.50000000E-01  8.50000000E-01  8.50000000E-01  8.50000000E-01
  8.50000000E-01  8.50000000E-01  8.50000000E-01  8.50000000E-01  8.50000000E-01
  8.50000000E-01  8.50000000E-01  8.50000000E-01  8.50000000E-01  8.50000000E-01
  8.50000000E-01  8.50000000E-01  8.50000000E-01  8.50000000E-01  8.50000000E-01
  8.50000000E-01  8.50000000E-01  8.50000000E-01  8.50000000E-01  8.50000000E-01
  8.50000000E-01  8.50000000E-01  8.50000000E-01  8.50000000E-01  8.50000000E-01
  8.50000000E-01  8.50000000E-01  8.50000000E-01  8.50000000E-01  8.50000000E-01
  8.50000000E-01  8.50000000E-01  8.50000000E-01  8.50000000E-01  8.50000000E-01
  8.50000000E-01  8.50000000E-01  8.50000000E-01  8.50000000E-01  8.50000000E-01
  8.50000000E-01  8.50000000E-01  8.50000000E-01  8.50000000E-01  8.50000000E-01
  8.50000000E-01  8.50000000E-01  8.50000000E-01  8.50000000E-01  8.50000000E-01
  8.50000000E-01  8.50000000E-01  8.50000000E-01  8.50000000E-01  8.50000000E-01
  8.50000000E-01  8.50000000E-01  8.50000000E-01  8.50000000E-01  8.50000000E-01
  8.50000000E-01  8.50000000E-01  8.50000000E-01  8.50000000E-01  8.50000000E-01
  8.50000000E-01  8.50000000E-01  8.50000000E-01  8.50000000E-01  8.50000000E-01
  8.50000000E-01  8.50000000E-01  8.50000000E-01  8.50000000E-01  8.50000000E-01
  8.50000000E-01  8.50000000E-01  8.50000000E-01  8.50000000E-01  8.50000000E-01
  8.50000000E-01  8.50000000E-01  8.50000000E-01  8.50000000E-01  8.50000000E-01
  8.50000000E-01  8.50000000E-01  8.50000000E-01  8.50000000E-01  8.50000000E-01
  8.50000000E-01  8.50000000E-01  8.50000000E-01  8.50000000E-01  8.50000000E-01
  8.50000000E-01  8.50000000E-01  8.50000000E-01  8.50000000E-01  8.50000000E-01
  8.50000000E-01  8.50000000E-01  8.50000000E-01  8.50000000E-01  8.50000000E-01
  8.50000000E-01  8.50000000E-01  8.50000000E-01  8.50000000E-01  8.50000000E-01
  8.50000000E-01  8.50000000E-01  8.50000000E-01  8.50000000E-01  8.50000000E-01
  8.50000000E-01  8.50000000E-01  8.50000000E-01  8.50000000E-01  8.50000000E-01
  8.50000000E-01  8.50000000E-01  8.50000000E-01  8.50000000E-01  8.50000000E-01
  8.50000000E-01  8.50000000E-01  8.50000000E-01  8.50000000E-01  8.50000000E-01
  8.50000000E-01  8.50000000E-01  8.50000000E-01  8.50000000E-01  8.50000000E-01
  8.50000000E-01  8.50000000E-01  8.50000000E-01  8.50000000E-01  8.50000000E-01
  8.50000000E-01  8.50000000E-01  8.50000000E-01  8.50000000E-01  8.50000000E-01
  8.50000000E-01  8.50000000E-01  8.50000000E-01  8.50000000E-01  8.50000000E-01
  8.50000000E-01  8.50000000E-01  8.50000000E-01  8.50000000E-01  8.50000000E-01
  8.50000000E-01  8.50000000E-01  8.50000000E-01  8.50000000E-01  8.50000000E-01
  8.50000000E-01  8.50000000E-01  8.50000000E-01  8.50000000E-01  8.50000000E-01
  8.50000000E-01  8.50000000E-01  8.50000000E-01  8.50000000E-01  8.50000000E-01
  8.50000000E-01  8.50000000E-01  8.50000000E-01  8.50000000E-01  8.50000000E-01
  8.50000000E-01  8.50000000E-01  8.50000000E-01  8.50000000E-01  8.50000000E-01
  8.50000000E-01  8.50000000E-01  8.50000000E-01  8.50000000E-01  8.50000000E-01
  8.50000000E-01  8.50000000E-01  8.50000000E-01  8.50000000E-01  8.50000000E-01
  8.50000000E-01  8.50000000E-01  8.50000000E-01  8.50000000E-01  8.50000000E-01
  8.50000000E-01  8.50000000E-01  8.50000000E-01  8.50000000E-01  8.50000000E-01
  8.50000000E-01  8.50000000E-01  8.50000000E-01  8.50000000E-01  8.50000000E-01
  8.50000000E-01  8.50000000E-01  8.50000000E-01  8.50000000E-01  8.50000000E-01
  8.50000000E-01  8.50000000E-01  8.50000000E-01  8.50000000E-01  8.50000000E-01
  8.50000000E-01  8.50000000E-01  8.50000000E-01  8.50000000E-01  8.50000000E-01
  8.50000000E-01  8.50000000E-01  8.50000000E-01  8.50000000E-01  8.50000000E-01
  8.50000000E-01  8.50000000E-01  8.50000000E-01  8.50000000E-01  8.50000000E-01
  8.50000000E-01  8.50000000E-01  8.50000000E-01  8.50000000E-01  8.50000000E-01
  8.50000000E-01  8.50000000E-01  8.50000000E-01  8.50000000E-01  8.50000000E-01
  8.50000000E-01  8.50000000E-01  8.50000000E-01  8.50000000E-01  8.50000000E-01
  8.50000000E-01  8.50000000E-01  8.50000000E-01  8.50000000E-01  8.50000000E-01
  8.50000000E-01  8.50000000E-01  8.50000000E-01  8.50000000E-01  8.50000000E-01
  8.50000000E-01  8.50000000E-01  8.50000000E-01  8.50000000E-01  8.50000000E-01
  8.50000000E-01  8.50000000E-01  8.50000000E-01  8.50000000E-01  8.50000000E-01
  8.50000000E-01  8.50000000E-01  8.50000000E-01  8.50000000E-01  8.50000000E-01
  8.50000000E-01  8.50000000E-01  8.50000000E-01  8.50000000E-01  8.50000000E-01
  8.50000000E-01  8.50000000E-01  8.50000000E-01  8.50000000E-01  8.50000000E-01
  8.50000000E-01  8.50000000E-01  8.50000000E-01  8.50000000E-01  8.50000000E-01
  8.50000000E-01  8.50000000E-01  8.50000000E-01  8.50000000E-01  8.50000000E-01
  8.50000000E-01  8.50000000E-01  8.50000000E-01  8.50000000E-01  8.50000000E-01
  8.50000000E-01  8.50000000E-01  8.50000000E-01  8.50000000E-01  8.50000000E-01
  8.50000000E-01  8.50000000E-01  8.50000000E-01  8.50000000E-01  8.50000000E-01
  8.50000000E-01  8.50000000E-01  8.50000000E-01  8.50000000E-01  8.50000000E-01
  8.50000000E-01  8.50000000E-01  8.50000000E-01  8.50000000E-01  8.50000000E-01
  8.50000000E-01  8.50000000E-01  8.50000000E-01  8.50000000E-01  8.50000000E-01
  8.50000000E-01  8.50000000E-01  8.50000000E-01  8.50000000E-01  8.50000000E-01
  8.50000000E-01  8.50000000E-01  8.50000000E-01  8.50000000E-01  8.50000000E-01
  8.50000000E-01  8.50000000E-01  8.50000000E-01  8.50000000E-01  8.50000000E-01
  8.50000000E-01  8.50000000E-01  8.50000000E-01  8.50000000E-01  8.50000000E-01
  8.50000000E-01  8.50000000E-01  8.50000000E-01  8.50000000E-01  8.50000000E-01
  8.50000000E-01  8.50000000E-01  8.50000000E-01  8.50000000E-01  8.50000000E-01
  8.50000000E-01  8.50000000E-01  8.50000000E-01  8.50000000E-01  8.50000000E-01
  8.50000000E-01  8.50000000E-01  8.50000000E-01  8.50000000E-01  8.50000000E-01
  8.50000000E-01  8.50000000E-01  8.50000000E-01  8.50000000E-01  8.50000000E-01
  8.50000000E-01  8.50000000E-01  8.50000000E-01  8.50000000E-01  8.50000000E-01
  8.50000000E-01  8.50000000E-01  8.50000000E-01  8.50000000E-01  8.50000000E-01
  8.50000000E-01  8.50000000E-01  8.50000000E-01  8.50000000E-01  8.50000000E-01
  8.50000000E-01  8.50000000E-01  8.50000000E-01  8.50000000E-01  8.50000000E-01
  8.50000000E-01  8.50000000E-01  8.50000000E-01  8.50000000E-01  8.50000000E-01
  8.50000000E-01  8.50000000E-01  8.50000000E-01  8.50000000E-01  8.50000000E-01
  8.50000000E-01  8.50000000E-01  8.50000000E-01  8.50000000E-01  8.50000000E-01
  8.50000000E-01  8.50000000E-01  8.50000000E-01  8.50000000E-01  8.50000000E-01
  8.50000000E-01  8.50000000E-01  8.50000000E-01  8.50000000E-01  8.50000000E-01
  8.50000000E-01  8.50000000E-01  8.50000000E-01  8.50000000E-01  8.50000000E-01
  8.50000000E-01  8.50000000E-01  8.50000000E-01  8.50000000E-01  8.50000000E-01
  8.50000000E-01  8.50000000E-01  8.50000000E-01  8.50000000E-01  8.50000000E-01
  8.50000000E-01  8.50000000E-01  8.50000000E-01  8.50000000E-01  8.50000000E-01
  8.50000000E-01  8.50000000E-01  8.50000000E-01  8.50000000E-01  8.50000000E-01
  8.50000000E-01  8.50000000E-01  8.50000000E-01  8.50000000E-01  8.50000000E-01
  8.50000000E-01  8.50000000E-01  8.50000000E-01  8.50000000E-01  8.50000000E-01
  8.50000000E-01  8.50000000E-01  8.50000000E-01  8.50000000E-01  8.50000000E-01
  8.50000000E-01  8.50000000E-01  8.50000000E-01  8.50000000E-01  8.50000000E-01
  8.50000000E-01  8.50000000E-01  8.50000000E-01  8.50000000E-01  8.50000000E-01
  8.50000000E-01  8.50000000E-01  8.50000000E-01  8.50000000E-01  8.50000000E-01
  8.50000000E-01  8.50000000E-01  8.50000000E-01  8.50000000E-01  8.50000000E-01
  8.50000000E-01  8.50000000E-01  8.50000000E-01  8.50000000E-01  8.50000000E-01
  8.50000000E-01  8.50000000E-01  8.50000000E-01  8.50000000E-01  8.50000000E-01
  8.50000000E-01  8.50000000E-01  8.50000000E-01  8.50000000E-01  8.50000000E-01
  8.50000000E-01  8.50000000E-01  8.50000000E-01  8.50000000E-01  8.50000000E-01
  8.50000000E-01  8.50000000E-01  8.50000000E-01  8.50000000E-01  8.50000000E-01
  8.50000000E-01  8.50000000E-01  8.50000000E-01  8.50000000E-01  8.50000000E-01
  8.50000000E-01  8.50000000E-01  8.50000000E-01  8.50000000E-01  8.50000000E-01
  8.50000000E-01  8.50000000E-01  8.50000000E-01  8.50000000E-01  8.50000000E-01
  8.50000000E-01  8.50000000E-01  8.50000000E-01  8.50000000E-01  8.50000000E-01
  8.50000000E-01  8.50000000E-01  8.50000000E-01  8.50000000E-01  8.50000000E-01
  8.50000000E-01  8.50000000E-01  8.50000000E-01  8.50000000E-01  8.50000000E-01
  8.50000000E-01  8.50000000E-01  8.50000000E-01  8.50000000E-01  8.50000000E-01
  8.50000000E-01  8.50000000E-01  8.50000000E-01  8.50000000E-01  8.50000000E-01
  8.50000000E-01  8.50000000E-01  8.50000000E-01  8.50000000E-01  8.50000000E-01
  8.50000000E-01  8.50000000E-01  8.50000000E-01  8.50000000E-01  8.50000000E-01
  8.50000000E-01  8.50000000E-01  8.50000000E-01  8.50000000E-01  8.50000000E-01
  8.50000000E-01  8.50000000E-01  8.50000000E-01  8.50000000E-01  8.50000000E-01
  8.50000000E-01  8.50000000E-01  8.50000000E-01  8.50000000E-01  8.50000000E-01
  8.50000000E-01  8.50000000E-01  8.50000000E-01  8.50000000E-01  8.50000000E-01
  8.50000000E-01  8.50000000E-01  8.50000000E-01  8.50000000E-01  8.50000000E-01
  8.50000000E-01  8.50000000E-01  8.50000000E-01  8.50000000E-01  8.50000000E-01
  8.50000000E-01  8.50000000E-01  8.50000000E-01  8.50000000E-01  8.50000000E-01
  8.50000000E-01  8.50000000E-01  8.50000000E-01  8.50000000E-01  8.50000000E-01
  8.50000000E-01  8.50000000E-01  8.50000000E-01  8.50000000E-01  8.50000000E-01
  8.50000000E-01  8.50000000E-01  8.50000000E-01  8.50000000E-01  8.50000000E-01
  8.50000000E-01  8.50000000E-01  8.50000000E-01  8.50000000E-01  8.50000000E-01
  8.50000000E-01  8.50000000E-01  8.50000000E-01  8.50000000E-01  8.50000000E-01
  8.50000000E-01  8.50000000E-01  8.50000000E-01  8.50000000E-01  8.50000000E-01
  8.50000000E-01  8.50000000E-01  8.50000000E-01  8.50000000E-01  8.50000000E-01
  8.50000000E-01  8.50000000E-01  8.50000000E-01  8.50000000E-01  8.50000000E-01
  8.50000000E-01  8.50000000E-01  8.50000000E-01  8.50000000E-01  8.50000000E-01
  8.50000000E-01  8.50000000E-01  8.50000000E-01  8.50000000E-01  8.50000000E-01
  8.50000000E-01  8.50000000E-01  8.50000000E-01  8.50000000E-01  8.50000000E-01
  8.50000000E-01  8.50000000E-01  8.50000000E-01  8.50000000E-01  8.50000000E-01
  8.50000000E-01  8.50000000E-01  8.50000000E-01  8.50000000E-01  8.50000000E-01
  8.50000000E-01  8.50000000E-01  8.50000000E-01  8.50000000E-01  8.50000000E-01
  8.50000000E-01  8.50000000E-01  8.50000000E-01  8.50000000E-01  8.50000000E-01
  8.50000000E-01  8.50000000E-01  8.50000000E-01  8.50000000E-01  8.50000000E-01
  8.50000000E-01  8.50000000E-01  8.50000000E-01  8.50000000E-01  8.50000000E-01
  8.50000000E-01  8.50000000E-01  8.50000000E-01  8.50000000E-01  8.50000000E-01
  8.50000000E-01  8.50000000E-01  8.50000000E-01  8.50000000E-01  8.50000000E-01
  8.50000000E-01  8.50000000E-01  8.50000000E-01  8.50000000E-01  8.50000000E-01
  8.50000000E-01  8.50000000E-01  8.50000000E-01  8.50000000E-01  8.50000000E-01
  8.50000000E-01  8.50000000E-01  8.50000000E-01  8.50000000E-01  8.50000000E-01
  8.50000000E-01  8.50000000E-01  8.50000000E-01  8.50000000E-01  8.50000000E-01
  8.50000000E-01  8.50000000E-01  8.50000000E-01  8.50000000E-01  8.50000000E-01
  8.50000000E-01  8.50000000E-01  8.50000000E-01  8.50000000E-01  8.50000000E-01
  8.50000000E-01  8.50000000E-01  8.50000000E-01  8.50000000E-01  8.50000000E-01
  8.50000000E-01  8.50000000E-01  8.50000000E-01  8.50000000E-01  8.50000000E-01
  8.50000000E-01  8.50000000E-01  8.50000000E-01  8.50000000E-01  8.50000000E-01
  8.50000000E-01  8.50000000E-01  8.50000000E-01  8.50000000E-01  8.50000000E-01
  8.50000000E-01  8.50000000E-01  8.50000000E-01  8.50000000E-01  8.50000000E-01
  8.50000000E-01  8.50000000E-01  8.50000000E-01  8.50000000E-01  8.50000000E-01
  8.50000000E-01  8.50000000E-01  8.50000000E-01  8.50000000E-01  8.50000000E-01
  8.50000000E-01  8.50000000E-01  8.50000000E-01  8.50000000E-01  8.50000000E-01
  8.50000000E-01  8.50000000E-01  8.50000000E-01  8.50000000E-01  8.50000000E-01
  8.50000000E-01  8.50000000E-01  8.50000000E-01  8.50000000E-01  8.50000000E-01
  8.50000000E-01  8.50000000E-01  8.50000000E-01  8.50000000E-01  8.50000000E-01
  8.50000000E-01  8.50000000E-01  8.50000000E-01  8.50000000E-01  8.50000000E-01
  8.50000000E-01  8.50000000E-01  8.50000000E-01  8.50000000E-01  8.50000000E-01
  8.50000000E-01  8.50000000E-01  8.50000000E-01  8.50000000E-01  8.50000000E-01
  8.50000000E-01  8.50000000E-01  8.50000000E-01  8.50000000E-01  8.50000000E-01
  8.50000000E-01  8.50000000E-01  8.50000000E-01  8.50000000E-01  8.50000000E-01
  8.50000000E-01  8.50000000E-01  8.50000000E-01  8.50000000E-01  8.50000000E-01
  8.50000000E-01  8.50000000E-01  8.50000000E-01  8.50000000E-01  8.50000000E-01
  8.50000000E-01  8.50000000E-01  8.50000000E-01  8.50000000E-01  8.50000000E-01
  8.50000000E-01  8.50000000E-01  8.50000000E-01  8.50000000E-01  8.50000000E-01
  8.50000000E-01  8.50000000E-01  8.50000000E-01  8.50000000E-01  8.50000000E-01
  8.50000000E-01  8.50000000E-01  8.50000000E-01  8.50000000E-01  8.50000000E-01
  8.50000000E-01  8.50000000E-01  8.50000000E-01  8.50000000E-01  8.50000000E-01
  8.50000000E-01  8.50000000E-01  8.50000000E-01  8.50000000E-01  8.50000000E-01
  8.50000000E-01  8.50000000E-01  8.50000000E-01  8.50000000E-01  8.50000000E-01
  8.50000000E-01  8.50000000E-01  8.50000000E-01  8.50000000E-01  8.50000000E-01
  8.50000000E-01  8.50000000E-01  8.50000000E-01  8.50000000E-01  8.50000000E-01
  8.50000000E-01  8.50000000E-01  8.50000000E-01  8.50000000E-01  8.50000000E-01
  8.50000000E-01  8.50000000E-01  8.50000000E-01  8.50000000E-01  8.50000000E-01
  8.50000000E-01  8.50000000E-01  8.50000000E-01  8.50000000E-01  8.50000000E-01
  8.50000000E-01  8.50000000E-01  8.50000000E-01  8.50000000E-01  8.50000000E-01
  8.50000000E-01  8.50000000E-01  8.50000000E-01  8.50000000E-01  8.50000000E-01
  8.50000000E-01  8.50000000E-01  8.50000000E-01  8.50000000E-01  8.50000000E-01
  8.50000000E-01  8.50000000E-01  8.50000000E-01  8.50000000E-01  8.50000000E-01
  8.50000000E-01  8.50000000E-01  8.50000000E-01  8.50000000E-01  8.50000000E-01
  8.50000000E-01  8.50000000E-01  8.50000000E-01  8.50000000E-01  8.50000000E-01
  8.50000000E-01  8.50000000E-01  8.50000000E-01  8.50000000E-01  8.50000000E-01
  8.50000000E-01  8.50000000E-01  8.50000000E-01  8.50000000E-01  8.50000000E-01
  8.50000000E-01  8.50000000E-01  8.50000000E-01  8.50000000E-01  8.50000000E-01
  8.50000000E-01  8.50000000E-01  8.50000000E-01  8.50000000E-01  8.50000000E-01
  8.50000000E-01  8.50000000E-01  8.50000000E-01  8.50000000E-01  8.50000000E-01
  8.50000000E-01  8.50000000E-01  8.50000000E-01  8.50000000E-01  8.50000000E-01
  8.50000000E-01  8.50000000E-01  8.50000000E-01  8.50000000E-01  8.50000000E-01
  8.50000000E-01  8.50000000E-01  8.50000000E-01  8.50000000E-01  8.50000000E-01
  8.50000000E-01  8.50000000E-01  8.50000000E-01  8.50000000E-01  8.50000000E-01
  8.50000000E-01  8.50000000E-01  8.50000000E-01  8.50000000E-01  8.50000000E-01
  8.50000000E-01  8.50000000E-01  8.50000000E-01  8.50000000E-01  8.50000000E-01
  8.50000000E-01  8.50000000E-01  8.50000000E-01  8.50000000E-01  8.50000000E-01
  8.50000000E-01  8.50000000E-01  8.50000000E-01  8.50000000E-01  8.50000000E-01
  8.50000000E-01  8.50000000E-01  8.50000000E-01  8.50000000E-01  8.50000000E-01
  8.50000000E-01  8.50000000E-01  8.50000000E-01  8.50000000E-01  8.50000000E-01
  8.50000000E-01  8.50000000E-01  8.50000000E-01  8.50000000E-01  8.50000000E-01
  8.50000000E-01  8.50000000E-01  8.50000000E-01  8.50000000E-01  8.50000000E-01
  8.50000000E-01  8.50000000E-01  8.50000000E-01  8.50000000E-01  8.50000000E-01
  8.50000000E-01  8.50000000E-01  8.50000000E-01  8.50000000E-01  8.50000000E-01
  8.50000000E-01  8.50000000E-01  8.50000000E-01  8.50000000E-01  8.50000000E-01
  8.50000000E-01  8.50000000E-01  8.50000000E-01  8.50000000E-01  8.50000000E-01
  8.50000000E-01  8.50000000E-01  8.50000000E-01  8.50000000E-01  8.50000000E-01
  8.50000000E-01  8.50000000E-01  8.50000000E-01  8.50000000E-01  8.50000000E-01
  8.50000000E-01  8.50000000E-01  8.50000000E-01  8.50000000E-01  8.50000000E-01
  8.50000000E-01  8.50000000E-01  8.50000000E-01  8.50000000E-01  8.50000000E-01
  8.50000000E-01  8.50000000E-01  8.50000000E-01  8.50000000E-01  8.50000000E-01
  8.50000000E-01  8.50000000E-01  8.50000000E-01  8.50000000E-01  8.50000000E-01
  8.50000000E-01  8.50000000E-01  8.50000000E-01  8.50000000E-01  8.50000000E-01
  8.50000000E-01  8.50000000E-01  8.50000000E-01  8.50000000E-01  8.50000000E-01
  8.50000000E-01  8.50000000E-01  8.50000000E-01  8.50000000E-01  8.50000000E-01
  8.50000000E-01  8.50000000E-01  8.50000000E-01  8.50000000E-01  8.50000000E-01
  8.50000000E-01  8.50000000E-01  8.50000000E-01  8.50000000E-01  8.50000000E-01
  8.50000000E-01  8.50000000E-01  8.50000000E-01  8.50000000E-01  8.50000000E-01
  8.50000000E-01  8.50000000E-01  8.50000000E-01  8.50000000E-01  8.50000000E-01
  8.50000000E-01  8.50000000E-01  8.50000000E-01  8.50000000E-01  8.50000000E-01
  8.50000000E-01  8.50000000E-01  8.50000000E-01  8.50000000E-01  8.50000000E-01
  8.50000000E-01  8.50000000E-01  8.50000000E-01  8.50000000E-01  8.50000000E-01
  8.50000000E-01  8.50000000E-01  8.50000000E-01  8.50000000E-01  8.50000000E-01
  8.50000000E-01  8.50000000E-01  8.50000000E-01  8.50000000E-01  8.50000000E-01
  8.50000000E-01  8.50000000E-01  8.50000000E-01  8.50000000E-01  8.50000000E-01
  8.50000000E-01  8.50000000E-01  8.50000000E-01  8.50000000E-01  8.50000000E-01
  8.50000000E-01  8.50000000E-01  8.50000000E-01  8.50000000E-01  8.50000000E-01
  8.50000000E-01  8.50000000E-01  8.50000000E-01  8.50000000E-01  8.50000000E-01
  8.50000000E-01  8.50000000E-01  8.50000000E-01  8.50000000E-01  8.50000000E-01
  8.50000000E-01  8.50000000E-01  8.50000000E-01  8.50000000E-01  8.50000000E-01
  8.50000000E-01  8.50000000E-01  8.50000000E-01  8.50000000E-01  8.50000000E-01
  8.50000000E-01  8.50000000E-01  8.50000000E-01  8.50000000E-01  8.50000000E-01
  8.50000000E-01  8.50000000E-01  8.50000000E-01  8.50000000E-01  8.50000000E-01
  8.50000000E-01  8.50000000E-01  8.50000000E-01  8.50000000E-01  8.50000000E-01
  8.50000000E-01  8.50000000E-01  8.50000000E-01  8.50000000E-01  8.50000000E-01
  8.50000000E-01  8.50000000E-01  8.50000000E-01  8.50000000E-01  8.50000000E-01
  8.50000000E-01  8.50000000E-01  8.50000000E-01  8.50000000E-01  8.50000000E-01
  8.50000000E-01  8.50000000E-01  8.50000000E-01  8.50000000E-01  8.50000000E-01
  8.50000000E-01  8.50000000E-01  8.50000000E-01  8.50000000E-01  8.50000000E-01
  8.50000000E-01  8.50000000E-01  8.50000000E-01  8.50000000E-01  8.50000000E-01
  8.50000000E-01  8.50000000E-01  8.50000000E-01  8.50000000E-01  8.50000000E-01
  8.50000000E-01  8.50000000E-01  8.50000000E-01  8.50000000E-01  8.50000000E-01
  8.50000000E-01  8.50000000E-01  8.50000000E-01  8.50000000E-01  8.50000000E-01
  8.50000000E-01  8.50000000E-01  8.50000000E-01  8.50000000E-01  8.50000000E-01
  8.50000000E-01  8.50000000E-01  8.50000000E-01  8.50000000E-01  8.50000000E-01
  8.50000000E-01  8.50000000E-01  8.50000000E-01  8.50000000E-01  8.50000000E-01
  8.50000000E-01  8.50000000E-01  8.50000000E-01  8.50000000E-01  8.50000000E-01
  8.50000000E-01  8.50000000E-01  8.50000000E-01  8.50000000E-01  8.50000000E-01
  8.50000000E-01  8.50000000E-01  8.50000000E-01  8.50000000E-01  8.50000000E-01
  8.50000000E-01  8.50000000E-01  8.50000000E-01  8.50000000E-01  8.50000000E-01
  8.50000000E-01  8.50000000E-01  8.50000000E-01  8.50000000E-01  8.50000000E-01
  8.50000000E-01  8.50000000E-01  8.50000000E-01  8.50000000E-01  8.50000000E-01
  8.50000000E-01  8.50000000E-01  8.50000000E-01  8.50000000E-01  8.50000000E-01
  8.50000000E-01  8.50000000E-01  8.50000000E-01  8.50000000E-01  8.50000000E-01
  8.50000000E-01  8.50000000E-01  8.50000000E-01  8.50000000E-01  8.50000000E-01
  8.50000000E-01  8.50000000E-01  8.50000000E-01  8.50000000E-01  8.50000000E-01
  8.50000000E-01  8.50000000E-01  8.50000000E-01  8.50000000E-01  8.50000000E-01
  8.50000000E-01  8.50000000E-01  8.50000000E-01  8.50000000E-01  8.50000000E-01
  8.50000000E-01  8.50000000E-01  8.50000000E-01  8.50000000E-01  8.50000000E-01
  8.50000000E-01  8.50000000E-01  8.50000000E-01  8.50000000E-01  8.50000000E-01
  8.50000000E-01  8.50000000E-01  8.50000000E-01  8.50000000E-01  8.50000000E-01
  8.50000000E-01  8.50000000E-01  8.50000000E-01  8.50000000E-01  8.50000000E-01
  8.50000000E-01  8.50000000E-01  8.50000000E-01  8.50000000E-01  8.50000000E-01
  8.50000000E-01  8.50000000E-01  8.50000000E-01  8.50000000E-01  8.50000000E-01
  8.50000000E-01  8.50000000E-01  8.50000000E-01  8.50000000E-01  8.50000000E-01
  8.50000000E-01  8.50000000E-01  8.50000000E-01  8.50000000E-01  8.50000000E-01
  8.50000000E-01  8.50000000E-01  8.50000000E-01  8.50000000E-01  8.50000000E-01
  8.50000000E-01  8.50000000E-01  8.50000000E-01  8.50000000E-01  8.50000000E-01
  8.50000000E-01  8.50000000E-01  8.50000000E-01  8.50000000E-01  8.50000000E-01
  8.50000000E-01  8.50000000E-01  8.50000000E-01  8.50000000E-01  8.50000000E-01
  8.50000000E-01  8.50000000E-01  8.50000000E-01  8.50000000E-01  8.50000000E-01
  8.50000000E-01  8.50000000E-01  8.50000000E-01  8.50000000E-01  8.50000000E-01
  8.50000000E-01  8.50000000E-01  8.50000000E-01  8.50000000E-01  8.50000000E-01
  8.50000000E-01  8.50000000E-01  8.50000000E-01  8.50000000E-01  8.50000000E-01
  8.50000000E-01  8.50000000E-01  8.50000000E-01  8.50000000E-01  8.50000000E-01
  8.50000000E-01  8.50000000E-01  8.50000000E-01  8.50000000E-01  8.50000000E-01
  8.50000000E-01  8.50000000E-01  8.50000000E-01  8.50000000E-01  8.50000000E-01
  8.50000000E-01  8.50000000E-01  8.50000000E-01  8.50000000E-01  8.50000000E-01
  8.50000000E-01  8.50000000E-01  8.50000000E-01  8.50000000E-01  8.50000000E-01
  8.50000000E-01  8.50000000E-01  8.50000000E-01  8.50000000E-01  8.50000000E-01
  8.50000000E-01  8.50000000E-01  8.50000000E-01  8.50000000E-01  8.50000000E-01
  8.50000000E-01  8.50000000E-01  8.50000000E-01  8.50000000E-01  8.50000000E-01
  8.50000000E-01  8.50000000E-01  8.50000000E-01  8.50000000E-01  8.50000000E-01
  8.50000000E-01  8.50000000E-01  8.50000000E-01  8.50000000E-01  8.50000000E-01
  8.50000000E-01  8.50000000E-01  8.50000000E-01  8.50000000E-01  8.50000000E-01
  8.50000000E-01  8.50000000E-01  8.50000000E-01  8.50000000E-01  8.50000000E-01
  8.50000000E-01  8.50000000E-01  8.50000000E-01  8.50000000E-01  8.50000000E-01
  8.50000000E-01  8.50000000E-01  8.50000000E-01  8.50000000E-01  8.50000000E-01
  8.50000000E-01  8.50000000E-01  8.50000000E-01  8.50000000E-01  8.50000000E-01
  8.50000000E-01  8.50000000E-01  8.50000000E-01  8.50000000E-01  8.50000000E-01
  8.50000000E-01  8.50000000E-01  8.50000000E-01  8.50000000E-01  8.50000000E-01
  8.50000000E-01  8.50000000E-01  8.50000000E-01  8.50000000E-01  8.50000000E-01
  8.50000000E-01  8.50000000E-01  8.50000000E-01  8.50000000E-01  8.50000000E-01
  8.50000000E-01  8.50000000E-01  8.50000000E-01  8.50000000E-01  8.50000000E-01
  8.50000000E-01  8.50000000E-01  8.50000000E-01  8.50000000E-01  8.50000000E-01
  8.50000000E-01  8.50000000E-01  8.50000000E-01  8.50000000E-01  8.50000000E-01
  8.50000000E-01  8.50000000E-01  8.50000000E-01  8.50000000E-01  8.50000000E-01
  8.50000000E-01  8.50000000E-01  8.50000000E-01  8.50000000E-01  8.50000000E-01
  8.50000000E-01  8.50000000E-01  8.50000000E-01  8.50000000E-01  8.50000000E-01
  8.50000000E-01  8.50000000E-01  8.50000000E-01  8.50000000E-01  8.50000000E-01
  8.50000000E-01  8.50000000E-01  8.50000000E-01  8.50000000E-01  8.50000000E-01
  8.50000000E-01  8.50000000E-01  8.50000000E-01  8.50000000E-01  8.50000000E-01
  8.50000000E-01  8.50000000E-01  8.50000000E-01  8.50000000E-01  8.50000000E-01
  8.50000000E-01  8.50000000E-01  8.50000000E-01  8.50000000E-01  8.50000000E-01
  8.50000000E-01  8.50000000E-01  8.50000000E-01  8.50000000E-01  8.50000000E-01
  8.50000000E-01  8.50000000E-01  8.50000000E-01  8.50000000E-01  8.50000000E-01
  8.50000000E-01  8.50000000E-01  8.50000000E-01  8.50000000E-01  8.50000000E-01
  8.50000000E-01  8.50000000E-01  8.50000000E-01  8.50000000E-01  8.50000000E-01
  8.50000000E-01  8.50000000E-01  8.50000000E-01  8.50000000E-01  8.50000000E-01
  8.50000000E-01  8.50000000E-01  8.50000000E-01  8.50000000E-01  8.50000000E-01
  8.50000000E-01  8.50000000E-01  8.50000000E-01  8.50000000E-01  8.50000000E-01
  8.50000000E-01  8.50000000E-01  8.50000000E-01  8.50000000E-01  8.50000000E-01
  8.50000000E-01  8.50000000E-01  8.50000000E-01  8.50000000E-01  8.50000000E-01
  8.50000000E-01  8.50000000E-01  8.50000000E-01  8.50000000E-01  8.50000000E-01
  8.50000000E-01  8.50000000E-01  8.50000000E-01  8.50000000E-01  8.50000000E-01
  8.50000000E-01  8.50000000E-01  8.50000000E-01  8.50000000E-01  8.50000000E-01
  8.50000000E-01  8.50000000E-01  8.50000000E-01  8.50000000E-01  8.50000000E-01
  8.50000000E-01  8.50000000E-01  8.50000000E-01  8.50000000E-01  8.50000000E-01
  8.50000000E-01  8.50000000E-01  8.50000000E-01  8.50000000E-01  8.50000000E-01
  8.50000000E-01  8.50000000E-01  8.50000000E-01  8.50000000E-01  8.50000000E-01
  8.50000000E-01  8.50000000E-01  8.50000000E-01  8.50000000E-01  8.50000000E-01
  8.50000000E-01  8.50000000E-01  8.50000000E-01  8.50000000E-01  8.50000000E-01
  8.50000000E-01  8.50000000E-01  8.50000000E-01  8.50000000E-01  8.50000000E-01
  8.50000000E-01  8.50000000E-01  8.50000000E-01  8.50000000E-01  8.50000000E-01
  8.50000000E-01  8.50000000E-01  8.50000000E-01  8.50000000E-01  8.50000000E-01
  8.50000000E-01  8.50000000E-01  8.50000000E-01  8.50000000E-01  8.50000000E-01
  8.50000000E-01  8.50000000E-01  8.50000000E-01  8.50000000E-01  8.50000000E-01
  8.50000000E-01  8.50000000E-01  8.50000000E-01  8.50000000E-01  8.50000000E-01
  8.50000000E-01  8.50000000E-01  8.50000000E-01  8.50000000E-01  8.50000000E-01
  8.50000000E-01  8.50000000E-01  8.50000000E-01  8.50000000E-01  8.50000000E-01
  8.50000000E-01  8.50000000E-01  8.50000000E-01  8.50000000E-01  8.50000000E-01
  8.50000000E-01  8.50000000E-01  8.50000000E-01  8.50000000E-01  8.50000000E-01
  8.50000000E-01  8.50000000E-01  8.50000000E-01  8.50000000E-01  8.50000000E-01
  8.50000000E-01  8.50000000E-01  8.50000000E-01  8.50000000E-01  8.50000000E-01
  8.50000000E-01  8.50000000E-01  8.50000000E-01  8.50000000E-01  8.50000000E-01
  8.50000000E-01  8.50000000E-01  8.50000000E-01  8.50000000E-01  8.50000000E-01
  8.50000000E-01  8.50000000E-01  8.50000000E-01  8.50000000E-01  8.50000000E-01
  8.50000000E-01  8.50000000E-01  8.50000000E-01  8.50000000E-01  8.50000000E-01
  8.50000000E-01  8.50000000E-01  8.50000000E-01  8.50000000E-01  8.50000000E-01
  8.50000000E-01  8.50000000E-01  8.50000000E-01  8.50000000E-01  8.50000000E-01
  8.50000000E-01  8.50000000E-01  8.50000000E-01  8.50000000E-01  8.50000000E-01
  8.50000000E-01  8.50000000E-01  8.50000000E-01  8.50000000E-01  8.50000000E-01
  8.50000000E-01  8.50000000E-01  8.50000000E-01  8.50000000E-01  8.50000000E-01
  8.50000000E-01  8.50000000E-01  8.50000000E-01  8.50000000E-01  8.50000000E-01
  8.50000000E-01  8.50000000E-01  8.50000000E-01  8.50000000E-01  8.50000000E-01
  8.50000000E-01  8.50000000E-01  8.50000000E-01  8.50000000E-01  8.50000000E-01
  8.50000000E-01  8.50000000E-01  8.50000000E-01  8.50000000E-01  8.50000000E-01
  8.50000000E-01  8.50000000E-01  8.50000000E-01  8.50000000E-01  8.50000000E-01
  8.50000000E-01  8.50000000E-01  8.50000000E-01  8.50000000E-01  8.50000000E-01
  8.50000000E-01  8.50000000E-01  8.50000000E-01  8.50000000E-01  8.50000000E-01
  8.50000000E-01  8.50000000E-01  8.50000000E-01  8.50000000E-01  8.50000000E-01
  8.50000000E-01  8.50000000E-01  8.50000000E-01  8.50000000E-01  8.50000000E-01
  8.50000000E-01  8.50000000E-01  8.50000000E-01  8.50000000E-01  8.50000000E-01
  8.50000000E-01  8.50000000E-01  8.50000000E-01  8.50000000E-01  8.50000000E-01
  8.50000000E-01  8.50000000E-01  8.50000000E-01  8.50000000E-01  8.50000000E-01
  8.50000000E-01  8.50000000E-01  8.50000000E-01  8.50000000E-01  8.50000000E-01
  8.50000000E-01  8.50000000E-01  8.50000000E-01  8.50000000E-01  8.50000000E-01
  8.50000000E-01  8.50000000E-01  8.50000000E-01  8.50000000E-01  8.50000000E-01
  8.50000000E-01  8.50000000E-01  8.50000000E-01  8.50000000E-01  8.50000000E-01
  8.50000000E-01  8.50000000E-01  8.50000000E-01  8.50000000E-01  8.50000000E-01
  8.50000000E-01  8.50000000E-01  8.50000000E-01  8.50000000E-01  8.50000000E-01
  8.50000000E-01  8.50000000E-01  8.50000000E-01  8.50000000E-01  8.50000000E-01
  8.50000000E-01  8.50000000E-01  8.50000000E-01  8.50000000E-01  8.50000000E-01
  8.50000000E-01  8.50000000E-01  8.50000000E-01  8.50000000E-01  8.50000000E-01
  8.50000000E-01  8.50000000E-01  8.50000000E-01  8.50000000E-01  8.50000000E-01
  8.50000000E-01  8.50000000E-01  8.50000000E-01  8.50000000E-01  8.50000000E-01
  8.50000000E-01  8.50000000E-01  8.50000000E-01  8.50000000E-01  8.50000000E-01
  8.50000000E-01  8.50000000E-01  8.50000000E-01  8.50000000E-01  8.50000000E-01
  8.50000000E-01  8.50000000E-01  8.50000000E-01  8.50000000E-01  8.50000000E-01
  8.50000000E-01  8.50000000E-01  8.50000000E-01  8.50000000E-01  8.50000000E-01
  8.50000000E-01  8.50000000E-01  8.50000000E-01  8.50000000E-01  8.50000000E-01
  8.50000000E-01  8.50000000E-01  8.50000000E-01  8.50000000E-01  8.50000000E-01
  8.50000000E-01  8.50000000E-01  8.50000000E-01  8.50000000E-01  8.50000000E-01
  8.50000000E-01  8.50000000E-01  8.50000000E-01  8.50000000E-01  8.50000000E-01
  8.50000000E-01  8.50000000E-01  8.50000000E-01  8.50000000E-01  8.50000000E-01
  8.50000000E-01  8.50000000E-01  8.50000000E-01  8.50000000E-01  8.50000000E-01
  8.50000000E-01  8.50000000E-01  8.50000000E-01  8.50000000E-01  8.50000000E-01
  8.50000000E-01  8.50000000E-01  8.50000000E-01  8.50000000E-01  8.50000000E-01
  8.50000000E-01  8.50000000E-01  8.50000000E-01  8.50000000E-01  8.50000000E-01
  8.50000000E-01  8.50000000E-01  8.50000000E-01  8.50000000E-01  8.50000000E-01
  8.50000000E-01  8.50000000E-01  8.50000000E-01  8.50000000E-01  8.50000000E-01
  8.50000000E-01  8.50000000E-01  8.50000000E-01  8.50000000E-01  8.50000000E-01
  8.50000000E-01  8.50000000E-01  8.50000000E-01  8.50000000E-01  8.50000000E-01
  8.50000000E-01  8.50000000E-01  8.50000000E-01  8.50000000E-01  8.50000000E-01
  8.50000000E-01  8.50000000E-01  8.50000000E-01  8.50000000E-01  8.50000000E-01
  8.50000000E-01  8.50000000E-01  8.50000000E-01  8.50000000E-01  8.50000000E-01
  8.50000000E-01  8.50000000E-01  8.50000000E-01  8.50000000E-01  8.50000000E-01
  8.50000000E-01  8.50000000E-01  8.50000000E-01  8.50000000E-01  8.50000000E-01
  8.50000000E-01  8.50000000E-01  8.50000000E-01  8.50000000E-01  8.50000000E-01
  8.50000000E-01  8.50000000E-01  8.50000000E-01  8.50000000E-01  8.50000000E-01
  8.50000000E-01  8.50000000E-01  8.50000000E-01  8.50000000E-01  8.50000000E-01
  8.50000000E-01  8.50000000E-01  8.50000000E-01  8.50000000E-01  8.50000000E-01
  8.50000000E-01  8.50000000E-01  8.50000000E-01  8.50000000E-01  8.50000000E-01
  8.50000000E-01  8.50000000E-01  8.50000000E-01  8.50000000E-01  8.50000000E-01
  8.50000000E-01  8.50000000E-01  8.50000000E-01  8.50000000E-01  8.50000000E-01
  8.50000000E-01  8.50000000E-01  8.50000000E-01  8.50000000E-01  8.50000000E-01
  8.50000000E-01  8.50000000E-01  8.50000000E-01  8.50000000E-01  8.50000000E-01
  8.50000000E-01  8.50000000E-01  8.50000000E-01  8.50000000E-01  8.50000000E-01
  8.50000000E-01  8.50000000E-01  8.50000000E-01  8.50000000E-01  8.50000000E-01
  8.50000000E-01  8.50000000E-01  8.50000000E-01  8.50000000E-01  8.50000000E-01
  8.50000000E-01  8.50000000E-01  8.50000000E-01  8.50000000E-01  8.50000000E-01
  8.50000000E-01  8.50000000E-01  8.50000000E-01  8.50000000E-01  8.50000000E-01
  8.50000000E-01  8.50000000E-01  8.50000000E-01  8.50000000E-01  8.50000000E-01
  8.50000000E-01  8.50000000E-01  8.50000000E-01  8.50000000E-01  8.50000000E-01
  8.50000000E-01  8.50000000E-01  8.50000000E-01  8.50000000E-01  8.50000000E-01
  8.50000000E-01  8.50000000E-01  8.50000000E-01  8.50000000E-01  8.50000000E-01
  8.50000000E-01  8.50000000E-01  8.50000000E-01  8.50000000E-01  8.50000000E-01
  8.50000000E-01  8.50000000E-01  8.50000000E-01  8.50000000E-01  8.50000000E-01
  8.50000000E-01  8.50000000E-01  8.50000000E-01  8.50000000E-01  8.50000000E-01
  8.50000000E-01  8.50000000E-01  8.50000000E-01  8.50000000E-01  8.50000000E-01
  8.50000000E-01  8.50000000E-01  8.50000000E-01  8.50000000E-01  8.50000000E-01
  8.50000000E-01  8.50000000E-01  8.50000000E-01  8.50000000E-01  8.50000000E-01
  8.50000000E-01  8.50000000E-01  8.50000000E-01  8.50000000E-01  8.50000000E-01
  8.50000000E-01  8.50000000E-01  8.50000000E-01  8.50000000E-01  8.50000000E-01
  8.50000000E-01  8.50000000E-01  8.50000000E-01  8.50000000E-01  8.50000000E-01
  8.50000000E-01  8.50000000E-01  8.50000000E-01  8.50000000E-01  8.50000000E-01
  8.50000000E-01  8.50000000E-01  8.50000000E-01  8.50000000E-01  8.50000000E-01
  8.50000000E-01  8.50000000E-01  8.50000000E-01  8.50000000E-01  8.50000000E-01
  8.50000000E-01  8.50000000E-01  8.50000000E-01  8.50000000E-01  8.50000000E-01
  8.50000000E-01  8.50000000E-01  8.50000000E-01  8.50000000E-01  8.50000000E-01
  8.50000000E-01  8.50000000E-01  8.50000000E-01  8.50000000E-01  8.50000000E-01
  8.50000000E-01  8.50000000E-01  8.50000000E-01  8.50000000E-01  8.50000000E-01
  8.50000000E-01  8.50000000E-01  8.50000000E-01  8.50000000E-01  8.50000000E-01
  8.50000000E-01  8.50000000E-01  8.50000000E-01  8.50000000E-01  8.50000000E-01
  8.50000000E-01  8.50000000E-01  8.50000000E-01  8.50000000E-01  8.50000000E-01
  8.50000000E-01  8.50000000E-01  8.50000000E-01  8.50000000E-01  8.50000000E-01
  8.50000000E-01  8.50000000E-01  8.50000000E-01  8.50000000E-01  8.50000000E-01
  8.50000000E-01  8.50000000E-01  8.50000000E-01  8.50000000E-01  8.50000000E-01
  8.50000000E-01  8.50000000E-01  8.50000000E-01  8.50000000E-01  8.50000000E-01
  8.50000000E-01  8.50000000E-01  8.50000000E-01  8.50000000E-01  8.50000000E-01
  8.50000000E-01  8.50000000E-01  8.50000000E-01  8.50000000E-01  8.50000000E-01
  8.50000000E-01  8.50000000E-01  8.50000000E-01  8.50000000E-01  8.50000000E-01
  8.50000000E-01  8.50000000E-01  8.50000000E-01  8.50000000E-01  8.50000000E-01
  8.50000000E-01  8.50000000E-01  8.50000000E-01  8.50000000E-01  8.50000000E-01
  8.50000000E-01  8.50000000E-01  8.50000000E-01  8.50000000E-01  8.50000000E-01
  8.50000000E-01  8.50000000E-01  8.50000000E-01  8.50000000E-01  8.50000000E-01
  8.50000000E-01  8.50000000E-01  8.50000000E-01  8.50000000E-01  8.50000000E-01
  8.50000000E-01  8.50000000E-01  8.50000000E-01  8.50000000E-01  8.50000000E-01
  8.50000000E-01  8.50000000E-01  8.50000000E-01  8.50000000E-01  8.50000000E-01
  8.50000000E-01  8.50000000E-01  8.50000000E-01  8.50000000E-01  8.50000000E-01
  8.50000000E-01  8.50000000E-01  8.50000000E-01  8.50000000E-01  8.50000000E-01
  8.50000000E-01  8.50000000E-01  8.50000000E-01  8.50000000E-01  8.50000000E-01
  8.50000000E-01  8.50000000E-01  8.50000000E-01  8.50000000E-01  8.50000000E-01
  8.50000000E-01  8.50000000E-01  8.50000000E-01  8.50000000E-01  8.50000000E-01
  8.50000000E-01  8.50000000E-01  8.50000000E-01  8.50000000E-01  8.50000000E-01
  8.50000000E-01  8.50000000E-01  8.50000000E-01  8.50000000E-01  8.50000000E-01
  8.50000000E-01  8.50000000E-01  8.50000000E-01  8.50000000E-01  8.50000000E-01
  8.50000000E-01  8.50000000E-01  8.50000000E-01  8.50000000E-01  8.50000000E-01
  8.50000000E-01  8.50000000E-01  8.50000000E-01  8.50000000E-01  8.50000000E-01
  8.50000000E-01  8.50000000E-01  8.50000000E-01  8.50000000E-01  8.50000000E-01
  8.50000000E-01  8.50000000E-01  8.50000000E-01  8.50000000E-01  8.50000000E-01
  8.50000000E-01  8.50000000E-01  8.50000000E-01  8.50000000E-01  8.50000000E-01
  8.50000000E-01  8.50000000E-01  8.50000000E-01  8.50000000E-01  8.50000000E-01
  8.50000000E-01  8.50000000E-01  8.50000000E-01  8.50000000E-01  8.50000000E-01
  8.50000000E-01  8.50000000E-01  8.50000000E-01  8.50000000E-01  8.50000000E-01
  8.50000000E-01  8.50000000E-01  8.50000000E-01  8.50000000E-01  8.50000000E-01
  8.50000000E-01  8.50000000E-01  8.50000000E-01  8.50000000E-01  8.50000000E-01
  8.50000000E-01  8.50000000E-01  8.50000000E-01  8.50000000E-01  8.50000000E-01
  8.50000000E-01  8.50000000E-01  8.50000000E-01  8.50000000E-01  8.50000000E-01
  8.50000000E-01  8.50000000E-01  8.50000000E-01  8.50000000E-01  8.50000000E-01
  8.50000000E-01  8.50000000E-01  8.50000000E-01  8.50000000E-01  8.50000000E-01
  8.50000000E-01  8.50000000E-01  8.50000000E-01  8.50000000E-01  8.50000000E-01
  8.50000000E-01  8.50000000E-01  8.50000000E-01  8.50000000E-01  8.50000000E-01
  8.50000000E-01  8.50000000E-01  8.50000000E-01  8.50000000E-01  8.50000000E-01
  8.50000000E-01  8.50000000E-01  8.50000000E-01  8.50000000E-01  8.50000000E-01
  8.50000000E-01  8.50000000E-01  8.50000000E-01  8.50000000E-01  8.50000000E-01
  8.50000000E-01  8.50000000E-01  8.50000000E-01  8.50000000E-01  8.50000000E-01
  8.50000000E-01  8.50000000E-01  8.50000000E-01  8.50000000E-01  8.50000000E-01
  8.50000000E-01  8.50000000E-01  8.50000000E-01  8.50000000E-01  8.50000000E-01
  8.50000000E-01  8.50000000E-01  8.50000000E-01  8.50000000E-01  8.50000000E-01
  8.50000000E-01  8.50000000E-01  8.50000000E-01  8.50000000E-01  8.50000000E-01
  8.50000000E-01  8.50000000E-01  8.50000000E-01  8.50000000E-01  8.50000000E-01
  8.50000000E-01  8.50000000E-01  8.50000000E-01  8.50000000E-01  8.50000000E-01
  8.50000000E-01  8.50000000E-01  8.50000000E-01  8.50000000E-01  8.50000000E-01
  8.50000000E-01  8.50000000E-01  8.50000000E-01  8.50000000E-01  8.50000000E-01
  8.50000000E-01  8.50000000E-01  8.50000000E-01  8.50000000E-01  8.50000000E-01
  8.50000000E-01  8.50000000E-01  8.50000000E-01  8.50000000E-01  8.50000000E-01
  8.50000000E-01  8.50000000E-01  8.50000000E-01  8.50000000E-01  8.50000000E-01
  8.50000000E-01  8.50000000E-01  8.50000000E-01  8.50000000E-01  8.50000000E-01
  8.50000000E-01  8.50000000E-01  8.50000000E-01  8.50000000E-01  8.50000000E-01
  8.50000000E-01  8.50000000E-01  8.50000000E-01  8.50000000E-01  8.50000000E-01
  8.50000000E-01  8.50000000E-01  8.50000000E-01  8.50000000E-01  8.50000000E-01
  8.50000000E-01  8.50000000E-01  8.50000000E-01  8.50000000E-01  8.50000000E-01
  8.50000000E-01  8.50000000E-01  8.50000000E-01  8.50000000E-01  8.50000000E-01
  8.50000000E-01  8.50000000E-01  8.50000000E-01  8.50000000E-01  8.50000000E-01
  8.50000000E-01  8.50000000E-01  8.50000000E-01  8.50000000E-01  8.50000000E-01
  8.50000000E-01  8.50000000E-01  8.50000000E-01  8.50000000E-01  8.50000000E-01
  8.50000000E-01  8.50000000E-01  8.50000000E-01  8.50000000E-01  8.50000000E-01
  8.50000000E-01  8.50000000E-01  8.50000000E-01  8.50000000E-01  8.50000000E-01
  8.50000000E-01  8.50000000E-01  8.50000000E-01  8.50000000E-01  8.50000000E-01
  8.50000000E-01  8.50000000E-01  8.50000000E-01  8.50000000E-01  8.50000000E-01
  8.50000000E-01  8.50000000E-01  8.50000000E-01  8.50000000E-01  8.50000000E-01
  8.50000000E-01  8.50000000E-01  8.50000000E-01  8.50000000E-01  8.50000000E-01
  8.50000000E-01  8.50000000E-01  8.50000000E-01  8.50000000E-01  8.50000000E-01
  8.50000000E-01  8.50000000E-01  8.50000000E-01  8.50000000E-01  8.50000000E-01
  8.50000000E-01  8.50000000E-01  8.50000000E-01  8.50000000E-01  8.50000000E-01
  8.50000000E-01  8.50000000E-01  8.50000000E-01  8.50000000E-01  8.50000000E-01
  8.50000000E-01  8.50000000E-01  8.50000000E-01  8.50000000E-01  8.50000000E-01
  8.50000000E-01  8.50000000E-01  8.50000000E-01  8.50000000E-01  8.50000000E-01
  8.50000000E-01  8.50000000E-01  8.50000000E-01  8.50000000E-01  8.50000000E-01
  8.50000000E-01  8.50000000E-01  8.50000000E-01  8.50000000E-01  8.50000000E-01
  8.50000000E-01  8.50000000E-01  8.50000000E-01  8.50000000E-01  8.50000000E-01
  8.50000000E-01  8.50000000E-01  8.50000000E-01  8.50000000E-01  8.50000000E-01
  8.50000000E-01  8.50000000E-01  8.50000000E-01  8.50000000E-01  8.50000000E-01
  8.50000000E-01  8.50000000E-01  8.50000000E-01  8.50000000E-01  8.50000000E-01
  8.50000000E-01  8.50000000E-01  8.50000000E-01  8.50000000E-01  8.50000000E-01
  8.50000000E-01  8.50000000E-01  8.50000000E-01  8.50000000E-01  8.50000000E-01
  8.50000000E-01  8.50000000E-01  8.50000000E-01  8.50000000E-01  8.50000000E-01
  8.50000000E-01  8.50000000E-01  8.50000000E-01  8.50000000E-01  8.50000000E-01
  8.50000000E-01  8.50000000E-01  8.50000000E-01  8.50000000E-01  8.50000000E-01
  8.50000000E-01  8.50000000E-01  8.50000000E-01  8.50000000E-01  8.50000000E-01
  8.50000000E-01  8.50000000E-01  8.50000000E-01  8.50000000E-01  8.50000000E-01
  8.50000000E-01  8.50000000E-01  8.50000000E-01  8.50000000E-01  8.50000000E-01
  8.50000000E-01  8.50000000E-01  8.50000000E-01  8.50000000E-01  8.50000000E-01
  8.50000000E-01  8.50000000E-01  8.50000000E-01  8.50000000E-01  8.50000000E-01
  8.50000000E-01  8.50000000E-01  8.50000000E-01  8.50000000E-01  8.50000000E-01
  8.50000000E-01  8.50000000E-01  8.50000000E-01  8.50000000E-01  8.50000000E-01
  8.50000000E-01  8.50000000E-01  8.50000000E-01  8.50000000E-01  8.50000000E-01
  8.50000000E-01  8.50000000E-01  8.50000000E-01  8.50000000E-01  8.50000000E-01
  8.50000000E-01  8.50000000E-01  8.50000000E-01  8.50000000E-01  8.50000000E-01
  8.50000000E-01  8.50000000E-01  8.50000000E-01  8.50000000E-01  8.50000000E-01
  8.50000000E-01  8.50000000E-01  8.50000000E-01  8.50000000E-01  8.50000000E-01
  8.50000000E-01  8.50000000E-01  8.50000000E-01  8.50000000E-01  8.50000000E-01
  8.50000000E-01  8.50000000E-01  8.50000000E-01  8.50000000E-01  8.50000000E-01
  8.50000000E-01  8.50000000E-01  8.50000000E-01  8.50000000E-01  8.50000000E-01
  8.50000000E-01  8.50000000E-01  8.50000000E-01  8.50000000E-01  8.50000000E-01
  8.50000000E-01  8.50000000E-01  8.50000000E-01  8.50000000E-01  8.50000000E-01
  8.50000000E-01  8.50000000E-01  8.50000000E-01  8.50000000E-01  8.50000000E-01
  8.50000000E-01  8.50000000E-01  8.50000000E-01  8.50000000E-01  8.50000000E-01
  8.50000000E-01  8.50000000E-01  8.50000000E-01  8.50000000E-01  8.50000000E-01
  8.50000000E-01  8.50000000E-01  8.50000000E-01  8.50000000E-01  8.50000000E-01
  8.50000000E-01  8.50000000E-01  8.50000000E-01  8.50000000E-01  8.50000000E-01
  8.50000000E-01  8.50000000E-01  8.50000000E-01  8.50000000E-01  8.50000000E-01
  8.50000000E-01  8.50000000E-01  8.50000000E-01  8.50000000E-01  8.50000000E-01
  8.50000000E-01  8.50000000E-01  8.50000000E-01  8.50000000E-01  8.50000000E-01
  8.50000000E-01  8.50000000E-01  8.50000000E-01  8.50000000E-01  8.50000000E-01
  8.50000000E-01  8.50000000E-01  8.50000000E-01  8.50000000E-01  8.50000000E-01
  8.50000000E-01  8.50000000E-01  8.50000000E-01  8.50000000E-01  8.50000000E-01
  8.50000000E-01  8.50000000E-01  8.50000000E-01  8.50000000E-01  8.50000000E-01
  8.50000000E-01  8.50000000E-01  8.50000000E-01  8.50000000E-01  8.50000000E-01
  8.50000000E-01  8.50000000E-01  8.50000000E-01  8.50000000E-01  8.50000000E-01
  8.50000000E-01  8.50000000E-01  8.50000000E-01  8.50000000E-01  8.50000000E-01
  8.50000000E-01  8.50000000E-01  8.50000000E-01  8.50000000E-01  8.50000000E-01
  8.50000000E-01  8.50000000E-01  8.50000000E-01  8.50000000E-01  8.50000000E-01
  8.50000000E-01  8.50000000E-01  8.50000000E-01  8.50000000E-01  8.50000000E-01
  8.50000000E-01  8.50000000E-01  8.50000000E-01  8.50000000E-01  8.50000000E-01
  8.50000000E-01  8.50000000E-01  8.50000000E-01  8.50000000E-01  8.50000000E-01
  8.50000000E-01  8.50000000E-01  8.50000000E-01  8.50000000E-01  8.50000000E-01
  8.50000000E-01  8.50000000E-01  8.50000000E-01  8.50000000E-01  8.50000000E-01
  8.50000000E-01  8.50000000E-01  8.50000000E-01  8.50000000E-01  8.50000000E-01
  8.50000000E-01  8.50000000E-01  8.50000000E-01  8.50000000E-01  8.50000000E-01
  8.50000000E-01  8.50000000E-01  8.50000000E-01  8.50000000E-01  8.50000000E-01
  8.50000000E-01  8.50000000E-01  8.50000000E-01  8.50000000E-01  8.50000000E-01
  8.50000000E-01  8.50000000E-01  8.50000000E-01  8.50000000E-01  8.50000000E-01
  8.50000000E-01  8.50000000E-01  8.50000000E-01  8.50000000E-01  8.50000000E-01
  8.50000000E-01  8.50000000E-01  8.50000000E-01  8.50000000E-01  8.50000000E-01
  8.50000000E-01  8.50000000E-01  8.50000000E-01  8.50000000E-01  8.50000000E-01
  8.50000000E-01  8.50000000E-01  8.50000000E-01  8.50000000E-01  8.50000000E-01
  8.50000000E-01  8.50000000E-01  8.50000000E-01  8.50000000E-01  8.50000000E-01
  8.50000000E-01  8.50000000E-01  8.50000000E-01  8.50000000E-01  8.50000000E-01
  8.50000000E-01  8.50000000E-01  8.50000000E-01  8.50000000E-01  8.50000000E-01
  8.50000000E-01  8.50000000E-01  8.50000000E-01  8.50000000E-01  8.50000000E-01
  8.50000000E-01  8.50000000E-01  8.50000000E-01  8.50000000E-01  8.50000000E-01
  8.50000000E-01  8.50000000E-01  8.50000000E-01  8.50000000E-01  8.50000000E-01
  8.50000000E-01  8.50000000E-01  8.50000000E-01  8.50000000E-01  8.50000000E-01
  8.50000000E-01  8.50000000E-01  8.50000000E-01  8.50000000E-01  8.50000000E-01
  8.50000000E-01  8.50000000E-01  8.50000000E-01  8.50000000E-01  8.50000000E-01
  8.50000000E-01  8.50000000E-01  8.50000000E-01  8.50000000E-01  8.50000000E-01
  8.50000000E-01  8.50000000E-01  8.50000000E-01  8.50000000E-01  8.50000000E-01
  8.50000000E-01  8.50000000E-01  8.50000000E-01  8.50000000E-01  8.50000000E-01
  8.50000000E-01  8.50000000E-01  8.50000000E-01  8.50000000E-01  8.50000000E-01
  8.50000000E-01  8.50000000E-01  8.50000000E-01  8.50000000E-01  8.50000000E-01
  8.50000000E-01  8.50000000E-01  8.50000000E-01  8.50000000E-01  8.50000000E-01
  8.50000000E-01  8.50000000E-01  8.50000000E-01  8.50000000E-01  8.50000000E-01
  8.50000000E-01  8.50000000E-01  8.50000000E-01  8.50000000E-01  8.50000000E-01
  8.50000000E-01  8.50000000E-01  8.50000000E-01  8.50000000E-01  8.50000000E-01
  8.50000000E-01  8.50000000E-01  8.50000000E-01  8.50000000E-01  8.50000000E-01
  8.50000000E-01  8.50000000E-01  8.50000000E-01  8.50000000E-01  8.50000000E-01
  8.50000000E-01  8.50000000E-01  8.50000000E-01  8.50000000E-01  8.50000000E-01
  8.50000000E-01  8.50000000E-01  8.50000000E-01  8.50000000E-01  8.50000000E-01
  8.50000000E-01  8.50000000E-01  8.50000000E-01  8.50000000E-01  8.50000000E-01
  8.50000000E-01  8.50000000E-01  8.50000000E-01  8.50000000E-01  8.50000000E-01
  8.50000000E-01  8.50000000E-01  8.50000000E-01  8.50000000E-01  8.50000000E-01
  8.50000000E-01  8.50000000E-01  8.50000000E-01  8.50000000E-01  8.50000000E-01
  8.50000000E-01  8.50000000E-01  8.50000000E-01  8.50000000E-01  8.50000000E-01
  8.50000000E-01  8.50000000E-01  8.50000000E-01  8.50000000E-01  8.50000000E-01
  8.50000000E-01  8.50000000E-01  8.50000000E-01  8.50000000E-01  8.50000000E-01
  8.50000000E-01  8.50000000E-01  8.50000000E-01  8.50000000E-01  8.50000000E-01
  8.50000000E-01  8.50000000E-01  8.50000000E-01  8.50000000E-01  8.50000000E-01
  8.50000000E-01  8.50000000E-01  8.50000000E-01  8.50000000E-01  8.50000000E-01
  8.50000000E-01  8.50000000E-01  8.50000000E-01  8.50000000E-01  8.50000000E-01
  8.50000000E-01  8.50000000E-01  8.50000000E-01  8.50000000E-01  8.50000000E-01
  8.50000000E-01  8.50000000E-01  8.50000000E-01  8.50000000E-01  8.50000000E-01
  8.50000000E-01  8.50000000E-01  8.50000000E-01  8.50000000E-01  8.50000000E-01
  8.50000000E-01  8.50000000E-01  8.50000000E-01  8.50000000E-01  8.50000000E-01
  8.50000000E-01  8.50000000E-01  8.50000000E-01  8.50000000E-01  8.50000000E-01
  8.50000000E-01  8.50000000E-01  8.50000000E-01  8.50000000E-01  8.50000000E-01
  8.50000000E-01  8.50000000E-01  8.50000000E-01  8.50000000E-01  8.50000000E-01
  8.50000000E-01  8.50000000E-01  8.50000000E-01  8.50000000E-01  8.50000000E-01
  8.50000000E-01  8.50000000E-01  8.50000000E-01  8.50000000E-01  8.50000000E-01
  8.50000000E-01  8.50000000E-01  8.50000000E-01  8.50000000E-01  8.50000000E-01
  8.50000000E-01  8.50000000E-01  8.50000000E-01  8.50000000E-01  8.50000000E-01
  8.50000000E-01  8.50000000E-01  8.50000000E-01  8.50000000E-01  8.50000000E-01
  8.50000000E-01  8.50000000E-01  8.50000000E-01  8.50000000E-01  8.50000000E-01
  8.50000000E-01  8.50000000E-01  8.50000000E-01  8.50000000E-01  8.50000000E-01
  8.50000000E-01  8.50000000E-01  8.50000000E-01  8.50000000E-01  8.50000000E-01
  8.50000000E-01  8.50000000E-01  8.50000000E-01  8.50000000E-01  8.50000000E-01
  8.50000000E-01  8.50000000E-01  8.50000000E-01  8.50000000E-01  8.50000000E-01
  8.50000000E-01  8.50000000E-01  8.50000000E-01  8.50000000E-01  8.50000000E-01
  8.50000000E-01  8.50000000E-01  8.50000000E-01  8.50000000E-01  8.50000000E-01
  8.50000000E-01  8.50000000E-01  8.50000000E-01  8.50000000E-01  8.50000000E-01
  8.50000000E-01  8.50000000E-01  8.50000000E-01  8.50000000E-01  8.50000000E-01
  8.50000000E-01  8.50000000E-01  8.50000000E-01  8.50000000E-01  8.50000000E-01
  8.50000000E-01  8.50000000E-01  8.50000000E-01  8.50000000E-01  8.50000000E-01
  8.50000000E-01  8.50000000E-01  8.50000000E-01  8.50000000E-01  8.50000000E-01
  8.50000000E-01  8.50000000E-01  8.50000000E-01  8.50000000E-01  8.50000000E-01
  8.50000000E-01  8.50000000E-01  8.50000000E-01  8.50000000E-01  8.50000000E-01
  8.50000000E-01  8.50000000E-01  8.50000000E-01  8.50000000E-01  8.50000000E-01
  8.50000000E-01  8.50000000E-01  8.50000000E-01  8.50000000E-01  8.50000000E-01
  8.50000000E-01  8.50000000E-01  8.50000000E-01  8.50000000E-01  8.50000000E-01
  8.50000000E-01  8.50000000E-01  8.50000000E-01  8.50000000E-01  8.50000000E-01
  8.50000000E-01  8.50000000E-01  8.50000000E-01  8.50000000E-01  8.50000000E-01
  8.50000000E-01  8.50000000E-01  8.50000000E-01  8.50000000E-01  8.50000000E-01
  8.50000000E-01  8.50000000E-01  8.50000000E-01  8.50000000E-01  8.50000000E-01
  8.50000000E-01  8.50000000E-01  8.50000000E-01  8.50000000E-01  8.50000000E-01
  8.50000000E-01  8.50000000E-01  8.50000000E-01  8.50000000E-01  8.50000000E-01
  8.50000000E-01  8.50000000E-01  8.50000000E-01  8.50000000E-01  8.50000000E-01
  8.50000000E-01  8.50000000E-01  8.50000000E-01  8.50000000E-01  8.50000000E-01
  8.50000000E-01  8.50000000E-01  8.50000000E-01  8.50000000E-01  8.50000000E-01
  8.50000000E-01  8.50000000E-01  8.50000000E-01  8.50000000E-01  8.50000000E-01
  8.50000000E-01  8.50000000E-01  8.50000000E-01  8.50000000E-01  8.50000000E-01
  8.50000000E-01  8.50000000E-01  8.50000000E-01  8.50000000E-01  8.50000000E-01
  8.50000000E-01  8.50000000E-01  8.50000000E-01  8.50000000E-01  8.50000000E-01
  8.50000000E-01  8.50000000E-01  8.50000000E-01  8.50000000E-01  8.50000000E-01
  8.50000000E-01  8.50000000E-01  8.50000000E-01  8.50000000E-01  8.50000000E-01
  8.50000000E-01  8.50000000E-01  8.50000000E-01  8.50000000E-01  8.50000000E-01
  8.50000000E-01  8.50000000E-01  8.50000000E-01  8.50000000E-01  8.50000000E-01
  8.50000000E-01  8.50000000E-01  8.50000000E-01  8.50000000E-01  8.50000000E-01
  8.50000000E-01  8.50000000E-01  8.50000000E-01  8.50000000E-01  8.50000000E-01
  8.50000000E-01  8.50000000E-01  8.50000000E-01  8.50000000E-01  8.50000000E-01
  8.50000000E-01  8.50000000E-01  8.50000000E-01  8.50000000E-01  8.50000000E-01
  8.50000000E-01  8.50000000E-01  8.50000000E-01  8.50000000E-01  8.50000000E-01
  8.50000000E-01  8.50000000E-01  8.50000000E-01  8.50000000E-01  8.50000000E-01
  8.50000000E-01  8.50000000E-01  8.50000000E-01  8.50000000E-01  8.50000000E-01
  8.50000000E-01  8.50000000E-01  8.50000000E-01  8.50000000E-01  8.50000000E-01
  8.50000000E-01  8.50000000E-01  8.50000000E-01  8.50000000E-01  8.50000000E-01
  8.50000000E-01  8.50000000E-01  8.50000000E-01  8.50000000E-01  8.50000000E-01
  8.50000000E-01  8.50000000E-01  8.50000000E-01  8.50000000E-01  8.50000000E-01
  8.50000000E-01  8.50000000E-01  8.50000000E-01  8.50000000E-01  8.50000000E-01
  8.50000000E-01  8.50000000E-01  8.50000000E-01  8.50000000E-01  8.50000000E-01
  8.50000000E-01  8.50000000E-01  8.50000000E-01  8.50000000E-01  8.50000000E-01
  8.50000000E-01  8.50000000E-01  8.50000000E-01  8.50000000E-01  8.50000000E-01
  8.50000000E-01  8.50000000E-01  8.50000000E-01  8.50000000E-01  8.50000000E-01
  8.50000000E-01  8.50000000E-01  8.50000000E-01  8.50000000E-01  8.50000000E-01
  8.50000000E-01  8.50000000E-01  8.50000000E-01  8.50000000E-01  8.50000000E-01
  8.50000000E-01  8.50000000E-01  8.50000000E-01  8.50000000E-01  8.50000000E-01
  8.50000000E-01  8.50000000E-01  8.50000000E-01  8.50000000E-01  8.50000000E-01
  8.50000000E-01  8.50000000E-01  8.50000000E-01  8.50000000E-01  8.50000000E-01
  8.50000000E-01  8.50000000E-01  8.50000000E-01  8.50000000E-01  8.50000000E-01
  8.50000000E-01  8.50000000E-01  8.50000000E-01  8.50000000E-01  8.50000000E-01
  8.50000000E-01  8.50000000E-01  8.50000000E-01  8.50000000E-01  8.50000000E-01
  8.50000000E-01  8.50000000E-01  8.50000000E-01  8.50000000E-01  8.50000000E-01
  8.50000000E-01  8.50000000E-01  8.50000000E-01  8.50000000E-01  8.50000000E-01
  8.50000000E-01  8.50000000E-01  8.50000000E-01  8.50000000E-01  8.50000000E-01
  8.50000000E-01  8.50000000E-01  8.50000000E-01  8.50000000E-01  8.50000000E-01
  8.50000000E-01  8.50000000E-01  8.50000000E-01  8.50000000E-01  8.50000000E-01
  8.50000000E-01  8.50000000E-01  8.50000000E-01  8.50000000E-01  8.50000000E-01
  8.50000000E-01  8.50000000E-01  8.50000000E-01  8.50000000E-01  8.50000000E-01
  8.50000000E-01  8.50000000E-01  8.50000000E-01  8.50000000E-01  8.50000000E-01
  8.50000000E-01  8.50000000E-01  8.50000000E-01  8.50000000E-01  8.50000000E-01
  8.50000000E-01  8.50000000E-01  8.50000000E-01  8.50000000E-01  8.50000000E-01
  8.50000000E-01  8.50000000E-01  8.50000000E-01  8.50000000E-01  8.50000000E-01
  8.50000000E-01  8.50000000E-01  8.50000000E-01  8.50000000E-01  8.50000000E-01
  8.50000000E-01  8.50000000E-01  8.50000000E-01  8.50000000E-01  8.50000000E-01
  8.50000000E-01  8.50000000E-01  8.50000000E-01  8.50000000E-01  8.50000000E-01
  8.50000000E-01  8.50000000E-01  8.50000000E-01  8.50000000E-01  8.50000000E-01
  8.50000000E-01  8.50000000E-01  8.50000000E-01  8.50000000E-01  8.50000000E-01
  8.50000000E-01  8.50000000E-01  8.50000000E-01  8.50000000E-01  8.50000000E-01
  8.50000000E-01  8.50000000E-01  8.50000000E-01  8.50000000E-01  8.50000000E-01
  8.50000000E-01  8.50000000E-01  8.50000000E-01  8.50000000E-01  8.50000000E-01
  8.50000000E-01  8.50000000E-01  8.50000000E-01  8.50000000E-01  8.50000000E-01
  8.50000000E-01  8.50000000E-01  8.50000000E-01  8.50000000E-01  8.50000000E-01
  8.50000000E-01  8.50000000E-01  8.50000000E-01  8.50000000E-01  8.50000000E-01
  8.50000000E-01  8.50000000E-01  8.50000000E-01  8.50000000E-01  8.50000000E-01
  8.50000000E-01  8.50000000E-01  8.50000000E-01  8.50000000E-01  8.50000000E-01
  8.50000000E-01  8.50000000E-01  8.50000000E-01  8.50000000E-01  8.50000000E-01
  8.50000000E-01  8.50000000E-01  8.50000000E-01  8.50000000E-01  8.50000000E-01
  8.50000000E-01  8.50000000E-01  8.50000000E-01  8.50000000E-01  8.50000000E-01
  8.50000000E-01  8.50000000E-01  8.50000000E-01  8.50000000E-01  8.50000000E-01
  8.50000000E-01  8.50000000E-01  8.50000000E-01  8.50000000E-01  8.50000000E-01
  8.50000000E-01  8.50000000E-01  8.50000000E-01  8.50000000E-01  8.50000000E-01
  8.50000000E-01  8.50000000E-01  8.50000000E-01  8.50000000E-01  8.50000000E-01
  8.50000000E-01  8.50000000E-01  8.50000000E-01  8.50000000E-01  8.50000000E-01
  8.50000000E-01  8.50000000E-01  8.50000000E-01  8.50000000E-01  8.50000000E-01
  8.50000000E-01  8.50000000E-01  8.50000000E-01  8.50000000E-01  8.50000000E-01
  8.50000000E-01  8.50000000E-01  8.50000000E-01  8.50000000E-01  8.50000000E-01
  8.50000000E-01  8.50000000E-01  8.50000000E-01  8.50000000E-01  8.50000000E-01
  8.50000000E-01  8.50000000E-01  8.50000000E-01  8.50000000E-01  8.50000000E-01
  8.50000000E-01  8.50000000E-01  8.50000000E-01  8.50000000E-01  8.50000000E-01
  8.50000000E-01  8.50000000E-01  8.50000000E-01  8.50000000E-01  8.50000000E-01
  8.50000000E-01  8.50000000E-01  8.50000000E-01  8.50000000E-01  8.50000000E-01
  8.50000000E-01  8.50000000E-01  8.50000000E-01  8.50000000E-01  8.50000000E-01
  8.50000000E-01  8.50000000E-01  8.50000000E-01  8.50000000E-01  8.50000000E-01
  8.50000000E-01  8.50000000E-01  8.50000000E-01  8.50000000E-01  8.50000000E-01
  8.50000000E-01  8.50000000E-01  8.50000000E-01  8.50000000E-01  8.50000000E-01
  8.50000000E-01  8.50000000E-01  8.50000000E-01  8.50000000E-01  8.50000000E-01
  8.50000000E-01  8.50000000E-01  8.50000000E-01  8.50000000E-01  8.50000000E-01
  8.50000000E-01  8.50000000E-01  8.50000000E-01  8.50000000E-01  8.50000000E-01
  8.50000000E-01  8.50000000E-01  8.50000000E-01  8.50000000E-01  8.50000000E-01
  8.50000000E-01  8.50000000E-01  8.50000000E-01  8.50000000E-01  8.50000000E-01
  8.50000000E-01  8.50000000E-01  8.50000000E-01  8.50000000E-01  8.50000000E-01
  8.50000000E-01  8.50000000E-01  8.50000000E-01  8.50000000E-01  8.50000000E-01
  8.50000000E-01  8.50000000E-01  8.50000000E-01  8.50000000E-01  8.50000000E-01
  8.50000000E-01  8.50000000E-01  8.50000000E-01  8.50000000E-01  8.50000000E-01
  8.50000000E-01  8.50000000E-01  8.50000000E-01  8.50000000E-01  8.50000000E-01
  8.50000000E-01  8.50000000E-01  8.50000000E-01  8.50000000E-01  8.50000000E-01
  8.50000000E-01  8.50000000E-01  8.50000000E-01  8.50000000E-01  8.50000000E-01
  8.50000000E-01  8.50000000E-01  8.50000000E-01  8.50000000E-01  8.50000000E-01
  8.50000000E-01  8.50000000E-01  8.50000000E-01  8.50000000E-01  8.50000000E-01
  8.50000000E-01  8.50000000E-01  8.50000000E-01  8.50000000E-01  8.50000000E-01
  8.50000000E-01  8.50000000E-01  8.50000000E-01  8.50000000E-01  8.50000000E-01
  8.50000000E-01  8.50000000E-01  8.50000000E-01  8.50000000E-01  8.50000000E-01
  8.50000000E-01  8.50000000E-01  8.50000000E-01  8.50000000E-01  8.50000000E-01
  8.50000000E-01  8.50000000E-01  8.50000000E-01  8.50000000E-01  8.50000000E-01
  8.50000000E-01  8.50000000E-01  8.50000000E-01  8.50000000E-01  8.50000000E-01
  8.50000000E-01  8.50000000E-01  8.50000000E-01  8.50000000E-01  8.50000000E-01
  8.50000000E-01  8.50000000E-01  8.50000000E-01  8.50000000E-01  8.50000000E-01
  8.50000000E-01  8.50000000E-01  8.50000000E-01  8.50000000E-01  8.50000000E-01
  8.50000000E-01  8.50000000E-01  8.50000000E-01  8.50000000E-01  8.50000000E-01
  8.50000000E-01  8.50000000E-01  8.50000000E-01  8.50000000E-01  8.50000000E-01
  8.50000000E-01  8.50000000E-01  8.50000000E-01  8.50000000E-01  8.50000000E-01
  8.50000000E-01  8.50000000E-01  8.50000000E-01  8.50000000E-01  8.50000000E-01
  8.50000000E-01  8.50000000E-01  8.50000000E-01  8.50000000E-01  8.50000000E-01
  8.50000000E-01  8.50000000E-01  8.50000000E-01  8.50000000E-01  8.50000000E-01
  8.50000000E-01  8.50000000E-01  8.50000000E-01  8.50000000E-01  8.50000000E-01
  8.50000000E-01  8.50000000E-01  8.50000000E-01  8.50000000E-01  8.50000000E-01
  8.50000000E-01  8.50000000E-01  8.50000000E-01  8.50000000E-01  8.50000000E-01
  8.50000000E-01  8.50000000E-01  8.50000000E-01  8.50000000E-01  8.50000000E-01
  8.50000000E-01  8.50000000E-01  8.50000000E-01  8.50000000E-01  8.50000000E-01
  8.50000000E-01  8.50000000E-01  8.50000000E-01  8.50000000E-01  8.50000000E-01
  8.50000000E-01  8.50000000E-01  8.50000000E-01  8.50000000E-01  8.50000000E-01
  8.50000000E-01  8.50000000E-01  8.50000000E-01  8.50000000E-01  8.50000000E-01
  8.50000000E-01  8.50000000E-01  8.50000000E-01  8.50000000E-01  8.50000000E-01
  8.50000000E-01  8.50000000E-01  8.50000000E-01  8.50000000E-01  8.50000000E-01
  8.50000000E-01  8.50000000E-01  8.50000000E-01  8.50000000E-01  8.50000000E-01
  8.50000000E-01  8.50000000E-01  8.50000000E-01  8.50000000E-01  8.50000000E-01
  8.50000000E-01  8.50000000E-01  8.50000000E-01  8.50000000E-01  8.50000000E-01
  8.50000000E-01  8.50000000E-01  8.50000000E-01  8.50000000E-01  8.50000000E-01
  8.50000000E-01  8.50000000E-01  8.50000000E-01  8.50000000E-01  8.50000000E-01
  8.50000000E-01  8.50000000E-01  8.50000000E-01  8.50000000E-01  8.50000000E-01
  8.50000000E-01  8.50000000E-01  8.50000000E-01  8.50000000E-01  8.50000000E-01
  8.50000000E-01  8.50000000E-01  8.50000000E-01  8.50000000E-01  8.50000000E-01
  8.50000000E-01  8.50000000E-01  8.50000000E-01  8.50000000E-01  8.50000000E-01
  8.50000000E-01  8.50000000E-01  8.50000000E-01  8.50000000E-01  8.50000000E-01
  8.50000000E-01  8.50000000E-01  8.50000000E-01  8.50000000E-01  8.50000000E-01
  8.50000000E-01  8.50000000E-01  8.50000000E-01  8.50000000E-01  8.50000000E-01
  8.50000000E-01  8.50000000E-01  8.50000000E-01  8.50000000E-01  8.50000000E-01
  8.50000000E-01  8.50000000E-01  8.50000000E-01  8.50000000E-01  8.50000000E-01
  8.50000000E-01  8.50000000E-01  8.50000000E-01  8.50000000E-01  8.50000000E-01
  8.50000000E-01  8.50000000E-01  8.50000000E-01  8.50000000E-01  8.50000000E-01
  8.50000000E-01  8.50000000E-01  8.50000000E-01  8.50000000E-01  8.50000000E-01
  8.50000000E-01  8.50000000E-01  8.50000000E-01  8.50000000E-01  8.50000000E-01
  8.50000000E-01  8.50000000E-01  8.50000000E-01  8.50000000E-01  8.50000000E-01
  8.50000000E-01  8.50000000E-01  8.50000000E-01  8.50000000E-01  8.50000000E-01
  8.50000000E-01  8.50000000E-01  8.50000000E-01  8.50000000E-01  8.50000000E-01
  8.50000000E-01  8.50000000E-01  8.50000000E-01  8.50000000E-01  8.50000000E-01
  8.50000000E-01  8.50000000E-01  8.50000000E-01  8.50000000E-01  8.50000000E-01
  8.50000000E-01  8.50000000E-01  8.50000000E-01  8.50000000E-01  8.50000000E-01
  8.50000000E-01  8.50000000E-01  8.50000000E-01  8.50000000E-01  8.50000000E-01
  8.50000000E-01  8.50000000E-01  8.50000000E-01  8.50000000E-01  8.50000000E-01
  8.50000000E-01  8.50000000E-01  8.50000000E-01  8.50000000E-01  8.50000000E-01
  8.50000000E-01  8.50000000E-01  8.50000000E-01  8.50000000E-01  8.50000000E-01
  8.50000000E-01  8.50000000E-01  8.50000000E-01  8.50000000E-01  8.50000000E-01
  8.50000000E-01  8.50000000E-01  8.50000000E-01  8.50000000E-01  8.50000000E-01
  8.50000000E-01  8.50000000E-01  8.50000000E-01  8.50000000E-01  8.50000000E-01
  8.50000000E-01  8.50000000E-01  8.50000000E-01  8.50000000E-01  8.50000000E-01
  8.50000000E-01  8.50000000E-01  8.50000000E-01  8.50000000E-01  8.50000000E-01
  8.50000000E-01  8.50000000E-01  8.50000000E-01  8.50000000E-01  8.50000000E-01
  8.50000000E-01  8.50000000E-01  8.50000000E-01  8.50000000E-01  8.50000000E-01
  8.50000000E-01  8.50000000E-01  8.50000000E-01  8.50000000E-01  8.50000000E-01
  8.50000000E-01  8.50000000E-01  8.50000000E-01  8.50000000E-01  8.50000000E-01
  8.50000000E-01  8.50000000E-01  8.50000000E-01  8.50000000E-01  8.50000000E-01
  8.50000000E-01  8.50000000E-01  8.50000000E-01  8.50000000E-01  8.50000000E-01
  8.50000000E-01  8.50000000E-01  8.50000000E-01  8.50000000E-01  8.50000000E-01
  8.50000000E-01  8.50000000E-01  8.50000000E-01  8.50000000E-01  8.50000000E-01
  8.50000000E-01  8.50000000E-01  8.50000000E-01  8.50000000E-01  8.50000000E-01
  8.50000000E-01  8.50000000E-01  8.50000000E-01  8.50000000E-01  8.50000000E-01
  8.50000000E-01  8.50000000E-01  8.50000000E-01  8.50000000E-01  8.50000000E-01
  8.50000000E-01  8.50000000E-01  8.50000000E-01  8.50000000E-01  8.50000000E-01
  8.50000000E-01  8.50000000E-01  8.50000000E-01  8.50000000E-01  8.50000000E-01
  8.50000000E-01  8.50000000E-01  8.50000000E-01  8.50000000E-01  8.50000000E-01
  8.50000000E-01  8.50000000E-01  8.50000000E-01  8.50000000E-01  8.50000000E-01
  8.50000000E-01  8.50000000E-01  8.50000000E-01  8.50000000E-01  8.50000000E-01
  8.50000000E-01  8.50000000E-01  8.50000000E-01  8.50000000E-01  8.50000000E-01
  8.50000000E-01  8.50000000E-01  8.50000000E-01  8.50000000E-01  8.50000000E-01
  8.50000000E-01  8.50000000E-01  8.50000000E-01  8.50000000E-01  8.50000000E-01
  8.50000000E-01  8.50000000E-01  8.50000000E-01  8.50000000E-01  8.50000000E-01
  8.50000000E-01  8.50000000E-01  8.50000000E-01  8.50000000E-01  8.50000000E-01
  8.50000000E-01  8.50000000E-01  8.50000000E-01  8.50000000E-01  8.50000000E-01
  8.50000000E-01  8.50000000E-01  8.50000000E-01  8.50000000E-01  8.50000000E-01
  8.50000000E-01  8.50000000E-01  8.50000000E-01  8.50000000E-01  8.50000000E-01
  8.50000000E-01  8.50000000E-01  8.50000000E-01  8.50000000E-01  8.50000000E-01
  8.50000000E-01  8.50000000E-01  8.50000000E-01  8.50000000E-01  8.50000000E-01
  8.50000000E-01  8.50000000E-01  8.50000000E-01  8.50000000E-01  8.50000000E-01
  8.50000000E-01  8.50000000E-01  8.50000000E-01  8.50000000E-01  8.50000000E-01
  8.50000000E-01  8.50000000E-01  8.50000000E-01  8.50000000E-01  8.50000000E-01
  8.50000000E-01  8.50000000E-01  8.50000000E-01  8.50000000E-01  8.50000000E-01
  8.50000000E-01  8.50000000E-01  8.50000000E-01  8.50000000E-01  8.50000000E-01
  8.50000000E-01  8.50000000E-01  8.50000000E-01  8.50000000E-01  8.50000000E-01
  8.50000000E-01  8.50000000E-01  8.50000000E-01  8.50000000E-01  8.50000000E-01
  8.50000000E-01  8.50000000E-01  8.50000000E-01  8.50000000E-01  8.50000000E-01
  8.50000000E-01  8.50000000E-01  8.50000000E-01  8.50000000E-01  8.50000000E-01
  8.50000000E-01  8.50000000E-01  8.50000000E-01  8.50000000E-01  8.50000000E-01
  8.50000000E-01  8.50000000E-01  8.50000000E-01  8.50000000E-01  8.50000000E-01
  8.50000000E-01  8.50000000E-01  8.50000000E-01  8.50000000E-01  8.50000000E-01
  8.50000000E-01  8.50000000E-01  8.50000000E-01  8.50000000E-01  8.50000000E-01
  8.50000000E-01  8.50000000E-01  8.50000000E-01  8.50000000E-01  8.50000000E-01
  8.50000000E-01  8.50000000E-01  8.50000000E-01  8.50000000E-01  8.50000000E-01
  8.50000000E-01  8.50000000E-01  8.50000000E-01  8.50000000E-01  8.50000000E-01
  8.50000000E-01  8.50000000E-01  8.50000000E-01  8.50000000E-01  8.50000000E-01
  8.50000000E-01  8.50000000E-01  8.50000000E-01  8.50000000E-01  8.50000000E-01
  8.50000000E-01  8.50000000E-01  8.50000000E-01  8.50000000E-01  8.50000000E-01
  8.50000000E-01  8.50000000E-01  8.50000000E-01  8.50000000E-01  8.50000000E-01
  8.50000000E-01  8.50000000E-01  8.50000000E-01  8.50000000E-01  8.50000000E-01
  8.50000000E-01  8.50000000E-01  8.50000000E-01  8.50000000E-01  8.50000000E-01
  8.50000000E-01  8.50000000E-01  8.50000000E-01  8.50000000E-01  8.50000000E-01
  8.50000000E-01  8.50000000E-01  8.50000000E-01  8.50000000E-01  8.50000000E-01
  8.50000000E-01  8.50000000E-01  8.50000000E-01  8.50000000E-01  8.50000000E-01
  8.50000000E-01  8.50000000E-01  8.50000000E-01  8.50000000E-01  8.50000000E-01
  8.50000000E-01  8.50000000E-01  8.50000000E-01  8.50000000E-01  8.50000000E-01
  8.50000000E-01  8.50000000E-01  8.50000000E-01  8.50000000E-01  8.50000000E-01
  8.50000000E-01  8.50000000E-01  8.50000000E-01  8.50000000E-01  8.50000000E-01
  8.50000000E-01  8.50000000E-01  8.50000000E-01  8.50000000E-01  8.50000000E-01
  8.50000000E-01  8.50000000E-01  8.50000000E-01  8.50000000E-01  8.50000000E-01
  8.50000000E-01  8.50000000E-01  8.50000000E-01  8.50000000E-01  8.50000000E-01
  8.50000000E-01  8.50000000E-01  8.50000000E-01  8.50000000E-01  8.50000000E-01
  8.50000000E-01  8.50000000E-01  8.50000000E-01  8.50000000E-01  8.50000000E-01
  8.50000000E-01  8.50000000E-01  8.50000000E-01  8.50000000E-01  8.50000000E-01
  8.50000000E-01  8.50000000E-01  8.50000000E-01  8.50000000E-01  8.50000000E-01
  8.50000000E-01  8.50000000E-01  8.50000000E-01  8.50000000E-01  8.50000000E-01
  8.50000000E-01  8.50000000E-01  8.50000000E-01  8.50000000E-01  8.50000000E-01
  8.50000000E-01  8.50000000E-01  8.50000000E-01  8.50000000E-01  8.50000000E-01
  8.50000000E-01  8.50000000E-01  8.50000000E-01  8.50000000E-01  8.50000000E-01
  8.50000000E-01  8.50000000E-01  8.50000000E-01  8.50000000E-01  8.50000000E-01
  8.50000000E-01  8.50000000E-01  8.50000000E-01  8.50000000E-01  8.50000000E-01
  8.50000000E-01  8.50000000E-01  8.50000000E-01  8.50000000E-01  8.50000000E-01
  8.50000000E-01  8.50000000E-01  8.50000000E-01  8.50000000E-01  8.50000000E-01
  8.50000000E-01  8.50000000E-01  8.50000000E-01  8.50000000E-01  8.50000000E-01
  8.50000000E-01  8.50000000E-01  8.50000000E-01  8.50000000E-01  8.50000000E-01
  8.50000000E-01  8.50000000E-01  8.50000000E-01  8.50000000E-01  8.50000000E-01
  8.50000000E-01  8.50000000E-01  8.50000000E-01  8.50000000E-01  8.50000000E-01
  8.50000000E-01  8.50000000E-01  8.50000000E-01  8.50000000E-01  8.50000000E-01
  8.50000000E-01  8.50000000E-01  8.50000000E-01  8.50000000E-01  8.50000000E-01
  8.50000000E-01  8.50000000E-01  8.50000000E-01  8.50000000E-01  8.50000000E-01
  8.50000000E-01  8.50000000E-01  8.50000000E-01  8.50000000E-01  8.50000000E-01
  8.50000000E-01  8.50000000E-01  8.50000000E-01  8.50000000E-01  8.50000000E-01
  8.50000000E-01  8.50000000E-01  8.50000000E-01  8.50000000E-01  8.50000000E-01
  8.50000000E-01  8.50000000E-01  8.50000000E-01  8.50000000E-01  8.50000000E-01
  8.50000000E-01  8.50000000E-01  8.50000000E-01  8.50000000E-01  8.50000000E-01
  8.50000000E-01  8.50000000E-01  8.50000000E-01  8.50000000E-01  8.50000000E-01
  8.50000000E-01  8.50000000E-01  8.50000000E-01  8.50000000E-01  8.50000000E-01
  8.50000000E-01  8.50000000E-01  8.50000000E-01  8.50000000E-01  8.50000000E-01
  8.50000000E-01  8.50000000E-01  8.50000000E-01  8.50000000E-01  8.50000000E-01
  8.50000000E-01  8.50000000E-01  8.50000000E-01  8.50000000E-01  8.50000000E-01
  8.50000000E-01  8.50000000E-01  8.50000000E-01  8.50000000E-01  8.50000000E-01
  8.50000000E-01  8.50000000E-01  8.50000000E-01  8.50000000E-01  8.50000000E-01
  8.50000000E-01  8.50000000E-01  8.50000000E-01  8.50000000E-01  8.50000000E-01
  8.50000000E-01  8.50000000E-01  8.50000000E-01  8.50000000E-01  8.50000000E-01
  8.50000000E-01  8.50000000E-01  8.50000000E-01  8.50000000E-01  8.50000000E-01
  8.50000000E-01  8.50000000E-01  8.50000000E-01  8.50000000E-01  8.50000000E-01
  8.50000000E-01  8.50000000E-01  8.50000000E-01  8.50000000E-01  8.50000000E-01
  8.50000000E-01  8.50000000E-01  8.50000000E-01  8.50000000E-01  8.50000000E-01
  8.50000000E-01  8.50000000E-01  8.50000000E-01  8.50000000E-01  8.50000000E-01
  8.50000000E-01  8.50000000E-01  8.50000000E-01  8.50000000E-01  8.50000000E-01
  8.50000000E-01  8.50000000E-01  8.50000000E-01  8.50000000E-01  8.50000000E-01
  8.50000000E-01  8.50000000E-01  8.50000000E-01  8.50000000E-01  8.50000000E-01
  8.50000000E-01  8.50000000E-01  8.50000000E-01  8.50000000E-01  8.50000000E-01
  8.50000000E-01  8.50000000E-01  8.50000000E-01  8.50000000E-01  8.50000000E-01
  8.50000000E-01  8.50000000E-01  8.50000000E-01  8.50000000E-01  8.50000000E-01
  8.50000000E-01  8.50000000E-01  8.50000000E-01  8.50000000E-01  8.50000000E-01
  8.50000000E-01  8.50000000E-01  8.50000000E-01  8.50000000E-01  8.50000000E-01
  8.50000000E-01  8.50000000E-01  8.50000000E-01  8.50000000E-01  8.50000000E-01
  8.50000000E-01  8.50000000E-01  8.50000000E-01  8.50000000E-01  8.50000000E-01
  8.50000000E-01  8.50000000E-01  8.50000000E-01  8.50000000E-01  8.50000000E-01
  8.50000000E-01  8.50000000E-01  8.50000000E-01  8.50000000E-01  8.50000000E-01
  8.50000000E-01  8.50000000E-01  8.50000000E-01  8.50000000E-01  8.50000000E-01
  8.50000000E-01  8.50000000E-01  8.50000000E-01  8.50000000E-01  8.50000000E-01
  8.50000000E-01  8.50000000E-01  8.50000000E-01  8.50000000E-01  8.50000000E-01
  8.50000000E-01  8.50000000E-01  8.50000000E-01  8.50000000E-01  8.50000000E-01
  8.50000000E-01  8.50000000E-01  8.50000000E-01  8.50000000E-01  8.50000000E-01
  8.50000000E-01  8.50000000E-01  8.50000000E-01  8.50000000E-01  8.50000000E-01
  8.50000000E-01  8.50000000E-01  8.50000000E-01  8.50000000E-01  8.50000000E-01
  8.50000000E-01  8.50000000E-01  8.50000000E-01  8.50000000E-01  8.50000000E-01
  8.50000000E-01  8.50000000E-01  8.50000000E-01  8.50000000E-01  8.50000000E-01
  8.50000000E-01  8.50000000E-01  8.50000000E-01  8.50000000E-01  8.50000000E-01
  8.50000000E-01  8.50000000E-01  8.50000000E-01  8.50000000E-01  8.50000000E-01
  8.50000000E-01  8.50000000E-01  8.50000000E-01  8.50000000E-01  8.50000000E-01
  8.50000000E-01  8.50000000E-01  8.50000000E-01  8.50000000E-01  8.50000000E-01
  8.50000000E-01  8.50000000E-01  8.50000000E-01  8.50000000E-01  8.50000000E-01
  8.50000000E-01  8.50000000E-01  8.50000000E-01  8.50000000E-01  8.50000000E-01
  8.50000000E-01  8.50000000E-01  8.50000000E-01  8.50000000E-01  8.50000000E-01
  8.50000000E-01  8.50000000E-01  8.50000000E-01  8.50000000E-01  8.50000000E-01
  8.50000000E-01  8.50000000E-01  8.50000000E-01  8.50000000E-01  8.50000000E-01
  8.50000000E-01  8.50000000E-01  8.50000000E-01  8.50000000E-01  8.50000000E-01
  8.50000000E-01  8.50000000E-01  8.50000000E-01  8.50000000E-01  8.50000000E-01
  8.50000000E-01  8.50000000E-01  8.50000000E-01  8.50000000E-01  8.50000000E-01
  8.50000000E-01  8.50000000E-01  8.50000000E-01  8.50000000E-01  8.50000000E-01
  8.50000000E-01  8.50000000E-01  8.50000000E-01  8.50000000E-01  8.50000000E-01
  8.50000000E-01  8.50000000E-01  8.50000000E-01  8.50000000E-01  8.50000000E-01
  8.50000000E-01  8.50000000E-01  8.50000000E-01  8.50000000E-01  8.50000000E-01
  8.50000000E-01  8.50000000E-01  8.50000000E-01  8.50000000E-01  8.50000000E-01
  8.50000000E-01  8.50000000E-01  8.50000000E-01  8.50000000E-01  8.50000000E-01
  8.50000000E-01  8.50000000E-01  8.50000000E-01  8.50000000E-01  8.50000000E-01
  8.50000000E-01  8.50000000E-01  8.50000000E-01  8.50000000E-01  8.50000000E-01
  8.50000000E-01  8.50000000E-01  8.50000000E-01  8.50000000E-01  8.50000000E-01
  8.50000000E-01  8.50000000E-01  8.50000000E-01  8.50000000E-01  8.50000000E-01
  8.50000000E-01  8.50000000E-01  8.50000000E-01  8.50000000E-01  8.50000000E-01
  8.50000000E-01  8.50000000E-01  8.50000000E-01  8.50000000E-01  8.50000000E-01
  8.50000000E-01  8.50000000E-01  8.50000000E-01  8.50000000E-01  8.50000000E-01
  8.50000000E-01  8.50000000E-01  8.50000000E-01  8.50000000E-01  8.50000000E-01
  8.50000000E-01  8.50000000E-01  8.50000000E-01  8.50000000E-01  8.50000000E-01
  8.50000000E-01  8.50000000E-01  8.50000000E-01  8.50000000E-01  8.50000000E-01
  8.50000000E-01  8.50000000E-01  8.50000000E-01  8.50000000E-01  8.50000000E-01
  8.50000000E-01  8.50000000E-01  8.50000000E-01  8.50000000E-01  8.50000000E-01
  8.50000000E-01  8.50000000E-01  8.50000000E-01  8.50000000E-01  8.50000000E-01
  8.50000000E-01  8.50000000E-01  8.50000000E-01  8.50000000E-01  8.50000000E-01
  8.50000000E-01  8.50000000E-01  8.50000000E-01  8.50000000E-01  8.50000000E-01
  8.50000000E-01  8.50000000E-01  8.50000000E-01  8.50000000E-01  8.50000000E-01
  8.50000000E-01  8.50000000E-01  8.50000000E-01  8.50000000E-01  8.50000000E-01
  8.50000000E-01  8.50000000E-01  8.50000000E-01  8.50000000E-01  8.50000000E-01
  8.50000000E-01  8.50000000E-01  8.50000000E-01  8.50000000E-01  8.50000000E-01
  8.50000000E-01  8.50000000E-01  8.50000000E-01  8.50000000E-01  8.50000000E-01
  8.50000000E-01  8.50000000E-01  8.50000000E-01  8.50000000E-01  8.50000000E-01
  8.50000000E-01  8.50000000E-01  8.50000000E-01  8.50000000E-01  8.50000000E-01
  8.50000000E-01  8.50000000E-01  8.50000000E-01  8.50000000E-01  8.50000000E-01
  8.50000000E-01  8.50000000E-01  8.50000000E-01  8.50000000E-01  8.50000000E-01
  8.50000000E-01  8.50000000E-01  8.50000000E-01  8.50000000E-01  8.50000000E-01
  8.50000000E-01  8.50000000E-01  8.50000000E-01  8.50000000E-01  8.50000000E-01
  8.50000000E-01  8.50000000E-01  8.50000000E-01  8.50000000E-01  8.50000000E-01
  8.50000000E-01  8.50000000E-01  8.50000000E-01  8.50000000E-01  8.50000000E-01
  8.50000000E-01  8.50000000E-01  8.50000000E-01  8.50000000E-01  8.50000000E-01
  8.50000000E-01  8.50000000E-01  8.50000000E-01  8.50000000E-01  8.50000000E-01
  8.50000000E-01  8.50000000E-01  8.50000000E-01  8.50000000E-01  8.50000000E-01
  8.50000000E-01  8.50000000E-01  8.50000000E-01  8.50000000E-01  8.50000000E-01
  8.50000000E-01  8.50000000E-01  8.50000000E-01  8.50000000E-01  8.50000000E-01
  8.50000000E-01  8.50000000E-01  8.50000000E-01  8.50000000E-01  8.50000000E-01
  8.50000000E-01  8.50000000E-01  8.50000000E-01  8.50000000E-01  8.50000000E-01
  8.50000000E-01  8.50000000E-01  8.50000000E-01  8.50000000E-01  8.50000000E-01
  8.50000000E-01  8.50000000E-01  8.50000000E-01  8.50000000E-01  8.50000000E-01
  8.50000000E-01  8.50000000E-01  8.50000000E-01  8.50000000E-01  8.50000000E-01
  8.50000000E-01  8.50000000E-01  8.50000000E-01  8.50000000E-01  8.50000000E-01
  8.50000000E-01  8.50000000E-01  8.50000000E-01  8.50000000E-01  8.50000000E-01
  8.50000000E-01  8.50000000E-01  8.50000000E-01  8.50000000E-01  8.50000000E-01
  8.50000000E-01  8.50000000E-01  8.50000000E-01  8.50000000E-01  8.50000000E-01
  8.50000000E-01  8.50000000E-01  8.50000000E-01  8.50000000E-01  8.50000000E-01
  8.50000000E-01  8.50000000E-01  8.50000000E-01  8.50000000E-01  8.50000000E-01
  8.50000000E-01  8.50000000E-01  8.50000000E-01  8.50000000E-01  8.50000000E-01
  8.50000000E-01  8.50000000E-01  8.50000000E-01  8.50000000E-01  8.50000000E-01
  8.50000000E-01  8.50000000E-01  8.50000000E-01  8.50000000E-01  8.50000000E-01
  8.50000000E-01  8.50000000E-01  8.50000000E-01  8.50000000E-01  8.50000000E-01
  8.50000000E-01  8.50000000E-01  8.50000000E-01  8.50000000E-01  8.50000000E-01
  8.50000000E-01  8.50000000E-01  8.50000000E-01  8.50000000E-01  8.50000000E-01
  8.50000000E-01  8.50000000E-01  8.50000000E-01  8.50000000E-01  8.50000000E-01
  8.50000000E-01  8.50000000E-01  8.50000000E-01  8.50000000E-01  8.50000000E-01
  8.50000000E-01  8.50000000E-01  8.50000000E-01  8.50000000E-01  8.50000000E-01
  8.50000000E-01  8.50000000E-01  8.50000000E-01  8.50000000E-01  8.50000000E-01
  8.50000000E-01  8.50000000E-01  8.50000000E-01  8.50000000E-01  8.50000000E-01
  8.50000000E-01  8.50000000E-01  8.50000000E-01  8.50000000E-01  8.50000000E-01
  8.50000000E-01  8.50000000E-01  8.50000000E-01  8.50000000E-01  8.50000000E-01
  8.50000000E-01  8.50000000E-01  8.50000000E-01  8.50000000E-01  8.50000000E-01
  8.50000000E-01  8.50000000E-01  8.50000000E-01  8.50000000E-01  8.50000000E-01
  8.50000000E-01  8.50000000E-01  8.50000000E-01  8.50000000E-01  8.50000000E-01
  8.50000000E-01  8.50000000E-01  8.50000000E-01  8.50000000E-01  8.50000000E-01
  8.50000000E-01  8.50000000E-01  8.50000000E-01  8.50000000E-01  8.50000000E-01
  8.50000000E-01  8.50000000E-01  8.50000000E-01  8.50000000E-01  8.50000000E-01
  8.50000000E-01  8.50000000E-01  8.50000000E-01  8.50000000E-01  8.50000000E-01
  8.50000000E-01  8.50000000E-01  8.50000000E-01  8.50000000E-01  8.50000000E-01
  8.50000000E-01  8.50000000E-01  8.50000000E-01  8.50000000E-01  8.50000000E-01
  8.50000000E-01  8.50000000E-01  8.50000000E-01  8.50000000E-01  8.50000000E-01
  8.50000000E-01  8.50000000E-01  8.50000000E-01  8.50000000E-01  8.50000000E-01
  8.50000000E-01  8.50000000E-01  8.50000000E-01  8.50000000E-01  8.50000000E-01
  8.50000000E-01  8.50000000E-01  8.50000000E-01  8.50000000E-01  8.50000000E-01
  8.50000000E-01  8.50000000E-01  8.50000000E-01  8.50000000E-01  8.50000000E-01
  8.50000000E-01  8.50000000E-01  8.50000000E-01  8.50000000E-01  8.50000000E-01
  8.50000000E-01  8.50000000E-01  8.50000000E-01  8.50000000E-01  8.50000000E-01
  8.50000000E-01  8.50000000E-01  8.50000000E-01  8.50000000E-01  8.50000000E-01
  8.50000000E-01  8.50000000E-01  8.50000000E-01  8.50000000E-01  8.50000000E-01
  8.50000000E-01  8.50000000E-01  8.50000000E-01  8.50000000E-01  8.50000000E-01
  8.50000000E-01  8.50000000E-01  8.50000000E-01  8.50000000E-01  8.50000000E-01
  8.50000000E-01  8.50000000E-01  8.50000000E-01  8.50000000E-01  8.50000000E-01
  8.50000000E-01  8.50000000E-01  8.50000000E-01  8.50000000E-01  8.50000000E-01
  8.50000000E-01  8.50000000E-01  8.50000000E-01  8.50000000E-01  8.50000000E-01
  8.50000000E-01  8.50000000E-01  8.50000000E-01  8.50000000E-01  8.50000000E-01
  8.50000000E-01  8.50000000E-01  8.50000000E-01  8.50000000E-01  8.50000000E-01
  8.50000000E-01  8.50000000E-01  8.50000000E-01  8.50000000E-01  8.50000000E-01
  8.50000000E-01  8.50000000E-01  8.50000000E-01  8.50000000E-01  8.50000000E-01
  8.50000000E-01  8.50000000E-01  8.50000000E-01  8.50000000E-01  8.50000000E-01
  8.50000000E-01  8.50000000E-01  8.50000000E-01  8.50000000E-01  8.50000000E-01
  8.50000000E-01  8.50000000E-01  8.50000000E-01  8.50000000E-01  8.50000000E-01
  8.50000000E-01  8.50000000E-01  8.50000000E-01  8.50000000E-01  8.50000000E-01
  8.50000000E-01  8.50000000E-01  8.50000000E-01  8.50000000E-01  8.50000000E-01
  8.50000000E-01  8.50000000E-01  8.50000000E-01  8.50000000E-01  8.50000000E-01
  8.50000000E-01  8.50000000E-01  8.50000000E-01  8.50000000E-01  8.50000000E-01
  8.50000000E-01  8.50000000E-01  8.50000000E-01  8.50000000E-01  8.50000000E-01
  8.50000000E-01  8.50000000E-01  8.50000000E-01  8.50000000E-01  8.50000000E-01
  8.50000000E-01  8.50000000E-01  8.50000000E-01  8.50000000E-01  8.50000000E-01
  8.50000000E-01  8.50000000E-01  8.50000000E-01  8.50000000E-01  8.50000000E-01
  8.50000000E-01  8.50000000E-01  8.50000000E-01  8.50000000E-01  8.50000000E-01
  8.50000000E-01  8.50000000E-01  8.50000000E-01  8.50000000E-01  8.50000000E-01
  8.50000000E-01  8.50000000E-01  8.50000000E-01  8.50000000E-01  8.50000000E-01
  8.50000000E-01  8.50000000E-01  8.50000000E-01  8.50000000E-01  8.50000000E-01
  8.50000000E-01  8.50000000E-01  8.50000000E-01  8.50000000E-01  8.50000000E-01
  8.50000000E-01  8.50000000E-01  8.50000000E-01  8.50000000E-01  8.50000000E-01
  8.50000000E-01  8.50000000E-01  8.50000000E-01  8.50000000E-01  8.50000000E-01
  8.50000000E-01  8.50000000E-01  8.50000000E-01  8.50000000E-01  8.50000000E-01
  8.50000000E-01  8.50000000E-01  8.50000000E-01  8.50000000E-01  8.50000000E-01
  8.50000000E-01  8.50000000E-01  8.50000000E-01  8.50000000E-01  8.50000000E-01
  8.50000000E-01  8.50000000E-01  8.50000000E-01  8.50000000E-01  8.50000000E-01
  8.50000000E-01  8.50000000E-01  8.50000000E-01  8.50000000E-01  8.50000000E-01
  8.50000000E-01  8.50000000E-01  8.50000000E-01  8.50000000E-01  8.50000000E-01
  8.50000000E-01  8.50000000E-01  8.50000000E-01  8.50000000E-01  8.50000000E-01
  8.50000000E-01  8.50000000E-01  8.50000000E-01  8.50000000E-01  8.50000000E-01
  8.50000000E-01  8.50000000E-01  8.50000000E-01  8.50000000E-01  8.50000000E-01
  8.50000000E-01  8.50000000E-01  8.50000000E-01  8.50000000E-01  8.50000000E-01
  8.50000000E-01  8.50000000E-01  8.50000000E-01  8.50000000E-01  8.50000000E-01
  8.50000000E-01  8.50000000E-01  8.50000000E-01  8.50000000E-01  8.50000000E-01
  8.50000000E-01  8.50000000E-01  8.50000000E-01  8.50000000E-01  8.50000000E-01
  8.50000000E-01  8.50000000E-01  8.50000000E-01  8.50000000E-01  8.50000000E-01
  8.50000000E-01  8.50000000E-01  8.50000000E-01  8.50000000E-01  8.50000000E-01
  8.50000000E-01  8.50000000E-01  8.50000000E-01  8.50000000E-01  8.50000000E-01
  8.50000000E-01  8.50000000E-01  8.50000000E-01  8.50000000E-01  8.50000000E-01
  8.50000000E-01  8.50000000E-01  8.50000000E-01  8.50000000E-01  8.50000000E-01
  8.50000000E-01  8.50000000E-01  8.50000000E-01  8.50000000E-01  8.50000000E-01
  8.50000000E-01  8.50000000E-01  8.50000000E-01  8.50000000E-01  8.50000000E-01
  8.50000000E-01  8.50000000E-01  8.50000000E-01  8.50000000E-01  8.50000000E-01
  8.50000000E-01  8.50000000E-01  8.50000000E-01  8.50000000E-01  8.50000000E-01
  8.50000000E-01  8.50000000E-01  8.50000000E-01  8.50000000E-01  8.50000000E-01
  8.50000000E-01  8.50000000E-01  8.50000000E-01  8.50000000E-01  8.50000000E-01
  8.50000000E-01  8.50000000E-01  8.50000000E-01  8.50000000E-01  8.50000000E-01
  8.50000000E-01  8.50000000E-01  8.50000000E-01  8.50000000E-01  8.50000000E-01
  8.50000000E-01  8.50000000E-01  8.50000000E-01  8.50000000E-01  8.50000000E-01
  8.50000000E-01  8.50000000E-01  8.50000000E-01  8.50000000E-01  8.50000000E-01
  8.50000000E-01  8.50000000E-01  8.50000000E-01  8.50000000E-01  8.50000000E-01
  8.50000000E-01  8.50000000E-01  8.50000000E-01  8.50000000E-01  8.50000000E-01
  8.50000000E-01  8.50000000E-01  8.50000000E-01  8.50000000E-01  8.50000000E-01
  8.50000000E-01  8.50000000E-01  8.50000000E-01  8.50000000E-01  8.50000000E-01
  8.50000000E-01  8.50000000E-01  8.50000000E-01  8.50000000E-01  8.50000000E-01
  8.50000000E-01  8.50000000E-01  8.50000000E-01  8.50000000E-01  8.50000000E-01
  8.50000000E-01  8.50000000E-01  8.50000000E-01  8.50000000E-01  8.50000000E-01
  8.50000000E-01  8.50000000E-01  8.50000000E-01  8.50000000E-01  8.50000000E-01
  8.50000000E-01  8.50000000E-01  8.50000000E-01  8.50000000E-01  8.50000000E-01
  8.50000000E-01  8.50000000E-01  8.50000000E-01  8.50000000E-01  8.50000000E-01
  8.50000000E-01  8.50000000E-01  8.50000000E-01  8.50000000E-01  8.50000000E-01
  8.50000000E-01  8.50000000E-01  8.50000000E-01  8.50000000E-01  8.50000000E-01
  8.50000000E-01  8.50000000E-01  8.50000000E-01  8.50000000E-01  8.50000000E-01
  8.50000000E-01  8.50000000E-01  8.50000000E-01  8.50000000E-01  8.50000000E-01
  8.50000000E-01  8.50000000E-01  8.50000000E-01  8.50000000E-01  8.50000000E-01
  8.50000000E-01  8.50000000E-01  8.50000000E-01  8.50000000E-01  8.50000000E-01
  8.50000000E-01  8.50000000E-01  8.50000000E-01  8.50000000E-01  8.50000000E-01
  8.50000000E-01  8.50000000E-01  8.50000000E-01  8.50000000E-01  8.50000000E-01
  8.50000000E-01  8.50000000E-01  8.50000000E-01  8.50000000E-01  8.50000000E-01
  8.50000000E-01  8.50000000E-01  8.50000000E-01  8.50000000E-01  8.50000000E-01
  8.50000000E-01  8.50000000E-01  8.50000000E-01  8.50000000E-01  8.50000000E-01
  8.50000000E-01  8.50000000E-01  8.50000000E-01  8.50000000E-01  8.50000000E-01
  8.50000000E-01  8.50000000E-01  8.50000000E-01  8.50000000E-01  8.50000000E-01
  8.50000000E-01  8.50000000E-01  8.50000000E-01  8.50000000E-01  8.50000000E-01
  8.50000000E-01  8.50000000E-01  8.50000000E-01  8.50000000E-01  8.50000000E-01
  8.50000000E-01  8.50000000E-01  8.50000000E-01  8.50000000E-01  8.50000000E-01
  8.50000000E-01  8.50000000E-01  8.50000000E-01  8.50000000E-01  8.50000000E-01
  8.50000000E-01  8.50000000E-01  8.50000000E-01  8.50000000E-01  8.50000000E-01
  8.50000000E-01  8.50000000E-01  8.50000000E-01  8.50000000E-01  8.50000000E-01
  8.50000000E-01  8.50000000E-01  8.50000000E-01  8.50000000E-01  8.50000000E-01
  8.50000000E-01  8.50000000E-01  8.50000000E-01  8.50000000E-01  8.50000000E-01
  8.50000000E-01  8.50000000E-01  8.50000000E-01  8.50000000E-01  8.50000000E-01
  8.50000000E-01  8.50000000E-01  8.50000000E-01  8.50000000E-01  8.50000000E-01
  8.50000000E-01  8.50000000E-01  8.50000000E-01  8.50000000E-01  8.50000000E-01
  8.50000000E-01  8.50000000E-01  8.50000000E-01  8.50000000E-01  8.50000000E-01
  8.50000000E-01  8.50000000E-01  8.50000000E-01  8.50000000E-01  8.50000000E-01
  8.50000000E-01  8.50000000E-01  8.50000000E-01  8.50000000E-01  8.50000000E-01
  8.50000000E-01  8.50000000E-01  8.50000000E-01  8.50000000E-01  8.50000000E-01
  8.50000000E-01  8.50000000E-01  8.50000000E-01  8.50000000E-01  8.50000000E-01
  8.50000000E-01  8.50000000E-01  8.50000000E-01  8.50000000E-01  8.50000000E-01
  8.50000000E-01  8.50000000E-01  8.50000000E-01  8.50000000E-01  8.50000000E-01
  8.50000000E-01  8.50000000E-01  8.50000000E-01  8.50000000E-01  8.50000000E-01
  8.50000000E-01  8.50000000E-01  8.50000000E-01  8.50000000E-01  8.50000000E-01
  8.50000000E-01  8.50000000E-01  8.50000000E-01  8.50000000E-01  8.50000000E-01
  8.50000000E-01  8.50000000E-01  8.50000000E-01  8.50000000E-01  8.50000000E-01
  8.50000000E-01  8.50000000E-01  8.50000000E-01  8.50000000E-01  8.50000000E-01
  8.50000000E-01  8.50000000E-01  8.50000000E-01  8.50000000E-01  8.50000000E-01
  8.50000000E-01  8.50000000E-01  8.50000000E-01  8.50000000E-01  8.50000000E-01
  8.50000000E-01  8.50000000E-01  8.50000000E-01  8.50000000E-01  8.50000000E-01
  8.50000000E-01  8.50000000E-01  8.50000000E-01  8.50000000E-01  8.50000000E-01
  8.50000000E-01  8.50000000E-01  8.50000000E-01  8.50000000E-01  8.50000000E-01
  8.50000000E-01  8.50000000E-01  8.50000000E-01  8.50000000E-01  8.50000000E-01
  8.50000000E-01  8.50000000E-01  8.50000000E-01  8.50000000E-01  8.50000000E-01
  8.50000000E-01  8.50000000E-01  8.50000000E-01  8.50000000E-01  8.50000000E-01
  8.50000000E-01  8.50000000E-01  8.50000000E-01  8.50000000E-01  8.50000000E-01
  8.50000000E-01  8.50000000E-01  8.50000000E-01  8.50000000E-01  8.50000000E-01
  8.50000000E-01  8.50000000E-01  8.50000000E-01  8.50000000E-01  8.50000000E-01
  8.50000000E-01  8.50000000E-01  8.50000000E-01  8.50000000E-01  8.50000000E-01
  8.50000000E-01  8.50000000E-01  8.50000000E-01  8.50000000E-01  8.50000000E-01
  8.50000000E-01  8.50000000E-01  8.50000000E-01  8.50000000E-01  8.50000000E-01
  8.50000000E-01  8.50000000E-01  8.50000000E-01  8.50000000E-01  8.50000000E-01
  8.50000000E-01  8.50000000E-01  8.50000000E-01  8.50000000E-01  8.50000000E-01
  8.50000000E-01  8.50000000E-01  8.50000000E-01  8.50000000E-01  8.50000000E-01
  8.50000000E-01  8.50000000E-01  8.50000000E-01  8.50000000E-01  8.50000000E-01
  8.50000000E-01  8.50000000E-01  8.50000000E-01  8.50000000E-01  8.50000000E-01
  8.50000000E-01  8.50000000E-01  8.50000000E-01  8.50000000E-01  8.50000000E-01
  8.50000000E-01  8.50000000E-01  8.50000000E-01  8.50000000E-01  8.50000000E-01
  8.50000000E-01  8.50000000E-01  8.50000000E-01  8.50000000E-01  8.50000000E-01
  8.50000000E-01  8.50000000E-01  8.50000000E-01  8.50000000E-01  8.50000000E-01
  8.50000000E-01  8.50000000E-01  8.50000000E-01  8.50000000E-01  8.50000000E-01
  8.50000000E-01  8.50000000E-01  8.50000000E-01  8.50000000E-01  8.50000000E-01
  8.50000000E-01  8.50000000E-01  8.50000000E-01  8.50000000E-01  8.50000000E-01
  8.50000000E-01  8.50000000E-01  8.50000000E-01  8.50000000E-01  8.50000000E-01
  8.50000000E-01  8.50000000E-01  8.50000000E-01  8.50000000E-01  8.50000000E-01
  8.50000000E-01  8.50000000E-01  8.50000000E-01  8.50000000E-01  8.50000000E-01
  8.50000000E-01  8.50000000E-01  8.50000000E-01  8.50000000E-01  8.50000000E-01
  8.50000000E-01  8.50000000E-01  8.50000000E-01  8.50000000E-01  8.50000000E-01
  8.50000000E-01  8.50000000E-01  8.50000000E-01  8.50000000E-01  8.50000000E-01
  8.50000000E-01  8.50000000E-01  8.50000000E-01  8.50000000E-01  8.50000000E-01
  8.50000000E-01  8.50000000E-01  8.50000000E-01  8.50000000E-01  8.50000000E-01
  8.50000000E-01  8.50000000E-01  8.50000000E-01  8.50000000E-01  8.50000000E-01
  8.50000000E-01  8.50000000E-01  8.50000000E-01  8.50000000E-01  8.50000000E-01
  8.50000000E-01  8.50000000E-01  8.50000000E-01  8.50000000E-01  8.50000000E-01
  8.50000000E-01  8.50000000E-01  8.50000000E-01  8.50000000E-01  8.50000000E-01
  8.50000000E-01  8.50000000E-01  8.50000000E-01  8.50000000E-01  8.50000000E-01
  8.50000000E-01  8.50000000E-01  8.50000000E-01  8.50000000E-01  8.50000000E-01
  8.50000000E-01  8.50000000E-01  8.50000000E-01  8.50000000E-01  8.50000000E-01
  8.50000000E-01  8.50000000E-01  8.50000000E-01  8.50000000E-01  8.50000000E-01
  8.50000000E-01  8.50000000E-01  8.50000000E-01  8.50000000E-01  8.50000000E-01
  8.50000000E-01  8.50000000E-01  8.50000000E-01  8.50000000E-01  8.50000000E-01
  8.50000000E-01  8.50000000E-01  8.50000000E-01  8.50000000E-01  8.50000000E-01
  8.50000000E-01  8.50000000E-01  8.50000000E-01  8.50000000E-01  8.50000000E-01
  8.50000000E-01  8.50000000E-01  8.50000000E-01  8.50000000E-01  8.50000000E-01
  8.50000000E-01  8.50000000E-01  8.50000000E-01  8.50000000E-01  8.50000000E-01
  8.50000000E-01  8.50000000E-01  8.50000000E-01  8.50000000E-01  8.50000000E-01
  8.50000000E-01  8.50000000E-01  8.50000000E-01  8.50000000E-01  8.50000000E-01
  8.50000000E-01  8.50000000E-01  8.50000000E-01  8.50000000E-01  8.50000000E-01
  8.50000000E-01  8.50000000E-01  8.50000000E-01  8.50000000E-01  8.50000000E-01
  8.50000000E-01  8.50000000E-01  8.50000000E-01  8.50000000E-01  8.50000000E-01
  8.50000000E-01  8.50000000E-01  8.50000000E-01  8.50000000E-01  8.50000000E-01
  8.50000000E-01  8.50000000E-01  8.50000000E-01  8.50000000E-01  8.50000000E-01
  8.50000000E-01  8.50000000E-01  8.50000000E-01  8.50000000E-01  8.50000000E-01
  8.50000000E-01  8.50000000E-01  8.50000000E-01  8.50000000E-01  8.50000000E-01
  8.50000000E-01  8.50000000E-01  8.50000000E-01  8.50000000E-01  8.50000000E-01
  8.50000000E-01  8.50000000E-01  8.50000000E-01  8.50000000E-01  8.50000000E-01
  8.50000000E-01  8.50000000E-01  8.50000000E-01  8.50000000E-01  8.50000000E-01
  8.50000000E-01  8.50000000E-01  8.50000000E-01  8.50000000E-01  8.50000000E-01
  8.50000000E-01  8.50000000E-01  8.50000000E-01  8.50000000E-01  8.50000000E-01
  8.50000000E-01  8.50000000E-01  8.50000000E-01  8.50000000E-01  8.50000000E-01
  8.50000000E-01  8.50000000E-01  8.50000000E-01  8.50000000E-01  8.50000000E-01
  8.50000000E-01  8.50000000E-01  8.50000000E-01  8.50000000E-01  8.50000000E-01
  8.50000000E-01  8.50000000E-01  8.50000000E-01  8.50000000E-01  8.50000000E-01
  8.50000000E-01  8.50000000E-01  8.50000000E-01  8.50000000E-01  8.50000000E-01
  8.50000000E-01  8.50000000E-01  8.50000000E-01  8.50000000E-01  8.50000000E-01
  8.50000000E-01  8.50000000E-01  8.50000000E-01  8.50000000E-01  8.50000000E-01
  8.50000000E-01  8.50000000E-01  8.50000000E-01  8.50000000E-01  8.50000000E-01
  8.50000000E-01  8.50000000E-01  8.50000000E-01  8.50000000E-01  8.50000000E-01
  8.50000000E-01  8.50000000E-01  8.50000000E-01  8.50000000E-01  8.50000000E-01
  8.50000000E-01  8.50000000E-01  8.50000000E-01  8.50000000E-01  8.50000000E-01
  8.50000000E-01  8.50000000E-01  8.50000000E-01  8.50000000E-01  8.50000000E-01
  8.50000000E-01  8.50000000E-01  8.50000000E-01  8.50000000E-01  8.50000000E-01
  8.50000000E-01  8.50000000E-01  8.50000000E-01  8.50000000E-01  8.50000000E-01
  8.50000000E-01  8.50000000E-01  8.50000000E-01  8.50000000E-01  8.50000000E-01
  8.50000000E-01  8.50000000E-01  8.50000000E-01  8.50000000E-01  8.50000000E-01
  8.50000000E-01  8.50000000E-01  8.50000000E-01  8.50000000E-01  8.50000000E-01
  8.50000000E-01  8.50000000E-01  8.50000000E-01  8.50000000E-01  8.50000000E-01
  8.50000000E-01  8.50000000E-01  8.50000000E-01  8.50000000E-01  8.50000000E-01
  8.50000000E-01  8.50000000E-01  8.50000000E-01  8.50000000E-01  8.50000000E-01
  8.50000000E-01  8.50000000E-01  8.50000000E-01  8.50000000E-01  8.50000000E-01
  8.50000000E-01  8.50000000E-01  8.50000000E-01  8.50000000E-01  8.50000000E-01
  8.50000000E-01  8.50000000E-01  8.50000000E-01  8.50000000E-01  8.50000000E-01
  8.50000000E-01  8.50000000E-01  8.50000000E-01  8.50000000E-01  8.50000000E-01
  8.50000000E-01  8.50000000E-01  8.50000000E-01  8.50000000E-01  8.50000000E-01
  8.50000000E-01  8.50000000E-01  8.50000000E-01  8.50000000E-01  8.50000000E-01
  8.50000000E-01  8.50000000E-01  8.50000000E-01  8.50000000E-01  8.50000000E-01
  8.50000000E-01  8.50000000E-01  8.50000000E-01  8.50000000E-01  8.50000000E-01
  8.50000000E-01  8.50000000E-01  8.50000000E-01  8.50000000E-01  8.50000000E-01
  8.50000000E-01  8.50000000E-01  8.50000000E-01  8.50000000E-01  8.50000000E-01
  8.50000000E-01  8.50000000E-01  8.50000000E-01  8.50000000E-01  8.50000000E-01
  8.50000000E-01  8.50000000E-01  8.50000000E-01  8.50000000E-01  8.50000000E-01
  8.50000000E-01  8.50000000E-01  8.50000000E-01  8.50000000E-01  8.50000000E-01
  8.50000000E-01  8.50000000E-01  8.50000000E-01  8.50000000E-01  8.50000000E-01
  8.50000000E-01  8.50000000E-01  8.50000000E-01  8.50000000E-01  8.50000000E-01
  8.50000000E-01  8.50000000E-01  8.50000000E-01  8.50000000E-01  8.50000000E-01
  8.50000000E-01  8.50000000E-01  8.50000000E-01  8.50000000E-01  8.50000000E-01
  8.50000000E-01  8.50000000E-01  8.50000000E-01  8.50000000E-01  8.50000000E-01
  8.50000000E-01  8.50000000E-01  8.50000000E-01  8.50000000E-01  8.50000000E-01
  8.50000000E-01  8.50000000E-01  8.50000000E-01  8.50000000E-01  8.50000000E-01
  8.50000000E-01  8.50000000E-01  8.50000000E-01  8.50000000E-01  8.50000000E-01
  8.50000000E-01  8.50000000E-01  8.50000000E-01  8.50000000E-01  8.50000000E-01
  8.50000000E-01  8.50000000E-01  8.50000000E-01  8.50000000E-01  8.50000000E-01
  8.50000000E-01  8.50000000E-01  8.50000000E-01  8.50000000E-01  8.50000000E-01
  8.50000000E-01  8.50000000E-01  8.50000000E-01  8.50000000E-01  8.50000000E-01
  8.50000000E-01  8.50000000E-01  8.50000000E-01  8.50000000E-01  8.50000000E-01
  8.50000000E-01  8.50000000E-01  8.50000000E-01  8.50000000E-01  8.50000000E-01
  8.50000000E-01  8.50000000E-01  8.50000000E-01  8.50000000E-01  8.50000000E-01
  8.50000000E-01  8.50000000E-01  8.50000000E-01  8.50000000E-01  8.50000000E-01
  8.50000000E-01  8.50000000E-01  8.50000000E-01  8.50000000E-01  8.50000000E-01
  8.50000000E-01  8.50000000E-01  8.50000000E-01  8.50000000E-01  8.50000000E-01
  8.50000000E-01  8.50000000E-01  8.50000000E-01  8.50000000E-01  8.50000000E-01
  8.50000000E-01  8.50000000E-01  8.50000000E-01  8.50000000E-01  8.50000000E-01
  8.50000000E-01  8.50000000E-01  8.50000000E-01  8.50000000E-01  8.50000000E-01
  8.50000000E-01  8.50000000E-01  8.50000000E-01  8.50000000E-01  8.50000000E-01
  8.50000000E-01  8.50000000E-01  8.50000000E-01  8.50000000E-01  8.50000000E-01
  8.50000000E-01  8.50000000E-01  8.50000000E-01  8.50000000E-01  8.50000000E-01
  8.50000000E-01  8.50000000E-01  8.50000000E-01  8.50000000E-01  8.50000000E-01
  8.50000000E-01  8.50000000E-01  8.50000000E-01  8.50000000E-01  8.50000000E-01
  8.50000000E-01  8.50000000E-01  8.50000000E-01  8.50000000E-01  8.50000000E-01
  8.50000000E-01  8.50000000E-01  8.50000000E-01  8.50000000E-01  8.50000000E-01
  8.50000000E-01  8.50000000E-01  8.50000000E-01  8.50000000E-01  8.50000000E-01
  8.50000000E-01  8.50000000E-01  8.50000000E-01  8.50000000E-01  8.50000000E-01
  8.50000000E-01  8.50000000E-01  8.50000000E-01  8.50000000E-01  8.50000000E-01
  8.50000000E-01  8.50000000E-01  8.50000000E-01  8.50000000E-01  8.50000000E-01
  8.50000000E-01  8.50000000E-01  8.50000000E-01  8.50000000E-01  8.50000000E-01
  8.50000000E-01  8.50000000E-01  8.50000000E-01  8.50000000E-01  8.50000000E-01
  8.50000000E-01  8.50000000E-01  8.50000000E-01  8.50000000E-01  8.50000000E-01
  8.50000000E-01  8.50000000E-01  8.50000000E-01  8.50000000E-01  8.50000000E-01
  8.50000000E-01  8.50000000E-01  8.50000000E-01  8.50000000E-01  8.50000000E-01
  8.50000000E-01  8.50000000E-01  8.50000000E-01  8.50000000E-01  8.50000000E-01
  8.50000000E-01  8.50000000E-01  8.50000000E-01  8.50000000E-01  8.50000000E-01
  8.50000000E-01  8.50000000E-01  8.50000000E-01  8.50000000E-01  8.50000000E-01
  8.50000000E-01  8.50000000E-01  8.50000000E-01  8.50000000E-01  8.50000000E-01
  8.50000000E-01  8.50000000E-01  8.50000000E-01  8.50000000E-01  8.50000000E-01
  8.50000000E-01  8.50000000E-01  8.50000000E-01  8.50000000E-01  8.50000000E-01
  8.50000000E-01  8.50000000E-01  8.50000000E-01  8.50000000E-01  8.50000000E-01
  8.50000000E-01  8.50000000E-01  8.50000000E-01  8.50000000E-01  8.50000000E-01
  8.50000000E-01  8.50000000E-01  8.50000000E-01  8.50000000E-01  8.50000000E-01
  8.50000000E-01  8.50000000E-01  8.50000000E-01  8.50000000E-01  8.50000000E-01
  8.50000000E-01  8.50000000E-01  8.50000000E-01  8.50000000E-01  8.50000000E-01
  8.50000000E-01  8.50000000E-01  8.50000000E-01  8.50000000E-01  8.50000000E-01
  8.50000000E-01  8.50000000E-01  8.50000000E-01  8.50000000E-01  8.50000000E-01
  8.50000000E-01  8.50000000E-01  8.50000000E-01  8.50000000E-01  8.50000000E-01
  8.50000000E-01  8.50000000E-01  8.50000000E-01  8.50000000E-01  8.50000000E-01
  8.50000000E-01  8.50000000E-01  8.50000000E-01  8.50000000E-01  8.50000000E-01
  8.50000000E-01  8.50000000E-01  8.50000000E-01  8.50000000E-01  8.50000000E-01
  8.50000000E-01  8.50000000E-01  8.50000000E-01  8.50000000E-01  8.50000000E-01
  8.50000000E-01  8.50000000E-01  8.50000000E-01  8.50000000E-01  8.50000000E-01
  8.50000000E-01  8.50000000E-01  8.50000000E-01  8.50000000E-01  8.50000000E-01
  8.50000000E-01  8.50000000E-01  8.50000000E-01  8.50000000E-01  8.50000000E-01
  8.50000000E-01  8.50000000E-01  8.50000000E-01  8.50000000E-01  8.50000000E-01
  8.50000000E-01  8.50000000E-01  8.50000000E-01  8.50000000E-01  8.50000000E-01
  8.50000000E-01  8.50000000E-01  8.50000000E-01  8.50000000E-01  8.50000000E-01
  8.50000000E-01  8.50000000E-01  8.50000000E-01  8.50000000E-01  8.50000000E-01
  8.50000000E-01  8.50000000E-01  8.50000000E-01  8.50000000E-01  8.50000000E-01
  8.50000000E-01  8.50000000E-01  8.50000000E-01  8.50000000E-01  8.50000000E-01
  8.50000000E-01  8.50000000E-01  8.50000000E-01  8.50000000E-01  8.50000000E-01
  8.50000000E-01  8.50000000E-01  8.50000000E-01  8.50000000E-01  8.50000000E-01
  8.50000000E-01  8.50000000E-01  8.50000000E-01  8.50000000E-01  8.50000000E-01
  8.50000000E-01  8.50000000E-01  8.50000000E-01  8.50000000E-01  8.50000000E-01
  8.50000000E-01  8.50000000E-01  8.50000000E-01  8.50000000E-01  8.50000000E-01
  8.50000000E-01  8.50000000E-01  8.50000000E-01  8.50000000E-01  8.50000000E-01
  8.50000000E-01  8.50000000E-01  8.50000000E-01  8.50000000E-01  8.50000000E-01
  8.50000000E-01  8.50000000E-01  8.50000000E-01  8.50000000E-01  8.50000000E-01
  8.50000000E-01  8.50000000E-01  8.50000000E-01  8.50000000E-01  8.50000000E-01
  8.50000000E-01  8.50000000E-01  8.50000000E-01  8.50000000E-01  8.50000000E-01
  8.50000000E-01  8.50000000E-01  8.50000000E-01  8.50000000E-01  8.50000000E-01
  8.50000000E-01  8.50000000E-01  8.50000000E-01  8.50000000E-01  8.50000000E-01
  8.50000000E-01  8.50000000E-01  8.50000000E-01  8.50000000E-01  8.50000000E-01
  8.50000000E-01  8.50000000E-01  8.50000000E-01  8.50000000E-01  8.50000000E-01
  8.50000000E-01  8.50000000E-01  8.50000000E-01  8.50000000E-01  8.50000000E-01
  8.50000000E-01  8.50000000E-01  8.50000000E-01  8.50000000E-01  8.50000000E-01
  8.50000000E-01  8.50000000E-01  8.50000000E-01  8.50000000E-01  8.50000000E-01
  8.50000000E-01  8.50000000E-01  8.50000000E-01  8.50000000E-01  8.50000000E-01
  8.50000000E-01  8.50000000E-01  8.50000000E-01  8.50000000E-01  8.50000000E-01
  8.50000000E-01  8.50000000E-01  8.50000000E-01  8.50000000E-01  8.50000000E-01
  8.50000000E-01  8.50000000E-01  8.50000000E-01  8.50000000E-01  8.50000000E-01
  8.50000000E-01  8.50000000E-01  8.50000000E-01  8.50000000E-01  8.50000000E-01
  8.50000000E-01  8.50000000E-01  8.50000000E-01  8.50000000E-01  8.50000000E-01
  8.50000000E-01  8.50000000E-01  8.50000000E-01  8.50000000E-01  8.50000000E-01
  8.50000000E-01  8.50000000E-01  8.50000000E-01  8.50000000E-01  8.50000000E-01
  8.50000000E-01  8.50000000E-01  8.50000000E-01  8.50000000E-01  8.50000000E-01
  8.50000000E-01  8.50000000E-01  8.50000000E-01  8.50000000E-01  8.50000000E-01
  8.50000000E-01  8.50000000E-01  8.50000000E-01  8.50000000E-01  8.50000000E-01
  8.50000000E-01  8.50000000E-01  8.50000000E-01  8.50000000E-01  8.50000000E-01
  8.50000000E-01  8.50000000E-01  8.50000000E-01  8.50000000E-01  8.50000000E-01
  8.50000000E-01  8.50000000E-01  8.50000000E-01  8.50000000E-01  8.50000000E-01
  8.50000000E-01  8.50000000E-01  8.50000000E-01  8.50000000E-01  8.50000000E-01
  8.50000000E-01  8.50000000E-01  8.50000000E-01  8.50000000E-01  8.50000000E-01
  8.50000000E-01  8.50000000E-01  8.50000000E-01  8.50000000E-01  8.50000000E-01
  8.50000000E-01  8.50000000E-01  8.50000000E-01  8.50000000E-01  8.50000000E-01
  8.50000000E-01  8.50000000E-01  8.50000000E-01  8.50000000E-01  8.50000000E-01
  8.50000000E-01  8.50000000E-01  8.50000000E-01  8.50000000E-01  8.50000000E-01
  8.50000000E-01  8.50000000E-01  8.50000000E-01  8.50000000E-01  8.50000000E-01
  8.50000000E-01  8.50000000E-01  8.50000000E-01  8.50000000E-01  8.50000000E-01
  8.50000000E-01  8.50000000E-01  8.50000000E-01  8.50000000E-01  8.50000000E-01
  8.50000000E-01  8.50000000E-01  8.50000000E-01  8.50000000E-01  8.50000000E-01
  8.50000000E-01  8.50000000E-01  8.50000000E-01  8.50000000E-01  8.50000000E-01
  8.50000000E-01  8.50000000E-01  8.50000000E-01  8.50000000E-01  8.50000000E-01
  8.50000000E-01  8.50000000E-01  8.50000000E-01  8.50000000E-01  8.50000000E-01
  8.50000000E-01  8.50000000E-01  8.50000000E-01  8.50000000E-01  8.50000000E-01
  8.50000000E-01  8.50000000E-01  8.50000000E-01  8.50000000E-01  8.50000000E-01
  8.50000000E-01  8.50000000E-01  8.50000000E-01  8.50000000E-01  8.50000000E-01
  8.50000000E-01  8.50000000E-01  8.50000000E-01  8.50000000E-01  8.50000000E-01
  8.50000000E-01  8.50000000E-01  8.50000000E-01  8.50000000E-01  8.50000000E-01
  8.50000000E-01  8.50000000E-01  8.50000000E-01  8.50000000E-01  8.50000000E-01
  8.50000000E-01  8.50000000E-01  8.50000000E-01  8.50000000E-01  8.50000000E-01
  8.50000000E-01  8.50000000E-01  8.50000000E-01  8.50000000E-01  8.50000000E-01
  8.50000000E-01  8.50000000E-01  8.50000000E-01  8.50000000E-01  8.50000000E-01
  8.50000000E-01  8.50000000E-01  8.50000000E-01  8.50000000E-01  8.50000000E-01
  8.50000000E-01  8.50000000E-01  8.50000000E-01  8.50000000E-01  8.50000000E-01
  8.50000000E-01  8.50000000E-01  8.50000000E-01  8.50000000E-01  8.50000000E-01
  8.50000000E-01  8.50000000E-01  8.50000000E-01  8.50000000E-01  8.50000000E-01
  8.50000000E-01  8.50000000E-01  8.50000000E-01  8.50000000E-01  8.50000000E-01
  8.50000000E-01  8.50000000E-01  8.50000000E-01  8.50000000E-01  8.50000000E-01
  8.50000000E-01  8.50000000E-01  8.50000000E-01  8.50000000E-01  8.50000000E-01
  8.50000000E-01  8.50000000E-01  8.50000000E-01  8.50000000E-01  8.50000000E-01
  8.50000000E-01  8.50000000E-01  8.50000000E-01  8.50000000E-01  8.50000000E-01
  8.50000000E-01  8.50000000E-01  8.50000000E-01  8.50000000E-01  8.50000000E-01
  8.50000000E-01  8.50000000E-01  8.50000000E-01  8.50000000E-01  8.50000000E-01
  8.50000000E-01  8.50000000E-01  8.50000000E-01  8.50000000E-01  8.50000000E-01
  8.50000000E-01  8.50000000E-01  8.50000000E-01  8.50000000E-01  8.50000000E-01
  8.50000000E-01  8.50000000E-01  8.50000000E-01  8.50000000E-01  8.50000000E-01
  8.50000000E-01  8.50000000E-01  8.50000000E-01  8.50000000E-01  8.50000000E-01
  8.50000000E-01  8.50000000E-01  8.50000000E-01  8.50000000E-01  8.50000000E-01
  8.50000000E-01  8.50000000E-01  8.50000000E-01  8.50000000E-01  8.50000000E-01
  8.50000000E-01  8.50000000E-01  8.50000000E-01  8.50000000E-01  8.50000000E-01
  8.50000000E-01  8.50000000E-01  8.50000000E-01  8.50000000E-01  8.50000000E-01
  8.50000000E-01  8.50000000E-01  8.50000000E-01  8.50000000E-01  8.50000000E-01
  8.50000000E-01  8.50000000E-01  8.50000000E-01  8.50000000E-01  8.50000000E-01
  8.50000000E-01  8.50000000E-01  8.50000000E-01  8.50000000E-01  8.50000000E-01
  8.50000000E-01  8.50000000E-01  8.50000000E-01  8.50000000E-01  8.50000000E-01
  8.50000000E-01  8.50000000E-01  8.50000000E-01  8.50000000E-01  8.50000000E-01
  8.50000000E-01  8.50000000E-01  8.50000000E-01  8.50000000E-01  8.50000000E-01
  8.50000000E-01  8.50000000E-01  8.50000000E-01  8.50000000E-01  8.50000000E-01
  8.50000000E-01  8.50000000E-01  8.50000000E-01  8.50000000E-01  8.50000000E-01
  8.50000000E-01  8.50000000E-01  8.50000000E-01  8.50000000E-01  8.50000000E-01
  8.50000000E-01  8.50000000E-01  8.50000000E-01  8.50000000E-01  8.50000000E-01
  8.50000000E-01  8.50000000E-01  8.50000000E-01  8.50000000E-01  8.50000000E-01
  8.50000000E-01  8.50000000E-01  8.50000000E-01  8.50000000E-01  8.50000000E-01
  8.50000000E-01  8.50000000E-01  8.50000000E-01  8.50000000E-01  8.50000000E-01
  8.50000000E-01  8.50000000E-01  8.50000000E-01  8.50000000E-01  8.50000000E-01
  8.50000000E-01  8.50000000E-01  8.50000000E-01  8.50000000E-01  8.50000000E-01
  8.50000000E-01  8.50000000E-01  8.50000000E-01  8.50000000E-01  8.50000000E-01
  8.50000000E-01  8.50000000E-01  8.50000000E-01  8.50000000E-01  8.50000000E-01
  8.50000000E-01  8.50000000E-01  8.50000000E-01  8.50000000E-01  8.50000000E-01
  8.50000000E-01  8.50000000E-01  8.50000000E-01  8.50000000E-01  8.50000000E-01
  8.50000000E-01  8.50000000E-01  8.50000000E-01  8.50000000E-01  8.50000000E-01
  8.50000000E-01  8.50000000E-01  8.50000000E-01  8.50000000E-01  8.50000000E-01
  8.50000000E-01  8.50000000E-01  8.50000000E-01  8.50000000E-01  8.50000000E-01
  8.50000000E-01  8.50000000E-01  8.50000000E-01  8.50000000E-01  8.50000000E-01
  8.50000000E-01  8.50000000E-01  8.50000000E-01  8.50000000E-01  8.50000000E-01
  8.50000000E-01  8.50000000E-01  8.50000000E-01  8.50000000E-01  8.50000000E-01
  8.50000000E-01  8.50000000E-01  8.50000000E-01  8.50000000E-01  8.50000000E-01
  8.50000000E-01  8.50000000E-01  8.50000000E-01  8.50000000E-01  8.50000000E-01
  8.50000000E-01  8.50000000E-01  8.50000000E-01  8.50000000E-01  8.50000000E-01
  8.50000000E-01  8.50000000E-01  8.50000000E-01  8.50000000E-01  8.50000000E-01
  8.50000000E-01  8.50000000E-01  8.50000000E-01  8.50000000E-01  8.50000000E-01
  8.50000000E-01  8.50000000E-01  8.50000000E-01  8.50000000E-01  8.50000000E-01
  8.50000000E-01  8.50000000E-01  8.50000000E-01  8.50000000E-01  8.50000000E-01
  8.50000000E-01  8.50000000E-01  8.50000000E-01  8.50000000E-01  8.50000000E-01
  8.50000000E-01  8.50000000E-01  8.50000000E-01  8.50000000E-01  8.50000000E-01
  8.50000000E-01  8.50000000E-01  8.50000000E-01  8.50000000E-01  8.50000000E-01
  8.50000000E-01  8.50000000E-01  8.50000000E-01  8.50000000E-01  8.50000000E-01
  8.50000000E-01  8.50000000E-01  8.50000000E-01  8.50000000E-01  8.50000000E-01
  8.50000000E-01  8.50000000E-01  8.50000000E-01  8.50000000E-01  8.50000000E-01
  8.50000000E-01  8.50000000E-01  8.50000000E-01  8.50000000E-01  8.50000000E-01
  8.50000000E-01  8.50000000E-01  8.50000000E-01  8.50000000E-01  8.50000000E-01
  8.50000000E-01  8.50000000E-01  8.50000000E-01  8.50000000E-01  8.50000000E-01
  8.50000000E-01  8.50000000E-01  8.50000000E-01  8.50000000E-01  8.50000000E-01
  8.50000000E-01  8.50000000E-01  8.50000000E-01  8.50000000E-01  8.50000000E-01
  8.50000000E-01  8.50000000E-01  8.50000000E-01  8.50000000E-01  8.50000000E-01
  8.50000000E-01  8.50000000E-01  8.50000000E-01  8.50000000E-01  8.50000000E-01
  8.50000000E-01  8.50000000E-01  8.50000000E-01  8.50000000E-01  8.50000000E-01
  8.50000000E-01  8.50000000E-01  8.50000000E-01  8.50000000E-01  8.50000000E-01
  8.50000000E-01  8.50000000E-01  8.50000000E-01  8.50000000E-01  8.50000000E-01
  8.50000000E-01  8.50000000E-01  8.50000000E-01  8.50000000E-01  8.50000000E-01
  8.50000000E-01  8.50000000E-01  8.50000000E-01  8.50000000E-01  8.50000000E-01
  8.50000000E-01  8.50000000E-01  8.50000000E-01  8.50000000E-01  8.50000000E-01
  8.50000000E-01  8.50000000E-01  8.50000000E-01  8.50000000E-01  8.50000000E-01
  8.50000000E-01  8.50000000E-01  8.50000000E-01  8.50000000E-01  8.50000000E-01
  8.50000000E-01  8.50000000E-01  8.50000000E-01  8.50000000E-01  8.50000000E-01
  8.50000000E-01  8.50000000E-01  8.50000000E-01  8.50000000E-01  8.50000000E-01
  8.50000000E-01  8.50000000E-01  8.50000000E-01  8.50000000E-01  8.50000000E-01
  8.50000000E-01  8.50000000E-01  8.50000000E-01  8.50000000E-01  8.50000000E-01
  8.50000000E-01  8.50000000E-01  8.50000000E-01  8.50000000E-01  8.50000000E-01
  8.50000000E-01  8.50000000E-01  8.50000000E-01  8.50000000E-01  8.50000000E-01
  8.50000000E-01  8.50000000E-01  8.50000000E-01  8.50000000E-01  8.50000000E-01
  8.50000000E-01  8.50000000E-01  8.50000000E-01  8.50000000E-01  8.50000000E-01
  8.50000000E-01  8.50000000E-01  8.50000000E-01  8.50000000E-01  8.50000000E-01
  8.50000000E-01  8.50000000E-01  8.50000000E-01  8.50000000E-01  8.50000000E-01
  8.50000000E-01  8.50000000E-01  8.50000000E-01  8.50000000E-01  8.50000000E-01
  8.50000000E-01  8.50000000E-01  8.50000000E-01  8.50000000E-01  8.50000000E-01
  8.50000000E-01  8.50000000E-01  8.50000000E-01  8.50000000E-01  8.50000000E-01
  8.50000000E-01  8.50000000E-01  8.50000000E-01  8.50000000E-01  8.50000000E-01
  8.50000000E-01  8.50000000E-01  8.50000000E-01  8.50000000E-01  8.50000000E-01
  8.50000000E-01  8.50000000E-01  8.50000000E-01  8.50000000E-01  8.50000000E-01
  8.50000000E-01  8.50000000E-01  8.50000000E-01  8.50000000E-01  8.50000000E-01
  8.50000000E-01  8.50000000E-01  8.50000000E-01  8.50000000E-01  8.50000000E-01
  8.50000000E-01  8.50000000E-01  8.50000000E-01  8.50000000E-01  8.50000000E-01
  8.50000000E-01  8.50000000E-01  8.50000000E-01  8.50000000E-01  8.50000000E-01
  8.50000000E-01  8.50000000E-01  8.50000000E-01  8.50000000E-01  8.50000000E-01
  8.50000000E-01  8.50000000E-01  8.50000000E-01  8.50000000E-01  8.50000000E-01
  8.50000000E-01  8.50000000E-01  8.50000000E-01  8.50000000E-01  8.50000000E-01
  8.50000000E-01  8.50000000E-01  8.50000000E-01  8.50000000E-01  8.50000000E-01
  8.50000000E-01  8.50000000E-01  8.50000000E-01  8.50000000E-01  8.50000000E-01
  8.50000000E-01  8.50000000E-01  8.50000000E-01  8.50000000E-01  8.50000000E-01
  8.50000000E-01  8.50000000E-01  8.50000000E-01  8.50000000E-01  8.50000000E-01
  8.50000000E-01  8.50000000E-01  8.50000000E-01  8.50000000E-01  8.50000000E-01
  8.50000000E-01  8.50000000E-01  8.50000000E-01  8.50000000E-01  8.50000000E-01
  8.50000000E-01  8.50000000E-01  8.50000000E-01  8.50000000E-01  8.50000000E-01
  8.50000000E-01  8.50000000E-01  8.50000000E-01  8.50000000E-01  8.50000000E-01
  8.50000000E-01  8.50000000E-01  8.50000000E-01  8.50000000E-01  8.50000000E-01
  8.50000000E-01  8.50000000E-01  8.50000000E-01  8.50000000E-01  8.50000000E-01
  8.50000000E-01  8.50000000E-01  8.50000000E-01  8.50000000E-01  8.50000000E-01
  8.50000000E-01  8.50000000E-01  8.50000000E-01  8.50000000E-01  8.50000000E-01
  8.50000000E-01  8.50000000E-01  8.50000000E-01  8.50000000E-01  8.50000000E-01
  8.50000000E-01  8.50000000E-01  8.50000000E-01  8.50000000E-01  8.50000000E-01
  8.50000000E-01  8.50000000E-01  8.50000000E-01  8.50000000E-01  8.50000000E-01
  8.50000000E-01  8.50000000E-01  8.50000000E-01  8.50000000E-01  8.50000000E-01
  8.50000000E-01  8.50000000E-01  8.50000000E-01  8.50000000E-01  8.50000000E-01
  8.50000000E-01  8.50000000E-01  8.50000000E-01  8.50000000E-01  8.50000000E-01
  8.50000000E-01  8.50000000E-01  8.50000000E-01  8.50000000E-01  8.50000000E-01
  8.50000000E-01  8.50000000E-01  8.50000000E-01  8.50000000E-01  8.50000000E-01
  8.50000000E-01  8.50000000E-01  8.50000000E-01  8.50000000E-01  8.50000000E-01
  8.50000000E-01  8.50000000E-01  8.50000000E-01  8.50000000E-01  8.50000000E-01
  8.50000000E-01  8.50000000E-01  8.50000000E-01  8.50000000E-01  8.50000000E-01
  8.50000000E-01  8.50000000E-01  8.50000000E-01  8.50000000E-01  8.50000000E-01
  8.50000000E-01  8.50000000E-01  8.50000000E-01  8.50000000E-01  8.50000000E-01
  8.50000000E-01  8.50000000E-01  8.50000000E-01  8.50000000E-01  8.50000000E-01
  8.50000000E-01  8.50000000E-01  8.50000000E-01  8.50000000E-01  8.50000000E-01
  8.50000000E-01  8.50000000E-01  8.50000000E-01  8.50000000E-01  8.50000000E-01
  8.50000000E-01  8.50000000E-01  8.50000000E-01  8.50000000E-01  8.50000000E-01
  8.50000000E-01  8.50000000E-01  8.50000000E-01  8.50000000E-01  8.50000000E-01
  8.50000000E-01  8.50000000E-01  8.50000000E-01  8.50000000E-01  8.50000000E-01
  8.50000000E-01  8.50000000E-01  8.50000000E-01  8.50000000E-01  8.50000000E-01
  8.50000000E-01  8.50000000E-01  8.50000000E-01  8.50000000E-01  8.50000000E-01
  8.50000000E-01  8.50000000E-01  8.50000000E-01  8.50000000E-01  8.50000000E-01
  8.50000000E-01  8.50000000E-01  8.50000000E-01  8.50000000E-01  8.50000000E-01
  8.50000000E-01  8.50000000E-01  8.50000000E-01  8.50000000E-01  8.50000000E-01
  8.50000000E-01  8.50000000E-01  8.50000000E-01  8.50000000E-01  8.50000000E-01
  8.50000000E-01  8.50000000E-01  8.50000000E-01  8.50000000E-01  8.50000000E-01
  8.50000000E-01  8.50000000E-01  8.50000000E-01  8.50000000E-01  8.50000000E-01
  8.50000000E-01  8.50000000E-01  8.50000000E-01  8.50000000E-01  8.50000000E-01
  8.50000000E-01  8.50000000E-01  8.50000000E-01  8.50000000E-01  8.50000000E-01
  8.50000000E-01  8.50000000E-01  8.50000000E-01  8.50000000E-01  8.50000000E-01
  8.50000000E-01  8.50000000E-01  8.50000000E-01  8.50000000E-01  8.50000000E-01
  8.50000000E-01  8.50000000E-01  8.50000000E-01  8.50000000E-01  8.50000000E-01
  8.50000000E-01  8.50000000E-01  8.50000000E-01  8.50000000E-01  8.50000000E-01
  8.50000000E-01  8.50000000E-01  8.50000000E-01  8.50000000E-01  8.50000000E-01
  8.50000000E-01  8.50000000E-01  8.50000000E-01  8.50000000E-01  8.50000000E-01
  8.50000000E-01  8.50000000E-01  8.50000000E-01  8.50000000E-01  8.50000000E-01
  8.50000000E-01  8.50000000E-01  8.50000000E-01  8.50000000E-01  8.50000000E-01
  8.50000000E-01  8.50000000E-01  8.50000000E-01  8.50000000E-01  8.50000000E-01
  8.50000000E-01  8.50000000E-01  8.50000000E-01  8.50000000E-01  8.50000000E-01
  8.50000000E-01  8.50000000E-01  8.50000000E-01  8.50000000E-01  8.50000000E-01
  8.50000000E-01  8.50000000E-01  8.50000000E-01  8.50000000E-01  8.50000000E-01
  8.50000000E-01  8.50000000E-01  8.50000000E-01  8.50000000E-01  8.50000000E-01
  8.50000000E-01  8.50000000E-01  8.50000000E-01  8.50000000E-01  8.50000000E-01
  8.50000000E-01  8.50000000E-01  8.50000000E-01  8.50000000E-01  8.50000000E-01
  8.50000000E-01  8.50000000E-01  8.50000000E-01  8.50000000E-01  8.50000000E-01
  8.50000000E-01  8.50000000E-01  8.50000000E-01  8.50000000E-01  8.50000000E-01
  8.50000000E-01  8.50000000E-01  8.50000000E-01  8.50000000E-01  8.50000000E-01
  8.50000000E-01  8.50000000E-01  8.50000000E-01  8.50000000E-01  8.50000000E-01
  8.50000000E-01  8.50000000E-01  8.50000000E-01  8.50000000E-01  8.50000000E-01
  8.50000000E-01  8.50000000E-01  8.50000000E-01  8.50000000E-01  8.50000000E-01
  8.50000000E-01  8.50000000E-01  8.50000000E-01  8.50000000E-01  8.50000000E-01
  8.50000000E-01  8.50000000E-01  8.50000000E-01  8.50000000E-01  8.50000000E-01
  8.50000000E-01  8.50000000E-01  8.50000000E-01  8.50000000E-01  8.50000000E-01
  8.50000000E-01  8.50000000E-01  8.50000000E-01  8.50000000E-01  8.50000000E-01
  8.50000000E-01  8.50000000E-01  8.50000000E-01  8.50000000E-01  8.50000000E-01
  8.50000000E-01  8.50000000E-01  8.50000000E-01  8.50000000E-01  8.50000000E-01
  8.50000000E-01  8.50000000E-01  8.50000000E-01  8.50000000E-01  8.50000000E-01
  8.50000000E-01  8.50000000E-01  8.50000000E-01  8.50000000E-01  8.50000000E-01
  8.50000000E-01  8.50000000E-01  8.50000000E-01  8.50000000E-01  8.50000000E-01
  8.50000000E-01  8.50000000E-01  8.50000000E-01  8.50000000E-01  8.50000000E-01
  8.50000000E-01  8.50000000E-01  8.50000000E-01  8.50000000E-01  8.50000000E-01
  8.50000000E-01  8.50000000E-01  8.50000000E-01  8.50000000E-01  8.50000000E-01
  8.50000000E-01  8.50000000E-01  8.50000000E-01  8.50000000E-01  8.50000000E-01
  8.50000000E-01  8.50000000E-01  8.50000000E-01  8.50000000E-01  8.50000000E-01
  8.50000000E-01  8.50000000E-01  8.50000000E-01  8.50000000E-01  8.50000000E-01
  8.50000000E-01  8.50000000E-01  8.50000000E-01  8.50000000E-01  8.50000000E-01
  8.50000000E-01  8.50000000E-01  8.50000000E-01  8.50000000E-01  8.50000000E-01
  8.50000000E-01  8.50000000E-01  8.50000000E-01  8.50000000E-01  8.50000000E-01
  8.50000000E-01  8.50000000E-01  8.50000000E-01  8.50000000E-01  8.50000000E-01
  8.50000000E-01  8.50000000E-01  8.50000000E-01  8.50000000E-01  8.50000000E-01
  8.50000000E-01  8.50000000E-01  8.50000000E-01  8.50000000E-01  8.50000000E-01
  8.50000000E-01  8.50000000E-01  8.50000000E-01  8.50000000E-01  8.50000000E-01
  8.50000000E-01  8.50000000E-01  8.50000000E-01  8.50000000E-01  8.50000000E-01
  8.50000000E-01  8.50000000E-01  8.50000000E-01  8.50000000E-01  8.50000000E-01
  8.50000000E-01  8.50000000E-01  8.50000000E-01  8.50000000E-01  8.50000000E-01
  8.50000000E-01  8.50000000E-01  8.50000000E-01  8.50000000E-01  8.50000000E-01
  8.50000000E-01  8.50000000E-01  8.50000000E-01  8.50000000E-01  8.50000000E-01
  8.50000000E-01  8.50000000E-01  8.50000000E-01  8.50000000E-01  8.50000000E-01
  8.50000000E-01  8.50000000E-01  8.50000000E-01  8.50000000E-01  8.50000000E-01
  8.50000000E-01  8.50000000E-01  8.50000000E-01  8.50000000E-01  8.50000000E-01
  8.50000000E-01  8.50000000E-01  8.50000000E-01  8.50000000E-01  8.50000000E-01
  8.50000000E-01  8.50000000E-01  8.50000000E-01  8.50000000E-01  8.50000000E-01
  8.50000000E-01  8.50000000E-01  8.50000000E-01  8.50000000E-01  8.50000000E-01
  8.50000000E-01  8.50000000E-01  8.50000000E-01  8.50000000E-01  8.50000000E-01
  8.50000000E-01  8.50000000E-01  8.50000000E-01  8.50000000E-01  8.50000000E-01
  8.50000000E-01  8.50000000E-01  8.50000000E-01  8.50000000E-01  8.50000000E-01
  8.50000000E-01  8.50000000E-01  8.50000000E-01  8.50000000E-01  8.50000000E-01
  8.50000000E-01  8.50000000E-01  8.50000000E-01  8.50000000E-01  8.50000000E-01
  8.50000000E-01  8.50000000E-01  8.50000000E-01  8.50000000E-01  8.50000000E-01
  8.50000000E-01  8.50000000E-01  8.50000000E-01  8.50000000E-01  8.50000000E-01
  8.50000000E-01  8.50000000E-01  8.50000000E-01  8.50000000E-01  8.50000000E-01
  8.50000000E-01  8.50000000E-01  8.50000000E-01  8.50000000E-01  8.50000000E-01
  8.50000000E-01  8.50000000E-01  8.50000000E-01  8.50000000E-01  8.50000000E-01
  8.50000000E-01  8.50000000E-01  8.50000000E-01  8.50000000E-01  8.50000000E-01
  8.50000000E-01  8.50000000E-01  8.50000000E-01  8.50000000E-01  8.50000000E-01
  8.50000000E-01  8.50000000E-01  8.50000000E-01  8.50000000E-01  8.50000000E-01
  8.50000000E-01  8.50000000E-01  8.50000000E-01  8.50000000E-01  8.50000000E-01
  8.50000000E-01  8.50000000E-01  8.50000000E-01  8.50000000E-01  8.50000000E-01
  8.50000000E-01  8.50000000E-01  8.50000000E-01  8.50000000E-01  8.50000000E-01
  8.50000000E-01  8.50000000E-01  8.50000000E-01  8.50000000E-01  8.50000000E-01
  8.50000000E-01  8.50000000E-01  8.50000000E-01  8.50000000E-01  8.50000000E-01
  8.50000000E-01  8.50000000E-01  8.50000000E-01  8.50000000E-01  8.50000000E-01
  8.50000000E-01  8.50000000E-01  8.50000000E-01  8.50000000E-01  8.50000000E-01
  8.50000000E-01  8.50000000E-01  8.50000000E-01  8.50000000E-01  8.50000000E-01
  8.50000000E-01  8.50000000E-01  8.50000000E-01  8.50000000E-01  8.50000000E-01
  8.50000000E-01  8.50000000E-01  8.50000000E-01  8.50000000E-01  8.50000000E-01
  8.50000000E-01  8.50000000E-01  8.50000000E-01  8.50000000E-01  8.50000000E-01
  8.50000000E-01  8.50000000E-01  8.50000000E-01  8.50000000E-01  8.50000000E-01
  8.50000000E-01  8.50000000E-01  8.50000000E-01  8.50000000E-01  8.50000000E-01
  8.50000000E-01  8.50000000E-01  8.50000000E-01  8.50000000E-01  8.50000000E-01
  8.50000000E-01  8.50000000E-01  8.50000000E-01  8.50000000E-01  8.50000000E-01
  8.50000000E-01  8.50000000E-01  8.50000000E-01  8.50000000E-01  8.50000000E-01
  8.50000000E-01  8.50000000E-01  8.50000000E-01  8.50000000E-01  8.50000000E-01
  8.50000000E-01  8.50000000E-01  8.50000000E-01  8.50000000E-01  8.50000000E-01
  8.50000000E-01  8.50000000E-01  8.50000000E-01  8.50000000E-01  8.50000000E-01
  8.50000000E-01  8.50000000E-01  8.50000000E-01  8.50000000E-01  8.50000000E-01
  8.50000000E-01  8.50000000E-01  8.50000000E-01  8.50000000E-01  8.50000000E-01
  8.50000000E-01  8.50000000E-01  8.50000000E-01  8.50000000E-01  8.50000000E-01
  8.50000000E-01  8.50000000E-01  8.50000000E-01  8.50000000E-01  8.50000000E-01
  8.50000000E-01  8.50000000E-01  8.50000000E-01  8.50000000E-01  8.50000000E-01
  8.50000000E-01  8.50000000E-01  8.50000000E-01  8.50000000E-01  8.50000000E-01
  8.50000000E-01  8.50000000E-01  8.50000000E-01  8.50000000E-01  8.50000000E-01
  8.50000000E-01  8.50000000E-01  8.50000000E-01  8.50000000E-01  8.50000000E-01
  8.50000000E-01  8.50000000E-01  8.50000000E-01  8.50000000E-01  8.50000000E-01
  8.50000000E-01  8.50000000E-01  8.50000000E-01  8.50000000E-01  8.50000000E-01
  8.50000000E-01  8.50000000E-01  8.50000000E-01  8.50000000E-01  8.50000000E-01
  8.50000000E-01  8.50000000E-01  8.50000000E-01  8.50000000E-01  8.50000000E-01
  8.50000000E-01  8.50000000E-01  8.50000000E-01  8.50000000E-01  8.50000000E-01
  8.50000000E-01  8.50000000E-01  8.50000000E-01  8.50000000E-01  8.50000000E-01
  8.50000000E-01  8.50000000E-01  8.50000000E-01  8.50000000E-01  8.50000000E-01
  8.50000000E-01  8.50000000E-01  8.50000000E-01  8.50000000E-01  8.50000000E-01
  8.50000000E-01  8.50000000E-01  8.50000000E-01  8.50000000E-01  8.50000000E-01
  8.50000000E-01  8.50000000E-01  8.50000000E-01  8.50000000E-01  8.50000000E-01
  8.50000000E-01  8.50000000E-01  8.50000000E-01  8.50000000E-01  8.50000000E-01
  8.50000000E-01  8.50000000E-01  8.50000000E-01  8.50000000E-01  8.50000000E-01
  8.50000000E-01  8.50000000E-01  8.50000000E-01  8.50000000E-01  8.50000000E-01
  8.50000000E-01  8.50000000E-01  8.50000000E-01  8.50000000E-01  8.50000000E-01
  8.50000000E-01  8.50000000E-01  8.50000000E-01  8.50000000E-01  8.50000000E-01
  8.50000000E-01  8.50000000E-01  8.50000000E-01  8.50000000E-01  8.50000000E-01
  8.50000000E-01  8.50000000E-01  8.50000000E-01  8.50000000E-01  8.50000000E-01
  8.50000000E-01  8.50000000E-01  8.50000000E-01  8.50000000E-01  8.50000000E-01
  8.50000000E-01  8.50000000E-01  8.50000000E-01  8.50000000E-01  8.50000000E-01
  8.50000000E-01  8.50000000E-01  8.50000000E-01  8.50000000E-01  8.50000000E-01
  8.50000000E-01  8.50000000E-01  8.50000000E-01  8.50000000E-01  8.50000000E-01
  8.50000000E-01  8.50000000E-01  8.50000000E-01  8.50000000E-01  8.50000000E-01
  8.50000000E-01  8.50000000E-01  8.50000000E-01  8.50000000E-01  8.50000000E-01
  8.50000000E-01  8.50000000E-01  8.50000000E-01  8.50000000E-01  8.50000000E-01
  8.50000000E-01  8.50000000E-01  8.50000000E-01  8.50000000E-01  8.50000000E-01
  8.50000000E-01  8.50000000E-01  8.50000000E-01  8.50000000E-01  8.50000000E-01
  8.50000000E-01  8.50000000E-01  8.50000000E-01  8.50000000E-01  8.50000000E-01
  8.50000000E-01  8.50000000E-01  8.50000000E-01  8.50000000E-01  8.50000000E-01
  8.50000000E-01  8.50000000E-01  8.50000000E-01  8.50000000E-01  8.50000000E-01
  8.50000000E-01  8.50000000E-01  8.50000000E-01  8.50000000E-01  8.50000000E-01
  8.50000000E-01  8.50000000E-01  8.50000000E-01  8.50000000E-01  8.50000000E-01
  8.50000000E-01  8.50000000E-01  8.50000000E-01  8.50000000E-01  8.50000000E-01
  8.50000000E-01  8.50000000E-01  8.50000000E-01  8.50000000E-01  8.50000000E-01
  8.50000000E-01  8.50000000E-01  8.50000000E-01  8.50000000E-01  8.50000000E-01
  8.50000000E-01  8.50000000E-01  8.50000000E-01  8.50000000E-01  8.50000000E-01
  8.50000000E-01  8.50000000E-01  8.50000000E-01  8.50000000E-01  8.50000000E-01
  8.50000000E-01  8.50000000E-01  8.50000000E-01  8.50000000E-01  8.50000000E-01
  8.50000000E-01  8.50000000E-01  8.50000000E-01  8.50000000E-01  8.50000000E-01
  8.50000000E-01  8.50000000E-01  8.50000000E-01  8.50000000E-01  8.50000000E-01
  8.50000000E-01  8.50000000E-01  8.50000000E-01  8.50000000E-01  8.50000000E-01
  8.50000000E-01  8.50000000E-01  8.50000000E-01  8.50000000E-01  8.50000000E-01
  8.50000000E-01  8.50000000E-01  8.50000000E-01  8.50000000E-01  8.50000000E-01
  8.50000000E-01  8.50000000E-01  8.50000000E-01  8.50000000E-01  8.50000000E-01
  8.50000000E-01  8.50000000E-01  8.50000000E-01  8.50000000E-01  8.50000000E-01
  8.50000000E-01  8.50000000E-01  8.50000000E-01  8.50000000E-01  8.50000000E-01
  8.50000000E-01  8.50000000E-01  8.50000000E-01  8.50000000E-01  8.50000000E-01
  8.50000000E-01  8.50000000E-01  8.50000000E-01  8.50000000E-01  8.50000000E-01
  8.50000000E-01  8.50000000E-01  8.50000000E-01  8.50000000E-01  8.50000000E-01
  8.50000000E-01  8.50000000E-01  8.50000000E-01  8.50000000E-01  8.50000000E-01
  8.50000000E-01  8.50000000E-01  8.50000000E-01  8.50000000E-01  8.50000000E-01
  8.50000000E-01  8.50000000E-01  8.50000000E-01  8.50000000E-01  8.50000000E-01
  8.50000000E-01  8.50000000E-01  8.50000000E-01  8.50000000E-01  8.50000000E-01
  8.50000000E-01  8.50000000E-01  8.50000000E-01  8.50000000E-01  8.50000000E-01
  8.50000000E-01  8.50000000E-01  8.50000000E-01  8.50000000E-01  8.50000000E-01
  8.50000000E-01  8.50000000E-01  8.50000000E-01  8.50000000E-01  8.50000000E-01
  8.50000000E-01  8.50000000E-01  8.50000000E-01  8.50000000E-01  8.50000000E-01
  8.50000000E-01  8.50000000E-01  8.50000000E-01  8.50000000E-01  8.50000000E-01
  8.50000000E-01  8.50000000E-01  8.50000000E-01  8.50000000E-01  8.50000000E-01
  8.50000000E-01  8.50000000E-01  8.50000000E-01  8.50000000E-01  8.50000000E-01
  8.50000000E-01  8.50000000E-01  8.50000000E-01  8.50000000E-01  8.50000000E-01
  8.50000000E-01  8.50000000E-01  8.50000000E-01  8.50000000E-01  8.50000000E-01
  8.50000000E-01  8.50000000E-01  8.50000000E-01  8.50000000E-01  8.50000000E-01
  8.50000000E-01  8.50000000E-01  8.50000000E-01  8.50000000E-01  8.50000000E-01
  8.50000000E-01  8.50000000E-01  8.50000000E-01  8.50000000E-01  8.50000000E-01
  8.50000000E-01  8.50000000E-01  8.50000000E-01  8.50000000E-01  8.50000000E-01
  8.50000000E-01  8.50000000E-01  8.50000000E-01  8.50000000E-01  8.50000000E-01
  8.50000000E-01  8.50000000E-01  8.50000000E-01  8.50000000E-01  8.50000000E-01
  8.50000000E-01  8.50000000E-01  8.50000000E-01  8.50000000E-01  8.50000000E-01
  8.50000000E-01  8.50000000E-01  8.50000000E-01  8.50000000E-01  8.50000000E-01
  8.50000000E-01  8.50000000E-01  8.50000000E-01  8.50000000E-01  8.50000000E-01
  8.50000000E-01  8.50000000E-01  8.50000000E-01  8.50000000E-01  8.50000000E-01
  8.50000000E-01  8.50000000E-01  8.50000000E-01  8.50000000E-01  8.50000000E-01
  8.50000000E-01  8.50000000E-01  8.50000000E-01  8.50000000E-01  8.50000000E-01
  8.50000000E-01  8.50000000E-01  8.50000000E-01  8.50000000E-01  8.50000000E-01
  8.50000000E-01  8.50000000E-01  8.50000000E-01  8.50000000E-01  8.50000000E-01
  8.50000000E-01  8.50000000E-01  8.50000000E-01  8.50000000E-01  8.50000000E-01
  8.50000000E-01  8.50000000E-01  8.50000000E-01  8.50000000E-01  8.50000000E-01
  8.50000000E-01  8.50000000E-01  8.50000000E-01  8.50000000E-01  8.50000000E-01
  8.50000000E-01  8.50000000E-01  8.50000000E-01  8.50000000E-01  8.50000000E-01
  8.50000000E-01  8.50000000E-01  8.50000000E-01  8.50000000E-01  8.50000000E-01
  8.50000000E-01  8.50000000E-01  8.50000000E-01  8.50000000E-01  8.50000000E-01
  8.50000000E-01  8.50000000E-01  8.50000000E-01  8.50000000E-01  8.50000000E-01
  8.50000000E-01  8.50000000E-01  8.50000000E-01  8.50000000E-01  8.50000000E-01
  8.50000000E-01  8.50000000E-01  8.50000000E-01  8.50000000E-01  8.50000000E-01
  8.50000000E-01  8.50000000E-01  8.50000000E-01  8.50000000E-01  8.50000000E-01
  8.50000000E-01  8.50000000E-01  8.50000000E-01  8.50000000E-01  8.50000000E-01
  8.50000000E-01  8.50000000E-01  8.50000000E-01  8.50000000E-01  8.50000000E-01
  8.50000000E-01  8.50000000E-01  8.50000000E-01  8.50000000E-01  8.50000000E-01
  8.50000000E-01  8.50000000E-01  8.50000000E-01  8.50000000E-01  8.50000000E-01
  8.50000000E-01  8.50000000E-01  8.50000000E-01  8.50000000E-01  8.50000000E-01
  8.50000000E-01  8.50000000E-01  8.50000000E-01  8.50000000E-01  8.50000000E-01
  8.50000000E-01  8.50000000E-01  8.50000000E-01  8.50000000E-01  8.50000000E-01
  8.50000000E-01  8.50000000E-01  8.50000000E-01  8.50000000E-01  8.50000000E-01
  8.50000000E-01  8.50000000E-01  8.50000000E-01  8.50000000E-01  8.50000000E-01
  8.50000000E-01  8.50000000E-01  8.50000000E-01  8.50000000E-01  8.50000000E-01
  8.50000000E-01  8.50000000E-01  8.50000000E-01  8.50000000E-01  8.50000000E-01
  8.50000000E-01  8.50000000E-01  8.50000000E-01  8.50000000E-01  8.50000000E-01
  8.50000000E-01  8.50000000E-01  8.50000000E-01  8.50000000E-01  8.50000000E-01
  8.50000000E-01  8.50000000E-01  8.50000000E-01  8.50000000E-01  8.50000000E-01
  8.50000000E-01  8.50000000E-01  8.50000000E-01  8.50000000E-01  8.50000000E-01
  8.50000000E-01  8.50000000E-01  8.50000000E-01  8.50000000E-01  8.50000000E-01
  8.50000000E-01  8.50000000E-01  8.50000000E-01  8.50000000E-01  8.50000000E-01
  8.50000000E-01  8.50000000E-01  8.50000000E-01  8.50000000E-01  8.50000000E-01
  8.50000000E-01  8.50000000E-01  8.50000000E-01  8.50000000E-01  8.50000000E-01
  8.50000000E-01  8.50000000E-01  8.50000000E-01  8.50000000E-01  8.50000000E-01
  8.50000000E-01  8.50000000E-01  8.50000000E-01  8.50000000E-01  8.50000000E-01
  8.50000000E-01  8.50000000E-01  8.50000000E-01  8.50000000E-01  8.50000000E-01
  8.50000000E-01  8.50000000E-01  8.50000000E-01  8.50000000E-01  8.50000000E-01
  8.50000000E-01  8.50000000E-01  8.50000000E-01  8.50000000E-01  8.50000000E-01
  8.50000000E-01  8.50000000E-01  8.50000000E-01  8.50000000E-01  8.50000000E-01
  8.50000000E-01  8.50000000E-01  8.50000000E-01  8.50000000E-01  8.50000000E-01
  8.50000000E-01  8.50000000E-01  8.50000000E-01  8.50000000E-01  8.50000000E-01
  8.50000000E-01  8.50000000E-01  8.50000000E-01  8.50000000E-01  8.50000000E-01
  8.50000000E-01  8.50000000E-01  8.50000000E-01  8.50000000E-01  8.50000000E-01
  8.50000000E-01  8.50000000E-01  8.50000000E-01  8.50000000E-01  8.50000000E-01
  8.50000000E-01  8.50000000E-01  8.50000000E-01  8.50000000E-01  8.50000000E-01
  8.50000000E-01  8.50000000E-01  8.50000000E-01  8.50000000E-01  8.50000000E-01
  8.50000000E-01  8.50000000E-01  8.50000000E-01  8.50000000E-01  8.50000000E-01
  8.50000000E-01  8.50000000E-01  8.50000000E-01  8.50000000E-01  8.50000000E-01
  8.50000000E-01  8.50000000E-01  8.50000000E-01  8.50000000E-01  8.50000000E-01
  8.50000000E-01  8.50000000E-01  8.50000000E-01  8.50000000E-01  8.50000000E-01
  8.50000000E-01  8.50000000E-01  8.50000000E-01  8.50000000E-01  8.50000000E-01
  8.50000000E-01  8.50000000E-01  8.50000000E-01  8.50000000E-01  8.50000000E-01
  8.50000000E-01  8.50000000E-01  8.50000000E-01  8.50000000E-01  8.50000000E-01
  8.50000000E-01  8.50000000E-01  8.50000000E-01  8.50000000E-01  8.50000000E-01
  8.50000000E-01  8.50000000E-01  8.50000000E-01  8.50000000E-01  8.50000000E-01
  8.50000000E-01  8.50000000E-01  8.50000000E-01  8.50000000E-01  8.50000000E-01
  8.50000000E-01  8.50000000E-01  8.50000000E-01  8.50000000E-01  8.50000000E-01
  8.50000000E-01  8.50000000E-01  8.50000000E-01  8.50000000E-01  8.50000000E-01
  8.50000000E-01  8.50000000E-01  8.50000000E-01  8.50000000E-01  8.50000000E-01
  8.50000000E-01  8.50000000E-01  8.50000000E-01  8.50000000E-01  8.50000000E-01
  8.50000000E-01  8.50000000E-01  8.50000000E-01  8.50000000E-01  8.50000000E-01
  8.50000000E-01  8.50000000E-01  8.50000000E-01  8.50000000E-01  8.50000000E-01
  8.50000000E-01  8.50000000E-01  8.50000000E-01  8.50000000E-01  8.50000000E-01
  8.50000000E-01  8.50000000E-01  8.50000000E-01  8.50000000E-01  8.50000000E-01
  8.50000000E-01  8.50000000E-01  8.50000000E-01  8.50000000E-01  8.50000000E-01
  8.50000000E-01  8.50000000E-01  8.50000000E-01  8.50000000E-01  8.50000000E-01
  8.50000000E-01  8.50000000E-01  8.50000000E-01  8.50000000E-01  8.50000000E-01
  8.50000000E-01  8.50000000E-01  8.50000000E-01  8.50000000E-01  8.50000000E-01
  8.50000000E-01  8.50000000E-01  8.50000000E-01  8.50000000E-01  8.50000000E-01
  8.50000000E-01  8.50000000E-01  8.50000000E-01  8.50000000E-01  8.50000000E-01
  8.50000000E-01  8.50000000E-01  8.50000000E-01  8.50000000E-01  8.50000000E-01
  8.50000000E-01  8.50000000E-01  8.50000000E-01  8.50000000E-01  8.50000000E-01
  8.50000000E-01  8.50000000E-01  8.50000000E-01  8.50000000E-01  8.50000000E-01
  8.50000000E-01  8.50000000E-01  8.50000000E-01  8.50000000E-01  8.50000000E-01
  8.50000000E-01  8.50000000E-01  8.50000000E-01  8.50000000E-01  8.50000000E-01
  8.50000000E-01  8.50000000E-01  8.50000000E-01  8.50000000E-01  8.50000000E-01
  8.50000000E-01  8.50000000E-01  8.50000000E-01  8.50000000E-01  8.50000000E-01
  8.50000000E-01  8.50000000E-01  8.50000000E-01  8.50000000E-01  8.50000000E-01
  8.50000000E-01  8.50000000E-01  8.50000000E-01  8.50000000E-01  8.50000000E-01
  8.50000000E-01  8.50000000E-01  8.50000000E-01  8.50000000E-01  8.50000000E-01
  8.50000000E-01  8.50000000E-01  8.50000000E-01  8.50000000E-01  8.50000000E-01
  8.50000000E-01  8.50000000E-01  8.50000000E-01  8.50000000E-01  8.50000000E-01
  8.50000000E-01  8.50000000E-01  8.50000000E-01  8.50000000E-01  8.50000000E-01
  8.50000000E-01  8.50000000E-01  8.50000000E-01  8.50000000E-01  8.50000000E-01
  8.50000000E-01  8.50000000E-01  8.50000000E-01  8.50000000E-01  8.50000000E-01
  8.50000000E-01  8.50000000E-01  8.50000000E-01  8.50000000E-01  8.50000000E-01
  8.50000000E-01  8.50000000E-01  8.50000000E-01  8.50000000E-01  8.50000000E-01
  8.50000000E-01  8.50000000E-01  8.50000000E-01  8.50000000E-01  8.50000000E-01
  8.50000000E-01  8.50000000E-01  8.50000000E-01  8.50000000E-01  8.50000000E-01
  8.50000000E-01  8.50000000E-01  8.50000000E-01  8.50000000E-01  8.50000000E-01
  8.50000000E-01  8.50000000E-01  8.50000000E-01  8.50000000E-01  8.50000000E-01
  8.50000000E-01  8.50000000E-01  8.50000000E-01  8.50000000E-01  8.50000000E-01
  8.50000000E-01  8.50000000E-01  8.50000000E-01  8.50000000E-01  8.50000000E-01
  8.50000000E-01  8.50000000E-01  8.50000000E-01  8.50000000E-01  8.50000000E-01
  8.50000000E-01  8.50000000E-01  8.50000000E-01  8.50000000E-01  8.50000000E-01
  8.50000000E-01  8.50000000E-01  8.50000000E-01  8.50000000E-01  8.50000000E-01
  8.50000000E-01  8.50000000E-01  8.50000000E-01  8.50000000E-01  8.50000000E-01
  8.50000000E-01  8.50000000E-01  8.50000000E-01  8.50000000E-01  8.50000000E-01
  8.50000000E-01  8.50000000E-01  8.50000000E-01  8.50000000E-01  8.50000000E-01
  8.50000000E-01  8.50000000E-01  8.50000000E-01  8.50000000E-01  8.50000000E-01
  8.50000000E-01  8.50000000E-01  8.50000000E-01  8.50000000E-01  8.50000000E-01
  8.50000000E-01  8.50000000E-01  8.50000000E-01  8.50000000E-01  8.50000000E-01
  8.50000000E-01  8.50000000E-01  8.50000000E-01  8.50000000E-01  8.50000000E-01
  8.50000000E-01  8.50000000E-01  8.50000000E-01  8.50000000E-01  8.50000000E-01
  8.50000000E-01  8.50000000E-01  8.50000000E-01  8.50000000E-01  8.50000000E-01
  8.50000000E-01  8.50000000E-01  8.50000000E-01  8.50000000E-01  8.50000000E-01
  8.50000000E-01  8.50000000E-01  8.50000000E-01  8.50000000E-01  8.50000000E-01
  8.50000000E-01  8.50000000E-01  8.50000000E-01  8.50000000E-01  8.50000000E-01
  8.50000000E-01  8.50000000E-01  8.50000000E-01  8.50000000E-01  8.50000000E-01
  8.50000000E-01  8.50000000E-01  8.50000000E-01  8.50000000E-01  8.50000000E-01
  8.50000000E-01  8.50000000E-01  8.50000000E-01  8.50000000E-01  8.50000000E-01
  8.50000000E-01  8.50000000E-01  8.50000000E-01  8.50000000E-01  8.50000000E-01
  8.50000000E-01  8.50000000E-01  8.50000000E-01  8.50000000E-01  8.50000000E-01
  8.50000000E-01  8.50000000E-01  8.50000000E-01  8.50000000E-01  8.50000000E-01
  8.50000000E-01  8.50000000E-01  8.50000000E-01  8.50000000E-01  8.50000000E-01
  8.50000000E-01  8.50000000E-01  8.50000000E-01  8.50000000E-01  8.50000000E-01
  8.50000000E-01  8.50000000E-01  8.50000000E-01  8.50000000E-01  8.50000000E-01
  8.50000000E-01  8.50000000E-01  8.50000000E-01  8.50000000E-01  8.50000000E-01
  8.50000000E-01  8.50000000E-01  8.50000000E-01  8.50000000E-01  8.50000000E-01
  8.50000000E-01  8.50000000E-01  8.50000000E-01  8.50000000E-01  8.50000000E-01
  8.50000000E-01  8.50000000E-01  8.50000000E-01  8.50000000E-01  8.50000000E-01
  8.50000000E-01  8.50000000E-01  8.50000000E-01  8.50000000E-01  8.50000000E-01
  8.50000000E-01  8.50000000E-01  8.50000000E-01  8.50000000E-01  8.50000000E-01
  8.50000000E-01  8.50000000E-01  8.50000000E-01  8.50000000E-01  8.50000000E-01
  8.50000000E-01  8.50000000E-01  8.50000000E-01  8.50000000E-01  8.50000000E-01
  8.50000000E-01  8.50000000E-01  8.50000000E-01  8.50000000E-01  8.50000000E-01
  8.50000000E-01  8.50000000E-01  8.50000000E-01  8.50000000E-01  8.50000000E-01
  8.50000000E-01  8.50000000E-01  8.50000000E-01  8.50000000E-01  8.50000000E-01
  8.50000000E-01  8.50000000E-01  8.50000000E-01  8.50000000E-01  8.50000000E-01
  8.50000000E-01  8.50000000E-01  8.50000000E-01  8.50000000E-01  8.50000000E-01
  8.50000000E-01  8.50000000E-01  8.50000000E-01  8.50000000E-01  8.50000000E-01
  8.50000000E-01  8.50000000E-01  8.50000000E-01  8.50000000E-01  8.50000000E-01
  8.50000000E-01  8.50000000E-01  8.50000000E-01  8.50000000E-01  8.50000000E-01
  8.50000000E-01  8.50000000E-01  8.50000000E-01  8.50000000E-01  8.50000000E-01
  8.50000000E-01  8.50000000E-01  8.50000000E-01  8.50000000E-01  8.50000000E-01
  8.50000000E-01  8.50000000E-01  8.50000000E-01  8.50000000E-01  8.50000000E-01
  8.50000000E-01  8.50000000E-01  8.50000000E-01  8.50000000E-01  8.50000000E-01
  8.50000000E-01  8.50000000E-01  8.50000000E-01  8.50000000E-01  8.50000000E-01
  8.50000000E-01  8.50000000E-01  8.50000000E-01  8.50000000E-01  8.50000000E-01
  8.50000000E-01  8.50000000E-01  8.50000000E-01  8.50000000E-01  8.50000000E-01
  8.50000000E-01  8.50000000E-01  8.50000000E-01  8.50000000E-01  8.50000000E-01
  8.50000000E-01  8.50000000E-01  8.50000000E-01  8.50000000E-01  8.50000000E-01
  8.50000000E-01  8.50000000E-01  8.50000000E-01  8.50000000E-01  8.50000000E-01
  8.50000000E-01  8.50000000E-01  8.50000000E-01  8.50000000E-01  8.50000000E-01
  8.50000000E-01  8.50000000E-01  8.50000000E-01  8.50000000E-01  8.50000000E-01
  8.50000000E-01  8.50000000E-01  8.50000000E-01  8.50000000E-01  8.50000000E-01
  8.50000000E-01  8.50000000E-01  8.50000000E-01  8.50000000E-01  8.50000000E-01
  8.50000000E-01  8.50000000E-01  8.50000000E-01  8.50000000E-01  8.50000000E-01
  8.50000000E-01  8.50000000E-01  8.50000000E-01  8.50000000E-01  8.50000000E-01
  8.50000000E-01  8.50000000E-01  8.50000000E-01  8.50000000E-01  8.50000000E-01
  8.50000000E-01  8.50000000E-01  8.50000000E-01  8.50000000E-01  8.50000000E-01
  8.50000000E-01  8.50000000E-01  8.50000000E-01  8.50000000E-01  8.50000000E-01
  8.50000000E-01  8.50000000E-01  8.50000000E-01  8.50000000E-01  8.50000000E-01
  8.50000000E-01  8.50000000E-01  8.50000000E-01  8.50000000E-01  8.50000000E-01
  8.50000000E-01  8.50000000E-01  8.50000000E-01  8.50000000E-01  8.50000000E-01
  8.50000000E-01  8.50000000E-01  8.50000000E-01  8.50000000E-01  8.50000000E-01
  8.50000000E-01  8.50000000E-01  8.50000000E-01  8.50000000E-01  8.50000000E-01
  8.50000000E-01  8.50000000E-01  8.50000000E-01  8.50000000E-01  8.50000000E-01
  8.50000000E-01  8.50000000E-01  8.50000000E-01  8.50000000E-01  8.50000000E-01
  8.50000000E-01  8.50000000E-01  8.50000000E-01  8.50000000E-01  8.50000000E-01
  8.50000000E-01  8.50000000E-01  8.50000000E-01  8.50000000E-01  8.50000000E-01
  8.50000000E-01  8.50000000E-01  8.50000000E-01  8.50000000E-01  8.50000000E-01
  8.50000000E-01  8.50000000E-01  8.50000000E-01  8.50000000E-01  8.50000000E-01
  8.50000000E-01  8.50000000E-01  8.50000000E-01  8.50000000E-01  8.50000000E-01
  8.50000000E-01  8.50000000E-01  8.50000000E-01  8.50000000E-01  8.50000000E-01
  8.50000000E-01  8.50000000E-01  8.50000000E-01  8.50000000E-01  8.50000000E-01
  8.50000000E-01  8.50000000E-01  8.50000000E-01  8.50000000E-01  8.50000000E-01
  8.50000000E-01  8.50000000E-01  8.50000000E-01  8.50000000E-01  8.50000000E-01
  8.50000000E-01  8.50000000E-01  8.50000000E-01  8.50000000E-01  8.50000000E-01
  8.50000000E-01  8.50000000E-01  8.50000000E-01  8.50000000E-01  8.50000000E-01
  8.50000000E-01  8.50000000E-01  8.50000000E-01  8.50000000E-01  8.50000000E-01
  8.50000000E-01  8.50000000E-01  8.50000000E-01  8.50000000E-01  8.50000000E-01
  8.50000000E-01  8.50000000E-01  8.50000000E-01  8.50000000E-01  8.50000000E-01
  8.50000000E-01  8.50000000E-01  8.50000000E-01  8.50000000E-01  8.50000000E-01
  8.50000000E-01  8.50000000E-01  8.50000000E-01  8.50000000E-01  8.50000000E-01
  8.50000000E-01  8.50000000E-01  8.50000000E-01  8.50000000E-01  8.50000000E-01
  8.50000000E-01  8.50000000E-01  8.50000000E-01  8.50000000E-01  8.50000000E-01
  8.50000000E-01  8.50000000E-01  8.50000000E-01  8.50000000E-01  8.50000000E-01
  8.50000000E-01  8.50000000E-01  8.50000000E-01  8.50000000E-01  8.50000000E-01
  8.50000000E-01  8.50000000E-01  8.50000000E-01  8.50000000E-01  8.50000000E-01
  8.50000000E-01  8.50000000E-01  8.50000000E-01  8.50000000E-01  8.50000000E-01
  8.50000000E-01  8.50000000E-01  8.50000000E-01  8.50000000E-01  8.50000000E-01
  8.50000000E-01  8.50000000E-01  8.50000000E-01  8.50000000E-01  8.50000000E-01
  8.50000000E-01  8.50000000E-01  8.50000000E-01  8.50000000E-01  8.50000000E-01
  8.50000000E-01  8.50000000E-01  8.50000000E-01  8.50000000E-01  8.50000000E-01
  8.50000000E-01  8.50000000E-01  8.50000000E-01  8.50000000E-01  8.50000000E-01
  8.50000000E-01  8.50000000E-01  8.50000000E-01  8.50000000E-01  8.50000000E-01
  8.50000000E-01  8.50000000E-01  8.50000000E-01  8.50000000E-01  8.50000000E-01
  8.50000000E-01  8.50000000E-01  8.50000000E-01  8.50000000E-01  8.50000000E-01
  8.50000000E-01  8.50000000E-01  8.50000000E-01  8.50000000E-01  8.50000000E-01
  8.50000000E-01  8.50000000E-01  8.50000000E-01  8.50000000E-01  8.50000000E-01
  8.50000000E-01  8.50000000E-01  8.50000000E-01  8.50000000E-01  8.50000000E-01
  8.50000000E-01  8.50000000E-01  8.50000000E-01  8.50000000E-01  8.50000000E-01
  8.50000000E-01  8.50000000E-01  8.50000000E-01  8.50000000E-01  8.50000000E-01
  8.50000000E-01  8.50000000E-01  8.50000000E-01  8.50000000E-01  8.50000000E-01
  8.50000000E-01  8.50000000E-01  8.50000000E-01  8.50000000E-01  8.50000000E-01
  8.50000000E-01  8.50000000E-01  8.50000000E-01  8.50000000E-01  8.50000000E-01
  8.50000000E-01  8.50000000E-01  8.50000000E-01  8.50000000E-01  8.50000000E-01
  8.50000000E-01  8.50000000E-01  8.50000000E-01  8.50000000E-01  8.50000000E-01
  8.50000000E-01  8.50000000E-01  8.50000000E-01  8.50000000E-01  8.50000000E-01
  8.50000000E-01  8.50000000E-01  8.50000000E-01  8.50000000E-01  8.50000000E-01
  8.50000000E-01  8.50000000E-01  8.50000000E-01  8.50000000E-01  8.50000000E-01
  8.50000000E-01  8.50000000E-01  8.50000000E-01  8.50000000E-01  8.50000000E-01
  8.50000000E-01  8.50000000E-01  8.50000000E-01  8.50000000E-01  8.50000000E-01
  8.50000000E-01  8.50000000E-01  8.50000000E-01  8.50000000E-01  8.50000000E-01
  8.50000000E-01  8.50000000E-01  8.50000000E-01  8.50000000E-01  8.50000000E-01
  8.50000000E-01  8.50000000E-01  8.50000000E-01  8.50000000E-01  8.50000000E-01
  8.50000000E-01  8.50000000E-01  8.50000000E-01  8.50000000E-01  8.50000000E-01
  8.50000000E-01  8.50000000E-01  8.50000000E-01  8.50000000E-01  8.50000000E-01
  8.50000000E-01  8.50000000E-01  8.50000000E-01  8.50000000E-01  8.50000000E-01
  8.50000000E-01  8.50000000E-01  8.50000000E-01  8.50000000E-01  8.50000000E-01
  8.50000000E-01  8.50000000E-01  8.50000000E-01  8.50000000E-01  8.50000000E-01
  8.50000000E-01  8.50000000E-01  8.50000000E-01  8.50000000E-01  8.50000000E-01
  8.50000000E-01  8.50000000E-01  8.50000000E-01  8.50000000E-01  8.50000000E-01
  8.50000000E-01  8.50000000E-01  8.50000000E-01  8.50000000E-01  8.50000000E-01
  8.50000000E-01  8.50000000E-01  8.50000000E-01  8.50000000E-01  8.50000000E-01
  8.50000000E-01  8.50000000E-01  8.50000000E-01  8.50000000E-01  8.50000000E-01
  8.50000000E-01  8.50000000E-01  8.50000000E-01  8.50000000E-01  8.50000000E-01
  8.50000000E-01  8.50000000E-01  8.50000000E-01  8.50000000E-01  8.50000000E-01
  8.50000000E-01  8.50000000E-01  8.50000000E-01  8.50000000E-01  8.50000000E-01
  8.50000000E-01  8.50000000E-01  8.50000000E-01  8.50000000E-01  8.50000000E-01
  8.50000000E-01  8.50000000E-01  8.50000000E-01  8.50000000E-01  8.50000000E-01
  8.50000000E-01  8.50000000E-01  8.50000000E-01  8.50000000E-01  8.50000000E-01
  8.50000000E-01  8.50000000E-01  8.50000000E-01  8.50000000E-01  8.50000000E-01
  8.50000000E-01  8.50000000E-01  8.50000000E-01  8.50000000E-01  8.50000000E-01
  8.50000000E-01  8.50000000E-01  8.50000000E-01  8.50000000E-01  8.50000000E-01
  8.50000000E-01  8.50000000E-01  8.50000000E-01  8.50000000E-01  8.50000000E-01
  8.50000000E-01  8.50000000E-01  8.50000000E-01  8.50000000E-01  8.50000000E-01
  8.50000000E-01  8.50000000E-01  8.50000000E-01  8.50000000E-01  8.50000000E-01
  8.50000000E-01  8.50000000E-01  8.50000000E-01  8.50000000E-01  8.50000000E-01
  8.50000000E-01  8.50000000E-01  8.50000000E-01  8.50000000E-01  8.50000000E-01
  8.50000000E-01  8.50000000E-01  8.50000000E-01  8.50000000E-01  8.50000000E-01
  8.50000000E-01  8.50000000E-01  8.50000000E-01  8.50000000E-01  8.50000000E-01
  8.50000000E-01  8.50000000E-01  8.50000000E-01  8.50000000E-01  8.50000000E-01
  8.50000000E-01  8.50000000E-01  8.50000000E-01  8.50000000E-01  8.50000000E-01
  8.50000000E-01  8.50000000E-01  8.50000000E-01  8.50000000E-01  8.50000000E-01
  8.50000000E-01  8.50000000E-01  8.50000000E-01  8.50000000E-01  8.50000000E-01
  8.50000000E-01  8.50000000E-01  8.50000000E-01  8.50000000E-01  8.50000000E-01
  8.50000000E-01  8.50000000E-01  8.50000000E-01  8.50000000E-01  8.50000000E-01
  8.50000000E-01  8.50000000E-01  8.50000000E-01  8.50000000E-01  8.50000000E-01
  8.50000000E-01  8.50000000E-01  8.50000000E-01  8.50000000E-01  8.50000000E-01
  8.50000000E-01  8.50000000E-01  8.50000000E-01  8.50000000E-01  8.50000000E-01
  8.50000000E-01  8.50000000E-01  8.50000000E-01  8.50000000E-01  8.50000000E-01
  8.50000000E-01  8.50000000E-01  8.50000000E-01  8.50000000E-01  8.50000000E-01
  8.50000000E-01  8.50000000E-01  8.50000000E-01  8.50000000E-01  8.50000000E-01
  8.50000000E-01  8.50000000E-01  8.50000000E-01  8.50000000E-01  8.50000000E-01
  8.50000000E-01  8.50000000E-01  8.50000000E-01  8.50000000E-01  8.50000000E-01
  8.50000000E-01  8.50000000E-01  8.50000000E-01  8.50000000E-01  8.50000000E-01
  8.50000000E-01  8.50000000E-01  8.50000000E-01  8.50000000E-01  8.50000000E-01
  8.50000000E-01  8.50000000E-01  8.50000000E-01  8.50000000E-01  8.50000000E-01
  8.50000000E-01  8.50000000E-01  8.50000000E-01  8.50000000E-01  8.50000000E-01
  8.50000000E-01  8.50000000E-01  8.50000000E-01  8.50000000E-01  8.50000000E-01
  8.50000000E-01  8.50000000E-01  8.50000000E-01  8.50000000E-01  8.50000000E-01
  8.50000000E-01  8.50000000E-01  8.50000000E-01  8.50000000E-01  8.50000000E-01
  8.50000000E-01  8.50000000E-01  8.50000000E-01  8.50000000E-01  8.50000000E-01
  8.50000000E-01  8.50000000E-01  8.50000000E-01  8.50000000E-01  8.50000000E-01
  8.50000000E-01  8.50000000E-01  8.50000000E-01  8.50000000E-01  8.50000000E-01
  8.50000000E-01  8.50000000E-01  8.50000000E-01  8.50000000E-01  8.50000000E-01
  8.50000000E-01  8.50000000E-01  8.50000000E-01  8.50000000E-01  8.50000000E-01
  8.50000000E-01  8.50000000E-01  8.50000000E-01  8.50000000E-01  8.50000000E-01
  8.50000000E-01  8.50000000E-01  8.50000000E-01  8.50000000E-01  8.50000000E-01
  8.50000000E-01  8.50000000E-01  8.50000000E-01  8.50000000E-01  8.50000000E-01
  8.50000000E-01  8.50000000E-01  8.50000000E-01  8.50000000E-01  8.50000000E-01
  8.50000000E-01  8.50000000E-01  8.50000000E-01  8.50000000E-01  8.50000000E-01
  8.50000000E-01  8.50000000E-01  8.50000000E-01  8.50000000E-01  8.50000000E-01
  8.50000000E-01  8.50000000E-01  8.50000000E-01  8.50000000E-01  8.50000000E-01
  8.50000000E-01  8.50000000E-01  8.50000000E-01  8.50000000E-01  8.50000000E-01
  8.50000000E-01  8.50000000E-01  8.50000000E-01  8.50000000E-01  8.50000000E-01
  8.50000000E-01  8.50000000E-01  8.50000000E-01  8.50000000E-01  8.50000000E-01
  8.50000000E-01  8.50000000E-01  8.50000000E-01  8.50000000E-01  8.50000000E-01
  8.50000000E-01  8.50000000E-01  8.50000000E-01  8.50000000E-01  8.50000000E-01
  8.50000000E-01  8.50000000E-01  8.50000000E-01  8.50000000E-01  8.50000000E-01
  8.50000000E-01  8.50000000E-01  8.50000000E-01  8.50000000E-01  8.50000000E-01
  8.50000000E-01  8.50000000E-01  8.50000000E-01  8.50000000E-01  8.50000000E-01
  8.50000000E-01  8.50000000E-01  8.50000000E-01  8.50000000E-01  8.50000000E-01
  8.50000000E-01  8.50000000E-01  8.50000000E-01  8.50000000E-01  8.50000000E-01
  8.50000000E-01  8.50000000E-01  8.50000000E-01  8.50000000E-01  8.50000000E-01
  8.50000000E-01  8.50000000E-01  8.50000000E-01  8.50000000E-01  8.50000000E-01
  8.50000000E-01  8.50000000E-01  8.50000000E-01  8.50000000E-01  8.50000000E-01
  8.50000000E-01  8.50000000E-01  8.50000000E-01  8.50000000E-01  8.50000000E-01
  8.50000000E-01  8.50000000E-01  8.50000000E-01  8.50000000E-01  8.50000000E-01
  8.50000000E-01  8.50000000E-01  8.50000000E-01  8.50000000E-01  8.50000000E-01
  8.50000000E-01  8.50000000E-01  8.50000000E-01  8.50000000E-01  8.50000000E-01
  8.50000000E-01  8.50000000E-01  8.50000000E-01  8.50000000E-01  8.50000000E-01
  8.50000000E-01  8.50000000E-01  8.50000000E-01  8.50000000E-01  8.50000000E-01
  8.50000000E-01  8.50000000E-01  8.50000000E-01  8.50000000E-01  8.50000000E-01
  8.50000000E-01  8.50000000E-01  8.50000000E-01  8.50000000E-01  8.50000000E-01
  8.50000000E-01  8.50000000E-01  8.50000000E-01  8.50000000E-01  8.50000000E-01
  8.50000000E-01  8.50000000E-01  8.50000000E-01  8.50000000E-01  8.50000000E-01
  8.50000000E-01  8.50000000E-01  8.50000000E-01  8.50000000E-01  8.50000000E-01
  8.50000000E-01  8.50000000E-01  8.50000000E-01  8.50000000E-01  8.50000000E-01
  8.50000000E-01  8.50000000E-01  8.50000000E-01  8.50000000E-01  8.50000000E-01
  8.50000000E-01  8.50000000E-01  8.50000000E-01  8.50000000E-01  8.50000000E-01
  8.50000000E-01  8.50000000E-01  8.50000000E-01  8.50000000E-01  8.50000000E-01
  8.50000000E-01  8.50000000E-01  8.50000000E-01  8.50000000E-01  8.50000000E-01
  8.50000000E-01  8.50000000E-01  8.50000000E-01  8.50000000E-01  8.50000000E-01
  8.50000000E-01  8.50000000E-01  8.50000000E-01  8.50000000E-01  8.50000000E-01
  8.50000000E-01  8.50000000E-01  8.50000000E-01  8.50000000E-01  8.50000000E-01
  8.50000000E-01  8.50000000E-01  8.50000000E-01  8.50000000E-01  8.50000000E-01
  8.50000000E-01  8.50000000E-01  8.50000000E-01  8.50000000E-01  8.50000000E-01
  8.50000000E-01  8.50000000E-01  8.50000000E-01  8.50000000E-01  8.50000000E-01
  8.50000000E-01  8.50000000E-01  8.50000000E-01  8.50000000E-01  8.50000000E-01
  8.50000000E-01  8.50000000E-01  8.50000000E-01  8.50000000E-01  8.50000000E-01
  8.50000000E-01  8.50000000E-01  8.50000000E-01  8.50000000E-01  8.50000000E-01
  8.50000000E-01  8.50000000E-01  8.50000000E-01  8.50000000E-01  8.50000000E-01
  8.50000000E-01  8.50000000E-01  8.50000000E-01  8.50000000E-01  8.50000000E-01
  8.50000000E-01  8.50000000E-01  8.50000000E-01  8.50000000E-01  8.50000000E-01
  8.50000000E-01  8.50000000E-01  8.50000000E-01  8.50000000E-01  8.50000000E-01
  8.50000000E-01  8.50000000E-01  8.50000000E-01  8.50000000E-01  8.50000000E-01
  8.50000000E-01  8.50000000E-01  8.50000000E-01  8.50000000E-01  8.50000000E-01
  8.50000000E-01  8.50000000E-01  8.50000000E-01  8.50000000E-01  8.50000000E-01
  8.50000000E-01  8.50000000E-01  8.50000000E-01  8.50000000E-01  8.50000000E-01
  8.50000000E-01  8.50000000E-01  8.50000000E-01  8.50000000E-01  8.50000000E-01
  8.50000000E-01  8.50000000E-01  8.50000000E-01  8.50000000E-01  8.50000000E-01
  8.50000000E-01  8.50000000E-01  8.50000000E-01  8.50000000E-01  8.50000000E-01
  8.50000000E-01  8.50000000E-01  8.50000000E-01  8.50000000E-01  8.50000000E-01
  8.50000000E-01  8.50000000E-01  8.50000000E-01  8.50000000E-01  8.50000000E-01
  8.50000000E-01  8.50000000E-01  8.50000000E-01  8.50000000E-01  8.50000000E-01
  8.50000000E-01  8.50000000E-01  8.50000000E-01  8.50000000E-01  8.50000000E-01
  8.50000000E-01  8.50000000E-01  8.50000000E-01  8.50000000E-01  8.50000000E-01
  8.50000000E-01  8.50000000E-01  8.50000000E-01  8.50000000E-01  8.50000000E-01
  8.50000000E-01  8.50000000E-01  8.50000000E-01  8.50000000E-01  8.50000000E-01
  8.50000000E-01  8.50000000E-01  8.50000000E-01  8.50000000E-01  8.50000000E-01
  8.50000000E-01  8.50000000E-01  8.50000000E-01  8.50000000E-01  8.50000000E-01
  8.50000000E-01  8.50000000E-01  8.50000000E-01  8.50000000E-01  8.50000000E-01
  8.50000000E-01  8.50000000E-01  8.50000000E-01  8.50000000E-01  8.50000000E-01
  8.50000000E-01  8.50000000E-01  8.50000000E-01  8.50000000E-01  8.50000000E-01
  8.50000000E-01  8.50000000E-01  8.50000000E-01  8.50000000E-01  8.50000000E-01
  8.50000000E-01  8.50000000E-01  8.50000000E-01  8.50000000E-01  8.50000000E-01
  8.50000000E-01  8.50000000E-01  8.50000000E-01  8.50000000E-01  8.50000000E-01
  8.50000000E-01  8.50000000E-01  8.50000000E-01  8.50000000E-01  8.50000000E-01
  8.50000000E-01  8.50000000E-01  8.50000000E-01  8.50000000E-01  8.50000000E-01
  8.50000000E-01  8.50000000E-01  8.50000000E-01  8.50000000E-01  8.50000000E-01
  8.50000000E-01  8.50000000E-01  8.50000000E-01  8.50000000E-01  8.50000000E-01
  8.50000000E-01  8.50000000E-01  8.50000000E-01  8.50000000E-01  8.50000000E-01
  8.50000000E-01  8.50000000E-01  8.50000000E-01  8.50000000E-01  8.50000000E-01
  8.50000000E-01  8.50000000E-01  8.50000000E-01  8.50000000E-01  8.50000000E-01
  8.50000000E-01  8.50000000E-01  8.50000000E-01  8.50000000E-01  8.50000000E-01
  8.50000000E-01  8.50000000E-01  8.50000000E-01  8.50000000E-01  8.50000000E-01
  8.50000000E-01  8.50000000E-01  8.50000000E-01  8.50000000E-01  8.50000000E-01
  8.50000000E-01  8.50000000E-01  8.50000000E-01  8.50000000E-01  8.50000000E-01
  8.50000000E-01  8.50000000E-01  8.50000000E-01  8.50000000E-01  8.50000000E-01
  8.50000000E-01  8.50000000E-01  8.50000000E-01  8.50000000E-01  8.50000000E-01
  8.50000000E-01  8.50000000E-01  8.50000000E-01  8.50000000E-01  8.50000000E-01
  8.50000000E-01  8.50000000E-01  8.50000000E-01  8.50000000E-01  8.50000000E-01
  8.50000000E-01  8.50000000E-01  8.50000000E-01  8.50000000E-01  8.50000000E-01
  8.50000000E-01  8.50000000E-01  8.50000000E-01  8.50000000E-01  8.50000000E-01
  8.50000000E-01  8.50000000E-01  8.50000000E-01  8.50000000E-01  8.50000000E-01
  8.50000000E-01  8.50000000E-01  8.50000000E-01  8.50000000E-01  8.50000000E-01
  8.50000000E-01  8.50000000E-01  8.50000000E-01  8.50000000E-01  8.50000000E-01
  8.50000000E-01  8.50000000E-01  8.50000000E-01  8.50000000E-01  8.50000000E-01
  8.50000000E-01  8.50000000E-01  8.50000000E-01  8.50000000E-01  8.50000000E-01
  8.50000000E-01  8.50000000E-01  8.50000000E-01  8.50000000E-01  8.50000000E-01
  8.50000000E-01  8.50000000E-01  8.50000000E-01  8.50000000E-01  8.50000000E-01
  8.50000000E-01  8.50000000E-01  8.50000000E-01  8.50000000E-01  8.50000000E-01
  8.50000000E-01  8.50000000E-01  8.50000000E-01  8.50000000E-01  8.50000000E-01
  8.50000000E-01  8.50000000E-01  8.50000000E-01  8.50000000E-01  8.50000000E-01
  8.50000000E-01  8.50000000E-01  8.50000000E-01  8.50000000E-01  8.50000000E-01
  8.50000000E-01  8.50000000E-01  8.50000000E-01  8.50000000E-01  8.50000000E-01
  8.50000000E-01  8.50000000E-01  8.50000000E-01  8.50000000E-01  8.50000000E-01
  8.50000000E-01  8.50000000E-01  8.50000000E-01  8.50000000E-01  8.50000000E-01
  8.50000000E-01  8.50000000E-01  8.50000000E-01  8.50000000E-01  8.50000000E-01
  8.50000000E-01  8.50000000E-01  8.50000000E-01  8.50000000E-01  8.50000000E-01
  8.50000000E-01  8.50000000E-01  8.50000000E-01  8.50000000E-01  8.50000000E-01
  8.50000000E-01  8.50000000E-01  8.50000000E-01  8.50000000E-01  8.50000000E-01
  8.50000000E-01  8.50000000E-01  8.50000000E-01  8.50000000E-01  8.50000000E-01
  8.50000000E-01  8.50000000E-01  8.50000000E-01  8.50000000E-01  8.50000000E-01
  8.50000000E-01  8.50000000E-01  8.50000000E-01  8.50000000E-01  8.50000000E-01
  8.50000000E-01  8.50000000E-01  8.50000000E-01  8.50000000E-01  8.50000000E-01
  8.50000000E-01  8.50000000E-01  8.50000000E-01  8.50000000E-01  8.50000000E-01
  8.50000000E-01  8.50000000E-01  8.50000000E-01  8.50000000E-01  8.50000000E-01
  8.50000000E-01  8.50000000E-01  8.50000000E-01  8.50000000E-01  8.50000000E-01
  8.50000000E-01  8.50000000E-01  8.50000000E-01  8.50000000E-01  8.50000000E-01
  8.50000000E-01  8.50000000E-01  8.50000000E-01  8.50000000E-01  8.50000000E-01
  8.50000000E-01  8.50000000E-01  8.50000000E-01  8.50000000E-01  8.50000000E-01
  8.50000000E-01  8.50000000E-01  8.50000000E-01  8.50000000E-01  8.50000000E-01
  8.50000000E-01  8.50000000E-01  8.50000000E-01  8.50000000E-01  8.50000000E-01
  8.50000000E-01  8.50000000E-01  8.50000000E-01  8.50000000E-01  8.50000000E-01
  8.50000000E-01  8.50000000E-01  8.50000000E-01  8.50000000E-01  8.50000000E-01
  8.50000000E-01  8.50000000E-01  8.50000000E-01  8.50000000E-01  8.50000000E-01
  8.50000000E-01  8.50000000E-01  8.50000000E-01  8.50000000E-01  8.50000000E-01
  8.50000000E-01  8.50000000E-01  8.50000000E-01  8.50000000E-01  8.50000000E-01
  8.50000000E-01  8.50000000E-01  8.50000000E-01  8.50000000E-01  8.50000000E-01
  8.50000000E-01  8.50000000E-01  8.50000000E-01  8.50000000E-01  8.50000000E-01
  8.50000000E-01  8.50000000E-01  8.50000000E-01  8.50000000E-01  8.50000000E-01
  8.50000000E-01  8.50000000E-01  8.50000000E-01  8.50000000E-01  8.50000000E-01
  8.50000000E-01  8.50000000E-01  8.50000000E-01  8.50000000E-01  8.50000000E-01
  8.50000000E-01  8.50000000E-01  8.50000000E-01  8.50000000E-01  8.50000000E-01
  8.50000000E-01  8.50000000E-01  8.50000000E-01  8.50000000E-01  8.50000000E-01
  8.50000000E-01  8.50000000E-01  8.50000000E-01  8.50000000E-01  8.50000000E-01
  8.50000000E-01  8.50000000E-01  8.50000000E-01  8.50000000E-01  8.50000000E-01
  8.50000000E-01  8.50000000E-01  8.50000000E-01  8.50000000E-01  8.50000000E-01
  8.50000000E-01  8.50000000E-01  8.50000000E-01  8.50000000E-01  8.50000000E-01
  8.50000000E-01  8.50000000E-01  8.50000000E-01  8.50000000E-01  8.50000000E-01
  8.50000000E-01  8.50000000E-01  8.50000000E-01  8.50000000E-01  8.50000000E-01
  8.50000000E-01  8.50000000E-01  8.50000000E-01  8.50000000E-01  8.50000000E-01
  8.50000000E-01  8.50000000E-01  8.50000000E-01  8.50000000E-01  8.50000000E-01
  8.50000000E-01  8.50000000E-01  8.50000000E-01  8.50000000E-01  8.50000000E-01
  8.50000000E-01  8.50000000E-01  8.50000000E-01  8.50000000E-01  8.50000000E-01
  8.50000000E-01  8.50000000E-01  8.50000000E-01  8.50000000E-01  8.50000000E-01
  8.50000000E-01  8.50000000E-01  8.50000000E-01  8.50000000E-01  8.50000000E-01
  8.50000000E-01  8.50000000E-01  8.50000000E-01  8.50000000E-01  8.50000000E-01
  8.50000000E-01  8.50000000E-01  8.50000000E-01  8.50000000E-01  8.50000000E-01
  8.50000000E-01  8.50000000E-01  8.50000000E-01  8.50000000E-01  8.50000000E-01
  8.50000000E-01  8.50000000E-01  8.50000000E-01  8.50000000E-01  8.50000000E-01
  8.50000000E-01  8.50000000E-01  8.50000000E-01  8.50000000E-01  8.50000000E-01
  8.50000000E-01  8.50000000E-01  8.50000000E-01  8.50000000E-01  8.50000000E-01
  8.50000000E-01  8.50000000E-01  8.50000000E-01  8.50000000E-01  8.50000000E-01
  8.50000000E-01  8.50000000E-01  8.50000000E-01  8.50000000E-01  8.50000000E-01
  8.50000000E-01  8.50000000E-01  8.50000000E-01  8.50000000E-01  8.50000000E-01
  8.50000000E-01  8.50000000E-01  8.50000000E-01  8.50000000E-01  8.50000000E-01
  8.50000000E-01  8.50000000E-01  8.50000000E-01  8.50000000E-01  8.50000000E-01
  8.50000000E-01  8.50000000E-01  8.50000000E-01  8.50000000E-01  8.50000000E-01
  8.50000000E-01  8.50000000E-01  8.50000000E-01  8.50000000E-01  8.50000000E-01
  8.50000000E-01  8.50000000E-01  8.50000000E-01  8.50000000E-01  8.50000000E-01
  8.50000000E-01  8.50000000E-01  8.50000000E-01  8.50000000E-01  8.50000000E-01
  8.50000000E-01  8.50000000E-01  8.50000000E-01  8.50000000E-01  8.50000000E-01
  8.50000000E-01  8.50000000E-01  8.50000000E-01  8.50000000E-01  8.50000000E-01
  8.50000000E-01  8.50000000E-01  8.50000000E-01  8.50000000E-01  8.50000000E-01
  8.50000000E-01  8.50000000E-01  8.50000000E-01  8.50000000E-01  8.50000000E-01
  8.50000000E-01  8.50000000E-01  8.50000000E-01  8.50000000E-01  8.50000000E-01
  8.50000000E-01  8.50000000E-01  8.50000000E-01  8.50000000E-01  8.50000000E-01
  8.50000000E-01  8.50000000E-01  8.50000000E-01  8.50000000E-01  8.50000000E-01
  8.50000000E-01  8.50000000E-01  8.50000000E-01  8.50000000E-01  8.50000000E-01
  8.50000000E-01  8.50000000E-01  8.50000000E-01  8.50000000E-01  8.50000000E-01
  8.50000000E-01  8.50000000E-01  8.50000000E-01  8.50000000E-01  8.50000000E-01
  8.50000000E-01  8.50000000E-01  8.50000000E-01  8.50000000E-01  8.50000000E-01
  8.50000000E-01  8.50000000E-01  8.50000000E-01  8.50000000E-01  8.50000000E-01
  8.50000000E-01  8.50000000E-01  8.50000000E-01  8.50000000E-01  8.50000000E-01
  8.50000000E-01  8.50000000E-01  8.50000000E-01  8.50000000E-01  8.50000000E-01
  8.50000000E-01  8.50000000E-01  8.50000000E-01  8.50000000E-01  8.50000000E-01
  8.50000000E-01  8.50000000E-01  8.50000000E-01  8.50000000E-01  8.50000000E-01
  8.50000000E-01  8.50000000E-01  8.50000000E-01  8.50000000E-01  8.50000000E-01
  8.50000000E-01  8.50000000E-01  8.50000000E-01  8.50000000E-01  8.50000000E-01
  8.50000000E-01  8.50000000E-01  8.50000000E-01  8.50000000E-01  8.50000000E-01
  8.50000000E-01  8.50000000E-01  8.50000000E-01  8.50000000E-01  8.50000000E-01
  8.50000000E-01  8.50000000E-01  8.50000000E-01  8.50000000E-01  8.50000000E-01
  8.50000000E-01  8.50000000E-01  8.50000000E-01  8.50000000E-01  8.50000000E-01
  8.50000000E-01  8.50000000E-01  8.50000000E-01  8.50000000E-01  8.50000000E-01
  8.50000000E-01  8.50000000E-01  8.50000000E-01  8.50000000E-01  8.50000000E-01
  8.50000000E-01  8.50000000E-01  8.50000000E-01  8.50000000E-01  8.50000000E-01
  8.50000000E-01  8.50000000E-01  8.50000000E-01  8.50000000E-01  8.50000000E-01
  8.50000000E-01  8.50000000E-01  8.50000000E-01  8.50000000E-01  8.50000000E-01
  8.50000000E-01  8.50000000E-01  8.50000000E-01  8.50000000E-01  8.50000000E-01
  8.50000000E-01  8.50000000E-01  8.50000000E-01  8.50000000E-01  8.50000000E-01
  8.50000000E-01  8.50000000E-01  8.50000000E-01  8.50000000E-01  8.50000000E-01
  8.50000000E-01  8.50000000E-01  8.50000000E-01  8.50000000E-01  8.50000000E-01
  8.50000000E-01  8.50000000E-01  8.50000000E-01  8.50000000E-01  8.50000000E-01
  8.50000000E-01  8.50000000E-01  8.50000000E-01  8.50000000E-01  8.50000000E-01
  8.50000000E-01  8.50000000E-01  8.50000000E-01  8.50000000E-01  8.50000000E-01
  8.50000000E-01  8.50000000E-01  8.50000000E-01  8.50000000E-01  8.50000000E-01
  8.50000000E-01  8.50000000E-01  8.50000000E-01  8.50000000E-01  8.50000000E-01
  8.50000000E-01  8.50000000E-01  8.50000000E-01  8.50000000E-01  8.50000000E-01
  8.50000000E-01  8.50000000E-01  8.50000000E-01  8.50000000E-01  8.50000000E-01
  8.50000000E-01  8.50000000E-01  8.50000000E-01  8.50000000E-01  8.50000000E-01
  8.50000000E-01  8.50000000E-01  8.50000000E-01  8.50000000E-01  8.50000000E-01
  8.50000000E-01  8.50000000E-01  8.50000000E-01  8.50000000E-01  8.50000000E-01
  8.50000000E-01  8.50000000E-01  8.50000000E-01  8.50000000E-01  8.50000000E-01
  8.50000000E-01  8.50000000E-01  8.50000000E-01  8.50000000E-01  8.50000000E-01
  8.50000000E-01  8.50000000E-01  8.50000000E-01  8.50000000E-01  8.50000000E-01
  8.50000000E-01  8.50000000E-01  8.50000000E-01  8.50000000E-01  8.50000000E-01
  8.50000000E-01  8.50000000E-01  8.50000000E-01  8.50000000E-01  8.50000000E-01
  8.50000000E-01  8.50000000E-01  8.50000000E-01  8.50000000E-01  8.50000000E-01
  8.50000000E-01  8.50000000E-01  8.50000000E-01  8.50000000E-01  8.50000000E-01
  8.50000000E-01  8.50000000E-01  8.50000000E-01  8.50000000E-01  8.50000000E-01
  8.50000000E-01  8.50000000E-01  8.50000000E-01  8.50000000E-01  8.50000000E-01
  8.50000000E-01  8.50000000E-01  8.50000000E-01  8.50000000E-01  8.50000000E-01
  8.50000000E-01  8.50000000E-01  8.50000000E-01  8.50000000E-01  8.50000000E-01
  8.50000000E-01  8.50000000E-01  8.50000000E-01  8.50000000E-01  8.50000000E-01
  8.50000000E-01  8.50000000E-01  8.50000000E-01  8.50000000E-01  8.50000000E-01
  8.50000000E-01  8.50000000E-01  8.50000000E-01  8.50000000E-01  8.50000000E-01
  8.50000000E-01  8.50000000E-01  8.50000000E-01  8.50000000E-01  8.50000000E-01
  8.50000000E-01  8.50000000E-01  8.50000000E-01  8.50000000E-01  8.50000000E-01
  8.50000000E-01  8.50000000E-01  8.50000000E-01  8.50000000E-01  8.50000000E-01
  8.50000000E-01  8.50000000E-01  8.50000000E-01  8.50000000E-01  8.50000000E-01
  8.50000000E-01  8.50000000E-01  8.50000000E-01  8.50000000E-01  8.50000000E-01
  8.50000000E-01  8.50000000E-01  8.50000000E-01  8.50000000E-01  8.50000000E-01
  8.50000000E-01  8.50000000E-01  8.50000000E-01  8.50000000E-01  8.50000000E-01
  8.50000000E-01  8.50000000E-01  8.50000000E-01  8.50000000E-01  8.50000000E-01
  8.50000000E-01  8.50000000E-01  8.50000000E-01  8.50000000E-01  8.50000000E-01
  8.50000000E-01  8.50000000E-01  8.50000000E-01  8.50000000E-01  8.50000000E-01
  8.50000000E-01  8.50000000E-01  8.50000000E-01  8.50000000E-01  8.50000000E-01
  8.50000000E-01  8.50000000E-01  8.50000000E-01  8.50000000E-01  8.50000000E-01
  8.50000000E-01  8.50000000E-01  8.50000000E-01  8.50000000E-01  8.50000000E-01
  8.50000000E-01  8.50000000E-01  8.50000000E-01  8.50000000E-01  8.50000000E-01
  8.50000000E-01  8.50000000E-01  8.50000000E-01  8.50000000E-01  8.50000000E-01
  8.50000000E-01  8.50000000E-01  8.50000000E-01  8.50000000E-01  8.50000000E-01
  8.50000000E-01  8.50000000E-01  8.50000000E-01  8.50000000E-01  8.50000000E-01
  8.50000000E-01  8.50000000E-01  8.50000000E-01  8.50000000E-01  8.50000000E-01
  8.50000000E-01  8.50000000E-01  8.50000000E-01  8.50000000E-01  8.50000000E-01
  8.50000000E-01  8.50000000E-01  8.50000000E-01  8.50000000E-01  8.50000000E-01
  8.50000000E-01  8.50000000E-01  8.50000000E-01  8.50000000E-01  8.50000000E-01
  8.50000000E-01  8.50000000E-01  8.50000000E-01  8.50000000E-01  8.50000000E-01
  8.50000000E-01  8.50000000E-01  8.50000000E-01  8.50000000E-01  8.50000000E-01
  8.50000000E-01  8.50000000E-01  8.50000000E-01  8.50000000E-01  8.50000000E-01
  8.50000000E-01  8.50000000E-01  8.50000000E-01  8.50000000E-01  8.50000000E-01
  8.50000000E-01  8.50000000E-01  8.50000000E-01  8.50000000E-01  8.50000000E-01
  8.50000000E-01  8.50000000E-01  8.50000000E-01  8.50000000E-01  8.50000000E-01
  8.50000000E-01  8.50000000E-01  8.50000000E-01  8.50000000E-01  8.50000000E-01
  8.50000000E-01  8.50000000E-01  8.50000000E-01  8.50000000E-01  8.50000000E-01
  8.50000000E-01  8.50000000E-01  8.50000000E-01  8.50000000E-01  8.50000000E-01
  8.50000000E-01  8.50000000E-01  8.50000000E-01  8.50000000E-01  8.50000000E-01
  8.50000000E-01  8.50000000E-01  8.50000000E-01  8.50000000E-01  8.50000000E-01
  8.50000000E-01  8.50000000E-01  8.50000000E-01  8.50000000E-01  8.50000000E-01
  8.50000000E-01  8.50000000E-01  8.50000000E-01  8.50000000E-01  8.50000000E-01
  8.50000000E-01  8.50000000E-01  8.50000000E-01  8.50000000E-01  8.50000000E-01
  8.50000000E-01  8.50000000E-01  8.50000000E-01  8.50000000E-01  8.50000000E-01
  8.50000000E-01  8.50000000E-01  8.50000000E-01  8.50000000E-01  8.50000000E-01
  8.50000000E-01  8.50000000E-01  8.50000000E-01  8.50000000E-01  8.50000000E-01
  8.50000000E-01  8.50000000E-01  8.50000000E-01  8.50000000E-01  8.50000000E-01
  8.50000000E-01  8.50000000E-01  8.50000000E-01  8.50000000E-01  8.50000000E-01
  8.50000000E-01  8.50000000E-01  8.50000000E-01  8.50000000E-01  8.50000000E-01
  8.50000000E-01  8.50000000E-01  8.50000000E-01  8.50000000E-01  8.50000000E-01
  8.50000000E-01  8.50000000E-01  8.50000000E-01  8.50000000E-01  8.50000000E-01
  8.50000000E-01  8.50000000E-01  8.50000000E-01  8.50000000E-01  8.50000000E-01
  8.50000000E-01  8.50000000E-01  8.50000000E-01  8.50000000E-01  8.50000000E-01
  8.50000000E-01  8.50000000E-01  8.50000000E-01  8.50000000E-01  8.50000000E-01
  8.50000000E-01  8.50000000E-01  8.50000000E-01  8.50000000E-01  8.50000000E-01
  8.50000000E-01  8.50000000E-01  8.50000000E-01  8.50000000E-01  8.50000000E-01
  8.50000000E-01  8.50000000E-01  8.50000000E-01  8.50000000E-01  8.50000000E-01
  8.50000000E-01  8.50000000E-01  8.50000000E-01  8.50000000E-01  8.50000000E-01
  8.50000000E-01  8.50000000E-01  8.50000000E-01  8.50000000E-01  8.50000000E-01
  8.50000000E-01  8.50000000E-01  8.50000000E-01  8.50000000E-01  8.50000000E-01
  8.50000000E-01  8.50000000E-01  8.50000000E-01  8.50000000E-01  8.50000000E-01
  8.50000000E-01  8.50000000E-01  8.50000000E-01  8.50000000E-01  8.50000000E-01
  8.50000000E-01  8.50000000E-01  8.50000000E-01  8.50000000E-01  8.50000000E-01
  8.50000000E-01  8.50000000E-01  8.50000000E-01  8.50000000E-01  8.50000000E-01
  8.50000000E-01  8.50000000E-01  8.50000000E-01  8.50000000E-01  8.50000000E-01
  8.50000000E-01  8.50000000E-01  8.50000000E-01  8.50000000E-01  8.50000000E-01
  8.50000000E-01  8.50000000E-01  8.50000000E-01  8.50000000E-01  8.50000000E-01
  8.50000000E-01  8.50000000E-01  8.50000000E-01  8.50000000E-01  8.50000000E-01
  8.50000000E-01  8.50000000E-01  8.50000000E-01  8.50000000E-01  8.50000000E-01
  8.50000000E-01  8.50000000E-01  8.50000000E-01  8.50000000E-01  8.50000000E-01
  8.50000000E-01  8.50000000E-01  8.50000000E-01  8.50000000E-01  8.50000000E-01
  8.50000000E-01  8.50000000E-01  8.50000000E-01  8.50000000E-01  8.50000000E-01
  8.50000000E-01  8.50000000E-01  8.50000000E-01  8.50000000E-01  8.50000000E-01
  8.50000000E-01  8.50000000E-01  8.50000000E-01  8.50000000E-01  8.50000000E-01
  8.50000000E-01  8.50000000E-01  8.50000000E-01  8.50000000E-01  8.50000000E-01
  8.50000000E-01  8.50000000E-01  8.50000000E-01  8.50000000E-01  8.50000000E-01
  8.50000000E-01  8.50000000E-01  8.50000000E-01  8.50000000E-01  8.50000000E-01
  8.50000000E-01  8.50000000E-01  8.50000000E-01  8.50000000E-01  8.50000000E-01
  8.50000000E-01  8.50000000E-01  8.50000000E-01  8.50000000E-01  8.50000000E-01
  8.50000000E-01  8.50000000E-01  8.50000000E-01  8.50000000E-01  8.50000000E-01
  8.50000000E-01  8.50000000E-01  8.50000000E-01  8.50000000E-01  8.50000000E-01
  8.50000000E-01  8.50000000E-01  8.50000000E-01  8.50000000E-01  8.50000000E-01
  8.50000000E-01  8.50000000E-01  8.50000000E-01  8.50000000E-01  8.50000000E-01
  8.50000000E-01  8.50000000E-01  8.50000000E-01  8.50000000E-01  8.50000000E-01
  8.50000000E-01  8.50000000E-01  8.50000000E-01  8.50000000E-01  8.50000000E-01
  8.50000000E-01  8.50000000E-01  8.50000000E-01  8.50000000E-01  8.50000000E-01
  8.50000000E-01  8.50000000E-01  8.50000000E-01  8.50000000E-01  8.50000000E-01
  8.50000000E-01  8.50000000E-01  8.50000000E-01  8.50000000E-01  8.50000000E-01
  8.50000000E-01  8.50000000E-01  8.50000000E-01  8.50000000E-01  8.50000000E-01
  8.50000000E-01  8.50000000E-01  8.50000000E-01  8.50000000E-01  8.50000000E-01
  8.50000000E-01  8.50000000E-01  8.50000000E-01  8.50000000E-01  8.50000000E-01
  8.50000000E-01  8.50000000E-01  8.50000000E-01  8.50000000E-01  8.50000000E-01
  8.50000000E-01  8.50000000E-01  8.50000000E-01  8.50000000E-01  8.50000000E-01
  8.50000000E-01  8.50000000E-01  8.50000000E-01  8.50000000E-01  8.50000000E-01
  8.50000000E-01  8.50000000E-01  8.50000000E-01  8.50000000E-01  8.50000000E-01
  8.50000000E-01  8.50000000E-01  8.50000000E-01  8.50000000E-01  8.50000000E-01
  8.50000000E-01  8.50000000E-01  8.50000000E-01  8.50000000E-01  8.50000000E-01
  8.50000000E-01  8.50000000E-01  8.50000000E-01  8.50000000E-01  8.50000000E-01
  8.50000000E-01  8.50000000E-01  8.50000000E-01  8.50000000E-01  8.50000000E-01
  8.50000000E-01  8.50000000E-01  8.50000000E-01  8.50000000E-01  8.50000000E-01
  8.50000000E-01  8.50000000E-01  8.50000000E-01  8.50000000E-01  8.50000000E-01
  8.50000000E-01  8.50000000E-01  8.50000000E-01  8.50000000E-01  8.50000000E-01
  8.50000000E-01  8.50000000E-01  8.50000000E-01  8.50000000E-01  8.50000000E-01
  8.50000000E-01  8.50000000E-01  8.50000000E-01  8.50000000E-01  8.50000000E-01
  8.50000000E-01  8.50000000E-01  8.50000000E-01  8.50000000E-01  8.50000000E-01
  8.50000000E-01  8.50000000E-01  8.50000000E-01  8.50000000E-01  8.50000000E-01
  8.50000000E-01  8.50000000E-01  8.50000000E-01  8.50000000E-01  8.50000000E-01
  8.50000000E-01  8.50000000E-01  8.50000000E-01  8.50000000E-01  8.50000000E-01
  8.50000000E-01  8.50000000E-01  8.50000000E-01  8.50000000E-01  8.50000000E-01
  8.50000000E-01  8.50000000E-01  8.50000000E-01  8.50000000E-01  8.50000000E-01
  8.50000000E-01  8.50000000E-01  8.50000000E-01  8.50000000E-01  8.50000000E-01
  8.50000000E-01  8.50000000E-01  8.50000000E-01  8.50000000E-01  8.50000000E-01
  8.50000000E-01  8.50000000E-01  8.50000000E-01  8.50000000E-01  8.50000000E-01
  8.50000000E-01  8.50000000E-01  8.50000000E-01  8.50000000E-01  8.50000000E-01
  8.50000000E-01  8.50000000E-01  8.50000000E-01  8.50000000E-01  8.50000000E-01
  8.50000000E-01  8.50000000E-01  8.50000000E-01  8.50000000E-01  8.50000000E-01
  8.50000000E-01  8.50000000E-01  8.50000000E-01  8.50000000E-01  8.50000000E-01
  8.50000000E-01  8.50000000E-01  8.50000000E-01  8.50000000E-01  8.50000000E-01
  8.50000000E-01  8.50000000E-01  8.50000000E-01  8.50000000E-01  8.50000000E-01
  8.50000000E-01  8.50000000E-01  8.50000000E-01  8.50000000E-01  8.50000000E-01
  8.50000000E-01  8.50000000E-01  8.50000000E-01  8.50000000E-01  8.50000000E-01
  8.50000000E-01  8.50000000E-01  8.50000000E-01  8.50000000E-01  8.50000000E-01
  8.50000000E-01  8.50000000E-01  8.50000000E-01  8.50000000E-01  8.50000000E-01
  8.50000000E-01  8.50000000E-01  8.50000000E-01  8.50000000E-01  8.50000000E-01
  8.50000000E-01  8.50000000E-01  8.50000000E-01  8.50000000E-01  8.50000000E-01
  8.50000000E-01  8.50000000E-01  8.50000000E-01  8.50000000E-01  8.50000000E-01
  8.50000000E-01  8.50000000E-01  8.50000000E-01  8.50000000E-01  8.50000000E-01
  8.50000000E-01  8.50000000E-01  8.50000000E-01  8.50000000E-01  8.50000000E-01
  8.50000000E-01  8.50000000E-01  8.50000000E-01  8.50000000E-01  8.50000000E-01
  8.50000000E-01  8.50000000E-01  8.50000000E-01  8.50000000E-01  8.50000000E-01
  8.50000000E-01  8.50000000E-01  8.50000000E-01  8.50000000E-01  8.50000000E-01
  8.50000000E-01  8.50000000E-01  8.50000000E-01  8.50000000E-01  8.50000000E-01
  8.50000000E-01  8.50000000E-01  8.50000000E-01  8.50000000E-01  8.50000000E-01
  8.50000000E-01  8.50000000E-01  8.50000000E-01  8.50000000E-01  8.50000000E-01
  8.50000000E-01  8.50000000E-01  8.50000000E-01  8.50000000E-01  8.50000000E-01
  8.50000000E-01  8.50000000E-01  8.50000000E-01  8.50000000E-01  8.50000000E-01
  8.50000000E-01  8.50000000E-01  8.50000000E-01  8.50000000E-01  8.50000000E-01
  8.50000000E-01  8.50000000E-01  8.50000000E-01  8.50000000E-01  8.50000000E-01
  8.50000000E-01  8.50000000E-01  8.50000000E-01  8.50000000E-01  8.50000000E-01
  8.50000000E-01  8.50000000E-01  8.50000000E-01  8.50000000E-01  8.50000000E-01
  8.50000000E-01  8.50000000E-01  8.50000000E-01  8.50000000E-01  8.50000000E-01
  8.50000000E-01  8.50000000E-01  8.50000000E-01  8.50000000E-01  8.50000000E-01
  8.50000000E-01  8.50000000E-01  8.50000000E-01  8.50000000E-01  8.50000000E-01
  8.50000000E-01  8.50000000E-01  8.50000000E-01  8.50000000E-01  8.50000000E-01
  8.50000000E-01  8.50000000E-01  8.50000000E-01  8.50000000E-01  8.50000000E-01
  8.50000000E-01  8.50000000E-01  8.50000000E-01  8.50000000E-01  8.50000000E-01
  8.50000000E-01  8.50000000E-01  8.50000000E-01  8.50000000E-01  8.50000000E-01
  8.50000000E-01  8.50000000E-01  8.50000000E-01  8.50000000E-01  8.50000000E-01
  8.50000000E-01  8.50000000E-01  8.50000000E-01  8.50000000E-01  8.50000000E-01
  8.50000000E-01  8.50000000E-01  8.50000000E-01  8.50000000E-01  8.50000000E-01
  8.50000000E-01  8.50000000E-01  8.50000000E-01  8.50000000E-01  8.50000000E-01
  8.50000000E-01  8.50000000E-01  8.50000000E-01  8.50000000E-01  8.50000000E-01
  8.50000000E-01  8.50000000E-01  8.50000000E-01  8.50000000E-01  8.50000000E-01
  8.50000000E-01  8.50000000E-01  8.50000000E-01  8.50000000E-01  8.50000000E-01
  8.50000000E-01  8.50000000E-01  8.50000000E-01  8.50000000E-01  8.50000000E-01
  8.50000000E-01  8.50000000E-01  8.50000000E-01  8.50000000E-01  8.50000000E-01
  8.50000000E-01  8.50000000E-01  8.50000000E-01  8.50000000E-01  8.50000000E-01
  8.50000000E-01  8.50000000E-01  8.50000000E-01  8.50000000E-01  8.50000000E-01
  8.50000000E-01  8.50000000E-01  8.50000000E-01  8.50000000E-01  8.50000000E-01
  8.50000000E-01  8.50000000E-01  8.50000000E-01  8.50000000E-01  8.50000000E-01
  8.50000000E-01  8.50000000E-01  8.50000000E-01  8.50000000E-01  8.50000000E-01
  8.50000000E-01  8.50000000E-01  8.50000000E-01  8.50000000E-01  8.50000000E-01
  8.50000000E-01  8.50000000E-01  8.50000000E-01  8.50000000E-01  8.50000000E-01
  8.50000000E-01  8.50000000E-01  8.50000000E-01  8.50000000E-01  8.50000000E-01
  8.50000000E-01  8.50000000E-01  8.50000000E-01  8.50000000E-01  8.50000000E-01
  8.50000000E-01  8.50000000E-01  8.50000000E-01  8.50000000E-01  8.50000000E-01
  8.50000000E-01  8.50000000E-01  8.50000000E-01  8.50000000E-01  8.50000000E-01
  8.50000000E-01  8.50000000E-01  8.50000000E-01  8.50000000E-01  8.50000000E-01
  8.50000000E-01  8.50000000E-01  8.50000000E-01  8.50000000E-01  8.50000000E-01
  8.50000000E-01  8.50000000E-01  8.50000000E-01  8.50000000E-01  8.50000000E-01
  8.50000000E-01  8.50000000E-01  8.50000000E-01  8.50000000E-01  8.50000000E-01
  8.50000000E-01  8.50000000E-01  8.50000000E-01  8.50000000E-01  8.50000000E-01
  8.50000000E-01  8.50000000E-01  8.50000000E-01  8.50000000E-01  8.50000000E-01
  8.50000000E-01  8.50000000E-01  8.50000000E-01  8.50000000E-01  8.50000000E-01
  8.50000000E-01  8.50000000E-01  8.50000000E-01  8.50000000E-01  8.50000000E-01
  8.50000000E-01  8.50000000E-01  8.50000000E-01  8.50000000E-01  8.50000000E-01
  8.50000000E-01  8.50000000E-01  8.50000000E-01  8.50000000E-01  8.50000000E-01
  8.50000000E-01  8.50000000E-01  8.50000000E-01  8.50000000E-01  8.50000000E-01
  8.50000000E-01  8.50000000E-01  8.50000000E-01  8.50000000E-01  8.50000000E-01
  8.50000000E-01  8.50000000E-01  8.50000000E-01  8.50000000E-01  8.50000000E-01
  8.50000000E-01  8.50000000E-01  8.50000000E-01  8.50000000E-01  8.50000000E-01
  8.50000000E-01  8.50000000E-01  8.50000000E-01  8.50000000E-01  8.50000000E-01
  8.50000000E-01  8.50000000E-01  8.50000000E-01  8.50000000E-01  8.50000000E-01
  8.50000000E-01  8.50000000E-01  8.50000000E-01  8.50000000E-01  8.50000000E-01
  8.50000000E-01  8.50000000E-01  8.50000000E-01  8.50000000E-01  8.50000000E-01
  8.50000000E-01  8.50000000E-01  8.50000000E-01  8.50000000E-01  8.50000000E-01
  8.50000000E-01  8.50000000E-01  8.50000000E-01  8.50000000E-01  8.50000000E-01
  8.50000000E-01  8.50000000E-01  8.50000000E-01  8.50000000E-01  8.50000000E-01
  8.50000000E-01  8.50000000E-01  8.50000000E-01  8.50000000E-01  8.50000000E-01
  8.50000000E-01  8.50000000E-01  8.50000000E-01  8.50000000E-01  8.50000000E-01
  8.50000000E-01  8.50000000E-01  8.50000000E-01  8.50000000E-01  8.50000000E-01
  8.50000000E-01  8.50000000E-01  8.50000000E-01  8.50000000E-01  8.50000000E-01
  8.50000000E-01  8.50000000E-01  8.50000000E-01  8.50000000E-01  8.50000000E-01
  8.50000000E-01  8.50000000E-01  8.50000000E-01  8.50000000E-01  8.50000000E-01
  8.50000000E-01  8.50000000E-01  8.50000000E-01  8.50000000E-01  8.50000000E-01
  8.50000000E-01  8.50000000E-01  8.50000000E-01  8.50000000E-01  8.50000000E-01
  8.50000000E-01  8.50000000E-01  8.50000000E-01  8.50000000E-01  8.50000000E-01
  8.50000000E-01  8.50000000E-01  8.50000000E-01  8.50000000E-01  8.50000000E-01
  8.50000000E-01  8.50000000E-01  8.50000000E-01  8.50000000E-01  8.50000000E-01
  8.50000000E-01  8.50000000E-01  8.50000000E-01  8.50000000E-01  8.50000000E-01
  8.50000000E-01  8.50000000E-01  8.50000000E-01  8.50000000E-01  8.50000000E-01
  8.50000000E-01  8.50000000E-01  8.50000000E-01  8.50000000E-01  8.50000000E-01
  8.50000000E-01  8.50000000E-01  8.50000000E-01  8.50000000E-01  8.50000000E-01
  8.50000000E-01  8.50000000E-01  8.50000000E-01  8.50000000E-01  8.50000000E-01
  8.50000000E-01  8.50000000E-01  8.50000000E-01  8.50000000E-01  8.50000000E-01
  8.50000000E-01  8.50000000E-01  8.50000000E-01  8.50000000E-01  8.50000000E-01
  8.50000000E-01  8.50000000E-01  8.50000000E-01  8.50000000E-01  8.50000000E-01
  8.50000000E-01  8.50000000E-01  8.50000000E-01  8.50000000E-01  8.50000000E-01
  8.50000000E-01  8.50000000E-01  8.50000000E-01  8.50000000E-01  8.50000000E-01
  8.50000000E-01  8.50000000E-01  8.50000000E-01  8.50000000E-01  8.50000000E-01
  8.50000000E-01  8.50000000E-01  8.50000000E-01  8.50000000E-01  8.50000000E-01
  8.50000000E-01  8.50000000E-01  8.50000000E-01  8.50000000E-01  8.50000000E-01
  8.50000000E-01  8.50000000E-01  8.50000000E-01  8.50000000E-01  8.50000000E-01
  8.50000000E-01  8.50000000E-01  8.50000000E-01  8.50000000E-01  8.50000000E-01
  8.50000000E-01  8.50000000E-01  8.50000000E-01  8.50000000E-01  8.50000000E-01
  8.50000000E-01  8.50000000E-01  8.50000000E-01  8.50000000E-01  8.50000000E-01
  8.50000000E-01  8.50000000E-01  8.50000000E-01  8.50000000E-01  8.50000000E-01
  8.50000000E-01  8.50000000E-01  8.50000000E-01  8.50000000E-01  8.50000000E-01
  8.50000000E-01  8.50000000E-01  8.50000000E-01  8.50000000E-01  8.50000000E-01
  8.50000000E-01  8.50000000E-01  8.50000000E-01  8.50000000E-01  8.50000000E-01
  8.50000000E-01  8.50000000E-01  8.50000000E-01  8.50000000E-01  8.50000000E-01
  8.50000000E-01  8.50000000E-01  8.50000000E-01  8.50000000E-01  8.50000000E-01
  8.50000000E-01  8.50000000E-01  8.50000000E-01  8.50000000E-01  8.50000000E-01
  8.50000000E-01  8.50000000E-01  8.50000000E-01  8.50000000E-01  8.50000000E-01
  8.50000000E-01  8.50000000E-01  8.50000000E-01  8.50000000E-01  8.50000000E-01
  8.50000000E-01  8.50000000E-01  8.50000000E-01  8.50000000E-01  8.50000000E-01
  8.50000000E-01  8.50000000E-01  8.50000000E-01  8.50000000E-01  8.50000000E-01
  8.50000000E-01  8.50000000E-01  8.50000000E-01  8.50000000E-01  8.50000000E-01
  8.50000000E-01  8.50000000E-01  8.50000000E-01  8.50000000E-01  8.50000000E-01
  8.50000000E-01  8.50000000E-01  8.50000000E-01  8.50000000E-01  8.50000000E-01
  8.50000000E-01  8.50000000E-01  8.50000000E-01  8.50000000E-01  8.50000000E-01
  8.50000000E-01  8.50000000E-01  8.50000000E-01  8.50000000E-01  8.50000000E-01
  8.50000000E-01  8.50000000E-01  8.50000000E-01  8.50000000E-01  8.50000000E-01
  8.50000000E-01  8.50000000E-01  8.50000000E-01  8.50000000E-01  8.50000000E-01
  8.50000000E-01  8.50000000E-01  8.50000000E-01  8.50000000E-01  8.50000000E-01
  8.50000000E-01  8.50000000E-01  8.50000000E-01  8.50000000E-01  8.50000000E-01
  8.50000000E-01  8.50000000E-01  8.50000000E-01  8.50000000E-01  8.50000000E-01
  8.50000000E-01  8.50000000E-01  8.50000000E-01  8.50000000E-01  8.50000000E-01
  8.50000000E-01  8.50000000E-01  8.50000000E-01  8.50000000E-01  8.50000000E-01
  8.50000000E-01  8.50000000E-01  8.50000000E-01  8.50000000E-01  8.50000000E-01
  8.50000000E-01  8.50000000E-01  8.50000000E-01  8.50000000E-01  8.50000000E-01
  8.50000000E-01  8.50000000E-01  8.50000000E-01  8.50000000E-01  8.50000000E-01
  8.50000000E-01  8.50000000E-01  8.50000000E-01  8.50000000E-01  8.50000000E-01
  8.50000000E-01  8.50000000E-01  8.50000000E-01  8.50000000E-01  8.50000000E-01
  8.50000000E-01  8.50000000E-01  8.50000000E-01  8.50000000E-01  8.50000000E-01
  8.50000000E-01  8.50000000E-01  8.50000000E-01  8.50000000E-01  8.50000000E-01
  8.50000000E-01  8.50000000E-01  8.50000000E-01  8.50000000E-01  8.50000000E-01
  8.50000000E-01  8.50000000E-01  8.50000000E-01  8.50000000E-01  8.50000000E-01
  8.50000000E-01  8.50000000E-01  8.50000000E-01  8.50000000E-01  8.50000000E-01
  8.50000000E-01  8.50000000E-01  8.50000000E-01  8.50000000E-01  8.50000000E-01
  8.50000000E-01  8.50000000E-01  8.50000000E-01  8.50000000E-01  8.50000000E-01
  8.50000000E-01  8.50000000E-01  8.50000000E-01  8.50000000E-01  8.50000000E-01
  8.50000000E-01  8.50000000E-01  8.50000000E-01  8.50000000E-01  8.50000000E-01
  8.50000000E-01  8.50000000E-01  8.50000000E-01  8.50000000E-01  8.50000000E-01
  8.50000000E-01  8.50000000E-01  8.50000000E-01  8.50000000E-01  8.50000000E-01
  8.50000000E-01  8.50000000E-01  8.50000000E-01  8.50000000E-01  8.50000000E-01
  8.50000000E-01  8.50000000E-01  8.50000000E-01  8.50000000E-01  8.50000000E-01
  8.50000000E-01  8.50000000E-01  8.50000000E-01  8.50000000E-01  8.50000000E-01
  8.50000000E-01  8.50000000E-01  8.50000000E-01  8.50000000E-01  8.50000000E-01
  8.50000000E-01  8.50000000E-01  8.50000000E-01  8.50000000E-01  8.50000000E-01
  8.50000000E-01  8.50000000E-01  8.50000000E-01  8.50000000E-01  8.50000000E-01
  8.50000000E-01  8.50000000E-01  8.50000000E-01  8.50000000E-01  8.50000000E-01
  8.50000000E-01  8.50000000E-01  8.50000000E-01  8.50000000E-01  8.50000000E-01
  8.50000000E-01  8.50000000E-01  8.50000000E-01  8.50000000E-01  8.50000000E-01
  8.50000000E-01  8.50000000E-01  8.50000000E-01  8.50000000E-01  8.50000000E-01
  8.50000000E-01  8.50000000E-01  8.50000000E-01  8.50000000E-01  8.50000000E-01
  8.50000000E-01  8.50000000E-01  8.50000000E-01  8.50000000E-01  8.50000000E-01
  8.50000000E-01  8.50000000E-01  8.50000000E-01  8.50000000E-01  8.50000000E-01
  8.50000000E-01  8.50000000E-01  8.50000000E-01  8.50000000E-01  8.50000000E-01
  8.50000000E-01  8.50000000E-01  8.50000000E-01  8.50000000E-01  8.50000000E-01
  8.50000000E-01  8.50000000E-01  8.50000000E-01  8.50000000E-01  8.50000000E-01
  8.50000000E-01  8.50000000E-01  8.50000000E-01  8.50000000E-01  8.50000000E-01
  8.50000000E-01  8.50000000E-01  8.50000000E-01  8.50000000E-01  8.50000000E-01
  8.50000000E-01  8.50000000E-01  8.50000000E-01  8.50000000E-01  8.50000000E-01
  8.50000000E-01  8.50000000E-01  8.50000000E-01  8.50000000E-01  8.50000000E-01
  8.50000000E-01  8.50000000E-01  8.50000000E-01  8.50000000E-01  8.50000000E-01
  8.50000000E-01  8.50000000E-01  8.50000000E-01  8.50000000E-01  8.50000000E-01
  8.50000000E-01  8.50000000E-01  8.50000000E-01  8.50000000E-01  8.50000000E-01
  8.50000000E-01  8.50000000E-01  8.50000000E-01  8.50000000E-01  8.50000000E-01
  8.50000000E-01  8.50000000E-01  8.50000000E-01  8.50000000E-01  8.50000000E-01
  8.50000000E-01  8.50000000E-01  8.50000000E-01  8.50000000E-01  8.50000000E-01
  8.50000000E-01  8.50000000E-01  8.50000000E-01  8.50000000E-01  8.50000000E-01
  8.50000000E-01  8.50000000E-01  8.50000000E-01  8.50000000E-01  8.50000000E-01
  8.50000000E-01  8.50000000E-01  8.50000000E-01  8.50000000E-01  8.50000000E-01
  8.50000000E-01  8.50000000E-01  8.50000000E-01  8.50000000E-01  8.50000000E-01
  8.50000000E-01  8.50000000E-01  8.50000000E-01  8.50000000E-01  8.50000000E-01
  8.50000000E-01  8.50000000E-01  8.50000000E-01  8.50000000E-01  8.50000000E-01
  8.50000000E-01  8.50000000E-01  8.50000000E-01  8.50000000E-01  8.50000000E-01
  8.50000000E-01  8.50000000E-01  8.50000000E-01  8.50000000E-01  8.50000000E-01
  8.50000000E-01  8.50000000E-01  8.50000000E-01  8.50000000E-01  8.50000000E-01
  8.50000000E-01  8.50000000E-01  8.50000000E-01  8.50000000E-01  8.50000000E-01
  8.50000000E-01  8.50000000E-01  8.50000000E-01  8.50000000E-01  8.50000000E-01
  8.50000000E-01  8.50000000E-01  8.50000000E-01  8.50000000E-01  8.50000000E-01
  8.50000000E-01  8.50000000E-01  8.50000000E-01  8.50000000E-01  8.50000000E-01
  8.50000000E-01  8.50000000E-01  8.50000000E-01  8.50000000E-01  8.50000000E-01
  8.50000000E-01  8.50000000E-01  8.50000000E-01  8.50000000E-01  8.50000000E-01
  8.50000000E-01  8.50000000E-01  8.50000000E-01  8.50000000E-01  8.50000000E-01
  8.50000000E-01  8.50000000E-01  8.50000000E-01  8.50000000E-01  8.50000000E-01
  8.50000000E-01  8.50000000E-01  8.50000000E-01  8.50000000E-01  8.50000000E-01
  8.50000000E-01  8.50000000E-01  8.50000000E-01  8.50000000E-01  8.50000000E-01
  8.50000000E-01  8.50000000E-01  8.50000000E-01  8.50000000E-01  8.50000000E-01
  8.50000000E-01  8.50000000E-01  8.50000000E-01  8.50000000E-01  8.50000000E-01
  8.50000000E-01  8.50000000E-01  8.50000000E-01  8.50000000E-01  8.50000000E-01
  8.50000000E-01  8.50000000E-01  8.50000000E-01  8.50000000E-01  8.50000000E-01
  8.50000000E-01  8.50000000E-01  8.50000000E-01  8.50000000E-01  8.50000000E-01
  8.50000000E-01  8.50000000E-01  8.50000000E-01  8.50000000E-01  8.50000000E-01
  8.50000000E-01  8.50000000E-01  8.50000000E-01  8.50000000E-01  8.50000000E-01
  8.50000000E-01  8.50000000E-01  8.50000000E-01  8.50000000E-01  8.50000000E-01
  8.50000000E-01  8.50000000E-01  8.50000000E-01  8.50000000E-01  8.50000000E-01
  8.50000000E-01  8.50000000E-01  8.50000000E-01  8.50000000E-01  8.50000000E-01
  8.50000000E-01  8.50000000E-01  8.50000000E-01  8.50000000E-01  8.50000000E-01
  8.50000000E-01  8.50000000E-01  8.50000000E-01  8.50000000E-01  8.50000000E-01
  8.50000000E-01  8.50000000E-01  8.50000000E-01  8.50000000E-01  8.50000000E-01
  8.50000000E-01  8.50000000E-01  8.50000000E-01  8.50000000E-01  8.50000000E-01
  8.50000000E-01  8.50000000E-01  8.50000000E-01  8.50000000E-01  8.50000000E-01
  8.50000000E-01  8.50000000E-01  8.50000000E-01  8.50000000E-01  8.50000000E-01
  8.50000000E-01  8.50000000E-01  8.50000000E-01  8.50000000E-01  8.50000000E-01
  8.50000000E-01  8.50000000E-01  8.50000000E-01  8.50000000E-01  8.50000000E-01
  8.50000000E-01  8.50000000E-01  8.50000000E-01  8.50000000E-01  8.50000000E-01
  8.50000000E-01  8.50000000E-01  8.50000000E-01  8.50000000E-01  8.50000000E-01
  8.50000000E-01  8.50000000E-01  8.50000000E-01  8.50000000E-01  8.50000000E-01
  8.50000000E-01  8.50000000E-01  8.50000000E-01  8.50000000E-01  8.50000000E-01
  8.50000000E-01  8.50000000E-01  8.50000000E-01  8.50000000E-01  8.50000000E-01
  8.50000000E-01  8.50000000E-01  8.50000000E-01  8.50000000E-01  8.50000000E-01
  8.50000000E-01  8.50000000E-01  8.50000000E-01  8.50000000E-01  8.50000000E-01
  8.50000000E-01  8.50000000E-01  8.50000000E-01  8.50000000E-01  8.50000000E-01
  8.50000000E-01  8.50000000E-01  8.50000000E-01  8.50000000E-01  8.50000000E-01
  8.50000000E-01  8.50000000E-01  8.50000000E-01  8.50000000E-01  8.50000000E-01
  8.50000000E-01  8.50000000E-01  8.50000000E-01  8.50000000E-01  8.50000000E-01
  8.50000000E-01  8.50000000E-01  8.50000000E-01  8.50000000E-01  8.50000000E-01
  8.50000000E-01  8.50000000E-01  8.50000000E-01  8.50000000E-01  8.50000000E-01
  8.50000000E-01  8.50000000E-01  8.50000000E-01  8.50000000E-01  8.50000000E-01
  8.50000000E-01  8.50000000E-01  8.50000000E-01  8.50000000E-01  8.50000000E-01
  8.50000000E-01  8.50000000E-01  8.50000000E-01  8.50000000E-01  8.50000000E-01
  8.50000000E-01  8.50000000E-01  8.50000000E-01  8.50000000E-01  8.50000000E-01
  8.50000000E-01  8.50000000E-01  8.50000000E-01  8.50000000E-01  8.50000000E-01
  8.50000000E-01  8.50000000E-01  8.50000000E-01  8.50000000E-01  8.50000000E-01
  8.50000000E-01  8.50000000E-01  8.50000000E-01  8.50000000E-01  8.50000000E-01
  8.50000000E-01  8.50000000E-01  8.50000000E-01  8.50000000E-01  8.50000000E-01
  8.50000000E-01  8.50000000E-01  8.50000000E-01  8.50000000E-01  8.50000000E-01
  8.50000000E-01  8.50000000E-01  8.50000000E-01  8.50000000E-01  8.50000000E-01
  8.50000000E-01  8.50000000E-01  8.50000000E-01  8.50000000E-01  8.50000000E-01
  8.50000000E-01  8.50000000E-01  8.50000000E-01  8.50000000E-01  8.50000000E-01
  8.50000000E-01  8.50000000E-01  8.50000000E-01  8.50000000E-01  8.50000000E-01
  8.50000000E-01  8.50000000E-01  8.50000000E-01  8.50000000E-01  8.50000000E-01
  8.50000000E-01  8.50000000E-01  8.50000000E-01  8.50000000E-01  8.50000000E-01
  8.50000000E-01  8.50000000E-01  8.50000000E-01  8.50000000E-01  8.50000000E-01
  8.50000000E-01  8.50000000E-01  8.50000000E-01  8.50000000E-01  8.50000000E-01
  8.50000000E-01  8.50000000E-01  8.50000000E-01  8.50000000E-01  8.50000000E-01
  8.50000000E-01  8.50000000E-01  8.50000000E-01  8.50000000E-01  8.50000000E-01
  8.50000000E-01  8.50000000E-01  8.50000000E-01  8.50000000E-01  8.50000000E-01
  8.50000000E-01  8.50000000E-01  8.50000000E-01  8.50000000E-01  8.50000000E-01
  8.50000000E-01  8.50000000E-01  8.50000000E-01  8.50000000E-01  8.50000000E-01
  8.50000000E-01  8.50000000E-01  8.50000000E-01  8.50000000E-01  8.50000000E-01
  8.50000000E-01  8.50000000E-01  8.50000000E-01  8.50000000E-01  8.50000000E-01
  8.50000000E-01  8.50000000E-01  8.50000000E-01  8.50000000E-01  8.50000000E-01
  8.50000000E-01  8.50000000E-01  8.50000000E-01  8.50000000E-01  8.50000000E-01
  8.50000000E-01  8.50000000E-01  8.50000000E-01  8.50000000E-01  8.50000000E-01
  8.50000000E-01  8.50000000E-01  8.50000000E-01  8.50000000E-01  8.50000000E-01
  8.50000000E-01  8.50000000E-01  8.50000000E-01  8.50000000E-01  8.50000000E-01
  8.50000000E-01  8.50000000E-01  8.50000000E-01  8.50000000E-01  8.50000000E-01
  8.50000000E-01  8.50000000E-01  8.50000000E-01  8.50000000E-01  8.50000000E-01
  8.50000000E-01  8.50000000E-01  8.50000000E-01  8.50000000E-01  8.50000000E-01
  8.50000000E-01  8.50000000E-01  8.50000000E-01  8.50000000E-01  8.50000000E-01
  8.50000000E-01  8.50000000E-01  8.50000000E-01  8.50000000E-01  8.50000000E-01
  8.50000000E-01  8.50000000E-01  8.50000000E-01  8.50000000E-01  8.50000000E-01
  8.50000000E-01  8.50000000E-01  8.50000000E-01  8.50000000E-01  8.50000000E-01
  8.50000000E-01  8.50000000E-01  8.50000000E-01  8.50000000E-01  8.50000000E-01
  8.50000000E-01  8.50000000E-01  8.50000000E-01  8.50000000E-01  8.50000000E-01
  8.50000000E-01  8.50000000E-01  8.50000000E-01  8.50000000E-01  8.50000000E-01
  8.50000000E-01  8.50000000E-01  8.50000000E-01  8.50000000E-01  8.50000000E-01
  8.50000000E-01  8.50000000E-01  8.50000000E-01  8.50000000E-01  8.50000000E-01
  8.50000000E-01  8.50000000E-01  8.50000000E-01  8.50000000E-01  8.50000000E-01
  8.50000000E-01  8.50000000E-01  8.50000000E-01  8.50000000E-01  8.50000000E-01
  8.50000000E-01  8.50000000E-01  8.50000000E-01  8.50000000E-01  8.50000000E-01
  8.50000000E-01  8.50000000E-01  8.50000000E-01  8.50000000E-01  8.50000000E-01
  8.50000000E-01  8.50000000E-01  8.50000000E-01  8.50000000E-01  8.50000000E-01
  8.50000000E-01  8.50000000E-01  8.50000000E-01  8.50000000E-01  8.50000000E-01
  8.50000000E-01  8.50000000E-01  8.50000000E-01  8.50000000E-01  8.50000000E-01
  8.50000000E-01  8.50000000E-01  8.50000000E-01  8.50000000E-01  8.50000000E-01
  8.50000000E-01  8.50000000E-01  8.50000000E-01  8.50000000E-01  8.50000000E-01
  8.50000000E-01  8.50000000E-01  8.50000000E-01  8.50000000E-01  8.50000000E-01
  8.50000000E-01  8.50000000E-01  8.50000000E-01  8.50000000E-01  8.50000000E-01
  8.50000000E-01  8.50000000E-01  8.50000000E-01  8.50000000E-01  8.50000000E-01
  8.50000000E-01  8.50000000E-01  8.50000000E-01  8.50000000E-01  8.50000000E-01
  8.50000000E-01  8.50000000E-01  8.50000000E-01  8.50000000E-01  8.50000000E-01
  8.50000000E-01  8.50000000E-01  8.50000000E-01  8.50000000E-01  8.50000000E-01
  8.50000000E-01  8.50000000E-01  8.50000000E-01  8.50000000E-01  8.50000000E-01
  8.50000000E-01  8.50000000E-01  8.50000000E-01  8.50000000E-01  8.50000000E-01
  8.50000000E-01  8.50000000E-01  8.50000000E-01  8.50000000E-01  8.50000000E-01
  8.50000000E-01  8.50000000E-01  8.50000000E-01  8.50000000E-01  8.50000000E-01
  8.50000000E-01  8.50000000E-01  8.50000000E-01  8.50000000E-01  8.50000000E-01
  8.50000000E-01  8.50000000E-01  8.50000000E-01  8.50000000E-01  8.50000000E-01
  8.50000000E-01  8.50000000E-01  8.50000000E-01  8.50000000E-01  8.50000000E-01
  8.50000000E-01  8.50000000E-01  8.50000000E-01  8.50000000E-01  8.50000000E-01
  8.50000000E-01  8.50000000E-01  8.50000000E-01  8.50000000E-01  8.50000000E-01
  8.50000000E-01  8.50000000E-01  8.50000000E-01  8.50000000E-01  8.50000000E-01
  8.50000000E-01  8.50000000E-01  8.50000000E-01  8.50000000E-01  8.50000000E-01
  8.50000000E-01  8.50000000E-01  8.50000000E-01  8.50000000E-01  8.50000000E-01
  8.50000000E-01  8.50000000E-01  8.50000000E-01  8.50000000E-01  8.50000000E-01
  8.50000000E-01  8.50000000E-01  8.50000000E-01  8.50000000E-01  8.50000000E-01
  8.50000000E-01  8.50000000E-01  8.50000000E-01  8.50000000E-01  8.50000000E-01
  8.50000000E-01  8.50000000E-01  8.50000000E-01  8.50000000E-01  8.50000000E-01
  8.50000000E-01  8.50000000E-01  8.50000000E-01  8.50000000E-01  8.50000000E-01
  8.50000000E-01  8.50000000E-01  8.50000000E-01  8.50000000E-01  8.50000000E-01
  8.50000000E-01  8.50000000E-01  8.50000000E-01  8.50000000E-01  8.50000000E-01
  8.50000000E-01  8.50000000E-01  8.50000000E-01  8.50000000E-01  8.50000000E-01
  8.50000000E-01  8.50000000E-01  8.50000000E-01  8.50000000E-01  8.50000000E-01
  8.50000000E-01  8.50000000E-01  8.50000000E-01  8.50000000E-01  8.50000000E-01
  8.50000000E-01  8.50000000E-01  8.50000000E-01  8.50000000E-01  8.50000000E-01
  8.50000000E-01  8.50000000E-01  8.50000000E-01  8.50000000E-01  8.50000000E-01
  8.50000000E-01  8.50000000E-01  8.50000000E-01  8.50000000E-01  8.50000000E-01
  8.50000000E-01  8.50000000E-01  8.50000000E-01  8.50000000E-01  8.50000000E-01
  8.50000000E-01  8.50000000E-01  8.50000000E-01  8.50000000E-01  8.50000000E-01
  8.50000000E-01  8.50000000E-01  8.50000000E-01  8.50000000E-01  8.50000000E-01
  8.50000000E-01  8.50000000E-01  8.50000000E-01  8.50000000E-01  8.50000000E-01
  8.50000000E-01  8.50000000E-01  8.50000000E-01  8.50000000E-01  8.50000000E-01
  8.50000000E-01  8.50000000E-01  8.50000000E-01  8.50000000E-01  8.50000000E-01
  8.50000000E-01  8.50000000E-01  8.50000000E-01  8.50000000E-01  8.50000000E-01
  8.50000000E-01  8.50000000E-01  8.50000000E-01  8.50000000E-01  8.50000000E-01
  8.50000000E-01  8.50000000E-01  8.50000000E-01  8.50000000E-01  8.50000000E-01
  8.50000000E-01  8.50000000E-01  8.50000000E-01  8.50000000E-01  8.50000000E-01
  8.50000000E-01  8.50000000E-01  8.50000000E-01  8.50000000E-01  8.50000000E-01
  8.50000000E-01  8.50000000E-01  8.50000000E-01  8.50000000E-01  8.50000000E-01
  8.50000000E-01  8.50000000E-01  8.50000000E-01  8.50000000E-01  8.50000000E-01
  8.50000000E-01  8.50000000E-01  8.50000000E-01  8.50000000E-01  8.50000000E-01
  8.50000000E-01  8.50000000E-01  8.50000000E-01  8.50000000E-01  8.50000000E-01
  8.50000000E-01  8.50000000E-01  8.50000000E-01  8.50000000E-01  8.50000000E-01
  8.50000000E-01  8.50000000E-01  8.50000000E-01  8.50000000E-01  8.50000000E-01
  8.50000000E-01  8.50000000E-01  8.50000000E-01  8.50000000E-01  8.50000000E-01
  8.50000000E-01  8.50000000E-01  8.50000000E-01  8.50000000E-01  8.50000000E-01
  8.50000000E-01  8.50000000E-01  8.50000000E-01  8.50000000E-01  8.50000000E-01
  8.50000000E-01  8.50000000E-01  8.50000000E-01  8.50000000E-01  8.50000000E-01
  8.50000000E-01  8.50000000E-01  8.50000000E-01  8.50000000E-01  8.50000000E-01
  8.50000000E-01  8.50000000E-01  8.50000000E-01  8.50000000E-01  8.50000000E-01
  8.50000000E-01  8.50000000E-01  8.50000000E-01  8.50000000E-01  8.50000000E-01
  8.50000000E-01  8.50000000E-01  8.50000000E-01  8.50000000E-01  8.50000000E-01
  8.50000000E-01  8.50000000E-01  8.50000000E-01  8.50000000E-01  8.50000000E-01
  8.50000000E-01  8.50000000E-01  8.50000000E-01  8.50000000E-01  8.50000000E-01
  8.50000000E-01  8.50000000E-01  8.50000000E-01  8.50000000E-01  8.50000000E-01
  8.50000000E-01  8.50000000E-01  8.50000000E-01  8.50000000E-01  8.50000000E-01
  8.50000000E-01  8.50000000E-01  8.50000000E-01  8.50000000E-01  8.50000000E-01
  8.50000000E-01  8.50000000E-01  8.50000000E-01  8.50000000E-01  8.50000000E-01
  8.50000000E-01  8.50000000E-01  8.50000000E-01  8.50000000E-01  8.50000000E-01
  8.50000000E-01  8.50000000E-01  8.50000000E-01  8.50000000E-01  8.50000000E-01
  8.50000000E-01  8.50000000E-01  8.50000000E-01  8.50000000E-01  8.50000000E-01
  8.50000000E-01  8.50000000E-01  8.50000000E-01  8.50000000E-01  8.50000000E-01
  8.50000000E-01  8.50000000E-01  8.50000000E-01  8.50000000E-01  8.50000000E-01
  8.50000000E-01  8.50000000E-01  8.50000000E-01  8.50000000E-01  8.50000000E-01
  8.50000000E-01  8.50000000E-01  8.50000000E-01  8.50000000E-01  8.50000000E-01
  8.50000000E-01  8.50000000E-01  8.50000000E-01  8.50000000E-01  8.50000000E-01
  8.50000000E-01  8.50000000E-01  8.50000000E-01  8.50000000E-01  8.50000000E-01
  8.50000000E-01  8.50000000E-01  8.50000000E-01  8.50000000E-01  8.50000000E-01
  8.50000000E-01  8.50000000E-01  8.50000000E-01  8.50000000E-01  8.50000000E-01
  8.50000000E-01  8.50000000E-01  8.50000000E-01  8.50000000E-01  8.50000000E-01
  8.50000000E-01  8.50000000E-01  8.50000000E-01  8.50000000E-01  8.50000000E-01
  8.50000000E-01  8.50000000E-01  8.50000000E-01  8.50000000E-01  8.50000000E-01
  8.50000000E-01  8.50000000E-01  8.50000000E-01  8.50000000E-01  8.50000000E-01
  8.50000000E-01  8.50000000E-01  8.50000000E-01  8.50000000E-01  8.50000000E-01
  8.50000000E-01  8.50000000E-01  8.50000000E-01  8.50000000E-01  8.50000000E-01
  8.50000000E-01  8.50000000E-01  8.50000000E-01  8.50000000E-01  8.50000000E-01
  8.50000000E-01  8.50000000E-01  8.50000000E-01  8.50000000E-01  8.50000000E-01
  8.50000000E-01  8.50000000E-01  8.50000000E-01  8.50000000E-01  8.50000000E-01
  8.50000000E-01  8.50000000E-01  8.50000000E-01  8.50000000E-01  8.50000000E-01
  8.50000000E-01  8.50000000E-01  8.50000000E-01  8.50000000E-01  8.50000000E-01
  8.50000000E-01  8.50000000E-01  8.50000000E-01  8.50000000E-01  8.50000000E-01
  8.50000000E-01  8.50000000E-01  8.50000000E-01  8.50000000E-01  8.50000000E-01
  8.50000000E-01  8.50000000E-01  8.50000000E-01  8.50000000E-01  8.50000000E-01
  8.50000000E-01  8.50000000E-01  8.50000000E-01  8.50000000E-01  8.50000000E-01
  8.50000000E-01  8.50000000E-01  8.50000000E-01  8.50000000E-01  8.50000000E-01
  8.50000000E-01  8.50000000E-01  8.50000000E-01  8.50000000E-01  8.50000000E-01
  8.50000000E-01  8.50000000E-01  8.50000000E-01  8.50000000E-01  8.50000000E-01
  8.50000000E-01  8.50000000E-01  8.50000000E-01  8.50000000E-01  8.50000000E-01
  8.50000000E-01  8.50000000E-01  8.50000000E-01  8.50000000E-01  8.50000000E-01
  8.50000000E-01  8.50000000E-01  8.50000000E-01  8.50000000E-01  8.50000000E-01
  8.50000000E-01  8.50000000E-01  8.50000000E-01  8.50000000E-01  8.50000000E-01
  8.50000000E-01  8.50000000E-01  8.50000000E-01  8.50000000E-01  8.50000000E-01
  8.50000000E-01  8.50000000E-01  8.50000000E-01  8.50000000E-01  8.50000000E-01
  8.50000000E-01  8.50000000E-01  8.50000000E-01  8.50000000E-01  8.50000000E-01
  8.50000000E-01  8.50000000E-01  8.50000000E-01  8.50000000E-01  8.50000000E-01
  8.50000000E-01  8.50000000E-01  8.50000000E-01  8.50000000E-01  8.50000000E-01
  8.50000000E-01  8.50000000E-01  8.50000000E-01  8.50000000E-01  8.50000000E-01
  8.50000000E-01  8.50000000E-01  8.50000000E-01  8.50000000E-01  8.50000000E-01
  8.50000000E-01  8.50000000E-01  8.50000000E-01  8.50000000E-01  8.50000000E-01
  8.50000000E-01  8.50000000E-01  8.50000000E-01  8.50000000E-01  8.50000000E-01
  8.50000000E-01  8.50000000E-01  8.50000000E-01  8.50000000E-01  8.50000000E-01
  8.50000000E-01  8.50000000E-01  8.50000000E-01  8.50000000E-01  8.50000000E-01
  8.50000000E-01  8.50000000E-01  8.50000000E-01  8.50000000E-01  8.50000000E-01
  8.50000000E-01  8.50000000E-01  8.50000000E-01  8.50000000E-01  8.50000000E-01
  8.50000000E-01  8.50000000E-01  8.50000000E-01  8.50000000E-01  8.50000000E-01
  8.50000000E-01  8.50000000E-01  8.50000000E-01  8.50000000E-01  8.50000000E-01
  8.50000000E-01  8.50000000E-01  8.50000000E-01  8.50000000E-01  8.50000000E-01
  8.50000000E-01  8.50000000E-01  8.50000000E-01  8.50000000E-01  8.50000000E-01
  8.50000000E-01  8.50000000E-01  8.50000000E-01  8.50000000E-01  8.50000000E-01
  8.50000000E-01  8.50000000E-01  8.50000000E-01  8.50000000E-01  8.50000000E-01
  8.50000000E-01  8.50000000E-01  8.50000000E-01  8.50000000E-01  8.50000000E-01
  8.50000000E-01  8.50000000E-01  8.50000000E-01  8.50000000E-01  8.50000000E-01
  8.50000000E-01  8.50000000E-01  8.50000000E-01  8.50000000E-01  8.50000000E-01
  8.50000000E-01  8.50000000E-01  8.50000000E-01  8.50000000E-01  8.50000000E-01
  8.50000000E-01  8.50000000E-01  8.50000000E-01  8.50000000E-01  8.50000000E-01
  8.50000000E-01  8.50000000E-01  8.50000000E-01  8.50000000E-01  8.50000000E-01
  8.50000000E-01  8.50000000E-01  8.50000000E-01  8.50000000E-01  8.50000000E-01
  8.50000000E-01  8.50000000E-01  8.50000000E-01  8.50000000E-01  8.50000000E-01
  8.50000000E-01  8.50000000E-01  8.50000000E-01  8.50000000E-01  8.50000000E-01
  8.50000000E-01  8.50000000E-01  8.50000000E-01  8.50000000E-01  8.50000000E-01
  8.50000000E-01  8.50000000E-01  8.50000000E-01  8.50000000E-01  8.50000000E-01
  8.50000000E-01  8.50000000E-01  8.50000000E-01  8.50000000E-01  8.50000000E-01
  8.50000000E-01  8.50000000E-01  8.50000000E-01  8.50000000E-01  8.50000000E-01
  8.50000000E-01  8.50000000E-01  8.50000000E-01  8.50000000E-01  8.50000000E-01
  8.50000000E-01  8.50000000E-01  8.50000000E-01  8.50000000E-01  8.50000000E-01
  8.50000000E-01  8.50000000E-01  8.50000000E-01  8.50000000E-01  8.50000000E-01
  8.50000000E-01  8.50000000E-01  8.50000000E-01  8.50000000E-01  8.50000000E-01
  8.50000000E-01  8.50000000E-01  8.50000000E-01  8.50000000E-01  8.50000000E-01
  8.50000000E-01  8.50000000E-01  8.50000000E-01  8.50000000E-01  8.50000000E-01
  8.50000000E-01  8.50000000E-01  8.50000000E-01  8.50000000E-01  8.50000000E-01
  8.50000000E-01  8.50000000E-01  8.50000000E-01  8.50000000E-01  8.50000000E-01
  8.50000000E-01  8.50000000E-01  8.50000000E-01  8.50000000E-01  8.50000000E-01
  8.50000000E-01  8.50000000E-01  8.50000000E-01  8.50000000E-01  8.50000000E-01
  8.50000000E-01  8.50000000E-01  8.50000000E-01  8.50000000E-01  8.50000000E-01
  8.50000000E-01  8.50000000E-01  8.50000000E-01  8.50000000E-01  8.50000000E-01
  8.50000000E-01  8.50000000E-01  8.50000000E-01  8.50000000E-01  8.50000000E-01
  8.50000000E-01  8.50000000E-01  8.50000000E-01  8.50000000E-01  8.50000000E-01
  8.50000000E-01  8.50000000E-01  8.50000000E-01  8.50000000E-01  8.50000000E-01
  8.50000000E-01  8.50000000E-01  8.50000000E-01  8.50000000E-01  8.50000000E-01
  8.50000000E-01  8.50000000E-01  8.50000000E-01  8.50000000E-01  8.50000000E-01
  8.50000000E-01  8.50000000E-01  8.50000000E-01  8.50000000E-01  8.50000000E-01
  8.50000000E-01  8.50000000E-01  8.50000000E-01  8.50000000E-01  8.50000000E-01
  8.50000000E-01  8.50000000E-01  8.50000000E-01  8.50000000E-01  8.50000000E-01
  8.50000000E-01  8.50000000E-01  8.50000000E-01  8.50000000E-01  8.50000000E-01
  8.50000000E-01  8.50000000E-01  8.50000000E-01  8.50000000E-01  8.50000000E-01
  8.50000000E-01  8.50000000E-01  8.50000000E-01  8.50000000E-01  8.50000000E-01
  8.50000000E-01  8.50000000E-01  8.50000000E-01  8.50000000E-01  8.50000000E-01
  8.50000000E-01  8.50000000E-01  8.50000000E-01  8.50000000E-01  8.50000000E-01
  8.50000000E-01  8.50000000E-01  8.50000000E-01  8.50000000E-01  8.50000000E-01
  8.50000000E-01  8.50000000E-01  8.50000000E-01  8.50000000E-01  8.50000000E-01
  8.50000000E-01  8.50000000E-01  8.50000000E-01  8.50000000E-01  8.50000000E-01
  8.50000000E-01  8.50000000E-01  8.50000000E-01  8.50000000E-01  8.50000000E-01
  8.50000000E-01  8.50000000E-01  8.50000000E-01  8.50000000E-01  8.50000000E-01
  8.50000000E-01  8.50000000E-01  8.50000000E-01  8.50000000E-01  8.50000000E-01
  8.50000000E-01  8.50000000E-01  8.50000000E-01  8.50000000E-01  8.50000000E-01
  8.50000000E-01  8.50000000E-01  8.50000000E-01  8.50000000E-01  8.50000000E-01
  8.50000000E-01  8.50000000E-01  8.50000000E-01  8.50000000E-01  8.50000000E-01
  8.50000000E-01  8.50000000E-01  8.50000000E-01  8.50000000E-01  8.50000000E-01
  8.50000000E-01  8.50000000E-01  8.50000000E-01  8.50000000E-01  8.50000000E-01
  8.50000000E-01  8.50000000E-01  8.50000000E-01  8.50000000E-01  8.50000000E-01
  8.50000000E-01  8.50000000E-01  8.50000000E-01  8.50000000E-01  8.50000000E-01
  8.50000000E-01  8.50000000E-01  8.50000000E-01  8.50000000E-01  8.50000000E-01
  8.50000000E-01  8.50000000E-01  8.50000000E-01  8.50000000E-01  8.50000000E-01
  8.50000000E-01  8.50000000E-01  8.50000000E-01  8.50000000E-01  8.50000000E-01
  8.50000000E-01  8.50000000E-01  8.50000000E-01  8.50000000E-01  8.50000000E-01
  8.50000000E-01  8.50000000E-01  8.50000000E-01  8.50000000E-01  8.50000000E-01
  8.50000000E-01  8.50000000E-01  8.50000000E-01  8.50000000E-01  8.50000000E-01
  8.50000000E-01  8.50000000E-01  8.50000000E-01  8.50000000E-01  8.50000000E-01
  8.50000000E-01  8.50000000E-01  8.50000000E-01  8.50000000E-01  8.50000000E-01
  8.50000000E-01  8.50000000E-01  8.50000000E-01  8.50000000E-01  8.50000000E-01
  8.50000000E-01  8.50000000E-01  8.50000000E-01  8.50000000E-01  8.50000000E-01
  8.50000000E-01  8.50000000E-01  8.50000000E-01  8.50000000E-01  8.50000000E-01
  8.50000000E-01  8.50000000E-01  8.50000000E-01  8.50000000E-01  8.50000000E-01
  8.50000000E-01  8.50000000E-01  8.50000000E-01  8.50000000E-01  8.50000000E-01
  8.50000000E-01  8.50000000E-01  8.50000000E-01  8.50000000E-01  8.50000000E-01
  8.50000000E-01  8.50000000E-01  8.50000000E-01  8.50000000E-01  8.50000000E-01
  8.50000000E-01  8.50000000E-01  8.50000000E-01  8.50000000E-01  8.50000000E-01
  8.50000000E-01  8.50000000E-01  8.50000000E-01  8.50000000E-01  8.50000000E-01
  8.50000000E-01  8.50000000E-01  8.50000000E-01  8.50000000E-01  8.50000000E-01
  8.50000000E-01  8.50000000E-01  8.50000000E-01  8.50000000E-01  8.50000000E-01
  8.50000000E-01  8.50000000E-01  8.50000000E-01  8.50000000E-01  8.50000000E-01
  8.50000000E-01  8.50000000E-01  8.50000000E-01  8.50000000E-01  8.50000000E-01
  8.50000000E-01  8.50000000E-01  8.50000000E-01  8.50000000E-01  8.50000000E-01
  8.50000000E-01  8.50000000E-01  8.50000000E-01  8.50000000E-01  8.50000000E-01
  8.50000000E-01  8.50000000E-01  8.50000000E-01  8.50000000E-01  8.50000000E-01
  8.50000000E-01  8.50000000E-01  8.50000000E-01  8.50000000E-01  8.50000000E-01
  8.50000000E-01  8.50000000E-01  8.50000000E-01  8.50000000E-01  8.50000000E-01
  8.50000000E-01  8.50000000E-01  8.50000000E-01  8.50000000E-01  8.50000000E-01
  8.50000000E-01  8.50000000E-01  8.50000000E-01  8.50000000E-01  8.50000000E-01
  8.50000000E-01  8.50000000E-01  8.50000000E-01  8.50000000E-01  8.50000000E-01
  8.50000000E-01  8.50000000E-01  8.50000000E-01  8.50000000E-01  8.50000000E-01
  8.50000000E-01  8.50000000E-01  8.50000000E-01  8.50000000E-01  8.50000000E-01
  8.50000000E-01  8.50000000E-01  8.50000000E-01  8.50000000E-01  8.50000000E-01
  8.50000000E-01  8.50000000E-01  8.50000000E-01  8.50000000E-01  8.50000000E-01
  8.50000000E-01  8.50000000E-01  8.50000000E-01  8.50000000E-01  8.50000000E-01
  8.50000000E-01  8.50000000E-01  8.50000000E-01  8.50000000E-01  8.50000000E-01
  8.50000000E-01  8.50000000E-01  8.50000000E-01  8.50000000E-01  8.50000000E-01
  8.50000000E-01  8.50000000E-01  8.50000000E-01  8.50000000E-01  8.50000000E-01
  8.50000000E-01  8.50000000E-01  8.50000000E-01  8.50000000E-01  8.50000000E-01
  8.50000000E-01  8.50000000E-01  8.50000000E-01  8.50000000E-01  8.50000000E-01
  8.50000000E-01  8.50000000E-01  8.50000000E-01  8.50000000E-01  8.50000000E-01
  8.50000000E-01  8.50000000E-01  8.50000000E-01  8.50000000E-01  8.50000000E-01
  8.50000000E-01  8.50000000E-01  8.50000000E-01  8.50000000E-01  8.50000000E-01
  8.50000000E-01  8.50000000E-01  8.50000000E-01  8.50000000E-01  8.50000000E-01
  8.50000000E-01  8.50000000E-01  8.50000000E-01  8.50000000E-01  8.50000000E-01
  8.50000000E-01  8.50000000E-01  8.50000000E-01  8.50000000E-01  8.50000000E-01
  8.50000000E-01  8.50000000E-01  8.50000000E-01  8.50000000E-01  8.50000000E-01
  8.50000000E-01  8.50000000E-01  8.50000000E-01  8.50000000E-01  8.50000000E-01
  8.50000000E-01  8.50000000E-01  8.50000000E-01  8.50000000E-01  8.50000000E-01
  8.50000000E-01  8.50000000E-01  8.50000000E-01  8.50000000E-01  8.50000000E-01
  8.50000000E-01  8.50000000E-01  8.50000000E-01  8.50000000E-01  8.50000000E-01
  8.50000000E-01  8.50000000E-01  8.50000000E-01  8.50000000E-01  8.50000000E-01
  8.50000000E-01  8.50000000E-01  8.50000000E-01  8.50000000E-01  8.50000000E-01
  8.50000000E-01  8.50000000E-01  8.50000000E-01  8.50000000E-01  8.50000000E-01
  8.50000000E-01  8.50000000E-01  8.50000000E-01  8.50000000E-01  8.50000000E-01
  8.50000000E-01  8.50000000E-01  8.50000000E-01  8.50000000E-01  8.50000000E-01
  8.50000000E-01  8.50000000E-01  8.50000000E-01  8.50000000E-01  8.50000000E-01
  8.50000000E-01  8.50000000E-01  8.50000000E-01  8.50000000E-01  8.50000000E-01
  8.50000000E-01  8.50000000E-01  8.50000000E-01  8.50000000E-01  8.50000000E-01
  8.50000000E-01  8.50000000E-01  8.50000000E-01  8.50000000E-01  8.50000000E-01
  8.50000000E-01  8.50000000E-01  8.50000000E-01  8.50000000E-01  8.50000000E-01
  8.50000000E-01  8.50000000E-01  8.50000000E-01  8.50000000E-01  8.50000000E-01
  8.50000000E-01  8.50000000E-01  8.50000000E-01  8.50000000E-01  8.50000000E-01
  8.50000000E-01  8.50000000E-01  8.50000000E-01  8.50000000E-01  8.50000000E-01
  8.50000000E-01  8.50000000E-01  8.50000000E-01  8.50000000E-01  8.50000000E-01
  8.50000000E-01  8.50000000E-01  8.50000000E-01  8.50000000E-01  8.50000000E-01
  8.50000000E-01  8.50000000E-01  8.50000000E-01  8.50000000E-01  8.50000000E-01
  8.50000000E-01  8.50000000E-01  8.50000000E-01  8.50000000E-01  8.50000000E-01
  8.50000000E-01  8.50000000E-01  8.50000000E-01  8.50000000E-01  8.50000000E-01
  8.50000000E-01  8.50000000E-01  8.50000000E-01  8.50000000E-01  8.50000000E-01
  8.50000000E-01  8.50000000E-01  8.50000000E-01  8.50000000E-01  8.50000000E-01
  8.50000000E-01  8.50000000E-01  8.50000000E-01  8.50000000E-01  8.50000000E-01
  8.50000000E-01  8.50000000E-01  8.50000000E-01  8.50000000E-01  8.50000000E-01
  8.50000000E-01  8.50000000E-01  8.50000000E-01  8.50000000E-01  8.50000000E-01
  8.50000000E-01  8.50000000E-01  8.50000000E-01  8.50000000E-01  8.50000000E-01
  8.50000000E-01  8.50000000E-01  8.50000000E-01  8.50000000E-01  8.50000000E-01
  8.50000000E-01  8.50000000E-01  8.50000000E-01  8.50000000E-01  8.50000000E-01
  8.50000000E-01  8.50000000E-01  8.50000000E-01  8.50000000E-01  8.50000000E-01
  8.50000000E-01  8.50000000E-01  8.50000000E-01  8.50000000E-01  8.50000000E-01
  8.50000000E-01  8.50000000E-01  8.50000000E-01  8.50000000E-01  8.50000000E-01
  8.50000000E-01  8.50000000E-01  8.50000000E-01  8.50000000E-01  8.50000000E-01
  8.50000000E-01  8.50000000E-01  8.50000000E-01  8.50000000E-01  8.50000000E-01
  8.50000000E-01  8.50000000E-01  8.50000000E-01  8.50000000E-01  8.50000000E-01
  8.50000000E-01  8.50000000E-01  8.50000000E-01  8.50000000E-01  8.50000000E-01
  8.50000000E-01  8.50000000E-01  8.50000000E-01  8.50000000E-01  8.50000000E-01
  8.50000000E-01  8.50000000E-01  8.50000000E-01  8.50000000E-01  8.50000000E-01
  8.50000000E-01  8.50000000E-01  8.50000000E-01  8.50000000E-01  8.50000000E-01
  8.50000000E-01  8.50000000E-01  8.50000000E-01  8.50000000E-01  8.50000000E-01
  8.50000000E-01  8.50000000E-01  8.50000000E-01  8.50000000E-01  8.50000000E-01
  8.50000000E-01  8.50000000E-01  8.50000000E-01  8.50000000E-01  8.50000000E-01
  8.50000000E-01  8.50000000E-01  8.50000000E-01  8.50000000E-01  8.50000000E-01
  8.50000000E-01  8.50000000E-01  8.50000000E-01  8.50000000E-01  8.50000000E-01
  8.50000000E-01  8.50000000E-01  8.50000000E-01  8.50000000E-01  8.50000000E-01
  8.50000000E-01  8.50000000E-01  8.50000000E-01  8.50000000E-01  8.50000000E-01
  8.50000000E-01  8.50000000E-01  8.50000000E-01  8.50000000E-01  8.50000000E-01
  8.50000000E-01  8.50000000E-01  8.50000000E-01  8.50000000E-01  8.50000000E-01
  8.50000000E-01  8.50000000E-01  8.50000000E-01  8.50000000E-01  8.50000000E-01
  8.50000000E-01  8.50000000E-01  8.50000000E-01  8.50000000E-01  8.50000000E-01
  8.50000000E-01  8.50000000E-01  8.50000000E-01  8.50000000E-01  8.50000000E-01
  8.50000000E-01  8.50000000E-01  8.50000000E-01  8.50000000E-01  8.50000000E-01
  8.50000000E-01  8.50000000E-01  8.50000000E-01  8.50000000E-01  8.50000000E-01
  8.50000000E-01  8.50000000E-01  8.50000000E-01  8.50000000E-01  8.50000000E-01
  8.50000000E-01  8.50000000E-01  8.50000000E-01  8.50000000E-01  8.50000000E-01
  8.50000000E-01  8.50000000E-01  8.50000000E-01  8.50000000E-01  8.50000000E-01
  8.50000000E-01  8.50000000E-01  8.50000000E-01  8.50000000E-01  8.50000000E-01
  8.50000000E-01  8.50000000E-01  8.50000000E-01  8.50000000E-01  8.50000000E-01
  8.50000000E-01  8.50000000E-01  8.50000000E-01  8.50000000E-01  8.50000000E-01
  8.50000000E-01  8.50000000E-01  8.50000000E-01  8.50000000E-01  8.50000000E-01
  8.50000000E-01  8.50000000E-01  8.50000000E-01  8.50000000E-01  8.50000000E-01
  8.50000000E-01  8.50000000E-01  8.50000000E-01  8.50000000E-01  8.50000000E-01
  8.50000000E-01  8.50000000E-01  8.50000000E-01  8.50000000E-01  8.50000000E-01
  8.50000000E-01  8.50000000E-01  8.50000000E-01  8.50000000E-01  8.50000000E-01
  8.50000000E-01  8.50000000E-01  8.50000000E-01  8.50000000E-01  8.50000000E-01
  8.50000000E-01  8.50000000E-01  8.50000000E-01  8.50000000E-01  8.50000000E-01
  8.50000000E-01  8.50000000E-01  8.50000000E-01  8.50000000E-01  8.50000000E-01
  8.50000000E-01  8.50000000E-01  8.50000000E-01  8.50000000E-01  8.50000000E-01
  8.50000000E-01  8.50000000E-01  8.50000000E-01  8.50000000E-01  8.50000000E-01
  8.50000000E-01  8.50000000E-01  8.50000000E-01  8.50000000E-01  8.50000000E-01
  8.50000000E-01  8.50000000E-01  8.50000000E-01  8.50000000E-01  8.50000000E-01
  8.50000000E-01  8.50000000E-01  8.50000000E-01  8.50000000E-01  8.50000000E-01
  8.50000000E-01  8.50000000E-01  8.50000000E-01  8.50000000E-01  8.50000000E-01
  8.50000000E-01  8.50000000E-01  8.50000000E-01  8.50000000E-01  8.50000000E-01
  8.50000000E-01  8.50000000E-01  8.50000000E-01  8.50000000E-01  8.50000000E-01
  8.50000000E-01  8.50000000E-01  8.50000000E-01  8.50000000E-01  8.50000000E-01
  8.50000000E-01  8.50000000E-01  8.50000000E-01  8.50000000E-01  8.50000000E-01
  8.50000000E-01  8.50000000E-01  8.50000000E-01  8.50000000E-01  8.50000000E-01
  8.50000000E-01  8.50000000E-01  8.50000000E-01  8.50000000E-01  8.50000000E-01
  8.50000000E-01  8.50000000E-01  8.50000000E-01  8.50000000E-01  8.50000000E-01
  8.50000000E-01  8.50000000E-01  8.50000000E-01  8.50000000E-01  8.50000000E-01
  8.50000000E-01  8.50000000E-01  8.50000000E-01  8.50000000E-01  8.50000000E-01
  8.50000000E-01  8.50000000E-01  8.50000000E-01  8.50000000E-01  8.50000000E-01
  8.50000000E-01  8.50000000E-01  8.50000000E-01  8.50000000E-01  8.50000000E-01
  8.50000000E-01  8.50000000E-01  8.50000000E-01  8.50000000E-01  8.50000000E-01
  8.50000000E-01  8.50000000E-01  8.50000000E-01  8.50000000E-01  8.50000000E-01
  8.50000000E-01  8.50000000E-01  8.50000000E-01  8.50000000E-01  8.50000000E-01
  8.50000000E-01  8.50000000E-01  8.50000000E-01  8.50000000E-01  8.50000000E-01
  8.50000000E-01  8.50000000E-01  8.50000000E-01  8.50000000E-01  8.50000000E-01
  8.50000000E-01  8.50000000E-01  8.50000000E-01  8.50000000E-01  8.50000000E-01
  8.50000000E-01  8.50000000E-01  8.50000000E-01  8.50000000E-01  8.50000000E-01
  8.50000000E-01  8.50000000E-01  8.50000000E-01  8.50000000E-01  8.50000000E-01
  8.50000000E-01  8.50000000E-01  8.50000000E-01  8.50000000E-01  8.50000000E-01
  8.50000000E-01  8.50000000E-01  8.50000000E-01  8.50000000E-01  8.50000000E-01
  8.50000000E-01  8.50000000E-01  8.50000000E-01  8.50000000E-01  8.50000000E-01
  8.50000000E-01  8.50000000E-01  8.50000000E-01  8.50000000E-01  8.50000000E-01
  8.50000000E-01  8.50000000E-01  8.50000000E-01  8.50000000E-01  8.50000000E-01
  8.50000000E-01  8.50000000E-01  8.50000000E-01  8.50000000E-01  8.50000000E-01
  8.50000000E-01  8.50000000E-01  8.50000000E-01  8.50000000E-01  8.50000000E-01
  8.50000000E-01  8.50000000E-01  8.50000000E-01  8.50000000E-01  8.50000000E-01
  8.50000000E-01  8.50000000E-01  8.50000000E-01  8.50000000E-01  8.50000000E-01
  8.50000000E-01  8.50000000E-01  8.50000000E-01  8.50000000E-01  8.50000000E-01
  8.50000000E-01  8.50000000E-01  8.50000000E-01  8.50000000E-01  8.50000000E-01
  8.50000000E-01  8.50000000E-01  8.50000000E-01  8.50000000E-01  8.50000000E-01
  8.50000000E-01  8.50000000E-01  8.50000000E-01  8.50000000E-01  8.50000000E-01
  8.50000000E-01  8.50000000E-01  8.50000000E-01  8.50000000E-01  8.50000000E-01
  8.50000000E-01  8.50000000E-01  8.50000000E-01  8.50000000E-01  8.50000000E-01
  8.50000000E-01  8.50000000E-01  8.50000000E-01  8.50000000E-01  8.50000000E-01
  8.50000000E-01  8.50000000E-01  8.50000000E-01  8.50000000E-01  8.50000000E-01
  8.50000000E-01  8.50000000E-01  8.50000000E-01  8.50000000E-01  8.50000000E-01
  8.50000000E-01  8.50000000E-01  8.50000000E-01  8.50000000E-01  8.50000000E-01
  8.50000000E-01  8.50000000E-01  8.50000000E-01  8.50000000E-01  8.50000000E-01
  8.50000000E-01  8.50000000E-01  8.50000000E-01  8.50000000E-01  8.50000000E-01
  8.50000000E-01  8.50000000E-01  8.50000000E-01  8.50000000E-01  8.50000000E-01
  8.50000000E-01  8.50000000E-01  8.50000000E-01  8.50000000E-01  8.50000000E-01
  8.50000000E-01  8.50000000E-01  8.50000000E-01  8.50000000E-01  8.50000000E-01
  8.50000000E-01  8.50000000E-01  8.50000000E-01  8.50000000E-01  8.50000000E-01
  8.50000000E-01  8.50000000E-01  8.50000000E-01  8.50000000E-01  8.50000000E-01
  8.50000000E-01  8.50000000E-01  8.50000000E-01  8.50000000E-01  8.50000000E-01
  8.50000000E-01  8.50000000E-01  8.50000000E-01  8.50000000E-01  8.50000000E-01
  8.50000000E-01  8.50000000E-01  8.50000000E-01  8.50000000E-01  8.50000000E-01
  8.50000000E-01  8.50000000E-01  8.50000000E-01  8.50000000E-01  8.50000000E-01
  8.50000000E-01  8.50000000E-01  8.50000000E-01  8.50000000E-01  8.50000000E-01
  8.50000000E-01  8.50000000E-01  8.50000000E-01  8.50000000E-01  8.50000000E-01
  8.50000000E-01  8.50000000E-01  8.50000000E-01  8.50000000E-01  8.50000000E-01
  8.50000000E-01  8.50000000E-01  8.50000000E-01  8.50000000E-01  8.50000000E-01
  8.50000000E-01  8.50000000E-01  8.50000000E-01  8.50000000E-01  8.50000000E-01
  8.50000000E-01  8.50000000E-01  8.50000000E-01  8.50000000E-01  8.50000000E-01
  8.50000000E-01  8.50000000E-01  8.50000000E-01  8.50000000E-01  8.50000000E-01
  8.50000000E-01  8.50000000E-01  8.50000000E-01  8.50000000E-01  8.50000000E-01
  8.50000000E-01  8.50000000E-01  8.50000000E-01  8.50000000E-01  8.50000000E-01
  8.50000000E-01  8.50000000E-01  8.50000000E-01  8.50000000E-01  8.50000000E-01
  8.50000000E-01  8.50000000E-01  8.50000000E-01  8.50000000E-01  8.50000000E-01
  8.50000000E-01  8.50000000E-01  8.50000000E-01  8.50000000E-01  8.50000000E-01
  8.50000000E-01  8.50000000E-01  8.50000000E-01  8.50000000E-01  8.50000000E-01
  8.50000000E-01  8.50000000E-01  8.50000000E-01  8.50000000E-01  8.50000000E-01
  8.50000000E-01  8.50000000E-01  8.50000000E-01  8.50000000E-01  8.50000000E-01
  8.50000000E-01  8.50000000E-01  8.50000000E-01  8.50000000E-01  8.50000000E-01
  8.50000000E-01  8.50000000E-01  8.50000000E-01  8.50000000E-01  8.50000000E-01
  8.50000000E-01  8.50000000E-01  8.50000000E-01  8.50000000E-01  8.50000000E-01
  8.50000000E-01  8.50000000E-01  8.50000000E-01  8.50000000E-01  8.50000000E-01
  8.50000000E-01  8.50000000E-01  8.50000000E-01  8.50000000E-01  8.50000000E-01
  8.50000000E-01  8.50000000E-01  8.50000000E-01  8.50000000E-01  8.50000000E-01
  8.50000000E-01  8.50000000E-01  8.50000000E-01  8.50000000E-01  8.50000000E-01
  8.50000000E-01  8.50000000E-01  8.50000000E-01  8.50000000E-01  8.50000000E-01
  8.50000000E-01  8.50000000E-01  8.50000000E-01  8.50000000E-01  8.50000000E-01
  8.50000000E-01  8.50000000E-01  8.50000000E-01  8.50000000E-01  8.50000000E-01
  8.50000000E-01  8.50000000E-01  8.50000000E-01  8.50000000E-01  8.50000000E-01
  8.50000000E-01  8.50000000E-01  8.50000000E-01  8.50000000E-01  8.50000000E-01
  8.50000000E-01  8.50000000E-01  8.50000000E-01  8.50000000E-01  8.50000000E-01
  8.50000000E-01  8.50000000E-01  8.50000000E-01  8.50000000E-01  8.50000000E-01
  8.50000000E-01  8.50000000E-01  8.50000000E-01  8.50000000E-01  8.50000000E-01
  8.50000000E-01  8.50000000E-01  8.50000000E-01  8.50000000E-01  8.50000000E-01
  8.50000000E-01  8.50000000E-01  8.50000000E-01  8.50000000E-01  8.50000000E-01
  8.50000000E-01  8.50000000E-01  8.50000000E-01  8.50000000E-01  8.50000000E-01
  8.50000000E-01  8.50000000E-01  8.50000000E-01  8.50000000E-01  8.50000000E-01
  8.50000000E-01  8.50000000E-01  8.50000000E-01  8.50000000E-01  8.50000000E-01
  8.50000000E-01  8.50000000E-01  8.50000000E-01  8.50000000E-01  8.50000000E-01
  8.50000000E-01  8.50000000E-01  8.50000000E-01  8.50000000E-01  8.50000000E-01
  8.50000000E-01  8.50000000E-01  8.50000000E-01  8.50000000E-01  8.50000000E-01
  8.50000000E-01  8.50000000E-01  8.50000000E-01  8.50000000E-01  8.50000000E-01
  8.50000000E-01  8.50000000E-01  8.50000000E-01  8.50000000E-01  8.50000000E-01
  8.50000000E-01  8.50000000E-01  8.50000000E-01  8.50000000E-01  8.50000000E-01
  8.50000000E-01  8.50000000E-01  8.50000000E-01  8.50000000E-01  8.50000000E-01
  8.50000000E-01  8.50000000E-01  8.50000000E-01  8.50000000E-01  8.50000000E-01
  8.50000000E-01  8.50000000E-01  8.50000000E-01  8.50000000E-01  8.50000000E-01
  8.50000000E-01  8.50000000E-01  8.50000000E-01  8.50000000E-01  8.50000000E-01
  8.50000000E-01  8.50000000E-01  8.50000000E-01  8.50000000E-01  8.50000000E-01
  8.50000000E-01  8.50000000E-01  8.50000000E-01  8.50000000E-01  8.50000000E-01
  8.50000000E-01  8.50000000E-01  8.50000000E-01  8.50000000E-01  8.50000000E-01
  8.50000000E-01  8.50000000E-01  8.50000000E-01  8.50000000E-01  8.50000000E-01
  8.50000000E-01  8.50000000E-01  8.50000000E-01  8.50000000E-01  8.50000000E-01
  8.50000000E-01  8.50000000E-01  8.50000000E-01  8.50000000E-01  8.50000000E-01
  8.50000000E-01  8.50000000E-01  8.50000000E-01  8.50000000E-01  8.50000000E-01
  8.50000000E-01  8.50000000E-01  8.50000000E-01  8.50000000E-01  8.50000000E-01
  8.50000000E-01  8.50000000E-01  8.50000000E-01  8.50000000E-01  8.50000000E-01
  8.50000000E-01  8.50000000E-01  8.50000000E-01  8.50000000E-01  8.50000000E-01
  8.50000000E-01  8.50000000E-01  8.50000000E-01  8.50000000E-01  8.50000000E-01
  8.50000000E-01  8.50000000E-01  8.50000000E-01  8.50000000E-01  8.50000000E-01
  8.50000000E-01  8.50000000E-01  8.50000000E-01  8.50000000E-01  8.50000000E-01
  8.50000000E-01  8.50000000E-01  8.50000000E-01  8.50000000E-01  8.50000000E-01
  8.50000000E-01  8.50000000E-01  8.50000000E-01  8.50000000E-01  8.50000000E-01
  8.50000000E-01  8.50000000E-01  8.50000000E-01  8.50000000E-01  8.50000000E-01
  8.50000000E-01  8.50000000E-01  8.50000000E-01  8.50000000E-01  8.50000000E-01
  8.50000000E-01  8.50000000E-01  8.50000000E-01  8.50000000E-01  8.50000000E-01
  8.50000000E-01  8.50000000E-01  8.50000000E-01  8.50000000E-01  8.50000000E-01
  8.50000000E-01  8.50000000E-01  8.50000000E-01  8.50000000E-01  8.50000000E-01
  8.50000000E-01  8.50000000E-01  8.50000000E-01  8.50000000E-01  8.50000000E-01
  8.50000000E-01  8.50000000E-01  8.50000000E-01  8.50000000E-01  8.50000000E-01
  8.50000000E-01  8.50000000E-01  8.50000000E-01  8.50000000E-01  8.50000000E-01
  8.50000000E-01  8.50000000E-01  8.50000000E-01  8.50000000E-01  8.50000000E-01
  8.50000000E-01  8.50000000E-01  8.50000000E-01  8.50000000E-01  8.50000000E-01
  8.50000000E-01  8.50000000E-01  8.50000000E-01  8.50000000E-01  8.50000000E-01
  8.50000000E-01  8.50000000E-01  8.50000000E-01  8.50000000E-01  8.50000000E-01
  8.50000000E-01  8.50000000E-01  8.50000000E-01  8.50000000E-01  8.50000000E-01
  8.50000000E-01  8.50000000E-01  8.50000000E-01  8.50000000E-01  8.50000000E-01
  8.50000000E-01  8.50000000E-01  8.50000000E-01  8.50000000E-01  8.50000000E-01
  8.50000000E-01  8.50000000E-01  8.50000000E-01  8.50000000E-01  8.50000000E-01
  8.50000000E-01  8.50000000E-01  8.50000000E-01  8.50000000E-01  8.50000000E-01
  8.50000000E-01  8.50000000E-01  8.50000000E-01  8.50000000E-01  8.50000000E-01
  8.50000000E-01  8.50000000E-01  8.50000000E-01  8.50000000E-01  8.50000000E-01
  8.50000000E-01  8.50000000E-01  8.50000000E-01  8.50000000E-01  8.50000000E-01
  8.50000000E-01  8.50000000E-01  8.50000000E-01  8.50000000E-01  8.50000000E-01
  8.50000000E-01  8.50000000E-01  8.50000000E-01  8.50000000E-01  8.50000000E-01
  8.50000000E-01  8.50000000E-01  8.50000000E-01  8.50000000E-01  8.50000000E-01
  8.50000000E-01  8.50000000E-01  8.50000000E-01  8.50000000E-01  8.50000000E-01
  8.50000000E-01  8.50000000E-01  8.50000000E-01  8.50000000E-01  8.50000000E-01
  8.50000000E-01  8.50000000E-01  8.50000000E-01  8.50000000E-01  8.50000000E-01
  8.50000000E-01  8.50000000E-01  8.50000000E-01  8.50000000E-01  8.50000000E-01
  8.50000000E-01  8.50000000E-01  8.50000000E-01  8.50000000E-01  8.50000000E-01
  8.50000000E-01  8.50000000E-01  8.50000000E-01  8.50000000E-01  8.50000000E-01
  8.50000000E-01  8.50000000E-01  8.50000000E-01  8.50000000E-01  8.50000000E-01
  8.50000000E-01  8.50000000E-01  8.50000000E-01  8.50000000E-01  8.50000000E-01
  8.50000000E-01  8.50000000E-01  8.50000000E-01  8.50000000E-01  8.50000000E-01
  8.50000000E-01  8.50000000E-01  8.50000000E-01  8.50000000E-01  8.50000000E-01
  8.50000000E-01  8.50000000E-01  8.50000000E-01  8.50000000E-01  8.50000000E-01
  8.50000000E-01  8.50000000E-01  8.50000000E-01  8.50000000E-01  8.50000000E-01
  8.50000000E-01  8.50000000E-01  8.50000000E-01  8.50000000E-01  8.50000000E-01
  8.50000000E-01  8.50000000E-01  8.50000000E-01  8.50000000E-01  8.50000000E-01
  8.50000000E-01  8.50000000E-01  8.50000000E-01  8.50000000E-01  8.50000000E-01
  8.50000000E-01  8.50000000E-01  8.50000000E-01  8.50000000E-01  8.50000000E-01
  8.50000000E-01  8.50000000E-01  8.50000000E-01  8.50000000E-01  8.50000000E-01
  8.50000000E-01  8.50000000E-01  8.50000000E-01  8.50000000E-01  8.50000000E-01
  8.50000000E-01  8.50000000E-01  8.50000000E-01  8.50000000E-01  8.50000000E-01
  8.50000000E-01  8.50000000E-01  8.50000000E-01  8.50000000E-01  8.50000000E-01
  8.50000000E-01  8.50000000E-01  8.50000000E-01  8.50000000E-01  8.50000000E-01
  8.50000000E-01  8.50000000E-01  8.50000000E-01  8.50000000E-01  8.50000000E-01
  8.50000000E-01  8.50000000E-01  8.50000000E-01  8.50000000E-01  8.50000000E-01
  8.50000000E-01  8.50000000E-01  8.50000000E-01  8.50000000E-01  8.50000000E-01
  8.50000000E-01  8.50000000E-01  8.50000000E-01  8.50000000E-01  8.50000000E-01
  8.50000000E-01  8.50000000E-01  8.50000000E-01  8.50000000E-01  8.50000000E-01
  8.50000000E-01  8.50000000E-01  8.50000000E-01  8.50000000E-01  8.50000000E-01
  8.50000000E-01  8.50000000E-01  8.50000000E-01  8.50000000E-01  8.50000000E-01
  8.50000000E-01  8.50000000E-01  8.50000000E-01  8.50000000E-01  8.50000000E-01
  8.50000000E-01  8.50000000E-01  8.50000000E-01  8.50000000E-01  8.50000000E-01
  8.50000000E-01  8.50000000E-01  8.50000000E-01  8.50000000E-01  8.50000000E-01
  8.50000000E-01  8.50000000E-01  8.50000000E-01  8.50000000E-01  8.50000000E-01
  8.50000000E-01  8.50000000E-01  8.50000000E-01  8.50000000E-01  8.50000000E-01
  8.50000000E-01  8.50000000E-01  8.50000000E-01  8.50000000E-01  8.50000000E-01
  8.50000000E-01  8.50000000E-01  8.50000000E-01  8.50000000E-01  8.50000000E-01
  8.50000000E-01  8.50000000E-01  8.50000000E-01  8.50000000E-01  8.50000000E-01
  8.50000000E-01  8.50000000E-01  8.50000000E-01  8.50000000E-01  8.50000000E-01
  8.50000000E-01  8.50000000E-01  8.50000000E-01  8.50000000E-01  8.50000000E-01
  8.50000000E-01  8.50000000E-01  8.50000000E-01  8.50000000E-01  8.50000000E-01
  8.50000000E-01  8.50000000E-01  8.50000000E-01  8.50000000E-01  8.50000000E-01
  8.50000000E-01  8.50000000E-01  8.50000000E-01  8.50000000E-01  8.50000000E-01
  8.50000000E-01  8.50000000E-01  8.50000000E-01  8.50000000E-01  8.50000000E-01
  8.50000000E-01  8.50000000E-01  8.50000000E-01  8.50000000E-01  8.50000000E-01
  8.50000000E-01  8.50000000E-01  8.50000000E-01  8.50000000E-01  8.50000000E-01
  8.50000000E-01  8.50000000E-01  8.50000000E-01  8.50000000E-01  8.50000000E-01
  8.50000000E-01  8.50000000E-01  8.50000000E-01  8.50000000E-01  8.50000000E-01
  8.50000000E-01  8.50000000E-01  8.50000000E-01  8.50000000E-01  8.50000000E-01
  8.50000000E-01  8.50000000E-01  8.50000000E-01  8.50000000E-01  8.50000000E-01
  8.50000000E-01  8.50000000E-01  8.50000000E-01  8.50000000E-01  8.50000000E-01
  8.50000000E-01  8.50000000E-01  8.50000000E-01  8.50000000E-01  8.50000000E-01
  8.50000000E-01  8.50000000E-01  8.50000000E-01  8.50000000E-01  8.50000000E-01
  8.50000000E-01  8.50000000E-01  8.50000000E-01  8.50000000E-01  8.50000000E-01
  8.50000000E-01  8.50000000E-01  8.50000000E-01  8.50000000E-01  8.50000000E-01
  8.50000000E-01  8.50000000E-01  8.50000000E-01  8.50000000E-01  8.50000000E-01
  8.50000000E-01  8.50000000E-01  8.50000000E-01  8.50000000E-01  8.50000000E-01
  8.50000000E-01  8.50000000E-01  8.50000000E-01  8.50000000E-01  8.50000000E-01
  8.50000000E-01  8.50000000E-01  8.50000000E-01  8.50000000E-01  8.50000000E-01
  8.50000000E-01  8.50000000E-01  8.50000000E-01  8.50000000E-01  8.50000000E-01
  8.50000000E-01  8.50000000E-01  8.50000000E-01  8.50000000E-01  8.50000000E-01
  8.50000000E-01  8.50000000E-01  8.50000000E-01  8.50000000E-01  8.50000000E-01
  8.50000000E-01  8.50000000E-01  8.50000000E-01  8.50000000E-01  8.50000000E-01
  8.50000000E-01  8.50000000E-01  8.50000000E-01  8.50000000E-01  8.50000000E-01
  8.50000000E-01  8.50000000E-01  8.50000000E-01  8.50000000E-01  8.50000000E-01
  8.50000000E-01  8.50000000E-01  8.50000000E-01  8.50000000E-01  8.50000000E-01
  8.50000000E-01  8.50000000E-01  8.50000000E-01  8.50000000E-01  8.50000000E-01
  8.50000000E-01  8.50000000E-01  8.50000000E-01  8.50000000E-01  8.50000000E-01
  8.50000000E-01  8.50000000E-01  8.50000000E-01  8.50000000E-01  8.50000000E-01
  8.50000000E-01  8.50000000E-01  8.50000000E-01  8.50000000E-01  8.50000000E-01
  8.50000000E-01  8.50000000E-01  8.50000000E-01  8.50000000E-01  8.50000000E-01
  8.50000000E-01  8.50000000E-01  8.50000000E-01  8.50000000E-01  8.50000000E-01
  8.50000000E-01  8.50000000E-01  8.50000000E-01  8.50000000E-01  8.50000000E-01
  8.50000000E-01  8.50000000E-01  8.50000000E-01  8.50000000E-01  8.50000000E-01
  8.50000000E-01  8.50000000E-01  8.50000000E-01  8.50000000E-01  8.50000000E-01
  8.50000000E-01  8.50000000E-01  8.50000000E-01  8.50000000E-01  8.50000000E-01
  8.50000000E-01  8.50000000E-01  8.50000000E-01  8.50000000E-01  8.50000000E-01
  8.50000000E-01  8.50000000E-01  8.50000000E-01  8.50000000E-01  8.50000000E-01
  8.50000000E-01  8.50000000E-01  8.50000000E-01  8.50000000E-01  8.50000000E-01
  8.50000000E-01  8.50000000E-01  8.50000000E-01  8.50000000E-01  8.50000000E-01
  8.50000000E-01  8.50000000E-01  8.50000000E-01  8.50000000E-01  8.50000000E-01
  8.50000000E-01  8.50000000E-01  8.50000000E-01  8.50000000E-01  8.50000000E-01
  8.50000000E-01  8.50000000E-01  8.50000000E-01  8.50000000E-01  8.50000000E-01
  8.50000000E-01  8.50000000E-01  8.50000000E-01  8.50000000E-01  8.50000000E-01
  8.50000000E-01  8.50000000E-01  8.50000000E-01  8.50000000E-01  8.50000000E-01
  8.50000000E-01  8.50000000E-01  8.50000000E-01  8.50000000E-01  8.50000000E-01
  8.50000000E-01  8.50000000E-01  8.50000000E-01  8.50000000E-01  8.50000000E-01
  8.50000000E-01  8.50000000E-01  8.50000000E-01  8.50000000E-01  8.50000000E-01
  8.50000000E-01  8.50000000E-01  8.50000000E-01  8.50000000E-01  8.50000000E-01
  8.50000000E-01  8.50000000E-01  8.50000000E-01  8.50000000E-01  8.50000000E-01
  8.50000000E-01  8.50000000E-01  8.50000000E-01  8.50000000E-01  8.50000000E-01
  8.50000000E-01  8.50000000E-01  8.50000000E-01  8.50000000E-01  8.50000000E-01
  8.50000000E-01  8.50000000E-01  8.50000000E-01  8.50000000E-01  8.50000000E-01
  8.50000000E-01  8.50000000E-01  8.50000000E-01  8.50000000E-01  8.50000000E-01
  8.50000000E-01  8.50000000E-01  8.50000000E-01  8.50000000E-01  8.50000000E-01
  8.50000000E-01  8.50000000E-01  8.50000000E-01  8.50000000E-01  8.50000000E-01
  8.50000000E-01  8.50000000E-01  8.50000000E-01  8.50000000E-01  8.50000000E-01
  8.50000000E-01  8.50000000E-01  8.50000000E-01  8.50000000E-01  8.50000000E-01
  8.50000000E-01  8.50000000E-01  8.50000000E-01  8.50000000E-01  8.50000000E-01
  8.50000000E-01  8.50000000E-01  8.50000000E-01  8.50000000E-01  8.50000000E-01
  8.50000000E-01  8.50000000E-01  8.50000000E-01  8.50000000E-01  8.50000000E-01
  8.50000000E-01  8.50000000E-01  8.50000000E-01  8.50000000E-01  8.50000000E-01
  8.50000000E-01  8.50000000E-01  8.50000000E-01  8.50000000E-01  8.50000000E-01
  8.50000000E-01  8.50000000E-01  8.50000000E-01  8.50000000E-01  8.50000000E-01
  8.50000000E-01  8.50000000E-01  8.50000000E-01  8.50000000E-01  8.50000000E-01
  8.50000000E-01  8.50000000E-01  8.50000000E-01  8.50000000E-01  8.50000000E-01
  8.50000000E-01  8.50000000E-01  8.50000000E-01  8.50000000E-01  8.50000000E-01
  8.50000000E-01  8.50000000E-01  8.50000000E-01  8.50000000E-01  8.50000000E-01
  8.50000000E-01  8.50000000E-01  8.50000000E-01  8.50000000E-01  8.50000000E-01
  8.50000000E-01  8.50000000E-01  8.50000000E-01  8.50000000E-01  8.50000000E-01
  8.50000000E-01  8.50000000E-01  8.50000000E-01  8.50000000E-01  8.50000000E-01
  8.50000000E-01  8.50000000E-01  8.50000000E-01  8.50000000E-01  8.50000000E-01
  8.50000000E-01  8.50000000E-01  8.50000000E-01  8.50000000E-01  8.50000000E-01
  8.50000000E-01  8.50000000E-01  8.50000000E-01  8.50000000E-01  8.50000000E-01
  8.50000000E-01  8.50000000E-01  8.50000000E-01  8.50000000E-01  8.50000000E-01
  8.50000000E-01  8.50000000E-01  8.50000000E-01  8.50000000E-01  8.50000000E-01
  8.50000000E-01  8.50000000E-01  8.50000000E-01  8.50000000E-01  8.50000000E-01
  8.50000000E-01  8.50000000E-01  8.50000000E-01  8.50000000E-01  8.50000000E-01
  8.50000000E-01  8.50000000E-01  8.50000000E-01  8.50000000E-01  8.50000000E-01
  8.50000000E-01  8.50000000E-01  8.50000000E-01  8.50000000E-01  8.50000000E-01
  8.50000000E-01  8.50000000E-01  8.50000000E-01  8.50000000E-01  8.50000000E-01
  8.50000000E-01  8.50000000E-01  8.50000000E-01  8.50000000E-01  8.50000000E-01
  8.50000000E-01  8.50000000E-01  8.50000000E-01  8.50000000E-01  8.50000000E-01
  8.50000000E-01  8.50000000E-01  8.50000000E-01  8.50000000E-01  8.50000000E-01
  8.50000000E-01  8.50000000E-01  8.50000000E-01  8.50000000E-01  8.50000000E-01
  8.50000000E-01  8.50000000E-01  8.50000000E-01  8.50000000E-01  8.50000000E-01
  8.50000000E-01  8.50000000E-01  8.50000000E-01  8.50000000E-01  8.50000000E-01
  8.50000000E-01  8.50000000E-01  8.50000000E-01  8.50000000E-01  8.50000000E-01
  8.50000000E-01  8.50000000E-01  8.50000000E-01  8.50000000E-01  8.50000000E-01
  8.50000000E-01  8.50000000E-01  8.50000000E-01  8.50000000E-01  8.50000000E-01
  8.50000000E-01  8.50000000E-01  8.50000000E-01  8.50000000E-01  8.50000000E-01
  8.50000000E-01  8.50000000E-01  8.50000000E-01  8.50000000E-01  8.50000000E-01
  8.50000000E-01  8.50000000E-01  8.50000000E-01  8.50000000E-01  8.50000000E-01
  8.50000000E-01  8.50000000E-01  8.50000000E-01  8.50000000E-01  8.50000000E-01
  8.50000000E-01  8.50000000E-01  8.50000000E-01  8.50000000E-01  8.50000000E-01
  8.50000000E-01  8.50000000E-01  8.50000000E-01  8.50000000E-01  8.50000000E-01
  8.50000000E-01  8.50000000E-01  8.50000000E-01  8.50000000E-01  8.50000000E-01
  8.50000000E-01  8.50000000E-01  8.50000000E-01  8.50000000E-01  8.50000000E-01
  8.50000000E-01  8.50000000E-01  8.50000000E-01  8.50000000E-01  8.50000000E-01
  8.50000000E-01  8.50000000E-01  8.50000000E-01  8.50000000E-01  8.50000000E-01
  8.50000000E-01  8.50000000E-01  8.50000000E-01  8.50000000E-01  8.50000000E-01
  8.50000000E-01  8.50000000E-01  8.50000000E-01  8.50000000E-01  8.50000000E-01
  8.50000000E-01  8.50000000E-01  8.50000000E-01  8.50000000E-01  8.50000000E-01
  8.50000000E-01  8.50000000E-01  8.50000000E-01  8.50000000E-01  8.50000000E-01
  8.50000000E-01  8.50000000E-01  8.50000000E-01  8.50000000E-01  8.50000000E-01
  8.50000000E-01  8.50000000E-01  8.50000000E-01  8.50000000E-01  8.50000000E-01
  8.50000000E-01  8.50000000E-01  8.50000000E-01  8.50000000E-01  8.50000000E-01
  8.50000000E-01  8.50000000E-01  8.50000000E-01  8.50000000E-01  8.50000000E-01
  8.50000000E-01  8.50000000E-01  8.50000000E-01  8.50000000E-01  8.50000000E-01
  8.50000000E-01  8.50000000E-01  8.50000000E-01  8.50000000E-01  8.50000000E-01
  8.50000000E-01  8.50000000E-01  8.50000000E-01  8.50000000E-01  8.50000000E-01
  8.50000000E-01  8.50000000E-01  8.50000000E-01  8.50000000E-01  8.50000000E-01
  8.50000000E-01  8.50000000E-01  8.50000000E-01  8.50000000E-01  8.50000000E-01
  8.50000000E-01  8.50000000E-01  8.50000000E-01  8.50000000E-01  8.50000000E-01
  8.50000000E-01  8.50000000E-01  8.50000000E-01  8.50000000E-01  8.50000000E-01
  8.50000000E-01  8.50000000E-01  8.50000000E-01  8.50000000E-01  8.50000000E-01
  8.50000000E-01  8.50000000E-01  8.50000000E-01  8.50000000E-01  8.50000000E-01
  8.50000000E-01  8.50000000E-01  8.50000000E-01  8.50000000E-01  8.50000000E-01
  8.50000000E-01  8.50000000E-01  8.50000000E-01  8.50000000E-01  8.50000000E-01
  8.50000000E-01  8.50000000E-01  8.50000000E-01  8.50000000E-01  8.50000000E-01
  8.50000000E-01  8.50000000E-01  8.50000000E-01  8.50000000E-01  8.50000000E-01
  8.50000000E-01  8.50000000E-01  8.50000000E-01  8.50000000E-01  8.50000000E-01
  8.50000000E-01  8.50000000E-01  8.50000000E-01  8.50000000E-01  8.50000000E-01
  8.50000000E-01  8.50000000E-01  8.50000000E-01  8.50000000E-01  8.50000000E-01
  8.50000000E-01  8.50000000E-01  8.50000000E-01  8.50000000E-01  8.50000000E-01
  8.50000000E-01  8.50000000E-01  8.50000000E-01  8.50000000E-01  8.50000000E-01
  8.50000000E-01  8.50000000E-01  8.50000000E-01  8.50000000E-01  8.50000000E-01
  8.50000000E-01  8.50000000E-01  8.50000000E-01  8.50000000E-01  8.50000000E-01
  8.50000000E-01  8.50000000E-01  8.50000000E-01  8.50000000E-01  8.50000000E-01
  8.50000000E-01  8.50000000E-01  8.50000000E-01  8.50000000E-01  8.50000000E-01
  8.50000000E-01  8.50000000E-01  8.50000000E-01  8.50000000E-01  8.50000000E-01
  8.50000000E-01  8.50000000E-01  8.50000000E-01  8.50000000E-01  8.50000000E-01
  8.50000000E-01  8.50000000E-01  8.50000000E-01  8.50000000E-01  8.50000000E-01
  8.50000000E-01  8.50000000E-01  8.50000000E-01  8.50000000E-01  8.50000000E-01
  8.50000000E-01  8.50000000E-01  8.50000000E-01  8.50000000E-01  8.50000000E-01
  8.50000000E-01  8.50000000E-01  8.50000000E-01  8.50000000E-01  8.50000000E-01
  8.50000000E-01  8.50000000E-01  8.50000000E-01  8.50000000E-01  8.50000000E-01
  8.50000000E-01  8.50000000E-01  8.50000000E-01  8.50000000E-01  8.50000000E-01
  8.50000000E-01  8.50000000E-01  8.50000000E-01  8.50000000E-01  8.50000000E-01
  8.50000000E-01  8.50000000E-01  8.50000000E-01  8.50000000E-01  8.50000000E-01
  8.50000000E-01  8.50000000E-01  8.50000000E-01  8.50000000E-01  8.50000000E-01
  8.50000000E-01  8.50000000E-01  8.50000000E-01  8.50000000E-01  8.50000000E-01
  8.50000000E-01  8.50000000E-01  8.50000000E-01  8.50000000E-01  8.50000000E-01
  8.50000000E-01  8.50000000E-01  8.50000000E-01  8.50000000E-01  8.50000000E-01
  8.50000000E-01  8.50000000E-01  8.50000000E-01  8.50000000E-01  8.50000000E-01
  8.50000000E-01  8.50000000E-01  8.50000000E-01  8.50000000E-01  8.50000000E-01
  8.50000000E-01  8.50000000E-01  8.50000000E-01  8.50000000E-01  8.50000000E-01
  8.50000000E-01  8.50000000E-01  8.50000000E-01  8.50000000E-01  8.50000000E-01
  8.50000000E-01  8.50000000E-01  8.50000000E-01  8.50000000E-01  8.50000000E-01
  8.50000000E-01  8.50000000E-01  8.50000000E-01  8.50000000E-01  8.50000000E-01
  8.50000000E-01  8.50000000E-01  8.50000000E-01  8.50000000E-01  8.50000000E-01
  8.50000000E-01  8.50000000E-01  8.50000000E-01  8.50000000E-01  8.50000000E-01
  8.50000000E-01  8.50000000E-01  8.50000000E-01  8.50000000E-01  8.50000000E-01
  8.50000000E-01  8.50000000E-01  8.50000000E-01  8.50000000E-01  8.50000000E-01
  8.50000000E-01  8.50000000E-01  8.50000000E-01  8.50000000E-01  8.50000000E-01
  8.50000000E-01  8.50000000E-01  8.50000000E-01  8.50000000E-01  8.50000000E-01
  8.50000000E-01  8.50000000E-01  8.50000000E-01  8.50000000E-01  8.50000000E-01
  8.50000000E-01  8.50000000E-01  8.50000000E-01  8.50000000E-01  8.50000000E-01
  8.50000000E-01  8.50000000E-01  8.50000000E-01  8.50000000E-01  8.50000000E-01
  8.50000000E-01  8.50000000E-01  8.50000000E-01  8.50000000E-01  8.50000000E-01
  8.50000000E-01  8.50000000E-01  8.50000000E-01  8.50000000E-01  8.50000000E-01
  8.50000000E-01  8.50000000E-01  8.50000000E-01  8.50000000E-01  8.50000000E-01
  8.50000000E-01  8.50000000E-01  8.50000000E-01  8.50000000E-01  8.50000000E-01
  8.50000000E-01  8.50000000E-01  8.50000000E-01  8.50000000E-01  8.50000000E-01
  8.50000000E-01  8.50000000E-01  8.50000000E-01  8.50000000E-01  8.50000000E-01
  8.50000000E-01  8.50000000E-01  8.50000000E-01  8.50000000E-01  8.50000000E-01
  8.50000000E-01  8.50000000E-01  8.50000000E-01  8.50000000E-01  8.50000000E-01
  8.50000000E-01  8.50000000E-01  8.50000000E-01  8.50000000E-01  8.50000000E-01
  8.50000000E-01  8.50000000E-01  8.50000000E-01  8.50000000E-01  8.50000000E-01
  8.50000000E-01  8.50000000E-01  8.50000000E-01  8.50000000E-01  8.50000000E-01
  8.50000000E-01  8.50000000E-01  8.50000000E-01  8.50000000E-01  8.50000000E-01
  8.50000000E-01  8.50000000E-01  8.50000000E-01  8.50000000E-01  8.50000000E-01
  8.50000000E-01  8.50000000E-01  8.50000000E-01  8.50000000E-01  8.50000000E-01
  8.50000000E-01  8.50000000E-01  8.50000000E-01  8.50000000E-01  8.50000000E-01
  8.50000000E-01  8.50000000E-01  8.50000000E-01  8.50000000E-01  8.50000000E-01
  8.50000000E-01  8.50000000E-01  8.50000000E-01  8.50000000E-01  8.50000000E-01
  8.50000000E-01  8.50000000E-01  8.50000000E-01  8.50000000E-01  8.50000000E-01
  8.50000000E-01  8.50000000E-01  8.50000000E-01  8.50000000E-01  8.50000000E-01
  8.50000000E-01  8.50000000E-01  8.50000000E-01  8.50000000E-01  8.50000000E-01
  8.50000000E-01  8.50000000E-01  8.50000000E-01  8.50000000E-01  8.50000000E-01
  8.50000000E-01  8.50000000E-01  8.50000000E-01  8.50000000E-01  8.50000000E-01
  8.50000000E-01  8.50000000E-01  8.50000000E-01  8.50000000E-01  8.50000000E-01
  8.50000000E-01  8.50000000E-01  8.50000000E-01  8.50000000E-01  8.50000000E-01
  8.50000000E-01  8.50000000E-01  8.50000000E-01  8.50000000E-01  8.50000000E-01
  8.50000000E-01  8.50000000E-01  8.50000000E-01  8.50000000E-01  8.50000000E-01
  8.50000000E-01  8.50000000E-01  8.50000000E-01  8.50000000E-01  8.50000000E-01
  8.50000000E-01  8.50000000E-01  8.50000000E-01  8.50000000E-01  8.50000000E-01
  8.50000000E-01  8.50000000E-01  8.50000000E-01  8.50000000E-01  8.50000000E-01
  8.50000000E-01  8.50000000E-01  8.50000000E-01  8.50000000E-01  8.50000000E-01
  8.50000000E-01  8.50000000E-01  8.50000000E-01  8.50000000E-01  8.50000000E-01
  8.50000000E-01  8.50000000E-01  8.50000000E-01  8.50000000E-01  8.50000000E-01
  8.50000000E-01  8.50000000E-01  8.50000000E-01  8.50000000E-01  8.50000000E-01
  8.50000000E-01  8.50000000E-01  8.50000000E-01  8.50000000E-01  8.50000000E-01
  8.50000000E-01  8.50000000E-01  8.50000000E-01  8.50000000E-01  8.50000000E-01
  8.50000000E-01  8.50000000E-01  8.50000000E-01  8.50000000E-01  8.50000000E-01
  8.50000000E-01  8.50000000E-01  8.50000000E-01  8.50000000E-01  8.50000000E-01
  8.50000000E-01  8.50000000E-01  8.50000000E-01  8.50000000E-01  8.50000000E-01
  8.50000000E-01  8.50000000E-01  8.50000000E-01  8.50000000E-01  8.50000000E-01
  8.50000000E-01  8.50000000E-01  8.50000000E-01  8.50000000E-01  8.50000000E-01
  8.50000000E-01  8.50000000E-01  8.50000000E-01  8.50000000E-01  8.50000000E-01
  8.50000000E-01  8.50000000E-01  8.50000000E-01  8.50000000E-01  8.50000000E-01
  8.50000000E-01  8.50000000E-01  8.50000000E-01  8.50000000E-01  8.50000000E-01
  8.50000000E-01  8.50000000E-01  8.50000000E-01  8.50000000E-01  8.50000000E-01
  8.50000000E-01  8.50000000E-01  8.50000000E-01  8.50000000E-01  8.50000000E-01
  8.50000000E-01  8.50000000E-01  8.50000000E-01  8.50000000E-01  8.50000000E-01
  8.50000000E-01  8.50000000E-01  8.50000000E-01  8.50000000E-01  8.50000000E-01
  8.50000000E-01  8.50000000E-01  8.50000000E-01  8.50000000E-01  8.50000000E-01
  8.50000000E-01  8.50000000E-01  8.50000000E-01  8.50000000E-01  8.50000000E-01
  8.50000000E-01  8.50000000E-01  8.50000000E-01  8.50000000E-01  8.50000000E-01
  8.50000000E-01  8.50000000E-01  8.50000000E-01  8.50000000E-01  8.50000000E-01
  8.50000000E-01  8.50000000E-01  8.50000000E-01  8.50000000E-01  8.50000000E-01
  8.50000000E-01  8.50000000E-01  8.50000000E-01  8.50000000E-01  8.50000000E-01
  8.50000000E-01  8.50000000E-01  8.50000000E-01  8.50000000E-01  8.50000000E-01
  8.50000000E-01  8.50000000E-01  8.50000000E-01  8.50000000E-01  8.50000000E-01
  8.50000000E-01  8.50000000E-01  8.50000000E-01  8.50000000E-01  8.50000000E-01
  8.50000000E-01  8.50000000E-01  8.50000000E-01  8.50000000E-01  8.50000000E-01
  8.50000000E-01  8.50000000E-01  8.50000000E-01  8.50000000E-01  8.50000000E-01
  8.50000000E-01  8.50000000E-01  8.50000000E-01  8.50000000E-01  8.50000000E-01
  8.50000000E-01  8.50000000E-01  8.50000000E-01  8.50000000E-01  8.50000000E-01
  8.50000000E-01  8.50000000E-01  8.50000000E-01  8.50000000E-01  8.50000000E-01
  8.50000000E-01  8.50000000E-01  8.50000000E-01  8.50000000E-01  8.50000000E-01
  8.50000000E-01  8.50000000E-01  8.50000000E-01  8.50000000E-01  8.50000000E-01
  8.50000000E-01  8.50000000E-01  8.50000000E-01  8.50000000E-01  8.50000000E-01
  8.50000000E-01  8.50000000E-01  8.50000000E-01  8.50000000E-01  8.50000000E-01
  8.50000000E-01  8.50000000E-01  8.50000000E-01  8.50000000E-01  8.50000000E-01
  8.50000000E-01  8.50000000E-01  8.50000000E-01  8.50000000E-01  8.50000000E-01
  8.50000000E-01  8.50000000E-01  8.50000000E-01  8.50000000E-01  8.50000000E-01
  8.50000000E-01  8.50000000E-01  8.50000000E-01  8.50000000E-01  8.50000000E-01
  8.50000000E-01  8.50000000E-01  8.50000000E-01  8.50000000E-01  8.50000000E-01
  8.50000000E-01  8.50000000E-01  8.50000000E-01  8.50000000E-01  8.50000000E-01
  8.50000000E-01  8.50000000E-01  8.50000000E-01  8.50000000E-01  8.50000000E-01
  8.50000000E-01  8.50000000E-01  8.50000000E-01  8.50000000E-01  8.50000000E-01
  8.50000000E-01  8.50000000E-01  8.50000000E-01  8.50000000E-01  8.50000000E-01
  8.50000000E-01  8.50000000E-01  8.50000000E-01  8.50000000E-01  8.50000000E-01
  8.50000000E-01  8.50000000E-01  8.50000000E-01  8.50000000E-01  8.50000000E-01
  8.50000000E-01  8.50000000E-01  8.50000000E-01  8.50000000E-01  8.50000000E-01
  8.50000000E-01  8.50000000E-01  8.50000000E-01  8.50000000E-01  8.50000000E-01
  8.50000000E-01  8.50000000E-01  8.50000000E-01  8.50000000E-01  8.50000000E-01
  8.50000000E-01  8.50000000E-01  8.50000000E-01  8.50000000E-01  8.50000000E-01
  8.50000000E-01  8.50000000E-01  8.50000000E-01  8.50000000E-01  8.50000000E-01
  8.50000000E-01  8.50000000E-01  8.50000000E-01  8.50000000E-01  8.50000000E-01
  8.50000000E-01  8.50000000E-01  8.50000000E-01  8.50000000E-01  8.50000000E-01
  8.50000000E-01  8.50000000E-01  8.50000000E-01  8.50000000E-01  8.50000000E-01
  8.50000000E-01  8.50000000E-01  8.50000000E-01  8.50000000E-01  8.50000000E-01
  8.50000000E-01  8.50000000E-01  8.50000000E-01  8.50000000E-01  8.50000000E-01
  8.50000000E-01  8.50000000E-01  8.50000000E-01  8.50000000E-01  8.50000000E-01
  8.50000000E-01  8.50000000E-01  8.50000000E-01  8.50000000E-01  8.50000000E-01
  8.50000000E-01  8.50000000E-01  8.50000000E-01  8.50000000E-01  8.50000000E-01
  8.50000000E-01  8.50000000E-01  8.50000000E-01  8.50000000E-01  8.50000000E-01
  8.50000000E-01  8.50000000E-01  8.50000000E-01  8.50000000E-01  8.50000000E-01
  8.50000000E-01  8.50000000E-01  8.50000000E-01  8.50000000E-01  8.50000000E-01
  8.50000000E-01  8.50000000E-01  8.50000000E-01  8.50000000E-01  8.50000000E-01
  8.50000000E-01  8.50000000E-01  8.50000000E-01  8.50000000E-01  8.50000000E-01
  8.50000000E-01  8.50000000E-01  8.50000000E-01  8.50000000E-01  8.50000000E-01
  8.50000000E-01  8.50000000E-01  8.50000000E-01  8.50000000E-01  8.50000000E-01
  8.50000000E-01  8.50000000E-01  8.50000000E-01  8.50000000E-01  8.50000000E-01
  8.50000000E-01  8.50000000E-01  8.50000000E-01  8.50000000E-01  8.50000000E-01
  8.50000000E-01  8.50000000E-01  8.50000000E-01  8.50000000E-01  8.50000000E-01
  8.50000000E-01  8.50000000E-01  8.50000000E-01  8.50000000E-01  8.50000000E-01
  8.50000000E-01  8.50000000E-01  8.50000000E-01  8.50000000E-01  8.50000000E-01
  8.50000000E-01  8.50000000E-01  8.50000000E-01  8.50000000E-01  8.50000000E-01
  8.50000000E-01  8.50000000E-01  8.50000000E-01  8.50000000E-01  8.50000000E-01
  8.50000000E-01  8.50000000E-01  8.50000000E-01  8.50000000E-01  8.50000000E-01
  8.50000000E-01  8.50000000E-01  8.50000000E-01  8.50000000E-01  8.50000000E-01
  8.50000000E-01  8.50000000E-01  8.50000000E-01  8.50000000E-01  8.50000000E-01
  8.50000000E-01  8.50000000E-01  8.50000000E-01  8.50000000E-01  8.50000000E-01
  8.50000000E-01  8.50000000E-01  8.50000000E-01  8.50000000E-01  8.50000000E-01
  8.50000000E-01  8.50000000E-01  8.50000000E-01  8.50000000E-01  8.50000000E-01
  8.50000000E-01  8.50000000E-01  8.50000000E-01  8.50000000E-01  8.50000000E-01
  8.50000000E-01  8.50000000E-01  8.50000000E-01  8.50000000E-01  8.50000000E-01
  8.50000000E-01  8.50000000E-01  8.50000000E-01  8.50000000E-01  8.50000000E-01
  8.50000000E-01  8.50000000E-01  8.50000000E-01  8.50000000E-01  8.50000000E-01
  8.50000000E-01  8.50000000E-01  8.50000000E-01  8.50000000E-01  8.50000000E-01
  8.50000000E-01  8.50000000E-01  8.50000000E-01  8.50000000E-01  8.50000000E-01
  8.50000000E-01  8.50000000E-01  8.50000000E-01  8.50000000E-01  8.50000000E-01
  8.50000000E-01  8.50000000E-01  8.50000000E-01  8.50000000E-01  8.50000000E-01
  8.50000000E-01  8.50000000E-01  8.50000000E-01  8.50000000E-01  8.50000000E-01
  8.50000000E-01  8.50000000E-01  8.50000000E-01  8.50000000E-01  8.50000000E-01
  8.50000000E-01  8.50000000E-01  8.50000000E-01  8.50000000E-01  8.50000000E-01
  8.50000000E-01  8.50000000E-01  8.50000000E-01  8.50000000E-01  8.50000000E-01
  8.50000000E-01  8.50000000E-01  8.50000000E-01  8.50000000E-01  8.50000000E-01
  8.50000000E-01  8.50000000E-01  8.50000000E-01  8.50000000E-01  8.50000000E-01
  8.50000000E-01  8.50000000E-01  8.50000000E-01  8.50000000E-01  8.50000000E-01
  8.50000000E-01  8.50000000E-01  8.50000000E-01  8.50000000E-01  8.50000000E-01
  8.50000000E-01  8.50000000E-01  8.50000000E-01  8.50000000E-01  8.50000000E-01
  8.50000000E-01  8.50000000E-01  8.50000000E-01  8.50000000E-01  8.50000000E-01
  8.50000000E-01  8.50000000E-01  8.50000000E-01  8.50000000E-01  8.50000000E-01
  8.50000000E-01  8.50000000E-01  8.50000000E-01  8.50000000E-01  8.50000000E-01
  8.50000000E-01  8.50000000E-01  8.50000000E-01  8.50000000E-01  8.50000000E-01
  8.50000000E-01  8.50000000E-01  8.50000000E-01  8.50000000E-01  8.50000000E-01
  8.50000000E-01  8.50000000E-01  8.50000000E-01  8.50000000E-01  8.50000000E-01
  8.50000000E-01  8.50000000E-01  8.50000000E-01  8.50000000E-01  8.50000000E-01
  8.50000000E-01  8.50000000E-01  8.50000000E-01  8.50000000E-01  8.50000000E-01
  8.50000000E-01  8.50000000E-01  8.50000000E-01  8.50000000E-01  8.50000000E-01
  8.50000000E-01  8.50000000E-01  8.50000000E-01  8.50000000E-01  8.50000000E-01
  8.50000000E-01  8.50000000E-01  8.50000000E-01  8.50000000E-01  8.50000000E-01
  8.50000000E-01  8.50000000E-01  8.50000000E-01  8.50000000E-01  8.50000000E-01
  8.50000000E-01  8.50000000E-01  8.50000000E-01  8.50000000E-01  8.50000000E-01
  8.50000000E-01  8.50000000E-01  8.50000000E-01  8.50000000E-01  8.50000000E-01
  8.50000000E-01  8.50000000E-01  8.50000000E-01  8.50000000E-01  8.50000000E-01
  8.50000000E-01  8.50000000E-01  8.50000000E-01  8.50000000E-01  8.50000000E-01
  8.50000000E-01  8.50000000E-01  8.50000000E-01  8.50000000E-01  8.50000000E-01
  8.50000000E-01  8.50000000E-01  8.50000000E-01  8.50000000E-01  8.50000000E-01
  8.50000000E-01  8.50000000E-01  8.50000000E-01  8.50000000E-01  8.50000000E-01
  8.50000000E-01  8.50000000E-01  8.50000000E-01  8.50000000E-01  8.50000000E-01
  8.50000000E-01  8.50000000E-01  8.50000000E-01  8.50000000E-01  8.50000000E-01
  8.50000000E-01  8.50000000E-01  8.50000000E-01  8.50000000E-01  8.50000000E-01
  8.50000000E-01  8.50000000E-01  8.50000000E-01  8.50000000E-01  8.50000000E-01
  8.50000000E-01  8.50000000E-01  8.50000000E-01  8.50000000E-01  8.50000000E-01
  8.50000000E-01  8.50000000E-01  8.50000000E-01  8.50000000E-01  8.50000000E-01
  8.50000000E-01  8.50000000E-01  8.50000000E-01  8.50000000E-01  8.50000000E-01
  8.50000000E-01  8.50000000E-01  8.50000000E-01  8.50000000E-01  8.50000000E-01
  8.50000000E-01  8.50000000E-01  8.50000000E-01  8.50000000E-01  8.50000000E-01
  8.50000000E-01  8.50000000E-01  8.50000000E-01  8.50000000E-01  8.50000000E-01
  8.50000000E-01  8.50000000E-01  8.50000000E-01  8.50000000E-01  8.50000000E-01
  8.50000000E-01  8.50000000E-01  8.50000000E-01  8.50000000E-01  8.50000000E-01
  8.50000000E-01  8.50000000E-01  8.50000000E-01  8.50000000E-01  8.50000000E-01
  8.50000000E-01  8.50000000E-01  8.50000000E-01  8.50000000E-01  8.50000000E-01
  8.50000000E-01  8.50000000E-01  8.50000000E-01  8.50000000E-01  8.50000000E-01
  8.50000000E-01  8.50000000E-01  8.50000000E-01  8.50000000E-01  8.50000000E-01
  8.50000000E-01  8.50000000E-01  8.50000000E-01  8.50000000E-01  8.50000000E-01
  8.50000000E-01  8.50000000E-01  8.50000000E-01  8.50000000E-01  8.50000000E-01
  8.50000000E-01  8.50000000E-01  8.50000000E-01  8.50000000E-01  8.50000000E-01
  8.50000000E-01  8.50000000E-01  8.50000000E-01  8.50000000E-01  8.50000000E-01
  8.50000000E-01  8.50000000E-01  8.50000000E-01  8.50000000E-01  8.50000000E-01
  8.50000000E-01  8.50000000E-01  8.50000000E-01  8.50000000E-01  8.50000000E-01
  8.50000000E-01  8.50000000E-01  8.50000000E-01  8.50000000E-01  8.50000000E-01
  8.50000000E-01  8.50000000E-01  8.50000000E-01  8.50000000E-01  8.50000000E-01
  8.50000000E-01  8.50000000E-01  8.50000000E-01  8.50000000E-01  8.50000000E-01
  8.50000000E-01  8.50000000E-01  8.50000000E-01  8.50000000E-01  8.50000000E-01
  8.50000000E-01  8.50000000E-01  8.50000000E-01  8.50000000E-01  8.50000000E-01
  8.50000000E-01  8.50000000E-01  8.50000000E-01  8.50000000E-01  8.50000000E-01
  8.50000000E-01  8.50000000E-01  8.50000000E-01  8.50000000E-01  8.50000000E-01
  8.50000000E-01  8.50000000E-01  8.50000000E-01  8.50000000E-01  8.50000000E-01
  8.50000000E-01  8.50000000E-01  8.50000000E-01  8.50000000E-01  8.50000000E-01
  8.50000000E-01  8.50000000E-01  8.50000000E-01  8.50000000E-01  8.50000000E-01
  8.50000000E-01  8.50000000E-01  8.50000000E-01  8.50000000E-01  8.50000000E-01
  8.50000000E-01  8.50000000E-01  8.50000000E-01  8.50000000E-01  8.50000000E-01
  8.50000000E-01  8.50000000E-01  8.50000000E-01  8.50000000E-01  8.50000000E-01
  8.50000000E-01  8.50000000E-01  8.50000000E-01  8.50000000E-01  8.50000000E-01
  8.50000000E-01  8.50000000E-01  8.50000000E-01  8.50000000E-01  8.50000000E-01
  8.50000000E-01  8.50000000E-01  8.50000000E-01  8.50000000E-01  8.50000000E-01
  8.50000000E-01  8.50000000E-01  8.50000000E-01  8.50000000E-01  8.50000000E-01
  8.50000000E-01  8.50000000E-01  8.50000000E-01  8.50000000E-01  8.50000000E-01
  8.50000000E-01  8.50000000E-01  8.50000000E-01  8.50000000E-01  8.50000000E-01
  8.50000000E-01  8.50000000E-01  8.50000000E-01  8.50000000E-01  8.50000000E-01
  8.50000000E-01  8.50000000E-01  8.50000000E-01  8.50000000E-01  8.50000000E-01
  8.50000000E-01  8.50000000E-01  8.50000000E-01  8.50000000E-01  8.50000000E-01
  8.50000000E-01  8.50000000E-01  8.50000000E-01  8.50000000E-01  8.50000000E-01
  8.50000000E-01  8.50000000E-01  8.50000000E-01  8.50000000E-01  8.50000000E-01
  8.50000000E-01  8.50000000E-01  8.50000000E-01  8.50000000E-01  8.50000000E-01
  8.50000000E-01  8.50000000E-01  8.50000000E-01  8.50000000E-01  8.50000000E-01
  8.50000000E-01  8.50000000E-01  8.50000000E-01  8.50000000E-01  8.50000000E-01
  8.50000000E-01  8.50000000E-01  8.50000000E-01  8.50000000E-01  8.50000000E-01
  8.50000000E-01  8.50000000E-01  8.50000000E-01  8.50000000E-01  8.50000000E-01
  8.50000000E-01  8.50000000E-01  8.50000000E-01  8.50000000E-01  8.50000000E-01
  8.50000000E-01  8.50000000E-01  8.50000000E-01  8.50000000E-01  8.50000000E-01
  8.50000000E-01  8.50000000E-01  8.50000000E-01  8.50000000E-01  8.50000000E-01
  8.50000000E-01  8.50000000E-01  8.50000000E-01  8.50000000E-01  8.50000000E-01
  8.50000000E-01  8.50000000E-01  8.50000000E-01  8.50000000E-01  8.50000000E-01
  8.50000000E-01  8.50000000E-01  8.50000000E-01  8.50000000E-01  8.50000000E-01
  8.50000000E-01  8.50000000E-01  8.50000000E-01  8.50000000E-01  8.50000000E-01
  8.50000000E-01  8.50000000E-01  8.50000000E-01  8.50000000E-01  8.50000000E-01
  8.50000000E-01  8.50000000E-01  8.50000000E-01  8.50000000E-01  8.50000000E-01
  8.50000000E-01  8.50000000E-01  8.50000000E-01  8.50000000E-01  8.50000000E-01
  8.50000000E-01  8.50000000E-01  8.50000000E-01  8.50000000E-01  8.50000000E-01
  8.50000000E-01  8.50000000E-01  8.50000000E-01  8.50000000E-01  8.50000000E-01
  8.50000000E-01  8.50000000E-01  8.50000000E-01  8.50000000E-01  8.50000000E-01
  8.50000000E-01  8.50000000E-01  8.50000000E-01  8.50000000E-01  8.50000000E-01
  8.50000000E-01  8.50000000E-01  8.50000000E-01  8.50000000E-01  8.50000000E-01
  8.50000000E-01  8.50000000E-01  8.50000000E-01  8.50000000E-01  8.50000000E-01
  8.50000000E-01  8.50000000E-01  8.50000000E-01  8.50000000E-01  8.50000000E-01
  8.50000000E-01  8.50000000E-01  8.50000000E-01  8.50000000E-01  8.50000000E-01
  8.50000000E-01  8.50000000E-01  8.50000000E-01  8.50000000E-01  8.50000000E-01
  8.50000000E-01  8.50000000E-01  8.50000000E-01  8.50000000E-01  8.50000000E-01
  8.50000000E-01  8.50000000E-01  8.50000000E-01  8.50000000E-01  8.50000000E-01
  8.50000000E-01  8.50000000E-01  8.50000000E-01  8.50000000E-01  8.50000000E-01
  8.50000000E-01  8.50000000E-01  8.50000000E-01  8.50000000E-01  8.50000000E-01
  8.50000000E-01  8.50000000E-01  8.50000000E-01  8.50000000E-01  8.50000000E-01
  8.50000000E-01  8.50000000E-01  8.50000000E-01  8.50000000E-01  8.50000000E-01
  8.50000000E-01  8.50000000E-01  8.50000000E-01  8.50000000E-01  8.50000000E-01
  8.50000000E-01  8.50000000E-01  8.50000000E-01  8.50000000E-01  8.50000000E-01
  8.50000000E-01  8.50000000E-01  8.50000000E-01  8.50000000E-01  8.50000000E-01
  8.50000000E-01  8.50000000E-01  8.50000000E-01  8.50000000E-01  8.50000000E-01
  8.50000000E-01  8.50000000E-01  8.50000000E-01  8.50000000E-01  8.50000000E-01
  8.50000000E-01  8.50000000E-01  8.50000000E-01  8.50000000E-01  8.50000000E-01
  8.50000000E-01  8.50000000E-01  8.50000000E-01  8.50000000E-01  8.50000000E-01
  8.50000000E-01  8.50000000E-01  8.50000000E-01  8.50000000E-01  8.50000000E-01
  8.50000000E-01  8.50000000E-01  8.50000000E-01  8.50000000E-01  8.50000000E-01
  8.50000000E-01  8.50000000E-01  8.50000000E-01  8.50000000E-01  8.50000000E-01
  8.50000000E-01  8.50000000E-01  8.50000000E-01  8.50000000E-01  8.50000000E-01
  8.50000000E-01  8.50000000E-01  8.50000000E-01  8.50000000E-01  8.50000000E-01
  8.50000000E-01  8.50000000E-01  8.50000000E-01  8.50000000E-01  8.50000000E-01
  8.50000000E-01  8.50000000E-01  8.50000000E-01  8.50000000E-01  8.50000000E-01
  8.50000000E-01  8.50000000E-01  8.50000000E-01  8.50000000E-01  8.50000000E-01
  8.50000000E-01  8.50000000E-01  8.50000000E-01  8.50000000E-01  8.50000000E-01
  8.50000000E-01  8.50000000E-01  8.50000000E-01  8.50000000E-01  8.50000000E-01
  8.50000000E-01  8.50000000E-01  8.50000000E-01  8.50000000E-01  8.50000000E-01
  8.50000000E-01  8.50000000E-01  8.50000000E-01  8.50000000E-01  8.50000000E-01
  8.50000000E-01  8.50000000E-01  8.50000000E-01  8.50000000E-01  8.50000000E-01
  8.50000000E-01  8.50000000E-01  8.50000000E-01  8.50000000E-01  8.50000000E-01
  8.50000000E-01  8.50000000E-01  8.50000000E-01  8.50000000E-01  8.50000000E-01
  8.50000000E-01  8.50000000E-01  8.50000000E-01  8.50000000E-01  8.50000000E-01
  8.50000000E-01  8.50000000E-01  8.50000000E-01  8.50000000E-01  8.50000000E-01
  8.50000000E-01  8.50000000E-01  8.50000000E-01  8.50000000E-01  8.50000000E-01
  8.50000000E-01  8.50000000E-01  8.50000000E-01  8.50000000E-01  8.50000000E-01
  8.50000000E-01  8.50000000E-01  8.50000000E-01  8.50000000E-01  8.50000000E-01
  8.50000000E-01  8.50000000E-01  8.50000000E-01  8.50000000E-01  8.50000000E-01
  8.50000000E-01  8.50000000E-01  8.50000000E-01  8.50000000E-01  8.50000000E-01
  8.50000000E-01  8.50000000E-01  8.50000000E-01  8.50000000E-01  8.50000000E-01
  8.50000000E-01  8.50000000E-01  8.50000000E-01  8.50000000E-01  8.50000000E-01
  8.50000000E-01  8.50000000E-01  8.50000000E-01  8.50000000E-01  8.50000000E-01
  8.50000000E-01  8.50000000E-01  8.50000000E-01  8.50000000E-01  8.50000000E-01
  8.50000000E-01  8.50000000E-01  8.50000000E-01  8.50000000E-01  8.50000000E-01
  8.50000000E-01  8.50000000E-01  8.50000000E-01  8.50000000E-01  8.50000000E-01
  8.50000000E-01  8.50000000E-01  8.50000000E-01  8.50000000E-01  8.50000000E-01
  8.50000000E-01  8.50000000E-01  8.50000000E-01  8.50000000E-01  8.50000000E-01
  8.50000000E-01  8.50000000E-01  8.50000000E-01  8.50000000E-01  8.50000000E-01
  8.50000000E-01  8.50000000E-01  8.50000000E-01  8.50000000E-01  8.50000000E-01
  8.50000000E-01  8.50000000E-01  8.50000000E-01  8.50000000E-01  8.50000000E-01
  8.50000000E-01  8.50000000E-01  8.50000000E-01  8.50000000E-01  8.50000000E-01
  8.50000000E-01  8.50000000E-01  8.50000000E-01  8.50000000E-01  8.50000000E-01
  8.50000000E-01  8.50000000E-01  8.50000000E-01  8.50000000E-01  8.50000000E-01
  8.50000000E-01  8.50000000E-01  8.50000000E-01  8.50000000E-01  8.50000000E-01
  8.50000000E-01  8.50000000E-01  8.50000000E-01  8.50000000E-01  8.50000000E-01
  8.50000000E-01  8.50000000E-01  8.50000000E-01  8.50000000E-01  8.50000000E-01
  8.50000000E-01  8.50000000E-01  8.50000000E-01  8.50000000E-01  8.50000000E-01
  8.50000000E-01  8.50000000E-01  8.50000000E-01  8.50000000E-01  8.50000000E-01
  8.50000000E-01  8.50000000E-01  8.50000000E-01  8.50000000E-01  8.50000000E-01
  8.50000000E-01  8.50000000E-01  8.50000000E-01  8.50000000E-01  8.50000000E-01
  8.50000000E-01  8.50000000E-01  8.50000000E-01  8.50000000E-01  8.50000000E-01
  8.50000000E-01  8.50000000E-01  8.50000000E-01  8.50000000E-01  8.50000000E-01
  8.50000000E-01  8.50000000E-01  8.50000000E-01  8.50000000E-01  8.50000000E-01
  8.50000000E-01  8.50000000E-01  8.50000000E-01  8.50000000E-01  8.50000000E-01
  8.50000000E-01  8.50000000E-01  8.50000000E-01  8.50000000E-01  8.50000000E-01
  8.50000000E-01  8.50000000E-01  8.50000000E-01  8.50000000E-01  8.50000000E-01
  8.50000000E-01  8.50000000E-01  8.50000000E-01  8.50000000E-01  8.50000000E-01
  8.50000000E-01  8.50000000E-01  8.50000000E-01  8.50000000E-01  8.50000000E-01
  8.50000000E-01  8.50000000E-01  8.50000000E-01  8.50000000E-01  8.50000000E-01
  8.50000000E-01  8.50000000E-01  8.50000000E-01  8.50000000E-01  8.50000000E-01
  8.50000000E-01  8.50000000E-01  8.50000000E-01  8.50000000E-01  8.50000000E-01
  8.50000000E-01  8.50000000E-01  8.50000000E-01  8.50000000E-01  8.50000000E-01
  8.50000000E-01  8.50000000E-01  8.50000000E-01  8.50000000E-01  8.50000000E-01
  8.50000000E-01  8.50000000E-01  8.50000000E-01  8.50000000E-01  8.50000000E-01
  8.50000000E-01  8.50000000E-01  8.50000000E-01  8.50000000E-01  8.50000000E-01
  8.50000000E-01  8.50000000E-01  8.50000000E-01  8.50000000E-01  8.50000000E-01
  8.50000000E-01  8.50000000E-01  8.50000000E-01  8.50000000E-01  8.50000000E-01
  8.50000000E-01  8.50000000E-01  8.50000000E-01  8.50000000E-01  8.50000000E-01
  8.50000000E-01  8.50000000E-01  8.50000000E-01  8.50000000E-01  8.50000000E-01
  8.50000000E-01  8.50000000E-01  8.50000000E-01  8.50000000E-01  8.50000000E-01
  8.50000000E-01  8.50000000E-01  8.50000000E-01  8.50000000E-01  8.50000000E-01
  8.50000000E-01  8.50000000E-01  8.50000000E-01  8.50000000E-01  8.50000000E-01
  8.50000000E-01  8.50000000E-01  8.50000000E-01  8.50000000E-01  8.50000000E-01
  8.50000000E-01  8.50000000E-01  8.50000000E-01  8.50000000E-01  8.50000000E-01
  8.50000000E-01  8.50000000E-01  8.50000000E-01  8.50000000E-01  8.50000000E-01
  8.50000000E-01  8.50000000E-01  8.50000000E-01  8.50000000E-01  8.50000000E-01
  8.50000000E-01  8.50000000E-01  8.50000000E-01  8.50000000E-01  8.50000000E-01
  8.50000000E-01  8.50000000E-01  8.50000000E-01  8.50000000E-01  8.50000000E-01
  8.50000000E-01  8.50000000E-01  8.50000000E-01  8.50000000E-01  8.50000000E-01
  8.50000000E-01  8.50000000E-01  8.50000000E-01  8.50000000E-01  8.50000000E-01
  8.50000000E-01  8.50000000E-01  8.50000000E-01  8.50000000E-01  8.50000000E-01
  8.50000000E-01  8.50000000E-01  8.50000000E-01  8.50000000E-01  8.50000000E-01
  8.50000000E-01  8.50000000E-01  8.50000000E-01  8.50000000E-01  8.50000000E-01
  8.50000000E-01  8.50000000E-01  8.50000000E-01  8.50000000E-01  8.50000000E-01
  8.50000000E-01  8.50000000E-01  8.50000000E-01  8.50000000E-01  8.50000000E-01
  8.50000000E-01  8.50000000E-01  8.50000000E-01  8.50000000E-01  8.50000000E-01
  8.50000000E-01  8.50000000E-01  8.50000000E-01  8.50000000E-01  8.50000000E-01
  8.50000000E-01  8.50000000E-01  8.50000000E-01  8.50000000E-01  8.50000000E-01
  8.50000000E-01  8.50000000E-01  8.50000000E-01  8.50000000E-01  8.50000000E-01
  8.50000000E-01  8.50000000E-01  8.50000000E-01  8.50000000E-01  8.50000000E-01
  8.50000000E-01  8.50000000E-01  8.50000000E-01  8.50000000E-01  8.50000000E-01
  8.50000000E-01  8.50000000E-01  8.50000000E-01  8.50000000E-01  8.50000000E-01
  8.50000000E-01  8.50000000E-01  8.50000000E-01  8.50000000E-01  8.50000000E-01
  8.50000000E-01  8.50000000E-01  8.50000000E-01  8.50000000E-01  8.50000000E-01
  8.50000000E-01  8.50000000E-01  8.50000000E-01  8.50000000E-01  8.50000000E-01
  8.50000000E-01  8.50000000E-01  8.50000000E-01  8.50000000E-01  8.50000000E-01
  8.50000000E-01  8.50000000E-01  8.50000000E-01  8.50000000E-01  8.50000000E-01
  8.50000000E-01  8.50000000E-01  8.50000000E-01  8.50000000E-01  8.50000000E-01
  8.50000000E-01  8.50000000E-01  8.50000000E-01  8.50000000E-01  8.50000000E-01
  8.50000000E-01  8.50000000E-01  8.50000000E-01  8.50000000E-01  8.50000000E-01
  8.50000000E-01  8.50000000E-01  8.50000000E-01  8.50000000E-01  8.50000000E-01
  8.50000000E-01  8.50000000E-01  8.50000000E-01  8.50000000E-01  8.50000000E-01
  8.50000000E-01  8.50000000E-01  8.50000000E-01  8.50000000E-01  8.50000000E-01
  8.50000000E-01  8.50000000E-01  8.50000000E-01  8.50000000E-01  8.50000000E-01
  8.50000000E-01  8.50000000E-01  8.50000000E-01  8.50000000E-01  8.50000000E-01
  8.50000000E-01  8.50000000E-01  8.50000000E-01  8.50000000E-01  8.50000000E-01
  8.50000000E-01  8.50000000E-01  8.50000000E-01  8.50000000E-01  8.50000000E-01
  8.50000000E-01  8.50000000E-01  8.50000000E-01  8.50000000E-01  8.50000000E-01
  8.50000000E-01  8.50000000E-01  8.50000000E-01  8.50000000E-01  8.50000000E-01
  8.50000000E-01  8.50000000E-01  8.50000000E-01  8.50000000E-01  8.50000000E-01
  8.50000000E-01  8.50000000E-01  8.50000000E-01  8.50000000E-01  8.50000000E-01
  8.50000000E-01  8.50000000E-01  8.50000000E-01  8.50000000E-01  8.50000000E-01
  8.50000000E-01  8.50000000E-01  8.50000000E-01  8.50000000E-01  8.50000000E-01
  8.50000000E-01  8.50000000E-01  8.50000000E-01  8.50000000E-01  8.50000000E-01
  8.50000000E-01  8.50000000E-01  8.50000000E-01  8.50000000E-01  8.50000000E-01
  8.50000000E-01  8.50000000E-01  8.50000000E-01  8.50000000E-01  8.50000000E-01
  8.50000000E-01  8.50000000E-01  8.50000000E-01  8.50000000E-01  8.50000000E-01
  8.50000000E-01  8.50000000E-01  8.50000000E-01  8.50000000E-01  8.50000000E-01
  8.50000000E-01  8.50000000E-01  8.50000000E-01  8.50000000E-01  8.50000000E-01
  8.50000000E-01  8.50000000E-01  8.50000000E-01  8.50000000E-01  8.50000000E-01
  8.50000000E-01  8.50000000E-01  8.50000000E-01  8.50000000E-01  8.50000000E-01
  8.50000000E-01  8.50000000E-01  8.50000000E-01  8.50000000E-01  8.50000000E-01
  8.50000000E-01  8.50000000E-01  8.50000000E-01  8.50000000E-01  8.50000000E-01
  8.50000000E-01  8.50000000E-01  8.50000000E-01  8.50000000E-01  8.50000000E-01
  8.50000000E-01  8.50000000E-01  8.50000000E-01  8.50000000E-01  8.50000000E-01
  8.50000000E-01  8.50000000E-01  8.50000000E-01  8.50000000E-01  8.50000000E-01
  8.50000000E-01  8.50000000E-01  8.50000000E-01  8.50000000E-01  8.50000000E-01
  8.50000000E-01  8.50000000E-01  8.50000000E-01  8.50000000E-01  8.50000000E-01
  8.50000000E-01  8.50000000E-01  8.50000000E-01  8.50000000E-01  8.50000000E-01
  8.50000000E-01  8.50000000E-01  8.50000000E-01  8.50000000E-01  8.50000000E-01
  8.50000000E-01  8.50000000E-01  8.50000000E-01  8.50000000E-01  8.50000000E-01
  8.50000000E-01  8.50000000E-01  8.50000000E-01  8.50000000E-01  8.50000000E-01
  8.50000000E-01  8.50000000E-01  8.50000000E-01  8.50000000E-01  8.50000000E-01
  8.50000000E-01  8.50000000E-01  8.50000000E-01  8.50000000E-01  8.50000000E-01
  8.50000000E-01  8.50000000E-01  8.50000000E-01  8.50000000E-01  8.50000000E-01
  8.50000000E-01  8.50000000E-01  8.50000000E-01  8.50000000E-01  8.50000000E-01
  8.50000000E-01  8.50000000E-01  8.50000000E-01  8.50000000E-01  8.50000000E-01
  8.50000000E-01  8.50000000E-01  8.50000000E-01  8.50000000E-01  8.50000000E-01
  8.50000000E-01  8.50000000E-01  8.50000000E-01  8.50000000E-01  8.50000000E-01
  8.50000000E-01  8.50000000E-01  8.50000000E-01  8.50000000E-01  8.50000000E-01
  8.50000000E-01  8.50000000E-01  8.50000000E-01  8.50000000E-01  8.50000000E-01
  8.50000000E-01  8.50000000E-01  8.50000000E-01  8.50000000E-01  8.50000000E-01
  8.50000000E-01  8.50000000E-01  8.50000000E-01  8.50000000E-01  8.50000000E-01
  8.50000000E-01  8.50000000E-01  8.50000000E-01  8.50000000E-01  8.50000000E-01
  8.50000000E-01  8.50000000E-01  8.50000000E-01  8.50000000E-01  8.50000000E-01
  8.50000000E-01  8.50000000E-01  8.50000000E-01  8.50000000E-01  8.50000000E-01
  8.50000000E-01  8.50000000E-01  8.50000000E-01  8.50000000E-01  8.50000000E-01
  8.50000000E-01  8.50000000E-01  8.50000000E-01  8.50000000E-01  8.50000000E-01
  8.50000000E-01  8.50000000E-01  8.50000000E-01  8.50000000E-01  8.50000000E-01
  8.50000000E-01  8.50000000E-01  8.50000000E-01  8.50000000E-01  8.50000000E-01
  8.50000000E-01  8.50000000E-01  8.50000000E-01  8.50000000E-01  8.50000000E-01
  8.50000000E-01  8.50000000E-01  8.50000000E-01  8.50000000E-01  8.50000000E-01
  8.50000000E-01  8.50000000E-01  8.50000000E-01  8.50000000E-01  8.50000000E-01
  8.50000000E-01  8.50000000E-01  8.50000000E-01  8.50000000E-01  8.50000000E-01
  8.50000000E-01  8.50000000E-01  8.50000000E-01  8.50000000E-01  8.50000000E-01
  8.50000000E-01  8.50000000E-01  8.50000000E-01  8.50000000E-01  8.50000000E-01
  8.50000000E-01  8.50000000E-01  8.50000000E-01  8.50000000E-01  8.50000000E-01
  8.50000000E-01  8.50000000E-01  8.50000000E-01  8.50000000E-01  8.50000000E-01
  8.50000000E-01  8.50000000E-01  8.50000000E-01  8.50000000E-01  8.50000000E-01
  8.50000000E-01  8.50000000E-01  8.50000000E-01  8.50000000E-01  8.50000000E-01
  8.50000000E-01  8.50000000E-01  8.50000000E-01  8.50000000E-01  8.50000000E-01
  8.50000000E-01  8.50000000E-01  8.50000000E-01  8.50000000E-01  8.50000000E-01
  8.50000000E-01  8.50000000E-01  8.50000000E-01  8.50000000E-01  8.50000000E-01
  8.50000000E-01  8.50000000E-01  8.50000000E-01  8.50000000E-01  8.50000000E-01
  8.50000000E-01  8.50000000E-01  8.50000000E-01  8.50000000E-01  8.50000000E-01
  8.50000000E-01  8.50000000E-01  8.50000000E-01  8.50000000E-01  8.50000000E-01
  8.50000000E-01  8.50000000E-01  8.50000000E-01  8.50000000E-01  8.50000000E-01
  8.50000000E-01  8.50000000E-01  8.50000000E-01  8.50000000E-01  8.50000000E-01
  8.50000000E-01  8.50000000E-01  8.50000000E-01  8.50000000E-01  8.50000000E-01
  8.50000000E-01  8.50000000E-01  8.50000000E-01  8.50000000E-01  8.50000000E-01
  8.50000000E-01  8.50000000E-01  8.50000000E-01  8.50000000E-01  8.50000000E-01
  8.50000000E-01  8.50000000E-01  8.50000000E-01  8.50000000E-01  8.50000000E-01
  8.50000000E-01  8.50000000E-01  8.50000000E-01  8.50000000E-01  8.50000000E-01
  8.50000000E-01  8.50000000E-01  8.50000000E-01  8.50000000E-01  8.50000000E-01
  8.50000000E-01  8.50000000E-01  8.50000000E-01  8.50000000E-01  8.50000000E-01
  8.50000000E-01  8.50000000E-01  8.50000000E-01  8.50000000E-01  8.50000000E-01
  8.50000000E-01  8.50000000E-01  8.50000000E-01  8.50000000E-01  8.50000000E-01
  8.50000000E-01  8.50000000E-01  8.50000000E-01  8.50000000E-01  8.50000000E-01
  8.50000000E-01  8.50000000E-01  8.50000000E-01  8.50000000E-01  8.50000000E-01
  8.50000000E-01  8.50000000E-01  8.50000000E-01  8.50000000E-01  8.50000000E-01
  8.50000000E-01  8.50000000E-01  8.50000000E-01  8.50000000E-01  8.50000000E-01
  8.50000000E-01  8.50000000E-01  8.50000000E-01  8.50000000E-01  8.50000000E-01
  8.50000000E-01  8.50000000E-01  8.50000000E-01  8.50000000E-01  8.50000000E-01
  8.50000000E-01  8.50000000E-01  8.50000000E-01  8.50000000E-01  8.50000000E-01
  8.50000000E-01  8.50000000E-01  8.50000000E-01  8.50000000E-01  8.50000000E-01
  8.50000000E-01  8.50000000E-01  8.50000000E-01  8.50000000E-01  8.50000000E-01
  8.50000000E-01  8.50000000E-01  8.50000000E-01  8.50000000E-01  8.50000000E-01
  8.50000000E-01  8.50000000E-01  8.50000000E-01  8.50000000E-01  8.50000000E-01
  8.50000000E-01  8.50000000E-01  8.50000000E-01  8.50000000E-01  8.50000000E-01
  8.50000000E-01  8.50000000E-01  8.50000000E-01  8.50000000E-01  8.50000000E-01
  8.50000000E-01  8.50000000E-01  8.50000000E-01  8.50000000E-01  8.50000000E-01
  8.50000000E-01  8.50000000E-01  8.50000000E-01  8.50000000E-01  8.50000000E-01
  8.50000000E-01  8.50000000E-01  8.50000000E-01  8.50000000E-01  8.50000000E-01
  8.50000000E-01  8.50000000E-01  8.50000000E-01  8.50000000E-01  8.50000000E-01
  8.50000000E-01  8.50000000E-01  8.50000000E-01  8.50000000E-01  8.50000000E-01
  8.50000000E-01  8.50000000E-01  8.50000000E-01  8.50000000E-01  8.50000000E-01
  8.50000000E-01  8.50000000E-01  8.50000000E-01  8.50000000E-01  8.50000000E-01
  8.50000000E-01  8.50000000E-01  8.50000000E-01  8.50000000E-01  8.50000000E-01
  8.50000000E-01  8.50000000E-01  8.50000000E-01  8.50000000E-01  8.50000000E-01
  8.50000000E-01  8.50000000E-01  8.50000000E-01  8.50000000E-01  8.50000000E-01
  8.50000000E-01  8.50000000E-01  8.50000000E-01  8.50000000E-01  8.50000000E-01
  8.50000000E-01  8.50000000E-01  8.50000000E-01  8.50000000E-01  8.50000000E-01
  8.50000000E-01  8.50000000E-01  8.50000000E-01  8.50000000E-01  8.50000000E-01
  8.50000000E-01  8.50000000E-01  8.50000000E-01  8.50000000E-01  8.50000000E-01
  8.50000000E-01  8.50000000E-01  8.50000000E-01  8.50000000E-01  8.50000000E-01
  8.50000000E-01  8.50000000E-01  8.50000000E-01  8.50000000E-01  8.50000000E-01
  8.50000000E-01  8.50000000E-01  8.50000000E-01  8.50000000E-01  8.50000000E-01
  8.50000000E-01  8.50000000E-01  8.50000000E-01  8.50000000E-01  8.50000000E-01
  8.50000000E-01  8.50000000E-01  8.50000000E-01  8.50000000E-01  8.50000000E-01
  8.50000000E-01  8.50000000E-01  8.50000000E-01  8.50000000E-01  8.50000000E-01
  8.50000000E-01  8.50000000E-01  8.50000000E-01  8.50000000E-01  8.50000000E-01
  8.50000000E-01  8.50000000E-01  8.50000000E-01  8.50000000E-01  8.50000000E-01
  8.50000000E-01  8.50000000E-01  8.50000000E-01  8.50000000E-01  8.50000000E-01
  8.50000000E-01  8.50000000E-01  8.50000000E-01  8.50000000E-01  8.50000000E-01
  8.50000000E-01  8.50000000E-01  8.50000000E-01  8.50000000E-01  8.50000000E-01
  8.50000000E-01  8.50000000E-01  8.50000000E-01  8.50000000E-01  8.50000000E-01
  8.50000000E-01  8.50000000E-01  8.50000000E-01  8.50000000E-01  8.50000000E-01
  8.50000000E-01  8.50000000E-01  8.50000000E-01  8.50000000E-01  8.50000000E-01
  8.50000000E-01  8.50000000E-01  8.50000000E-01  8.50000000E-01  8.50000000E-01
  8.50000000E-01  8.50000000E-01  8.50000000E-01  8.50000000E-01  8.50000000E-01
  8.50000000E-01  8.50000000E-01  8.50000000E-01  8.50000000E-01  8.50000000E-01
  8.50000000E-01  8.50000000E-01  8.50000000E-01  8.50000000E-01  8.50000000E-01
  8.50000000E-01  8.50000000E-01  8.50000000E-01  8.50000000E-01  8.50000000E-01
  8.50000000E-01  8.50000000E-01  8.50000000E-01  8.50000000E-01  8.50000000E-01
  8.50000000E-01  8.50000000E-01  8.50000000E-01  8.50000000E-01  8.50000000E-01
  8.50000000E-01  8.50000000E-01  8.50000000E-01  8.50000000E-01  8.50000000E-01
  8.50000000E-01  8.50000000E-01  8.50000000E-01  8.50000000E-01  8.50000000E-01
  8.50000000E-01  8.50000000E-01  8.50000000E-01  8.50000000E-01  8.50000000E-01
  8.50000000E-01  8.50000000E-01  8.50000000E-01  8.50000000E-01  8.50000000E-01
  8.50000000E-01  8.50000000E-01  8.50000000E-01  8.50000000E-01  8.50000000E-01
  8.50000000E-01  8.50000000E-01  8.50000000E-01  8.50000000E-01  8.50000000E-01
  8.50000000E-01  8.50000000E-01  8.50000000E-01  8.50000000E-01  8.50000000E-01
  8.50000000E-01  8.50000000E-01  8.50000000E-01  8.50000000E-01  8.50000000E-01
  8.50000000E-01  8.50000000E-01  8.50000000E-01  8.50000000E-01  8.50000000E-01
  8.50000000E-01  8.50000000E-01  8.50000000E-01  8.50000000E-01  8.50000000E-01
  8.50000000E-01  8.50000000E-01  8.50000000E-01  8.50000000E-01  8.50000000E-01
  8.50000000E-01  8.50000000E-01  8.50000000E-01  8.50000000E-01  8.50000000E-01
  8.50000000E-01  8.50000000E-01  8.50000000E-01  8.50000000E-01  8.50000000E-01
  8.50000000E-01  8.50000000E-01  8.50000000E-01  8.50000000E-01  8.50000000E-01
  8.50000000E-01  8.50000000E-01  8.50000000E-01  8.50000000E-01  8.50000000E-01
  8.50000000E-01  8.50000000E-01  8.50000000E-01  8.50000000E-01  8.50000000E-01
  8.50000000E-01  8.50000000E-01  8.50000000E-01  8.50000000E-01  8.50000000E-01
  8.50000000E-01  8.50000000E-01  8.50000000E-01  8.50000000E-01  8.50000000E-01
  8.50000000E-01  8.50000000E-01  8.50000000E-01  8.50000000E-01  8.50000000E-01
  8.50000000E-01  8.50000000E-01  8.50000000E-01  8.50000000E-01  8.50000000E-01
  8.50000000E-01  8.50000000E-01  8.50000000E-01  8.50000000E-01  8.50000000E-01
  8.50000000E-01  8.50000000E-01  8.50000000E-01  8.50000000E-01  8.50000000E-01
  8.50000000E-01  8.50000000E-01  8.50000000E-01  8.50000000E-01  8.50000000E-01
  8.50000000E-01  8.50000000E-01  8.50000000E-01  8.50000000E-01  8.50000000E-01
  8.50000000E-01  8.50000000E-01  8.50000000E-01  8.50000000E-01  8.50000000E-01
  8.50000000E-01  8.50000000E-01  8.50000000E-01  8.50000000E-01  8.50000000E-01
  8.50000000E-01  8.50000000E-01  8.50000000E-01  8.50000000E-01  8.50000000E-01
  8.50000000E-01  8.50000000E-01  8.50000000E-01  8.50000000E-01  8.50000000E-01
  8.50000000E-01  8.50000000E-01  8.50000000E-01  8.50000000E-01  8.50000000E-01
  8.50000000E-01  8.50000000E-01  8.50000000E-01  8.50000000E-01  8.50000000E-01
  8.50000000E-01  8.50000000E-01  8.50000000E-01  8.50000000E-01  8.50000000E-01
  8.50000000E-01  8.50000000E-01  8.50000000E-01  8.50000000E-01  8.50000000E-01
  8.50000000E-01  8.50000000E-01  8.50000000E-01  8.50000000E-01  8.50000000E-01
  8.50000000E-01  8.50000000E-01  8.50000000E-01  8.50000000E-01  8.50000000E-01
  8.50000000E-01  8.50000000E-01  8.50000000E-01  8.50000000E-01  8.50000000E-01
  8.50000000E-01  8.50000000E-01  8.50000000E-01  8.50000000E-01  8.50000000E-01
  8.50000000E-01  8.50000000E-01  8.50000000E-01  8.50000000E-01  8.50000000E-01
  8.50000000E-01  8.50000000E-01  8.50000000E-01  8.50000000E-01  8.50000000E-01
  8.50000000E-01  8.50000000E-01  8.50000000E-01  8.50000000E-01  8.50000000E-01
  8.50000000E-01  8.50000000E-01  8.50000000E-01  8.50000000E-01  8.50000000E-01
  8.50000000E-01  8.50000000E-01  8.50000000E-01  8.50000000E-01  8.50000000E-01
  8.50000000E-01  8.50000000E-01  8.50000000E-01  8.50000000E-01  8.50000000E-01
  8.50000000E-01  8.50000000E-01  8.50000000E-01  8.50000000E-01  8.50000000E-01
  8.50000000E-01  8.50000000E-01  8.50000000E-01  8.50000000E-01  8.50000000E-01
  8.50000000E-01  8.50000000E-01  8.50000000E-01  8.50000000E-01  8.50000000E-01
  8.50000000E-01  8.50000000E-01  8.50000000E-01  8.50000000E-01  8.50000000E-01
  8.50000000E-01  8.50000000E-01  8.50000000E-01  8.50000000E-01  8.50000000E-01
  8.50000000E-01  8.50000000E-01  8.50000000E-01  8.50000000E-01  8.50000000E-01
  8.50000000E-01  8.50000000E-01  8.50000000E-01  8.50000000E-01  8.50000000E-01
  8.50000000E-01  8.50000000E-01  8.50000000E-01  8.50000000E-01  8.50000000E-01
  8.50000000E-01  8.50000000E-01  8.50000000E-01  8.50000000E-01  8.50000000E-01
  8.50000000E-01  8.50000000E-01  8.50000000E-01  8.50000000E-01  8.50000000E-01
  8.50000000E-01  8.50000000E-01  8.50000000E-01  8.50000000E-01  8.50000000E-01
  8.50000000E-01  8.50000000E-01  8.50000000E-01  8.50000000E-01  8.50000000E-01
  8.50000000E-01  8.50000000E-01  8.50000000E-01  8.50000000E-01  8.50000000E-01
  8.50000000E-01  8.50000000E-01  8.50000000E-01  8.50000000E-01  8.50000000E-01
  8.50000000E-01  8.50000000E-01  8.50000000E-01  8.50000000E-01  8.50000000E-01
  8.50000000E-01  8.50000000E-01  8.50000000E-01  8.50000000E-01  8.50000000E-01
  8.50000000E-01  8.50000000E-01  8.50000000E-01  8.50000000E-01  8.50000000E-01
  8.50000000E-01  8.50000000E-01  8.50000000E-01  8.50000000E-01  8.50000000E-01
  8.50000000E-01  8.50000000E-01  8.50000000E-01  8.50000000E-01  8.50000000E-01
  8.50000000E-01  8.50000000E-01  8.50000000E-01  8.50000000E-01  8.50000000E-01
  8.50000000E-01  8.50000000E-01  8.50000000E-01  8.50000000E-01  8.50000000E-01
  8.50000000E-01  8.50000000E-01  8.50000000E-01  8.50000000E-01  8.50000000E-01
  8.50000000E-01  8.50000000E-01  8.50000000E-01  8.50000000E-01  8.50000000E-01
  8.50000000E-01  8.50000000E-01  8.50000000E-01  8.50000000E-01  8.50000000E-01
  8.50000000E-01  8.50000000E-01  8.50000000E-01  8.50000000E-01  8.50000000E-01
  8.50000000E-01  8.50000000E-01  8.50000000E-01  8.50000000E-01  8.50000000E-01
  8.50000000E-01  8.50000000E-01  8.50000000E-01  8.50000000E-01  8.50000000E-01
  8.50000000E-01  8.50000000E-01  8.50000000E-01  8.50000000E-01  8.50000000E-01
  8.50000000E-01  8.50000000E-01  8.50000000E-01  8.50000000E-01  8.50000000E-01
  8.50000000E-01  8.50000000E-01  8.50000000E-01  8.50000000E-01  8.50000000E-01
  8.50000000E-01  8.50000000E-01  8.50000000E-01  8.50000000E-01  8.50000000E-01
  8.50000000E-01  8.50000000E-01  8.50000000E-01  8.50000000E-01  8.50000000E-01
  8.50000000E-01  8.50000000E-01  8.50000000E-01  8.50000000E-01  8.50000000E-01
  8.50000000E-01  8.50000000E-01  8.50000000E-01  8.50000000E-01  8.50000000E-01
  8.50000000E-01  8.50000000E-01  8.50000000E-01  8.50000000E-01  8.50000000E-01
  8.50000000E-01  8.50000000E-01  8.50000000E-01  8.50000000E-01  8.50000000E-01
  8.50000000E-01  8.50000000E-01  8.50000000E-01  8.50000000E-01  8.50000000E-01
  8.50000000E-01  8.50000000E-01  8.50000000E-01  8.50000000E-01  8.50000000E-01
  8.50000000E-01  8.50000000E-01  8.50000000E-01  8.50000000E-01  8.50000000E-01
  8.50000000E-01  8.50000000E-01  8.50000000E-01  8.50000000E-01  8.50000000E-01
  8.50000000E-01  8.50000000E-01  8.50000000E-01  8.50000000E-01  8.50000000E-01
  8.50000000E-01  8.50000000E-01  8.50000000E-01  8.50000000E-01  8.50000000E-01
  8.50000000E-01  8.50000000E-01  8.50000000E-01  8.50000000E-01  8.50000000E-01
  8.50000000E-01  8.50000000E-01  8.50000000E-01  8.50000000E-01  8.50000000E-01
  8.50000000E-01  8.50000000E-01  8.50000000E-01  8.50000000E-01  8.50000000E-01
  8.50000000E-01  8.50000000E-01  8.50000000E-01  8.50000000E-01  8.50000000E-01
  8.50000000E-01  8.50000000E-01  8.50000000E-01  8.50000000E-01  8.50000000E-01
  8.50000000E-01  8.50000000E-01  8.50000000E-01  8.50000000E-01  8.50000000E-01
  8.50000000E-01  8.50000000E-01  8.50000000E-01  8.50000000E-01  8.50000000E-01
  8.50000000E-01  8.50000000E-01  8.50000000E-01  8.50000000E-01  8.50000000E-01
  8.50000000E-01  8.50000000E-01  8.50000000E-01  8.50000000E-01  8.50000000E-01
  8.50000000E-01  8.50000000E-01  8.50000000E-01  8.50000000E-01  8.50000000E-01
  8.50000000E-01  8.50000000E-01  8.50000000E-01  8.50000000E-01  8.50000000E-01
  8.50000000E-01  8.50000000E-01  8.50000000E-01  8.50000000E-01  8.50000000E-01
  8.50000000E-01  8.50000000E-01  8.50000000E-01  8.50000000E-01  8.50000000E-01
  8.50000000E-01  8.50000000E-01  8.50000000E-01  8.50000000E-01  8.50000000E-01
  8.50000000E-01  8.50000000E-01  8.50000000E-01  8.50000000E-01  8.50000000E-01
  8.50000000E-01  8.50000000E-01  8.50000000E-01  8.50000000E-01  8.50000000E-01
  8.50000000E-01  8.50000000E-01  8.50000000E-01  8.50000000E-01  8.50000000E-01
  8.50000000E-01  8.50000000E-01  8.50000000E-01  8.50000000E-01  8.50000000E-01
  8.50000000E-01  8.50000000E-01  8.50000000E-01  8.50000000E-01  8.50000000E-01
  8.50000000E-01  8.50000000E-01  8.50000000E-01  8.50000000E-01  8.50000000E-01
  8.50000000E-01  8.50000000E-01  8.50000000E-01  8.50000000E-01  8.50000000E-01
  8.50000000E-01  8.50000000E-01  8.50000000E-01  8.50000000E-01  8.50000000E-01
  8.50000000E-01  8.50000000E-01  8.50000000E-01  8.50000000E-01  8.50000000E-01
  8.50000000E-01  8.50000000E-01  8.50000000E-01  8.50000000E-01  8.50000000E-01
  8.50000000E-01  8.50000000E-01  8.50000000E-01  8.50000000E-01  8.50000000E-01
  8.50000000E-01  8.50000000E-01  8.50000000E-01  8.50000000E-01  8.50000000E-01
  8.50000000E-01  8.50000000E-01  8.50000000E-01  8.50000000E-01  8.50000000E-01
  8.50000000E-01  8.50000000E-01  8.50000000E-01  8.50000000E-01  8.50000000E-01
  8.50000000E-01  8.50000000E-01  8.50000000E-01  8.50000000E-01  8.50000000E-01
  8.50000000E-01  8.50000000E-01  8.50000000E-01  8.50000000E-01  8.50000000E-01
  8.50000000E-01  8.50000000E-01  8.50000000E-01  8.50000000E-01  8.50000000E-01
  8.50000000E-01  8.50000000E-01  8.50000000E-01  8.50000000E-01  8.50000000E-01
  8.50000000E-01  8.50000000E-01  8.50000000E-01  8.50000000E-01  8.50000000E-01
  8.50000000E-01  8.50000000E-01  8.50000000E-01  8.50000000E-01  8.50000000E-01
  8.50000000E-01  8.50000000E-01  8.50000000E-01  8.50000000E-01  8.50000000E-01
  8.50000000E-01  8.50000000E-01  8.50000000E-01  8.50000000E-01  8.50000000E-01
  8.50000000E-01  8.50000000E-01  8.50000000E-01  8.50000000E-01  8.50000000E-01
  8.50000000E-01  8.50000000E-01  8.50000000E-01  8.50000000E-01  8.50000000E-01
  8.50000000E-01  8.50000000E-01  8.50000000E-01  8.50000000E-01  8.50000000E-01
  8.50000000E-01  8.50000000E-01  8.50000000E-01  8.50000000E-01  8.50000000E-01
  8.50000000E-01  8.50000000E-01  8.50000000E-01  8.50000000E-01  8.50000000E-01
  8.50000000E-01  8.50000000E-01  8.50000000E-01  8.50000000E-01  8.50000000E-01
  8.50000000E-01  8.50000000E-01  8.50000000E-01  8.50000000E-01  8.50000000E-01
  8.50000000E-01  8.50000000E-01  8.50000000E-01  8.50000000E-01  8.50000000E-01
  8.50000000E-01  8.50000000E-01  8.50000000E-01  8.50000000E-01  8.50000000E-01
  8.50000000E-01  8.50000000E-01  8.50000000E-01  8.50000000E-01  8.50000000E-01
  8.50000000E-01  8.50000000E-01  8.50000000E-01  8.50000000E-01  8.50000000E-01
  8.50000000E-01  8.50000000E-01  8.50000000E-01  8.50000000E-01  8.50000000E-01
  8.50000000E-01  8.50000000E-01  8.50000000E-01  8.50000000E-01  8.50000000E-01
  8.50000000E-01  8.50000000E-01  8.50000000E-01  8.50000000E-01  8.50000000E-01
  8.50000000E-01  8.50000000E-01  8.50000000E-01  8.50000000E-01  8.50000000E-01
  8.50000000E-01  8.50000000E-01  8.50000000E-01  8.50000000E-01  8.50000000E-01
  8.50000000E-01  8.50000000E-01  8.50000000E-01  8.50000000E-01  8.50000000E-01
  8.50000000E-01  8.50000000E-01  8.50000000E-01  8.50000000E-01  8.50000000E-01
  8.50000000E-01  8.50000000E-01  8.50000000E-01  8.50000000E-01  8.50000000E-01
  8.50000000E-01  8.50000000E-01  8.50000000E-01  8.50000000E-01  8.50000000E-01
  8.50000000E-01  8.50000000E-01  8.50000000E-01  8.50000000E-01  8.50000000E-01
  8.50000000E-01  8.50000000E-01  8.50000000E-01  8.50000000E-01  8.50000000E-01
  8.50000000E-01  8.50000000E-01  8.50000000E-01  8.50000000E-01  8.50000000E-01
  8.50000000E-01  8.50000000E-01  8.50000000E-01  8.50000000E-01  8.50000000E-01
  8.50000000E-01  8.50000000E-01  8.50000000E-01  8.50000000E-01  8.50000000E-01
  8.50000000E-01  8.50000000E-01  8.50000000E-01  8.50000000E-01  8.50000000E-01
  8.50000000E-01  8.50000000E-01  8.50000000E-01  8.50000000E-01  8.50000000E-01
  8.50000000E-01  8.50000000E-01  8.50000000E-01  8.50000000E-01  8.50000000E-01
  8.50000000E-01  8.50000000E-01  8.50000000E-01  8.50000000E-01  8.50000000E-01
  8.50000000E-01  8.50000000E-01  8.50000000E-01  8.50000000E-01  8.50000000E-01
  8.50000000E-01  8.50000000E-01  8.50000000E-01  8.50000000E-01  8.50000000E-01
  8.50000000E-01  8.50000000E-01  8.50000000E-01  8.50000000E-01  8.50000000E-01
  8.50000000E-01  8.50000000E-01  8.50000000E-01  8.50000000E-01  8.50000000E-01
  8.50000000E-01  8.50000000E-01  8.50000000E-01  8.50000000E-01  8.50000000E-01
  8.50000000E-01  8.50000000E-01  8.50000000E-01  8.50000000E-01  8.50000000E-01
  8.50000000E-01  8.50000000E-01  8.50000000E-01  8.50000000E-01  8.50000000E-01
  8.50000000E-01  8.50000000E-01  8.50000000E-01  8.50000000E-01  8.50000000E-01
  8.50000000E-01  8.50000000E-01  8.50000000E-01  8.50000000E-01  8.50000000E-01
  8.50000000E-01  8.50000000E-01  8.50000000E-01  8.50000000E-01  8.50000000E-01
  8.50000000E-01  8.50000000E-01  8.50000000E-01  8.50000000E-01  8.50000000E-01
  8.50000000E-01  8.50000000E-01  8.50000000E-01  8.50000000E-01  8.50000000E-01
  8.50000000E-01  8.50000000E-01  8.50000000E-01  8.50000000E-01  8.50000000E-01
  8.50000000E-01  8.50000000E-01  8.50000000E-01  8.50000000E-01  8.50000000E-01
  8.50000000E-01  8.50000000E-01  8.50000000E-01  8.50000000E-01  8.50000000E-01
  8.50000000E-01  8.50000000E-01  8.50000000E-01  8.50000000E-01  8.50000000E-01
  8.50000000E-01  8.50000000E-01  8.50000000E-01  8.50000000E-01  8.50000000E-01
  8.50000000E-01  8.50000000E-01  8.50000000E-01  8.50000000E-01  8.50000000E-01
  8.50000000E-01  8.50000000E-01  8.50000000E-01  8.50000000E-01  8.50000000E-01
  8.50000000E-01  8.50000000E-01  8.50000000E-01  8.50000000E-01  8.50000000E-01
  8.50000000E-01  8.50000000E-01  8.50000000E-01  8.50000000E-01  8.50000000E-01
  8.50000000E-01  8.50000000E-01  8.50000000E-01  8.50000000E-01  8.50000000E-01
  8.50000000E-01  8.50000000E-01  8.50000000E-01  8.50000000E-01  8.50000000E-01
  8.50000000E-01  8.50000000E-01  8.50000000E-01  8.50000000E-01  8.50000000E-01
  8.50000000E-01  8.50000000E-01  8.50000000E-01  8.50000000E-01  8.50000000E-01
  8.50000000E-01  8.50000000E-01  8.50000000E-01  8.50000000E-01  8.50000000E-01
  8.50000000E-01  8.50000000E-01  8.50000000E-01  8.50000000E-01  8.50000000E-01
  8.50000000E-01  8.50000000E-01  8.50000000E-01  8.50000000E-01  8.50000000E-01
  8.50000000E-01  8.50000000E-01  8.50000000E-01  8.50000000E-01  8.50000000E-01
  8.50000000E-01  8.50000000E-01  8.50000000E-01  8.50000000E-01  8.50000000E-01
  8.50000000E-01  8.50000000E-01  8.50000000E-01  8.50000000E-01  8.50000000E-01
  8.50000000E-01  8.50000000E-01  8.50000000E-01  8.50000000E-01  8.50000000E-01
  8.50000000E-01  8.50000000E-01  8.50000000E-01  8.50000000E-01  8.50000000E-01
  8.50000000E-01  8.50000000E-01  8.50000000E-01  8.50000000E-01  8.50000000E-01
  8.50000000E-01  8.50000000E-01  8.50000000E-01  8.50000000E-01  8.50000000E-01
  8.50000000E-01  8.50000000E-01  8.50000000E-01  8.50000000E-01  8.50000000E-01
  8.50000000E-01  8.50000000E-01  8.50000000E-01  8.50000000E-01  8.50000000E-01
  8.50000000E-01  8.50000000E-01  8.50000000E-01  8.50000000E-01  8.50000000E-01
  8.50000000E-01  8.50000000E-01  8.50000000E-01  8.50000000E-01  8.50000000E-01
  8.50000000E-01  8.50000000E-01  8.50000000E-01  8.50000000E-01  8.50000000E-01
  8.50000000E-01  8.50000000E-01  8.50000000E-01  8.50000000E-01  8.50000000E-01
  8.50000000E-01  8.50000000E-01  8.50000000E-01  8.50000000E-01  8.50000000E-01
  8.50000000E-01  8.50000000E-01  8.50000000E-01  8.50000000E-01  8.50000000E-01
  8.50000000E-01  8.50000000E-01  8.50000000E-01  8.50000000E-01  8.50000000E-01
  8.50000000E-01  8.50000000E-01  8.50000000E-01  8.50000000E-01  8.50000000E-01
  8.50000000E-01  8.50000000E-01  8.50000000E-01  8.50000000E-01  8.50000000E-01
  8.50000000E-01  8.50000000E-01  8.50000000E-01  8.50000000E-01  8.50000000E-01
  8.50000000E-01  8.50000000E-01  8.50000000E-01  8.50000000E-01  8.50000000E-01
  8.50000000E-01  8.50000000E-01  8.50000000E-01  8.50000000E-01  8.50000000E-01
  8.50000000E-01  8.50000000E-01  8.50000000E-01  8.50000000E-01  8.50000000E-01
  8.50000000E-01  8.50000000E-01  8.50000000E-01  8.50000000E-01  8.50000000E-01
  8.50000000E-01  8.50000000E-01  8.50000000E-01  8.50000000E-01  8.50000000E-01
  8.50000000E-01  8.50000000E-01  8.50000000E-01  8.50000000E-01  8.50000000E-01
  8.50000000E-01  8.50000000E-01  8.50000000E-01  8.50000000E-01  8.50000000E-01
  8.50000000E-01  8.50000000E-01  8.50000000E-01  8.50000000E-01  8.50000000E-01
  8.50000000E-01  8.50000000E-01  8.50000000E-01  8.50000000E-01  8.50000000E-01
  8.50000000E-01  8.50000000E-01  8.50000000E-01  8.50000000E-01  8.50000000E-01
  8.50000000E-01  8.50000000E-01  8.50000000E-01  8.50000000E-01  8.50000000E-01
  8.50000000E-01  8.50000000E-01  8.50000000E-01  8.50000000E-01  8.50000000E-01
  8.50000000E-01  8.50000000E-01  8.50000000E-01  8.50000000E-01  8.50000000E-01
  8.50000000E-01  8.50000000E-01  8.50000000E-01  8.50000000E-01  8.50000000E-01
  8.50000000E-01  8.50000000E-01  8.50000000E-01  8.50000000E-01  8.50000000E-01
  8.50000000E-01  8.50000000E-01  8.50000000E-01  8.50000000E-01  8.50000000E-01
  8.50000000E-01  8.50000000E-01  8.50000000E-01  8.50000000E-01  8.50000000E-01
  8.50000000E-01  8.50000000E-01  8.50000000E-01  8.50000000E-01  8.50000000E-01
  8.50000000E-01  8.50000000E-01  8.50000000E-01  8.50000000E-01  8.50000000E-01
  8.50000000E-01  8.50000000E-01  8.50000000E-01  8.50000000E-01  8.50000000E-01
  8.50000000E-01  8.50000000E-01  8.50000000E-01  8.50000000E-01  8.50000000E-01
  8.50000000E-01  8.50000000E-01  8.50000000E-01  8.50000000E-01  8.50000000E-01
  8.50000000E-01  8.50000000E-01  8.50000000E-01  8.50000000E-01  8.50000000E-01
  8.50000000E-01  8.50000000E-01  8.50000000E-01  8.50000000E-01  8.50000000E-01
  8.50000000E-01  8.50000000E-01  8.50000000E-01  8.50000000E-01  8.50000000E-01
  8.50000000E-01  8.50000000E-01  8.50000000E-01  8.50000000E-01  8.50000000E-01
  8.50000000E-01  8.50000000E-01  8.50000000E-01  8.50000000E-01  8.50000000E-01
  8.50000000E-01  8.50000000E-01  8.50000000E-01  8.50000000E-01  8.50000000E-01
  8.50000000E-01  8.50000000E-01  8.50000000E-01  8.50000000E-01  8.50000000E-01
  8.50000000E-01  8.50000000E-01  8.50000000E-01  8.50000000E-01  8.50000000E-01
  8.50000000E-01  8.50000000E-01  8.50000000E-01  8.50000000E-01  8.50000000E-01
  8.50000000E-01  8.50000000E-01  8.50000000E-01  8.50000000E-01  8.50000000E-01
  8.50000000E-01  8.50000000E-01  8.50000000E-01  8.50000000E-01  8.50000000E-01
  8.50000000E-01  8.50000000E-01  8.50000000E-01  8.50000000E-01  8.50000000E-01
  8.50000000E-01  8.50000000E-01  8.50000000E-01  8.50000000E-01  8.50000000E-01
  8.50000000E-01  8.50000000E-01  8.50000000E-01  8.50000000E-01  8.50000000E-01
  8.50000000E-01  8.50000000E-01  8.50000000E-01  8.50000000E-01  8.50000000E-01
  8.50000000E-01  8.50000000E-01  8.50000000E-01  8.50000000E-01  8.50000000E-01
  8.50000000E-01  8.50000000E-01  8.50000000E-01  8.50000000E-01  8.50000000E-01
  8.50000000E-01  8.50000000E-01  8.50000000E-01  8.50000000E-01  8.50000000E-01
  8.50000000E-01  8.50000000E-01  8.50000000E-01  8.50000000E-01  8.50000000E-01
  8.50000000E-01  8.50000000E-01  8.50000000E-01  8.50000000E-01  8.50000000E-01
  8.50000000E-01  8.50000000E-01  8.50000000E-01  8.50000000E-01  8.50000000E-01
  8.50000000E-01  8.50000000E-01  8.50000000E-01  8.50000000E-01  8.50000000E-01
  8.50000000E-01  8.50000000E-01  8.50000000E-01  8.50000000E-01  8.50000000E-01
  8.50000000E-01  8.50000000E-01  8.50000000E-01  8.50000000E-01  8.50000000E-01
  8.50000000E-01  8.50000000E-01  8.50000000E-01  8.50000000E-01  8.50000000E-01
  8.50000000E-01  8.50000000E-01  8.50000000E-01  8.50000000E-01  8.50000000E-01
  8.50000000E-01  8.50000000E-01  8.50000000E-01  8.50000000E-01  8.50000000E-01
  8.50000000E-01  8.50000000E-01  8.50000000E-01  8.50000000E-01  8.50000000E-01
  8.50000000E-01  8.50000000E-01  8.50000000E-01  8.50000000E-01  8.50000000E-01
  8.50000000E-01  8.50000000E-01  8.50000000E-01  8.50000000E-01  8.50000000E-01
  8.50000000E-01  8.50000000E-01  8.50000000E-01  8.50000000E-01  8.50000000E-01
  8.50000000E-01  8.50000000E-01  8.50000000E-01  8.50000000E-01  8.50000000E-01
  8.50000000E-01  8.50000000E-01  8.50000000E-01  8.50000000E-01  8.50000000E-01
  8.50000000E-01  8.50000000E-01  8.50000000E-01  8.50000000E-01  8.50000000E-01
  8.50000000E-01  8.50000000E-01  8.50000000E-01  8.50000000E-01  8.50000000E-01
  8.50000000E-01  8.50000000E-01  8.50000000E-01  8.50000000E-01  8.50000000E-01
  8.50000000E-01  8.50000000E-01  8.50000000E-01  8.50000000E-01  8.50000000E-01
  8.50000000E-01  8.50000000E-01  8.50000000E-01  8.50000000E-01  8.50000000E-01
  8.50000000E-01  8.50000000E-01  8.50000000E-01  8.50000000E-01  8.50000000E-01
  8.50000000E-01  8.50000000E-01  8.50000000E-01  8.50000000E-01  8.50000000E-01
  8.50000000E-01  8.50000000E-01  8.50000000E-01  8.50000000E-01  8.50000000E-01
  8.50000000E-01  8.50000000E-01  8.50000000E-01  8.50000000E-01  8.50000000E-01
  8.50000000E-01  8.50000000E-01  8.50000000E-01  8.50000000E-01  8.50000000E-01
  8.50000000E-01  8.50000000E-01  8.50000000E-01  8.50000000E-01  8.50000000E-01
  8.50000000E-01  8.50000000E-01  8.50000000E-01  8.50000000E-01  8.50000000E-01
  8.50000000E-01  8.50000000E-01  8.50000000E-01  8.50000000E-01  8.50000000E-01
  8.50000000E-01  8.50000000E-01  8.50000000E-01  8.50000000E-01  8.50000000E-01
  8.50000000E-01  8.50000000E-01  8.50000000E-01  8.50000000E-01  8.50000000E-01
  8.50000000E-01  8.50000000E-01  8.50000000E-01  8.50000000E-01  8.50000000E-01
  8.50000000E-01  8.50000000E-01  8.50000000E-01  8.50000000E-01  8.50000000E-01
  8.50000000E-01  8.50000000E-01  8.50000000E-01  8.50000000E-01  8.50000000E-01
  8.50000000E-01  8.50000000E-01  8.50000000E-01  8.50000000E-01  8.50000000E-01
  8.50000000E-01  8.50000000E-01  8.50000000E-01  8.50000000E-01  8.50000000E-01
  8.50000000E-01  8.50000000E-01  8.50000000E-01  8.50000000E-01  8.50000000E-01
  8.50000000E-01  8.50000000E-01  8.50000000E-01  8.50000000E-01  8.50000000E-01
  8.50000000E-01  8.50000000E-01  8.50000000E-01  8.50000000E-01  8.50000000E-01
  8.50000000E-01  8.50000000E-01  8.50000000E-01  8.50000000E-01  8.50000000E-01
  8.50000000E-01  8.50000000E-01  8.50000000E-01  8.50000000E-01  8.50000000E-01
  8.50000000E-01  8.50000000E-01  8.50000000E-01  8.50000000E-01  8.50000000E-01
  8.50000000E-01  8.50000000E-01  8.50000000E-01  8.50000000E-01  8.50000000E-01
  8.50000000E-01  8.50000000E-01  8.50000000E-01  8.50000000E-01  8.50000000E-01
  8.50000000E-01  8.50000000E-01  8.50000000E-01  8.50000000E-01  8.50000000E-01
  8.50000000E-01  8.50000000E-01  8.50000000E-01  8.50000000E-01  8.50000000E-01
  8.50000000E-01  8.50000000E-01  8.50000000E-01  8.50000000E-01  8.50000000E-01
  8.50000000E-01  8.50000000E-01  8.50000000E-01  8.50000000E-01  8.50000000E-01
  8.50000000E-01  8.50000000E-01  8.50000000E-01  8.50000000E-01  8.50000000E-01
  8.50000000E-01  8.50000000E-01  8.50000000E-01  8.50000000E-01  8.50000000E-01
  8.50000000E-01  8.50000000E-01  8.50000000E-01  8.50000000E-01  8.50000000E-01
  8.50000000E-01  8.50000000E-01  8.50000000E-01  8.50000000E-01  8.50000000E-01
  8.50000000E-01  8.50000000E-01  8.50000000E-01  8.50000000E-01  8.50000000E-01
  8.50000000E-01  8.50000000E-01  8.50000000E-01  8.50000000E-01  8.50000000E-01
  8.50000000E-01  8.50000000E-01  8.50000000E-01  8.50000000E-01  8.50000000E-01
  8.50000000E-01  8.50000000E-01  8.50000000E-01  8.50000000E-01  8.50000000E-01
  8.50000000E-01  8.50000000E-01  8.50000000E-01  8.50000000E-01  8.50000000E-01
  8.50000000E-01  8.50000000E-01  8.50000000E-01  8.50000000E-01  8.50000000E-01
  8.50000000E-01  8.50000000E-01  8.50000000E-01  8.50000000E-01  8.50000000E-01
  8.50000000E-01  8.50000000E-01  8.50000000E-01  8.50000000E-01  8.50000000E-01
  8.50000000E-01  8.50000000E-01  8.50000000E-01  8.50000000E-01  8.50000000E-01
  8.50000000E-01  8.50000000E-01  8.50000000E-01  8.50000000E-01  8.50000000E-01
  8.50000000E-01  8.50000000E-01  8.50000000E-01  8.50000000E-01  8.50000000E-01
  8.50000000E-01  8.50000000E-01  8.50000000E-01  8.50000000E-01  8.50000000E-01
  8.50000000E-01  8.50000000E-01  8.50000000E-01  8.50000000E-01  8.50000000E-01
  8.50000000E-01  8.50000000E-01  8.50000000E-01  8.50000000E-01  8.50000000E-01
  8.50000000E-01  8.50000000E-01  8.50000000E-01  8.50000000E-01  8.50000000E-01
  8.50000000E-01  8.50000000E-01  8.50000000E-01  8.50000000E-01  8.50000000E-01
  8.50000000E-01  8.50000000E-01  8.50000000E-01  8.50000000E-01  8.50000000E-01
  8.50000000E-01  8.50000000E-01  8.50000000E-01  8.50000000E-01  8.50000000E-01
  8.50000000E-01  8.50000000E-01  8.50000000E-01  8.50000000E-01  8.50000000E-01
  8.50000000E-01  8.50000000E-01  8.50000000E-01  8.50000000E-01  8.50000000E-01
  8.50000000E-01  8.50000000E-01  8.50000000E-01  8.50000000E-01  8.50000000E-01
  8.50000000E-01  8.50000000E-01  8.50000000E-01  8.50000000E-01  8.50000000E-01
  8.50000000E-01  8.50000000E-01  8.50000000E-01  8.50000000E-01  8.50000000E-01
  8.50000000E-01  8.50000000E-01  8.50000000E-01  8.50000000E-01  8.50000000E-01
  8.50000000E-01  8.50000000E-01  8.50000000E-01  8.50000000E-01  8.50000000E-01
  8.50000000E-01  8.50000000E-01  8.50000000E-01  8.50000000E-01  8.50000000E-01
  8.50000000E-01  8.50000000E-01  8.50000000E-01  8.50000000E-01  8.50000000E-01
  8.50000000E-01  8.50000000E-01  8.50000000E-01  8.50000000E-01  8.50000000E-01
  8.50000000E-01  8.50000000E-01  8.50000000E-01  8.50000000E-01  8.50000000E-01
  8.50000000E-01  8.50000000E-01  8.50000000E-01  8.50000000E-01  8.50000000E-01
  8.50000000E-01  8.50000000E-01  8.50000000E-01  8.50000000E-01  8.50000000E-01
  8.50000000E-01  8.50000000E-01  8.50000000E-01  8.50000000E-01  8.50000000E-01
  8.50000000E-01  8.50000000E-01  8.50000000E-01  8.50000000E-01  8.50000000E-01
  8.50000000E-01  8.50000000E-01  8.50000000E-01  8.50000000E-01  8.50000000E-01
  8.50000000E-01  8.50000000E-01  8.50000000E-01  8.50000000E-01  8.50000000E-01
  8.50000000E-01  8.50000000E-01  8.50000000E-01  8.50000000E-01  8.50000000E-01
  8.50000000E-01  8.50000000E-01  8.50000000E-01  8.50000000E-01  8.50000000E-01
  8.50000000E-01  8.50000000E-01  8.50000000E-01  8.50000000E-01  8.50000000E-01
  8.50000000E-01  8.50000000E-01  8.50000000E-01  8.50000000E-01  8.50000000E-01
  8.50000000E-01  8.50000000E-01  8.50000000E-01  8.50000000E-01  8.50000000E-01
  8.50000000E-01  8.50000000E-01  8.50000000E-01  8.50000000E-01  8.50000000E-01
  8.50000000E-01  8.50000000E-01  8.50000000E-01  8.50000000E-01  8.50000000E-01
  8.50000000E-01  8.50000000E-01  8.50000000E-01  8.50000000E-01  8.50000000E-01
  8.50000000E-01  8.50000000E-01  8.50000000E-01  8.50000000E-01  8.50000000E-01
  8.50000000E-01  8.50000000E-01  8.50000000E-01  8.50000000E-01  8.50000000E-01
  8.50000000E-01  8.50000000E-01  8.50000000E-01  8.50000000E-01  8.50000000E-01
  8.50000000E-01  8.50000000E-01  8.50000000E-01  8.50000000E-01  8.50000000E-01
  8.50000000E-01  8.50000000E-01  8.50000000E-01  8.50000000E-01  8.50000000E-01
  8.50000000E-01  8.50000000E-01  8.50000000E-01  8.50000000E-01  8.50000000E-01
  8.50000000E-01  8.50000000E-01  8.50000000E-01  8.50000000E-01  8.50000000E-01
  8.50000000E-01  8.50000000E-01  8.50000000E-01  8.50000000E-01  8.50000000E-01
  8.50000000E-01  8.50000000E-01  8.50000000E-01  8.50000000E-01  8.50000000E-01
  8.50000000E-01  8.50000000E-01  8.50000000E-01  8.50000000E-01  8.50000000E-01
  8.50000000E-01  8.50000000E-01  8.50000000E-01  8.50000000E-01  8.50000000E-01
  8.50000000E-01  8.50000000E-01  8.50000000E-01  8.50000000E-01  8.50000000E-01
  8.50000000E-01  8.50000000E-01  8.50000000E-01  8.50000000E-01  8.50000000E-01
  8.50000000E-01  8.50000000E-01  8.50000000E-01  8.50000000E-01  8.50000000E-01
  8.50000000E-01  8.50000000E-01  8.50000000E-01  8.50000000E-01  8.50000000E-01
  8.50000000E-01  8.50000000E-01  8.50000000E-01  8.50000000E-01  8.50000000E-01
  8.50000000E-01  8.50000000E-01  8.50000000E-01  8.50000000E-01  8.50000000E-01
  8.50000000E-01  8.50000000E-01  8.50000000E-01  8.50000000E-01  8.50000000E-01
  8.50000000E-01  8.50000000E-01  8.50000000E-01  8.50000000E-01  8.50000000E-01
  8.50000000E-01  8.50000000E-01  8.50000000E-01  8.50000000E-01  8.50000000E-01
  8.50000000E-01  8.50000000E-01  8.50000000E-01  8.50000000E-01  8.50000000E-01
  8.50000000E-01  8.50000000E-01  8.50000000E-01  8.50000000E-01  8.50000000E-01
  8.50000000E-01  8.50000000E-01  8.50000000E-01  8.50000000E-01  8.50000000E-01
  8.50000000E-01  8.50000000E-01  8.50000000E-01  8.50000000E-01  8.50000000E-01
  8.50000000E-01  8.50000000E-01  8.50000000E-01  8.50000000E-01  8.50000000E-01
  8.50000000E-01  8.50000000E-01  8.50000000E-01  8.50000000E-01  8.50000000E-01
  8.50000000E-01  8.50000000E-01  8.50000000E-01  8.50000000E-01  8.50000000E-01
  8.50000000E-01  8.50000000E-01  8.50000000E-01  8.50000000E-01  8.50000000E-01
  8.50000000E-01  8.50000000E-01  8.50000000E-01  8.50000000E-01  8.50000000E-01
  8.50000000E-01  8.50000000E-01  8.50000000E-01  8.50000000E-01  8.50000000E-01
  8.50000000E-01  8.50000000E-01  8.50000000E-01  8.50000000E-01  8.50000000E-01
  8.50000000E-01  8.50000000E-01  8.50000000E-01  8.50000000E-01  8.50000000E-01
  8.50000000E-01  8.50000000E-01  8.50000000E-01  8.50000000E-01  8.50000000E-01
  8.50000000E-01  8.50000000E-01  8.50000000E-01  8.50000000E-01  8.50000000E-01
  8.50000000E-01  8.50000000E-01  8.50000000E-01  8.50000000E-01  8.50000000E-01
  8.50000000E-01  8.50000000E-01  8.50000000E-01  8.50000000E-01  8.50000000E-01
  8.50000000E-01  8.50000000E-01  8.50000000E-01  8.50000000E-01  8.50000000E-01
  8.50000000E-01  8.50000000E-01  8.50000000E-01  8.50000000E-01  8.50000000E-01
  8.50000000E-01  8.50000000E-01  8.50000000E-01  8.50000000E-01  8.50000000E-01
  8.50000000E-01  8.50000000E-01  8.50000000E-01  8.50000000E-01  8.50000000E-01
  8.50000000E-01  8.50000000E-01  8.50000000E-01  8.50000000E-01  8.50000000E-01
  8.50000000E-01  8.50000000E-01  8.50000000E-01  8.50000000E-01  8.50000000E-01
  8.50000000E-01  8.50000000E-01  8.50000000E-01  8.50000000E-01  8.50000000E-01
  8.50000000E-01  8.50000000E-01  8.50000000E-01  8.50000000E-01  8.50000000E-01
  8.50000000E-01  8.50000000E-01  8.50000000E-01  8.50000000E-01  8.50000000E-01
  8.50000000E-01  8.50000000E-01  8.50000000E-01  8.50000000E-01  8.50000000E-01
  8.50000000E-01  8.50000000E-01  8.50000000E-01  8.50000000E-01  8.50000000E-01
  8.50000000E-01  8.50000000E-01  8.50000000E-01  8.50000000E-01  8.50000000E-01
  8.50000000E-01  8.50000000E-01  8.50000000E-01  8.50000000E-01  8.50000000E-01
  8.50000000E-01  8.50000000E-01  8.50000000E-01  8.50000000E-01  8.50000000E-01
  8.50000000E-01  8.50000000E-01  8.50000000E-01  8.50000000E-01  8.50000000E-01
  8.50000000E-01  8.50000000E-01  8.50000000E-01  8.50000000E-01  8.50000000E-01
  8.50000000E-01  8.50000000E-01  8.50000000E-01  8.50000000E-01  8.50000000E-01
  8.50000000E-01  8.50000000E-01  8.50000000E-01  8.50000000E-01  8.50000000E-01
  8.50000000E-01  8.50000000E-01  8.50000000E-01  8.50000000E-01  8.50000000E-01
  8.50000000E-01  8.50000000E-01  8.50000000E-01  8.50000000E-01  8.50000000E-01
  8.50000000E-01  8.50000000E-01  8.50000000E-01  8.50000000E-01  8.50000000E-01
  8.50000000E-01  8.50000000E-01  8.50000000E-01  8.50000000E-01  8.50000000E-01
  8.50000000E-01  8.50000000E-01  8.50000000E-01  8.50000000E-01  8.50000000E-01
  8.50000000E-01  8.50000000E-01  8.50000000E-01  8.50000000E-01  8.50000000E-01
  8.50000000E-01  8.50000000E-01  8.50000000E-01  8.50000000E-01  8.50000000E-01
  8.50000000E-01  8.50000000E-01  8.50000000E-01  8.50000000E-01  8.50000000E-01
  8.50000000E-01  8.50000000E-01  8.50000000E-01  8.50000000E-01  8.50000000E-01
  8.50000000E-01  8.50000000E-01  8.50000000E-01  8.50000000E-01  8.50000000E-01
  8.50000000E-01  8.50000000E-01  8.50000000E-01  8.50000000E-01  8.50000000E-01
  8.50000000E-01  8.50000000E-01  8.50000000E-01  8.50000000E-01  8.50000000E-01
  8.50000000E-01  8.50000000E-01  8.50000000E-01  8.50000000E-01  8.50000000E-01
  8.50000000E-01  8.50000000E-01  8.50000000E-01  8.50000000E-01  8.50000000E-01
  8.50000000E-01  8.50000000E-01  8.50000000E-01  8.50000000E-01  8.50000000E-01
  8.50000000E-01  8.50000000E-01  8.50000000E-01  8.50000000E-01  8.50000000E-01
  8.50000000E-01  8.50000000E-01  8.50000000E-01  8.50000000E-01  8.50000000E-01
  8.50000000E-01  8.50000000E-01  8.50000000E-01  8.50000000E-01  8.50000000E-01
  8.50000000E-01  8.50000000E-01  8.50000000E-01  8.50000000E-01  8.50000000E-01
  8.50000000E-01  8.50000000E-01  8.50000000E-01  8.50000000E-01  8.50000000E-01
  8.50000000E-01  8.50000000E-01  8.50000000E-01  8.50000000E-01  8.50000000E-01
  8.50000000E-01  8.50000000E-01  8.50000000E-01  8.50000000E-01  8.50000000E-01
  8.50000000E-01  8.50000000E-01  8.50000000E-01  8.50000000E-01  8.50000000E-01
  8.50000000E-01  8.50000000E-01  8.50000000E-01  8.50000000E-01  8.50000000E-01
  8.50000000E-01  8.50000000E-01  8.50000000E-01  8.50000000E-01  8.50000000E-01
  8.50000000E-01  8.50000000E-01  8.50000000E-01  8.50000000E-01  8.50000000E-01
  8.50000000E-01  8.50000000E-01  8.50000000E-01  8.50000000E-01  8.50000000E-01
  8.50000000E-01  8.50000000E-01  8.50000000E-01  8.50000000E-01  8.50000000E-01
  8.50000000E-01  8.50000000E-01  8.50000000E-01  8.50000000E-01  8.50000000E-01
  8.50000000E-01  8.50000000E-01  8.50000000E-01  8.50000000E-01  8.50000000E-01
  8.50000000E-01  8.50000000E-01  8.50000000E-01  8.50000000E-01  8.50000000E-01
  8.50000000E-01  8.50000000E-01  8.50000000E-01  8.50000000E-01  8.50000000E-01
  8.50000000E-01  8.50000000E-01  8.50000000E-01  8.50000000E-01  8.50000000E-01
  8.50000000E-01  8.50000000E-01  8.50000000E-01  8.50000000E-01  8.50000000E-01
  8.50000000E-01  8.50000000E-01  8.50000000E-01  8.50000000E-01  8.50000000E-01
  8.50000000E-01  8.50000000E-01  8.50000000E-01  8.50000000E-01  8.50000000E-01
  8.50000000E-01  8.50000000E-01  8.50000000E-01  8.50000000E-01  8.50000000E-01
  8.50000000E-01  8.50000000E-01  8.50000000E-01  8.50000000E-01  8.50000000E-01
  8.50000000E-01  8.50000000E-01  8.50000000E-01  8.50000000E-01  8.50000000E-01
  8.50000000E-01  8.50000000E-01  8.50000000E-01  8.50000000E-01  8.50000000E-01
  8.50000000E-01  8.50000000E-01  8.50000000E-01  8.50000000E-01  8.50000000E-01
  8.50000000E-01  8.50000000E-01  8.50000000E-01  8.50000000E-01  8.50000000E-01
  8.50000000E-01  8.50000000E-01  8.50000000E-01  8.50000000E-01  8.50000000E-01
  8.50000000E-01  8.50000000E-01  8.50000000E-01  8.50000000E-01  8.50000000E-01
  8.50000000E-01  8.50000000E-01  8.50000000E-01  8.50000000E-01  8.50000000E-01
  8.50000000E-01  8.50000000E-01  8.50000000E-01  8.50000000E-01  8.50000000E-01
  8.50000000E-01  8.50000000E-01  8.50000000E-01  8.50000000E-01  8.50000000E-01
  8.50000000E-01  8.50000000E-01  8.50000000E-01  8.50000000E-01  8.50000000E-01
  8.50000000E-01  8.50000000E-01  8.50000000E-01  8.50000000E-01  8.50000000E-01
  8.50000000E-01  8.50000000E-01  8.50000000E-01  8.50000000E-01  8.50000000E-01
  8.50000000E-01  8.50000000E-01  8.50000000E-01  8.50000000E-01  8.50000000E-01
  8.50000000E-01  8.50000000E-01  8.50000000E-01  8.50000000E-01  8.50000000E-01
  8.50000000E-01  8.50000000E-01  8.50000000E-01  8.50000000E-01  8.50000000E-01
  8.50000000E-01  8.50000000E-01  8.50000000E-01  8.50000000E-01  8.50000000E-01
  8.50000000E-01  8.50000000E-01  8.50000000E-01  8.50000000E-01  8.50000000E-01
  8.50000000E-01  8.50000000E-01  8.50000000E-01  8.50000000E-01  8.50000000E-01
  8.50000000E-01  8.50000000E-01  8.50000000E-01  8.50000000E-01  8.50000000E-01
  8.50000000E-01  8.50000000E-01  8.50000000E-01  8.50000000E-01  8.50000000E-01
  8.50000000E-01  8.50000000E-01  8.50000000E-01  8.50000000E-01  8.50000000E-01
  8.50000000E-01  8.50000000E-01  8.50000000E-01  8.50000000E-01  8.50000000E-01
  8.50000000E-01  8.50000000E-01  8.50000000E-01  8.50000000E-01  8.50000000E-01
  8.50000000E-01  8.50000000E-01  8.50000000E-01  8.50000000E-01  8.50000000E-01
  8.50000000E-01  8.50000000E-01  8.50000000E-01  8.50000000E-01  8.50000000E-01
  8.50000000E-01  8.50000000E-01  8.50000000E-01  8.50000000E-01  8.50000000E-01
  8.50000000E-01  8.50000000E-01  8.50000000E-01  8.50000000E-01  8.50000000E-01
  8.50000000E-01  8.50000000E-01  8.50000000E-01  8.50000000E-01  8.50000000E-01
  8.50000000E-01  8.50000000E-01  8.50000000E-01  8.50000000E-01  8.50000000E-01
  8.50000000E-01  8.50000000E-01  8.50000000E-01  8.50000000E-01  8.50000000E-01
  8.50000000E-01  8.50000000E-01  8.50000000E-01  8.50000000E-01  8.50000000E-01
  8.50000000E-01  8.50000000E-01  8.50000000E-01  8.50000000E-01  8.50000000E-01
  8.50000000E-01  8.50000000E-01  8.50000000E-01  8.50000000E-01  8.50000000E-01
  8.50000000E-01  8.50000000E-01  8.50000000E-01  8.50000000E-01  8.50000000E-01
  8.50000000E-01  8.50000000E-01  8.50000000E-01  8.50000000E-01  8.50000000E-01
  8.50000000E-01  8.50000000E-01  8.50000000E-01  8.50000000E-01  8.50000000E-01
  8.50000000E-01  8.50000000E-01  8.50000000E-01  8.50000000E-01  8.50000000E-01
  8.50000000E-01  8.50000000E-01  8.50000000E-01  8.50000000E-01  8.50000000E-01
  8.50000000E-01  8.50000000E-01  8.50000000E-01  8.50000000E-01  8.50000000E-01
  8.50000000E-01  8.50000000E-01  8.50000000E-01  8.50000000E-01  8.50000000E-01
  8.50000000E-01  8.50000000E-01  8.50000000E-01  8.50000000E-01  8.50000000E-01
  8.50000000E-01  8.50000000E-01  8.50000000E-01  8.50000000E-01  8.50000000E-01
  8.50000000E-01  8.50000000E-01  8.50000000E-01  8.50000000E-01  8.50000000E-01
  8.50000000E-01  8.50000000E-01  8.50000000E-01  8.50000000E-01  8.50000000E-01
  8.50000000E-01  8.50000000E-01  8.50000000E-01  8.50000000E-01  8.50000000E-01
  8.50000000E-01  8.50000000E-01  8.50000000E-01  8.50000000E-01  8.50000000E-01
  8.50000000E-01  8.50000000E-01  8.50000000E-01  8.50000000E-01  8.50000000E-01
  8.50000000E-01  8.50000000E-01  8.50000000E-01  8.50000000E-01  8.50000000E-01
  8.50000000E-01  8.50000000E-01  8.50000000E-01  8.50000000E-01  8.50000000E-01
  8.50000000E-01  8.50000000E-01  8.50000000E-01  8.50000000E-01  8.50000000E-01
  8.50000000E-01  8.50000000E-01  8.50000000E-01  8.50000000E-01  8.50000000E-01
  8.50000000E-01  8.50000000E-01  8.50000000E-01  8.50000000E-01  8.50000000E-01
  8.50000000E-01  8.50000000E-01  8.50000000E-01  8.50000000E-01  8.50000000E-01
  8.50000000E-01  8.50000000E-01  8.50000000E-01  8.50000000E-01  8.50000000E-01
  8.50000000E-01  8.50000000E-01  8.50000000E-01  8.50000000E-01  8.50000000E-01
  8.50000000E-01  8.50000000E-01  8.50000000E-01  8.50000000E-01  8.50000000E-01
  8.50000000E-01  8.50000000E-01  8.50000000E-01  8.50000000E-01  8.50000000E-01
  8.50000000E-01  8.50000000E-01  8.50000000E-01  8.50000000E-01  8.50000000E-01
  8.50000000E-01  8.50000000E-01  8.50000000E-01  8.50000000E-01  8.50000000E-01
  8.50000000E-01  8.50000000E-01  8.50000000E-01  8.50000000E-01  8.50000000E-01
  8.50000000E-01  8.50000000E-01  8.50000000E-01  8.50000000E-01  8.50000000E-01
  8.50000000E-01  8.50000000E-01  8.50000000E-01  8.50000000E-01  8.50000000E-01
  8.50000000E-01  8.50000000E-01  8.50000000E-01  8.50000000E-01  8.50000000E-01
  8.50000000E-01  8.50000000E-01  8.50000000E-01  8.50000000E-01  8.50000000E-01
  8.50000000E-01  8.50000000E-01  8.50000000E-01  8.50000000E-01  8.50000000E-01
  8.50000000E-01  8.50000000E-01  8.50000000E-01  8.50000000E-01  8.50000000E-01
  8.50000000E-01  8.50000000E-01  8.50000000E-01  8.50000000E-01  8.50000000E-01
  8.50000000E-01  8.50000000E-01  8.50000000E-01  8.50000000E-01  8.50000000E-01
  8.50000000E-01  8.50000000E-01  8.50000000E-01  8.50000000E-01  8.50000000E-01
  8.50000000E-01  8.50000000E-01  8.50000000E-01  8.50000000E-01  8.50000000E-01
  8.50000000E-01  8.50000000E-01  8.50000000E-01  8.50000000E-01  8.50000000E-01
  8.50000000E-01  8.50000000E-01  8.50000000E-01  8.50000000E-01  8.50000000E-01
  8.50000000E-01  8.50000000E-01  8.50000000E-01  8.50000000E-01  8.50000000E-01
  8.50000000E-01  8.50000000E-01  8.50000000E-01  8.50000000E-01  8.50000000E-01
  8.50000000E-01  8.50000000E-01  8.50000000E-01  8.50000000E-01  8.50000000E-01
  8.50000000E-01  8.50000000E-01  8.50000000E-01  8.50000000E-01  8.50000000E-01
  8.50000000E-01  8.50000000E-01  8.50000000E-01  8.50000000E-01  8.50000000E-01
  8.50000000E-01  8.50000000E-01  8.50000000E-01  8.50000000E-01  8.50000000E-01
  8.50000000E-01  8.50000000E-01  8.50000000E-01  8.50000000E-01  8.50000000E-01
  8.50000000E-01  8.50000000E-01  8.50000000E-01  8.50000000E-01  8.50000000E-01
  8.50000000E-01  8.50000000E-01  8.50000000E-01  8.50000000E-01  8.50000000E-01
  8.50000000E-01  8.50000000E-01  8.50000000E-01  8.50000000E-01  8.50000000E-01
  8.50000000E-01  8.50000000E-01  8.50000000E-01  8.50000000E-01  8.50000000E-01
  8.50000000E-01  8.50000000E-01  8.50000000E-01  8.50000000E-01  8.50000000E-01
  8.50000000E-01  8.50000000E-01  8.50000000E-01  8.50000000E-01  8.50000000E-01
  8.50000000E-01  8.50000000E-01  8.50000000E-01  8.50000000E-01  8.50000000E-01
  8.50000000E-01  8.50000000E-01  8.50000000E-01  8.50000000E-01  8.50000000E-01
  8.50000000E-01  8.50000000E-01  8.50000000E-01  8.50000000E-01  8.50000000E-01
  8.50000000E-01  8.50000000E-01  8.50000000E-01  8.50000000E-01  8.50000000E-01
  8.50000000E-01  8.50000000E-01  8.50000000E-01  8.50000000E-01  8.50000000E-01
  8.50000000E-01  8.50000000E-01  8.50000000E-01  8.50000000E-01  8.50000000E-01
  8.50000000E-01  8.50000000E-01  8.50000000E-01  8.50000000E-01  8.50000000E-01
  8.50000000E-01  8.50000000E-01  8.50000000E-01  8.50000000E-01  8.50000000E-01
  8.50000000E-01  8.50000000E-01  8.50000000E-01  8.50000000E-01  8.50000000E-01
  8.50000000E-01  8.50000000E-01  8.50000000E-01  8.50000000E-01  8.50000000E-01
  8.50000000E-01  8.50000000E-01  8.50000000E-01  8.50000000E-01  8.50000000E-01
  8.50000000E-01  8.50000000E-01  8.50000000E-01  8.50000000E-01  8.50000000E-01
  8.50000000E-01  8.50000000E-01  8.50000000E-01  8.50000000E-01  8.50000000E-01
  8.50000000E-01  8.50000000E-01  8.50000000E-01  8.50000000E-01  8.50000000E-01
  8.50000000E-01  8.50000000E-01  8.50000000E-01  8.50000000E-01  8.50000000E-01
  8.50000000E-01  8.50000000E-01  8.50000000E-01  8.50000000E-01  8.50000000E-01
  8.50000000E-01  8.50000000E-01  8.50000000E-01  8.50000000E-01  8.50000000E-01
  8.50000000E-01  8.50000000E-01  8.50000000E-01  8.50000000E-01  8.50000000E-01
  8.50000000E-01  8.50000000E-01  8.50000000E-01  8.50000000E-01  8.50000000E-01
  8.50000000E-01  8.50000000E-01  8.50000000E-01  8.50000000E-01  8.50000000E-01
  8.50000000E-01  8.50000000E-01  8.50000000E-01  8.50000000E-01  8.50000000E-01
  8.50000000E-01  8.50000000E-01  8.50000000E-01  8.50000000E-01  8.50000000E-01
  8.50000000E-01  8.50000000E-01  8.50000000E-01  8.50000000E-01  8.50000000E-01
  8.50000000E-01  8.50000000E-01  8.50000000E-01  8.50000000E-01  8.50000000E-01
  8.50000000E-01  8.50000000E-01  8.50000000E-01  8.50000000E-01  8.50000000E-01
  8.50000000E-01  8.50000000E-01  8.50000000E-01  8.50000000E-01  8.50000000E-01
  8.50000000E-01  8.50000000E-01  8.50000000E-01  8.50000000E-01  8.50000000E-01
  8.50000000E-01  8.50000000E-01  8.50000000E-01  8.50000000E-01  8.50000000E-01
  8.50000000E-01  8.50000000E-01  8.50000000E-01  8.50000000E-01  8.50000000E-01
  8.50000000E-01  8.50000000E-01  8.50000000E-01  8.50000000E-01  8.50000000E-01
  8.50000000E-01  8.50000000E-01  8.50000000E-01  8.50000000E-01  8.50000000E-01
  8.50000000E-01  8.50000000E-01  8.50000000E-01  8.50000000E-01  8.50000000E-01
  8.50000000E-01  8.50000000E-01  8.50000000E-01  8.50000000E-01  8.50000000E-01
  8.50000000E-01  8.50000000E-01  8.50000000E-01  8.50000000E-01  8.50000000E-01
  8.50000000E-01  8.50000000E-01  8.50000000E-01  8.50000000E-01  8.50000000E-01
  8.50000000E-01  8.50000000E-01  8.50000000E-01  8.50000000E-01  8.50000000E-01
  8.50000000E-01  8.50000000E-01  8.50000000E-01  8.50000000E-01  8.50000000E-01
  8.50000000E-01  8.50000000E-01  8.50000000E-01  8.50000000E-01  8.50000000E-01
  8.50000000E-01  8.50000000E-01  8.50000000E-01  8.50000000E-01  8.50000000E-01
  8.50000000E-01  8.50000000E-01  8.50000000E-01  8.50000000E-01  8.50000000E-01
  8.50000000E-01  8.50000000E-01  8.50000000E-01  8.50000000E-01  8.50000000E-01
  8.50000000E-01  8.50000000E-01  8.50000000E-01  8.50000000E-01  8.50000000E-01
  8.50000000E-01  8.50000000E-01  8.50000000E-01  8.50000000E-01  8.50000000E-01
  8.50000000E-01  8.50000000E-01  8.50000000E-01  8.50000000E-01  8.50000000E-01
  8.50000000E-01  8.50000000E-01  8.50000000E-01  8.50000000E-01  8.50000000E-01
  8.50000000E-01  8.50000000E-01  8.50000000E-01  8.50000000E-01  8.50000000E-01
  8.50000000E-01  8.50000000E-01  8.50000000E-01  8.50000000E-01  8.50000000E-01
  8.50000000E-01  8.50000000E-01  8.50000000E-01  8.50000000E-01  8.50000000E-01
  8.50000000E-01  8.50000000E-01  8.50000000E-01  8.50000000E-01  8.50000000E-01
  8.50000000E-01  8.50000000E-01  8.50000000E-01  8.50000000E-01  8.50000000E-01
  8.50000000E-01  8.50000000E-01  8.50000000E-01  8.50000000E-01  8.50000000E-01
  8.50000000E-01  8.50000000E-01  8.50000000E-01  8.50000000E-01  8.50000000E-01
  8.50000000E-01  8.50000000E-01  8.50000000E-01  8.50000000E-01  8.50000000E-01
  8.50000000E-01  8.50000000E-01  8.50000000E-01  8.50000000E-01  8.50000000E-01
  8.50000000E-01  8.50000000E-01  8.50000000E-01  8.50000000E-01  8.50000000E-01
  8.50000000E-01  8.50000000E-01  8.50000000E-01  8.50000000E-01  8.50000000E-01
  8.50000000E-01  8.50000000E-01  8.50000000E-01  8.50000000E-01  8.50000000E-01
  8.50000000E-01  8.50000000E-01  8.50000000E-01  8.50000000E-01  8.50000000E-01
  8.50000000E-01  8.50000000E-01  8.50000000E-01  8.50000000E-01  8.50000000E-01
  8.50000000E-01  8.50000000E-01  8.50000000E-01  8.50000000E-01  8.50000000E-01
  8.50000000E-01  8.50000000E-01  8.50000000E-01  8.50000000E-01  8.50000000E-01
  8.50000000E-01  8.50000000E-01  8.50000000E-01  8.50000000E-01  8.50000000E-01
  8.50000000E-01  8.50000000E-01  8.50000000E-01  8.50000000E-01  8.50000000E-01
  8.50000000E-01  8.50000000E-01  8.50000000E-01  8.50000000E-01  8.50000000E-01
  8.50000000E-01  8.50000000E-01  8.50000000E-01  8.50000000E-01  8.50000000E-01
  8.50000000E-01  8.50000000E-01  8.50000000E-01  8.50000000E-01  8.50000000E-01
  8.50000000E-01  8.50000000E-01  8.50000000E-01  8.50000000E-01  8.50000000E-01
  8.50000000E-01  8.50000000E-01  8.50000000E-01  8.50000000E-01  8.50000000E-01
  8.50000000E-01  8.50000000E-01  8.50000000E-01  8.50000000E-01  8.50000000E-01
  8.50000000E-01  8.50000000E-01  8.50000000E-01  8.50000000E-01  8.50000000E-01
  8.50000000E-01  8.50000000E-01  8.50000000E-01  8.50000000E-01  8.50000000E-01
  8.50000000E-01  8.50000000E-01  8.50000000E-01  8.50000000E-01  8.50000000E-01
  8.50000000E-01  8.50000000E-01  8.50000000E-01  8.50000000E-01  8.50000000E-01
  8.50000000E-01  8.50000000E-01  8.50000000E-01  8.50000000E-01  8.50000000E-01
  8.50000000E-01  8.50000000E-01  8.50000000E-01  8.50000000E-01  8.50000000E-01
  8.50000000E-01  8.50000000E-01  8.50000000E-01  8.50000000E-01  8.50000000E-01
  8.50000000E-01  8.50000000E-01  8.50000000E-01  8.50000000E-01  8.50000000E-01
  8.50000000E-01  8.50000000E-01  8.50000000E-01  8.50000000E-01  8.50000000E-01
  8.50000000E-01  8.50000000E-01  8.50000000E-01  8.50000000E-01  8.50000000E-01
  8.50000000E-01  8.50000000E-01  8.50000000E-01  8.50000000E-01  8.50000000E-01
  8.50000000E-01  8.50000000E-01  8.50000000E-01  8.50000000E-01  8.50000000E-01
  8.50000000E-01  8.50000000E-01  8.50000000E-01  8.50000000E-01  8.50000000E-01
  8.50000000E-01  8.50000000E-01  8.50000000E-01  8.50000000E-01  8.50000000E-01
  8.50000000E-01  8.50000000E-01  8.50000000E-01  8.50000000E-01  8.50000000E-01
  8.50000000E-01  8.50000000E-01  8.50000000E-01  8.50000000E-01  8.50000000E-01
  8.50000000E-01  8.50000000E-01  8.50000000E-01  8.50000000E-01  8.50000000E-01
  8.50000000E-01  8.50000000E-01  8.50000000E-01  8.50000000E-01  8.50000000E-01
  8.50000000E-01  8.50000000E-01  8.50000000E-01  8.50000000E-01  8.50000000E-01
  8.50000000E-01  8.50000000E-01  8.50000000E-01  8.50000000E-01  8.50000000E-01
  8.50000000E-01  8.50000000E-01  8.50000000E-01  8.50000000E-01  8.50000000E-01
  8.50000000E-01  8.50000000E-01  8.50000000E-01  8.50000000E-01  8.50000000E-01
  8.50000000E-01  8.50000000E-01  8.50000000E-01  8.50000000E-01  8.50000000E-01
  8.50000000E-01  8.50000000E-01  8.50000000E-01  8.50000000E-01  8.50000000E-01
  8.50000000E-01  8.50000000E-01  8.50000000E-01  8.50000000E-01  8.50000000E-01
  8.50000000E-01  8.50000000E-01  8.50000000E-01  8.50000000E-01  8.50000000E-01
  8.50000000E-01  8.50000000E-01  8.50000000E-01  8.50000000E-01  8.50000000E-01
  8.50000000E-01  8.50000000E-01  8.50000000E-01  8.50000000E-01  8.50000000E-01
  8.50000000E-01  8.50000000E-01  8.50000000E-01  8.50000000E-01  8.50000000E-01
  8.50000000E-01  8.50000000E-01  8.50000000E-01  8.50000000E-01  8.50000000E-01
  8.50000000E-01  8.50000000E-01  8.50000000E-01  8.50000000E-01  8.50000000E-01
  8.50000000E-01  8.50000000E-01  8.50000000E-01  8.50000000E-01  8.50000000E-01
  8.50000000E-01  8.50000000E-01  8.50000000E-01  8.50000000E-01  8.50000000E-01
  8.50000000E-01  8.50000000E-01  8.50000000E-01  8.50000000E-01  8.50000000E-01
  8.50000000E-01  8.50000000E-01  8.50000000E-01  8.50000000E-01  8.50000000E-01
  8.50000000E-01  8.50000000E-01  8.50000000E-01  8.50000000E-01  8.50000000E-01
  8.50000000E-01  8.50000000E-01  8.50000000E-01  8.50000000E-01  8.50000000E-01
  8.50000000E-01  8.50000000E-01  8.50000000E-01  8.50000000E-01  8.50000000E-01
  8.50000000E-01  8.50000000E-01  8.50000000E-01  8.50000000E-01  8.50000000E-01
  8.50000000E-01  8.50000000E-01  8.50000000E-01  8.50000000E-01  8.50000000E-01
  8.50000000E-01  8.50000000E-01  8.50000000E-01  8.50000000E-01  8.50000000E-01
  8.50000000E-01  8.50000000E-01  8.50000000E-01  8.50000000E-01  8.50000000E-01
  8.50000000E-01  8.50000000E-01  8.50000000E-01  8.50000000E-01  8.50000000E-01
  8.50000000E-01  8.50000000E-01  8.50000000E-01  8.50000000E-01  8.50000000E-01
  8.50000000E-01  8.50000000E-01  8.50000000E-01  8.50000000E-01  8.50000000E-01
  8.50000000E-01  8.50000000E-01  8.50000000E-01  8.50000000E-01  8.50000000E-01
  8.50000000E-01  8.50000000E-01  8.50000000E-01  8.50000000E-01  8.50000000E-01
  8.50000000E-01  8.50000000E-01  8.50000000E-01  8.50000000E-01  8.50000000E-01
  8.50000000E-01  8.50000000E-01  8.50000000E-01  8.50000000E-01  8.50000000E-01
  8.50000000E-01  8.50000000E-01  8.50000000E-01  8.50000000E-01  8.50000000E-01
  8.50000000E-01  8.50000000E-01  8.50000000E-01  8.50000000E-01  8.50000000E-01
  8.50000000E-01  8.50000000E-01  8.50000000E-01  8.50000000E-01  8.50000000E-01
  8.50000000E-01  8.50000000E-01  8.50000000E-01  8.50000000E-01  8.50000000E-01
  8.50000000E-01  8.50000000E-01  8.50000000E-01  8.50000000E-01  8.50000000E-01
  8.50000000E-01  8.50000000E-01  8.50000000E-01  8.50000000E-01  8.50000000E-01
  8.50000000E-01  8.50000000E-01  8.50000000E-01  8.50000000E-01  8.50000000E-01
  8.50000000E-01  8.50000000E-01  8.50000000E-01  8.50000000E-01  8.50000000E-01
  8.50000000E-01  8.50000000E-01  8.50000000E-01  8.50000000E-01  8.50000000E-01
  8.50000000E-01  8.50000000E-01  8.50000000E-01  8.50000000E-01  8.50000000E-01
  8.50000000E-01  8.50000000E-01  8.50000000E-01  8.50000000E-01  8.50000000E-01
  8.50000000E-01  8.50000000E-01  8.50000000E-01  8.50000000E-01  8.50000000E-01
  8.50000000E-01  8.50000000E-01  8.50000000E-01  8.50000000E-01  8.50000000E-01
  8.50000000E-01  8.50000000E-01  8.50000000E-01  8.50000000E-01  8.50000000E-01
  8.50000000E-01  8.50000000E-01  8.50000000E-01  8.50000000E-01  8.50000000E-01
  8.50000000E-01  8.50000000E-01  8.50000000E-01  8.50000000E-01  8.50000000E-01
  8.50000000E-01  8.50000000E-01  8.50000000E-01  8.50000000E-01  8.50000000E-01
  8.50000000E-01  8.50000000E-01  8.50000000E-01  8.50000000E-01  8.50000000E-01
  8.50000000E-01  8.50000000E-01  8.50000000E-01  8.50000000E-01  8.50000000E-01
  8.50000000E-01  8.50000000E-01  8.50000000E-01  8.50000000E-01  8.50000000E-01
  8.50000000E-01  8.50000000E-01  8.50000000E-01  8.50000000E-01  8.50000000E-01
  8.50000000E-01  8.50000000E-01  8.50000000E-01  8.50000000E-01  8.50000000E-01
  8.50000000E-01  8.50000000E-01  8.50000000E-01  8.50000000E-01  8.50000000E-01
  8.50000000E-01  8.50000000E-01  8.50000000E-01  8.50000000E-01  8.50000000E-01
  8.50000000E-01  8.50000000E-01  8.50000000E-01  8.50000000E-01  8.50000000E-01
  8.50000000E-01  8.50000000E-01  8.50000000E-01  8.50000000E-01  8.50000000E-01
  8.50000000E-01  8.50000000E-01  8.50000000E-01  8.50000000E-01  8.50000000E-01
  8.50000000E-01  8.50000000E-01  8.50000000E-01  8.50000000E-01  8.50000000E-01
  8.50000000E-01  8.50000000E-01  8.50000000E-01  8.50000000E-01  8.50000000E-01
  8.50000000E-01  8.50000000E-01  8.50000000E-01  8.50000000E-01  8.50000000E-01
  8.50000000E-01  8.50000000E-01  8.50000000E-01  8.50000000E-01  8.50000000E-01
  8.50000000E-01  8.50000000E-01  8.50000000E-01  8.50000000E-01  8.50000000E-01
  8.50000000E-01  8.50000000E-01  8.50000000E-01  8.50000000E-01  8.50000000E-01
  8.50000000E-01  8.50000000E-01  8.50000000E-01  8.50000000E-01  8.50000000E-01
  8.50000000E-01  8.50000000E-01  8.50000000E-01  8.50000000E-01  8.50000000E-01
  8.50000000E-01  8.50000000E-01  8.50000000E-01  8.50000000E-01  8.50000000E-01
  8.50000000E-01  8.50000000E-01  8.50000000E-01  8.50000000E-01  8.50000000E-01
  8.50000000E-01  8.50000000E-01  8.50000000E-01  8.50000000E-01  8.50000000E-01
  8.50000000E-01  8.50000000E-01  8.50000000E-01  8.50000000E-01  8.50000000E-01
  8.50000000E-01  8.50000000E-01  8.50000000E-01  8.50000000E-01  8.50000000E-01
  8.50000000E-01  8.50000000E-01  8.50000000E-01  8.50000000E-01  8.50000000E-01
  8.50000000E-01  8.50000000E-01  8.50000000E-01  8.50000000E-01  8.50000000E-01
  8.50000000E-01  8.50000000E-01  8.50000000E-01  8.50000000E-01  8.50000000E-01
  8.50000000E-01  8.50000000E-01  8.50000000E-01  8.50000000E-01  8.50000000E-01
  8.50000000E-01  8.50000000E-01  8.50000000E-01  8.50000000E-01  8.50000000E-01
  8.50000000E-01  8.50000000E-01  8.50000000E-01  8.50000000E-01  8.50000000E-01
  8.50000000E-01  8.50000000E-01  8.50000000E-01  8.50000000E-01  8.50000000E-01
  8.50000000E-01  8.50000000E-01  8.50000000E-01  8.50000000E-01  8.50000000E-01
  8.50000000E-01  8.50000000E-01  8.50000000E-01  8.50000000E-01  8.50000000E-01
  8.50000000E-01  8.50000000E-01  8.50000000E-01  8.50000000E-01  8.50000000E-01
  8.50000000E-01  8.50000000E-01  8.50000000E-01  8.50000000E-01  8.50000000E-01
  8.50000000E-01  8.50000000E-01  8.50000000E-01  8.50000000E-01  8.50000000E-01
  8.50000000E-01  8.50000000E-01  8.50000000E-01  8.50000000E-01  8.50000000E-01
  8.50000000E-01  8.50000000E-01  8.50000000E-01  8.50000000E-01  8.50000000E-01
  8.50000000E-01  8.50000000E-01  8.50000000E-01  8.50000000E-01  8.50000000E-01
  8.50000000E-01  8.50000000E-01  8.50000000E-01  8.50000000E-01  8.50000000E-01
  8.50000000E-01  8.50000000E-01  8.50000000E-01  8.50000000E-01  8.50000000E-01
  8.50000000E-01  8.50000000E-01  8.50000000E-01  8.50000000E-01  8.50000000E-01
  8.50000000E-01  8.50000000E-01  8.50000000E-01  8.50000000E-01  8.50000000E-01
  8.50000000E-01  8.50000000E-01  8.50000000E-01  8.50000000E-01  8.50000000E-01
  8.50000000E-01  8.50000000E-01  8.50000000E-01  8.50000000E-01  8.50000000E-01
  8.50000000E-01  8.50000000E-01  8.50000000E-01  8.50000000E-01  8.50000000E-01
  8.50000000E-01  8.50000000E-01  8.50000000E-01  8.50000000E-01  8.50000000E-01
  8.50000000E-01  8.50000000E-01  8.50000000E-01  8.50000000E-01  8.50000000E-01
  8.50000000E-01  8.50000000E-01  8.50000000E-01  8.50000000E-01  8.50000000E-01
  8.50000000E-01  8.50000000E-01  8.50000000E-01  8.50000000E-01  8.50000000E-01
  8.50000000E-01  8.50000000E-01  8.50000000E-01  8.50000000E-01  8.50000000E-01
  8.50000000E-01  8.50000000E-01  8.50000000E-01  8.50000000E-01  8.50000000E-01
  8.50000000E-01  8.50000000E-01  8.50000000E-01  8.50000000E-01  8.50000000E-01
  8.50000000E-01  8.50000000E-01  8.50000000E-01  8.50000000E-01  8.50000000E-01
  8.50000000E-01  8.50000000E-01  8.50000000E-01  8.50000000E-01  8.50000000E-01
  8.50000000E-01  8.50000000E-01  8.50000000E-01  8.50000000E-01  8.50000000E-01
  8.50000000E-01  8.50000000E-01  8.50000000E-01  8.50000000E-01  8.50000000E-01
  8.50000000E-01  8.50000000E-01  8.50000000E-01  8.50000000E-01  8.50000000E-01
  8.50000000E-01  8.50000000E-01  8.50000000E-01  8.50000000E-01  8.50000000E-01
  8.50000000E-01  8.50000000E-01  8.50000000E-01  8.50000000E-01  8.50000000E-01
  8.50000000E-01  8.50000000E-01  8.50000000E-01  8.50000000E-01  8.50000000E-01
  8.50000000E-01  8.50000000E-01  8.50000000E-01  8.50000000E-01  8.50000000E-01
  8.50000000E-01  8.50000000E-01  8.50000000E-01  8.50000000E-01  8.50000000E-01
  8.50000000E-01  8.50000000E-01  8.50000000E-01  8.50000000E-01  8.50000000E-01
  8.50000000E-01  8.50000000E-01  8.50000000E-01  8.50000000E-01  8.50000000E-01
  8.50000000E-01  8.50000000E-01  8.50000000E-01  8.50000000E-01  8.50000000E-01
  8.50000000E-01  8.50000000E-01  8.50000000E-01  8.50000000E-01  8.50000000E-01
  8.50000000E-01  8.50000000E-01  8.50000000E-01  8.50000000E-01  8.50000000E-01
  8.50000000E-01  8.50000000E-01  8.50000000E-01  8.50000000E-01  8.50000000E-01
  8.50000000E-01  8.50000000E-01  8.50000000E-01  8.50000000E-01  8.50000000E-01
  8.50000000E-01  8.50000000E-01  8.50000000E-01  8.50000000E-01  8.50000000E-01
  8.50000000E-01  8.50000000E-01  8.50000000E-01  8.50000000E-01  8.50000000E-01
  8.50000000E-01  8.50000000E-01  8.50000000E-01  8.50000000E-01  8.50000000E-01
  8.50000000E-01  8.50000000E-01  8.50000000E-01  8.50000000E-01  8.50000000E-01
  8.50000000E-01  8.50000000E-01  8.50000000E-01  8.50000000E-01  8.50000000E-01
  8.50000000E-01  8.50000000E-01  8.50000000E-01  8.50000000E-01  8.50000000E-01
  8.50000000E-01  8.50000000E-01  8.50000000E-01  8.50000000E-01  8.50000000E-01
  8.50000000E-01  8.50000000E-01  8.50000000E-01  8.50000000E-01  8.50000000E-01
  8.50000000E-01  8.50000000E-01  8.50000000E-01  8.50000000E-01  8.50000000E-01
  8.50000000E-01  8.50000000E-01  8.50000000E-01  8.50000000E-01  8.50000000E-01
  8.50000000E-01  8.50000000E-01  8.50000000E-01  8.50000000E-01  8.50000000E-01
  8.50000000E-01  8.50000000E-01  8.50000000E-01  8.50000000E-01  8.50000000E-01
  8.50000000E-01  8.50000000E-01  8.50000000E-01  8.50000000E-01  8.50000000E-01
  8.50000000E-01  8.50000000E-01  8.50000000E-01  8.50000000E-01  8.50000000E-01
  8.50000000E-01  8.50000000E-01  8.50000000E-01  8.50000000E-01  8.50000000E-01
  8.50000000E-01  8.50000000E-01  8.50000000E-01  8.50000000E-01  8.50000000E-01
  8.50000000E-01  8.50000000E-01  8.50000000E-01  8.50000000E-01  8.50000000E-01
  8.50000000E-01  8.50000000E-01  8.50000000E-01  8.50000000E-01  8.50000000E-01
  8.50000000E-01  8.50000000E-01  8.50000000E-01  8.50000000E-01  8.50000000E-01
  8.50000000E-01  8.50000000E-01  8.50000000E-01  8.50000000E-01  8.50000000E-01
  8.50000000E-01  8.50000000E-01  8.50000000E-01  8.50000000E-01  8.50000000E-01
  8.50000000E-01  8.50000000E-01  8.50000000E-01  8.50000000E-01  8.50000000E-01
  8.50000000E-01  8.50000000E-01  8.50000000E-01  8.50000000E-01  8.50000000E-01
  8.50000000E-01  8.50000000E-01  8.50000000E-01  8.50000000E-01  8.50000000E-01
  8.50000000E-01  8.50000000E-01  8.50000000E-01  8.50000000E-01  8.50000000E-01
  8.50000000E-01  8.50000000E-01  8.50000000E-01  8.50000000E-01  8.50000000E-01
  8.50000000E-01  8.50000000E-01  8.50000000E-01  8.50000000E-01  8.50000000E-01
  8.50000000E-01  8.50000000E-01  8.50000000E-01  8.50000000E-01  8.50000000E-01
  8.50000000E-01  8.50000000E-01  8.50000000E-01  8.50000000E-01  8.50000000E-01
  8.50000000E-01  8.50000000E-01  8.50000000E-01  8.50000000E-01  8.50000000E-01
  8.50000000E-01  8.50000000E-01  8.50000000E-01  8.50000000E-01  8.50000000E-01
  8.50000000E-01  8.50000000E-01  8.50000000E-01  8.50000000E-01  8.50000000E-01
  8.50000000E-01  8.50000000E-01  8.50000000E-01  8.50000000E-01  8.50000000E-01
  8.50000000E-01  8.50000000E-01  8.50000000E-01  8.50000000E-01  8.50000000E-01
  8.50000000E-01  8.50000000E-01  8.50000000E-01  8.50000000E-01  8.50000000E-01
  8.50000000E-01  8.50000000E-01  8.50000000E-01  8.50000000E-01  8.50000000E-01
  8.50000000E-01  8.50000000E-01  8.50000000E-01  8.50000000E-01  8.50000000E-01
  8.50000000E-01  8.50000000E-01  8.50000000E-01  8.50000000E-01  8.50000000E-01
  8.50000000E-01  8.50000000E-01  8.50000000E-01  8.50000000E-01  8.50000000E-01
  8.50000000E-01  8.50000000E-01  8.50000000E-01  8.50000000E-01  8.50000000E-01
  8.50000000E-01  8.50000000E-01  8.50000000E-01  8.50000000E-01  8.50000000E-01
  8.50000000E-01  8.50000000E-01  8.50000000E-01  8.50000000E-01  8.50000000E-01
  8.50000000E-01  8.50000000E-01  8.50000000E-01  8.50000000E-01  8.50000000E-01
  8.50000000E-01  8.50000000E-01  8.50000000E-01  8.50000000E-01  8.50000000E-01
  8.50000000E-01  8.50000000E-01  8.50000000E-01  8.50000000E-01  8.50000000E-01
  8.50000000E-01  8.50000000E-01  8.50000000E-01  8.50000000E-01  8.50000000E-01
  8.50000000E-01  8.50000000E-01  8.50000000E-01  8.50000000E-01  8.50000000E-01
  8.50000000E-01  8.50000000E-01  8.50000000E-01  8.50000000E-01  8.50000000E-01
  8.50000000E-01  8.50000000E-01  8.50000000E-01  8.50000000E-01  8.50000000E-01
  8.50000000E-01  8.50000000E-01  8.50000000E-01  8.50000000E-01  8.50000000E-01
  8.50000000E-01  8.50000000E-01  8.50000000E-01  8.50000000E-01  8.50000000E-01
  8.50000000E-01  8.50000000E-01  8.50000000E-01  8.50000000E-01  8.50000000E-01
  8.50000000E-01  8.50000000E-01  8.50000000E-01  8.50000000E-01  8.50000000E-01
  8.50000000E-01  8.50000000E-01  8.50000000E-01  8.50000000E-01  8.50000000E-01
  8.50000000E-01  8.50000000E-01  8.50000000E-01  8.50000000E-01  8.50000000E-01
  8.50000000E-01  8.50000000E-01  8.50000000E-01  8.50000000E-01  8.50000000E-01
  8.50000000E-01  8.50000000E-01  8.50000000E-01  8.50000000E-01  8.50000000E-01
  8.50000000E-01  8.50000000E-01  8.50000000E-01  8.50000000E-01  8.50000000E-01
  8.50000000E-01  8.50000000E-01  8.50000000E-01  8.50000000E-01  8.50000000E-01
  8.50000000E-01  8.50000000E-01  8.50000000E-01  8.50000000E-01  8.50000000E-01
  8.50000000E-01  8.50000000E-01  8.50000000E-01  8.50000000E-01  8.50000000E-01
  8.50000000E-01  8.50000000E-01  8.50000000E-01  8.50000000E-01  8.50000000E-01
  8.50000000E-01  8.50000000E-01  8.50000000E-01  8.50000000E-01  8.50000000E-01
  8.50000000E-01  8.50000000E-01  8.50000000E-01  8.50000000E-01  8.50000000E-01
  8.50000000E-01  8.50000000E-01  8.50000000E-01  8.50000000E-01  8.50000000E-01
  8.50000000E-01  8.50000000E-01  8.50000000E-01  8.50000000E-01  8.50000000E-01
  8.50000000E-01  8.50000000E-01  8.50000000E-01  8.50000000E-01  8.50000000E-01
  8.50000000E-01  8.50000000E-01  8.50000000E-01  8.50000000E-01  8.50000000E-01
  8.50000000E-01  8.50000000E-01  8.50000000E-01  8.50000000E-01  8.50000000E-01
  8.50000000E-01  8.50000000E-01  8.50000000E-01  8.50000000E-01  8.50000000E-01
  8.50000000E-01  8.50000000E-01  8.50000000E-01  8.50000000E-01  8.50000000E-01
  8.50000000E-01  8.50000000E-01  8.50000000E-01  8.50000000E-01  8.50000000E-01
  8.50000000E-01  8.50000000E-01  8.50000000E-01  8.50000000E-01  8.50000000E-01
  8.50000000E-01  8.50000000E-01  8.50000000E-01  8.50000000E-01  8.50000000E-01
  8.50000000E-01  8.50000000E-01  8.50000000E-01  8.50000000E-01  8.50000000E-01
  8.50000000E-01  8.50000000E-01  8.50000000E-01  8.50000000E-01  8.50000000E-01
  8.50000000E-01  8.50000000E-01  8.50000000E-01  8.50000000E-01  8.50000000E-01
  8.50000000E-01  8.50000000E-01  8.50000000E-01  8.50000000E-01  8.50000000E-01
  8.50000000E-01  8.50000000E-01  8.50000000E-01  8.50000000E-01  8.50000000E-01
  8.50000000E-01  8.50000000E-01  8.50000000E-01  8.50000000E-01  8.50000000E-01
  8.50000000E-01  8.50000000E-01  8.50000000E-01  8.50000000E-01  8.50000000E-01
  8.50000000E-01  8.50000000E-01  8.50000000E-01  8.50000000E-01  8.50000000E-01
  8.50000000E-01  8.50000000E-01  8.50000000E-01  8.50000000E-01  8.50000000E-01
  8.50000000E-01  8.50000000E-01  8.50000000E-01  8.50000000E-01  8.50000000E-01
  8.50000000E-01  8.50000000E-01  8.50000000E-01  8.50000000E-01  8.50000000E-01
  8.50000000E-01  8.50000000E-01  8.50000000E-01  8.50000000E-01  8.50000000E-01
  8.50000000E-01  8.50000000E-01  8.50000000E-01  8.50000000E-01  8.50000000E-01
  8.50000000E-01  8.50000000E-01  8.50000000E-01  8.50000000E-01  8.50000000E-01
  8.50000000E-01  8.50000000E-01  8.50000000E-01  8.50000000E-01  8.50000000E-01
  8.50000000E-01  8.50000000E-01  8.50000000E-01  8.50000000E-01  8.50000000E-01
  8.50000000E-01  8.50000000E-01  8.50000000E-01  8.50000000E-01  8.50000000E-01
  8.50000000E-01  8.50000000E-01  8.50000000E-01  8.50000000E-01  8.50000000E-01
  8.50000000E-01  8.50000000E-01  8.50000000E-01  8.50000000E-01  8.50000000E-01
  8.50000000E-01  8.50000000E-01  8.50000000E-01  8.50000000E-01  8.50000000E-01
  8.50000000E-01  8.50000000E-01  8.50000000E-01  8.50000000E-01  8.50000000E-01
  8.50000000E-01  8.50000000E-01  8.50000000E-01  8.50000000E-01  8.50000000E-01
  8.50000000E-01  8.50000000E-01  8.50000000E-01  8.50000000E-01  8.50000000E-01
  8.50000000E-01  8.50000000E-01  8.50000000E-01  8.50000000E-01  8.50000000E-01
  8.50000000E-01  8.50000000E-01  8.50000000E-01  8.50000000E-01  8.50000000E-01
  8.50000000E-01  8.50000000E-01  8.50000000E-01  8.50000000E-01  8.50000000E-01
  8.50000000E-01  8.50000000E-01  8.50000000E-01  8.50000000E-01  8.50000000E-01
  8.50000000E-01  8.50000000E-01  8.50000000E-01  8.50000000E-01  8.50000000E-01
  8.50000000E-01  8.50000000E-01  8.50000000E-01  8.50000000E-01  8.50000000E-01
  8.50000000E-01  8.50000000E-01  8.50000000E-01  8.50000000E-01  8.50000000E-01
  8.50000000E-01  8.50000000E-01  8.50000000E-01  8.50000000E-01  8.50000000E-01
  8.50000000E-01  8.50000000E-01  8.50000000E-01  8.50000000E-01  8.50000000E-01
  8.50000000E-01  8.50000000E-01  8.50000000E-01  8.50000000E-01  8.50000000E-01
  8.50000000E-01  8.50000000E-01  8.50000000E-01  8.50000000E-01  8.50000000E-01
  8.50000000E-01  8.50000000E-01  8.50000000E-01  8.50000000E-01  8.50000000E-01
  8.50000000E-01  8.50000000E-01  8.50000000E-01  8.50000000E-01  8.50000000E-01
  8.50000000E-01  8.50000000E-01  8.50000000E-01  8.50000000E-01  8.50000000E-01
  8.50000000E-01  8.50000000E-01  8.50000000E-01  8.50000000E-01  8.50000000E-01
  8.50000000E-01  8.50000000E-01  8.50000000E-01  8.50000000E-01  8.50000000E-01
  8.50000000E-01  8.50000000E-01  8.50000000E-01  8.50000000E-01  8.50000000E-01
  8.50000000E-01  8.50000000E-01  8.50000000E-01  8.50000000E-01  8.50000000E-01
  8.50000000E-01  8.50000000E-01  8.50000000E-01  8.50000000E-01  8.50000000E-01
  8.50000000E-01  8.50000000E-01  8.50000000E-01  8.50000000E-01  8.50000000E-01
  8.50000000E-01  8.50000000E-01  8.50000000E-01  8.50000000E-01  8.50000000E-01
  8.50000000E-01  8.50000000E-01  8.50000000E-01  8.50000000E-01  8.50000000E-01
  8.50000000E-01  8.50000000E-01  8.50000000E-01  8.50000000E-01  8.50000000E-01
  8.50000000E-01  8.50000000E-01  8.50000000E-01  8.50000000E-01  8.50000000E-01
  8.50000000E-01  8.50000000E-01  8.50000000E-01  8.50000000E-01  8.50000000E-01
  8.50000000E-01  8.50000000E-01  8.50000000E-01  8.50000000E-01  8.50000000E-01
  8.50000000E-01  8.50000000E-01  8.50000000E-01  8.50000000E-01  8.50000000E-01
  8.50000000E-01  8.50000000E-01  8.50000000E-01  8.50000000E-01  8.50000000E-01
  8.50000000E-01  8.50000000E-01  8.50000000E-01  8.50000000E-01  8.50000000E-01
  8.50000000E-01  8.50000000E-01  8.50000000E-01  8.50000000E-01  8.50000000E-01
  8.50000000E-01  8.50000000E-01  8.50000000E-01  8.50000000E-01  8.50000000E-01
  8.50000000E-01  8.50000000E-01  8.50000000E-01  8.50000000E-01  8.50000000E-01
  8.50000000E-01  8.50000000E-01  8.50000000E-01  8.50000000E-01  8.50000000E-01
  8.50000000E-01  8.50000000E-01  8.50000000E-01  8.50000000E-01  8.50000000E-01
  8.50000000E-01  8.50000000E-01  8.50000000E-01  8.50000000E-01  8.50000000E-01
  8.50000000E-01  8.50000000E-01  8.50000000E-01  8.50000000E-01  8.50000000E-01
  8.50000000E-01  8.50000000E-01  8.50000000E-01  8.50000000E-01  8.50000000E-01
  8.50000000E-01  8.50000000E-01  8.50000000E-01  8.50000000E-01  8.50000000E-01
  8.50000000E-01  8.50000000E-01  8.50000000E-01  8.50000000E-01  8.50000000E-01
  8.50000000E-01  8.50000000E-01  8.50000000E-01  8.50000000E-01  8.50000000E-01
  8.50000000E-01  8.50000000E-01  8.50000000E-01  8.50000000E-01  8.50000000E-01
  8.50000000E-01  8.50000000E-01  8.50000000E-01  8.50000000E-01  8.50000000E-01
  8.50000000E-01  8.50000000E-01  8.50000000E-01  8.50000000E-01  8.50000000E-01
  8.50000000E-01  8.50000000E-01  8.50000000E-01  8.50000000E-01  8.50000000E-01
  8.50000000E-01  8.50000000E-01  8.50000000E-01  8.50000000E-01  8.50000000E-01
  8.50000000E-01  8.50000000E-01  8.50000000E-01  8.50000000E-01  8.50000000E-01
  8.50000000E-01  8.50000000E-01  8.50000000E-01  8.50000000E-01  8.50000000E-01
  8.50000000E-01  8.50000000E-01  8.50000000E-01  8.50000000E-01  8.50000000E-01
  8.50000000E-01  8.50000000E-01  8.50000000E-01  8.50000000E-01  8.50000000E-01
  8.50000000E-01  8.50000000E-01  8.50000000E-01  8.50000000E-01  8.50000000E-01
  8.50000000E-01  8.50000000E-01  8.50000000E-01  8.50000000E-01  8.50000000E-01
  8.50000000E-01  8.50000000E-01  8.50000000E-01  8.50000000E-01  8.50000000E-01
  8.50000000E-01  8.50000000E-01  8.50000000E-01  8.50000000E-01  8.50000000E-01
  8.50000000E-01  8.50000000E-01  8.50000000E-01  8.50000000E-01  8.50000000E-01
  8.50000000E-01  8.50000000E-01  8.50000000E-01  8.50000000E-01  8.50000000E-01
  8.50000000E-01  8.50000000E-01  8.50000000E-01  8.50000000E-01  8.50000000E-01
  8.50000000E-01  8.50000000E-01  8.50000000E-01  8.50000000E-01  8.50000000E-01
  8.50000000E-01  8.50000000E-01  8.50000000E-01  8.50000000E-01  8.50000000E-01
  8.50000000E-01  8.50000000E-01  8.50000000E-01  8.50000000E-01  8.50000000E-01
  8.50000000E-01  8.50000000E-01  8.50000000E-01  8.50000000E-01  8.50000000E-01
  8.50000000E-01  8.50000000E-01  8.50000000E-01  8.50000000E-01  8.50000000E-01
  8.50000000E-01  8.50000000E-01  8.50000000E-01  8.50000000E-01  8.50000000E-01
  8.50000000E-01  8.50000000E-01  8.50000000E-01  8.50000000E-01  8.50000000E-01
  8.50000000E-01  8.50000000E-01  8.50000000E-01  8.50000000E-01  8.50000000E-01
  8.50000000E-01  8.50000000E-01  8.50000000E-01  8.50000000E-01  8.50000000E-01
  8.50000000E-01  8.50000000E-01  8.50000000E-01  8.50000000E-01  8.50000000E-01
  8.50000000E-01  8.50000000E-01  8.50000000E-01  8.50000000E-01  8.50000000E-01
  8.50000000E-01  8.50000000E-01  8.50000000E-01  8.50000000E-01  8.50000000E-01
  8.50000000E-01  8.50000000E-01  8.50000000E-01  8.50000000E-01  8.50000000E-01
  8.50000000E-01  8.50000000E-01  8.50000000E-01  8.50000000E-01  8.50000000E-01
  8.50000000E-01  8.50000000E-01  8.50000000E-01  8.50000000E-01  8.50000000E-01
  8.50000000E-01  8.50000000E-01  8.50000000E-01  8.50000000E-01  8.50000000E-01
  8.50000000E-01  8.50000000E-01  8.50000000E-01  8.50000000E-01  8.50000000E-01
  8.50000000E-01  8.50000000E-01  8.50000000E-01  8.50000000E-01  8.50000000E-01
  8.50000000E-01  8.50000000E-01  8.50000000E-01  8.50000000E-01  8.50000000E-01
  8.50000000E-01  8.50000000E-01  8.50000000E-01  8.50000000E-01  8.50000000E-01
  8.50000000E-01  8.50000000E-01  8.50000000E-01  8.50000000E-01  8.50000000E-01
  8.50000000E-01  8.50000000E-01  8.50000000E-01  8.50000000E-01  8.50000000E-01
  8.50000000E-01  8.50000000E-01  8.50000000E-01  8.50000000E-01  8.50000000E-01
  8.50000000E-01  8.50000000E-01  8.50000000E-01  8.50000000E-01  8.50000000E-01
  8.50000000E-01  8.50000000E-01  8.50000000E-01  8.50000000E-01  8.50000000E-01
  8.50000000E-01  8.50000000E-01  8.50000000E-01  8.50000000E-01  8.50000000E-01
  8.50000000E-01  8.50000000E-01  8.50000000E-01  8.50000000E-01  8.50000000E-01
  8.50000000E-01  8.50000000E-01  8.50000000E-01  8.50000000E-01  8.50000000E-01
  8.50000000E-01  8.50000000E-01  8.50000000E-01  8.50000000E-01  8.50000000E-01
  8.50000000E-01  8.50000000E-01  8.50000000E-01  8.50000000E-01  8.50000000E-01
  8.50000000E-01  8.50000000E-01  8.50000000E-01  8.50000000E-01  8.50000000E-01
  8.50000000E-01  8.50000000E-01  8.50000000E-01  8.50000000E-01  8.50000000E-01
  8.50000000E-01  8.50000000E-01  8.50000000E-01  8.50000000E-01  8.50000000E-01
  8.50000000E-01  8.50000000E-01  8.50000000E-01  8.50000000E-01  8.50000000E-01
  8.50000000E-01  8.50000000E-01  8.50000000E-01  8.50000000E-01  8.50000000E-01
  8.50000000E-01  8.50000000E-01  8.50000000E-01  8.50000000E-01  8.50000000E-01
  8.50000000E-01  8.50000000E-01  8.50000000E-01  8.50000000E-01  8.50000000E-01
  8.50000000E-01  8.50000000E-01  8.50000000E-01  8.50000000E-01  8.50000000E-01
  8.50000000E-01  8.50000000E-01  8.50000000E-01  8.50000000E-01  8.50000000E-01
  8.50000000E-01  8.50000000E-01  8.50000000E-01  8.50000000E-01  8.50000000E-01
  8.50000000E-01  8.50000000E-01  8.50000000E-01  8.50000000E-01  8.50000000E-01
  8.50000000E-01  8.50000000E-01  8.50000000E-01  8.50000000E-01  8.50000000E-01
  8.50000000E-01  8.50000000E-01  8.50000000E-01  8.50000000E-01  8.50000000E-01
  8.50000000E-01  8.50000000E-01  8.50000000E-01  8.50000000E-01  8.50000000E-01
  8.50000000E-01  8.50000000E-01  8.50000000E-01  8.50000000E-01  8.50000000E-01
  8.50000000E-01  8.50000000E-01  8.50000000E-01  8.50000000E-01  8.50000000E-01
  8.50000000E-01  8.50000000E-01  8.50000000E-01  8.50000000E-01  8.50000000E-01
  8.50000000E-01  8.50000000E-01  8.50000000E-01  8.50000000E-01  8.50000000E-01
  8.50000000E-01  8.50000000E-01  8.50000000E-01  8.50000000E-01  8.50000000E-01
  8.50000000E-01  8.50000000E-01  8.50000000E-01  8.50000000E-01  8.50000000E-01
  8.50000000E-01  8.50000000E-01  8.50000000E-01  8.50000000E-01  8.50000000E-01
  8.50000000E-01  8.50000000E-01  8.50000000E-01  8.50000000E-01  8.50000000E-01
  8.50000000E-01  8.50000000E-01  8.50000000E-01  8.50000000E-01  8.50000000E-01
  8.50000000E-01  8.50000000E-01  8.50000000E-01  8.50000000E-01  8.50000000E-01
  8.50000000E-01  8.50000000E-01  8.50000000E-01  8.50000000E-01  8.50000000E-01
  8.50000000E-01  8.50000000E-01  8.50000000E-01  8.50000000E-01  8.50000000E-01
  8.50000000E-01  8.50000000E-01  8.50000000E-01  8.50000000E-01  8.50000000E-01
  8.50000000E-01  8.50000000E-01  8.50000000E-01  8.50000000E-01  8.50000000E-01
  8.50000000E-01  8.50000000E-01  8.50000000E-01  8.50000000E-01  8.50000000E-01
  8.50000000E-01  8.50000000E-01  8.50000000E-01  8.50000000E-01  8.50000000E-01
  8.50000000E-01  8.50000000E-01  8.50000000E-01  8.50000000E-01  8.50000000E-01
  8.50000000E-01  8.50000000E-01  8.50000000E-01  8.50000000E-01  8.50000000E-01
  8.50000000E-01  8.50000000E-01  8.50000000E-01  8.50000000E-01  8.50000000E-01
  8.50000000E-01  8.50000000E-01  8.50000000E-01  8.50000000E-01  8.50000000E-01
  8.50000000E-01  8.50000000E-01  8.50000000E-01  8.50000000E-01  8.50000000E-01
  8.50000000E-01  8.50000000E-01  8.50000000E-01  8.50000000E-01  8.50000000E-01
  8.50000000E-01  8.50000000E-01  8.50000000E-01  8.50000000E-01  8.50000000E-01
  8.50000000E-01  8.50000000E-01  8.50000000E-01  8.50000000E-01  8.50000000E-01
  8.50000000E-01  8.50000000E-01  8.50000000E-01  8.50000000E-01  8.50000000E-01
  8.50000000E-01  8.50000000E-01  8.50000000E-01  8.50000000E-01  8.50000000E-01
  8.50000000E-01  8.50000000E-01  8.50000000E-01  8.50000000E-01  8.50000000E-01
  8.50000000E-01  8.50000000E-01  8.50000000E-01  8.50000000E-01  8.50000000E-01
  8.50000000E-01  8.50000000E-01  8.50000000E-01  8.50000000E-01  8.50000000E-01
  8.50000000E-01  8.50000000E-01  8.50000000E-01  8.50000000E-01  8.50000000E-01
  8.50000000E-01  8.50000000E-01  8.50000000E-01  8.50000000E-01  8.50000000E-01
  8.50000000E-01  8.50000000E-01  8.50000000E-01  8.50000000E-01  8.50000000E-01
  8.50000000E-01  8.50000000E-01  8.50000000E-01  8.50000000E-01  8.50000000E-01
  8.50000000E-01  8.50000000E-01  8.50000000E-01  8.50000000E-01  8.50000000E-01
  8.50000000E-01  8.50000000E-01  8.50000000E-01  8.50000000E-01  8.50000000E-01
  8.50000000E-01  8.50000000E-01  8.50000000E-01  8.50000000E-01  8.50000000E-01
  8.50000000E-01  8.50000000E-01  8.50000000E-01  8.50000000E-01  8.50000000E-01
  8.50000000E-01  8.50000000E-01  8.50000000E-01  8.50000000E-01  8.50000000E-01
  8.50000000E-01  8.50000000E-01  8.50000000E-01  8.50000000E-01  8.50000000E-01
  8.50000000E-01  8.50000000E-01  8.50000000E-01  8.50000000E-01  8.50000000E-01
  8.50000000E-01  8.50000000E-01  8.50000000E-01  8.50000000E-01  8.50000000E-01
  8.50000000E-01  8.50000000E-01  8.50000000E-01  8.50000000E-01  8.50000000E-01
  8.50000000E-01  8.50000000E-01  8.50000000E-01  8.50000000E-01  8.50000000E-01
  8.50000000E-01  8.50000000E-01  8.50000000E-01  8.50000000E-01  8.50000000E-01
  8.50000000E-01  8.50000000E-01  8.50000000E-01  8.50000000E-01  8.50000000E-01
  8.50000000E-01  8.50000000E-01  8.50000000E-01  8.50000000E-01  8.50000000E-01
  8.50000000E-01  8.50000000E-01  8.50000000E-01  8.50000000E-01  8.50000000E-01
  8.50000000E-01  8.50000000E-01  8.50000000E-01  8.50000000E-01  8.50000000E-01
  8.50000000E-01  8.50000000E-01  8.50000000E-01  8.50000000E-01  8.50000000E-01
  8.50000000E-01  8.50000000E-01  8.50000000E-01  8.50000000E-01  8.50000000E-01
  8.50000000E-01  8.50000000E-01  8.50000000E-01  8.50000000E-01  8.50000000E-01
  8.50000000E-01  8.50000000E-01  8.50000000E-01  8.50000000E-01  8.50000000E-01
  8.50000000E-01  8.50000000E-01  8.50000000E-01  8.50000000E-01  8.50000000E-01
  8.50000000E-01  8.50000000E-01  8.50000000E-01  8.50000000E-01  8.50000000E-01
  8.50000000E-01  8.50000000E-01  8.50000000E-01  8.50000000E-01  8.50000000E-01
  8.50000000E-01  8.50000000E-01  8.50000000E-01  8.50000000E-01  8.50000000E-01
  8.50000000E-01  8.50000000E-01  8.50000000E-01  8.50000000E-01  8.50000000E-01
  8.50000000E-01  8.50000000E-01  8.50000000E-01  8.50000000E-01  8.50000000E-01
  8.50000000E-01  8.50000000E-01  8.50000000E-01  8.50000000E-01  8.50000000E-01
  8.50000000E-01  8.50000000E-01  8.50000000E-01  8.50000000E-01  8.50000000E-01
  8.50000000E-01  8.50000000E-01  8.50000000E-01  8.50000000E-01  8.50000000E-01
  8.50000000E-01  8.50000000E-01  8.50000000E-01  8.50000000E-01  8.50000000E-01
  8.50000000E-01  8.50000000E-01  8.50000000E-01  8.50000000E-01  8.50000000E-01
  8.50000000E-01  8.50000000E-01  8.50000000E-01  8.50000000E-01  8.50000000E-01
  8.50000000E-01  8.50000000E-01  8.50000000E-01  8.50000000E-01  8.50000000E-01
  8.50000000E-01  8.50000000E-01  8.50000000E-01  8.50000000E-01  8.50000000E-01
  8.50000000E-01  8.50000000E-01  8.50000000E-01  8.50000000E-01  8.50000000E-01
  8.50000000E-01  8.50000000E-01  8.50000000E-01  8.50000000E-01  8.50000000E-01
  8.50000000E-01  8.50000000E-01  8.50000000E-01  8.50000000E-01  8.50000000E-01
  8.50000000E-01  8.50000000E-01  8.50000000E-01  8.50000000E-01  8.50000000E-01
  8.50000000E-01  8.50000000E-01  8.50000000E-01  8.50000000E-01  8.50000000E-01
  8.50000000E-01  8.50000000E-01  8.50000000E-01  8.50000000E-01  8.50000000E-01
  8.50000000E-01  8.50000000E-01  8.50000000E-01  8.50000000E-01  8.50000000E-01
  8.50000000E-01  8.50000000E-01  8.50000000E-01  8.50000000E-01  8.50000000E-01
  8.50000000E-01  8.50000000E-01  8.50000000E-01  8.50000000E-01  8.50000000E-01
  8.50000000E-01  8.50000000E-01  8.50000000E-01  8.50000000E-01  8.50000000E-01
  8.50000000E-01  8.50000000E-01  8.50000000E-01  8.50000000E-01  8.50000000E-01
  8.50000000E-01  8.50000000E-01  8.50000000E-01  8.50000000E-01  8.50000000E-01
  8.50000000E-01  8.50000000E-01  8.50000000E-01  8.50000000E-01  8.50000000E-01
  8.50000000E-01  8.50000000E-01  8.50000000E-01  8.50000000E-01  8.50000000E-01
  8.50000000E-01  8.50000000E-01  8.50000000E-01  8.50000000E-01  8.50000000E-01
  8.50000000E-01  8.50000000E-01  8.50000000E-01  8.50000000E-01  8.50000000E-01
  8.50000000E-01  8.50000000E-01  8.50000000E-01  8.50000000E-01  8.50000000E-01
  8.50000000E-01  8.50000000E-01  8.50000000E-01  8.50000000E-01  8.50000000E-01
  8.50000000E-01  8.50000000E-01  8.50000000E-01  8.50000000E-01  8.50000000E-01
  8.50000000E-01  8.50000000E-01  8.50000000E-01  8.50000000E-01  8.50000000E-01
  8.50000000E-01  8.50000000E-01  8.50000000E-01  8.50000000E-01  8.50000000E-01
  8.50000000E-01  8.50000000E-01  8.50000000E-01  8.50000000E-01  8.50000000E-01
  8.50000000E-01  8.50000000E-01  8.50000000E-01  8.50000000E-01  8.50000000E-01
  8.50000000E-01  8.50000000E-01  8.50000000E-01  8.50000000E-01  8.50000000E-01
  8.50000000E-01  8.50000000E-01  8.50000000E-01  8.50000000E-01  8.50000000E-01
  8.50000000E-01  8.50000000E-01  8.50000000E-01  8.50000000E-01  8.50000000E-01
  8.50000000E-01  8.50000000E-01  8.50000000E-01  8.50000000E-01  8.50000000E-01
  8.50000000E-01  8.50000000E-01  8.50000000E-01  8.50000000E-01  8.50000000E-01
  8.50000000E-01  8.50000000E-01  8.50000000E-01  8.50000000E-01  8.50000000E-01
  8.50000000E-01  8.50000000E-01  8.50000000E-01  8.50000000E-01  8.50000000E-01
  8.50000000E-01  8.50000000E-01  8.50000000E-01  8.50000000E-01  8.50000000E-01
  8.50000000E-01  8.50000000E-01  8.50000000E-01  8.50000000E-01  8.50000000E-01
  8.50000000E-01  8.50000000E-01  8.50000000E-01  8.50000000E-01  8.50000000E-01
  8.50000000E-01  8.50000000E-01  8.50000000E-01  8.50000000E-01  8.50000000E-01
  8.50000000E-01  8.50000000E-01  8.50000000E-01  8.50000000E-01  8.50000000E-01
  8.50000000E-01  8.50000000E-01  8.50000000E-01  8.50000000E-01  8.50000000E-01
  8.50000000E-01  8.50000000E-01  8.50000000E-01  8.50000000E-01  8.50000000E-01
  8.50000000E-01  8.50000000E-01  8.50000000E-01  8.50000000E-01  8.50000000E-01
  8.50000000E-01  8.50000000E-01  8.50000000E-01  8.50000000E-01  8.50000000E-01
  8.50000000E-01  8.50000000E-01  8.50000000E-01  8.50000000E-01  8.50000000E-01
  8.50000000E-01  8.50000000E-01  8.50000000E-01  8.50000000E-01  8.50000000E-01
  8.50000000E-01  8.50000000E-01  8.50000000E-01  8.50000000E-01  8.50000000E-01
  8.50000000E-01  8.50000000E-01  8.50000000E-01  8.50000000E-01  8.50000000E-01
  8.50000000E-01  8.50000000E-01  8.50000000E-01  8.50000000E-01  8.50000000E-01
  8.50000000E-01  8.50000000E-01  8.50000000E-01  8.50000000E-01  8.50000000E-01
  8.50000000E-01  8.50000000E-01  8.50000000E-01  8.50000000E-01  8.50000000E-01
  8.50000000E-01  8.50000000E-01  8.50000000E-01  8.50000000E-01  8.50000000E-01
  8.50000000E-01  8.50000000E-01  8.50000000E-01  8.50000000E-01  8.50000000E-01
  8.50000000E-01  8.50000000E-01  8.50000000E-01  8.50000000E-01  8.50000000E-01
  8.50000000E-01  8.50000000E-01  8.50000000E-01  8.50000000E-01  8.50000000E-01
  8.50000000E-01  8.50000000E-01  8.50000000E-01  8.50000000E-01  8.50000000E-01
  8.50000000E-01  8.50000000E-01  8.50000000E-01  8.50000000E-01  8.50000000E-01
  8.50000000E-01  8.50000000E-01  8.50000000E-01  8.50000000E-01  8.50000000E-01
  8.50000000E-01  8.50000000E-01  8.50000000E-01  8.50000000E-01  8.50000000E-01
  8.50000000E-01  8.50000000E-01  8.50000000E-01  8.50000000E-01  8.50000000E-01
  8.50000000E-01  8.50000000E-01  8.50000000E-01  8.50000000E-01  8.50000000E-01
  8.50000000E-01  8.50000000E-01  8.50000000E-01  8.50000000E-01  8.50000000E-01
  8.50000000E-01  8.50000000E-01  8.50000000E-01  8.50000000E-01  8.50000000E-01
  8.50000000E-01  8.50000000E-01  8.50000000E-01  8.50000000E-01  8.50000000E-01
  8.50000000E-01  8.50000000E-01  8.50000000E-01  8.50000000E-01  8.50000000E-01
  8.50000000E-01  8.50000000E-01  8.50000000E-01  8.50000000E-01  8.50000000E-01
  8.50000000E-01  8.50000000E-01  8.50000000E-01  8.50000000E-01  8.50000000E-01
  8.50000000E-01  8.50000000E-01  8.50000000E-01  8.50000000E-01  8.50000000E-01
  8.50000000E-01  8.50000000E-01  8.50000000E-01  8.50000000E-01  8.50000000E-01
  8.50000000E-01  8.50000000E-01  8.50000000E-01  8.50000000E-01  8.50000000E-01
  8.50000000E-01  8.50000000E-01  8.50000000E-01  8.50000000E-01  8.50000000E-01
  8.50000000E-01  8.50000000E-01  8.50000000E-01  8.50000000E-01  8.50000000E-01
  8.50000000E-01  8.50000000E-01  8.50000000E-01  8.50000000E-01  8.50000000E-01
  8.50000000E-01  8.50000000E-01  8.50000000E-01  8.50000000E-01  8.50000000E-01
  8.50000000E-01  8.50000000E-01  8.50000000E-01  8.50000000E-01  8.50000000E-01
  8.50000000E-01  8.50000000E-01  8.50000000E-01  8.50000000E-01  8.50000000E-01
  8.50000000E-01  8.50000000E-01  8.50000000E-01  8.50000000E-01  8.50000000E-01
  8.50000000E-01  8.50000000E-01  8.50000000E-01  8.50000000E-01  8.50000000E-01
  8.50000000E-01  8.50000000E-01  8.50000000E-01  8.50000000E-01  8.50000000E-01
  8.50000000E-01  8.50000000E-01  8.50000000E-01  8.50000000E-01  8.50000000E-01
  8.50000000E-01  8.50000000E-01  8.50000000E-01  8.50000000E-01  8.50000000E-01
  8.50000000E-01  8.50000000E-01  8.50000000E-01  8.50000000E-01  8.50000000E-01
  8.50000000E-01  8.50000000E-01  8.50000000E-01  8.50000000E-01  8.50000000E-01
  8.50000000E-01  8.50000000E-01  8.50000000E-01  8.50000000E-01  8.50000000E-01
  8.50000000E-01  8.50000000E-01  8.50000000E-01  8.50000000E-01  8.50000000E-01
  8.50000000E-01  8.50000000E-01  8.50000000E-01  8.50000000E-01  8.50000000E-01
  8.50000000E-01  8.50000000E-01  8.50000000E-01  8.50000000E-01  8.50000000E-01
  8.50000000E-01  8.50000000E-01  8.50000000E-01  8.50000000E-01  8.50000000E-01
  8.50000000E-01  8.50000000E-01  8.50000000E-01  8.50000000E-01  8.50000000E-01
  8.50000000E-01  8.50000000E-01  8.50000000E-01  8.50000000E-01  8.50000000E-01
  8.50000000E-01  8.50000000E-01  8.50000000E-01  8.50000000E-01  8.50000000E-01
  8.50000000E-01  8.50000000E-01  8.50000000E-01  8.50000000E-01  8.50000000E-01
  8.50000000E-01  8.50000000E-01  8.50000000E-01  8.50000000E-01  8.50000000E-01
  8.50000000E-01  8.50000000E-01  8.50000000E-01  8.50000000E-01  8.50000000E-01
  8.50000000E-01  8.50000000E-01  8.50000000E-01  8.50000000E-01  8.50000000E-01
  8.50000000E-01  8.50000000E-01  8.50000000E-01  8.50000000E-01  8.50000000E-01
  8.50000000E-01  8.50000000E-01  8.50000000E-01  8.50000000E-01  8.50000000E-01
  8.50000000E-01  8.50000000E-01  8.50000000E-01  8.50000000E-01  8.50000000E-01
  8.50000000E-01  8.50000000E-01  8.50000000E-01  8.50000000E-01  8.50000000E-01
  8.50000000E-01  8.50000000E-01  8.50000000E-01  8.50000000E-01  8.50000000E-01
  8.50000000E-01  8.50000000E-01  8.50000000E-01  8.50000000E-01  8.50000000E-01
  8.50000000E-01  8.50000000E-01  8.50000000E-01  8.50000000E-01  8.50000000E-01
  8.50000000E-01  8.50000000E-01  8.50000000E-01  8.50000000E-01  8.50000000E-01
  8.50000000E-01  8.50000000E-01  8.50000000E-01  8.50000000E-01  8.50000000E-01
  8.50000000E-01  8.50000000E-01  8.50000000E-01  8.50000000E-01  8.50000000E-01
  8.50000000E-01  8.50000000E-01  8.50000000E-01  8.50000000E-01  8.50000000E-01
  8.50000000E-01  8.50000000E-01  8.50000000E-01  8.50000000E-01  8.50000000E-01
  8.50000000E-01  8.50000000E-01  8.50000000E-01  8.50000000E-01  8.50000000E-01
  8.50000000E-01  8.50000000E-01  8.50000000E-01  8.50000000E-01  8.50000000E-01
  8.50000000E-01  8.50000000E-01  8.50000000E-01  8.50000000E-01  8.50000000E-01
  8.50000000E-01  8.50000000E-01  8.50000000E-01  8.50000000E-01  8.50000000E-01
  8.50000000E-01  8.50000000E-01  8.50000000E-01  8.50000000E-01  8.50000000E-01
  8.50000000E-01  8.50000000E-01  8.50000000E-01  8.50000000E-01  8.50000000E-01
  8.50000000E-01  8.50000000E-01  8.50000000E-01  8.50000000E-01  8.50000000E-01
  8.50000000E-01  8.50000000E-01  8.50000000E-01  8.50000000E-01  8.50000000E-01
  8.50000000E-01  8.50000000E-01  8.50000000E-01  8.50000000E-01  8.50000000E-01
  8.50000000E-01  8.50000000E-01  8.50000000E-01  8.50000000E-01  8.50000000E-01
  8.50000000E-01  8.50000000E-01  8.50000000E-01  8.50000000E-01  8.50000000E-01
  8.50000000E-01  8.50000000E-01  8.50000000E-01  8.50000000E-01  8.50000000E-01
  8.50000000E-01  8.50000000E-01  8.50000000E-01  8.50000000E-01  8.50000000E-01
  8.50000000E-01  8.50000000E-01  8.50000000E-01  8.50000000E-01  8.50000000E-01
  8.50000000E-01  8.50000000E-01  8.50000000E-01  8.50000000E-01  8.50000000E-01
  8.50000000E-01  8.50000000E-01  8.50000000E-01  8.50000000E-01  8.50000000E-01
  8.50000000E-01  8.50000000E-01  8.50000000E-01  8.50000000E-01  8.50000000E-01
  8.50000000E-01  8.50000000E-01  8.50000000E-01  8.50000000E-01  8.50000000E-01
  8.50000000E-01  8.50000000E-01  8.50000000E-01  8.50000000E-01  8.50000000E-01
  8.50000000E-01  8.50000000E-01  8.50000000E-01  8.50000000E-01  8.50000000E-01
  8.50000000E-01  8.50000000E-01  8.50000000E-01  8.50000000E-01  8.50000000E-01
  8.50000000E-01  8.50000000E-01  8.50000000E-01  8.50000000E-01  8.50000000E-01
  8.50000000E-01  8.50000000E-01  8.50000000E-01  8.50000000E-01  8.50000000E-01
  8.50000000E-01  8.50000000E-01  8.50000000E-01  8.50000000E-01  8.50000000E-01
  8.50000000E-01  8.50000000E-01  8.50000000E-01  8.50000000E-01  8.50000000E-01
  8.50000000E-01  8.50000000E-01  8.50000000E-01  8.50000000E-01  8.50000000E-01
  8.50000000E-01  8.50000000E-01  8.50000000E-01  8.50000000E-01  8.50000000E-01
  8.50000000E-01  8.50000000E-01  8.50000000E-01  8.50000000E-01  8.50000000E-01
  8.50000000E-01  8.50000000E-01  8.50000000E-01  8.50000000E-01  8.50000000E-01
  8.50000000E-01  8.50000000E-01  8.50000000E-01  8.50000000E-01  8.50000000E-01
  8.50000000E-01  8.50000000E-01  8.50000000E-01  8.50000000E-01  8.50000000E-01
  8.50000000E-01  8.50000000E-01  8.50000000E-01  8.50000000E-01  8.50000000E-01
  8.50000000E-01  8.50000000E-01  8.50000000E-01  8.50000000E-01  8.50000000E-01
  8.50000000E-01  8.50000000E-01  8.50000000E-01  8.50000000E-01  8.50000000E-01
  8.50000000E-01  8.50000000E-01  8.50000000E-01  8.50000000E-01  8.50000000E-01
  8.50000000E-01  8.50000000E-01  8.50000000E-01  8.50000000E-01  8.50000000E-01
  8.50000000E-01  8.50000000E-01  8.50000000E-01  8.50000000E-01  8.50000000E-01
  8.50000000E-01  8.50000000E-01  8.50000000E-01  8.50000000E-01  8.50000000E-01
  8.50000000E-01  8.50000000E-01  8.50000000E-01  8.50000000E-01  8.50000000E-01
  8.50000000E-01  8.50000000E-01  8.50000000E-01  8.50000000E-01  8.50000000E-01
  8.50000000E-01  8.50000000E-01  8.50000000E-01  8.50000000E-01  8.50000000E-01
  8.50000000E-01  8.50000000E-01  8.50000000E-01  8.50000000E-01  8.50000000E-01
  8.50000000E-01  8.50000000E-01  8.50000000E-01  8.50000000E-01  8.50000000E-01
  8.50000000E-01  8.50000000E-01  8.50000000E-01  8.50000000E-01  8.50000000E-01
  8.50000000E-01  8.50000000E-01  8.50000000E-01  8.50000000E-01  8.50000000E-01
  8.50000000E-01  8.50000000E-01  8.50000000E-01  8.50000000E-01  8.50000000E-01
  8.50000000E-01  8.50000000E-01  8.50000000E-01  8.50000000E-01  8.50000000E-01
  8.50000000E-01  8.50000000E-01  8.50000000E-01  8.50000000E-01  8.50000000E-01
  8.50000000E-01  8.50000000E-01  8.50000000E-01  8.50000000E-01  8.50000000E-01
  8.50000000E-01  8.50000000E-01  8.50000000E-01  8.50000000E-01  8.50000000E-01
  8.50000000E-01  8.50000000E-01  8.50000000E-01  8.50000000E-01  8.50000000E-01
  8.50000000E-01  8.50000000E-01  8.50000000E-01  8.50000000E-01  8.50000000E-01
  8.50000000E-01  8.50000000E-01  8.50000000E-01  8.50000000E-01  8.50000000E-01
  8.50000000E-01  8.50000000E-01  8.50000000E-01  8.50000000E-01  8.50000000E-01
  8.50000000E-01  8.50000000E-01  8.50000000E-01  8.50000000E-01  8.50000000E-01
  8.50000000E-01  8.50000000E-01  8.50000000E-01  8.50000000E-01  8.50000000E-01
  8.50000000E-01  8.50000000E-01  8.50000000E-01  8.50000000E-01  8.50000000E-01
  8.50000000E-01  8.50000000E-01  8.50000000E-01  8.50000000E-01  8.50000000E-01
  8.50000000E-01  8.50000000E-01  8.50000000E-01  8.50000000E-01  8.50000000E-01
  8.50000000E-01  8.50000000E-01  8.50000000E-01  8.50000000E-01  8.50000000E-01
  8.50000000E-01  8.50000000E-01  8.50000000E-01  8.50000000E-01  8.50000000E-01
  8.50000000E-01  8.50000000E-01  8.50000000E-01  8.50000000E-01  8.50000000E-01
  8.50000000E-01  8.50000000E-01  8.50000000E-01  8.50000000E-01  8.50000000E-01
  8.50000000E-01  8.50000000E-01  8.50000000E-01  8.50000000E-01  8.50000000E-01
  8.50000000E-01  8.50000000E-01  8.50000000E-01  8.50000000E-01  8.50000000E-01
  8.50000000E-01  8.50000000E-01  8.50000000E-01  8.50000000E-01  8.50000000E-01
  8.50000000E-01  8.50000000E-01  8.50000000E-01  8.50000000E-01  8.50000000E-01
  8.50000000E-01  8.50000000E-01  8.50000000E-01  8.50000000E-01  8.50000000E-01
  8.50000000E-01  8.50000000E-01  8.50000000E-01  8.50000000E-01  8.50000000E-01
  8.50000000E-01  8.50000000E-01  8.50000000E-01  8.50000000E-01  8.50000000E-01
  8.50000000E-01  8.50000000E-01  8.50000000E-01  8.50000000E-01  8.50000000E-01
  8.50000000E-01  8.50000000E-01  8.50000000E-01  8.50000000E-01  8.50000000E-01
  8.50000000E-01  8.50000000E-01  8.50000000E-01  8.50000000E-01  8.50000000E-01
  8.50000000E-01  8.50000000E-01  8.50000000E-01  8.50000000E-01  8.50000000E-01
  8.50000000E-01  8.50000000E-01  8.50000000E-01  8.50000000E-01  8.50000000E-01
  8.50000000E-01  8.50000000E-01  8.50000000E-01  8.50000000E-01  8.50000000E-01
  8.50000000E-01  8.50000000E-01  8.50000000E-01  8.50000000E-01  8.50000000E-01
  8.50000000E-01  8.50000000E-01  8.50000000E-01  8.50000000E-01  8.50000000E-01
  8.50000000E-01  8.50000000E-01  8.50000000E-01  8.50000000E-01  8.50000000E-01
  8.50000000E-01  8.50000000E-01  8.50000000E-01  8.50000000E-01  8.50000000E-01
  8.50000000E-01  8.50000000E-01  8.50000000E-01  8.50000000E-01  8.50000000E-01
  8.50000000E-01  8.50000000E-01  8.50000000E-01  8.50000000E-01  8.50000000E-01
  8.50000000E-01  8.50000000E-01  8.50000000E-01  8.50000000E-01  8.50000000E-01
  8.50000000E-01  8.50000000E-01  8.50000000E-01  8.50000000E-01  8.50000000E-01
  8.50000000E-01  8.50000000E-01  8.50000000E-01  8.50000000E-01  8.50000000E-01
  8.50000000E-01  8.50000000E-01  8.50000000E-01  8.50000000E-01  8.50000000E-01
  8.50000000E-01  8.50000000E-01  8.50000000E-01  8.50000000E-01  8.50000000E-01
  8.50000000E-01  8.50000000E-01  8.50000000E-01  8.50000000E-01  8.50000000E-01
  8.50000000E-01  8.50000000E-01  8.50000000E-01  8.50000000E-01  8.50000000E-01
  8.50000000E-01  8.50000000E-01  8.50000000E-01  8.50000000E-01  8.50000000E-01
  8.50000000E-01  8.50000000E-01  8.50000000E-01  8.50000000E-01  8.50000000E-01
  8.50000000E-01  8.50000000E-01  8.50000000E-01  8.50000000E-01  8.50000000E-01
  8.50000000E-01  8.50000000E-01  8.50000000E-01  8.50000000E-01  8.50000000E-01
  8.50000000E-01  8.50000000E-01  8.50000000E-01  8.50000000E-01  8.50000000E-01
  8.50000000E-01  8.50000000E-01  8.50000000E-01  8.50000000E-01  8.50000000E-01
  8.50000000E-01  8.50000000E-01  8.50000000E-01  8.50000000E-01  8.50000000E-01
  8.50000000E-01  8.50000000E-01  8.50000000E-01  8.50000000E-01  8.50000000E-01
  8.50000000E-01  8.50000000E-01  8.50000000E-01  8.50000000E-01  8.50000000E-01
  8.50000000E-01  8.50000000E-01  8.50000000E-01  8.50000000E-01  8.50000000E-01
  8.50000000E-01  8.50000000E-01  8.50000000E-01  8.50000000E-01  8.50000000E-01
  8.50000000E-01  8.50000000E-01  8.50000000E-01  8.50000000E-01  8.50000000E-01
  8.50000000E-01  8.50000000E-01  8.50000000E-01  8.50000000E-01  8.50000000E-01
  8.50000000E-01  8.50000000E-01  8.50000000E-01  8.50000000E-01  8.50000000E-01
  8.50000000E-01  8.50000000E-01  8.50000000E-01  8.50000000E-01  8.50000000E-01
  8.50000000E-01  8.50000000E-01  8.50000000E-01  8.50000000E-01  8.50000000E-01
  8.50000000E-01  8.50000000E-01  8.50000000E-01  8.50000000E-01  8.50000000E-01
  8.50000000E-01  8.50000000E-01  8.50000000E-01  8.50000000E-01  8.50000000E-01
  8.50000000E-01  8.50000000E-01  8.50000000E-01  8.50000000E-01  8.50000000E-01
  8.50000000E-01  8.50000000E-01  8.50000000E-01  8.50000000E-01  8.50000000E-01
  8.50000000E-01  8.50000000E-01  8.50000000E-01  8.50000000E-01  8.50000000E-01
  8.50000000E-01  8.50000000E-01  8.50000000E-01  8.50000000E-01  8.50000000E-01
  8.50000000E-01  8.50000000E-01  8.50000000E-01  8.50000000E-01  8.50000000E-01
  8.50000000E-01  8.50000000E-01  8.50000000E-01  8.50000000E-01  8.50000000E-01
  8.50000000E-01  8.50000000E-01  8.50000000E-01  8.50000000E-01  8.50000000E-01
  8.50000000E-01  8.50000000E-01  8.50000000E-01  8.50000000E-01  8.50000000E-01
  8.50000000E-01  8.50000000E-01  8.50000000E-01  8.50000000E-01  8.50000000E-01
  8.50000000E-01  8.50000000E-01  8.50000000E-01  8.50000000E-01  8.50000000E-01
  8.50000000E-01  8.50000000E-01  8.50000000E-01  8.50000000E-01  8.50000000E-01
  8.50000000E-01  8.50000000E-01  8.50000000E-01  8.50000000E-01  8.50000000E-01
  8.50000000E-01  8.50000000E-01  8.50000000E-01  8.50000000E-01  8.50000000E-01
  8.50000000E-01  8.50000000E-01  8.50000000E-01  8.50000000E-01  8.50000000E-01
  8.50000000E-01  8.50000000E-01  8.50000000E-01  8.50000000E-01  8.50000000E-01
  8.50000000E-01  8.50000000E-01  8.50000000E-01  8.50000000E-01  8.50000000E-01
  8.50000000E-01  8.50000000E-01  8.50000000E-01  8.50000000E-01  8.50000000E-01
  8.50000000E-01  8.50000000E-01  8.50000000E-01  8.50000000E-01  8.50000000E-01
  8.50000000E-01  8.50000000E-01  8.50000000E-01  8.50000000E-01  8.50000000E-01
  8.50000000E-01  8.50000000E-01  8.50000000E-01  8.50000000E-01  8.50000000E-01
  8.50000000E-01  8.50000000E-01  8.50000000E-01  8.50000000E-01  8.50000000E-01
  8.50000000E-01  8.50000000E-01  8.50000000E-01  8.50000000E-01  8.50000000E-01
  8.50000000E-01  8.50000000E-01  8.50000000E-01  8.50000000E-01  8.50000000E-01
  8.50000000E-01  8.50000000E-01  8.50000000E-01  8.50000000E-01  8.50000000E-01
  8.50000000E-01  8.50000000E-01  8.50000000E-01  8.50000000E-01  8.50000000E-01
  8.50000000E-01  8.50000000E-01  8.50000000E-01  8.50000000E-01  8.50000000E-01
  8.50000000E-01  8.50000000E-01  8.50000000E-01  8.50000000E-01  8.50000000E-01
  8.50000000E-01  8.50000000E-01  8.50000000E-01  8.50000000E-01  8.50000000E-01
  8.50000000E-01  8.50000000E-01  8.50000000E-01  8.50000000E-01  8.50000000E-01
  8.50000000E-01  8.50000000E-01  8.50000000E-01  8.50000000E-01  8.50000000E-01
  8.50000000E-01  8.50000000E-01  8.50000000E-01  8.50000000E-01  8.50000000E-01
  8.50000000E-01  8.50000000E-01  8.50000000E-01  8.50000000E-01  8.50000000E-01
  8.50000000E-01  8.50000000E-01  8.50000000E-01  8.50000000E-01  8.50000000E-01
  8.50000000E-01  8.50000000E-01  8.50000000E-01  8.50000000E-01  8.50000000E-01
  8.50000000E-01  8.50000000E-01  8.50000000E-01  8.50000000E-01  8.50000000E-01
  8.50000000E-01  8.50000000E-01  8.50000000E-01  8.50000000E-01  8.50000000E-01
  8.50000000E-01  8.50000000E-01  8.50000000E-01  8.50000000E-01  8.50000000E-01
  8.50000000E-01  8.50000000E-01  8.50000000E-01  8.50000000E-01  8.50000000E-01
  8.50000000E-01  8.50000000E-01  8.50000000E-01  8.50000000E-01  8.50000000E-01
  8.50000000E-01  8.50000000E-01  8.50000000E-01  8.50000000E-01  8.50000000E-01
  8.50000000E-01  8.50000000E-01  8.50000000E-01  8.50000000E-01  8.50000000E-01
  8.50000000E-01  8.50000000E-01  8.50000000E-01  8.50000000E-01  8.50000000E-01
  8.50000000E-01  8.50000000E-01  8.50000000E-01  8.50000000E-01  8.50000000E-01
  8.50000000E-01  8.50000000E-01  8.50000000E-01  8.50000000E-01  8.50000000E-01
  8.50000000E-01  8.50000000E-01  8.50000000E-01  8.50000000E-01  8.50000000E-01
  8.50000000E-01  8.50000000E-01  8.50000000E-01  8.50000000E-01  8.50000000E-01
  8.50000000E-01  8.50000000E-01  8.50000000E-01  8.50000000E-01  8.50000000E-01
  8.50000000E-01  8.50000000E-01  8.50000000E-01  8.50000000E-01  8.50000000E-01
  8.50000000E-01  8.50000000E-01  8.50000000E-01  8.50000000E-01  8.50000000E-01
  8.50000000E-01  8.50000000E-01  8.50000000E-01  8.50000000E-01  8.50000000E-01
  8.50000000E-01  8.50000000E-01  8.50000000E-01  8.50000000E-01  8.50000000E-01
  8.50000000E-01  8.50000000E-01  8.50000000E-01  8.50000000E-01  8.50000000E-01
  8.50000000E-01  8.50000000E-01  8.50000000E-01  8.50000000E-01  8.50000000E-01
  8.50000000E-01  8.50000000E-01  8.50000000E-01  8.50000000E-01  8.50000000E-01
  8.50000000E-01  8.50000000E-01  8.50000000E-01  8.50000000E-01  8.50000000E-01
  8.50000000E-01  8.50000000E-01  8.50000000E-01  8.50000000E-01  8.50000000E-01
  8.50000000E-01  8.50000000E-01  8.50000000E-01  8.50000000E-01  8.50000000E-01
  8.50000000E-01  8.50000000E-01  8.50000000E-01  8.50000000E-01  8.50000000E-01
  8.50000000E-01  8.50000000E-01  8.50000000E-01  8.50000000E-01  8.50000000E-01
  8.50000000E-01  8.50000000E-01  8.50000000E-01  8.50000000E-01  8.50000000E-01
  8.50000000E-01  8.50000000E-01  8.50000000E-01  8.50000000E-01  8.50000000E-01
  8.50000000E-01  8.50000000E-01  8.50000000E-01  8.50000000E-01  8.50000000E-01
  8.50000000E-01  8.50000000E-01  8.50000000E-01  8.50000000E-01  8.50000000E-01
  8.50000000E-01  8.50000000E-01  8.50000000E-01  8.50000000E-01  8.50000000E-01
  8.50000000E-01  8.50000000E-01  8.50000000E-01  8.50000000E-01  8.50000000E-01
  8.50000000E-01  8.50000000E-01  8.50000000E-01  8.50000000E-01  8.50000000E-01
  8.50000000E-01  8.50000000E-01  8.50000000E-01  8.50000000E-01  8.50000000E-01
  8.50000000E-01  8.50000000E-01  8.50000000E-01  8.50000000E-01  8.50000000E-01
  8.50000000E-01  8.50000000E-01  8.50000000E-01  8.50000000E-01  8.50000000E-01
  8.50000000E-01  8.50000000E-01  8.50000000E-01  8.50000000E-01  8.50000000E-01
  8.50000000E-01  8.50000000E-01  8.50000000E-01  8.50000000E-01  8.50000000E-01
  8.50000000E-01  8.50000000E-01  8.50000000E-01  8.50000000E-01  8.50000000E-01
  8.50000000E-01  8.50000000E-01  8.50000000E-01  8.50000000E-01  8.50000000E-01
  8.50000000E-01  8.50000000E-01  8.50000000E-01  8.50000000E-01  8.50000000E-01
  8.50000000E-01  8.50000000E-01  8.50000000E-01  8.50000000E-01  8.50000000E-01
  8.50000000E-01  8.50000000E-01  8.50000000E-01  8.50000000E-01  8.50000000E-01
  8.50000000E-01  8.50000000E-01  8.50000000E-01  8.50000000E-01  8.50000000E-01
  8.50000000E-01  8.50000000E-01  8.50000000E-01  8.50000000E-01  8.50000000E-01
  8.50000000E-01  8.50000000E-01  8.50000000E-01  8.50000000E-01  8.50000000E-01
  8.50000000E-01  8.50000000E-01  8.50000000E-01  8.50000000E-01  8.50000000E-01
  8.50000000E-01  8.50000000E-01  8.50000000E-01  8.50000000E-01  8.50000000E-01
  8.50000000E-01  8.50000000E-01  8.50000000E-01  8.50000000E-01  8.50000000E-01
  8.50000000E-01  8.50000000E-01  8.50000000E-01  8.50000000E-01  8.50000000E-01
  8.50000000E-01  8.50000000E-01  8.50000000E-01  8.50000000E-01  8.50000000E-01
  8.50000000E-01  8.50000000E-01  8.50000000E-01  8.50000000E-01  8.50000000E-01
  8.50000000E-01  8.50000000E-01  8.50000000E-01  8.50000000E-01  8.50000000E-01
  8.50000000E-01  8.50000000E-01  8.50000000E-01  8.50000000E-01  8.50000000E-01
  8.50000000E-01  8.50000000E-01  8.50000000E-01  8.50000000E-01  8.50000000E-01
  8.50000000E-01  8.50000000E-01  8.50000000E-01  8.50000000E-01  8.50000000E-01
  8.50000000E-01  8.50000000E-01  8.50000000E-01  8.50000000E-01  8.50000000E-01
  8.50000000E-01  8.50000000E-01  8.50000000E-01  8.50000000E-01  8.50000000E-01
  8.50000000E-01  8.50000000E-01  8.50000000E-01  8.50000000E-01  8.50000000E-01
  8.50000000E-01  8.50000000E-01  8.50000000E-01  8.50000000E-01  8.50000000E-01
  8.50000000E-01  8.50000000E-01  8.50000000E-01  8.50000000E-01  8.50000000E-01
  8.50000000E-01  8.50000000E-01  8.50000000E-01  8.50000000E-01  8.50000000E-01
  8.50000000E-01  8.50000000E-01  8.50000000E-01  8.50000000E-01  8.50000000E-01
  8.50000000E-01  8.50000000E-01  8.50000000E-01  8.50000000E-01  8.50000000E-01
  8.50000000E-01  8.50000000E-01  8.50000000E-01  8.50000000E-01  8.50000000E-01
  8.50000000E-01  8.50000000E-01  8.50000000E-01  8.50000000E-01  8.50000000E-01
  8.50000000E-01  8.50000000E-01  8.50000000E-01  8.50000000E-01  8.50000000E-01
  8.50000000E-01  8.50000000E-01  8.50000000E-01  8.50000000E-01  8.50000000E-01
  8.50000000E-01  8.50000000E-01  8.50000000E-01  8.50000000E-01  8.50000000E-01
  8.50000000E-01  8.50000000E-01  8.50000000E-01  8.50000000E-01  8.50000000E-01
  8.50000000E-01  8.50000000E-01  8.50000000E-01  8.50000000E-01  8.50000000E-01
  8.50000000E-01  8.50000000E-01  8.50000000E-01  8.50000000E-01  8.50000000E-01
  8.50000000E-01  8.50000000E-01  8.50000000E-01  8.50000000E-01  8.50000000E-01
  8.50000000E-01  8.50000000E-01  8.50000000E-01  8.50000000E-01  8.50000000E-01
  8.50000000E-01  8.50000000E-01  8.50000000E-01  8.50000000E-01  8.50000000E-01
  8.50000000E-01  8.50000000E-01  8.50000000E-01  8.50000000E-01  8.50000000E-01
  8.50000000E-01  8.50000000E-01  8.50000000E-01  8.50000000E-01  8.50000000E-01
  8.50000000E-01  8.50000000E-01  8.50000000E-01  8.50000000E-01  8.50000000E-01
  8.50000000E-01  8.50000000E-01  8.50000000E-01  8.50000000E-01  8.50000000E-01
  8.50000000E-01  8.50000000E-01  8.50000000E-01  8.50000000E-01  8.50000000E-01
  8.50000000E-01  8.50000000E-01  8.50000000E-01  8.50000000E-01  8.50000000E-01
  8.50000000E-01  8.50000000E-01  8.50000000E-01  8.50000000E-01  8.50000000E-01
  8.50000000E-01  8.50000000E-01  8.50000000E-01  8.50000000E-01  8.50000000E-01
  8.50000000E-01  8.50000000E-01  8.50000000E-01  8.50000000E-01  8.50000000E-01
  8.50000000E-01  8.50000000E-01  8.50000000E-01  8.50000000E-01  8.50000000E-01
  8.50000000E-01  8.50000000E-01  8.50000000E-01  8.50000000E-01  8.50000000E-01
  8.50000000E-01  8.50000000E-01  8.50000000E-01  8.50000000E-01  8.50000000E-01
  8.50000000E-01  8.50000000E-01  8.50000000E-01  8.50000000E-01  8.50000000E-01
  8.50000000E-01  8.50000000E-01  8.50000000E-01  8.50000000E-01  8.50000000E-01
  8.50000000E-01  8.50000000E-01  8.50000000E-01  8.50000000E-01  8.50000000E-01
  8.50000000E-01  8.50000000E-01  8.50000000E-01  8.50000000E-01  8.50000000E-01
  8.50000000E-01  8.50000000E-01  8.50000000E-01  8.50000000E-01  8.50000000E-01
  8.50000000E-01  8.50000000E-01  8.50000000E-01  8.50000000E-01  8.50000000E-01
  8.50000000E-01  8.50000000E-01  8.50000000E-01  8.50000000E-01  8.50000000E-01
  8.50000000E-01  8.50000000E-01  8.50000000E-01  8.50000000E-01  8.50000000E-01
  8.50000000E-01  8.50000000E-01  8.50000000E-01  8.50000000E-01  8.50000000E-01
  8.50000000E-01  8.50000000E-01  8.50000000E-01  8.50000000E-01  8.50000000E-01
  8.50000000E-01  8.50000000E-01  8.50000000E-01  8.50000000E-01  8.50000000E-01
  8.50000000E-01  8.50000000E-01  8.50000000E-01  8.50000000E-01  8.50000000E-01
  8.50000000E-01  8.50000000E-01  8.50000000E-01  8.50000000E-01  8.50000000E-01
  8.50000000E-01  8.50000000E-01  8.50000000E-01  8.50000000E-01  8.50000000E-01
  8.50000000E-01  8.50000000E-01  8.50000000E-01  8.50000000E-01  8.50000000E-01
  8.50000000E-01  8.50000000E-01  8.50000000E-01  8.50000000E-01  8.50000000E-01
  8.50000000E-01  8.50000000E-01  8.50000000E-01  8.50000000E-01  8.50000000E-01
  8.50000000E-01  8.50000000E-01  8.50000000E-01  8.50000000E-01  8.50000000E-01
  8.50000000E-01  8.50000000E-01  8.50000000E-01  8.50000000E-01  8.50000000E-01
  8.50000000E-01  8.50000000E-01  8.50000000E-01  8.50000000E-01  8.50000000E-01
  8.50000000E-01  8.50000000E-01  8.50000000E-01  8.50000000E-01  8.50000000E-01
  8.50000000E-01  8.50000000E-01  8.50000000E-01  8.50000000E-01  8.50000000E-01
  8.50000000E-01  8.50000000E-01  8.50000000E-01  8.50000000E-01  8.50000000E-01
  8.50000000E-01  8.50000000E-01  8.50000000E-01  8.50000000E-01  8.50000000E-01
  8.50000000E-01  8.50000000E-01  8.50000000E-01  8.50000000E-01  8.50000000E-01
  8.50000000E-01  8.50000000E-01  8.50000000E-01  8.50000000E-01  8.50000000E-01
  8.50000000E-01  8.50000000E-01  8.50000000E-01  8.50000000E-01  8.50000000E-01
  8.50000000E-01  8.50000000E-01  8.50000000E-01  8.50000000E-01  8.50000000E-01
  8.50000000E-01  8.50000000E-01  8.50000000E-01  8.50000000E-01  8.50000000E-01
  8.50000000E-01  8.50000000E-01  8.50000000E-01  8.50000000E-01  8.50000000E-01
  8.50000000E-01  8.50000000E-01  8.50000000E-01  8.50000000E-01  8.50000000E-01
  8.50000000E-01  8.50000000E-01  8.50000000E-01  8.50000000E-01  8.50000000E-01
  8.50000000E-01  8.50000000E-01  8.50000000E-01  8.50000000E-01  8.50000000E-01
  8.50000000E-01  8.50000000E-01  8.50000000E-01  8.50000000E-01  8.50000000E-01
  8.50000000E-01  8.50000000E-01  8.50000000E-01  8.50000000E-01  8.50000000E-01
  8.50000000E-01  8.50000000E-01  8.50000000E-01  8.50000000E-01  8.50000000E-01
  8.50000000E-01  8.50000000E-01  8.50000000E-01  8.50000000E-01  8.50000000E-01
  8.50000000E-01  8.50000000E-01  8.50000000E-01  8.50000000E-01  8.50000000E-01
  8.50000000E-01  8.50000000E-01  8.50000000E-01  8.50000000E-01  8.50000000E-01
  8.50000000E-01  8.50000000E-01  8.50000000E-01  8.50000000E-01  8.50000000E-01
  8.50000000E-01  8.50000000E-01  8.50000000E-01  8.50000000E-01  8.50000000E-01
  8.50000000E-01  8.50000000E-01  8.50000000E-01  8.50000000E-01  8.50000000E-01
  8.50000000E-01  8.50000000E-01  8.50000000E-01  8.50000000E-01  8.50000000E-01
  8.50000000E-01  8.50000000E-01  8.50000000E-01  8.50000000E-01  8.50000000E-01
  8.50000000E-01  8.50000000E-01  8.50000000E-01  8.50000000E-01  8.50000000E-01
  8.50000000E-01  8.50000000E-01  8.50000000E-01  8.50000000E-01  8.50000000E-01
  8.50000000E-01  8.50000000E-01  8.50000000E-01  8.50000000E-01  8.50000000E-01
  8.50000000E-01  8.50000000E-01  8.50000000E-01  8.50000000E-01  8.50000000E-01
  8.50000000E-01  8.50000000E-01  8.50000000E-01  8.50000000E-01  8.50000000E-01
  8.50000000E-01  8.50000000E-01  8.50000000E-01  8.50000000E-01  8.50000000E-01
  8.50000000E-01  8.50000000E-01  8.50000000E-01  8.50000000E-01  8.50000000E-01
  8.50000000E-01  8.50000000E-01  8.50000000E-01  8.50000000E-01  8.50000000E-01
  8.50000000E-01  8.50000000E-01  8.50000000E-01  8.50000000E-01  8.50000000E-01
  8.50000000E-01  8.50000000E-01  8.50000000E-01  8.50000000E-01  8.50000000E-01
  8.50000000E-01  8.50000000E-01  8.50000000E-01  8.50000000E-01  8.50000000E-01
  8.50000000E-01  8.50000000E-01  8.50000000E-01  8.50000000E-01  8.50000000E-01
  8.50000000E-01  8.50000000E-01  8.50000000E-01  8.50000000E-01  8.50000000E-01
  8.50000000E-01  8.50000000E-01  8.50000000E-01  8.50000000E-01  8.50000000E-01
  8.50000000E-01  8.50000000E-01  8.50000000E-01  8.50000000E-01  8.50000000E-01
  8.50000000E-01  8.50000000E-01  8.50000000E-01  8.50000000E-01  8.50000000E-01
  8.50000000E-01  8.50000000E-01  8.50000000E-01  8.50000000E-01  8.50000000E-01
  8.50000000E-01  8.50000000E-01  8.50000000E-01  8.50000000E-01  8.50000000E-01
  8.50000000E-01  8.50000000E-01  8.50000000E-01  8.50000000E-01  8.50000000E-01
  8.50000000E-01  8.50000000E-01  8.50000000E-01  8.50000000E-01  8.50000000E-01
  8.50000000E-01  8.50000000E-01  8.50000000E-01  8.50000000E-01  8.50000000E-01
  8.50000000E-01  8.50000000E-01  8.50000000E-01  8.50000000E-01  8.50000000E-01
  8.50000000E-01  8.50000000E-01  8.50000000E-01  8.50000000E-01  8.50000000E-01
  8.50000000E-01  8.50000000E-01  8.50000000E-01  8.50000000E-01  8.50000000E-01
  8.50000000E-01  8.50000000E-01  8.50000000E-01  8.50000000E-01  8.50000000E-01
  8.50000000E-01  8.50000000E-01  8.50000000E-01  8.50000000E-01  8.50000000E-01
  8.50000000E-01  8.50000000E-01  8.50000000E-01  8.50000000E-01  8.50000000E-01
  8.50000000E-01  8.50000000E-01  8.50000000E-01  8.50000000E-01  8.50000000E-01
  8.50000000E-01  8.50000000E-01  8.50000000E-01  8.50000000E-01  8.50000000E-01
  8.50000000E-01  8.50000000E-01  8.50000000E-01  8.50000000E-01  8.50000000E-01
  8.50000000E-01  8.50000000E-01  8.50000000E-01  8.50000000E-01  8.50000000E-01
  8.50000000E-01  8.50000000E-01  8.50000000E-01  8.50000000E-01  8.50000000E-01
  8.50000000E-01  8.50000000E-01  8.50000000E-01  8.50000000E-01  8.50000000E-01
  8.50000000E-01  8.50000000E-01  8.50000000E-01  8.50000000E-01  8.50000000E-01
  8.50000000E-01  8.50000000E-01  8.50000000E-01  8.50000000E-01  8.50000000E-01
  8.50000000E-01  8.50000000E-01  8.50000000E-01  8.50000000E-01  8.50000000E-01
  8.50000000E-01  8.50000000E-01  8.50000000E-01  8.50000000E-01  8.50000000E-01
  8.50000000E-01  8.50000000E-01  8.50000000E-01  8.50000000E-01  8.50000000E-01
  8.50000000E-01  8.50000000E-01  8.50000000E-01  8.50000000E-01  8.50000000E-01
  8.50000000E-01  8.50000000E-01  8.50000000E-01  8.50000000E-01  8.50000000E-01
  8.50000000E-01  8.50000000E-01  8.50000000E-01  8.50000000E-01  8.50000000E-01
  8.50000000E-01  8.50000000E-01  8.50000000E-01  8.50000000E-01  8.50000000E-01
  8.50000000E-01  8.50000000E-01  8.50000000E-01  8.50000000E-01  8.50000000E-01
  8.50000000E-01  8.50000000E-01  8.50000000E-01  8.50000000E-01  8.50000000E-01
  8.50000000E-01  8.50000000E-01  8.50000000E-01  8.50000000E-01  8.50000000E-01
  8.50000000E-01  8.50000000E-01  8.50000000E-01  8.50000000E-01  8.50000000E-01
  8.50000000E-01  8.50000000E-01  8.50000000E-01  8.50000000E-01  8.50000000E-01
  8.50000000E-01  8.50000000E-01  8.50000000E-01  8.50000000E-01  8.50000000E-01
  8.50000000E-01  8.50000000E-01  8.50000000E-01  8.50000000E-01  8.50000000E-01
  8.50000000E-01  8.50000000E-01  8.50000000E-01  8.50000000E-01  8.50000000E-01
  8.50000000E-01  8.50000000E-01  8.50000000E-01  8.50000000E-01  8.50000000E-01
  8.50000000E-01  8.50000000E-01  8.50000000E-01  8.50000000E-01  8.50000000E-01
  8.50000000E-01  8.50000000E-01  8.50000000E-01  8.50000000E-01  8.50000000E-01
  8.50000000E-01  8.50000000E-01  8.50000000E-01  8.50000000E-01  8.50000000E-01
  8.50000000E-01  8.50000000E-01  8.50000000E-01  8.50000000E-01  8.50000000E-01
  8.50000000E-01  8.50000000E-01  8.50000000E-01  8.50000000E-01  8.50000000E-01
  8.50000000E-01  8.50000000E-01  8.50000000E-01  8.50000000E-01  8.50000000E-01
  8.50000000E-01  8.50000000E-01  8.50000000E-01  8.50000000E-01  8.50000000E-01
  8.50000000E-01  8.50000000E-01  8.50000000E-01  8.50000000E-01  8.50000000E-01
  8.50000000E-01  8.50000000E-01  8.50000000E-01  8.50000000E-01  8.50000000E-01
  8.50000000E-01  8.50000000E-01  8.50000000E-01  8.50000000E-01  8.50000000E-01
  8.50000000E-01  8.50000000E-01  8.50000000E-01  8.50000000E-01  8.50000000E-01
  8.50000000E-01  8.50000000E-01  8.50000000E-01  8.50000000E-01  8.50000000E-01
  8.50000000E-01  8.50000000E-01  8.50000000E-01  8.50000000E-01  8.50000000E-01
  8.50000000E-01  8.50000000E-01  8.50000000E-01  8.50000000E-01  8.50000000E-01
  8.50000000E-01  8.50000000E-01  8.50000000E-01  8.50000000E-01  8.50000000E-01
  8.50000000E-01  8.50000000E-01  8.50000000E-01  8.50000000E-01  8.50000000E-01
  8.50000000E-01  8.50000000E-01  8.50000000E-01  8.50000000E-01  8.50000000E-01
  8.50000000E-01  8.50000000E-01  8.50000000E-01  8.50000000E-01  8.50000000E-01
  8.50000000E-01  8.50000000E-01  8.50000000E-01  8.50000000E-01  8.50000000E-01
  8.50000000E-01  8.50000000E-01  8.50000000E-01  8.50000000E-01  8.50000000E-01
  8.50000000E-01  8.50000000E-01  8.50000000E-01  8.50000000E-01  8.50000000E-01
  8.50000000E-01  8.50000000E-01  8.50000000E-01  8.50000000E-01  8.50000000E-01
  8.50000000E-01  8.50000000E-01  8.50000000E-01  8.50000000E-01  8.50000000E-01
  8.50000000E-01  8.50000000E-01  8.50000000E-01  8.50000000E-01  8.50000000E-01
  8.50000000E-01  8.50000000E-01  8.50000000E-01  8.50000000E-01  8.50000000E-01
  8.50000000E-01  8.50000000E-01  8.50000000E-01  8.50000000E-01  8.50000000E-01
  8.50000000E-01  8.50000000E-01  8.50000000E-01  8.50000000E-01  8.50000000E-01
  8.50000000E-01  8.50000000E-01  8.50000000E-01  8.50000000E-01  8.50000000E-01
  8.50000000E-01  8.50000000E-01  8.50000000E-01  8.50000000E-01  8.50000000E-01
  8.50000000E-01  8.50000000E-01  8.50000000E-01  8.50000000E-01  8.50000000E-01
  8.50000000E-01  8.50000000E-01  8.50000000E-01  8.50000000E-01  8.50000000E-01
  8.50000000E-01  8.50000000E-01  8.50000000E-01  8.50000000E-01  8.50000000E-01
  8.50000000E-01  8.50000000E-01  8.50000000E-01  8.50000000E-01  8.50000000E-01
  8.50000000E-01  8.50000000E-01  8.50000000E-01  8.50000000E-01  8.50000000E-01
  8.50000000E-01  8.50000000E-01  8.50000000E-01  8.50000000E-01  8.50000000E-01
  8.50000000E-01  8.50000000E-01  8.50000000E-01  8.50000000E-01  8.50000000E-01
  8.50000000E-01  8.50000000E-01  8.50000000E-01  8.50000000E-01  8.50000000E-01
  8.50000000E-01  8.50000000E-01  8.50000000E-01  8.50000000E-01  8.50000000E-01
  8.50000000E-01  8.50000000E-01  8.50000000E-01  8.50000000E-01  8.50000000E-01
  8.50000000E-01  8.50000000E-01  8.50000000E-01  8.50000000E-01  8.50000000E-01
  8.50000000E-01  8.50000000E-01  8.50000000E-01  8.50000000E-01  8.50000000E-01
  8.50000000E-01  8.50000000E-01  8.50000000E-01  8.50000000E-01  8.50000000E-01
  8.50000000E-01  8.50000000E-01  8.50000000E-01  8.50000000E-01  8.50000000E-01
  8.50000000E-01  8.50000000E-01  8.50000000E-01  8.50000000E-01  8.50000000E-01
  8.50000000E-01  8.50000000E-01  8.50000000E-01  8.50000000E-01  8.50000000E-01
  8.50000000E-01  8.50000000E-01  8.50000000E-01  8.50000000E-01  8.50000000E-01
  8.50000000E-01  8.50000000E-01  8.50000000E-01  8.50000000E-01  8.50000000E-01
  8.50000000E-01  8.50000000E-01  8.50000000E-01  8.50000000E-01  8.50000000E-01
  8.50000000E-01  8.50000000E-01  8.50000000E-01  8.50000000E-01  8.50000000E-01
  8.50000000E-01  8.50000000E-01  8.50000000E-01  8.50000000E-01  8.50000000E-01
  8.50000000E-01  8.50000000E-01  8.50000000E-01  8.50000000E-01  8.50000000E-01
  8.50000000E-01  8.50000000E-01  8.50000000E-01  8.50000000E-01  8.50000000E-01
  8.50000000E-01  8.50000000E-01  8.50000000E-01  8.50000000E-01  8.50000000E-01
  8.50000000E-01  8.50000000E-01  8.50000000E-01  8.50000000E-01  8.50000000E-01
  8.50000000E-01  8.50000000E-01  8.50000000E-01  8.50000000E-01  8.50000000E-01
  8.50000000E-01  8.50000000E-01  8.50000000E-01  8.50000000E-01  8.50000000E-01
  8.50000000E-01  8.50000000E-01  8.50000000E-01  8.50000000E-01  8.50000000E-01
  8.50000000E-01  8.50000000E-01  8.50000000E-01  8.50000000E-01  8.50000000E-01
  8.50000000E-01  8.50000000E-01  8.50000000E-01  8.50000000E-01  8.50000000E-01
  8.50000000E-01  8.50000000E-01  8.50000000E-01  8.50000000E-01  8.50000000E-01
  8.50000000E-01  8.50000000E-01  8.50000000E-01  8.50000000E-01  8.50000000E-01
  8.50000000E-01  8.50000000E-01  8.50000000E-01  8.50000000E-01  8.50000000E-01
  8.50000000E-01  8.50000000E-01  8.50000000E-01  8.50000000E-01  8.50000000E-01
  8.50000000E-01  8.50000000E-01  8.50000000E-01  8.50000000E-01  8.50000000E-01
  8.50000000E-01  8.50000000E-01  8.50000000E-01  8.50000000E-01  8.50000000E-01
  8.50000000E-01  8.50000000E-01  8.50000000E-01  8.50000000E-01  8.50000000E-01
  8.50000000E-01  8.50000000E-01  8.50000000E-01  8.50000000E-01  8.50000000E-01
  8.50000000E-01  8.50000000E-01  8.50000000E-01  8.50000000E-01  8.50000000E-01
  8.50000000E-01  8.50000000E-01  8.50000000E-01  8.50000000E-01  8.50000000E-01
  8.50000000E-01  8.50000000E-01  8.50000000E-01  8.50000000E-01  8.50000000E-01
  8.50000000E-01  8.50000000E-01  8.50000000E-01  8.50000000E-01  8.50000000E-01
  8.50000000E-01  8.50000000E-01  8.50000000E-01  8.50000000E-01  8.50000000E-01
  8.50000000E-01  8.50000000E-01  8.50000000E-01  8.50000000E-01  8.50000000E-01
  8.50000000E-01  8.50000000E-01  8.50000000E-01  8.50000000E-01  8.50000000E-01
  8.50000000E-01  8.50000000E-01  8.50000000E-01  8.50000000E-01  8.50000000E-01
  8.50000000E-01  8.50000000E-01  8.50000000E-01  8.50000000E-01  8.50000000E-01
  8.50000000E-01  8.50000000E-01  8.50000000E-01  8.50000000E-01  8.50000000E-01
  8.50000000E-01  8.50000000E-01  8.50000000E-01  8.50000000E-01  8.50000000E-01
  8.50000000E-01  8.50000000E-01  8.50000000E-01  8.50000000E-01  8.50000000E-01
  8.50000000E-01  8.50000000E-01  8.50000000E-01  8.50000000E-01  8.50000000E-01
  8.50000000E-01  8.50000000E-01  8.50000000E-01  8.50000000E-01  8.50000000E-01
  8.50000000E-01  8.50000000E-01  8.50000000E-01  8.50000000E-01  8.50000000E-01
  8.50000000E-01  8.50000000E-01  8.50000000E-01  8.50000000E-01  8.50000000E-01
  8.50000000E-01  8.50000000E-01  8.50000000E-01  8.50000000E-01  8.50000000E-01
  8.50000000E-01  8.50000000E-01  8.50000000E-01  8.50000000E-01  8.50000000E-01
  8.50000000E-01  8.50000000E-01  8.50000000E-01  8.50000000E-01  8.50000000E-01
  8.50000000E-01  8.50000000E-01  8.50000000E-01  8.50000000E-01  8.50000000E-01
  8.50000000E-01  8.50000000E-01  8.50000000E-01  8.50000000E-01  8.50000000E-01
  8.50000000E-01  8.50000000E-01  8.50000000E-01  8.50000000E-01  8.50000000E-01
  8.50000000E-01  8.50000000E-01  8.50000000E-01  8.50000000E-01  8.50000000E-01
  8.50000000E-01  8.50000000E-01  8.50000000E-01  8.50000000E-01  8.50000000E-01
  8.50000000E-01  8.50000000E-01  8.50000000E-01  8.50000000E-01  8.50000000E-01
  8.50000000E-01  8.50000000E-01  8.50000000E-01  8.50000000E-01  8.50000000E-01
  8.50000000E-01  8.50000000E-01  8.50000000E-01  8.50000000E-01  8.50000000E-01
  8.50000000E-01  8.50000000E-01  8.50000000E-01  8.50000000E-01  8.50000000E-01
  8.50000000E-01  8.50000000E-01  8.50000000E-01  8.50000000E-01  8.50000000E-01
  8.50000000E-01  8.50000000E-01  8.50000000E-01  8.50000000E-01  8.50000000E-01
  8.50000000E-01  8.50000000E-01  8.50000000E-01  8.50000000E-01  8.50000000E-01
  8.50000000E-01  8.50000000E-01  8.50000000E-01  8.50000000E-01  8.50000000E-01
  8.50000000E-01  8.50000000E-01  8.50000000E-01  8.50000000E-01  8.50000000E-01
  8.50000000E-01  8.50000000E-01  8.50000000E-01  8.50000000E-01  8.50000000E-01
  8.50000000E-01  8.50000000E-01  8.50000000E-01  8.50000000E-01  8.50000000E-01
  8.50000000E-01  8.50000000E-01  8.50000000E-01  8.50000000E-01  8.50000000E-01
  8.50000000E-01  8.50000000E-01  8.50000000E-01  8.50000000E-01  8.50000000E-01
  8.50000000E-01  8.50000000E-01  8.50000000E-01  8.50000000E-01  8.50000000E-01
  8.50000000E-01  8.50000000E-01  8.50000000E-01  8.50000000E-01  8.50000000E-01
  8.50000000E-01  8.50000000E-01  8.50000000E-01  8.50000000E-01  8.50000000E-01
  8.50000000E-01  8.50000000E-01  8.50000000E-01  8.50000000E-01  8.50000000E-01
  8.50000000E-01  8.50000000E-01  8.50000000E-01  8.50000000E-01  8.50000000E-01
  8.50000000E-01  8.50000000E-01  8.50000000E-01  8.50000000E-01  8.50000000E-01
  8.50000000E-01  8.50000000E-01  8.50000000E-01  8.50000000E-01  8.50000000E-01
  8.50000000E-01  8.50000000E-01  8.50000000E-01  8.50000000E-01  8.50000000E-01
  8.50000000E-01  8.50000000E-01  8.50000000E-01  8.50000000E-01  8.50000000E-01
  8.50000000E-01  8.50000000E-01  8.50000000E-01  8.50000000E-01  8.50000000E-01
  8.50000000E-01  8.50000000E-01  8.50000000E-01  8.50000000E-01  8.50000000E-01
  8.50000000E-01  8.50000000E-01  8.50000000E-01  8.50000000E-01  8.50000000E-01
  8.50000000E-01  8.50000000E-01  8.50000000E-01  8.50000000E-01  8.50000000E-01
  8.50000000E-01  8.50000000E-01  8.50000000E-01  8.50000000E-01  8.50000000E-01
  8.50000000E-01  8.50000000E-01  8.50000000E-01  8.50000000E-01  8.50000000E-01
  8.50000000E-01  8.50000000E-01  8.50000000E-01  8.50000000E-01  8.50000000E-01
  8.50000000E-01  8.50000000E-01  8.50000000E-01  8.50000000E-01  8.50000000E-01
  8.50000000E-01  8.50000000E-01  8.50000000E-01  8.50000000E-01  8.50000000E-01
  8.50000000E-01  8.50000000E-01  8.50000000E-01  8.50000000E-01  8.50000000E-01
  8.50000000E-01  8.50000000E-01  8.50000000E-01  8.50000000E-01  8.50000000E-01
  8.50000000E-01  8.50000000E-01  8.50000000E-01  8.50000000E-01  8.50000000E-01
  8.50000000E-01  8.50000000E-01  8.50000000E-01  8.50000000E-01  8.50000000E-01
  8.50000000E-01  8.50000000E-01  8.50000000E-01  8.50000000E-01  8.50000000E-01
  8.50000000E-01  8.50000000E-01  8.50000000E-01  8.50000000E-01  8.50000000E-01
  8.50000000E-01  8.50000000E-01  8.50000000E-01  8.50000000E-01  8.50000000E-01
  8.50000000E-01  8.50000000E-01  8.50000000E-01  8.50000000E-01  8.50000000E-01
  8.50000000E-01  8.50000000E-01  8.50000000E-01  8.50000000E-01  8.50000000E-01
  8.50000000E-01  8.50000000E-01  8.50000000E-01  8.50000000E-01  8.50000000E-01
  8.50000000E-01  8.50000000E-01  8.50000000E-01  8.50000000E-01  8.50000000E-01
  8.50000000E-01  8.50000000E-01  8.50000000E-01  8.50000000E-01  8.50000000E-01
  8.50000000E-01  8.50000000E-01  8.50000000E-01  8.50000000E-01  8.50000000E-01
  8.50000000E-01  8.50000000E-01  8.50000000E-01  8.50000000E-01  8.50000000E-01
  8.50000000E-01  8.50000000E-01  8.50000000E-01  8.50000000E-01  8.50000000E-01
  8.50000000E-01  8.50000000E-01  8.50000000E-01  8.50000000E-01  8.50000000E-01
  8.50000000E-01  8.50000000E-01  8.50000000E-01  8.50000000E-01  8.50000000E-01
  8.50000000E-01  8.50000000E-01  8.50000000E-01  8.50000000E-01  8.50000000E-01
  8.50000000E-01  8.50000000E-01  8.50000000E-01  8.50000000E-01  8.50000000E-01
  8.50000000E-01  8.50000000E-01  8.50000000E-01  8.50000000E-01  8.50000000E-01
  8.50000000E-01  8.50000000E-01  8.50000000E-01  8.50000000E-01  8.50000000E-01
  8.50000000E-01  8.50000000E-01  8.50000000E-01  8.50000000E-01  8.50000000E-01
  8.50000000E-01  8.50000000E-01  8.50000000E-01  8.50000000E-01  8.50000000E-01
  8.50000000E-01  8.50000000E-01  8.50000000E-01  8.50000000E-01  8.50000000E-01
  8.50000000E-01  8.50000000E-01  8.50000000E-01  8.50000000E-01  8.50000000E-01
  8.50000000E-01  8.50000000E-01  8.50000000E-01  8.50000000E-01  8.50000000E-01
  8.50000000E-01  8.50000000E-01  8.50000000E-01  8.50000000E-01  8.50000000E-01
  8.50000000E-01  8.50000000E-01  8.50000000E-01  8.50000000E-01  8.50000000E-01
  8.50000000E-01  8.50000000E-01  8.50000000E-01  8.50000000E-01  8.50000000E-01
  8.50000000E-01  8.50000000E-01  8.50000000E-01  8.50000000E-01  8.50000000E-01
  8.50000000E-01  8.50000000E-01  8.50000000E-01  8.50000000E-01  8.50000000E-01
  8.50000000E-01  8.50000000E-01  8.50000000E-01  8.50000000E-01  8.50000000E-01
  8.50000000E-01  8.50000000E-01  8.50000000E-01  8.50000000E-01  8.50000000E-01
  8.50000000E-01  8.50000000E-01  8.50000000E-01  8.50000000E-01  8.50000000E-01
  8.50000000E-01  8.50000000E-01  8.50000000E-01  8.50000000E-01  8.50000000E-01
  8.50000000E-01  8.50000000E-01  8.50000000E-01  8.50000000E-01  8.50000000E-01
  8.50000000E-01  8.50000000E-01  8.50000000E-01  8.50000000E-01  8.50000000E-01
  8.50000000E-01  8.50000000E-01  8.50000000E-01  8.50000000E-01  8.50000000E-01
  8.50000000E-01  8.50000000E-01  8.50000000E-01  8.50000000E-01  8.50000000E-01
  8.50000000E-01  8.50000000E-01  8.50000000E-01  8.50000000E-01  8.50000000E-01
  8.50000000E-01  8.50000000E-01  8.50000000E-01  8.50000000E-01  8.50000000E-01
  8.50000000E-01  8.50000000E-01  8.50000000E-01  8.50000000E-01  8.50000000E-01
  8.50000000E-01  8.50000000E-01  8.50000000E-01  8.50000000E-01  8.50000000E-01
  8.50000000E-01  8.50000000E-01  8.50000000E-01  8.50000000E-01  8.50000000E-01
  8.50000000E-01  8.50000000E-01  8.50000000E-01  8.50000000E-01  8.50000000E-01
  8.50000000E-01  8.50000000E-01  8.50000000E-01  8.50000000E-01  8.50000000E-01
  8.50000000E-01  8.50000000E-01  8.50000000E-01  8.50000000E-01  8.50000000E-01
  8.50000000E-01  8.50000000E-01  8.50000000E-01  8.50000000E-01  8.50000000E-01
  8.50000000E-01  8.50000000E-01  8.50000000E-01  8.50000000E-01  8.50000000E-01
  8.50000000E-01  8.50000000E-01  8.50000000E-01  8.50000000E-01  8.50000000E-01
  8.50000000E-01  8.50000000E-01  8.50000000E-01  8.50000000E-01  8.50000000E-01
  8.50000000E-01  8.50000000E-01  8.50000000E-01  8.50000000E-01  8.50000000E-01
  8.50000000E-01  8.50000000E-01  8.50000000E-01  8.50000000E-01  8.50000000E-01
  8.50000000E-01  8.50000000E-01  8.50000000E-01  8.50000000E-01  8.50000000E-01
  8.50000000E-01  8.50000000E-01  8.50000000E-01  8.50000000E-01  8.50000000E-01
  8.50000000E-01  8.50000000E-01  8.50000000E-01  8.50000000E-01  8.50000000E-01
  8.50000000E-01  8.50000000E-01  8.50000000E-01  8.50000000E-01  8.50000000E-01
  8.50000000E-01  8.50000000E-01  8.50000000E-01  8.50000000E-01  8.50000000E-01
  8.50000000E-01  8.50000000E-01  8.50000000E-01  8.50000000E-01  8.50000000E-01
  8.50000000E-01  8.50000000E-01  8.50000000E-01  8.50000000E-01  8.50000000E-01
  8.50000000E-01  8.50000000E-01  8.50000000E-01  8.50000000E-01  8.50000000E-01
  8.50000000E-01  8.50000000E-01  8.50000000E-01  8.50000000E-01  8.50000000E-01
  8.50000000E-01  8.50000000E-01  8.50000000E-01  8.50000000E-01  8.50000000E-01
  8.50000000E-01  8.50000000E-01  8.50000000E-01  8.50000000E-01  8.50000000E-01
  8.50000000E-01  8.50000000E-01  8.50000000E-01  8.50000000E-01  8.50000000E-01
  8.50000000E-01  8.50000000E-01  8.50000000E-01  8.50000000E-01  8.50000000E-01
  8.50000000E-01  8.50000000E-01  8.50000000E-01  8.50000000E-01  8.50000000E-01
  8.50000000E-01  8.50000000E-01  8.50000000E-01  8.50000000E-01  8.50000000E-01
  8.50000000E-01  8.50000000E-01  8.50000000E-01  8.50000000E-01  8.50000000E-01
  8.50000000E-01  8.50000000E-01  8.50000000E-01  8.50000000E-01  8.50000000E-01
  8.50000000E-01  8.50000000E-01  8.50000000E-01  8.50000000E-01  8.50000000E-01
  8.50000000E-01  8.50000000E-01  8.50000000E-01  8.50000000E-01  8.50000000E-01
  8.50000000E-01  8.50000000E-01  8.50000000E-01  8.50000000E-01  8.50000000E-01
  8.50000000E-01  8.50000000E-01  8.50000000E-01  8.50000000E-01  8.50000000E-01
  8.50000000E-01  8.50000000E-01  8.50000000E-01  8.50000000E-01  8.50000000E-01
  8.50000000E-01  8.50000000E-01  8.50000000E-01  8.50000000E-01  8.50000000E-01
  8.50000000E-01  8.50000000E-01  8.50000000E-01  8.50000000E-01  8.50000000E-01
  8.50000000E-01  8.50000000E-01  8.50000000E-01  8.50000000E-01  8.50000000E-01
  8.50000000E-01  8.50000000E-01  8.50000000E-01  8.50000000E-01  8.50000000E-01
  8.50000000E-01  8.50000000E-01  8.50000000E-01  8.50000000E-01  8.50000000E-01
  8.50000000E-01  8.50000000E-01  8.50000000E-01  8.50000000E-01  8.50000000E-01
  8.50000000E-01  8.50000000E-01  8.50000000E-01  8.50000000E-01  8.50000000E-01
  8.50000000E-01  8.50000000E-01  8.50000000E-01  8.50000000E-01  8.50000000E-01
  8.50000000E-01  8.50000000E-01  8.50000000E-01  8.50000000E-01  8.50000000E-01
  8.50000000E-01  8.50000000E-01  8.50000000E-01  8.50000000E-01  8.50000000E-01
  8.50000000E-01  8.50000000E-01  8.50000000E-01  8.50000000E-01  8.50000000E-01
  8.50000000E-01  8.50000000E-01  8.50000000E-01  8.50000000E-01  8.50000000E-01
  8.50000000E-01  8.50000000E-01  8.50000000E-01  8.50000000E-01  8.50000000E-01
  8.50000000E-01  8.50000000E-01  8.50000000E-01  8.50000000E-01  8.50000000E-01
  8.50000000E-01  8.50000000E-01  8.50000000E-01  8.50000000E-01  8.50000000E-01
  8.50000000E-01  8.50000000E-01  8.50000000E-01  8.50000000E-01  8.50000000E-01
  8.50000000E-01  8.50000000E-01  8.50000000E-01  8.50000000E-01  8.50000000E-01
  8.50000000E-01  8.50000000E-01  8.50000000E-01  8.50000000E-01  8.50000000E-01
  8.50000000E-01  8.50000000E-01  8.50000000E-01  8.50000000E-01  8.50000000E-01
  8.50000000E-01  8.50000000E-01  8.50000000E-01  8.50000000E-01  8.50000000E-01
  8.50000000E-01  8.50000000E-01  8.50000000E-01  8.50000000E-01  8.50000000E-01
  8.50000000E-01  8.50000000E-01  8.50000000E-01  8.50000000E-01  8.50000000E-01
  8.50000000E-01  8.50000000E-01  8.50000000E-01  8.50000000E-01  8.50000000E-01
  8.50000000E-01  8.50000000E-01  8.50000000E-01  8.50000000E-01  8.50000000E-01
  8.50000000E-01  8.50000000E-01  8.50000000E-01  8.50000000E-01  8.50000000E-01
  8.50000000E-01  8.50000000E-01  8.50000000E-01  8.50000000E-01  8.50000000E-01
  8.50000000E-01  8.50000000E-01  8.50000000E-01  8.50000000E-01  8.50000000E-01
  8.50000000E-01  8.50000000E-01  8.50000000E-01  8.50000000E-01  8.50000000E-01
  8.50000000E-01  8.50000000E-01  8.50000000E-01  8.50000000E-01  8.50000000E-01
  8.50000000E-01  8.50000000E-01  8.50000000E-01  8.50000000E-01  8.50000000E-01
  8.50000000E-01  8.50000000E-01  8.50000000E-01  8.50000000E-01  8.50000000E-01
  8.50000000E-01  8.50000000E-01  8.50000000E-01  8.50000000E-01  8.50000000E-01
  8.50000000E-01  8.50000000E-01  8.50000000E-01  8.50000000E-01  8.50000000E-01
  8.50000000E-01  8.50000000E-01  8.50000000E-01  8.50000000E-01  8.50000000E-01
  8.50000000E-01  8.50000000E-01  8.50000000E-01  8.50000000E-01  8.50000000E-01
  8.50000000E-01  8.50000000E-01  8.50000000E-01  8.50000000E-01  8.50000000E-01
  8.50000000E-01  8.50000000E-01  8.50000000E-01  8.50000000E-01  8.50000000E-01
  8.50000000E-01  8.50000000E-01  8.50000000E-01  8.50000000E-01  8.50000000E-01
  8.50000000E-01  8.50000000E-01  8.50000000E-01  8.50000000E-01  8.50000000E-01
  8.50000000E-01  8.50000000E-01  8.50000000E-01  8.50000000E-01  8.50000000E-01
  8.50000000E-01  8.50000000E-01  8.50000000E-01  8.50000000E-01  8.50000000E-01
  8.50000000E-01  8.50000000E-01  8.50000000E-01  8.50000000E-01  8.50000000E-01
  8.50000000E-01  8.50000000E-01  8.50000000E-01  8.50000000E-01  8.50000000E-01
  8.50000000E-01  8.50000000E-01  8.50000000E-01  8.50000000E-01  8.50000000E-01
  8.50000000E-01  8.50000000E-01  8.50000000E-01  8.50000000E-01  8.50000000E-01
  8.50000000E-01  8.50000000E-01  8.50000000E-01  8.50000000E-01  8.50000000E-01
  8.50000000E-01  8.50000000E-01  8.50000000E-01  8.50000000E-01  8.50000000E-01
  8.50000000E-01  8.50000000E-01  8.50000000E-01  8.50000000E-01  8.50000000E-01
  8.50000000E-01  8.50000000E-01  8.50000000E-01  8.50000000E-01  8.50000000E-01
  8.50000000E-01  8.50000000E-01  8.50000000E-01  8.50000000E-01  8.50000000E-01
  8.50000000E-01  8.50000000E-01  8.50000000E-01  8.50000000E-01  8.50000000E-01
  8.50000000E-01  8.50000000E-01  8.50000000E-01  8.50000000E-01  8.50000000E-01
  8.50000000E-01  8.50000000E-01  8.50000000E-01  8.50000000E-01  8.50000000E-01
  8.50000000E-01  8.50000000E-01  8.50000000E-01  8.50000000E-01  8.50000000E-01
  8.50000000E-01  8.50000000E-01  8.50000000E-01  8.50000000E-01  8.50000000E-01
  8.50000000E-01  8.50000000E-01  8.50000000E-01  8.50000000E-01  8.50000000E-01
  8.50000000E-01  8.50000000E-01  8.50000000E-01  8.50000000E-01  8.50000000E-01
  8.50000000E-01  8.50000000E-01  8.50000000E-01  8.50000000E-01  8.50000000E-01
  8.50000000E-01  8.50000000E-01  8.50000000E-01  8.50000000E-01  8.50000000E-01
  8.50000000E-01  8.50000000E-01  8.50000000E-01  8.50000000E-01  8.50000000E-01
  8.50000000E-01  8.50000000E-01  8.50000000E-01  8.50000000E-01  8.50000000E-01
  8.50000000E-01  8.50000000E-01  8.50000000E-01  8.50000000E-01  8.50000000E-01
  8.50000000E-01  8.50000000E-01  8.50000000E-01  8.50000000E-01  8.50000000E-01
  8.50000000E-01  8.50000000E-01  8.50000000E-01  8.50000000E-01  8.50000000E-01
  8.50000000E-01  8.50000000E-01  8.50000000E-01  8.50000000E-01  8.50000000E-01
  8.50000000E-01  8.50000000E-01  8.50000000E-01  8.50000000E-01  8.50000000E-01
  8.50000000E-01  8.50000000E-01  8.50000000E-01  8.50000000E-01  8.50000000E-01
  8.50000000E-01  8.50000000E-01  8.50000000E-01  8.50000000E-01  8.50000000E-01
  8.50000000E-01  8.50000000E-01  8.50000000E-01  8.50000000E-01  8.50000000E-01
  8.50000000E-01  8.50000000E-01  8.50000000E-01  8.50000000E-01  8.50000000E-01
  8.50000000E-01  8.50000000E-01  8.50000000E-01  8.50000000E-01  8.50000000E-01
  8.50000000E-01  8.50000000E-01  8.50000000E-01  8.50000000E-01  8.50000000E-01
  8.50000000E-01  8.50000000E-01  8.50000000E-01  8.50000000E-01  8.50000000E-01
  8.50000000E-01  8.50000000E-01  8.50000000E-01  8.50000000E-01  8.50000000E-01
  8.50000000E-01  8.50000000E-01  8.50000000E-01  8.50000000E-01  8.50000000E-01
  8.50000000E-01  8.50000000E-01  8.50000000E-01  8.50000000E-01  8.50000000E-01
  8.50000000E-01  8.50000000E-01  8.50000000E-01  8.50000000E-01  8.50000000E-01
  8.50000000E-01  8.50000000E-01  8.50000000E-01  8.50000000E-01  8.50000000E-01
  8.50000000E-01  8.50000000E-01  8.50000000E-01  8.50000000E-01  8.50000000E-01
  8.50000000E-01  8.50000000E-01  8.50000000E-01  8.50000000E-01  8.50000000E-01
  8.50000000E-01  8.50000000E-01  8.50000000E-01  8.50000000E-01  8.50000000E-01
  8.50000000E-01  8.50000000E-01  8.50000000E-01  8.50000000E-01  8.50000000E-01
  8.50000000E-01  8.50000000E-01  8.50000000E-01  8.50000000E-01  8.50000000E-01
  8.50000000E-01  8.50000000E-01  8.50000000E-01  8.50000000E-01  8.50000000E-01
  8.50000000E-01  8.50000000E-01  8.50000000E-01  8.50000000E-01  8.50000000E-01
  8.50000000E-01  8.50000000E-01  8.50000000E-01  8.50000000E-01  8.50000000E-01
  8.50000000E-01  8.50000000E-01  8.50000000E-01  8.50000000E-01  8.50000000E-01
  8.50000000E-01  8.50000000E-01  8.50000000E-01  8.50000000E-01  8.50000000E-01
  8.50000000E-01  8.50000000E-01  8.50000000E-01  8.50000000E-01  8.50000000E-01
  8.50000000E-01  8.50000000E-01  8.50000000E-01  8.50000000E-01  8.50000000E-01
  8.50000000E-01  8.50000000E-01  8.50000000E-01  8.50000000E-01  8.50000000E-01
  8.50000000E-01  8.50000000E-01  8.50000000E-01  8.50000000E-01  8.50000000E-01
  8.50000000E-01  8.50000000E-01  8.50000000E-01  8.50000000E-01  8.50000000E-01
  8.50000000E-01  8.50000000E-01  8.50000000E-01  8.50000000E-01  8.50000000E-01
  8.50000000E-01  8.50000000E-01  8.50000000E-01  8.50000000E-01  8.50000000E-01
  8.50000000E-01  8.50000000E-01  8.50000000E-01  8.50000000E-01  8.50000000E-01
  8.50000000E-01  8.50000000E-01  8.50000000E-01  8.50000000E-01  8.50000000E-01
  8.50000000E-01  8.50000000E-01  8.50000000E-01  8.50000000E-01  8.50000000E-01
  8.50000000E-01  8.50000000E-01  8.50000000E-01  8.50000000E-01  8.50000000E-01
  8.50000000E-01  8.50000000E-01  8.50000000E-01  8.50000000E-01  8.50000000E-01
  8.50000000E-01  8.50000000E-01  8.50000000E-01  8.50000000E-01  8.50000000E-01
  8.50000000E-01  8.50000000E-01  8.50000000E-01  8.50000000E-01  8.50000000E-01
  8.50000000E-01  8.50000000E-01  8.50000000E-01  8.50000000E-01  8.50000000E-01
  8.50000000E-01  8.50000000E-01  8.50000000E-01  8.50000000E-01  8.50000000E-01
  8.50000000E-01  8.50000000E-01  8.50000000E-01  8.50000000E-01  8.50000000E-01
  8.50000000E-01  8.50000000E-01  8.50000000E-01  8.50000000E-01  8.50000000E-01
  8.50000000E-01  8.50000000E-01  8.50000000E-01  8.50000000E-01  8.50000000E-01
  8.50000000E-01  8.50000000E-01  8.50000000E-01  8.50000000E-01  8.50000000E-01
  8.50000000E-01  8.50000000E-01  8.50000000E-01  8.50000000E-01  8.50000000E-01
  8.50000000E-01  8.50000000E-01  8.50000000E-01  8.50000000E-01  8.50000000E-01
  8.50000000E-01  8.50000000E-01  8.50000000E-01  8.50000000E-01  8.50000000E-01
  8.50000000E-01  8.50000000E-01  8.50000000E-01  8.50000000E-01  8.50000000E-01
  8.50000000E-01  8.50000000E-01  8.50000000E-01  8.50000000E-01  8.50000000E-01
  8.50000000E-01  8.50000000E-01  8.50000000E-01  8.50000000E-01  8.50000000E-01
  8.50000000E-01  8.50000000E-01  8.50000000E-01  8.50000000E-01  8.50000000E-01
  8.50000000E-01  8.50000000E-01  8.50000000E-01  8.50000000E-01  8.50000000E-01
  8.50000000E-01  8.50000000E-01  8.50000000E-01  8.50000000E-01  8.50000000E-01
  8.50000000E-01  8.50000000E-01  8.50000000E-01  8.50000000E-01  8.50000000E-01
  8.50000000E-01  8.50000000E-01  8.50000000E-01  8.50000000E-01  8.50000000E-01
  8.50000000E-01  8.50000000E-01  8.50000000E-01  8.50000000E-01  8.50000000E-01
  8.50000000E-01  8.50000000E-01  8.50000000E-01  8.50000000E-01  8.50000000E-01
  8.50000000E-01  8.50000000E-01  8.50000000E-01  8.50000000E-01  8.50000000E-01
  8.50000000E-01  8.50000000E-01  8.50000000E-01  8.50000000E-01  8.50000000E-01
  8.50000000E-01  8.50000000E-01  8.50000000E-01  8.50000000E-01  8.50000000E-01
  8.50000000E-01  8.50000000E-01  8.50000000E-01  8.50000000E-01  8.50000000E-01
  8.50000000E-01  8.50000000E-01  8.50000000E-01  8.50000000E-01  8.50000000E-01
  8.50000000E-01  8.50000000E-01  8.50000000E-01  8.50000000E-01  8.50000000E-01
  8.50000000E-01  8.50000000E-01  8.50000000E-01  8.50000000E-01  8.50000000E-01
  8.50000000E-01  8.50000000E-01  8.50000000E-01  8.50000000E-01  8.50000000E-01
  8.50000000E-01  8.50000000E-01  8.50000000E-01  8.50000000E-01  8.50000000E-01
  8.50000000E-01  8.50000000E-01  8.50000000E-01  8.50000000E-01  8.50000000E-01
  8.50000000E-01  8.50000000E-01  8.50000000E-01  8.50000000E-01  8.50000000E-01
  8.50000000E-01  8.50000000E-01  8.50000000E-01  8.50000000E-01  8.50000000E-01
  8.50000000E-01  8.50000000E-01  8.50000000E-01  8.50000000E-01  8.50000000E-01
  8.50000000E-01  8.50000000E-01  8.50000000E-01  8.50000000E-01  8.50000000E-01
  8.50000000E-01  8.50000000E-01  8.50000000E-01  8.50000000E-01  8.50000000E-01
  8.50000000E-01  8.50000000E-01  8.50000000E-01  8.50000000E-01  8.50000000E-01
  8.50000000E-01  8.50000000E-01  8.50000000E-01  8.50000000E-01  8.50000000E-01
  8.50000000E-01  8.50000000E-01  8.50000000E-01  8.50000000E-01  8.50000000E-01
  8.50000000E-01  8.50000000E-01  8.50000000E-01  8.50000000E-01  8.50000000E-01
  8.50000000E-01  8.50000000E-01  8.50000000E-01  8.50000000E-01  8.50000000E-01
  8.50000000E-01  8.50000000E-01  8.50000000E-01  8.50000000E-01  8.50000000E-01
  8.50000000E-01  8.50000000E-01  8.50000000E-01  8.50000000E-01  8.50000000E-01
  8.50000000E-01  8.50000000E-01  8.50000000E-01  8.50000000E-01  8.50000000E-01
  8.50000000E-01  8.50000000E-01  8.50000000E-01  8.50000000E-01  8.50000000E-01
  8.50000000E-01  8.50000000E-01  8.50000000E-01  8.50000000E-01  8.50000000E-01
  8.50000000E-01  8.50000000E-01  8.50000000E-01  8.50000000E-01  8.50000000E-01
  8.50000000E-01  8.50000000E-01  8.50000000E-01  8.50000000E-01  8.50000000E-01
  8.50000000E-01  8.50000000E-01  8.50000000E-01  8.50000000E-01  8.50000000E-01
  8.50000000E-01  8.50000000E-01  8.50000000E-01  8.50000000E-01  8.50000000E-01
  8.50000000E-01  8.50000000E-01  8.50000000E-01  8.50000000E-01  8.50000000E-01
  8.50000000E-01  8.50000000E-01  8.50000000E-01  8.50000000E-01  8.50000000E-01
  8.50000000E-01  8.50000000E-01  8.50000000E-01  8.50000000E-01  8.50000000E-01
  8.50000000E-01  8.50000000E-01  8.50000000E-01  8.50000000E-01  8.50000000E-01
  8.50000000E-01  8.50000000E-01  8.50000000E-01  8.50000000E-01  8.50000000E-01
  8.50000000E-01  8.50000000E-01  8.50000000E-01  8.50000000E-01  8.50000000E-01
  8.50000000E-01  8.50000000E-01  8.50000000E-01  8.50000000E-01  8.50000000E-01
  8.50000000E-01  8.50000000E-01  8.50000000E-01  8.50000000E-01  8.50000000E-01
  8.50000000E-01  8.50000000E-01  8.50000000E-01  8.50000000E-01  8.50000000E-01
  8.50000000E-01  8.50000000E-01  8.50000000E-01  8.50000000E-01  8.50000000E-01
  8.50000000E-01  8.50000000E-01  8.50000000E-01  8.50000000E-01  8.50000000E-01
  8.50000000E-01  8.50000000E-01  8.50000000E-01  8.50000000E-01  8.50000000E-01
  8.50000000E-01  8.50000000E-01  8.50000000E-01  8.50000000E-01  8.50000000E-01
  8.50000000E-01  8.50000000E-01  8.50000000E-01  8.50000000E-01  8.50000000E-01
  8.50000000E-01  8.50000000E-01  8.50000000E-01  8.50000000E-01  8.50000000E-01
  8.50000000E-01  8.50000000E-01  8.50000000E-01  8.50000000E-01  8.50000000E-01
  8.50000000E-01  8.50000000E-01  8.50000000E-01  8.50000000E-01  8.50000000E-01
  8.50000000E-01  8.50000000E-01  8.50000000E-01  8.50000000E-01  8.50000000E-01
  8.50000000E-01  8.50000000E-01  8.50000000E-01  8.50000000E-01  8.50000000E-01
  8.50000000E-01  8.50000000E-01  8.50000000E-01  8.50000000E-01  8.50000000E-01
  8.50000000E-01  8.50000000E-01  8.50000000E-01  8.50000000E-01  8.50000000E-01
  8.50000000E-01  8.50000000E-01  8.50000000E-01  8.50000000E-01  8.50000000E-01
  8.50000000E-01  8.50000000E-01  8.50000000E-01  8.50000000E-01  8.50000000E-01
  8.50000000E-01  8.50000000E-01  8.50000000E-01  8.50000000E-01  8.50000000E-01
  8.50000000E-01  8.50000000E-01  8.50000000E-01  8.50000000E-01  8.50000000E-01
  8.50000000E-01  8.50000000E-01  8.50000000E-01  8.50000000E-01  8.50000000E-01
  8.50000000E-01  8.50000000E-01  8.50000000E-01  8.50000000E-01  8.50000000E-01
  8.50000000E-01  8.50000000E-01  8.50000000E-01  8.50000000E-01  8.50000000E-01
  8.50000000E-01  8.50000000E-01  8.50000000E-01  8.50000000E-01  8.50000000E-01
  8.50000000E-01  8.50000000E-01  8.50000000E-01  8.50000000E-01  8.50000000E-01
  8.50000000E-01  8.50000000E-01  8.50000000E-01  8.50000000E-01  8.50000000E-01
  8.50000000E-01  8.50000000E-01  8.50000000E-01  8.50000000E-01  8.50000000E-01
  8.50000000E-01  8.50000000E-01  8.50000000E-01  8.50000000E-01  8.50000000E-01
  8.50000000E-01  8.50000000E-01  8.50000000E-01  8.50000000E-01  8.50000000E-01
  8.50000000E-01  8.50000000E-01  8.50000000E-01  8.50000000E-01  8.50000000E-01
  8.50000000E-01  8.50000000E-01  8.50000000E-01  8.50000000E-01  8.50000000E-01
  8.50000000E-01  8.50000000E-01  8.50000000E-01  8.50000000E-01  8.50000000E-01
  8.50000000E-01  8.50000000E-01  8.50000000E-01  8.50000000E-01  8.50000000E-01
  8.50000000E-01  8.50000000E-01  8.50000000E-01  8.50000000E-01  8.50000000E-01
  8.50000000E-01  8.50000000E-01  8.50000000E-01  8.50000000E-01  8.50000000E-01
  8.50000000E-01  8.50000000E-01  8.50000000E-01  8.50000000E-01  8.50000000E-01
  8.50000000E-01  8.50000000E-01  8.50000000E-01  8.50000000E-01  8.50000000E-01
  8.50000000E-01  8.50000000E-01  8.50000000E-01  8.50000000E-01  8.50000000E-01
  8.50000000E-01  8.50000000E-01  8.50000000E-01  8.50000000E-01  8.50000000E-01
  8.50000000E-01  8.50000000E-01  8.50000000E-01  8.50000000E-01  8.50000000E-01
  8.50000000E-01  8.50000000E-01  8.50000000E-01  8.50000000E-01  8.50000000E-01
  8.50000000E-01  8.50000000E-01  8.50000000E-01  8.50000000E-01  8.50000000E-01
  8.50000000E-01  8.50000000E-01  8.50000000E-01  8.50000000E-01  8.50000000E-01
  8.50000000E-01  8.50000000E-01  8.50000000E-01  8.50000000E-01  8.50000000E-01
  8.50000000E-01  8.50000000E-01  8.50000000E-01  8.50000000E-01  8.50000000E-01
  8.50000000E-01  8.50000000E-01  8.50000000E-01  8.50000000E-01  8.50000000E-01
  8.50000000E-01  8.50000000E-01  8.50000000E-01  8.50000000E-01  8.50000000E-01
  8.50000000E-01  8.50000000E-01  8.50000000E-01  8.50000000E-01  8.50000000E-01
  8.50000000E-01  8.50000000E-01  8.50000000E-01  8.50000000E-01  8.50000000E-01
  8.50000000E-01  8.50000000E-01  8.50000000E-01  8.50000000E-01  8.50000000E-01
  8.50000000E-01  8.50000000E-01  8.50000000E-01  8.50000000E-01  8.50000000E-01
  8.50000000E-01  8.50000000E-01  8.50000000E-01  8.50000000E-01  8.50000000E-01
  8.50000000E-01  8.50000000E-01  8.50000000E-01  8.50000000E-01  8.50000000E-01
  8.50000000E-01  8.50000000E-01  8.50000000E-01  8.50000000E-01  8.50000000E-01
  8.50000000E-01  8.50000000E-01  8.50000000E-01  8.50000000E-01  8.50000000E-01
  8.50000000E-01  8.50000000E-01  8.50000000E-01  8.50000000E-01  8.50000000E-01
  8.50000000E-01  8.50000000E-01  8.50000000E-01  8.50000000E-01  8.50000000E-01
  8.50000000E-01  8.50000000E-01  8.50000000E-01  8.50000000E-01  8.50000000E-01
  8.50000000E-01  8.50000000E-01  8.50000000E-01  8.50000000E-01  8.50000000E-01
  8.50000000E-01  8.50000000E-01  8.50000000E-01  8.50000000E-01  8.50000000E-01
  8.50000000E-01  8.50000000E-01  8.50000000E-01  8.50000000E-01  8.50000000E-01
  8.50000000E-01  8.50000000E-01  8.50000000E-01  8.50000000E-01  8.50000000E-01
  8.50000000E-01  8.50000000E-01  8.50000000E-01  8.50000000E-01  8.50000000E-01
  8.50000000E-01  8.50000000E-01  8.50000000E-01  8.50000000E-01  8.50000000E-01
  8.50000000E-01  8.50000000E-01  8.50000000E-01  8.50000000E-01  8.50000000E-01
  8.50000000E-01  8.50000000E-01  8.50000000E-01  8.50000000E-01  8.50000000E-01
  8.50000000E-01  8.50000000E-01  8.50000000E-01  8.50000000E-01  8.50000000E-01
  8.50000000E-01  8.50000000E-01  8.50000000E-01  8.50000000E-01  8.50000000E-01
  8.50000000E-01  8.50000000E-01  8.50000000E-01  8.50000000E-01  8.50000000E-01
  8.50000000E-01  8.50000000E-01  8.50000000E-01  8.50000000E-01  8.50000000E-01
  8.50000000E-01  8.50000000E-01  8.50000000E-01  8.50000000E-01  8.50000000E-01
  8.50000000E-01  8.50000000E-01  8.50000000E-01  8.50000000E-01  8.50000000E-01
  8.50000000E-01  8.50000000E-01  8.50000000E-01  8.50000000E-01  8.50000000E-01
  8.50000000E-01  8.50000000E-01  8.50000000E-01  8.50000000E-01  8.50000000E-01
  8.50000000E-01  8.50000000E-01  8.50000000E-01  8.50000000E-01  8.50000000E-01
  8.50000000E-01  8.50000000E-01  8.50000000E-01  8.50000000E-01  8.50000000E-01
  8.50000000E-01  8.50000000E-01  8.50000000E-01  8.50000000E-01  8.50000000E-01
  8.50000000E-01  8.50000000E-01  8.50000000E-01  8.50000000E-01  8.50000000E-01
  8.50000000E-01  8.50000000E-01  8.50000000E-01  8.50000000E-01  8.50000000E-01
  8.50000000E-01  8.50000000E-01  8.50000000E-01  8.50000000E-01  8.50000000E-01
  8.50000000E-01  8.50000000E-01  8.50000000E-01  8.50000000E-01  8.50000000E-01
  8.50000000E-01  8.50000000E-01  8.50000000E-01  8.50000000E-01  8.50000000E-01
  8.50000000E-01  8.50000000E-01  8.50000000E-01  8.50000000E-01  8.50000000E-01
  8.50000000E-01  8.50000000E-01  8.50000000E-01  8.50000000E-01  8.50000000E-01
  8.50000000E-01  8.50000000E-01  8.50000000E-01  8.50000000E-01  8.50000000E-01
  8.50000000E-01  8.50000000E-01  8.50000000E-01  8.50000000E-01  8.50000000E-01
  8.50000000E-01  8.50000000E-01  8.50000000E-01  8.50000000E-01  8.50000000E-01
  8.50000000E-01  8.50000000E-01  8.50000000E-01  8.50000000E-01  8.50000000E-01
  8.50000000E-01  8.50000000E-01  8.50000000E-01  8.50000000E-01  8.50000000E-01
  8.50000000E-01  8.50000000E-01  8.50000000E-01  8.50000000E-01  8.50000000E-01
  8.50000000E-01  8.50000000E-01  8.50000000E-01  8.50000000E-01  8.50000000E-01
  8.50000000E-01  8.50000000E-01  8.50000000E-01  8.50000000E-01  8.50000000E-01
  8.50000000E-01  8.50000000E-01  8.50000000E-01  8.50000000E-01  8.50000000E-01
  8.50000000E-01  8.50000000E-01  8.50000000E-01  8.50000000E-01  8.50000000E-01
  8.50000000E-01  8.50000000E-01  8.50000000E-01  8.50000000E-01  8.50000000E-01
  8.50000000E-01  8.50000000E-01  8.50000000E-01  8.50000000E-01  8.50000000E-01
  8.50000000E-01  8.50000000E-01  8.50000000E-01  8.50000000E-01  8.50000000E-01
  8.50000000E-01  8.50000000E-01  8.50000000E-01  8.50000000E-01  8.50000000E-01
  8.50000000E-01  8.50000000E-01  8.50000000E-01  8.50000000E-01  8.50000000E-01
  8.50000000E-01  8.50000000E-01  8.50000000E-01  8.50000000E-01  8.50000000E-01
  8.50000000E-01  8.50000000E-01  8.50000000E-01  8.50000000E-01  8.50000000E-01
  8.50000000E-01  8.50000000E-01  8.50000000E-01  8.50000000E-01  8.50000000E-01
  8.50000000E-01  8.50000000E-01  8.50000000E-01  8.50000000E-01  8.50000000E-01
  8.50000000E-01  8.50000000E-01  8.50000000E-01  8.50000000E-01  8.50000000E-01
  8.50000000E-01  8.50000000E-01  8.50000000E-01  8.50000000E-01  8.50000000E-01
  8.50000000E-01  8.50000000E-01  8.50000000E-01  8.50000000E-01  8.50000000E-01
  8.50000000E-01  8.50000000E-01  8.50000000E-01  8.50000000E-01  8.50000000E-01
  8.50000000E-01  8.50000000E-01  8.50000000E-01  8.50000000E-01  8.50000000E-01
  8.50000000E-01  8.50000000E-01  8.50000000E-01  8.50000000E-01  8.50000000E-01
  8.50000000E-01  8.50000000E-01  8.50000000E-01  8.50000000E-01  8.50000000E-01
  8.50000000E-01  8.50000000E-01  8.50000000E-01  8.50000000E-01  8.50000000E-01
  8.50000000E-01  8.50000000E-01  8.50000000E-01  8.50000000E-01  8.50000000E-01
  8.50000000E-01  8.50000000E-01  8.50000000E-01  8.50000000E-01  8.50000000E-01
  8.50000000E-01  8.50000000E-01  8.50000000E-01  8.50000000E-01  8.50000000E-01
  8.50000000E-01  8.50000000E-01  8.50000000E-01  8.50000000E-01  8.50000000E-01
  8.50000000E-01  8.50000000E-01  8.50000000E-01  8.50000000E-01  8.50000000E-01
  8.50000000E-01  8.50000000E-01  8.50000000E-01  8.50000000E-01  8.50000000E-01
  8.50000000E-01  8.50000000E-01  8.50000000E-01  8.50000000E-01  8.50000000E-01
  8.50000000E-01  8.50000000E-01  8.50000000E-01  8.50000000E-01  8.50000000E-01
  8.50000000E-01  8.50000000E-01  8.50000000E-01  8.50000000E-01  8.50000000E-01
  8.50000000E-01  8.50000000E-01  8.50000000E-01  8.50000000E-01  8.50000000E-01
  8.50000000E-01  8.50000000E-01  8.50000000E-01  8.50000000E-01  8.50000000E-01
  8.50000000E-01  8.50000000E-01  8.50000000E-01  8.50000000E-01  8.50000000E-01
  8.50000000E-01  8.50000000E-01  8.50000000E-01  8.50000000E-01  8.50000000E-01
  8.50000000E-01  8.50000000E-01  8.50000000E-01  8.50000000E-01  8.50000000E-01
  8.50000000E-01  8.50000000E-01  8.50000000E-01  8.50000000E-01  8.50000000E-01
  8.50000000E-01  8.50000000E-01  8.50000000E-01  8.50000000E-01  8.50000000E-01
  8.50000000E-01  8.50000000E-01  8.50000000E-01  8.50000000E-01  8.50000000E-01
  8.50000000E-01  8.50000000E-01  8.50000000E-01  8.50000000E-01  8.50000000E-01
  8.50000000E-01  8.50000000E-01  8.50000000E-01  8.50000000E-01  8.50000000E-01
  8.50000000E-01  8.50000000E-01  8.50000000E-01  8.50000000E-01  8.50000000E-01
  8.50000000E-01  8.50000000E-01  8.50000000E-01  8.50000000E-01  8.50000000E-01
  8.50000000E-01  8.50000000E-01  8.50000000E-01  8.50000000E-01  8.50000000E-01
  8.50000000E-01  8.50000000E-01  8.50000000E-01  8.50000000E-01  8.50000000E-01
  8.50000000E-01  8.50000000E-01  8.50000000E-01  8.50000000E-01  8.50000000E-01
  8.50000000E-01  8.50000000E-01  8.50000000E-01  8.50000000E-01  8.50000000E-01
  8.50000000E-01  8.50000000E-01  8.50000000E-01  8.50000000E-01  8.50000000E-01
  8.50000000E-01  8.50000000E-01  8.50000000E-01  8.50000000E-01  8.50000000E-01
  8.50000000E-01  8.50000000E-01  8.50000000E-01  8.50000000E-01  8.50000000E-01
  8.50000000E-01  8.50000000E-01  8.50000000E-01  8.50000000E-01  8.50000000E-01
  8.50000000E-01  8.50000000E-01  8.50000000E-01  8.50000000E-01  8.50000000E-01
  8.50000000E-01  8.50000000E-01  8.50000000E-01  8.50000000E-01  8.50000000E-01
  8.50000000E-01  8.50000000E-01  8.50000000E-01  8.50000000E-01  8.50000000E-01
  8.50000000E-01  8.50000000E-01  8.50000000E-01  8.50000000E-01  8.50000000E-01
  8.50000000E-01  8.50000000E-01  8.50000000E-01  8.50000000E-01  8.50000000E-01
  8.50000000E-01  8.50000000E-01  8.50000000E-01  8.50000000E-01  8.50000000E-01
  8.50000000E-01  8.50000000E-01  8.50000000E-01  8.50000000E-01  8.50000000E-01
  8.50000000E-01  8.50000000E-01  8.50000000E-01  8.50000000E-01  8.50000000E-01
  8.50000000E-01  8.50000000E-01  8.50000000E-01  8.50000000E-01  8.50000000E-01
  8.50000000E-01  8.50000000E-01  8.50000000E-01  8.50000000E-01  8.50000000E-01
  8.50000000E-01  8.50000000E-01  8.50000000E-01  8.50000000E-01  8.50000000E-01
  8.50000000E-01  8.50000000E-01  8.50000000E-01  8.50000000E-01  8.50000000E-01
  8.50000000E-01  8.50000000E-01  8.50000000E-01  8.50000000E-01  8.50000000E-01
  8.50000000E-01  8.50000000E-01  8.50000000E-01  8.50000000E-01  8.50000000E-01
  8.50000000E-01  8.50000000E-01  8.50000000E-01  8.50000000E-01  8.50000000E-01
  8.50000000E-01  8.50000000E-01  8.50000000E-01  8.50000000E-01  8.50000000E-01
  8.50000000E-01  8.50000000E-01  8.50000000E-01  8.50000000E-01  8.50000000E-01
  8.50000000E-01  8.50000000E-01  8.50000000E-01  8.50000000E-01  8.50000000E-01
  8.50000000E-01  8.50000000E-01  8.50000000E-01  8.50000000E-01  8.50000000E-01
  8.50000000E-01  8.50000000E-01  8.50000000E-01  8.50000000E-01  8.50000000E-01
  8.50000000E-01  8.50000000E-01  8.50000000E-01  8.50000000E-01  8.50000000E-01
  8.50000000E-01  8.50000000E-01  8.50000000E-01  8.50000000E-01  8.50000000E-01
  8.50000000E-01  8.50000000E-01  8.50000000E-01  8.50000000E-01  8.50000000E-01
  8.50000000E-01  8.50000000E-01  8.50000000E-01  8.50000000E-01  8.50000000E-01
  8.50000000E-01  8.50000000E-01  8.50000000E-01  8.50000000E-01  8.50000000E-01
  8.50000000E-01  8.50000000E-01  8.50000000E-01  8.50000000E-01  8.50000000E-01
  8.50000000E-01  8.50000000E-01  8.50000000E-01  8.50000000E-01  8.50000000E-01
  8.50000000E-01  8.50000000E-01  8.50000000E-01  8.50000000E-01  8.50000000E-01
  8.50000000E-01  8.50000000E-01  8.50000000E-01  8.50000000E-01  8.50000000E-01
  8.50000000E-01  8.50000000E-01  8.50000000E-01  8.50000000E-01  8.50000000E-01
  8.50000000E-01  8.50000000E-01  8.50000000E-01  8.50000000E-01  8.50000000E-01
  8.50000000E-01  8.50000000E-01  8.50000000E-01  8.50000000E-01  8.50000000E-01
  8.50000000E-01  8.50000000E-01  8.50000000E-01  8.50000000E-01  8.50000000E-01
  8.50000000E-01  8.50000000E-01  8.50000000E-01  8.50000000E-01  8.50000000E-01
  8.50000000E-01  8.50000000E-01  8.50000000E-01  8.50000000E-01  8.50000000E-01
  8.50000000E-01  8.50000000E-01  8.50000000E-01  8.50000000E-01  8.50000000E-01
  8.50000000E-01  8.50000000E-01  8.50000000E-01  8.50000000E-01  8.50000000E-01
  8.50000000E-01  8.50000000E-01  8.50000000E-01  8.50000000E-01  8.50000000E-01
  8.50000000E-01  8.50000000E-01  8.50000000E-01  8.50000000E-01  8.50000000E-01
  8.50000000E-01  8.50000000E-01  8.50000000E-01  8.50000000E-01  8.50000000E-01
  8.50000000E-01  8.50000000E-01  8.50000000E-01  8.50000000E-01  8.50000000E-01
  8.50000000E-01  8.50000000E-01  8.50000000E-01  8.50000000E-01  8.50000000E-01
  8.50000000E-01  8.50000000E-01  8.50000000E-01  8.50000000E-01  8.50000000E-01
  8.50000000E-01  8.50000000E-01  8.50000000E-01  8.50000000E-01  8.50000000E-01
  8.50000000E-01  8.50000000E-01  8.50000000E-01  8.50000000E-01  8.50000000E-01
  8.50000000E-01  8.50000000E-01  8.50000000E-01  8.50000000E-01  8.50000000E-01
  8.50000000E-01  8.50000000E-01  8.50000000E-01  8.50000000E-01  8.50000000E-01
  8.50000000E-01  8.50000000E-01  8.50000000E-01  8.50000000E-01  8.50000000E-01
  8.50000000E-01  8.50000000E-01  8.50000000E-01  8.50000000E-01  8.50000000E-01
  8.50000000E-01  8.50000000E-01  8.50000000E-01  8.50000000E-01  8.50000000E-01
  8.50000000E-01  8.50000000E-01  8.50000000E-01  8.50000000E-01  8.50000000E-01
  8.50000000E-01  8.50000000E-01  8.50000000E-01  8.50000000E-01  8.50000000E-01
  8.50000000E-01  8.50000000E-01  8.50000000E-01  8.50000000E-01  8.50000000E-01
  8.50000000E-01  8.50000000E-01  8.50000000E-01  8.50000000E-01  8.50000000E-01
  8.50000000E-01  8.50000000E-01  8.50000000E-01  8.50000000E-01  8.50000000E-01
  8.50000000E-01  8.50000000E-01  8.50000000E-01  8.50000000E-01  8.50000000E-01
  8.50000000E-01  8.50000000E-01  8.50000000E-01  8.50000000E-01  8.50000000E-01
  8.50000000E-01  8.50000000E-01  8.50000000E-01  8.50000000E-01  8.50000000E-01
  8.50000000E-01  8.50000000E-01  8.50000000E-01  8.50000000E-01  8.50000000E-01
  8.50000000E-01  8.50000000E-01  8.50000000E-01  8.50000000E-01  8.50000000E-01
  8.50000000E-01  8.50000000E-01  8.50000000E-01  8.50000000E-01  8.50000000E-01
  8.50000000E-01  8.50000000E-01  8.50000000E-01  8.50000000E-01  8.50000000E-01
  8.50000000E-01  8.50000000E-01  8.50000000E-01  8.50000000E-01  8.50000000E-01
  8.50000000E-01  8.50000000E-01  8.50000000E-01  8.50000000E-01  8.50000000E-01
  8.50000000E-01  8.50000000E-01  8.50000000E-01  8.50000000E-01  8.50000000E-01
  8.50000000E-01  8.50000000E-01  8.50000000E-01  8.50000000E-01  8.50000000E-01
  8.50000000E-01  8.50000000E-01  8.50000000E-01  8.50000000E-01  8.50000000E-01
  8.50000000E-01  8.50000000E-01  8.50000000E-01  8.50000000E-01  8.50000000E-01
  8.50000000E-01  8.50000000E-01  8.50000000E-01  8.50000000E-01  8.50000000E-01
  8.50000000E-01  8.50000000E-01  8.50000000E-01  8.50000000E-01  8.50000000E-01
  8.50000000E-01  8.50000000E-01  8.50000000E-01  8.50000000E-01  8.50000000E-01
  8.50000000E-01  8.50000000E-01  8.50000000E-01  8.50000000E-01  8.50000000E-01
  8.50000000E-01  8.50000000E-01  8.50000000E-01  8.50000000E-01  8.50000000E-01
  8.50000000E-01  8.50000000E-01  8.50000000E-01  8.50000000E-01  8.50000000E-01
  8.50000000E-01  8.50000000E-01  8.50000000E-01  8.50000000E-01  8.50000000E-01
  8.50000000E-01  8.50000000E-01  8.50000000E-01  8.50000000E-01  8.50000000E-01
  8.50000000E-01  8.50000000E-01  8.50000000E-01  8.50000000E-01  8.50000000E-01
  8.50000000E-01  8.50000000E-01  8.50000000E-01  8.50000000E-01  8.50000000E-01
  8.50000000E-01  8.50000000E-01  8.50000000E-01  8.50000000E-01  8.50000000E-01
  8.50000000E-01  8.50000000E-01  8.50000000E-01  8.50000000E-01  8.50000000E-01
  8.50000000E-01  8.50000000E-01  8.50000000E-01  8.50000000E-01  8.50000000E-01
  8.50000000E-01  8.50000000E-01  8.50000000E-01  8.50000000E-01  8.50000000E-01
  8.50000000E-01  8.50000000E-01  8.50000000E-01  8.50000000E-01  8.50000000E-01
  8.50000000E-01  8.50000000E-01  8.50000000E-01  8.50000000E-01  8.50000000E-01
  8.50000000E-01  8.50000000E-01  8.50000000E-01  8.50000000E-01  8.50000000E-01
  8.50000000E-01  8.50000000E-01  8.50000000E-01  8.50000000E-01  8.50000000E-01
  8.50000000E-01  8.50000000E-01  8.50000000E-01  8.50000000E-01  8.50000000E-01
  8.50000000E-01  8.50000000E-01  8.50000000E-01  8.50000000E-01  8.50000000E-01
  8.50000000E-01  8.50000000E-01  8.50000000E-01  8.50000000E-01  8.50000000E-01
  8.50000000E-01  8.50000000E-01  8.50000000E-01  8.50000000E-01  8.50000000E-01
  8.50000000E-01  8.50000000E-01  8.50000000E-01  8.50000000E-01  8.50000000E-01
  8.50000000E-01  8.50000000E-01  8.50000000E-01  8.50000000E-01  8.50000000E-01
  8.50000000E-01  8.50000000E-01  8.50000000E-01  8.50000000E-01  8.50000000E-01
  8.50000000E-01  8.50000000E-01  8.50000000E-01  8.50000000E-01  8.50000000E-01
  8.50000000E-01  8.50000000E-01  8.50000000E-01  8.50000000E-01  8.50000000E-01
  8.50000000E-01  8.50000000E-01  8.50000000E-01  8.50000000E-01  8.50000000E-01
  8.50000000E-01  8.50000000E-01  8.50000000E-01  8.50000000E-01  8.50000000E-01
  8.50000000E-01  8.50000000E-01  8.50000000E-01  8.50000000E-01  8.50000000E-01
  8.50000000E-01  8.50000000E-01  8.50000000E-01  8.50000000E-01  8.50000000E-01
  8.50000000E-01  8.50000000E-01  8.50000000E-01  8.50000000E-01  8.50000000E-01
  8.50000000E-01  8.50000000E-01  8.50000000E-01  8.50000000E-01  8.50000000E-01
  8.50000000E-01  8.50000000E-01  8.50000000E-01  8.50000000E-01  8.50000000E-01
  8.50000000E-01  8.50000000E-01  8.50000000E-01  8.50000000E-01  8.50000000E-01
  8.50000000E-01  8.50000000E-01  8.50000000E-01  8.50000000E-01  8.50000000E-01
  8.50000000E-01  8.50000000E-01  8.50000000E-01  8.50000000E-01  8.50000000E-01
  8.50000000E-01  8.50000000E-01  8.50000000E-01  8.50000000E-01  8.50000000E-01
  8.50000000E-01  8.50000000E-01  8.50000000E-01  8.50000000E-01  8.50000000E-01
  8.50000000E-01  8.50000000E-01  8.50000000E-01  8.50000000E-01  8.50000000E-01
  8.50000000E-01  8.50000000E-01  8.50000000E-01  8.50000000E-01  8.50000000E-01
  8.50000000E-01  8.50000000E-01  8.50000000E-01  8.50000000E-01  8.50000000E-01
  8.50000000E-01  8.50000000E-01  8.50000000E-01  8.50000000E-01  8.50000000E-01
  8.50000000E-01  8.50000000E-01  8.50000000E-01  8.50000000E-01  8.50000000E-01
  8.50000000E-01  8.50000000E-01  8.50000000E-01  8.50000000E-01  8.50000000E-01
  8.50000000E-01  8.50000000E-01  8.50000000E-01  8.50000000E-01  8.50000000E-01
  8.50000000E-01  8.50000000E-01  8.50000000E-01  8.50000000E-01  8.50000000E-01
  8.50000000E-01  8.50000000E-01  8.50000000E-01  8.50000000E-01  8.50000000E-01
  8.50000000E-01  8.50000000E-01  8.50000000E-01  8.50000000E-01  8.50000000E-01
  8.50000000E-01  8.50000000E-01  8.50000000E-01  8.50000000E-01  8.50000000E-01
  8.50000000E-01  8.50000000E-01  8.50000000E-01  8.50000000E-01  8.50000000E-01
  8.50000000E-01  8.50000000E-01  8.50000000E-01  8.50000000E-01  8.50000000E-01
  8.50000000E-01  8.50000000E-01  8.50000000E-01  8.50000000E-01  8.50000000E-01
  8.50000000E-01  8.50000000E-01  8.50000000E-01  8.50000000E-01  8.50000000E-01
  8.50000000E-01  8.50000000E-01  8.50000000E-01  8.50000000E-01  8.50000000E-01
  8.50000000E-01  8.50000000E-01  8.50000000E-01  8.50000000E-01  8.50000000E-01
  8.50000000E-01  8.50000000E-01  8.50000000E-01  8.50000000E-01  8.50000000E-01
  8.50000000E-01  8.50000000E-01  8.50000000E-01  8.50000000E-01  8.50000000E-01
  8.50000000E-01  8.50000000E-01  8.50000000E-01  8.50000000E-01  8.50000000E-01
  8.50000000E-01  8.50000000E-01  8.50000000E-01  8.50000000E-01  8.50000000E-01
  8.50000000E-01  8.50000000E-01  8.50000000E-01  8.50000000E-01  8.50000000E-01
  8.50000000E-01  8.50000000E-01  8.50000000E-01  8.50000000E-01  8.50000000E-01
  8.50000000E-01  8.50000000E-01  8.50000000E-01  8.50000000E-01  8.50000000E-01
  8.50000000E-01  8.50000000E-01  8.50000000E-01  8.50000000E-01  8.50000000E-01
  8.50000000E-01  8.50000000E-01  8.50000000E-01  8.50000000E-01  8.50000000E-01
  8.50000000E-01  8.50000000E-01  8.50000000E-01  8.50000000E-01  8.50000000E-01
  8.50000000E-01  8.50000000E-01  8.50000000E-01  8.50000000E-01  8.50000000E-01
  8.50000000E-01  8.50000000E-01  8.50000000E-01  8.50000000E-01  8.50000000E-01
  8.50000000E-01  8.50000000E-01  8.50000000E-01  8.50000000E-01  8.50000000E-01
  8.50000000E-01  8.50000000E-01  8.50000000E-01  8.50000000E-01  8.50000000E-01
  8.50000000E-01  8.50000000E-01  8.50000000E-01  8.50000000E-01  8.50000000E-01
  8.50000000E-01  8.50000000E-01  8.50000000E-01  8.50000000E-01  8.50000000E-01
  8.50000000E-01  8.50000000E-01  8.50000000E-01  8.50000000E-01  8.50000000E-01
  8.50000000E-01  8.50000000E-01  8.50000000E-01  8.50000000E-01  8.50000000E-01
  8.50000000E-01  8.50000000E-01  8.50000000E-01  8.50000000E-01  8.50000000E-01
  8.50000000E-01  8.50000000E-01  8.50000000E-01  8.50000000E-01  8.50000000E-01
  8.50000000E-01  8.50000000E-01  8.50000000E-01  8.50000000E-01  8.50000000E-01
  8.50000000E-01  8.50000000E-01  8.50000000E-01  8.50000000E-01  8.50000000E-01
  8.50000000E-01  8.50000000E-01  8.50000000E-01  8.50000000E-01  8.50000000E-01
  8.50000000E-01  8.50000000E-01  8.50000000E-01  8.50000000E-01  8.50000000E-01
  8.50000000E-01  8.50000000E-01  8.50000000E-01  8.50000000E-01  8.50000000E-01
  8.50000000E-01  8.50000000E-01  8.50000000E-01  8.50000000E-01  8.50000000E-01
  8.50000000E-01  8.50000000E-01  8.50000000E-01  8.50000000E-01  8.50000000E-01
  8.50000000E-01  8.50000000E-01  8.50000000E-01  8.50000000E-01  8.50000000E-01
  8.50000000E-01  8.50000000E-01  8.50000000E-01  8.50000000E-01  8.50000000E-01
  8.50000000E-01  8.50000000E-01  8.50000000E-01  8.50000000E-01  8.50000000E-01
  8.50000000E-01  8.50000000E-01  8.50000000E-01  8.50000000E-01  8.50000000E-01
  8.50000000E-01  8.50000000E-01  8.50000000E-01  8.50000000E-01  8.50000000E-01
  8.50000000E-01  8.50000000E-01  8.50000000E-01  8.50000000E-01  8.50000000E-01
  8.50000000E-01  8.50000000E-01  8.50000000E-01  8.50000000E-01  8.50000000E-01
  8.50000000E-01  8.50000000E-01  8.50000000E-01  8.50000000E-01  8.50000000E-01
  8.50000000E-01  8.50000000E-01  8.50000000E-01  8.50000000E-01  8.50000000E-01
  8.50000000E-01  8.50000000E-01  8.50000000E-01  8.50000000E-01  8.50000000E-01
  8.50000000E-01  8.50000000E-01  8.50000000E-01  8.50000000E-01  8.50000000E-01
  8.50000000E-01  8.50000000E-01  8.50000000E-01  8.50000000E-01  8.50000000E-01
  8.50000000E-01  8.50000000E-01  8.50000000E-01  8.50000000E-01  8.50000000E-01
  8.50000000E-01  8.50000000E-01  8.50000000E-01  8.50000000E-01  8.50000000E-01
  8.50000000E-01  8.50000000E-01  8.50000000E-01  8.50000000E-01  8.50000000E-01
  8.50000000E-01  8.50000000E-01  8.50000000E-01  8.50000000E-01  8.50000000E-01
  8.50000000E-01  8.50000000E-01  8.50000000E-01  8.50000000E-01  8.50000000E-01
  8.50000000E-01  8.50000000E-01  8.50000000E-01  8.50000000E-01  8.50000000E-01
  8.50000000E-01  8.50000000E-01  8.50000000E-01  8.50000000E-01  8.50000000E-01
  8.50000000E-01  8.50000000E-01  8.50000000E-01  8.50000000E-01  8.50000000E-01
  8.50000000E-01  8.50000000E-01  8.50000000E-01  8.50000000E-01  8.50000000E-01
  8.50000000E-01  8.50000000E-01  8.50000000E-01  8.50000000E-01  8.50000000E-01
  8.50000000E-01  8.50000000E-01  8.50000000E-01  8.50000000E-01  8.50000000E-01
  8.50000000E-01  8.50000000E-01  8.50000000E-01  8.50000000E-01  8.50000000E-01
  8.50000000E-01  8.50000000E-01  8.50000000E-01  8.50000000E-01  8.50000000E-01
  8.50000000E-01  8.50000000E-01  8.50000000E-01  8.50000000E-01  8.50000000E-01
  8.50000000E-01  8.50000000E-01  8.50000000E-01  8.50000000E-01  8.50000000E-01
  8.50000000E-01  8.50000000E-01  8.50000000E-01  8.50000000E-01  8.50000000E-01
  8.50000000E-01  8.50000000E-01  8.50000000E-01  8.50000000E-01  8.50000000E-01
  8.50000000E-01  8.50000000E-01  8.50000000E-01  8.50000000E-01  8.50000000E-01
  8.50000000E-01  8.50000000E-01  8.50000000E-01  8.50000000E-01  8.50000000E-01
  8.50000000E-01  8.50000000E-01  8.50000000E-01  8.50000000E-01  8.50000000E-01
  8.50000000E-01  8.50000000E-01  8.50000000E-01  8.50000000E-01  8.50000000E-01
  8.50000000E-01  8.50000000E-01  8.50000000E-01  8.50000000E-01  8.50000000E-01
  8.50000000E-01  8.50000000E-01  8.50000000E-01  8.50000000E-01  8.50000000E-01
  8.50000000E-01  8.50000000E-01  8.50000000E-01  8.50000000E-01  8.50000000E-01
  8.50000000E-01  8.50000000E-01  8.50000000E-01  8.50000000E-01  8.50000000E-01
  8.50000000E-01  8.50000000E-01  8.50000000E-01  8.50000000E-01  8.50000000E-01
  8.50000000E-01  8.50000000E-01  8.50000000E-01  8.50000000E-01  8.50000000E-01
  8.50000000E-01  8.50000000E-01  8.50000000E-01  8.50000000E-01  8.50000000E-01
  8.50000000E-01  8.50000000E-01  8.50000000E-01  8.50000000E-01  8.50000000E-01
  8.50000000E-01  8.50000000E-01  8.50000000E-01  8.50000000E-01  8.50000000E-01
  8.50000000E-01  8.50000000E-01  8.50000000E-01  8.50000000E-01  8.50000000E-01
  8.50000000E-01  8.50000000E-01  8.50000000E-01  8.50000000E-01  8.50000000E-01
  8.50000000E-01  8.50000000E-01  8.50000000E-01  8.50000000E-01  8.50000000E-01
  8.50000000E-01  8.50000000E-01  8.50000000E-01  8.50000000E-01  8.50000000E-01
  8.50000000E-01  8.50000000E-01  8.50000000E-01  8.50000000E-01  8.50000000E-01
  8.50000000E-01  8.50000000E-01  8.50000000E-01  8.50000000E-01  8.50000000E-01
  8.50000000E-01  8.50000000E-01  8.50000000E-01  8.50000000E-01  8.50000000E-01
  8.50000000E-01  8.50000000E-01  8.50000000E-01  8.50000000E-01  8.50000000E-01
  8.50000000E-01  8.50000000E-01  8.50000000E-01  8.50000000E-01  8.50000000E-01
  8.50000000E-01  8.50000000E-01  8.50000000E-01  8.50000000E-01  8.50000000E-01
  8.50000000E-01  8.50000000E-01  8.50000000E-01  8.50000000E-01  8.50000000E-01
  8.50000000E-01  8.50000000E-01  8.50000000E-01  8.50000000E-01  8.50000000E-01
  8.50000000E-01  8.50000000E-01  8.50000000E-01  8.50000000E-01  8.50000000E-01
  8.50000000E-01  8.50000000E-01  8.50000000E-01  8.50000000E-01  8.50000000E-01
  8.50000000E-01  8.50000000E-01  8.50000000E-01  8.50000000E-01  8.50000000E-01
  8.50000000E-01  8.50000000E-01  8.50000000E-01  8.50000000E-01  8.50000000E-01
  8.50000000E-01  8.50000000E-01  8.50000000E-01  8.50000000E-01  8.50000000E-01
  8.50000000E-01  8.50000000E-01  8.50000000E-01  8.50000000E-01  8.50000000E-01
  8.50000000E-01  8.50000000E-01  8.50000000E-01  8.50000000E-01  8.50000000E-01
  8.50000000E-01  8.50000000E-01  8.50000000E-01  8.50000000E-01  8.50000000E-01
  8.50000000E-01  8.50000000E-01  8.50000000E-01  8.50000000E-01  8.50000000E-01
  8.50000000E-01  8.50000000E-01  8.50000000E-01  8.50000000E-01  8.50000000E-01
  8.50000000E-01  8.50000000E-01  8.50000000E-01  8.50000000E-01  8.50000000E-01
  8.50000000E-01  8.50000000E-01  8.50000000E-01  8.50000000E-01  8.50000000E-01
  8.50000000E-01  8.50000000E-01  8.50000000E-01  8.50000000E-01  8.50000000E-01
  8.50000000E-01  8.50000000E-01  8.50000000E-01  8.50000000E-01  8.50000000E-01
  8.50000000E-01  8.50000000E-01  8.50000000E-01  8.50000000E-01  8.50000000E-01
  8.50000000E-01  8.50000000E-01  8.50000000E-01  8.50000000E-01  8.50000000E-01
  8.50000000E-01  8.50000000E-01  8.50000000E-01  8.50000000E-01  8.50000000E-01
  8.50000000E-01  8.50000000E-01  8.50000000E-01  8.50000000E-01  8.50000000E-01
  8.50000000E-01  8.50000000E-01  8.50000000E-01  8.50000000E-01  8.50000000E-01
  8.50000000E-01  8.50000000E-01  8.50000000E-01  8.50000000E-01  8.50000000E-01
  8.50000000E-01  8.50000000E-01  8.50000000E-01  8.50000000E-01  8.50000000E-01
  8.50000000E-01  8.50000000E-01  8.50000000E-01  8.50000000E-01  8.50000000E-01
  8.50000000E-01  8.50000000E-01  8.50000000E-01  8.50000000E-01  8.50000000E-01
  8.50000000E-01  8.50000000E-01  8.50000000E-01  8.50000000E-01  8.50000000E-01
  8.50000000E-01  8.50000000E-01  8.50000000E-01  8.50000000E-01  8.50000000E-01
  8.50000000E-01  8.50000000E-01  8.50000000E-01  8.50000000E-01  8.50000000E-01
  8.50000000E-01  8.50000000E-01  8.50000000E-01  8.50000000E-01  8.50000000E-01
  8.50000000E-01  8.50000000E-01  8.50000000E-01  8.50000000E-01  8.50000000E-01
  8.50000000E-01  8.50000000E-01  8.50000000E-01  8.50000000E-01  8.50000000E-01
  8.50000000E-01  8.50000000E-01  8.50000000E-01  8.50000000E-01  8.50000000E-01
  8.50000000E-01  8.50000000E-01  8.50000000E-01  8.50000000E-01  8.50000000E-01
  8.50000000E-01  8.50000000E-01  8.50000000E-01  8.50000000E-01  8.50000000E-01
  8.50000000E-01  8.50000000E-01  8.50000000E-01  8.50000000E-01  8.50000000E-01
  8.50000000E-01  8.50000000E-01  8.50000000E-01  8.50000000E-01  8.50000000E-01
  8.50000000E-01  8.50000000E-01  8.50000000E-01  8.50000000E-01  8.50000000E-01
  8.50000000E-01  8.50000000E-01  8.50000000E-01  8.50000000E-01  8.50000000E-01
  8.50000000E-01  8.50000000E-01  8.50000000E-01  8.50000000E-01  8.50000000E-01
  8.50000000E-01  8.50000000E-01  8.50000000E-01  8.50000000E-01  8.50000000E-01
  8.50000000E-01  8.50000000E-01  8.50000000E-01  8.50000000E-01  8.50000000E-01
  8.50000000E-01  8.50000000E-01  8.50000000E-01  8.50000000E-01  8.50000000E-01
  8.50000000E-01  8.50000000E-01  8.50000000E-01  8.50000000E-01  8.50000000E-01
  8.50000000E-01  8.50000000E-01  8.50000000E-01  8.50000000E-01  8.50000000E-01
  8.50000000E-01  8.50000000E-01  8.50000000E-01  8.50000000E-01  8.50000000E-01
  8.50000000E-01  8.50000000E-01  8.50000000E-01  8.50000000E-01  8.50000000E-01
  8.50000000E-01  8.50000000E-01  8.50000000E-01  8.50000000E-01  8.50000000E-01
  8.50000000E-01  8.50000000E-01  8.50000000E-01  8.50000000E-01  8.50000000E-01
  8.50000000E-01  8.50000000E-01  8.50000000E-01  8.50000000E-01  8.50000000E-01
  8.50000000E-01  8.50000000E-01  8.50000000E-01  8.50000000E-01  8.50000000E-01
  8.50000000E-01  8.50000000E-01  8.50000000E-01  8.50000000E-01  8.50000000E-01
  8.50000000E-01  8.50000000E-01  8.50000000E-01  8.50000000E-01  8.50000000E-01
  8.50000000E-01  8.50000000E-01  8.50000000E-01  8.50000000E-01  8.50000000E-01
  8.50000000E-01  8.50000000E-01  8.50000000E-01  8.50000000E-01  8.50000000E-01
  8.50000000E-01  8.50000000E-01  8.50000000E-01  8.50000000E-01  8.50000000E-01
  8.50000000E-01  8.50000000E-01  8.50000000E-01  8.50000000E-01  8.50000000E-01
  8.50000000E-01  8.50000000E-01  8.50000000E-01  8.50000000E-01  8.50000000E-01
  8.50000000E-01  8.50000000E-01  8.50000000E-01  8.50000000E-01  8.50000000E-01
  8.50000000E-01  8.50000000E-01  8.50000000E-01  8.50000000E-01  8.50000000E-01
  8.50000000E-01  8.50000000E-01  8.50000000E-01  8.50000000E-01  8.50000000E-01
  8.50000000E-01  8.50000000E-01  8.50000000E-01  8.50000000E-01  8.50000000E-01
  8.50000000E-01  8.50000000E-01  8.50000000E-01  8.50000000E-01  8.50000000E-01
  8.50000000E-01  8.50000000E-01  8.50000000E-01  8.50000000E-01  8.50000000E-01
  8.50000000E-01  8.50000000E-01  8.50000000E-01  8.50000000E-01  8.50000000E-01
  8.50000000E-01  8.50000000E-01  8.50000000E-01  8.50000000E-01  8.50000000E-01
  8.50000000E-01  8.50000000E-01  8.50000000E-01  8.50000000E-01  8.50000000E-01
  8.50000000E-01  8.50000000E-01  8.50000000E-01  8.50000000E-01  8.50000000E-01
  8.50000000E-01  8.50000000E-01  8.50000000E-01  8.50000000E-01  8.50000000E-01
  8.50000000E-01  8.50000000E-01  8.50000000E-01  8.50000000E-01  8.50000000E-01
  8.50000000E-01  8.50000000E-01  8.50000000E-01  8.50000000E-01  8.50000000E-01
  8.50000000E-01  8.50000000E-01  8.50000000E-01  8.50000000E-01  8.50000000E-01
  8.50000000E-01  8.50000000E-01  8.50000000E-01  8.50000000E-01  8.50000000E-01
  8.50000000E-01  8.50000000E-01  8.50000000E-01  8.50000000E-01  8.50000000E-01
  8.50000000E-01  8.50000000E-01  8.50000000E-01  8.50000000E-01  8.50000000E-01
  8.50000000E-01  8.50000000E-01  8.50000000E-01  8.50000000E-01  8.50000000E-01
  8.50000000E-01  8.50000000E-01  8.50000000E-01  8.50000000E-01  8.50000000E-01
  8.50000000E-01  8.50000000E-01  8.50000000E-01  8.50000000E-01  8.50000000E-01
  8.50000000E-01  8.50000000E-01  8.50000000E-01  8.50000000E-01  8.50000000E-01
  8.50000000E-01  8.50000000E-01  8.50000000E-01  8.50000000E-01  8.50000000E-01
  8.50000000E-01  8.50000000E-01  8.50000000E-01  8.50000000E-01  8.50000000E-01
  8.50000000E-01  8.50000000E-01  8.50000000E-01  8.50000000E-01  8.50000000E-01
  8.50000000E-01  8.50000000E-01  8.50000000E-01  8.50000000E-01  8.50000000E-01
  8.50000000E-01  8.50000000E-01  8.50000000E-01  8.50000000E-01  8.50000000E-01
  8.50000000E-01  8.50000000E-01  8.50000000E-01  8.50000000E-01  8.50000000E-01
  8.50000000E-01  8.50000000E-01  8.50000000E-01  8.50000000E-01  8.50000000E-01
  8.50000000E-01  8.50000000E-01  8.50000000E-01  8.50000000E-01  8.50000000E-01
  8.50000000E-01  8.50000000E-01  8.50000000E-01  8.50000000E-01  8.50000000E-01
  8.50000000E-01  8.50000000E-01  8.50000000E-01  8.50000000E-01  8.50000000E-01
  8.50000000E-01  8.50000000E-01  8.50000000E-01  8.50000000E-01  8.50000000E-01
  8.50000000E-01  8.50000000E-01  8.50000000E-01  8.50000000E-01  8.50000000E-01
  8.50000000E-01  8.50000000E-01  8.50000000E-01  8.50000000E-01  8.50000000E-01
  8.50000000E-01  8.50000000E-01  8.50000000E-01  8.50000000E-01  8.50000000E-01
  8.50000000E-01  8.50000000E-01  8.50000000E-01  8.50000000E-01  8.50000000E-01
  8.50000000E-01  8.50000000E-01  8.50000000E-01  8.50000000E-01  8.50000000E-01
  8.50000000E-01  8.50000000E-01  8.50000000E-01  8.50000000E-01  8.50000000E-01
  8.50000000E-01  8.50000000E-01  8.50000000E-01  8.50000000E-01  8.50000000E-01
  8.50000000E-01  8.50000000E-01  8.50000000E-01  8.50000000E-01  8.50000000E-01
  8.50000000E-01  8.50000000E-01  8.50000000E-01  8.50000000E-01  8.50000000E-01
  8.50000000E-01  8.50000000E-01  8.50000000E-01  8.50000000E-01  8.50000000E-01
  8.50000000E-01  8.50000000E-01  8.50000000E-01  8.50000000E-01  8.50000000E-01
  8.50000000E-01  8.50000000E-01  8.50000000E-01  8.50000000E-01  8.50000000E-01
  8.50000000E-01  8.50000000E-01  8.50000000E-01  8.50000000E-01  8.50000000E-01
  8.50000000E-01  8.50000000E-01  8.50000000E-01  8.50000000E-01  8.50000000E-01
  8.50000000E-01  8.50000000E-01  8.50000000E-01  8.50000000E-01  8.50000000E-01
  8.50000000E-01  8.50000000E-01  8.50000000E-01  8.50000000E-01  8.50000000E-01
  8.50000000E-01  8.50000000E-01  8.50000000E-01  8.50000000E-01  8.50000000E-01
  8.50000000E-01  8.50000000E-01  8.50000000E-01  8.50000000E-01  8.50000000E-01
  8.50000000E-01  8.50000000E-01  8.50000000E-01  8.50000000E-01  8.50000000E-01
  8.50000000E-01  8.50000000E-01  8.50000000E-01  8.50000000E-01  8.50000000E-01
  8.50000000E-01  8.50000000E-01  8.50000000E-01  8.50000000E-01  8.50000000E-01
  8.50000000E-01  8.50000000E-01  8.50000000E-01  8.50000000E-01  8.50000000E-01
  8.50000000E-01  8.50000000E-01  8.50000000E-01  8.50000000E-01  8.50000000E-01
  8.50000000E-01  8.50000000E-01  8.50000000E-01  8.50000000E-01  8.50000000E-01
  8.50000000E-01  8.50000000E-01  8.50000000E-01  8.50000000E-01  8.50000000E-01
  8.50000000E-01  8.50000000E-01  8.50000000E-01  8.50000000E-01  8.50000000E-01
  8.50000000E-01  8.50000000E-01  8.50000000E-01  8.50000000E-01  8.50000000E-01
  8.50000000E-01  8.50000000E-01  8.50000000E-01  8.50000000E-01  8.50000000E-01
  8.50000000E-01  8.50000000E-01  8.50000000E-01  8.50000000E-01  8.50000000E-01
  8.50000000E-01  8.50000000E-01  8.50000000E-01  8.50000000E-01  8.50000000E-01
  8.50000000E-01  8.50000000E-01  8.50000000E-01  8.50000000E-01  8.50000000E-01
  8.50000000E-01  8.50000000E-01  8.50000000E-01  8.50000000E-01  8.50000000E-01
  8.50000000E-01  8.50000000E-01  8.50000000E-01  8.50000000E-01  8.50000000E-01
  8.50000000E-01  8.50000000E-01  8.50000000E-01  8.50000000E-01  8.50000000E-01
  8.50000000E-01  8.50000000E-01  8.50000000E-01  8.50000000E-01  8.50000000E-01
  8.50000000E-01  8.50000000E-01  8.50000000E-01  8.50000000E-01  8.50000000E-01
  8.50000000E-01  8.50000000E-01  8.50000000E-01  8.50000000E-01  8.50000000E-01
  8.50000000E-01  8.50000000E-01  8.50000000E-01  8.50000000E-01  8.50000000E-01
  8.50000000E-01  8.50000000E-01  8.50000000E-01  8.50000000E-01  8.50000000E-01
  8.50000000E-01  8.50000000E-01  8.50000000E-01  8.50000000E-01  8.50000000E-01
  8.50000000E-01  8.50000000E-01  8.50000000E-01  8.50000000E-01  8.50000000E-01
  8.50000000E-01  8.50000000E-01  8.50000000E-01  8.50000000E-01  8.50000000E-01
  8.50000000E-01  8.50000000E-01  8.50000000E-01  8.50000000E-01  8.50000000E-01
  8.50000000E-01  8.50000000E-01  8.50000000E-01  8.50000000E-01  8.50000000E-01
  8.50000000E-01  8.50000000E-01  8.50000000E-01  8.50000000E-01  8.50000000E-01
  8.50000000E-01  8.50000000E-01  8.50000000E-01  8.50000000E-01  8.50000000E-01
  8.50000000E-01  8.50000000E-01  8.50000000E-01  8.50000000E-01  8.50000000E-01
  8.50000000E-01  8.50000000E-01  8.50000000E-01  8.50000000E-01  8.50000000E-01
  8.50000000E-01  8.50000000E-01  8.50000000E-01  8.50000000E-01  8.50000000E-01
  8.50000000E-01  8.50000000E-01  8.50000000E-01  8.50000000E-01  8.50000000E-01
  8.50000000E-01  8.50000000E-01  8.50000000E-01  8.50000000E-01  8.50000000E-01
  8.50000000E-01  8.50000000E-01  8.50000000E-01  8.50000000E-01  8.50000000E-01
  8.50000000E-01  8.50000000E-01  8.50000000E-01  8.50000000E-01  8.50000000E-01
  8.50000000E-01  8.50000000E-01  8.50000000E-01  8.50000000E-01  8.50000000E-01
  8.50000000E-01  8.50000000E-01  8.50000000E-01  8.50000000E-01  8.50000000E-01
  8.50000000E-01  8.50000000E-01  8.50000000E-01  8.50000000E-01  8.50000000E-01
  8.50000000E-01  8.50000000E-01  8.50000000E-01  8.50000000E-01  8.50000000E-01
  8.50000000E-01  8.50000000E-01  8.50000000E-01  8.50000000E-01  8.50000000E-01
  8.50000000E-01  8.50000000E-01  8.50000000E-01  8.50000000E-01  8.50000000E-01
  8.50000000E-01  8.50000000E-01  8.50000000E-01  8.50000000E-01  8.50000000E-01
  8.50000000E-01  8.50000000E-01  8.50000000E-01  8.50000000E-01  8.50000000E-01
  8.50000000E-01  8.50000000E-01  8.50000000E-01  8.50000000E-01  8.50000000E-01
  8.50000000E-01  8.50000000E-01  8.50000000E-01  8.50000000E-01  8.50000000E-01
  8.50000000E-01  8.50000000E-01  8.50000000E-01  8.50000000E-01  8.50000000E-01
  8.50000000E-01  8.50000000E-01  8.50000000E-01  8.50000000E-01  8.50000000E-01
  8.50000000E-01  8.50000000E-01  8.50000000E-01  8.50000000E-01  8.50000000E-01
  8.50000000E-01  8.50000000E-01  8.50000000E-01  8.50000000E-01  8.50000000E-01
  8.50000000E-01  8.50000000E-01  8.50000000E-01  8.50000000E-01  8.50000000E-01
  8.50000000E-01  8.50000000E-01  8.50000000E-01  8.50000000E-01  8.50000000E-01
  8.50000000E-01  8.50000000E-01  8.50000000E-01  8.50000000E-01  8.50000000E-01
  8.50000000E-01  8.50000000E-01  8.50000000E-01  8.50000000E-01  8.50000000E-01
  8.50000000E-01  8.50000000E-01  8.50000000E-01  8.50000000E-01  8.50000000E-01
  8.50000000E-01  8.50000000E-01  8.50000000E-01  8.50000000E-01  8.50000000E-01
  8.50000000E-01  8.50000000E-01  8.50000000E-01  8.50000000E-01  8.50000000E-01
  8.50000000E-01  8.50000000E-01  8.50000000E-01  8.50000000E-01  8.50000000E-01
  8.50000000E-01  8.50000000E-01  8.50000000E-01  8.50000000E-01  8.50000000E-01
  8.50000000E-01  8.50000000E-01  8.50000000E-01  8.50000000E-01  8.50000000E-01
  8.50000000E-01  8.50000000E-01  8.50000000E-01  8.50000000E-01  8.50000000E-01
  8.50000000E-01  8.50000000E-01  8.50000000E-01  8.50000000E-01  8.50000000E-01
  8.50000000E-01  8.50000000E-01  8.50000000E-01  8.50000000E-01  8.50000000E-01
  8.50000000E-01  8.50000000E-01  8.50000000E-01  8.50000000E-01  8.50000000E-01
  8.50000000E-01  8.50000000E-01  8.50000000E-01  8.50000000E-01  8.50000000E-01
  8.50000000E-01  8.50000000E-01  8.50000000E-01  8.50000000E-01  8.50000000E-01
  8.50000000E-01  8.50000000E-01  8.50000000E-01  8.50000000E-01  8.50000000E-01
  8.50000000E-01  8.50000000E-01  8.50000000E-01  8.50000000E-01  8.50000000E-01
  8.50000000E-01  8.50000000E-01  8.50000000E-01  8.50000000E-01  8.50000000E-01
  8.50000000E-01  8.50000000E-01  8.50000000E-01  8.50000000E-01  8.50000000E-01
  8.50000000E-01  8.50000000E-01  8.50000000E-01  8.50000000E-01  8.50000000E-01
  8.50000000E-01  8.50000000E-01  8.50000000E-01  8.50000000E-01  8.50000000E-01
  8.50000000E-01  8.50000000E-01  8.50000000E-01  8.50000000E-01  8.50000000E-01
  8.50000000E-01  8.50000000E-01  8.50000000E-01  8.50000000E-01  8.50000000E-01
  8.50000000E-01  8.50000000E-01  8.50000000E-01  8.50000000E-01  8.50000000E-01
  8.50000000E-01  8.50000000E-01  8.50000000E-01  8.50000000E-01  8.50000000E-01
  8.50000000E-01  8.50000000E-01  8.50000000E-01  8.50000000E-01  8.50000000E-01
  8.50000000E-01  8.50000000E-01  8.50000000E-01  8.50000000E-01  8.50000000E-01
  8.50000000E-01  8.50000000E-01  8.50000000E-01  8.50000000E-01  8.50000000E-01
  8.50000000E-01  8.50000000E-01  8.50000000E-01  8.50000000E-01  8.50000000E-01
  8.50000000E-01  8.50000000E-01  8.50000000E-01  8.50000000E-01  8.50000000E-01
  8.50000000E-01  8.50000000E-01  8.50000000E-01  8.50000000E-01  8.50000000E-01
  8.50000000E-01  8.50000000E-01  8.50000000E-01  8.50000000E-01  8.50000000E-01
  8.50000000E-01  8.50000000E-01  8.50000000E-01  8.50000000E-01  8.50000000E-01
  8.50000000E-01  8.50000000E-01  8.50000000E-01  8.50000000E-01  8.50000000E-01
  8.50000000E-01  8.50000000E-01  8.50000000E-01  8.50000000E-01  8.50000000E-01
  8.50000000E-01  8.50000000E-01  8.50000000E-01  8.50000000E-01  8.50000000E-01
  8.50000000E-01  8.50000000E-01  8.50000000E-01  8.50000000E-01  8.50000000E-01
  8.50000000E-01  8.50000000E-01  8.50000000E-01  8.50000000E-01  8.50000000E-01
  8.50000000E-01  8.50000000E-01  8.50000000E-01  8.50000000E-01  8.50000000E-01
  8.50000000E-01  8.50000000E-01  8.50000000E-01  8.50000000E-01  8.50000000E-01
  8.50000000E-01  8.50000000E-01  8.50000000E-01  8.50000000E-01  8.50000000E-01
  8.50000000E-01  8.50000000E-01  8.50000000E-01  8.50000000E-01  8.50000000E-01
  8.50000000E-01  8.50000000E-01  8.50000000E-01  8.50000000E-01  8.50000000E-01
  8.50000000E-01  8.50000000E-01  8.50000000E-01  8.50000000E-01  8.50000000E-01
  8.50000000E-01  8.50000000E-01  8.50000000E-01  8.50000000E-01  8.50000000E-01
  8.50000000E-01  8.50000000E-01  8.50000000E-01  8.50000000E-01  8.50000000E-01
  8.50000000E-01  8.50000000E-01  8.50000000E-01  8.50000000E-01  8.50000000E-01
  8.50000000E-01  8.50000000E-01  8.50000000E-01  8.50000000E-01  8.50000000E-01
  8.50000000E-01  8.50000000E-01  8.50000000E-01  8.50000000E-01  8.50000000E-01
  8.50000000E-01  8.50000000E-01  8.50000000E-01  8.50000000E-01  8.50000000E-01
  8.50000000E-01  8.50000000E-01  8.50000000E-01  8.50000000E-01  8.50000000E-01
  8.50000000E-01  8.50000000E-01  8.50000000E-01  8.50000000E-01  8.50000000E-01
  8.50000000E-01  8.50000000E-01  8.50000000E-01  8.50000000E-01  8.50000000E-01
  8.50000000E-01  8.50000000E-01  8.50000000E-01  8.50000000E-01  8.50000000E-01
  8.50000000E-01  8.50000000E-01  8.50000000E-01  8.50000000E-01  8.50000000E-01
  8.50000000E-01  8.50000000E-01  8.50000000E-01  8.50000000E-01  8.50000000E-01
  8.50000000E-01  8.50000000E-01  8.50000000E-01  8.50000000E-01  8.50000000E-01
  8.50000000E-01  8.50000000E-01  8.50000000E-01  8.50000000E-01  8.50000000E-01
  8.50000000E-01  8.50000000E-01  8.50000000E-01  8.50000000E-01  8.50000000E-01
  8.50000000E-01  8.50000000E-01  8.50000000E-01  8.50000000E-01  8.50000000E-01
  8.50000000E-01  8.50000000E-01  8.50000000E-01  8.50000000E-01  8.50000000E-01
  8.50000000E-01  8.50000000E-01  8.50000000E-01  8.50000000E-01  8.50000000E-01
  8.50000000E-01  8.50000000E-01  8.50000000E-01  8.50000000E-01  8.50000000E-01
  8.50000000E-01  8.50000000E-01  8.50000000E-01  8.50000000E-01  8.50000000E-01
  8.50000000E-01  8.50000000E-01  8.50000000E-01  8.50000000E-01  8.50000000E-01
  8.50000000E-01  8.50000000E-01  8.50000000E-01  8.50000000E-01  8.50000000E-01
  8.50000000E-01  8.50000000E-01  8.50000000E-01  8.50000000E-01  8.50000000E-01
  8.50000000E-01  8.50000000E-01  8.50000000E-01  8.50000000E-01  8.50000000E-01
  8.50000000E-01  8.50000000E-01  8.50000000E-01  8.50000000E-01  8.50000000E-01
  8.50000000E-01  8.50000000E-01  8.50000000E-01  8.50000000E-01  8.50000000E-01
  8.50000000E-01  8.50000000E-01  8.50000000E-01  8.50000000E-01  8.50000000E-01
  8.50000000E-01  8.50000000E-01  8.50000000E-01  8.50000000E-01  8.50000000E-01
  8.50000000E-01  8.50000000E-01  8.50000000E-01  8.50000000E-01  8.50000000E-01
  8.50000000E-01  8.50000000E-01  8.50000000E-01  8.50000000E-01  8.50000000E-01
  8.50000000E-01  8.50000000E-01  8.50000000E-01  8.50000000E-01  8.50000000E-01
  8.50000000E-01  8.50000000E-01  8.50000000E-01  8.50000000E-01  8.50000000E-01
  8.50000000E-01  8.50000000E-01  8.50000000E-01  8.50000000E-01  8.50000000E-01
  8.50000000E-01  8.50000000E-01  8.50000000E-01  8.50000000E-01  8.50000000E-01
  8.50000000E-01  8.50000000E-01  8.50000000E-01  8.50000000E-01  8.50000000E-01
  8.50000000E-01  8.50000000E-01  8.50000000E-01  8.50000000E-01  8.50000000E-01
  8.50000000E-01  8.50000000E-01  8.50000000E-01  8.50000000E-01  8.50000000E-01
  8.50000000E-01  8.50000000E-01  8.50000000E-01  8.50000000E-01  8.50000000E-01
  8.50000000E-01  8.50000000E-01  8.50000000E-01  8.50000000E-01  8.50000000E-01
  8.50000000E-01  8.50000000E-01  8.50000000E-01  8.50000000E-01  8.50000000E-01
  8.50000000E-01  8.50000000E-01  8.50000000E-01  8.50000000E-01  8.50000000E-01
  8.50000000E-01  8.50000000E-01  8.50000000E-01  8.50000000E-01  8.50000000E-01
  8.50000000E-01  8.50000000E-01  8.50000000E-01  8.50000000E-01  8.50000000E-01
  8.50000000E-01  8.50000000E-01  8.50000000E-01  8.50000000E-01  8.50000000E-01
  8.50000000E-01  8.50000000E-01  8.50000000E-01  8.50000000E-01  8.50000000E-01
  8.50000000E-01  8.50000000E-01  8.50000000E-01  8.50000000E-01  8.50000000E-01
  8.50000000E-01  8.50000000E-01  8.50000000E-01  8.50000000E-01  8.50000000E-01
  8.50000000E-01  8.50000000E-01  8.50000000E-01  8.50000000E-01  8.50000000E-01
  8.50000000E-01  8.50000000E-01  8.50000000E-01  8.50000000E-01  8.50000000E-01
  8.50000000E-01  8.50000000E-01  8.50000000E-01  8.50000000E-01  8.50000000E-01
  8.50000000E-01  8.50000000E-01  8.50000000E-01  8.50000000E-01  8.50000000E-01
  8.50000000E-01  8.50000000E-01  8.50000000E-01  8.50000000E-01  8.50000000E-01
  8.50000000E-01  8.50000000E-01  8.50000000E-01  8.50000000E-01  8.50000000E-01
  8.50000000E-01  8.50000000E-01  8.50000000E-01  8.50000000E-01  8.50000000E-01
  8.50000000E-01  8.50000000E-01  8.50000000E-01  8.50000000E-01  8.50000000E-01
  8.50000000E-01  8.50000000E-01  8.50000000E-01  8.50000000E-01  8.50000000E-01
  8.50000000E-01  8.50000000E-01  8.50000000E-01  8.50000000E-01  8.50000000E-01
  8.50000000E-01  8.50000000E-01  8.50000000E-01  8.50000000E-01  8.50000000E-01
  8.50000000E-01  8.50000000E-01  8.50000000E-01  8.50000000E-01  8.50000000E-01
  8.50000000E-01  8.50000000E-01  8.50000000E-01  8.50000000E-01  8.50000000E-01
  8.50000000E-01  8.50000000E-01  8.50000000E-01  8.50000000E-01  8.50000000E-01
  8.50000000E-01  8.50000000E-01  8.50000000E-01  8.50000000E-01  8.50000000E-01
  8.50000000E-01  8.50000000E-01  8.50000000E-01  8.50000000E-01  8.50000000E-01
  8.50000000E-01  8.50000000E-01  8.50000000E-01  8.50000000E-01  8.50000000E-01
  8.50000000E-01  8.50000000E-01  8.50000000E-01  8.50000000E-01  8.50000000E-01
  8.50000000E-01  8.50000000E-01  8.50000000E-01  8.50000000E-01  8.50000000E-01
  8.50000000E-01  8.50000000E-01  8.50000000E-01  8.50000000E-01  8.50000000E-01
  8.50000000E-01  8.50000000E-01  8.50000000E-01  8.50000000E-01  8.50000000E-01
  8.50000000E-01  8.50000000E-01  8.50000000E-01  8.50000000E-01  8.50000000E-01
  8.50000000E-01  8.50000000E-01  8.50000000E-01  8.50000000E-01  8.50000000E-01
  8.50000000E-01  8.50000000E-01  8.50000000E-01  8.50000000E-01  8.50000000E-01
  8.50000000E-01  8.50000000E-01  8.50000000E-01  8.50000000E-01  8.50000000E-01
  8.50000000E-01  8.50000000E-01  8.50000000E-01  8.50000000E-01  8.50000000E-01
  8.50000000E-01  8.50000000E-01  8.50000000E-01  8.50000000E-01  8.50000000E-01
  8.50000000E-01  8.50000000E-01  8.50000000E-01  8.50000000E-01  8.50000000E-01
  8.50000000E-01  8.50000000E-01  8.50000000E-01  8.50000000E-01  8.50000000E-01
  8.50000000E-01  8.50000000E-01  8.50000000E-01  8.50000000E-01  8.50000000E-01
  8.50000000E-01  8.50000000E-01  8.50000000E-01  8.50000000E-01  8.50000000E-01
  8.50000000E-01  8.50000000E-01  8.50000000E-01  8.50000000E-01  8.50000000E-01
  8.50000000E-01  8.50000000E-01  8.50000000E-01  8.50000000E-01  8.50000000E-01
  8.50000000E-01  8.50000000E-01  8.50000000E-01  8.50000000E-01  8.50000000E-01
  8.50000000E-01  8.50000000E-01  8.50000000E-01  8.50000000E-01  8.50000000E-01
  8.50000000E-01  8.50000000E-01  8.50000000E-01  8.50000000E-01  8.50000000E-01
  8.50000000E-01  8.50000000E-01  8.50000000E-01  8.50000000E-01  8.50000000E-01
  8.50000000E-01  8.50000000E-01  8.50000000E-01  8.50000000E-01  8.50000000E-01
  8.50000000E-01  8.50000000E-01  8.50000000E-01  8.50000000E-01  8.50000000E-01
  8.50000000E-01  8.50000000E-01  8.50000000E-01  8.50000000E-01  8.50000000E-01
  8.50000000E-01  8.50000000E-01  8.50000000E-01  8.50000000E-01  8.50000000E-01
  8.50000000E-01  8.50000000E-01  8.50000000E-01  8.50000000E-01  8.50000000E-01
  8.50000000E-01  8.50000000E-01  8.50000000E-01  8.50000000E-01  8.50000000E-01
  8.50000000E-01  8.50000000E-01  8.50000000E-01  8.50000000E-01  8.50000000E-01
  8.50000000E-01  8.50000000E-01  8.50000000E-01  8.50000000E-01  8.50000000E-01
  8.50000000E-01  8.50000000E-01  8.50000000E-01  8.50000000E-01  8.50000000E-01
  8.50000000E-01  8.50000000E-01  8.50000000E-01  8.50000000E-01  8.50000000E-01
  8.50000000E-01  8.50000000E-01  8.50000000E-01  8.50000000E-01  8.50000000E-01
  8.50000000E-01  8.50000000E-01  8.50000000E-01  8.50000000E-01  8.50000000E-01
  8.50000000E-01  8.50000000E-01  8.50000000E-01  8.50000000E-01  8.50000000E-01
  8.50000000E-01  8.50000000E-01  8.50000000E-01  8.50000000E-01  8.50000000E-01
  8.50000000E-01  8.50000000E-01  8.50000000E-01  8.50000000E-01  8.50000000E-01
  8.50000000E-01  8.50000000E-01  8.50000000E-01  8.50000000E-01  8.50000000E-01
  8.50000000E-01  8.50000000E-01  8.50000000E-01  8.50000000E-01  8.50000000E-01
  8.50000000E-01  8.50000000E-01  8.50000000E-01  8.50000000E-01  8.50000000E-01
  8.50000000E-01  8.50000000E-01  8.50000000E-01  8.50000000E-01  8.50000000E-01
  8.50000000E-01  8.50000000E-01  8.50000000E-01  8.50000000E-01  8.50000000E-01
  8.50000000E-01  8.50000000E-01  8.50000000E-01  8.50000000E-01  8.50000000E-01
  8.50000000E-01  8.50000000E-01  8.50000000E-01  8.50000000E-01  8.50000000E-01
  8.50000000E-01  8.50000000E-01  8.50000000E-01  8.50000000E-01  8.50000000E-01
  8.50000000E-01  8.50000000E-01  8.50000000E-01  8.50000000E-01  8.50000000E-01
  8.50000000E-01  8.50000000E-01  8.50000000E-01  8.50000000E-01  8.50000000E-01
  8.50000000E-01  8.50000000E-01  8.50000000E-01  8.50000000E-01  8.50000000E-01
  8.50000000E-01  8.50000000E-01  8.50000000E-01  8.50000000E-01  8.50000000E-01
  8.50000000E-01  8.50000000E-01  8.50000000E-01  8.50000000E-01  8.50000000E-01
  8.50000000E-01  8.50000000E-01  8.50000000E-01  8.50000000E-01  8.50000000E-01
  8.50000000E-01  8.50000000E-01  8.50000000E-01  8.50000000E-01  8.50000000E-01
  8.50000000E-01  8.50000000E-01  8.50000000E-01  8.50000000E-01  8.50000000E-01
  8.50000000E-01  8.50000000E-01  8.50000000E-01  8.50000000E-01  8.50000000E-01
  8.50000000E-01  8.50000000E-01  8.50000000E-01  8.50000000E-01  8.50000000E-01
  8.50000000E-01  8.50000000E-01  8.50000000E-01  8.50000000E-01  8.50000000E-01
  8.50000000E-01  8.50000000E-01  8.50000000E-01  8.50000000E-01  8.50000000E-01
  8.50000000E-01  8.50000000E-01  8.50000000E-01  8.50000000E-01  8.50000000E-01
  8.50000000E-01  8.50000000E-01  8.50000000E-01  8.50000000E-01  8.50000000E-01
  8.50000000E-01  8.50000000E-01  8.50000000E-01  8.50000000E-01  8.50000000E-01
  8.50000000E-01  8.50000000E-01  8.50000000E-01  8.50000000E-01  8.50000000E-01
  8.50000000E-01  8.50000000E-01  8.50000000E-01  8.50000000E-01  8.50000000E-01
  8.50000000E-01  8.50000000E-01  8.50000000E-01  8.50000000E-01  8.50000000E-01
  8.50000000E-01  8.50000000E-01  8.50000000E-01  8.50000000E-01  8.50000000E-01
  8.50000000E-01  8.50000000E-01  8.50000000E-01  8.50000000E-01  8.50000000E-01
  8.50000000E-01  8.50000000E-01  8.50000000E-01  8.50000000E-01  8.50000000E-01
  8.50000000E-01  8.50000000E-01  8.50000000E-01  8.50000000E-01  8.50000000E-01
  8.50000000E-01  8.50000000E-01  8.50000000E-01  8.50000000E-01  8.50000000E-01
  8.50000000E-01  8.50000000E-01  8.50000000E-01  8.50000000E-01  8.50000000E-01
  8.50000000E-01  8.50000000E-01  8.50000000E-01  8.50000000E-01  8.50000000E-01
  8.50000000E-01  8.50000000E-01  8.50000000E-01  8.50000000E-01  8.50000000E-01
  8.50000000E-01  8.50000000E-01  8.50000000E-01  8.50000000E-01  8.50000000E-01
  8.50000000E-01  8.50000000E-01  8.50000000E-01  8.50000000E-01  8.50000000E-01
  8.50000000E-01  8.50000000E-01  8.50000000E-01  8.50000000E-01  8.50000000E-01
  8.50000000E-01  8.50000000E-01  8.50000000E-01  8.50000000E-01  8.50000000E-01
  8.50000000E-01  8.50000000E-01  8.50000000E-01  8.50000000E-01  8.50000000E-01
  8.50000000E-01  8.50000000E-01  8.50000000E-01  8.50000000E-01  8.50000000E-01
  8.50000000E-01  8.50000000E-01  8.50000000E-01  8.50000000E-01  8.50000000E-01
  8.50000000E-01  8.50000000E-01  8.50000000E-01  8.50000000E-01  8.50000000E-01
  8.50000000E-01  8.50000000E-01  8.50000000E-01  8.50000000E-01  8.50000000E-01
  8.50000000E-01  8.50000000E-01  8.50000000E-01  8.50000000E-01  8.50000000E-01
  8.50000000E-01  8.50000000E-01  8.50000000E-01  8.50000000E-01  8.50000000E-01
  8.50000000E-01  8.50000000E-01  8.50000000E-01  8.50000000E-01  8.50000000E-01
  8.50000000E-01  8.50000000E-01  8.50000000E-01  8.50000000E-01  8.50000000E-01
  8.50000000E-01  8.50000000E-01  8.50000000E-01  8.50000000E-01  8.50000000E-01
  8.50000000E-01  8.50000000E-01  8.50000000E-01  8.50000000E-01  8.50000000E-01
  8.50000000E-01  8.50000000E-01  8.50000000E-01  8.50000000E-01  8.50000000E-01
  8.50000000E-01  8.50000000E-01  8.50000000E-01  8.50000000E-01  8.50000000E-01
  8.50000000E-01  8.50000000E-01  8.50000000E-01  8.50000000E-01  8.50000000E-01
  8.50000000E-01  8.50000000E-01  8.50000000E-01  8.50000000E-01  8.50000000E-01
  8.50000000E-01  8.50000000E-01  8.50000000E-01  8.50000000E-01  8.50000000E-01
  8.50000000E-01  8.50000000E-01  8.50000000E-01  8.50000000E-01  8.50000000E-01
  8.50000000E-01  8.50000000E-01  8.50000000E-01  8.50000000E-01  8.50000000E-01
  8.50000000E-01  8.50000000E-01  8.50000000E-01  8.50000000E-01  8.50000000E-01
  8.50000000E-01  8.50000000E-01  8.50000000E-01  8.50000000E-01  8.50000000E-01
  8.50000000E-01  8.50000000E-01  8.50000000E-01  8.50000000E-01  8.50000000E-01
  8.50000000E-01  8.50000000E-01  8.50000000E-01  8.50000000E-01  8.50000000E-01
  8.50000000E-01  8.50000000E-01  8.50000000E-01  8.50000000E-01  8.50000000E-01
  8.50000000E-01  8.50000000E-01  8.50000000E-01  8.50000000E-01  8.50000000E-01
  8.50000000E-01  8.50000000E-01  8.50000000E-01  8.50000000E-01  8.50000000E-01
  8.50000000E-01  8.50000000E-01  8.50000000E-01  8.50000000E-01  8.50000000E-01
  8.50000000E-01  8.50000000E-01  8.50000000E-01  8.50000000E-01  8.50000000E-01
  8.50000000E-01  8.50000000E-01  8.50000000E-01  8.50000000E-01  8.50000000E-01
  8.50000000E-01  8.50000000E-01  8.50000000E-01  8.50000000E-01  8.50000000E-01
  8.50000000E-01  8.50000000E-01  8.50000000E-01  8.50000000E-01  8.50000000E-01
  8.50000000E-01  8.50000000E-01  8.50000000E-01  8.50000000E-01  8.50000000E-01
  8.50000000E-01  8.50000000E-01  8.50000000E-01  8.50000000E-01  8.50000000E-01
  8.50000000E-01  8.50000000E-01  8.50000000E-01  8.50000000E-01  8.50000000E-01
  8.50000000E-01  8.50000000E-01  8.50000000E-01  8.50000000E-01  8.50000000E-01
  8.50000000E-01  8.50000000E-01  8.50000000E-01  8.50000000E-01  8.50000000E-01
  8.50000000E-01  8.50000000E-01  8.50000000E-01  8.50000000E-01  8.50000000E-01
  8.50000000E-01  8.50000000E-01  8.50000000E-01  8.50000000E-01  8.50000000E-01
  8.50000000E-01  8.50000000E-01  8.50000000E-01  8.50000000E-01  8.50000000E-01
  8.50000000E-01  8.50000000E-01  8.50000000E-01  8.50000000E-01  8.50000000E-01
  8.50000000E-01  8.50000000E-01  8.50000000E-01  8.50000000E-01  8.50000000E-01
  8.50000000E-01  8.50000000E-01  8.50000000E-01  8.50000000E-01  8.50000000E-01
  8.50000000E-01  8.50000000E-01  8.50000000E-01  8.50000000E-01  8.50000000E-01
  8.50000000E-01  8.50000000E-01  8.50000000E-01  8.50000000E-01  8.50000000E-01
  8.50000000E-01  8.50000000E-01  8.50000000E-01  8.50000000E-01  8.50000000E-01
  8.50000000E-01  8.50000000E-01  8.50000000E-01  8.50000000E-01  8.50000000E-01
  8.50000000E-01  8.50000000E-01  8.50000000E-01  8.50000000E-01  8.50000000E-01
  8.50000000E-01  8.50000000E-01  8.50000000E-01  8.50000000E-01  8.50000000E-01
  8.50000000E-01  8.50000000E-01  8.50000000E-01  8.50000000E-01  8.50000000E-01
  8.50000000E-01  8.50000000E-01  8.50000000E-01  8.50000000E-01  8.50000000E-01
  8.50000000E-01  8.50000000E-01  8.50000000E-01  8.50000000E-01  8.50000000E-01
  8.50000000E-01  8.50000000E-01  8.50000000E-01  8.50000000E-01  8.50000000E-01
  8.50000000E-01  8.50000000E-01  8.50000000E-01  8.50000000E-01  8.50000000E-01
  8.50000000E-01  8.50000000E-01  8.50000000E-01  8.50000000E-01  8.50000000E-01
  8.50000000E-01  8.50000000E-01  8.50000000E-01  8.50000000E-01  8.50000000E-01
  8.50000000E-01  8.50000000E-01  8.50000000E-01  8.50000000E-01  8.50000000E-01
  8.50000000E-01  8.50000000E-01  8.50000000E-01  8.50000000E-01  8.50000000E-01
  8.50000000E-01  8.50000000E-01  8.50000000E-01  8.50000000E-01  8.50000000E-01
  8.50000000E-01  8.50000000E-01  8.50000000E-01  8.50000000E-01  8.50000000E-01
  8.50000000E-01  8.50000000E-01  8.50000000E-01  8.50000000E-01  8.50000000E-01
  8.50000000E-01  8.50000000E-01  8.50000000E-01  8.50000000E-01  8.50000000E-01
  8.50000000E-01  8.50000000E-01  8.50000000E-01  8.50000000E-01  8.50000000E-01
  8.50000000E-01  8.50000000E-01  8.50000000E-01  8.50000000E-01  8.50000000E-01
  8.50000000E-01  8.50000000E-01  8.50000000E-01  8.50000000E-01  8.50000000E-01
  8.50000000E-01  8.50000000E-01  8.50000000E-01  8.50000000E-01  8.50000000E-01
  8.50000000E-01  8.50000000E-01  8.50000000E-01  8.50000000E-01  8.50000000E-01
  8.50000000E-01  8.50000000E-01  8.50000000E-01  8.50000000E-01  8.50000000E-01
  8.50000000E-01  8.50000000E-01  8.50000000E-01  8.50000000E-01  8.50000000E-01
  8.50000000E-01  8.50000000E-01  8.50000000E-01  8.50000000E-01  8.50000000E-01
  8.50000000E-01  8.50000000E-01  8.50000000E-01  8.50000000E-01  8.50000000E-01
  8.50000000E-01  8.50000000E-01  8.50000000E-01  8.50000000E-01  8.50000000E-01
  8.50000000E-01  8.50000000E-01  8.50000000E-01  8.50000000E-01  8.50000000E-01
  8.50000000E-01  8.50000000E-01  8.50000000E-01  8.50000000E-01  8.50000000E-01
  8.50000000E-01  8.50000000E-01  8.50000000E-01  8.50000000E-01  8.50000000E-01
  8.50000000E-01  8.50000000E-01  8.50000000E-01  8.50000000E-01  8.50000000E-01
  8.50000000E-01  8.50000000E-01  8.50000000E-01  8.50000000E-01  8.50000000E-01
  8.50000000E-01  8.50000000E-01  8.50000000E-01  8.50000000E-01  8.50000000E-01
  8.50000000E-01  8.50000000E-01  8.50000000E-01  8.50000000E-01  8.50000000E-01
  8.50000000E-01  8.50000000E-01  8.50000000E-01  8.50000000E-01  8.50000000E-01
  8.50000000E-01  8.50000000E-01  8.50000000E-01  8.50000000E-01  8.50000000E-01
  8.50000000E-01  8.50000000E-01  8.50000000E-01  8.50000000E-01  8.50000000E-01
  8.50000000E-01  8.50000000E-01  8.50000000E-01  8.50000000E-01  8.50000000E-01
  8.50000000E-01  8.50000000E-01  8.50000000E-01  8.50000000E-01  8.50000000E-01
  8.50000000E-01  8.50000000E-01  8.50000000E-01  8.50000000E-01  8.50000000E-01
  8.50000000E-01  8.50000000E-01  8.50000000E-01  8.50000000E-01  8.50000000E-01
  8.50000000E-01  8.50000000E-01  8.50000000E-01  8.50000000E-01  8.50000000E-01
  8.50000000E-01  8.50000000E-01  8.50000000E-01  8.50000000E-01  8.50000000E-01
  8.50000000E-01  8.50000000E-01  8.50000000E-01  8.50000000E-01  8.50000000E-01
  8.50000000E-01  8.50000000E-01  8.50000000E-01  8.50000000E-01  8.50000000E-01
  8.50000000E-01  8.50000000E-01  8.50000000E-01  8.50000000E-01  8.50000000E-01
  8.50000000E-01  8.50000000E-01  8.50000000E-01  8.50000000E-01  8.50000000E-01
  8.50000000E-01  8.50000000E-01  8.50000000E-01  8.50000000E-01  8.50000000E-01
  8.50000000E-01  8.50000000E-01  8.50000000E-01  8.50000000E-01  8.50000000E-01
  8.50000000E-01  8.50000000E-01  8.50000000E-01  8.50000000E-01  8.50000000E-01
  8.50000000E-01  8.50000000E-01  8.50000000E-01  8.50000000E-01  8.50000000E-01
  8.50000000E-01  8.50000000E-01  8.50000000E-01  8.50000000E-01  8.50000000E-01
  8.50000000E-01  8.50000000E-01  8.50000000E-01  8.50000000E-01  8.50000000E-01
  8.50000000E-01  8.50000000E-01  8.50000000E-01  8.50000000E-01  8.50000000E-01
  8.50000000E-01  8.50000000E-01  8.50000000E-01  8.50000000E-01  8.50000000E-01
  8.50000000E-01  8.50000000E-01  8.50000000E-01  8.50000000E-01  8.50000000E-01
  8.50000000E-01  8.50000000E-01  8.50000000E-01  8.50000000E-01  8.50000000E-01
  8.50000000E-01  8.50000000E-01  8.50000000E-01  8.50000000E-01  8.50000000E-01
  8.50000000E-01  8.50000000E-01  8.50000000E-01  8.50000000E-01  8.50000000E-01
  8.50000000E-01  8.50000000E-01  8.50000000E-01  8.50000000E-01  8.50000000E-01
  8.50000000E-01  8.50000000E-01  8.50000000E-01  8.50000000E-01  8.50000000E-01
  8.50000000E-01  8.50000000E-01  8.50000000E-01  8.50000000E-01  8.50000000E-01
  8.50000000E-01  8.50000000E-01  8.50000000E-01  8.50000000E-01  8.50000000E-01
  8.50000000E-01  8.50000000E-01  8.50000000E-01  8.50000000E-01  8.50000000E-01
  8.50000000E-01  8.50000000E-01  8.50000000E-01  8.50000000E-01  8.50000000E-01
  8.50000000E-01  8.50000000E-01  8.50000000E-01  8.50000000E-01  8.50000000E-01
  8.50000000E-01  8.50000000E-01  8.50000000E-01  8.50000000E-01  8.50000000E-01
  8.50000000E-01  8.50000000E-01  8.50000000E-01  8.50000000E-01  8.50000000E-01
  8.50000000E-01  8.50000000E-01  8.50000000E-01  8.50000000E-01  8.50000000E-01
  8.50000000E-01  8.50000000E-01  8.50000000E-01  8.50000000E-01  8.50000000E-01
  8.50000000E-01  8.50000000E-01  8.50000000E-01  8.50000000E-01  8.50000000E-01
  8.50000000E-01  8.50000000E-01  8.50000000E-01  8.50000000E-01  8.50000000E-01
  8.50000000E-01  8.50000000E-01  8.50000000E-01  8.50000000E-01  8.50000000E-01
  8.50000000E-01  8.50000000E-01  8.50000000E-01  8.50000000E-01  8.50000000E-01
  8.50000000E-01  8.50000000E-01  8.50000000E-01  8.50000000E-01  8.50000000E-01
  8.50000000E-01  8.50000000E-01  8.50000000E-01  8.50000000E-01  8.50000000E-01
  8.50000000E-01  8.50000000E-01  8.50000000E-01  8.50000000E-01  8.50000000E-01
  8.50000000E-01  8.50000000E-01  8.50000000E-01  8.50000000E-01  8.50000000E-01
  8.50000000E-01  8.50000000E-01  8.50000000E-01  8.50000000E-01  8.50000000E-01
  8.50000000E-01  8.50000000E-01  8.50000000E-01  8.50000000E-01  8.50000000E-01
  8.50000000E-01  8.50000000E-01  8.50000000E-01  8.50000000E-01  8.50000000E-01
  8.50000000E-01  8.50000000E-01  8.50000000E-01  8.50000000E-01  8.50000000E-01
  8.50000000E-01  8.50000000E-01  8.50000000E-01  8.50000000E-01  8.50000000E-01
  8.50000000E-01  8.50000000E-01  8.50000000E-01  8.50000000E-01  8.50000000E-01
  8.50000000E-01  8.50000000E-01  8.50000000E-01  8.50000000E-01  8.50000000E-01
  8.50000000E-01  8.50000000E-01  8.50000000E-01  8.50000000E-01  8.50000000E-01
  8.50000000E-01  8.50000000E-01  8.50000000E-01  8.50000000E-01  8.50000000E-01
  8.50000000E-01  8.50000000E-01  8.50000000E-01  8.50000000E-01  8.50000000E-01
  8.50000000E-01  8.50000000E-01  8.50000000E-01  8.50000000E-01  8.50000000E-01
  8.50000000E-01  8.50000000E-01  8.50000000E-01  8.50000000E-01  8.50000000E-01
  8.50000000E-01  8.50000000E-01  8.50000000E-01  8.50000000E-01  8.50000000E-01
  8.50000000E-01  8.50000000E-01  8.50000000E-01  8.50000000E-01  8.50000000E-01
  8.50000000E-01  8.50000000E-01  8.50000000E-01  8.50000000E-01  8.50000000E-01
  8.50000000E-01  8.50000000E-01  8.50000000E-01  8.50000000E-01  8.50000000E-01
  8.50000000E-01  8.50000000E-01  8.50000000E-01  8.50000000E-01  8.50000000E-01
  8.50000000E-01  8.50000000E-01  8.50000000E-01  8.50000000E-01  8.50000000E-01
  8.50000000E-01  8.50000000E-01  8.50000000E-01  8.50000000E-01  8.50000000E-01
  8.50000000E-01  8.50000000E-01  8.50000000E-01  8.50000000E-01  8.50000000E-01
  8.50000000E-01  8.50000000E-01  8.50000000E-01  8.50000000E-01  8.50000000E-01
  8.50000000E-01  8.50000000E-01  8.50000000E-01  8.50000000E-01  8.50000000E-01
  8.50000000E-01  8.50000000E-01  8.50000000E-01  8.50000000E-01  8.50000000E-01
  8.50000000E-01  8.50000000E-01  8.50000000E-01  8.50000000E-01  8.50000000E-01
  8.50000000E-01  8.50000000E-01  8.50000000E-01  8.50000000E-01  8.50000000E-01
  8.50000000E-01  8.50000000E-01  8.50000000E-01  8.50000000E-01  8.50000000E-01
  8.50000000E-01  8.50000000E-01  8.50000000E-01  8.50000000E-01  8.50000000E-01
  8.50000000E-01  8.50000000E-01  8.50000000E-01  8.50000000E-01  8.50000000E-01
  8.50000000E-01  8.50000000E-01  8.50000000E-01  8.50000000E-01  8.50000000E-01
  8.50000000E-01  8.50000000E-01  8.50000000E-01  8.50000000E-01  8.50000000E-01
  8.50000000E-01  8.50000000E-01  8.50000000E-01  8.50000000E-01  8.50000000E-01
  8.50000000E-01  8.50000000E-01  8.50000000E-01  8.50000000E-01  8.50000000E-01
  8.50000000E-01  8.50000000E-01  8.50000000E-01  8.50000000E-01  8.50000000E-01
  8.50000000E-01  8.50000000E-01  8.50000000E-01  8.50000000E-01  8.50000000E-01
  8.50000000E-01  8.50000000E-01  8.50000000E-01  8.50000000E-01  8.50000000E-01
  8.50000000E-01  8.50000000E-01  8.50000000E-01  8.50000000E-01  8.50000000E-01
  8.50000000E-01  8.50000000E-01  8.50000000E-01  8.50000000E-01  8.50000000E-01
  8.50000000E-01  8.50000000E-01  8.50000000E-01  8.50000000E-01  8.50000000E-01
  8.50000000E-01  8.50000000E-01  8.50000000E-01  8.50000000E-01  8.50000000E-01
  8.50000000E-01  8.50000000E-01  8.50000000E-01  8.50000000E-01  8.50000000E-01
  8.50000000E-01  8.50000000E-01  8.50000000E-01  8.50000000E-01  8.50000000E-01
  8.50000000E-01  8.50000000E-01  8.50000000E-01  8.50000000E-01  8.50000000E-01
  8.50000000E-01  8.50000000E-01  8.50000000E-01  8.50000000E-01  8.50000000E-01
  8.50000000E-01  8.50000000E-01  8.50000000E-01  8.50000000E-01  8.50000000E-01
  8.50000000E-01  8.50000000E-01  8.50000000E-01  8.50000000E-01  8.50000000E-01
  8.50000000E-01  8.50000000E-01  8.50000000E-01  8.50000000E-01  8.50000000E-01
  8.50000000E-01  8.50000000E-01  8.50000000E-01  8.50000000E-01  8.50000000E-01
  8.50000000E-01  8.50000000E-01  8.50000000E-01  8.50000000E-01  8.50000000E-01
  8.50000000E-01  8.50000000E-01  8.50000000E-01  8.50000000E-01  8.50000000E-01
  8.50000000E-01  8.50000000E-01  8.50000000E-01  8.50000000E-01  8.50000000E-01
  8.50000000E-01  8.50000000E-01  8.50000000E-01  8.50000000E-01  8.50000000E-01
  8.50000000E-01  8.50000000E-01  8.50000000E-01  8.50000000E-01  8.50000000E-01
  8.50000000E-01  8.50000000E-01  8.50000000E-01  8.50000000E-01  8.50000000E-01
  8.50000000E-01  8.50000000E-01  8.50000000E-01  8.50000000E-01  8.50000000E-01
  8.50000000E-01  8.50000000E-01  8.50000000E-01  8.50000000E-01  8.50000000E-01
  8.50000000E-01  8.50000000E-01  8.50000000E-01  8.50000000E-01  8.50000000E-01
  8.50000000E-01  8.50000000E-01  8.50000000E-01  8.50000000E-01  8.50000000E-01
  8.50000000E-01  8.50000000E-01  8.50000000E-01  8.50000000E-01  8.50000000E-01
  8.50000000E-01  8.50000000E-01  8.50000000E-01  8.50000000E-01  8.50000000E-01
  8.50000000E-01  8.50000000E-01  8.50000000E-01  8.50000000E-01  8.50000000E-01
  8.50000000E-01  8.50000000E-01  8.50000000E-01  8.50000000E-01  8.50000000E-01
  8.50000000E-01  8.50000000E-01  8.50000000E-01  8.50000000E-01  8.50000000E-01
  8.50000000E-01  8.50000000E-01  8.50000000E-01  8.50000000E-01  8.50000000E-01
  8.50000000E-01  8.50000000E-01  8.50000000E-01  8.50000000E-01  8.50000000E-01
  8.50000000E-01  8.50000000E-01  8.50000000E-01  8.50000000E-01  8.50000000E-01
  8.50000000E-01  8.50000000E-01  8.50000000E-01  8.50000000E-01  8.50000000E-01
  8.50000000E-01  8.50000000E-01  8.50000000E-01  8.50000000E-01  8.50000000E-01
  8.50000000E-01  8.50000000E-01  8.50000000E-01  8.50000000E-01  8.50000000E-01
  8.50000000E-01  8.50000000E-01  8.50000000E-01  8.50000000E-01  8.50000000E-01
  8.50000000E-01  8.50000000E-01  8.50000000E-01  8.50000000E-01  8.50000000E-01
  8.50000000E-01  8.50000000E-01  8.50000000E-01  8.50000000E-01  8.50000000E-01
  8.50000000E-01  8.50000000E-01  8.50000000E-01  8.50000000E-01  8.50000000E-01
  8.50000000E-01  8.50000000E-01  8.50000000E-01  8.50000000E-01  8.50000000E-01
  8.50000000E-01  8.50000000E-01  8.50000000E-01  8.50000000E-01  8.50000000E-01
  8.50000000E-01  8.50000000E-01  8.50000000E-01  8.50000000E-01  8.50000000E-01
  8.50000000E-01  8.50000000E-01  8.50000000E-01  8.50000000E-01  8.50000000E-01
  8.50000000E-01  8.50000000E-01  8.50000000E-01  8.50000000E-01  8.50000000E-01
  8.50000000E-01  8.50000000E-01  8.50000000E-01  8.50000000E-01  8.50000000E-01
  8.50000000E-01  8.50000000E-01  8.50000000E-01  8.50000000E-01  8.50000000E-01
  8.50000000E-01  8.50000000E-01  8.50000000E-01  8.50000000E-01  8.50000000E-01
  8.50000000E-01  8.50000000E-01  8.50000000E-01  8.50000000E-01  8.50000000E-01
  8.50000000E-01  8.50000000E-01  8.50000000E-01  8.50000000E-01  8.50000000E-01
  8.50000000E-01  8.50000000E-01  8.50000000E-01  8.50000000E-01  8.50000000E-01
  8.50000000E-01  8.50000000E-01  8.50000000E-01  8.50000000E-01  8.50000000E-01
  8.50000000E-01  8.50000000E-01  8.50000000E-01  8.50000000E-01  8.50000000E-01
  8.50000000E-01  8.50000000E-01  8.50000000E-01  8.50000000E-01  8.50000000E-01
  8.50000000E-01  8.50000000E-01  8.50000000E-01  8.50000000E-01  8.50000000E-01
  8.50000000E-01  8.50000000E-01  8.50000000E-01  8.50000000E-01  8.50000000E-01
  8.50000000E-01  8.50000000E-01  8.50000000E-01  8.50000000E-01  8.50000000E-01
  8.50000000E-01  8.50000000E-01  8.50000000E-01  8.50000000E-01  8.50000000E-01
  8.50000000E-01  8.50000000E-01  8.50000000E-01  8.50000000E-01  8.50000000E-01
  8.50000000E-01  8.50000000E-01  8.50000000E-01  8.50000000E-01  8.50000000E-01
  8.50000000E-01  8.50000000E-01  8.50000000E-01  8.50000000E-01  8.50000000E-01
  8.50000000E-01  8.50000000E-01  8.50000000E-01  8.50000000E-01  8.50000000E-01
  8.50000000E-01  8.50000000E-01  8.50000000E-01  8.50000000E-01  8.50000000E-01
  8.50000000E-01  8.50000000E-01  8.50000000E-01  8.50000000E-01  8.50000000E-01
  8.50000000E-01  8.50000000E-01  8.50000000E-01  8.50000000E-01  8.50000000E-01
  8.50000000E-01  8.50000000E-01  8.50000000E-01  8.50000000E-01  8.50000000E-01
  8.50000000E-01  8.50000000E-01  8.50000000E-01  8.50000000E-01  8.50000000E-01
  8.50000000E-01  8.50000000E-01  8.50000000E-01  8.50000000E-01  8.50000000E-01
  8.50000000E-01  8.50000000E-01  8.50000000E-01  8.50000000E-01  8.50000000E-01
  8.50000000E-01  8.50000000E-01  8.50000000E-01  8.50000000E-01  8.50000000E-01
  8.50000000E-01  8.50000000E-01  8.50000000E-01  8.50000000E-01  8.50000000E-01
  8.50000000E-01  8.50000000E-01  8.50000000E-01  8.50000000E-01  8.50000000E-01
  8.50000000E-01  8.50000000E-01  8.50000000E-01  8.50000000E-01  8.50000000E-01
  8.50000000E-01  8.50000000E-01  8.50000000E-01  8.50000000E-01  8.50000000E-01
  8.50000000E-01  8.50000000E-01  8.50000000E-01  8.50000000E-01  8.50000000E-01
  8.50000000E-01  8.50000000E-01  8.50000000E-01  8.50000000E-01  8.50000000E-01
  8.50000000E-01  8.50000000E-01  8.50000000E-01  8.50000000E-01  8.50000000E-01
  8.50000000E-01  8.50000000E-01  8.50000000E-01  8.50000000E-01  8.50000000E-01
  8.50000000E-01  8.50000000E-01  8.50000000E-01  8.50000000E-01  8.50000000E-01
  8.50000000E-01  8.50000000E-01  8.50000000E-01  8.50000000E-01  8.50000000E-01
  8.50000000E-01  8.50000000E-01  8.50000000E-01  8.50000000E-01  8.50000000E-01
  8.50000000E-01  8.50000000E-01  8.50000000E-01  8.50000000E-01  8.50000000E-01
  8.50000000E-01  8.50000000E-01  8.50000000E-01  8.50000000E-01  8.50000000E-01
  8.50000000E-01  8.50000000E-01  8.50000000E-01  8.50000000E-01  8.50000000E-01
  8.50000000E-01  8.50000000E-01  8.50000000E-01  8.50000000E-01  8.50000000E-01
  8.50000000E-01  8.50000000E-01  8.50000000E-01  8.50000000E-01  8.50000000E-01
  8.50000000E-01  8.50000000E-01  8.50000000E-01  8.50000000E-01  8.50000000E-01
  8.50000000E-01  8.50000000E-01  8.50000000E-01  8.50000000E-01  8.50000000E-01
  8.50000000E-01  8.50000000E-01  8.50000000E-01  8.50000000E-01  8.50000000E-01
  8.50000000E-01  8.50000000E-01  8.50000000E-01  8.50000000E-01  8.50000000E-01
  8.50000000E-01  8.50000000E-01  8.50000000E-01  8.50000000E-01  8.50000000E-01
  8.50000000E-01  8.50000000E-01  8.50000000E-01  8.50000000E-01  8.50000000E-01
  8.50000000E-01  8.50000000E-01  8.50000000E-01  8.50000000E-01  8.50000000E-01
  8.50000000E-01  8.50000000E-01  8.50000000E-01  8.50000000E-01  8.50000000E-01
  8.50000000E-01  8.50000000E-01  8.50000000E-01  8.50000000E-01  8.50000000E-01
  8.50000000E-01  8.50000000E-01  8.50000000E-01  8.50000000E-01  8.50000000E-01
  8.50000000E-01  8.50000000E-01  8.50000000E-01  8.50000000E-01  8.50000000E-01
  8.50000000E-01  8.50000000E-01  8.50000000E-01  8.50000000E-01  8.50000000E-01
  8.50000000E-01  8.50000000E-01  8.50000000E-01  8.50000000E-01  8.50000000E-01
  8.50000000E-01  8.50000000E-01  8.50000000E-01  8.50000000E-01  8.50000000E-01
  8.50000000E-01  8.50000000E-01  8.50000000E-01  8.50000000E-01  8.50000000E-01
  8.50000000E-01  8.50000000E-01  8.50000000E-01  8.50000000E-01  8.50000000E-01
  8.50000000E-01  8.50000000E-01  8.50000000E-01  8.50000000E-01  8.50000000E-01
  8.50000000E-01  8.50000000E-01  8.50000000E-01  8.50000000E-01  8.50000000E-01
  8.50000000E-01  8.50000000E-01  8.50000000E-01  8.50000000E-01  8.50000000E-01
  8.50000000E-01  8.50000000E-01  8.50000000E-01  8.50000000E-01  8.50000000E-01
  8.50000000E-01  8.50000000E-01  8.50000000E-01  8.50000000E-01  8.50000000E-01
  8.50000000E-01  8.50000000E-01  8.50000000E-01  8.50000000E-01  8.50000000E-01
  8.50000000E-01  8.50000000E-01  8.50000000E-01  8.50000000E-01  8.50000000E-01
  8.50000000E-01  8.50000000E-01  8.50000000E-01  8.50000000E-01  8.50000000E-01
  8.50000000E-01  8.50000000E-01  8.50000000E-01  8.50000000E-01  8.50000000E-01
  8.50000000E-01  8.50000000E-01  8.50000000E-01  8.50000000E-01  8.50000000E-01
  8.50000000E-01  8.50000000E-01  8.50000000E-01  8.50000000E-01  8.50000000E-01
  8.50000000E-01  8.50000000E-01  8.50000000E-01  8.50000000E-01  8.50000000E-01
  8.50000000E-01  8.50000000E-01  8.50000000E-01  8.50000000E-01  8.50000000E-01
  8.50000000E-01  8.50000000E-01  8.50000000E-01  8.50000000E-01  8.50000000E-01
  8.50000000E-01  8.50000000E-01  8.50000000E-01  8.50000000E-01  8.50000000E-01
  8.50000000E-01  8.50000000E-01  8.50000000E-01  8.50000000E-01  8.50000000E-01
  8.50000000E-01  8.50000000E-01  8.50000000E-01  8.50000000E-01  8.50000000E-01
  8.50000000E-01  8.50000000E-01  8.50000000E-01  8.50000000E-01  8.50000000E-01
  8.50000000E-01  8.50000000E-01  8.50000000E-01  8.50000000E-01  8.50000000E-01
  8.50000000E-01  8.50000000E-01  8.50000000E-01  8.50000000E-01  8.50000000E-01
  8.50000000E-01  8.50000000E-01  8.50000000E-01  8.50000000E-01  8.50000000E-01
  8.50000000E-01  8.50000000E-01  8.50000000E-01  8.50000000E-01  8.50000000E-01
  8.50000000E-01  8.50000000E-01  8.50000000E-01  8.50000000E-01  8.50000000E-01
  8.50000000E-01  8.50000000E-01  8.50000000E-01  8.50000000E-01  8.50000000E-01
  8.50000000E-01  8.50000000E-01  8.50000000E-01  8.50000000E-01  8.50000000E-01
  8.50000000E-01  8.50000000E-01  8.50000000E-01  8.50000000E-01  8.50000000E-01
  8.50000000E-01  8.50000000E-01  8.50000000E-01  8.50000000E-01  8.50000000E-01
  8.50000000E-01  8.50000000E-01  8.50000000E-01  8.50000000E-01  8.50000000E-01
  8.50000000E-01  8.50000000E-01  8.50000000E-01  8.50000000E-01  8.50000000E-01
  8.50000000E-01  8.50000000E-01  8.50000000E-01  8.50000000E-01  8.50000000E-01
  8.50000000E-01  8.50000000E-01  8.50000000E-01  8.50000000E-01  8.50000000E-01
  8.50000000E-01  8.50000000E-01  8.50000000E-01  8.50000000E-01  8.50000000E-01
  8.50000000E-01  8.50000000E-01  8.50000000E-01  8.50000000E-01  8.50000000E-01
  8.50000000E-01  8.50000000E-01  8.50000000E-01  8.50000000E-01  8.50000000E-01
  8.50000000E-01  8.50000000E-01  8.50000000E-01  8.50000000E-01  8.50000000E-01
  8.50000000E-01  8.50000000E-01  8.50000000E-01  8.50000000E-01  8.50000000E-01
  8.50000000E-01  8.50000000E-01  8.50000000E-01  8.50000000E-01  8.50000000E-01
  8.50000000E-01  8.50000000E-01  8.50000000E-01  8.50000000E-01  8.50000000E-01
  8.50000000E-01  8.50000000E-01  8.50000000E-01  8.50000000E-01  8.50000000E-01
  8.50000000E-01  8.50000000E-01  8.50000000E-01  8.50000000E-01  8.50000000E-01
  8.50000000E-01  8.50000000E-01  8.50000000E-01  8.50000000E-01  8.50000000E-01
  8.50000000E-01  8.50000000E-01  8.50000000E-01  8.50000000E-01  8.50000000E-01
  8.50000000E-01  8.50000000E-01  8.50000000E-01  8.50000000E-01  8.50000000E-01
  8.50000000E-01  8.50000000E-01  8.50000000E-01  8.50000000E-01  8.50000000E-01
  8.50000000E-01  8.50000000E-01  8.50000000E-01  8.50000000E-01  8.50000000E-01
  8.50000000E-01  8.50000000E-01  8.50000000E-01  8.50000000E-01  8.50000000E-01
  8.50000000E-01  8.50000000E-01  8.50000000E-01  8.50000000E-01  8.50000000E-01
  8.50000000E-01  8.50000000E-01  8.50000000E-01  8.50000000E-01  8.50000000E-01
  8.50000000E-01  8.50000000E-01  8.50000000E-01  8.50000000E-01  8.50000000E-01
  8.50000000E-01  8.50000000E-01  8.50000000E-01  8.50000000E-01  8.50000000E-01
  8.50000000E-01  8.50000000E-01  8.50000000E-01  8.50000000E-01  8.50000000E-01
  8.50000000E-01  8.50000000E-01  8.50000000E-01  8.50000000E-01  8.50000000E-01
  8.50000000E-01  8.50000000E-01  8.50000000E-01  8.50000000E-01  8.50000000E-01
  8.50000000E-01  8.50000000E-01  8.50000000E-01  8.50000000E-01  8.50000000E-01
  8.50000000E-01  8.50000000E-01  8.50000000E-01  8.50000000E-01  8.50000000E-01
  8.50000000E-01  8.50000000E-01  8.50000000E-01  8.50000000E-01  8.50000000E-01
  8.50000000E-01  8.50000000E-01  8.50000000E-01  8.50000000E-01  8.50000000E-01
  8.50000000E-01  8.50000000E-01  8.50000000E-01  8.50000000E-01  8.50000000E-01
  8.50000000E-01  8.50000000E-01  8.50000000E-01  8.50000000E-01  8.50000000E-01
  8.50000000E-01  8.50000000E-01  8.50000000E-01  8.50000000E-01  8.50000000E-01
  8.50000000E-01  8.50000000E-01  8.50000000E-01  8.50000000E-01  8.50000000E-01
  8.50000000E-01  8.50000000E-01  8.50000000E-01  8.50000000E-01  8.50000000E-01
  8.50000000E-01  8.50000000E-01  8.50000000E-01  8.50000000E-01  8.50000000E-01
  8.50000000E-01  8.50000000E-01  8.50000000E-01  8.50000000E-01  8.50000000E-01
  8.50000000E-01  8.50000000E-01  8.50000000E-01  8.50000000E-01  8.50000000E-01
  8.50000000E-01  8.50000000E-01  8.50000000E-01  8.50000000E-01  8.50000000E-01
  8.50000000E-01  8.50000000E-01  8.50000000E-01  8.50000000E-01  8.50000000E-01
  8.50000000E-01  8.50000000E-01  8.50000000E-01  8.50000000E-01  8.50000000E-01
  8.50000000E-01  8.50000000E-01  8.50000000E-01  8.50000000E-01  8.50000000E-01
  8.50000000E-01  8.50000000E-01  8.50000000E-01  8.50000000E-01  8.50000000E-01
  8.50000000E-01  8.50000000E-01  8.50000000E-01  8.50000000E-01  8.50000000E-01
  8.50000000E-01  8.50000000E-01  8.50000000E-01  8.50000000E-01  8.50000000E-01
  8.50000000E-01  8.50000000E-01  8.50000000E-01  8.50000000E-01  8.50000000E-01
  8.50000000E-01  8.50000000E-01  8.50000000E-01  8.50000000E-01  8.50000000E-01
  8.50000000E-01  8.50000000E-01  8.50000000E-01  8.50000000E-01  8.50000000E-01
  8.50000000E-01  8.50000000E-01  8.50000000E-01  8.50000000E-01  8.50000000E-01
  8.50000000E-01  8.50000000E-01  8.50000000E-01  8.50000000E-01  8.50000000E-01
  8.50000000E-01  8.50000000E-01  8.50000000E-01  8.50000000E-01  8.50000000E-01
  8.50000000E-01  8.50000000E-01  8.50000000E-01  8.50000000E-01  8.50000000E-01
  8.50000000E-01  8.50000000E-01  8.50000000E-01  8.50000000E-01  8.50000000E-01
  8.50000000E-01  8.50000000E-01  8.50000000E-01  8.50000000E-01  8.50000000E-01
  8.50000000E-01  8.50000000E-01  8.50000000E-01  8.50000000E-01  8.50000000E-01
  8.50000000E-01  8.50000000E-01  8.50000000E-01  8.50000000E-01  8.50000000E-01
  8.50000000E-01  8.50000000E-01  8.50000000E-01  8.50000000E-01  8.50000000E-01
  8.50000000E-01  8.50000000E-01  8.50000000E-01  8.50000000E-01  8.50000000E-01
  8.50000000E-01  8.50000000E-01  8.50000000E-01  8.50000000E-01  8.50000000E-01
  8.50000000E-01  8.50000000E-01  8.50000000E-01  8.50000000E-01  8.50000000E-01
  8.50000000E-01  8.50000000E-01  8.50000000E-01  8.50000000E-01  8.50000000E-01
  8.50000000E-01  8.50000000E-01  8.50000000E-01  8.50000000E-01  8.50000000E-01
  8.50000000E-01  8.50000000E-01  8.50000000E-01  8.50000000E-01  8.50000000E-01
  8.50000000E-01  8.50000000E-01  8.50000000E-01  8.50000000E-01  8.50000000E-01
  8.50000000E-01  8.50000000E-01  8.50000000E-01  8.50000000E-01  8.50000000E-01
  8.50000000E-01  8.50000000E-01  8.50000000E-01  8.50000000E-01  8.50000000E-01
  8.50000000E-01  8.50000000E-01  8.50000000E-01  8.50000000E-01  8.50000000E-01
  8.50000000E-01  8.50000000E-01  8.50000000E-01  8.50000000E-01  8.50000000E-01
  8.50000000E-01  8.50000000E-01  8.50000000E-01  8.50000000E-01  8.50000000E-01
  8.50000000E-01  8.50000000E-01  8.50000000E-01  8.50000000E-01  8.50000000E-01
  8.50000000E-01  8.50000000E-01  8.50000000E-01  8.50000000E-01  8.50000000E-01
  8.50000000E-01  8.50000000E-01  8.50000000E-01  8.50000000E-01  8.50000000E-01
  8.50000000E-01  8.50000000E-01  8.50000000E-01  8.50000000E-01  8.50000000E-01
  8.50000000E-01  8.50000000E-01  8.50000000E-01  8.50000000E-01  8.50000000E-01
  8.50000000E-01  8.50000000E-01  8.50000000E-01  8.50000000E-01  8.50000000E-01
  8.50000000E-01  8.50000000E-01  8.50000000E-01  8.50000000E-01  8.50000000E-01
  8.50000000E-01  8.50000000E-01  8.50000000E-01  8.50000000E-01  8.50000000E-01
  8.50000000E-01  8.50000000E-01  8.50000000E-01  8.50000000E-01  8.50000000E-01
  8.50000000E-01  8.50000000E-01  8.50000000E-01  8.50000000E-01  8.50000000E-01
  8.50000000E-01  8.50000000E-01  8.50000000E-01  8.50000000E-01  8.50000000E-01
  8.50000000E-01  8.50000000E-01  8.50000000E-01  8.50000000E-01  8.50000000E-01
  8.50000000E-01  8.50000000E-01  8.50000000E-01  8.50000000E-01  8.50000000E-01
  8.50000000E-01  8.50000000E-01  8.50000000E-01  8.50000000E-01  8.50000000E-01
  8.50000000E-01  8.50000000E-01  8.50000000E-01  8.50000000E-01  8.50000000E-01
  8.50000000E-01  8.50000000E-01  8.50000000E-01  8.50000000E-01  8.50000000E-01
  8.50000000E-01  8.50000000E-01  8.50000000E-01  8.50000000E-01  8.50000000E-01
  8.50000000E-01  8.50000000E-01  8.50000000E-01  8.50000000E-01  8.50000000E-01
  8.50000000E-01  8.50000000E-01  8.50000000E-01  8.50000000E-01  8.50000000E-01
  8.50000000E-01  8.50000000E-01  8.50000000E-01  8.50000000E-01  8.50000000E-01
  8.50000000E-01  8.50000000E-01  8.50000000E-01  8.50000000E-01  8.50000000E-01
  8.50000000E-01  8.50000000E-01  8.50000000E-01  8.50000000E-01  8.50000000E-01
  8.50000000E-01  8.50000000E-01  8.50000000E-01  8.50000000E-01  8.50000000E-01
  8.50000000E-01  8.50000000E-01  8.50000000E-01  8.50000000E-01  8.50000000E-01
  8.50000000E-01  8.50000000E-01  8.50000000E-01  8.50000000E-01  8.50000000E-01
  8.50000000E-01  8.50000000E-01  8.50000000E-01  8.50000000E-01  8.50000000E-01
  8.50000000E-01  8.50000000E-01  8.50000000E-01  8.50000000E-01  8.50000000E-01
  8.50000000E-01  8.50000000E-01  8.50000000E-01  8.50000000E-01  8.50000000E-01
  8.50000000E-01  8.50000000E-01  8.50000000E-01  8.50000000E-01  8.50000000E-01
  8.50000000E-01  8.50000000E-01  8.50000000E-01  8.50000000E-01  8.50000000E-01
  8.50000000E-01  8.50000000E-01  8.50000000E-01  8.50000000E-01  8.50000000E-01
  8.50000000E-01  8.50000000E-01  8.50000000E-01  8.50000000E-01  8.50000000E-01
  8.50000000E-01  8.50000000E-01  8.50000000E-01  8.50000000E-01  8.50000000E-01
  8.50000000E-01  8.50000000E-01  8.50000000E-01  8.50000000E-01  8.50000000E-01
  8.50000000E-01  8.50000000E-01  8.50000000E-01  8.50000000E-01  8.50000000E-01
  8.50000000E-01  8.50000000E-01  8.50000000E-01  8.50000000E-01  8.50000000E-01
  8.50000000E-01  8.50000000E-01  8.50000000E-01  8.50000000E-01  8.50000000E-01
  8.50000000E-01  8.50000000E-01  8.50000000E-01  8.50000000E-01  8.50000000E-01
  8.50000000E-01  8.50000000E-01  8.50000000E-01  8.50000000E-01  8.50000000E-01
  8.50000000E-01  8.50000000E-01  8.50000000E-01  8.50000000E-01  8.50000000E-01
  8.50000000E-01  8.50000000E-01  8.50000000E-01  8.50000000E-01  8.50000000E-01
  8.50000000E-01  8.50000000E-01  8.50000000E-01  8.50000000E-01  8.50000000E-01
  8.50000000E-01  8.50000000E-01  8.50000000E-01  8.50000000E-01  8.50000000E-01
  8.50000000E-01  8.50000000E-01  8.50000000E-01  8.50000000E-01  8.50000000E-01
  8.50000000E-01  8.50000000E-01  8.50000000E-01  8.50000000E-01  8.50000000E-01
  8.50000000E-01  8.50000000E-01  8.50000000E-01  8.50000000E-01  8.50000000E-01
  8.50000000E-01  8.50000000E-01  8.50000000E-01  8.50000000E-01  8.50000000E-01
  8.50000000E-01  8.50000000E-01  8.50000000E-01  8.50000000E-01  8.50000000E-01
  8.50000000E-01  8.50000000E-01  8.50000000E-01  8.50000000E-01  8.50000000E-01
  8.50000000E-01  8.50000000E-01  8.50000000E-01  8.50000000E-01  8.50000000E-01
  8.50000000E-01  8.50000000E-01  8.50000000E-01  8.50000000E-01  8.50000000E-01
  8.50000000E-01  8.50000000E-01  8.50000000E-01  8.50000000E-01  8.50000000E-01
  8.50000000E-01  8.50000000E-01  8.50000000E-01  8.50000000E-01  8.50000000E-01
  8.50000000E-01  8.50000000E-01  8.50000000E-01  8.50000000E-01  8.50000000E-01
  8.50000000E-01  8.50000000E-01  8.50000000E-01  8.50000000E-01  8.50000000E-01
  8.50000000E-01  8.50000000E-01  8.50000000E-01  8.50000000E-01  8.50000000E-01
  8.50000000E-01  8.50000000E-01  8.50000000E-01  8.50000000E-01  8.50000000E-01
  8.50000000E-01  8.50000000E-01  8.50000000E-01  8.50000000E-01  8.50000000E-01
  8.50000000E-01  8.50000000E-01  8.50000000E-01  8.50000000E-01  8.50000000E-01
  8.50000000E-01  8.50000000E-01  8.50000000E-01  8.50000000E-01  8.50000000E-01
  8.50000000E-01  8.50000000E-01  8.50000000E-01  8.50000000E-01  8.50000000E-01
  8.50000000E-01  8.50000000E-01  8.50000000E-01  8.50000000E-01  8.50000000E-01
  8.50000000E-01  8.50000000E-01  8.50000000E-01  8.50000000E-01  8.50000000E-01
  8.50000000E-01  8.50000000E-01  8.50000000E-01  8.50000000E-01  8.50000000E-01
  8.50000000E-01  8.50000000E-01  8.50000000E-01  8.50000000E-01  8.50000000E-01
  8.50000000E-01  8.50000000E-01  8.50000000E-01  8.50000000E-01  8.50000000E-01
  8.50000000E-01  8.50000000E-01  8.50000000E-01  8.50000000E-01  8.50000000E-01
  8.50000000E-01  8.50000000E-01  8.50000000E-01  8.50000000E-01  8.50000000E-01
  8.50000000E-01  8.50000000E-01  8.50000000E-01  8.50000000E-01  8.50000000E-01
  8.50000000E-01  8.50000000E-01  8.50000000E-01  8.50000000E-01  8.50000000E-01
  8.50000000E-01  8.50000000E-01  8.50000000E-01  8.50000000E-01  8.50000000E-01
  8.50000000E-01  8.50000000E-01  8.50000000E-01  8.50000000E-01  8.50000000E-01
  8.50000000E-01  8.50000000E-01  8.50000000E-01  8.50000000E-01  8.50000000E-01
  8.50000000E-01  8.50000000E-01  8.50000000E-01  8.50000000E-01  8.50000000E-01
  8.50000000E-01  8.50000000E-01  8.50000000E-01  8.50000000E-01  8.50000000E-01
  8.50000000E-01  8.50000000E-01  8.50000000E-01  8.50000000E-01  8.50000000E-01
  8.50000000E-01  8.50000000E-01  8.50000000E-01  8.50000000E-01  8.50000000E-01
  8.50000000E-01  8.50000000E-01  8.50000000E-01  8.50000000E-01  8.50000000E-01
  8.50000000E-01  8.50000000E-01  8.50000000E-01  8.50000000E-01  8.50000000E-01
  8.50000000E-01  8.50000000E-01  8.50000000E-01  8.50000000E-01  8.50000000E-01
  8.50000000E-01  8.50000000E-01  8.50000000E-01  8.50000000E-01  8.50000000E-01
  8.50000000E-01  8.50000000E-01  8.50000000E-01  8.50000000E-01  8.50000000E-01
  8.50000000E-01  8.50000000E-01  8.50000000E-01  8.50000000E-01  8.50000000E-01
  8.50000000E-01  8.50000000E-01  8.50000000E-01  8.50000000E-01  8.50000000E-01
  8.50000000E-01  8.50000000E-01  8.50000000E-01  8.50000000E-01  8.50000000E-01
  8.50000000E-01  8.50000000E-01  8.50000000E-01  8.50000000E-01  8.50000000E-01
  8.50000000E-01  8.50000000E-01  8.50000000E-01  8.50000000E-01  8.50000000E-01
  8.50000000E-01  8.50000000E-01  8.50000000E-01  8.50000000E-01  8.50000000E-01
  8.50000000E-01  8.50000000E-01  8.50000000E-01  8.50000000E-01  8.50000000E-01
  8.50000000E-01  8.50000000E-01  8.50000000E-01  8.50000000E-01  8.50000000E-01
  8.50000000E-01  8.50000000E-01  8.50000000E-01  8.50000000E-01  8.50000000E-01
  8.50000000E-01  8.50000000E-01  8.50000000E-01  8.50000000E-01  8.50000000E-01
  8.50000000E-01  8.50000000E-01  8.50000000E-01  8.50000000E-01  8.50000000E-01
  8.50000000E-01  8.50000000E-01  8.50000000E-01  8.50000000E-01  8.50000000E-01
  8.50000000E-01  8.50000000E-01  8.50000000E-01  8.50000000E-01  8.50000000E-01
  8.50000000E-01  8.50000000E-01  8.50000000E-01  8.50000000E-01  8.50000000E-01
  8.50000000E-01  8.50000000E-01  8.50000000E-01  8.50000000E-01  8.50000000E-01
  8.50000000E-01  8.50000000E-01  8.50000000E-01  8.50000000E-01  8.50000000E-01
  8.50000000E-01  8.50000000E-01  8.50000000E-01  8.50000000E-01  8.50000000E-01
  8.50000000E-01  8.50000000E-01  8.50000000E-01  8.50000000E-01  8.50000000E-01
  8.50000000E-01  8.50000000E-01  8.50000000E-01  8.50000000E-01  8.50000000E-01
  8.50000000E-01  8.50000000E-01  8.50000000E-01  8.50000000E-01  8.50000000E-01
  8.50000000E-01  8.50000000E-01  8.50000000E-01  8.50000000E-01  8.50000000E-01
  8.50000000E-01  8.50000000E-01  8.50000000E-01  8.50000000E-01  8.50000000E-01
  8.50000000E-01  8.50000000E-01  8.50000000E-01  8.50000000E-01  8.50000000E-01
  8.50000000E-01  8.50000000E-01  8.50000000E-01  8.50000000E-01  8.50000000E-01
  8.50000000E-01  8.50000000E-01  8.50000000E-01  8.50000000E-01  8.50000000E-01
  8.50000000E-01  8.50000000E-01  8.50000000E-01  8.50000000E-01  8.50000000E-01
  8.50000000E-01  8.50000000E-01  8.50000000E-01  8.50000000E-01  8.50000000E-01
  8.50000000E-01  8.50000000E-01  8.50000000E-01  8.50000000E-01  8.50000000E-01
  8.50000000E-01  8.50000000E-01  8.50000000E-01  8.50000000E-01  8.50000000E-01
  8.50000000E-01  8.50000000E-01  8.50000000E-01  8.50000000E-01  8.50000000E-01
  8.50000000E-01  8.50000000E-01  8.50000000E-01  8.50000000E-01  8.50000000E-01
  8.50000000E-01  8.50000000E-01  8.50000000E-01  8.50000000E-01  8.50000000E-01
  8.50000000E-01  8.50000000E-01  8.50000000E-01  8.50000000E-01  8.50000000E-01
  8.50000000E-01  8.50000000E-01  8.50000000E-01  8.50000000E-01  8.50000000E-01
  8.50000000E-01  8.50000000E-01  8.50000000E-01  8.50000000E-01  8.50000000E-01
  8.50000000E-01  8.50000000E-01  8.50000000E-01  8.50000000E-01  8.50000000E-01
  8.50000000E-01  8.50000000E-01  8.50000000E-01  8.50000000E-01  8.50000000E-01
  8.50000000E-01  8.50000000E-01  8.50000000E-01  8.50000000E-01  8.50000000E-01
  8.50000000E-01  8.50000000E-01  8.50000000E-01  8.50000000E-01  8.50000000E-01
  8.50000000E-01  8.50000000E-01  8.50000000E-01  8.50000000E-01  8.50000000E-01
  8.50000000E-01  8.50000000E-01  8.50000000E-01  8.50000000E-01  8.50000000E-01
  8.50000000E-01  8.50000000E-01  8.50000000E-01  8.50000000E-01  8.50000000E-01
  8.50000000E-01  8.50000000E-01  8.50000000E-01  8.50000000E-01  8.50000000E-01
  8.50000000E-01  8.50000000E-01  8.50000000E-01  8.50000000E-01  8.50000000E-01
  8.50000000E-01  8.50000000E-01  8.50000000E-01  8.50000000E-01  8.50000000E-01
  8.50000000E-01  8.50000000E-01  8.50000000E-01  8.50000000E-01  8.50000000E-01
  8.50000000E-01  8.50000000E-01  8.50000000E-01  8.50000000E-01  8.50000000E-01
  8.50000000E-01  8.50000000E-01  8.50000000E-01  8.50000000E-01  8.50000000E-01
  8.50000000E-01  8.50000000E-01  8.50000000E-01  8.50000000E-01  8.50000000E-01
  8.50000000E-01  8.50000000E-01  8.50000000E-01  8.50000000E-01  8.50000000E-01
  8.50000000E-01  8.50000000E-01  8.50000000E-01  8.50000000E-01  8.50000000E-01
  8.50000000E-01  8.50000000E-01  8.50000000E-01  8.50000000E-01  8.50000000E-01
  8.50000000E-01  8.50000000E-01  8.50000000E-01  8.50000000E-01  8.50000000E-01
  8.50000000E-01  8.50000000E-01  8.50000000E-01  8.50000000E-01  8.50000000E-01
  8.50000000E-01  8.50000000E-01  8.50000000E-01  8.50000000E-01  8.50000000E-01
  8.50000000E-01  8.50000000E-01  8.50000000E-01  8.50000000E-01  8.50000000E-01
  8.50000000E-01  8.50000000E-01  8.50000000E-01  8.50000000E-01  8.50000000E-01
  8.50000000E-01  8.50000000E-01  8.50000000E-01  8.50000000E-01  8.50000000E-01
  8.50000000E-01  8.50000000E-01  8.50000000E-01  8.50000000E-01  8.50000000E-01
  8.50000000E-01  8.50000000E-01  8.50000000E-01  8.50000000E-01  8.50000000E-01
  8.50000000E-01  8.50000000E-01  8.50000000E-01  8.50000000E-01  8.50000000E-01
  8.50000000E-01  8.50000000E-01  8.50000000E-01  8.50000000E-01  8.50000000E-01
  8.50000000E-01  8.50000000E-01  8.50000000E-01  8.50000000E-01  8.50000000E-01
  8.50000000E-01  8.50000000E-01  8.50000000E-01  8.50000000E-01  8.50000000E-01
  8.50000000E-01  8.50000000E-01  8.50000000E-01  8.50000000E-01  8.50000000E-01
  8.50000000E-01  8.50000000E-01  8.50000000E-01  8.50000000E-01  8.50000000E-01
  8.50000000E-01  8.50000000E-01  8.50000000E-01  8.50000000E-01  8.50000000E-01
  8.50000000E-01  8.50000000E-01  8.50000000E-01  8.50000000E-01  8.50000000E-01
  8.50000000E-01  8.50000000E-01  8.50000000E-01  8.50000000E-01  8.50000000E-01
  8.50000000E-01  8.50000000E-01  8.50000000E-01  8.50000000E-01  8.50000000E-01
  8.50000000E-01  8.50000000E-01  8.50000000E-01  8.50000000E-01  8.50000000E-01
  8.50000000E-01  8.50000000E-01  8.50000000E-01  8.50000000E-01  8.50000000E-01
  8.50000000E-01  8.50000000E-01  8.50000000E-01  8.50000000E-01  8.50000000E-01
  8.50000000E-01  8.50000000E-01  8.50000000E-01  8.50000000E-01  8.50000000E-01
  8.50000000E-01  8.50000000E-01  8.50000000E-01  8.50000000E-01  8.50000000E-01
  8.50000000E-01  8.50000000E-01  8.50000000E-01  8.50000000E-01  8.50000000E-01
  8.50000000E-01  8.50000000E-01  8.50000000E-01  8.50000000E-01  8.50000000E-01
  8.50000000E-01  8.50000000E-01  8.50000000E-01  8.50000000E-01  8.50000000E-01
  8.50000000E-01  8.50000000E-01  8.50000000E-01  8.50000000E-01  8.50000000E-01
  8.50000000E-01  8.50000000E-01  8.50000000E-01  8.50000000E-01  8.50000000E-01
  8.50000000E-01  8.50000000E-01  8.50000000E-01  8.50000000E-01  8.50000000E-01
  8.50000000E-01  8.50000000E-01  8.50000000E-01  8.50000000E-01  8.50000000E-01
  8.50000000E-01  8.50000000E-01  8.50000000E-01  8.50000000E-01  8.50000000E-01
  8.50000000E-01  8.50000000E-01  8.50000000E-01  8.50000000E-01  8.50000000E-01
  8.50000000E-01  8.50000000E-01  8.50000000E-01  8.50000000E-01  8.50000000E-01
  8.50000000E-01  8.50000000E-01  8.50000000E-01  8.50000000E-01  8.50000000E-01
  8.50000000E-01  8.50000000E-01  8.50000000E-01  8.50000000E-01  8.50000000E-01
  8.50000000E-01  8.50000000E-01  8.50000000E-01  8.50000000E-01  8.50000000E-01
  8.50000000E-01  8.50000000E-01  8.50000000E-01  8.50000000E-01  8.50000000E-01
  8.50000000E-01  8.50000000E-01  8.50000000E-01  8.50000000E-01  8.50000000E-01
  8.50000000E-01  8.50000000E-01  8.50000000E-01  8.50000000E-01  8.50000000E-01
  8.50000000E-01  8.50000000E-01  8.50000000E-01  8.50000000E-01  8.50000000E-01
  8.50000000E-01  8.50000000E-01  8.50000000E-01  8.50000000E-01  8.50000000E-01
  8.50000000E-01  8.50000000E-01  8.50000000E-01  8.50000000E-01  8.50000000E-01
  8.50000000E-01  8.50000000E-01  8.50000000E-01  8.50000000E-01  8.50000000E-01
  8.50000000E-01  8.50000000E-01  8.50000000E-01  8.50000000E-01  8.50000000E-01
  8.50000000E-01  8.50000000E-01  8.50000000E-01  8.50000000E-01  8.50000000E-01
  8.50000000E-01  8.50000000E-01  8.50000000E-01  8.50000000E-01  8.50000000E-01
  8.50000000E-01  8.50000000E-01  8.50000000E-01  8.50000000E-01  8.50000000E-01
  8.50000000E-01  8.50000000E-01  8.50000000E-01  8.50000000E-01  8.50000000E-01
  8.50000000E-01  8.50000000E-01  8.50000000E-01  8.50000000E-01  8.50000000E-01
  8.50000000E-01  8.50000000E-01  8.50000000E-01  8.50000000E-01  8.50000000E-01
  8.50000000E-01  8.50000000E-01  8.50000000E-01  8.50000000E-01  8.50000000E-01
  8.50000000E-01  8.50000000E-01  8.50000000E-01  8.50000000E-01  8.50000000E-01
  8.50000000E-01  8.50000000E-01  8.50000000E-01  8.50000000E-01  8.50000000E-01
  8.50000000E-01  8.50000000E-01  8.50000000E-01  8.50000000E-01  8.50000000E-01
  8.50000000E-01  8.50000000E-01  8.50000000E-01  8.50000000E-01  8.50000000E-01
  8.50000000E-01  8.50000000E-01  8.50000000E-01  8.50000000E-01  8.50000000E-01
  8.50000000E-01  8.50000000E-01  8.50000000E-01  8.50000000E-01  8.50000000E-01
  8.50000000E-01  8.50000000E-01  8.50000000E-01  8.50000000E-01  8.50000000E-01
  8.50000000E-01  8.50000000E-01  8.50000000E-01  8.50000000E-01  8.50000000E-01
  8.50000000E-01  8.50000000E-01  8.50000000E-01  8.50000000E-01  8.50000000E-01
  8.50000000E-01  8.50000000E-01  8.50000000E-01  8.50000000E-01  8.50000000E-01
  8.50000000E-01  8.50000000E-01  8.50000000E-01  8.50000000E-01  8.50000000E-01
  8.50000000E-01  8.50000000E-01  8.50000000E-01  8.50000000E-01  8.50000000E-01
  8.50000000E-01  8.50000000E-01  8.50000000E-01  8.50000000E-01  8.50000000E-01
  8.50000000E-01  8.50000000E-01  8.50000000E-01  8.50000000E-01  8.50000000E-01
  8.50000000E-01  8.50000000E-01  8.50000000E-01  8.50000000E-01  8.50000000E-01
  8.50000000E-01  8.50000000E-01  8.50000000E-01  8.50000000E-01  8.50000000E-01
  8.50000000E-01  8.50000000E-01  8.50000000E-01  8.50000000E-01  8.50000000E-01
  8.50000000E-01  8.50000000E-01  8.50000000E-01  8.50000000E-01  8.50000000E-01
  8.50000000E-01  8.50000000E-01  8.50000000E-01  8.50000000E-01  8.50000000E-01
  8.50000000E-01  8.50000000E-01  8.50000000E-01  8.50000000E-01  8.50000000E-01
  8.50000000E-01  8.50000000E-01  8.50000000E-01  8.50000000E-01  8.50000000E-01
  8.50000000E-01  8.50000000E-01  8.50000000E-01  8.50000000E-01  8.50000000E-01
  8.50000000E-01  8.50000000E-01  8.50000000E-01  8.50000000E-01  8.50000000E-01
  8.50000000E-01  8.50000000E-01  8.50000000E-01  8.50000000E-01  8.50000000E-01
  8.50000000E-01  8.50000000E-01  8.50000000E-01  8.50000000E-01  8.50000000E-01
  8.50000000E-01  8.50000000E-01  8.50000000E-01  8.50000000E-01  8.50000000E-01
  8.50000000E-01  8.50000000E-01  8.50000000E-01  8.50000000E-01  8.50000000E-01
  8.50000000E-01  8.50000000E-01  8.50000000E-01  8.50000000E-01  8.50000000E-01
  8.50000000E-01  8.50000000E-01  8.50000000E-01  8.50000000E-01  8.50000000E-01
  8.50000000E-01  8.50000000E-01  8.50000000E-01  8.50000000E-01  8.50000000E-01
  8.50000000E-01  8.50000000E-01  8.50000000E-01  8.50000000E-01  8.50000000E-01
  8.50000000E-01  8.50000000E-01  8.50000000E-01  8.50000000E-01  8.50000000E-01
  8.50000000E-01  8.50000000E-01  8.50000000E-01  8.50000000E-01  8.50000000E-01
  8.50000000E-01  8.50000000E-01  8.50000000E-01  8.50000000E-01  8.50000000E-01
  8.50000000E-01  8.50000000E-01  8.50000000E-01  8.50000000E-01  8.50000000E-01
  8.50000000E-01  8.50000000E-01  8.50000000E-01  8.50000000E-01  8.50000000E-01
  8.50000000E-01  8.50000000E-01  8.50000000E-01  8.50000000E-01  8.50000000E-01
  8.50000000E-01  8.50000000E-01  8.50000000E-01  8.50000000E-01  8.50000000E-01
  8.50000000E-01  8.50000000E-01  8.50000000E-01  8.50000000E-01  8.50000000E-01
  8.50000000E-01  8.50000000E-01  8.50000000E-01  8.50000000E-01  8.50000000E-01
  8.50000000E-01  8.50000000E-01  8.50000000E-01  8.50000000E-01  8.50000000E-01
  8.50000000E-01  8.50000000E-01  8.50000000E-01  8.50000000E-01  8.50000000E-01
  8.50000000E-01  8.50000000E-01  8.50000000E-01  8.50000000E-01  8.50000000E-01
  8.50000000E-01  8.50000000E-01  8.50000000E-01  8.50000000E-01  8.50000000E-01
  8.50000000E-01  8.50000000E-01  8.50000000E-01  8.50000000E-01  8.50000000E-01
  8.50000000E-01  8.50000000E-01  8.50000000E-01  8.50000000E-01  8.50000000E-01
  8.50000000E-01  8.50000000E-01  8.50000000E-01  8.50000000E-01  8.50000000E-01
  8.50000000E-01  8.50000000E-01  8.50000000E-01  8.50000000E-01  8.50000000E-01
  8.50000000E-01  8.50000000E-01  8.50000000E-01  8.50000000E-01  8.50000000E-01
  8.50000000E-01  8.50000000E-01  8.50000000E-01  8.50000000E-01  8.50000000E-01
  8.50000000E-01  8.50000000E-01  8.50000000E-01  8.50000000E-01  8.50000000E-01
  8.50000000E-01  8.50000000E-01  8.50000000E-01  8.50000000E-01  8.50000000E-01
  8.50000000E-01  8.50000000E-01  8.50000000E-01  8.50000000E-01  8.50000000E-01
  8.50000000E-01  8.50000000E-01  8.50000000E-01  8.50000000E-01  8.50000000E-01
  8.50000000E-01  8.50000000E-01  8.50000000E-01  8.50000000E-01  8.50000000E-01
  8.50000000E-01  8.50000000E-01  8.50000000E-01  8.50000000E-01  8.50000000E-01
  8.50000000E-01  8.50000000E-01  8.50000000E-01  8.50000000E-01  8.50000000E-01
  8.50000000E-01  8.50000000E-01  8.50000000E-01  8.50000000E-01  8.50000000E-01
  8.50000000E-01  8.50000000E-01  8.50000000E-01  8.50000000E-01  8.50000000E-01
  8.50000000E-01  8.50000000E-01  8.50000000E-01  8.50000000E-01  8.50000000E-01
  8.50000000E-01  8.50000000E-01  8.50000000E-01  8.50000000E-01  8.50000000E-01
  8.50000000E-01  8.50000000E-01  8.50000000E-01  8.50000000E-01  8.50000000E-01
  8.50000000E-01  8.50000000E-01  8.50000000E-01  8.50000000E-01  8.50000000E-01
  8.50000000E-01  8.50000000E-01  8.50000000E-01  8.50000000E-01  8.50000000E-01
  8.50000000E-01  8.50000000E-01  8.50000000E-01  8.50000000E-01  8.50000000E-01
  8.50000000E-01  8.50000000E-01  8.50000000E-01  8.50000000E-01  8.50000000E-01
  8.50000000E-01  8.50000000E-01  8.50000000E-01  8.50000000E-01  8.50000000E-01
  8.50000000E-01  8.50000000E-01  8.50000000E-01  8.50000000E-01  8.50000000E-01
  8.50000000E-01  8.50000000E-01  8.50000000E-01  8.50000000E-01  8.50000000E-01
  8.50000000E-01  8.50000000E-01  8.50000000E-01  8.50000000E-01  8.50000000E-01
  8.50000000E-01  8.50000000E-01  8.50000000E-01  8.50000000E-01  8.50000000E-01
  8.50000000E-01  8.50000000E-01  8.50000000E-01  8.50000000E-01  8.50000000E-01
  8.50000000E-01  8.50000000E-01  8.50000000E-01  8.50000000E-01  8.50000000E-01
  8.50000000E-01  8.50000000E-01  8.50000000E-01  8.50000000E-01  8.50000000E-01
  8.50000000E-01  8.50000000E-01  8.50000000E-01  8.50000000E-01  8.50000000E-01
  8.50000000E-01  8.50000000E-01  8.50000000E-01  8.50000000E-01  8.50000000E-01
  8.50000000E-01  8.50000000E-01  8.50000000E-01  8.50000000E-01  8.50000000E-01
  8.50000000E-01  8.50000000E-01  8.50000000E-01  8.50000000E-01  8.50000000E-01
  8.50000000E-01  8.50000000E-01  8.50000000E-01  8.50000000E-01  8.50000000E-01
  8.50000000E-01  8.50000000E-01  8.50000000E-01  8.50000000E-01  8.50000000E-01
  8.50000000E-01  8.50000000E-01  8.50000000E-01  8.50000000E-01  8.50000000E-01
  8.50000000E-01  8.50000000E-01  8.50000000E-01  8.50000000E-01  8.50000000E-01
  8.50000000E-01  8.50000000E-01  8.50000000E-01  8.50000000E-01  8.50000000E-01
  8.50000000E-01  8.50000000E-01  8.50000000E-01  8.50000000E-01  8.50000000E-01
  8.50000000E-01  8.50000000E-01  8.50000000E-01  8.50000000E-01  8.50000000E-01
  8.50000000E-01  8.50000000E-01  8.50000000E-01  8.50000000E-01  8.50000000E-01
  8.50000000E-01  8.50000000E-01  8.50000000E-01  8.50000000E-01  8.50000000E-01
  8.50000000E-01  8.50000000E-01  8.50000000E-01  8.50000000E-01  8.50000000E-01
  8.50000000E-01  8.50000000E-01  8.50000000E-01  8.50000000E-01  8.50000000E-01
  8.50000000E-01  8.50000000E-01  8.50000000E-01  8.50000000E-01  8.50000000E-01
  8.50000000E-01  8.50000000E-01  8.50000000E-01  8.50000000E-01  8.50000000E-01
  8.50000000E-01  8.50000000E-01  8.50000000E-01  8.50000000E-01  8.50000000E-01
  8.50000000E-01  8.50000000E-01  8.50000000E-01  8.50000000E-01  8.50000000E-01
  8.50000000E-01  8.50000000E-01  8.50000000E-01  8.50000000E-01  8.50000000E-01
  8.50000000E-01  8.50000000E-01  8.50000000E-01  8.50000000E-01  8.50000000E-01
  8.50000000E-01  8.50000000E-01  8.50000000E-01  8.50000000E-01  8.50000000E-01
  8.50000000E-01  8.50000000E-01  8.50000000E-01  8.50000000E-01  8.50000000E-01
  8.50000000E-01  8.50000000E-01  8.50000000E-01  8.50000000E-01  8.50000000E-01
  8.50000000E-01  8.50000000E-01  8.50000000E-01  8.50000000E-01  8.50000000E-01
  8.50000000E-01  8.50000000E-01  8.50000000E-01  8.50000000E-01  8.50000000E-01
  8.50000000E-01  8.50000000E-01  8.50000000E-01  8.50000000E-01  8.50000000E-01
  8.50000000E-01  8.50000000E-01  8.50000000E-01  8.50000000E-01  8.50000000E-01
  8.50000000E-01  8.50000000E-01  8.50000000E-01  8.50000000E-01  8.50000000E-01
  8.50000000E-01  8.50000000E-01  8.50000000E-01  8.50000000E-01  8.50000000E-01
  8.50000000E-01  8.50000000E-01  8.50000000E-01  8.50000000E-01  8.50000000E-01
  8.50000000E-01  8.50000000E-01  8.50000000E-01  8.50000000E-01  8.50000000E-01
  8.50000000E-01  8.50000000E-01  8.50000000E-01  8.50000000E-01  8.50000000E-01
  8.50000000E-01  8.50000000E-01  8.50000000E-01  8.50000000E-01  8.50000000E-01
  8.50000000E-01  8.50000000E-01  8.50000000E-01  8.50000000E-01  8.50000000E-01
  8.50000000E-01  8.50000000E-01  8.50000000E-01  8.50000000E-01  8.50000000E-01
  8.50000000E-01  8.50000000E-01  8.50000000E-01  8.50000000E-01  8.50000000E-01
  8.50000000E-01  8.50000000E-01  8.50000000E-01  8.50000000E-01  8.50000000E-01
  8.50000000E-01  8.50000000E-01  8.50000000E-01  8.50000000E-01  8.50000000E-01
  8.50000000E-01  8.50000000E-01  8.50000000E-01  8.50000000E-01  8.50000000E-01
  8.50000000E-01  8.50000000E-01  8.50000000E-01  8.50000000E-01  8.50000000E-01
  8.50000000E-01  8.50000000E-01  8.50000000E-01  8.50000000E-01  8.50000000E-01
  8.50000000E-01  8.50000000E-01  8.50000000E-01  8.50000000E-01  8.50000000E-01
  8.50000000E-01  8.50000000E-01  8.50000000E-01  8.50000000E-01  8.50000000E-01
  8.50000000E-01  8.50000000E-01  8.50000000E-01  8.50000000E-01  8.50000000E-01
  8.50000000E-01  8.50000000E-01  8.50000000E-01  8.50000000E-01  8.50000000E-01
  8.50000000E-01  8.50000000E-01  8.50000000E-01  8.50000000E-01  8.50000000E-01
  8.50000000E-01  8.50000000E-01  8.50000000E-01  8.50000000E-01  8.50000000E-01
  8.50000000E-01  8.50000000E-01  8.50000000E-01  8.50000000E-01  8.50000000E-01
  8.50000000E-01  8.50000000E-01  8.50000000E-01  8.50000000E-01  8.50000000E-01
  8.50000000E-01  8.50000000E-01  8.50000000E-01  8.50000000E-01  8.50000000E-01
  8.50000000E-01  8.50000000E-01  8.50000000E-01  8.50000000E-01  8.50000000E-01
  8.50000000E-01  8.50000000E-01  8.50000000E-01  8.50000000E-01  8.50000000E-01
  8.50000000E-01  8.50000000E-01  8.50000000E-01  8.50000000E-01  8.50000000E-01
  8.50000000E-01  8.50000000E-01  8.50000000E-01  8.50000000E-01  8.50000000E-01
  8.50000000E-01  8.50000000E-01  8.50000000E-01  8.50000000E-01  8.50000000E-01
  8.50000000E-01  8.50000000E-01  8.50000000E-01  8.50000000E-01  8.50000000E-01
  8.50000000E-01  8.50000000E-01  8.50000000E-01  8.50000000E-01  8.50000000E-01
  8.50000000E-01  8.50000000E-01  8.50000000E-01  8.50000000E-01  8.50000000E-01
  8.50000000E-01  8.50000000E-01  8.50000000E-01  8.50000000E-01  8.50000000E-01
  8.50000000E-01  8.50000000E-01  8.50000000E-01  8.50000000E-01  8.50000000E-01
  8.50000000E-01  8.50000000E-01  8.50000000E-01  8.50000000E-01  8.50000000E-01
  8.50000000E-01  8.50000000E-01  8.50000000E-01  8.50000000E-01  8.50000000E-01
  8.50000000E-01  8.50000000E-01  8.50000000E-01  8.50000000E-01  8.50000000E-01
  8.50000000E-01  8.50000000E-01  8.50000000E-01  8.50000000E-01  8.50000000E-01
  8.50000000E-01  8.50000000E-01  8.50000000E-01  8.50000000E-01  8.50000000E-01
  8.50000000E-01  8.50000000E-01  8.50000000E-01  8.50000000E-01  8.50000000E-01
  8.50000000E-01  8.50000000E-01  8.50000000E-01  8.50000000E-01  8.50000000E-01
  8.50000000E-01  8.50000000E-01  8.50000000E-01  8.50000000E-01  8.50000000E-01
  8.50000000E-01  8.50000000E-01  8.50000000E-01  8.50000000E-01  8.50000000E-01
  8.50000000E-01  8.50000000E-01  8.50000000E-01  8.50000000E-01  8.50000000E-01
  8.50000000E-01  8.50000000E-01  8.50000000E-01  8.50000000E-01  8.50000000E-01
  8.50000000E-01  8.50000000E-01  8.50000000E-01  8.50000000E-01  8.50000000E-01
  8.50000000E-01  8.50000000E-01  8.50000000E-01  8.50000000E-01  8.50000000E-01
  8.50000000E-01  8.50000000E-01  8.50000000E-01  8.50000000E-01  8.50000000E-01
  8.50000000E-01  8.50000000E-01  8.50000000E-01  8.50000000E-01  8.50000000E-01
  8.50000000E-01  8.50000000E-01  8.50000000E-01  8.50000000E-01  8.50000000E-01
  8.50000000E-01  8.50000000E-01  8.50000000E-01  8.50000000E-01  8.50000000E-01
  8.50000000E-01  8.50000000E-01  8.50000000E-01  8.50000000E-01  8.50000000E-01
  8.50000000E-01  8.50000000E-01  8.50000000E-01  8.50000000E-01  8.50000000E-01
  8.50000000E-01  8.50000000E-01  8.50000000E-01  8.50000000E-01  8.50000000E-01
  8.50000000E-01  8.50000000E-01  8.50000000E-01  8.50000000E-01  8.50000000E-01
  8.50000000E-01  8.50000000E-01  8.50000000E-01  8.50000000E-01  8.50000000E-01
  8.50000000E-01  8.50000000E-01  8.50000000E-01  8.50000000E-01  8.50000000E-01
  8.50000000E-01  8.50000000E-01  8.50000000E-01  8.50000000E-01  8.50000000E-01
  8.50000000E-01  8.50000000E-01  8.50000000E-01  8.50000000E-01  8.50000000E-01
  8.50000000E-01  8.50000000E-01  8.50000000E-01  8.50000000E-01  8.50000000E-01
  8.50000000E-01  8.50000000E-01  8.50000000E-01  8.50000000E-01  8.50000000E-01
  8.50000000E-01  8.50000000E-01  8.50000000E-01  8.50000000E-01  8.50000000E-01
  8.50000000E-01  8.50000000E-01  8.50000000E-01  8.50000000E-01  8.50000000E-01
  8.50000000E-01  8.50000000E-01  8.50000000E-01  8.50000000E-01  8.50000000E-01
  8.50000000E-01  8.50000000E-01  8.50000000E-01  8.50000000E-01  8.50000000E-01
  8.50000000E-01  8.50000000E-01  8.50000000E-01  8.50000000E-01  8.50000000E-01
  8.50000000E-01  8.50000000E-01  8.50000000E-01  8.50000000E-01  8.50000000E-01
  8.50000000E-01  8.50000000E-01  8.50000000E-01  8.50000000E-01  8.50000000E-01
  8.50000000E-01  8.50000000E-01  8.50000000E-01  8.50000000E-01  8.50000000E-01
  8.50000000E-01  8.50000000E-01  8.50000000E-01  8.50000000E-01  8.50000000E-01
  8.50000000E-01  8.50000000E-01  8.50000000E-01  8.50000000E-01  8.50000000E-01
  8.50000000E-01  8.50000000E-01  8.50000000E-01  8.50000000E-01  8.50000000E-01
  8.50000000E-01  8.50000000E-01  8.50000000E-01  8.50000000E-01  8.50000000E-01
  8.50000000E-01  8.50000000E-01  8.50000000E-01  8.50000000E-01  8.50000000E-01
  8.50000000E-01  8.50000000E-01  8.50000000E-01  8.50000000E-01  8.50000000E-01
  8.50000000E-01  8.50000000E-01  8.50000000E-01  8.50000000E-01  8.50000000E-01
  8.50000000E-01  8.50000000E-01  8.50000000E-01  8.50000000E-01  8.50000000E-01
  8.50000000E-01  8.50000000E-01  8.50000000E-01  8.50000000E-01  8.50000000E-01
  8.50000000E-01  8.50000000E-01  8.50000000E-01  8.50000000E-01  8.50000000E-01
  8.50000000E-01  8.50000000E-01  8.50000000E-01  8.50000000E-01  8.50000000E-01
  8.50000000E-01  8.50000000E-01  8.50000000E-01  8.50000000E-01  8.50000000E-01
  8.50000000E-01  8.50000000E-01  8.50000000E-01  8.50000000E-01  8.50000000E-01
  8.50000000E-01  8.50000000E-01  8.50000000E-01  8.50000000E-01  8.50000000E-01
  8.50000000E-01  8.50000000E-01  8.50000000E-01  8.50000000E-01  8.50000000E-01
  8.50000000E-01  8.50000000E-01  8.50000000E-01  8.50000000E-01  8.50000000E-01
  8.50000000E-01  8.50000000E-01  8.50000000E-01  8.50000000E-01  8.50000000E-01
  8.50000000E-01  8.50000000E-01  8.50000000E-01  8.50000000E-01  8.50000000E-01
  8.50000000E-01  8.50000000E-01  8.50000000E-01  8.50000000E-01  8.50000000E-01
  8.50000000E-01  8.50000000E-01  8.50000000E-01  8.50000000E-01  8.50000000E-01
  8.50000000E-01  8.50000000E-01  8.50000000E-01  8.50000000E-01  8.50000000E-01
  8.50000000E-01  8.50000000E-01  8.50000000E-01  8.50000000E-01  8.50000000E-01
  8.50000000E-01  8.50000000E-01  8.50000000E-01  8.50000000E-01  8.50000000E-01
  8.50000000E-01  8.50000000E-01  8.50000000E-01  8.50000000E-01  8.50000000E-01
  8.50000000E-01  8.50000000E-01  8.50000000E-01  8.50000000E-01  8.50000000E-01
  8.50000000E-01  8.50000000E-01  8.50000000E-01  8.50000000E-01  8.50000000E-01
  8.50000000E-01  8.50000000E-01  8.50000000E-01  8.50000000E-01  8.50000000E-01
  8.50000000E-01  8.50000000E-01  8.50000000E-01  8.50000000E-01  8.50000000E-01
  8.50000000E-01  8.50000000E-01  8.50000000E-01  8.50000000E-01  8.50000000E-01
  8.50000000E-01  8.50000000E-01  8.50000000E-01  8.50000000E-01  8.50000000E-01
  8.50000000E-01  8.50000000E-01  8.50000000E-01  8.50000000E-01  8.50000000E-01
  8.50000000E-01  8.50000000E-01  8.50000000E-01  8.50000000E-01  8.50000000E-01
  8.50000000E-01  8.50000000E-01  8.50000000E-01  8.50000000E-01  8.50000000E-01
  8.50000000E-01  8.50000000E-01  8.50000000E-01  8.50000000E-01  8.50000000E-01
  8.50000000E-01  8.50000000E-01  8.50000000E-01  8.50000000E-01  8.50000000E-01
  8.50000000E-01  8.50000000E-01  8.50000000E-01  8.50000000E-01  8.50000000E-01
  8.50000000E-01  8.50000000E-01  8.50000000E-01  8.50000000E-01  8.50000000E-01
  8.50000000E-01  8.50000000E-01  8.50000000E-01  8.50000000E-01  8.50000000E-01
  8.50000000E-01  8.50000000E-01  8.50000000E-01  8.50000000E-01  8.50000000E-01
  8.50000000E-01  8.50000000E-01  8.50000000E-01  8.50000000E-01  8.50000000E-01
  8.50000000E-01  8.50000000E-01  8.50000000E-01  8.50000000E-01  8.50000000E-01
  8.50000000E-01  8.50000000E-01  8.50000000E-01  8.50000000E-01  8.50000000E-01
  8.50000000E-01  8.50000000E-01  8.50000000E-01  8.50000000E-01  8.50000000E-01
  8.50000000E-01  8.50000000E-01  8.50000000E-01  8.50000000E-01  8.50000000E-01
  8.50000000E-01  8.50000000E-01  8.50000000E-01  8.50000000E-01  8.50000000E-01
  8.50000000E-01  8.50000000E-01  8.50000000E-01  8.50000000E-01  8.50000000E-01
  8.50000000E-01  8.50000000E-01  8.50000000E-01  8.50000000E-01  8.50000000E-01
  8.50000000E-01  8.50000000E-01  8.50000000E-01  8.50000000E-01  8.50000000E-01
  8.50000000E-01  8.50000000E-01  8.50000000E-01  8.50000000E-01  8.50000000E-01
  8.50000000E-01  8.50000000E-01  8.50000000E-01  8.50000000E-01  8.50000000E-01
  8.50000000E-01  8.50000000E-01  8.50000000E-01  8.50000000E-01  8.50000000E-01
  8.50000000E-01  8.50000000E-01  8.50000000E-01  8.50000000E-01  8.50000000E-01
  8.50000000E-01  8.50000000E-01  8.50000000E-01  8.50000000E-01  8.50000000E-01
  8.50000000E-01  8.50000000E-01  8.50000000E-01  8.50000000E-01  8.50000000E-01
  8.50000000E-01  8.50000000E-01  8.50000000E-01  8.50000000E-01  8.50000000E-01
  8.50000000E-01  8.50000000E-01  8.50000000E-01  8.50000000E-01  8.50000000E-01
  8.50000000E-01  8.50000000E-01  8.50000000E-01  8.50000000E-01  8.50000000E-01
  8.50000000E-01  8.50000000E-01  8.50000000E-01  8.50000000E-01  8.50000000E-01
  8.50000000E-01  8.50000000E-01  8.50000000E-01  8.50000000E-01  8.50000000E-01
  8.50000000E-01  8.50000000E-01  8.50000000E-01  8.50000000E-01  8.50000000E-01
  8.50000000E-01  8.50000000E-01  8.50000000E-01  8.50000000E-01  8.50000000E-01
  8.50000000E-01  8.50000000E-01  8.50000000E-01  8.50000000E-01  8.50000000E-01
  8.50000000E-01  8.50000000E-01  8.50000000E-01  8.50000000E-01  8.50000000E-01
  8.50000000E-01  8.50000000E-01  8.50000000E-01  8.50000000E-01  8.50000000E-01
  8.50000000E-01  8.50000000E-01  8.50000000E-01  8.50000000E-01  8.50000000E-01
  8.50000000E-01  8.50000000E-01  8.50000000E-01  8.50000000E-01  8.50000000E-01
  8.50000000E-01  8.50000000E-01  8.50000000E-01  8.50000000E-01  8.50000000E-01
  8.50000000E-01  8.50000000E-01  8.50000000E-01  8.50000000E-01  8.50000000E-01
  8.50000000E-01  8.50000000E-01  8.50000000E-01  8.50000000E-01  8.50000000E-01
  8.50000000E-01  8.50000000E-01  8.50000000E-01  8.50000000E-01  8.50000000E-01
  8.50000000E-01  8.50000000E-01  8.50000000E-01  8.50000000E-01  8.50000000E-01
  8.50000000E-01  8.50000000E-01  8.50000000E-01  8.50000000E-01  8.50000000E-01
  8.50000000E-01  8.50000000E-01  8.50000000E-01  8.50000000E-01  8.50000000E-01
  8.50000000E-01  8.50000000E-01  8.50000000E-01  8.50000000E-01  8.50000000E-01
  8.50000000E-01  8.50000000E-01  8.50000000E-01  8.50000000E-01  8.50000000E-01
  8.50000000E-01  8.50000000E-01  8.50000000E-01  8.50000000E-01  8.50000000E-01
  8.50000000E-01  8.50000000E-01  8.50000000E-01  8.50000000E-01  8.50000000E-01
  8.50000000E-01  8.50000000E-01  8.50000000E-01  8.50000000E-01  8.50000000E-01
  8.50000000E-01  8.50000000E-01  8.50000000E-01  8.50000000E-01  8.50000000E-01
  8.50000000E-01  8.50000000E-01  8.50000000E-01  8.50000000E-01  8.50000000E-01
  8.50000000E-01  8.50000000E-01  8.50000000E-01  8.50000000E-01  8.50000000E-01
  8.50000000E-01  8.50000000E-01  8.50000000E-01  8.50000000E-01  8.50000000E-01
  8.50000000E-01  8.50000000E-01  8.50000000E-01  8.50000000E-01  8.50000000E-01
  8.50000000E-01  8.50000000E-01  8.50000000E-01  8.50000000E-01  8.50000000E-01
  8.50000000E-01  8.50000000E-01  8.50000000E-01  8.50000000E-01  8.50000000E-01
  8.50000000E-01  8.50000000E-01  8.50000000E-01  8.50000000E-01  8.50000000E-01
  8.50000000E-01  8.50000000E-01  8.50000000E-01  8.50000000E-01  8.50000000E-01
  8.50000000E-01  8.50000000E-01  8.50000000E-01  8.50000000E-01  8.50000000E-01
  8.50000000E-01  8.50000000E-01  8.50000000E-01  8.50000000E-01  8.50000000E-01
  8.50000000E-01  8.50000000E-01  8.50000000E-01  8.50000000E-01  8.50000000E-01
  8.50000000E-01  8.50000000E-01  8.50000000E-01  8.50000000E-01  8.50000000E-01
  8.50000000E-01  8.50000000E-01  8.50000000E-01  8.50000000E-01  8.50000000E-01
  8.50000000E-01  8.50000000E-01  8.50000000E-01  8.50000000E-01  8.50000000E-01
  8.50000000E-01  8.50000000E-01  8.50000000E-01  8.50000000E-01  8.50000000E-01
  8.50000000E-01  8.50000000E-01  8.50000000E-01  8.50000000E-01  8.50000000E-01
  8.50000000E-01  8.50000000E-01  8.50000000E-01  8.50000000E-01  8.50000000E-01
  8.50000000E-01  8.50000000E-01  8.50000000E-01  8.50000000E-01  8.50000000E-01
  8.50000000E-01  8.50000000E-01  8.50000000E-01  8.50000000E-01  8.50000000E-01
  8.50000000E-01  8.50000000E-01  8.50000000E-01  8.50000000E-01  8.50000000E-01
  8.50000000E-01  8.50000000E-01  8.50000000E-01  8.50000000E-01  8.50000000E-01
  8.50000000E-01  8.50000000E-01  8.50000000E-01  8.50000000E-01  8.50000000E-01
  8.50000000E-01  8.50000000E-01  8.50000000E-01  8.50000000E-01  8.50000000E-01
  8.50000000E-01  8.50000000E-01  8.50000000E-01  8.50000000E-01  8.50000000E-01
  8.50000000E-01  8.50000000E-01  8.50000000E-01  8.50000000E-01  8.50000000E-01
  8.50000000E-01  8.50000000E-01  8.50000000E-01  8.50000000E-01  8.50000000E-01
  8.50000000E-01  8.50000000E-01  8.50000000E-01  8.50000000E-01  8.50000000E-01
  8.50000000E-01  8.50000000E-01  8.50000000E-01  8.50000000E-01  8.50000000E-01
  8.50000000E-01  8.50000000E-01  8.50000000E-01  8.50000000E-01  8.50000000E-01
  8.50000000E-01  8.50000000E-01  8.50000000E-01  8.50000000E-01  8.50000000E-01
  8.50000000E-01  8.50000000E-01  8.50000000E-01  8.50000000E-01  8.50000000E-01
  8.50000000E-01  8.50000000E-01  8.50000000E-01  8.50000000E-01  8.50000000E-01
  8.50000000E-01  8.50000000E-01  8.50000000E-01  8.50000000E-01  8.50000000E-01
  8.50000000E-01  8.50000000E-01  8.50000000E-01  8.50000000E-01  8.50000000E-01
  8.50000000E-01  8.50000000E-01  8.50000000E-01  8.50000000E-01  8.50000000E-01
  8.50000000E-01  8.50000000E-01  8.50000000E-01  8.50000000E-01  8.50000000E-01
  8.50000000E-01  8.50000000E-01  8.50000000E-01  8.50000000E-01  8.50000000E-01
  8.50000000E-01  8.50000000E-01  8.50000000E-01  8.50000000E-01  8.50000000E-01
  8.50000000E-01  8.50000000E-01  8.50000000E-01  8.50000000E-01  8.50000000E-01
  8.50000000E-01  8.50000000E-01  8.50000000E-01  8.50000000E-01  8.50000000E-01
  8.50000000E-01  8.50000000E-01  8.50000000E-01  8.50000000E-01  8.50000000E-01
  8.50000000E-01  8.50000000E-01  8.50000000E-01  8.50000000E-01  8.50000000E-01
  8.50000000E-01  8.50000000E-01  8.50000000E-01  8.50000000E-01  8.50000000E-01
  8.50000000E-01  8.50000000E-01  8.50000000E-01  8.50000000E-01  8.50000000E-01
  8.50000000E-01  8.50000000E-01  8.50000000E-01  8.50000000E-01  8.50000000E-01
  8.50000000E-01  8.50000000E-01  8.50000000E-01  8.50000000E-01  8.50000000E-01
  8.50000000E-01  8.50000000E-01  8.50000000E-01  8.50000000E-01  8.50000000E-01
  8.50000000E-01  8.50000000E-01  8.50000000E-01  8.50000000E-01  8.50000000E-01
  8.50000000E-01  8.50000000E-01  8.50000000E-01  8.50000000E-01  8.50000000E-01
  8.50000000E-01  8.50000000E-01  8.50000000E-01  8.50000000E-01  8.50000000E-01
  8.50000000E-01  8.50000000E-01  8.50000000E-01  8.50000000E-01  8.50000000E-01
  8.50000000E-01  8.50000000E-01  8.50000000E-01  8.50000000E-01  8.50000000E-01
  8.50000000E-01  8.50000000E-01  8.50000000E-01  8.50000000E-01  8.50000000E-01
  8.50000000E-01  8.50000000E-01  8.50000000E-01  8.50000000E-01  8.50000000E-01
  8.50000000E-01  8.50000000E-01  8.50000000E-01  8.50000000E-01  8.50000000E-01
  8.50000000E-01  8.50000000E-01  8.50000000E-01  8.50000000E-01  8.50000000E-01
  8.50000000E-01  8.50000000E-01  8.50000000E-01  8.50000000E-01  8.50000000E-01
  8.50000000E-01  8.50000000E-01  8.50000000E-01  8.50000000E-01  8.50000000E-01
  8.50000000E-01  8.50000000E-01  8.50000000E-01  8.50000000E-01  8.50000000E-01
  8.50000000E-01  8.50000000E-01  8.50000000E-01  8.50000000E-01  8.50000000E-01
  8.50000000E-01  8.50000000E-01  8.50000000E-01  8.50000000E-01  8.50000000E-01
  8.50000000E-01  8.50000000E-01  8.50000000E-01  8.50000000E-01  8.50000000E-01
  8.50000000E-01  8.50000000E-01  8.50000000E-01  8.50000000E-01  8.50000000E-01
  8.50000000E-01  8.50000000E-01  8.50000000E-01  8.50000000E-01  8.50000000E-01
  8.50000000E-01  8.50000000E-01  8.50000000E-01  8.50000000E-01  8.50000000E-01
  8.50000000E-01  8.50000000E-01  8.50000000E-01  8.50000000E-01  8.50000000E-01
  8.50000000E-01  8.50000000E-01  8.50000000E-01  8.50000000E-01  8.50000000E-01
  8.50000000E-01  8.50000000E-01  8.50000000E-01  8.50000000E-01  8.50000000E-01
  8.50000000E-01  8.50000000E-01  8.50000000E-01  8.50000000E-01  8.50000000E-01
  8.50000000E-01  8.50000000E-01  8.50000000E-01  8.50000000E-01  8.50000000E-01
  8.50000000E-01  8.50000000E-01  8.50000000E-01  8.50000000E-01  8.50000000E-01
  8.50000000E-01  8.50000000E-01  8.50000000E-01  8.50000000E-01  8.50000000E-01
  8.50000000E-01  8.50000000E-01  8.50000000E-01  8.50000000E-01  8.50000000E-01
  8.50000000E-01  8.50000000E-01  8.50000000E-01  8.50000000E-01  8.50000000E-01
  8.50000000E-01  8.50000000E-01  8.50000000E-01  8.50000000E-01  8.50000000E-01
  8.50000000E-01  8.50000000E-01  8.50000000E-01  8.50000000E-01  8.50000000E-01
  8.50000000E-01  8.50000000E-01  8.50000000E-01  8.50000000E-01  8.50000000E-01
  8.50000000E-01  8.50000000E-01  8.50000000E-01  8.50000000E-01  8.50000000E-01
  8.50000000E-01  8.50000000E-01  8.50000000E-01  8.50000000E-01  8.50000000E-01
  8.50000000E-01  8.50000000E-01  8.50000000E-01  8.50000000E-01  8.50000000E-01
  8.50000000E-01  8.50000000E-01  8.50000000E-01  8.50000000E-01  8.50000000E-01
  8.50000000E-01  8.50000000E-01  8.50000000E-01  8.50000000E-01  8.50000000E-01
  8.50000000E-01  8.50000000E-01  8.50000000E-01  8.50000000E-01  8.50000000E-01
  8.50000000E-01  8.50000000E-01  8.50000000E-01  8.50000000E-01  8.50000000E-01
  8.50000000E-01  8.50000000E-01  8.50000000E-01  8.50000000E-01  8.50000000E-01
  8.50000000E-01  8.50000000E-01  8.50000000E-01  8.50000000E-01  8.50000000E-01
  8.50000000E-01  8.50000000E-01  8.50000000E-01  8.50000000E-01  8.50000000E-01
  8.50000000E-01  8.50000000E-01  8.50000000E-01  8.50000000E-01  8.50000000E-01
  8.50000000E-01  8.50000000E-01  8.50000000E-01  8.50000000E-01  8.50000000E-01
  8.50000000E-01  8.50000000E-01  8.50000000E-01  8.50000000E-01  8.50000000E-01
  8.50000000E-01  8.50000000E-01  8.50000000E-01  8.50000000E-01  8.50000000E-01
  8.50000000E-01  8.50000000E-01  8.50000000E-01  8.50000000E-01  8.50000000E-01
  8.50000000E-01  8.50000000E-01  8.50000000E-01  8.50000000E-01  8.50000000E-01
  8.50000000E-01  8.50000000E-01  8.50000000E-01  8.50000000E-01  8.50000000E-01
  8.50000000E-01  8.50000000E-01  8.50000000E-01  8.50000000E-01  8.50000000E-01
  8.50000000E-01  8.50000000E-01  8.50000000E-01  8.50000000E-01  8.50000000E-01
  8.50000000E-01  8.50000000E-01  8.50000000E-01  8.50000000E-01  8.50000000E-01
  8.50000000E-01  8.50000000E-01  8.50000000E-01  8.50000000E-01  8.50000000E-01
  8.50000000E-01  8.50000000E-01  8.50000000E-01  8.50000000E-01  8.50000000E-01
  8.50000000E-01  8.50000000E-01  8.50000000E-01  8.50000000E-01  8.50000000E-01
  8.50000000E-01  8.50000000E-01  8.50000000E-01  8.50000000E-01  8.50000000E-01
  8.50000000E-01  8.50000000E-01  8.50000000E-01  8.50000000E-01  8.50000000E-01
  8.50000000E-01  8.50000000E-01  8.50000000E-01  8.50000000E-01  8.50000000E-01
  8.50000000E-01  8.50000000E-01  8.50000000E-01  8.50000000E-01  8.50000000E-01
  8.50000000E-01  8.50000000E-01  8.50000000E-01  8.50000000E-01  8.50000000E-01
  8.50000000E-01  8.50000000E-01  8.50000000E-01  8.50000000E-01  8.50000000E-01
  8.50000000E-01  8.50000000E-01  8.50000000E-01  8.50000000E-01  8.50000000E-01
  8.50000000E-01  8.50000000E-01  8.50000000E-01  8.50000000E-01  8.50000000E-01
  8.50000000E-01  8.50000000E-01  8.50000000E-01  8.50000000E-01  8.50000000E-01
  8.50000000E-01  8.50000000E-01  8.50000000E-01  8.50000000E-01  8.50000000E-01
  8.50000000E-01  8.50000000E-01  8.50000000E-01  8.50000000E-01  8.50000000E-01
  8.50000000E-01  8.50000000E-01  8.50000000E-01  8.50000000E-01  8.50000000E-01
  8.50000000E-01  8.50000000E-01  8.50000000E-01  8.50000000E-01  8.50000000E-01
  8.50000000E-01  8.50000000E-01  8.50000000E-01  8.50000000E-01  8.50000000E-01
  8.50000000E-01  8.50000000E-01  8.50000000E-01  8.50000000E-01  8.50000000E-01
  8.50000000E-01  8.50000000E-01  8.50000000E-01  8.50000000E-01  8.50000000E-01
  8.50000000E-01  8.50000000E-01  8.50000000E-01  8.50000000E-01  8.50000000E-01
  8.50000000E-01  8.50000000E-01  8.50000000E-01  8.50000000E-01  8.50000000E-01
  8.50000000E-01  8.50000000E-01  8.50000000E-01  8.50000000E-01  8.50000000E-01
  8.50000000E-01  8.50000000E-01  8.50000000E-01  8.50000000E-01  8.50000000E-01
  8.50000000E-01  8.50000000E-01  8.50000000E-01  8.50000000E-01  8.50000000E-01
  8.50000000E-01  8.50000000E-01  8.50000000E-01  8.50000000E-01  8.50000000E-01
  8.50000000E-01  8.50000000E-01  8.50000000E-01  8.50000000E-01  8.50000000E-01
  8.50000000E-01  8.50000000E-01  8.50000000E-01  8.50000000E-01  8.50000000E-01
  8.50000000E-01  8.50000000E-01  8.50000000E-01  8.50000000E-01  8.50000000E-01
  8.50000000E-01  8.50000000E-01  8.50000000E-01  8.50000000E-01  8.50000000E-01
  8.50000000E-01  8.50000000E-01  8.50000000E-01  8.50000000E-01  8.50000000E-01
  8.50000000E-01  8.50000000E-01  8.50000000E-01  8.50000000E-01  8.50000000E-01
  8.50000000E-01  8.50000000E-01  8.50000000E-01  8.50000000E-01  8.50000000E-01
  8.50000000E-01  8.50000000E-01  8.50000000E-01  8.50000000E-01  8.50000000E-01
  8.50000000E-01  8.50000000E-01  8.50000000E-01  8.50000000E-01  8.50000000E-01
  8.50000000E-01  8.50000000E-01  8.50000000E-01  8.50000000E-01  8.50000000E-01
  8.50000000E-01  8.50000000E-01  8.50000000E-01  8.50000000E-01  8.50000000E-01
  8.50000000E-01  8.50000000E-01  8.50000000E-01  8.50000000E-01  8.50000000E-01
  8.50000000E-01  8.50000000E-01  8.50000000E-01  8.50000000E-01  8.50000000E-01
  8.50000000E-01  8.50000000E-01  8.50000000E-01  8.50000000E-01  8.50000000E-01
  8.50000000E-01  8.50000000E-01  8.50000000E-01  8.50000000E-01  8.50000000E-01
  8.50000000E-01  8.50000000E-01  8.50000000E-01  8.50000000E-01  8.50000000E-01
  8.50000000E-01  8.50000000E-01  8.50000000E-01  8.50000000E-01  8.50000000E-01
  8.50000000E-01  8.50000000E-01  8.50000000E-01  8.50000000E-01  8.50000000E-01
  8.50000000E-01  8.50000000E-01  8.50000000E-01  8.50000000E-01  8.50000000E-01
  8.50000000E-01  8.50000000E-01  8.50000000E-01  8.50000000E-01  8.50000000E-01
  8.50000000E-01  8.50000000E-01  8.50000000E-01  8.50000000E-01  8.50000000E-01
  8.50000000E-01  8.50000000E-01  8.50000000E-01  8.50000000E-01  8.50000000E-01
  8.50000000E-01  8.50000000E-01  8.50000000E-01  8.50000000E-01  8.50000000E-01
  8.50000000E-01  8.50000000E-01  8.50000000E-01  8.50000000E-01  8.50000000E-01
  8.50000000E-01  8.50000000E-01  8.50000000E-01  8.50000000E-01  8.50000000E-01
  8.50000000E-01  8.50000000E-01  8.50000000E-01  8.50000000E-01  8.50000000E-01
  8.50000000E-01  8.50000000E-01  8.50000000E-01  8.50000000E-01  8.50000000E-01
  8.50000000E-01  8.50000000E-01  8.50000000E-01  8.50000000E-01  8.50000000E-01
  8.50000000E-01  8.50000000E-01  8.50000000E-01  8.50000000E-01  8.50000000E-01
  8.50000000E-01  8.50000000E-01  8.50000000E-01  8.50000000E-01  8.50000000E-01
  8.50000000E-01  8.50000000E-01  8.50000000E-01  8.50000000E-01  8.50000000E-01
  8.50000000E-01  8.50000000E-01  8.50000000E-01  8.50000000E-01  8.50000000E-01
  8.50000000E-01  8.50000000E-01  8.50000000E-01  8.50000000E-01  8.50000000E-01
  8.50000000E-01  8.50000000E-01  8.50000000E-01  8.50000000E-01  8.50000000E-01
  8.50000000E-01  8.50000000E-01  8.50000000E-01  8.50000000E-01  8.50000000E-01
  8.50000000E-01  8.50000000E-01  8.50000000E-01  8.50000000E-01  8.50000000E-01
  8.50000000E-01  8.50000000E-01  8.50000000E-01  8.50000000E-01  8.50000000E-01
  8.50000000E-01  8.50000000E-01  8.50000000E-01  8.50000000E-01  8.50000000E-01
  8.50000000E-01  8.50000000E-01  8.50000000E-01  8.50000000E-01  8.50000000E-01
  8.50000000E-01  8.50000000E-01  8.50000000E-01  8.50000000E-01  8.50000000E-01
  8.50000000E-01  8.50000000E-01  8.50000000E-01  8.50000000E-01  8.50000000E-01
  8.50000000E-01  8.50000000E-01  8.50000000E-01  8.50000000E-01  8.50000000E-01
  8.50000000E-01  8.50000000E-01  8.50000000E-01  8.50000000E-01  8.50000000E-01
  8.50000000E-01  8.50000000E-01  8.50000000E-01  8.50000000E-01  8.50000000E-01
  8.50000000E-01  8.50000000E-01  8.50000000E-01  8.50000000E-01  8.50000000E-01
  8.50000000E-01  8.50000000E-01  8.50000000E-01  8.50000000E-01  8.50000000E-01
  8.50000000E-01  8.50000000E-01  8.50000000E-01  8.50000000E-01  8.50000000E-01
  8.50000000E-01  8.50000000E-01  8.50000000E-01  8.50000000E-01  8.50000000E-01
  8.50000000E-01  8.50000000E-01  8.50000000E-01  8.50000000E-01  8.50000000E-01
  8.50000000E-01  8.50000000E-01  8.50000000E-01  8.50000000E-01  8.50000000E-01
  8.50000000E-01  8.50000000E-01  8.50000000E-01  8.50000000E-01  8.50000000E-01
  8.50000000E-01  8.50000000E-01  8.50000000E-01  8.50000000E-01  8.50000000E-01
  8.50000000E-01  8.50000000E-01  8.50000000E-01  8.50000000E-01  8.50000000E-01
  8.50000000E-01  8.50000000E-01  8.50000000E-01  8.50000000E-01  8.50000000E-01
  8.50000000E-01  8.50000000E-01  8.50000000E-01  8.50000000E-01  8.50000000E-01
  8.50000000E-01  8.50000000E-01  8.50000000E-01  8.50000000E-01  8.50000000E-01
  8.50000000E-01  8.50000000E-01  8.50000000E-01  8.50000000E-01  8.50000000E-01
  8.50000000E-01  8.50000000E-01  8.50000000E-01  8.50000000E-01  8.50000000E-01
  8.50000000E-01  8.50000000E-01  8.50000000E-01  8.50000000E-01  8.50000000E-01
  8.50000000E-01  8.50000000E-01  8.50000000E-01  8.50000000E-01  8.50000000E-01
  8.50000000E-01  8.50000000E-01  8.50000000E-01  8.50000000E-01  8.50000000E-01
  8.50000000E-01  8.50000000E-01  8.50000000E-01  8.50000000E-01  8.50000000E-01
  8.50000000E-01  8.50000000E-01  8.50000000E-01  8.50000000E-01  8.50000000E-01
  8.50000000E-01  8.50000000E-01  8.50000000E-01  8.50000000E-01  8.50000000E-01
  8.50000000E-01  8.50000000E-01  8.50000000E-01  8.50000000E-01  8.50000000E-01
  8.50000000E-01  8.50000000E-01  8.50000000E-01  8.50000000E-01  8.50000000E-01
  8.50000000E-01  8.50000000E-01  8.50000000E-01  8.50000000E-01  8.50000000E-01
  8.50000000E-01  8.50000000E-01  8.50000000E-01  8.50000000E-01  8.50000000E-01
  8.50000000E-01  8.50000000E-01  8.50000000E-01  8.50000000E-01  8.50000000E-01
  8.50000000E-01  8.50000000E-01  8.50000000E-01  8.50000000E-01  8.50000000E-01
  8.50000000E-01  8.50000000E-01  8.50000000E-01  8.50000000E-01  8.50000000E-01
  8.50000000E-01  8.50000000E-01  8.50000000E-01  8.50000000E-01  8.50000000E-01
  8.50000000E-01  8.50000000E-01  8.50000000E-01  8.50000000E-01  8.50000000E-01
  8.50000000E-01  8.50000000E-01  8.50000000E-01  8.50000000E-01  8.50000000E-01
  8.50000000E-01  8.50000000E-01  8.50000000E-01  8.50000000E-01  8.50000000E-01
  8.50000000E-01  8.50000000E-01  8.50000000E-01  8.50000000E-01  8.50000000E-01
  8.50000000E-01  8.50000000E-01  8.50000000E-01  8.50000000E-01  8.50000000E-01
  8.50000000E-01  8.50000000E-01  8.50000000E-01  8.50000000E-01  8.50000000E-01
  8.50000000E-01  8.50000000E-01  8.50000000E-01  8.50000000E-01  8.50000000E-01
  8.50000000E-01  8.50000000E-01  8.50000000E-01  8.50000000E-01  8.50000000E-01
  8.50000000E-01  8.50000000E-01  8.50000000E-01  8.50000000E-01  8.50000000E-01
  8.50000000E-01  8.50000000E-01  8.50000000E-01  8.50000000E-01  8.50000000E-01
  8.50000000E-01  8.50000000E-01  8.50000000E-01  8.50000000E-01  8.50000000E-01
  8.50000000E-01  8.50000000E-01  8.50000000E-01  8.50000000E-01  8.50000000E-01
  8.50000000E-01  8.50000000E-01  8.50000000E-01  8.50000000E-01  8.50000000E-01
  8.50000000E-01  8.50000000E-01  8.50000000E-01  8.50000000E-01  8.50000000E-01
  8.50000000E-01  8.50000000E-01  8.50000000E-01  8.50000000E-01  8.50000000E-01
  8.50000000E-01  8.50000000E-01  8.50000000E-01  8.50000000E-01  8.50000000E-01
  8.50000000E-01  8.50000000E-01  8.50000000E-01  8.50000000E-01  8.50000000E-01
  8.50000000E-01  8.50000000E-01  8.50000000E-01  8.50000000E-01  8.50000000E-01
  8.50000000E-01  8.50000000E-01  8.50000000E-01  8.50000000E-01  8.50000000E-01
  8.50000000E-01  8.50000000E-01  8.50000000E-01  8.50000000E-01  8.50000000E-01
  8.50000000E-01  8.50000000E-01  8.50000000E-01  8.50000000E-01  8.50000000E-01
  8.50000000E-01  8.50000000E-01  8.50000000E-01  8.50000000E-01  8.50000000E-01
  8.50000000E-01  8.50000000E-01  8.50000000E-01  8.50000000E-01  8.50000000E-01
  8.50000000E-01  8.50000000E-01  8.50000000E-01  8.50000000E-01  8.50000000E-01
  8.50000000E-01  8.50000000E-01  8.50000000E-01  8.50000000E-01  8.50000000E-01
  8.50000000E-01  8.50000000E-01  8.50000000E-01  8.50000000E-01  8.50000000E-01
  8.50000000E-01  8.50000000E-01  8.50000000E-01  8.50000000E-01  8.50000000E-01
  8.50000000E-01  8.50000000E-01  8.50000000E-01  8.50000000E-01  8.50000000E-01
  8.50000000E-01  8.50000000E-01  8.50000000E-01  8.50000000E-01  8.50000000E-01
  8.50000000E-01  8.50000000E-01  8.50000000E-01  8.50000000E-01  8.50000000E-01
  8.50000000E-01  8.50000000E-01  8.50000000E-01  8.50000000E-01  8.50000000E-01
  8.50000000E-01  8.50000000E-01  8.50000000E-01  8.50000000E-01  8.50000000E-01
  8.50000000E-01  8.50000000E-01  8.50000000E-01  8.50000000E-01  8.50000000E-01
  8.50000000E-01  8.50000000E-01  8.50000000E-01  8.50000000E-01  8.50000000E-01
  8.50000000E-01  8.50000000E-01  8.50000000E-01  8.50000000E-01  8.50000000E-01
  8.50000000E-01  8.50000000E-01  8.50000000E-01  8.50000000E-01  8.50000000E-01
  8.50000000E-01  8.50000000E-01  8.50000000E-01  8.50000000E-01  8.50000000E-01
  8.50000000E-01  8.50000000E-01  8.50000000E-01  8.50000000E-01  8.50000000E-01
  8.50000000E-01  8.50000000E-01  8.50000000E-01  8.50000000E-01  8.50000000E-01
  8.50000000E-01  8.50000000E-01  8.50000000E-01  8.50000000E-01  8.50000000E-01
  8.50000000E-01  8.50000000E-01  8.50000000E-01  8.50000000E-01  8.50000000E-01
  8.50000000E-01  8.50000000E-01  8.50000000E-01  8.50000000E-01  8.50000000E-01
  8.50000000E-01  8.50000000E-01  8.50000000E-01  8.50000000E-01  8.50000000E-01
  8.50000000E-01  8.50000000E-01  8.50000000E-01  8.50000000E-01  8.50000000E-01
  8.50000000E-01  8.50000000E-01  8.50000000E-01  8.50000000E-01  8.50000000E-01
  8.50000000E-01  8.50000000E-01  8.50000000E-01  8.50000000E-01  8.50000000E-01
  8.50000000E-01  8.50000000E-01  8.50000000E-01  8.50000000E-01  8.50000000E-01
  8.50000000E-01  8.50000000E-01  8.50000000E-01  8.50000000E-01  8.50000000E-01
  8.50000000E-01  8.50000000E-01  8.50000000E-01  8.50000000E-01  8.50000000E-01
  8.50000000E-01  8.50000000E-01  8.50000000E-01  8.50000000E-01  8.50000000E-01
  8.50000000E-01  8.50000000E-01  8.50000000E-01  8.50000000E-01  8.50000000E-01
  8.50000000E-01  8.50000000E-01  8.50000000E-01  8.50000000E-01  8.50000000E-01
  8.50000000E-01  8.50000000E-01  8.50000000E-01  8.50000000E-01  8.50000000E-01
  8.50000000E-01  8.50000000E-01  8.50000000E-01  8.50000000E-01  8.50000000E-01
  8.50000000E-01  8.50000000E-01  8.50000000E-01  8.50000000E-01  8.50000000E-01
  8.50000000E-01  8.50000000E-01  8.50000000E-01  8.50000000E-01  8.50000000E-01
  8.50000000E-01  8.50000000E-01  8.50000000E-01  8.50000000E-01  8.50000000E-01
  8.50000000E-01  8.50000000E-01  8.50000000E-01  8.50000000E-01  8.50000000E-01
  8.50000000E-01  8.50000000E-01  8.50000000E-01  8.50000000E-01  8.50000000E-01
  8.50000000E-01  8.50000000E-01  8.50000000E-01  8.50000000E-01  8.50000000E-01
  8.50000000E-01  8.50000000E-01  8.50000000E-01  8.50000000E-01  8.50000000E-01
  8.50000000E-01  8.50000000E-01  8.50000000E-01  8.50000000E-01  8.50000000E-01
  8.50000000E-01  8.50000000E-01  8.50000000E-01  8.50000000E-01  8.50000000E-01
  8.50000000E-01  8.50000000E-01  8.50000000E-01  8.50000000E-01  8.50000000E-01
  8.50000000E-01  8.50000000E-01  8.50000000E-01  8.50000000E-01  8.50000000E-01
  8.50000000E-01  8.50000000E-01  8.50000000E-01  8.50000000E-01  8.50000000E-01
  8.50000000E-01  8.50000000E-01  8.50000000E-01  8.50000000E-01  8.50000000E-01
  8.50000000E-01  8.50000000E-01  8.50000000E-01  8.50000000E-01  8.50000000E-01
  8.50000000E-01  8.50000000E-01  8.50000000E-01  8.50000000E-01  8.50000000E-01
  8.50000000E-01  8.50000000E-01  8.50000000E-01  8.50000000E-01  8.50000000E-01
  8.50000000E-01  8.50000000E-01  8.50000000E-01  8.50000000E-01  8.50000000E-01
  8.50000000E-01  8.50000000E-01  8.50000000E-01  8.50000000E-01  8.50000000E-01
  8.50000000E-01  8.50000000E-01  8.50000000E-01  8.50000000E-01  8.50000000E-01
  8.50000000E-01  8.50000000E-01  8.50000000E-01  8.50000000E-01  8.50000000E-01
  8.50000000E-01  8.50000000E-01  8.50000000E-01  8.50000000E-01  8.50000000E-01
  8.50000000E-01  8.50000000E-01  8.50000000E-01  8.50000000E-01  8.50000000E-01
  8.50000000E-01  8.50000000E-01  8.50000000E-01  8.50000000E-01  8.50000000E-01
  8.50000000E-01  8.50000000E-01  8.50000000E-01  8.50000000E-01  8.50000000E-01
  8.50000000E-01  8.50000000E-01  8.50000000E-01  8.50000000E-01  8.50000000E-01
  8.50000000E-01  8.50000000E-01  8.50000000E-01  8.50000000E-01  8.50000000E-01
  8.50000000E-01  8.50000000E-01  8.50000000E-01  8.50000000E-01  8.50000000E-01
  8.50000000E-01  8.50000000E-01  8.50000000E-01  8.50000000E-01  8.50000000E-01
  8.50000000E-01  8.50000000E-01  8.50000000E-01  8.50000000E-01  8.50000000E-01
  8.50000000E-01  8.50000000E-01  8.50000000E-01  8.50000000E-01  8.50000000E-01
  8.50000000E-01  8.50000000E-01  8.50000000E-01  8.50000000E-01  8.50000000E-01
  8.50000000E-01  8.50000000E-01  8.50000000E-01  8.50000000E-01  8.50000000E-01
  8.50000000E-01  8.50000000E-01  8.50000000E-01  8.50000000E-01  8.50000000E-01
  8.50000000E-01  8.50000000E-01  8.50000000E-01  8.50000000E-01  8.50000000E-01
  8.50000000E-01  8.50000000E-01  8.50000000E-01  8.50000000E-01  8.50000000E-01
  8.50000000E-01  8.50000000E-01  8.50000000E-01  8.50000000E-01  8.50000000E-01
  8.50000000E-01  8.50000000E-01  8.50000000E-01  8.50000000E-01  8.50000000E-01
  8.50000000E-01  8.50000000E-01  8.50000000E-01  8.50000000E-01  8.50000000E-01
  8.50000000E-01  8.50000000E-01  8.50000000E-01  8.50000000E-01  8.50000000E-01
  8.50000000E-01  8.50000000E-01  8.50000000E-01  8.50000000E-01  8.50000000E-01
  8.50000000E-01  8.50000000E-01  8.50000000E-01  8.50000000E-01  8.50000000E-01
  8.50000000E-01  8.50000000E-01  8.50000000E-01  8.50000000E-01  8.50000000E-01
  8.50000000E-01  8.50000000E-01  8.50000000E-01  8.50000000E-01  8.50000000E-01
  8.50000000E-01  8.50000000E-01  8.50000000E-01  8.50000000E-01  8.50000000E-01
  8.50000000E-01  8.50000000E-01  8.50000000E-01  8.50000000E-01  8.50000000E-01
  8.50000000E-01  8.50000000E-01  8.50000000E-01  8.50000000E-01  8.50000000E-01
  8.50000000E-01  8.50000000E-01  8.50000000E-01  8.50000000E-01  8.50000000E-01
  8.50000000E-01  8.50000000E-01  8.50000000E-01  8.50000000E-01  8.50000000E-01
  8.50000000E-01  8.50000000E-01  8.50000000E-01  8.50000000E-01  8.50000000E-01
  8.50000000E-01  8.50000000E-01  8.50000000E-01  8.50000000E-01  8.50000000E-01
  8.50000000E-01  8.50000000E-01  8.50000000E-01  8.50000000E-01  8.50000000E-01
  8.50000000E-01  8.50000000E-01  8.50000000E-01  8.50000000E-01  8.50000000E-01
  8.50000000E-01  8.50000000E-01  8.50000000E-01  8.50000000E-01  8.50000000E-01
  8.50000000E-01  8.50000000E-01  8.50000000E-01  8.50000000E-01  8.50000000E-01
  8.50000000E-01  8.50000000E-01  8.50000000E-01  8.50000000E-01  8.50000000E-01
  8.50000000E-01  8.50000000E-01  8.50000000E-01  8.50000000E-01  8.50000000E-01
  8.50000000E-01  8.50000000E-01  8.50000000E-01  8.50000000E-01  8.50000000E-01
  8.50000000E-01  8.50000000E-01  8.50000000E-01  8.50000000E-01  8.50000000E-01
  8.50000000E-01  8.50000000E-01  8.50000000E-01  8.50000000E-01  8.50000000E-01
  8.50000000E-01  8.50000000E-01  8.50000000E-01  8.50000000E-01  8.50000000E-01
  8.50000000E-01  8.50000000E-01  8.50000000E-01  8.50000000E-01  8.50000000E-01
  8.50000000E-01  8.50000000E-01  8.50000000E-01  8.50000000E-01  8.50000000E-01
  8.50000000E-01  8.50000000E-01  8.50000000E-01  8.50000000E-01  8.50000000E-01
  8.50000000E-01  8.50000000E-01  8.50000000E-01  8.50000000E-01  8.50000000E-01
  8.50000000E-01  8.50000000E-01  8.50000000E-01  8.50000000E-01  8.50000000E-01
  8.50000000E-01  8.50000000E-01  8.50000000E-01  8.50000000E-01  8.50000000E-01
  8.50000000E-01  8.50000000E-01  8.50000000E-01  8.50000000E-01  8.50000000E-01
  8.50000000E-01  8.50000000E-01  8.50000000E-01  8.50000000E-01  8.50000000E-01
  8.50000000E-01  8.50000000E-01  8.50000000E-01  8.50000000E-01  8.50000000E-01
  8.50000000E-01  8.50000000E-01  8.50000000E-01  8.50000000E-01  8.50000000E-01
  8.50000000E-01  8.50000000E-01  8.50000000E-01  8.50000000E-01  8.50000000E-01
  8.50000000E-01  8.50000000E-01  8.50000000E-01  8.50000000E-01  8.50000000E-01
  8.50000000E-01  8.50000000E-01  8.50000000E-01  8.50000000E-01  8.50000000E-01
  8.50000000E-01  8.50000000E-01  8.50000000E-01  8.50000000E-01  8.50000000E-01
  8.50000000E-01  8.50000000E-01  8.50000000E-01  8.50000000E-01  8.50000000E-01
  8.50000000E-01  8.50000000E-01  8.50000000E-01  8.50000000E-01  8.50000000E-01
  8.50000000E-01  8.50000000E-01  8.50000000E-01  8.50000000E-01  8.50000000E-01
  8.50000000E-01  8.50000000E-01  8.50000000E-01  8.50000000E-01  8.50000000E-01
  8.50000000E-01  8.50000000E-01  8.50000000E-01  8.50000000E-01  8.50000000E-01
  8.50000000E-01  8.50000000E-01  8.50000000E-01  8.50000000E-01  8.50000000E-01
  8.50000000E-01  8.50000000E-01  8.50000000E-01  8.50000000E-01  8.50000000E-01
  8.50000000E-01  8.50000000E-01  8.50000000E-01  8.50000000E-01  8.50000000E-01
  8.50000000E-01  8.50000000E-01  8.50000000E-01  8.50000000E-01  8.50000000E-01
  8.50000000E-01  8.50000000E-01  8.50000000E-01  8.50000000E-01  8.50000000E-01
  8.50000000E-01  8.50000000E-01  8.50000000E-01  8.50000000E-01  8.50000000E-01
  8.50000000E-01  8.50000000E-01  8.50000000E-01  8.50000000E-01  8.50000000E-01
  8.50000000E-01  8.50000000E-01  8.50000000E-01  8.50000000E-01  8.50000000E-01
  8.50000000E-01  8.50000000E-01  8.50000000E-01  8.50000000E-01  8.50000000E-01
  8.50000000E-01  8.50000000E-01  8.50000000E-01  8.50000000E-01  8.50000000E-01
  8.50000000E-01  8.50000000E-01  8.50000000E-01  8.50000000E-01  8.50000000E-01
  8.50000000E-01  8.50000000E-01  8.50000000E-01  8.50000000E-01  8.50000000E-01
  8.50000000E-01  8.50000000E-01  8.50000000E-01  8.50000000E-01  8.50000000E-01
  8.50000000E-01  8.50000000E-01  8.50000000E-01  8.50000000E-01  8.50000000E-01
  8.50000000E-01  8.50000000E-01  8.50000000E-01  8.50000000E-01  8.50000000E-01
  8.50000000E-01  8.50000000E-01  8.50000000E-01  8.50000000E-01  8.50000000E-01
  8.50000000E-01  8.50000000E-01  8.50000000E-01  8.50000000E-01  8.50000000E-01
  8.50000000E-01  8.50000000E-01  8.50000000E-01  8.50000000E-01  8.50000000E-01
  8.50000000E-01  8.50000000E-01  8.50000000E-01  8.50000000E-01  8.50000000E-01
  8.50000000E-01  8.50000000E-01  8.50000000E-01  8.50000000E-01  8.50000000E-01
  8.50000000E-01  8.50000000E-01  8.50000000E-01  8.50000000E-01  8.50000000E-01
  8.50000000E-01  8.50000000E-01  8.50000000E-01  8.50000000E-01  8.50000000E-01
  8.50000000E-01  8.50000000E-01  8.50000000E-01  8.50000000E-01  8.50000000E-01
  8.50000000E-01  8.50000000E-01  8.50000000E-01  8.50000000E-01  8.50000000E-01
  8.50000000E-01  8.50000000E-01  8.50000000E-01  8.50000000E-01  8.50000000E-01
  8.50000000E-01  8.50000000E-01  8.50000000E-01  8.50000000E-01  8.50000000E-01
  8.50000000E-01  8.50000000E-01  8.50000000E-01  8.50000000E-01  8.50000000E-01
  8.50000000E-01  8.50000000E-01  8.50000000E-01  8.50000000E-01  8.50000000E-01
  8.50000000E-01  8.50000000E-01  8.50000000E-01  8.50000000E-01  8.50000000E-01
  8.50000000E-01  8.50000000E-01  8.50000000E-01  8.50000000E-01  8.50000000E-01
  8.50000000E-01  8.50000000E-01  8.50000000E-01  8.50000000E-01  8.50000000E-01
  8.50000000E-01  8.50000000E-01  8.50000000E-01  8.50000000E-01  8.50000000E-01
  8.50000000E-01  8.50000000E-01  8.50000000E-01  8.50000000E-01  8.50000000E-01
  8.50000000E-01  8.50000000E-01  8.50000000E-01  8.50000000E-01  8.50000000E-01
  8.50000000E-01  8.50000000E-01  8.50000000E-01  8.50000000E-01  8.50000000E-01
  8.50000000E-01  8.50000000E-01  8.50000000E-01  8.50000000E-01  8.50000000E-01
  8.50000000E-01  8.50000000E-01  8.50000000E-01  8.50000000E-01  8.50000000E-01
  8.50000000E-01  8.50000000E-01  8.50000000E-01  8.50000000E-01  8.50000000E-01
  8.50000000E-01  8.50000000E-01  8.50000000E-01  8.50000000E-01  8.50000000E-01
  8.50000000E-01  8.50000000E-01  8.50000000E-01  8.50000000E-01  8.50000000E-01
  8.50000000E-01  8.50000000E-01  8.50000000E-01  8.50000000E-01  8.50000000E-01
  8.50000000E-01  8.50000000E-01  8.50000000E-01  8.50000000E-01  8.50000000E-01
  8.50000000E-01  8.50000000E-01  8.50000000E-01  8.50000000E-01  8.50000000E-01
  8.50000000E-01  8.50000000E-01  8.50000000E-01  8.50000000E-01  8.50000000E-01
  8.50000000E-01  8.50000000E-01  8.50000000E-01  8.50000000E-01  8.50000000E-01
  8.50000000E-01  8.50000000E-01  8.50000000E-01  8.50000000E-01  8.50000000E-01
  8.50000000E-01  8.50000000E-01  8.50000000E-01  8.50000000E-01  8.50000000E-01
  8.50000000E-01  8.50000000E-01  8.50000000E-01  8.50000000E-01  8.50000000E-01
  8.50000000E-01  8.50000000E-01  8.50000000E-01  8.50000000E-01  8.50000000E-01
  8.50000000E-01  8.50000000E-01  8.50000000E-01  8.50000000E-01  8.50000000E-01
  8.50000000E-01  8.50000000E-01  8.50000000E-01  8.50000000E-01  8.50000000E-01
  8.50000000E-01  8.50000000E-01  8.50000000E-01  8.50000000E-01  8.50000000E-01
  8.50000000E-01  8.50000000E-01  8.50000000E-01  8.50000000E-01  8.50000000E-01
  8.50000000E-01  8.50000000E-01  8.50000000E-01  8.50000000E-01  8.50000000E-01
  8.50000000E-01  8.50000000E-01  8.50000000E-01  8.50000000E-01  8.50000000E-01
  8.50000000E-01  8.50000000E-01  8.50000000E-01  8.50000000E-01  8.50000000E-01
  8.50000000E-01  8.50000000E-01  8.50000000E-01  8.50000000E-01  8.50000000E-01
  8.50000000E-01  8.50000000E-01  8.50000000E-01  8.50000000E-01  8.50000000E-01
  8.50000000E-01  8.50000000E-01  8.50000000E-01  8.50000000E-01  8.50000000E-01
  8.50000000E-01  8.50000000E-01  8.50000000E-01  8.50000000E-01  8.50000000E-01
  8.50000000E-01  8.50000000E-01  8.50000000E-01  8.50000000E-01  8.50000000E-01
  8.50000000E-01  8.50000000E-01  8.50000000E-01  8.50000000E-01  8.50000000E-01
  8.50000000E-01  8.50000000E-01  8.50000000E-01  8.50000000E-01  8.50000000E-01
  8.50000000E-01  8.50000000E-01  8.50000000E-01  8.50000000E-01  8.50000000E-01
  8.50000000E-01  8.50000000E-01  8.50000000E-01  8.50000000E-01  8.50000000E-01
  8.50000000E-01  8.50000000E-01  8.50000000E-01  8.50000000E-01  8.50000000E-01
  8.50000000E-01  8.50000000E-01  8.50000000E-01  8.50000000E-01  8.50000000E-01
  8.50000000E-01  8.50000000E-01  8.50000000E-01  8.50000000E-01  8.50000000E-01
  8.50000000E-01  8.50000000E-01  8.50000000E-01  8.50000000E-01  8.50000000E-01
  8.50000000E-01  8.50000000E-01  8.50000000E-01  8.50000000E-01  8.50000000E-01
  8.50000000E-01  8.50000000E-01  8.50000000E-01  8.50000000E-01  8.50000000E-01
  8.50000000E-01  8.50000000E-01  8.50000000E-01  8.50000000E-01  8.50000000E-01
  8.50000000E-01  8.50000000E-01  8.50000000E-01  8.50000000E-01  8.50000000E-01
  8.50000000E-01  8.50000000E-01  8.50000000E-01  8.50000000E-01  8.50000000E-01
  8.50000000E-01  8.50000000E-01  8.50000000E-01  8.50000000E-01  8.50000000E-01
  8.50000000E-01  8.50000000E-01  8.50000000E-01  8.50000000E-01  8.50000000E-01
  8.50000000E-01  8.50000000E-01  8.50000000E-01  8.50000000E-01  8.50000000E-01
  8.50000000E-01  8.50000000E-01  8.50000000E-01  8.50000000E-01  8.50000000E-01
  8.50000000E-01  8.50000000E-01  8.50000000E-01  8.50000000E-01  8.50000000E-01
  8.50000000E-01  8.50000000E-01  8.50000000E-01  8.50000000E-01  8.50000000E-01
  8.50000000E-01  8.50000000E-01  8.50000000E-01  8.50000000E-01  8.50000000E-01
  8.50000000E-01  8.50000000E-01  8.50000000E-01  8.50000000E-01  8.50000000E-01
  8.50000000E-01  8.50000000E-01  8.50000000E-01  8.50000000E-01  8.50000000E-01
  8.50000000E-01  8.50000000E-01  8.50000000E-01  8.50000000E-01  8.50000000E-01
  8.50000000E-01  8.50000000E-01  8.50000000E-01  8.50000000E-01  8.50000000E-01
  8.50000000E-01  8.50000000E-01  8.50000000E-01  8.50000000E-01  8.50000000E-01
  8.50000000E-01  8.50000000E-01  8.50000000E-01  8.50000000E-01  8.50000000E-01
  8.50000000E-01  8.50000000E-01  8.50000000E-01  8.50000000E-01  8.50000000E-01
  8.50000000E-01  8.50000000E-01  8.50000000E-01  8.50000000E-01  8.50000000E-01
  8.50000000E-01  8.50000000E-01  8.50000000E-01  8.50000000E-01  8.50000000E-01
  8.50000000E-01  8.50000000E-01  8.50000000E-01  8.50000000E-01  8.50000000E-01
  8.50000000E-01  8.50000000E-01  8.50000000E-01  8.50000000E-01  8.50000000E-01
  8.50000000E-01  8.50000000E-01  8.50000000E-01  8.50000000E-01  8.50000000E-01
  8.50000000E-01  8.50000000E-01  8.50000000E-01  8.50000000E-01  8.50000000E-01
  8.50000000E-01  8.50000000E-01  8.50000000E-01  8.50000000E-01  8.50000000E-01
  8.50000000E-01  8.50000000E-01  8.50000000E-01  8.50000000E-01  8.50000000E-01
  8.50000000E-01  8.50000000E-01  8.50000000E-01  8.50000000E-01  8.50000000E-01
  8.50000000E-01  8.50000000E-01  8.50000000E-01  8.50000000E-01  8.50000000E-01
  8.50000000E-01  8.50000000E-01  8.50000000E-01  8.50000000E-01  8.50000000E-01
  8.50000000E-01  8.50000000E-01  8.50000000E-01  8.50000000E-01  8.50000000E-01
  8.50000000E-01  8.50000000E-01  8.50000000E-01  8.50000000E-01  8.50000000E-01
  8.50000000E-01  8.50000000E-01  8.50000000E-01  8.50000000E-01  8.50000000E-01
  8.50000000E-01  8.50000000E-01  8.50000000E-01  8.50000000E-01  8.50000000E-01
  8.50000000E-01  8.50000000E-01  8.50000000E-01  8.50000000E-01  8.50000000E-01
  8.50000000E-01  8.50000000E-01  8.50000000E-01  8.50000000E-01  8.50000000E-01
  8.50000000E-01  8.50000000E-01  8.50000000E-01  8.50000000E-01  8.50000000E-01
  8.50000000E-01  8.50000000E-01  8.50000000E-01  8.50000000E-01  8.50000000E-01
  8.50000000E-01  8.50000000E-01  8.50000000E-01  8.50000000E-01  8.50000000E-01
  8.50000000E-01  8.50000000E-01  8.50000000E-01  8.50000000E-01  8.50000000E-01
  8.50000000E-01  8.50000000E-01  8.50000000E-01  8.50000000E-01  8.50000000E-01
  8.50000000E-01  8.50000000E-01  8.50000000E-01  8.50000000E-01  8.50000000E-01
  8.50000000E-01  8.50000000E-01  8.50000000E-01  8.50000000E-01  8.50000000E-01
  8.50000000E-01  8.50000000E-01  8.50000000E-01  8.50000000E-01  8.50000000E-01
  8.50000000E-01  8.50000000E-01  8.50000000E-01  8.50000000E-01  8.50000000E-01
  8.50000000E-01  8.50000000E-01  8.50000000E-01  8.50000000E-01  8.50000000E-01
  8.50000000E-01  8.50000000E-01  8.50000000E-01  8.50000000E-01  8.50000000E-01
  8.50000000E-01  8.50000000E-01  8.50000000E-01  8.50000000E-01  8.50000000E-01
  8.50000000E-01  8.50000000E-01  8.50000000E-01  8.50000000E-01  8.50000000E-01
  8.50000000E-01  8.50000000E-01  8.50000000E-01  8.50000000E-01  8.50000000E-01
  8.50000000E-01  8.50000000E-01  8.50000000E-01  8.50000000E-01  8.50000000E-01
  8.50000000E-01  8.50000000E-01  8.50000000E-01  8.50000000E-01  8.50000000E-01
  8.50000000E-01  8.50000000E-01  8.50000000E-01  8.50000000E-01  8.50000000E-01
  8.50000000E-01  8.50000000E-01  8.50000000E-01  8.50000000E-01  8.50000000E-01
  8.50000000E-01  8.50000000E-01  8.50000000E-01  8.50000000E-01  8.50000000E-01
  8.50000000E-01  8.50000000E-01  8.50000000E-01  8.50000000E-01  8.50000000E-01
  8.50000000E-01  8.50000000E-01  8.50000000E-01  8.50000000E-01  8.50000000E-01
  8.50000000E-01  8.50000000E-01  8.50000000E-01  8.50000000E-01  8.50000000E-01
  8.50000000E-01  8.50000000E-01  8.50000000E-01  8.50000000E-01  8.50000000E-01
  8.50000000E-01  8.50000000E-01  8.50000000E-01  8.50000000E-01  8.50000000E-01
  8.50000000E-01  8.50000000E-01  8.50000000E-01  8.50000000E-01  8.50000000E-01
  8.50000000E-01  8.50000000E-01  8.50000000E-01  8.50000000E-01  8.50000000E-01
  8.50000000E-01  8.50000000E-01  8.50000000E-01  8.50000000E-01  8.50000000E-01
  8.50000000E-01  8.50000000E-01  8.50000000E-01  8.50000000E-01  8.50000000E-01
  8.50000000E-01  8.50000000E-01  8.50000000E-01  8.50000000E-01  8.50000000E-01
  8.50000000E-01  8.50000000E-01  8.50000000E-01  8.50000000E-01  8.50000000E-01
  8.50000000E-01  8.50000000E-01  8.50000000E-01  8.50000000E-01  8.50000000E-01
  8.50000000E-01  8.50000000E-01  8.50000000E-01  8.50000000E-01  8.50000000E-01
  8.50000000E-01  8.50000000E-01  8.50000000E-01  8.50000000E-01  8.50000000E-01
  8.50000000E-01  8.50000000E-01  8.50000000E-01  8.50000000E-01  8.50000000E-01
  8.50000000E-01  8.50000000E-01  8.50000000E-01  8.50000000E-01  8.50000000E-01
  8.50000000E-01  8.50000000E-01  8.50000000E-01  8.50000000E-01  8.50000000E-01
  8.50000000E-01  8.50000000E-01  8.50000000E-01  8.50000000E-01  8.50000000E-01
  8.50000000E-01  8.50000000E-01  8.50000000E-01  8.50000000E-01  8.50000000E-01
  8.50000000E-01  8.50000000E-01  8.50000000E-01  8.50000000E-01  8.50000000E-01
  8.50000000E-01  8.50000000E-01  8.50000000E-01  8.50000000E-01  8.50000000E-01
  8.50000000E-01  8.50000000E-01  8.50000000E-01  8.50000000E-01  8.50000000E-01
  8.50000000E-01  8.50000000E-01  8.50000000E-01  8.50000000E-01  8.50000000E-01
  8.50000000E-01  8.50000000E-01  8.50000000E-01  8.50000000E-01  8.50000000E-01
  8.50000000E-01  8.50000000E-01  8.50000000E-01  8.50000000E-01  8.50000000E-01
  8.50000000E-01  8.50000000E-01  8.50000000E-01  8.50000000E-01  8.50000000E-01
  8.50000000E-01  8.50000000E-01  8.50000000E-01  8.50000000E-01  8.50000000E-01
  8.50000000E-01  8.50000000E-01  8.50000000E-01  8.50000000E-01  8.50000000E-01
  8.50000000E-01  8.50000000E-01  8.50000000E-01  8.50000000E-01  8.50000000E-01
  8.50000000E-01  8.50000000E-01  8.50000000E-01  8.50000000E-01  8.50000000E-01
  8.50000000E-01  8.50000000E-01  8.50000000E-01  8.50000000E-01  8.50000000E-01
  8.50000000E-01  8.50000000E-01  8.50000000E-01  8.50000000E-01  8.50000000E-01
  8.50000000E-01  8.50000000E-01  8.50000000E-01  8.50000000E-01  8.50000000E-01
  8.50000000E-01  8.50000000E-01  8.50000000E-01  8.50000000E-01  8.50000000E-01
  8.50000000E-01  8.50000000E-01  8.50000000E-01  8.50000000E-01  8.50000000E-01
  8.50000000E-01  8.50000000E-01  8.50000000E-01  8.50000000E-01  8.50000000E-01
  8.50000000E-01  8.50000000E-01  8.50000000E-01  8.50000000E-01  8.50000000E-01
  8.50000000E-01  8.50000000E-01  8.50000000E-01  8.50000000E-01  8.50000000E-01
  8.50000000E-01  8.50000000E-01  8.50000000E-01  8.50000000E-01  8.50000000E-01
  8.50000000E-01  8.50000000E-01  8.50000000E-01  8.50000000E-01  8.50000000E-01
  8.50000000E-01  8.50000000E-01  8.50000000E-01  8.50000000E-01  8.50000000E-01
  8.50000000E-01  8.50000000E-01  8.50000000E-01  8.50000000E-01  8.50000000E-01
  8.50000000E-01  8.50000000E-01  8.50000000E-01  8.50000000E-01  8.50000000E-01
  8.50000000E-01  8.50000000E-01  8.50000000E-01  8.50000000E-01  8.50000000E-01
  8.50000000E-01  8.50000000E-01  8.50000000E-01  8.50000000E-01  8.50000000E-01
  8.50000000E-01  8.50000000E-01  8.50000000E-01  8.50000000E-01  8.50000000E-01
  8.50000000E-01  8.50000000E-01  8.50000000E-01  8.50000000E-01  8.50000000E-01
  8.50000000E-01  8.50000000E-01  8.50000000E-01  8.50000000E-01  8.50000000E-01
  8.50000000E-01  8.50000000E-01  8.50000000E-01  8.50000000E-01  8.50000000E-01
  8.50000000E-01  8.50000000E-01  8.50000000E-01  8.50000000E-01  8.50000000E-01
  8.50000000E-01  8.50000000E-01  8.50000000E-01  8.50000000E-01  8.50000000E-01
  8.50000000E-01  8.50000000E-01  8.50000000E-01  8.50000000E-01  8.50000000E-01
  8.50000000E-01  8.50000000E-01  8.50000000E-01  8.50000000E-01  8.50000000E-01
  8.50000000E-01  8.50000000E-01  8.50000000E-01  8.50000000E-01  8.50000000E-01
  8.50000000E-01  8.50000000E-01  8.50000000E-01  8.50000000E-01  8.50000000E-01
  8.50000000E-01  8.50000000E-01  8.50000000E-01  8.50000000E-01  8.50000000E-01
  8.50000000E-01  8.50000000E-01  8.50000000E-01  8.50000000E-01  8.50000000E-01
  8.50000000E-01  8.50000000E-01  8.50000000E-01  8.50000000E-01  8.50000000E-01
  8.50000000E-01  8.50000000E-01  8.50000000E-01  8.50000000E-01  8.50000000E-01
  8.50000000E-01  8.50000000E-01  8.50000000E-01  8.50000000E-01  8.50000000E-01
  8.50000000E-01  8.50000000E-01  8.50000000E-01  8.50000000E-01  8.50000000E-01
  8.50000000E-01  8.50000000E-01  8.50000000E-01  8.50000000E-01  8.50000000E-01
  8.50000000E-01  8.50000000E-01  8.50000000E-01  8.50000000E-01  8.50000000E-01
  8.50000000E-01  8.50000000E-01  8.50000000E-01  8.50000000E-01  8.50000000E-01
  8.50000000E-01  8.50000000E-01  8.50000000E-01  8.50000000E-01  8.50000000E-01
  8.50000000E-01  8.50000000E-01  8.50000000E-01  8.50000000E-01  8.50000000E-01
  8.50000000E-01  8.50000000E-01  8.50000000E-01  8.50000000E-01  8.50000000E-01
  8.50000000E-01  8.50000000E-01  8.50000000E-01  8.50000000E-01  8.50000000E-01
  8.50000000E-01  8.50000000E-01  8.50000000E-01  8.50000000E-01  8.50000000E-01
  8.50000000E-01  8.50000000E-01  8.50000000E-01  8.50000000E-01  8.50000000E-01
  8.50000000E-01  8.50000000E-01  8.50000000E-01  8.50000000E-01  8.50000000E-01
  8.50000000E-01  8.50000000E-01  8.50000000E-01  8.50000000E-01  8.50000000E-01
  8.50000000E-01  8.50000000E-01  8.50000000E-01  8.50000000E-01  8.50000000E-01
  8.50000000E-01  8.50000000E-01  8.50000000E-01  8.50000000E-01  8.50000000E-01
  8.50000000E-01  8.50000000E-01  8.50000000E-01  8.50000000E-01  8.50000000E-01
  8.50000000E-01  8.50000000E-01  8.50000000E-01  8.50000000E-01  8.50000000E-01
  8.50000000E-01  8.50000000E-01  8.50000000E-01  8.50000000E-01  8.50000000E-01
  8.50000000E-01  8.50000000E-01  8.50000000E-01  8.50000000E-01  8.50000000E-01
  8.50000000E-01  8.50000000E-01  8.50000000E-01  8.50000000E-01  8.50000000E-01
  8.50000000E-01  8.50000000E-01  8.50000000E-01  8.50000000E-01  8.50000000E-01
  8.50000000E-01  8.50000000E-01  8.50000000E-01  8.50000000E-01  8.50000000E-01
  8.50000000E-01  8.50000000E-01  8.50000000E-01  8.50000000E-01  8.50000000E-01
  8.50000000E-01  8.50000000E-01  8.50000000E-01  8.50000000E-01  8.50000000E-01
  8.50000000E-01  8.50000000E-01  8.50000000E-01  8.50000000E-01  8.50000000E-01
  8.50000000E-01  8.50000000E-01  8.50000000E-01  8.50000000E-01  8.50000000E-01
  8.50000000E-01  8.50000000E-01  8.50000000E-01  8.50000000E-01  8.50000000E-01
  8.50000000E-01  8.50000000E-01  8.50000000E-01  8.50000000E-01  8.50000000E-01
  8.50000000E-01  8.50000000E-01  8.50000000E-01  8.50000000E-01  8.50000000E-01
  8.50000000E-01  8.50000000E-01  8.50000000E-01  8.50000000E-01  8.50000000E-01
  8.50000000E-01  8.50000000E-01  8.50000000E-01  8.50000000E-01  8.50000000E-01
  8.50000000E-01  8.50000000E-01  8.50000000E-01  8.50000000E-01  8.50000000E-01
  8.50000000E-01  8.50000000E-01  8.50000000E-01  8.50000000E-01  8.50000000E-01
  8.50000000E-01  8.50000000E-01  8.50000000E-01  8.50000000E-01  8.50000000E-01
  8.50000000E-01  8.50000000E-01  8.50000000E-01  8.50000000E-01  8.50000000E-01
  8.50000000E-01  8.50000000E-01  8.50000000E-01  8.50000000E-01  8.50000000E-01
  8.50000000E-01  8.50000000E-01  8.50000000E-01  8.50000000E-01  8.50000000E-01
  8.50000000E-01  8.50000000E-01  8.50000000E-01  8.50000000E-01  8.50000000E-01
  8.50000000E-01  8.50000000E-01  8.50000000E-01  8.50000000E-01  8.50000000E-01
  8.50000000E-01  8.50000000E-01  8.50000000E-01  8.50000000E-01  8.50000000E-01
  8.50000000E-01  8.50000000E-01  8.50000000E-01  8.50000000E-01  8.50000000E-01
  8.50000000E-01  8.50000000E-01  8.50000000E-01  8.50000000E-01  8.50000000E-01
  8.50000000E-01  8.50000000E-01  8.50000000E-01  8.50000000E-01  8.50000000E-01
  8.50000000E-01  8.50000000E-01  8.50000000E-01  8.50000000E-01  8.50000000E-01
  8.50000000E-01  8.50000000E-01  8.50000000E-01  8.50000000E-01  8.50000000E-01
  8.50000000E-01  8.50000000E-01  8.50000000E-01  8.50000000E-01  8.50000000E-01
  8.50000000E-01  8.50000000E-01  8.50000000E-01  8.50000000E-01  8.50000000E-01
  8.50000000E-01  8.50000000E-01  8.50000000E-01  8.50000000E-01  8.50000000E-01
  8.50000000E-01  8.50000000E-01  8.50000000E-01  8.50000000E-01  8.50000000E-01
  8.50000000E-01  8.50000000E-01  8.50000000E-01  8.50000000E-01  8.50000000E-01
  8.50000000E-01  8.50000000E-01  8.50000000E-01  8.50000000E-01  8.50000000E-01
  8.50000000E-01  8.50000000E-01  8.50000000E-01  8.50000000E-01  8.50000000E-01
  8.50000000E-01  8.50000000E-01  8.50000000E-01  8.50000000E-01  8.50000000E-01
  8.50000000E-01  8.50000000E-01  8.50000000E-01  8.50000000E-01  8.50000000E-01
  8.50000000E-01  8.50000000E-01  8.50000000E-01  8.50000000E-01  8.50000000E-01
  8.50000000E-01  8.50000000E-01  8.50000000E-01  8.50000000E-01  8.50000000E-01
  8.50000000E-01  8.50000000E-01  8.50000000E-01  8.50000000E-01  8.50000000E-01
  8.50000000E-01  8.50000000E-01  8.50000000E-01  8.50000000E-01  8.50000000E-01
  8.50000000E-01  8.50000000E-01  8.50000000E-01  8.50000000E-01  8.50000000E-01
  8.50000000E-01  8.50000000E-01  8.50000000E-01  8.50000000E-01  8.50000000E-01
  8.50000000E-01  8.50000000E-01  8.50000000E-01  8.50000000E-01  8.50000000E-01
  8.50000000E-01  8.50000000E-01  8.50000000E-01  8.50000000E-01  8.50000000E-01
  8.50000000E-01  8.50000000E-01  8.50000000E-01  8.50000000E-01  8.50000000E-01
  8.50000000E-01  8.50000000E-01  8.50000000E-01  8.50000000E-01  8.50000000E-01
  8.50000000E-01  8.50000000E-01  8.50000000E-01  8.50000000E-01  8.50000000E-01
  8.50000000E-01  8.50000000E-01  8.50000000E-01  8.50000000E-01  8.50000000E-01
  8.50000000E-01  8.50000000E-01  8.50000000E-01  8.50000000E-01  8.50000000E-01
  8.50000000E-01  8.50000000E-01  8.50000000E-01  8.50000000E-01  8.50000000E-01
  8.50000000E-01  8.50000000E-01  8.50000000E-01  8.50000000E-01  8.50000000E-01
  8.50000000E-01  8.50000000E-01  8.50000000E-01  8.50000000E-01  8.50000000E-01
  8.50000000E-01  8.50000000E-01  8.50000000E-01  8.50000000E-01  8.50000000E-01
  8.50000000E-01  8.50000000E-01  8.50000000E-01  8.50000000E-01  8.50000000E-01
  8.50000000E-01  8.50000000E-01  8.50000000E-01  8.50000000E-01  8.50000000E-01
  8.50000000E-01  8.50000000E-01  8.50000000E-01  8.50000000E-01  8.50000000E-01
  8.50000000E-01  8.50000000E-01  8.50000000E-01  8.50000000E-01  8.50000000E-01
  8.50000000E-01  8.50000000E-01  8.50000000E-01  8.50000000E-01  8.50000000E-01
  8.50000000E-01  8.50000000E-01  8.50000000E-01  8.50000000E-01  8.50000000E-01
  8.50000000E-01  8.50000000E-01  8.50000000E-01  8.50000000E-01  8.50000000E-01
  8.50000000E-01  8.50000000E-01  8.50000000E-01  8.50000000E-01  8.50000000E-01
  8.50000000E-01  8.50000000E-01  8.50000000E-01  8.50000000E-01  8.50000000E-01
  8.50000000E-01  8.50000000E-01  8.50000000E-01  8.50000000E-01  8.50000000E-01
  8.50000000E-01  8.50000000E-01  8.50000000E-01  8.50000000E-01  8.50000000E-01
  8.50000000E-01  8.50000000E-01  8.50000000E-01  8.50000000E-01  8.50000000E-01
  8.50000000E-01  8.50000000E-01  8.50000000E-01  8.50000000E-01  8.50000000E-01
  8.50000000E-01  8.50000000E-01  8.50000000E-01  8.50000000E-01  8.50000000E-01
  8.50000000E-01  8.50000000E-01  8.50000000E-01  8.50000000E-01  8.50000000E-01
  8.50000000E-01  8.50000000E-01  8.50000000E-01  8.50000000E-01  8.50000000E-01
  8.50000000E-01  8.50000000E-01  8.50000000E-01  8.50000000E-01  8.50000000E-01
  8.50000000E-01  8.50000000E-01  8.50000000E-01  8.50000000E-01  8.50000000E-01
  8.50000000E-01  8.50000000E-01  8.50000000E-01  8.50000000E-01  8.50000000E-01
  8.50000000E-01  8.50000000E-01  8.50000000E-01  8.50000000E-01  8.50000000E-01
  8.50000000E-01  8.50000000E-01  8.50000000E-01  8.50000000E-01  8.50000000E-01
  8.50000000E-01  8.50000000E-01  8.50000000E-01  8.50000000E-01  8.50000000E-01
  8.50000000E-01  8.50000000E-01  8.50000000E-01  8.50000000E-01  8.50000000E-01
  8.50000000E-01  8.50000000E-01  8.50000000E-01  8.50000000E-01  8.50000000E-01
  8.50000000E-01  8.50000000E-01  8.50000000E-01  8.50000000E-01  8.50000000E-01
  8.50000000E-01  8.50000000E-01  8.50000000E-01  8.50000000E-01  8.50000000E-01
  8.50000000E-01  8.50000000E-01  8.50000000E-01  8.50000000E-01  8.50000000E-01
  8.50000000E-01  8.50000000E-01  8.50000000E-01  8.50000000E-01  8.50000000E-01
  8.50000000E-01  8.50000000E-01  8.50000000E-01  8.50000000E-01  8.50000000E-01
  8.50000000E-01  8.50000000E-01  8.50000000E-01  8.50000000E-01  8.50000000E-01
  8.50000000E-01  8.50000000E-01  8.50000000E-01  8.50000000E-01  8.50000000E-01
  8.50000000E-01  8.50000000E-01  8.50000000E-01  8.50000000E-01  8.50000000E-01
  8.50000000E-01  8.50000000E-01  8.50000000E-01  8.50000000E-01  8.50000000E-01
  8.50000000E-01  8.50000000E-01  8.50000000E-01  8.50000000E-01  8.50000000E-01
  8.50000000E-01  8.50000000E-01  8.50000000E-01  8.50000000E-01  8.50000000E-01
  8.50000000E-01  8.50000000E-01  8.50000000E-01  8.50000000E-01  8.50000000E-01
  8.50000000E-01  8.50000000E-01  8.50000000E-01  8.50000000E-01  8.50000000E-01
  8.50000000E-01  8.50000000E-01  8.50000000E-01  8.50000000E-01  8.50000000E-01
  8.50000000E-01  8.50000000E-01  8.50000000E-01  8.50000000E-01  8.50000000E-01
  8.50000000E-01  8.50000000E-01  8.50000000E-01  8.50000000E-01  8.50000000E-01
  8.50000000E-01  8.50000000E-01  8.50000000E-01  8.50000000E-01  8.50000000E-01
  8.50000000E-01  8.50000000E-01  8.50000000E-01  8.50000000E-01  8.50000000E-01
  8.50000000E-01  8.50000000E-01  8.50000000E-01  8.50000000E-01  8.50000000E-01
  8.50000000E-01  8.50000000E-01  8.50000000E-01  8.50000000E-01  8.50000000E-01
  8.50000000E-01  8.50000000E-01  8.50000000E-01  8.50000000E-01  8.50000000E-01
  8.50000000E-01  8.50000000E-01  8.50000000E-01  8.50000000E-01  8.50000000E-01
  8.50000000E-01  8.50000000E-01  8.50000000E-01  8.50000000E-01  8.50000000E-01
  8.50000000E-01  8.50000000E-01  8.50000000E-01  8.50000000E-01  8.50000000E-01
  8.50000000E-01  8.50000000E-01  8.50000000E-01  8.50000000E-01  8.50000000E-01
  8.50000000E-01  8.50000000E-01  8.50000000E-01  8.50000000E-01  8.50000000E-01
  8.50000000E-01  8.50000000E-01  8.50000000E-01  8.50000000E-01  8.50000000E-01
  8.50000000E-01  8.50000000E-01  8.50000000E-01  8.50000000E-01  8.50000000E-01
  8.50000000E-01  8.50000000E-01  8.50000000E-01  8.50000000E-01  8.50000000E-01
  8.50000000E-01  8.50000000E-01  8.50000000E-01  8.50000000E-01  8.50000000E-01
  8.50000000E-01  8.50000000E-01  8.50000000E-01  8.50000000E-01  8.50000000E-01
  8.50000000E-01  8.50000000E-01  8.50000000E-01  8.50000000E-01  8.50000000E-01
  8.50000000E-01  8.50000000E-01  8.50000000E-01  8.50000000E-01  8.50000000E-01
  8.50000000E-01  8.50000000E-01  8.50000000E-01  8.50000000E-01  8.50000000E-01
  8.50000000E-01  8.50000000E-01  8.50000000E-01  8.50000000E-01  8.50000000E-01
  8.50000000E-01  8.50000000E-01  8.50000000E-01  8.50000000E-01  8.50000000E-01
  8.50000000E-01  8.50000000E-01  8.50000000E-01  8.50000000E-01  8.50000000E-01
  8.50000000E-01  8.50000000E-01  8.50000000E-01  8.50000000E-01  8.50000000E-01
  8.50000000E-01  8.50000000E-01  8.50000000E-01  8.50000000E-01  8.50000000E-01
  8.50000000E-01  8.50000000E-01  8.50000000E-01  8.50000000E-01  8.50000000E-01
  8.50000000E-01  8.50000000E-01  8.50000000E-01  8.50000000E-01  8.50000000E-01
  8.50000000E-01  8.50000000E-01  8.50000000E-01  8.50000000E-01  8.50000000E-01
  8.50000000E-01  8.50000000E-01  8.50000000E-01  8.50000000E-01  8.50000000E-01
  8.50000000E-01  8.50000000E-01  8.50000000E-01  8.50000000E-01  8.50000000E-01
  8.50000000E-01  8.50000000E-01  8.50000000E-01  8.50000000E-01  8.50000000E-01
  8.50000000E-01  8.50000000E-01  8.50000000E-01  8.50000000E-01  8.50000000E-01
  8.50000000E-01  8.50000000E-01  8.50000000E-01  8.50000000E-01  8.50000000E-01
  8.50000000E-01  8.50000000E-01  8.50000000E-01  8.50000000E-01  8.50000000E-01
  8.50000000E-01  8.50000000E-01  8.50000000E-01  8.50000000E-01  8.50000000E-01
  8.50000000E-01  8.50000000E-01  8.50000000E-01  8.50000000E-01  8.50000000E-01
  8.50000000E-01  8.50000000E-01  8.50000000E-01  8.50000000E-01  8.50000000E-01
  8.50000000E-01  8.50000000E-01  8.50000000E-01  8.50000000E-01  8.50000000E-01
  8.50000000E-01  8.50000000E-01  8.50000000E-01  8.50000000E-01  8.50000000E-01
  8.50000000E-01  8.50000000E-01  8.50000000E-01  8.50000000E-01  8.50000000E-01
  8.50000000E-01  8.50000000E-01  8.50000000E-01  8.50000000E-01  8.50000000E-01
  8.50000000E-01  8.50000000E-01  8.50000000E-01  8.50000000E-01  8.50000000E-01
  8.50000000E-01  8.50000000E-01  8.50000000E-01  8.50000000E-01  8.50000000E-01
  8.50000000E-01  8.50000000E-01  8.50000000E-01  8.50000000E-01  8.50000000E-01
  8.50000000E-01  8.50000000E-01  8.50000000E-01  8.50000000E-01  8.50000000E-01
  8.50000000E-01  8.50000000E-01  8.50000000E-01  8.50000000E-01  8.50000000E-01
  8.50000000E-01  8.50000000E-01  8.50000000E-01  8.50000000E-01  8.50000000E-01
  8.50000000E-01  8.50000000E-01  8.50000000E-01  8.50000000E-01  8.50000000E-01
  8.50000000E-01  8.50000000E-01  8.50000000E-01  8.50000000E-01  8.50000000E-01
  8.50000000E-01  8.50000000E-01  8.50000000E-01  8.50000000E-01  8.50000000E-01
  8.50000000E-01  8.50000000E-01  8.50000000E-01  8.50000000E-01  8.50000000E-01
  8.50000000E-01  8.50000000E-01  8.50000000E-01  8.50000000E-01  8.50000000E-01
  8.50000000E-01  8.50000000E-01  8.50000000E-01  8.50000000E-01  8.50000000E-01
  8.50000000E-01  8.50000000E-01  8.50000000E-01  8.50000000E-01  8.50000000E-01
  8.50000000E-01  8.50000000E-01  8.50000000E-01  8.50000000E-01  8.50000000E-01
  8.50000000E-01  8.50000000E-01  8.50000000E-01  8.50000000E-01  8.50000000E-01
  8.50000000E-01  8.50000000E-01  8.50000000E-01  8.50000000E-01  8.50000000E-01
  8.50000000E-01  8.50000000E-01  8.50000000E-01  8.50000000E-01  8.50000000E-01
  8.50000000E-01  8.50000000E-01  8.50000000E-01  8.50000000E-01  8.50000000E-01
  8.50000000E-01  8.50000000E-01  8.50000000E-01  8.50000000E-01  8.50000000E-01
  8.50000000E-01  8.50000000E-01  8.50000000E-01  8.50000000E-01  8.50000000E-01
  8.50000000E-01  8.50000000E-01  8.50000000E-01  8.50000000E-01  8.50000000E-01
  8.50000000E-01  8.50000000E-01  8.50000000E-01  8.50000000E-01  8.50000000E-01
  8.50000000E-01  8.50000000E-01  8.50000000E-01  8.50000000E-01  8.50000000E-01
  8.50000000E-01  8.50000000E-01  8.50000000E-01  8.50000000E-01  8.50000000E-01
  8.50000000E-01  8.50000000E-01  8.50000000E-01  8.50000000E-01  8.50000000E-01
  8.50000000E-01  8.50000000E-01  8.50000000E-01  8.50000000E-01  8.50000000E-01
  8.50000000E-01  8.50000000E-01  8.50000000E-01  8.50000000E-01  8.50000000E-01
  8.50000000E-01  8.50000000E-01  8.50000000E-01  8.50000000E-01  8.50000000E-01
  8.50000000E-01  8.50000000E-01  8.50000000E-01  8.50000000E-01  8.50000000E-01
  8.50000000E-01  8.50000000E-01  8.50000000E-01  8.50000000E-01  8.50000000E-01
  8.50000000E-01  8.50000000E-01  8.50000000E-01  8.50000000E-01  8.50000000E-01
  8.50000000E-01  8.50000000E-01  8.50000000E-01  8.50000000E-01  8.50000000E-01
  8.50000000E-01  8.50000000E-01  8.50000000E-01  8.50000000E-01  8.50000000E-01
  8.50000000E-01  8.50000000E-01  8.50000000E-01  8.50000000E-01  8.50000000E-01
  8.50000000E-01  8.50000000E-01  8.50000000E-01  8.50000000E-01  8.50000000E-01
  8.50000000E-01  8.50000000E-01  8.50000000E-01  8.50000000E-01  8.50000000E-01
  8.50000000E-01  8.50000000E-01  8.50000000E-01  8.50000000E-01  8.50000000E-01
  8.50000000E-01  8.50000000E-01  8.50000000E-01  8.50000000E-01  8.50000000E-01
  8.50000000E-01  8.50000000E-01  8.50000000E-01  8.50000000E-01  8.50000000E-01
  8.50000000E-01  8.50000000E-01  8.50000000E-01  8.50000000E-01  8.50000000E-01
  8.50000000E-01  8.50000000E-01  8.50000000E-01  8.50000000E-01  8.50000000E-01
  8.50000000E-01  8.50000000E-01  8.50000000E-01  8.50000000E-01  8.50000000E-01
  8.50000000E-01  8.50000000E-01  8.50000000E-01  8.50000000E-01  8.50000000E-01
  8.50000000E-01  8.50000000E-01  8.50000000E-01  8.50000000E-01  8.50000000E-01
  8.50000000E-01  8.50000000E-01  8.50000000E-01  8.50000000E-01  8.50000000E-01
  8.50000000E-01  8.50000000E-01  8.50000000E-01  8.50000000E-01  8.50000000E-01
  8.50000000E-01  8.50000000E-01  8.50000000E-01  8.50000000E-01  8.50000000E-01
  8.50000000E-01  8.50000000E-01  8.50000000E-01  8.50000000E-01  8.50000000E-01
  8.50000000E-01  8.50000000E-01  8.50000000E-01  8.50000000E-01  8.50000000E-01
  8.50000000E-01  8.50000000E-01  8.50000000E-01  8.50000000E-01  8.50000000E-01
  8.50000000E-01  8.50000000E-01  8.50000000E-01  8.50000000E-01  8.50000000E-01
  8.50000000E-01  8.50000000E-01  8.50000000E-01  8.50000000E-01  8.50000000E-01
  8.50000000E-01  8.50000000E-01  8.50000000E-01  8.50000000E-01  8.50000000E-01
  8.50000000E-01  8.50000000E-01  8.50000000E-01  8.50000000E-01  8.50000000E-01
  8.50000000E-01  8.50000000E-01  8.50000000E-01  8.50000000E-01  8.50000000E-01
  8.50000000E-01  8.50000000E-01  8.50000000E-01  8.50000000E-01  8.50000000E-01
  8.50000000E-01  8.50000000E-01  8.50000000E-01  8.50000000E-01  8.50000000E-01
  8.50000000E-01  8.50000000E-01  8.50000000E-01  8.50000000E-01  8.50000000E-01
  8.50000000E-01  8.50000000E-01  8.50000000E-01  8.50000000E-01  8.50000000E-01
  8.50000000E-01  8.50000000E-01  8.50000000E-01  8.50000000E-01  8.50000000E-01
  8.50000000E-01  8.50000000E-01  8.50000000E-01  8.50000000E-01  8.50000000E-01
  8.50000000E-01  8.50000000E-01  8.50000000E-01  8.50000000E-01  8.50000000E-01
  8.50000000E-01  8.50000000E-01  8.50000000E-01  8.50000000E-01  8.50000000E-01
  8.50000000E-01  8.50000000E-01  8.50000000E-01  8.50000000E-01  8.50000000E-01
  8.50000000E-01  8.50000000E-01  8.50000000E-01  8.50000000E-01  8.50000000E-01
  8.50000000E-01  8.50000000E-01  8.50000000E-01  8.50000000E-01  8.50000000E-01
  8.50000000E-01  8.50000000E-01  8.50000000E-01  8.50000000E-01  8.50000000E-01
  8.50000000E-01  8.50000000E-01  8.50000000E-01  8.50000000E-01  8.50000000E-01
  8.50000000E-01  8.50000000E-01  8.50000000E-01  8.50000000E-01  8.50000000E-01
  8.50000000E-01  8.50000000E-01  8.50000000E-01  8.50000000E-01  8.50000000E-01
  8.50000000E-01  8.50000000E-01  8.50000000E-01  8.50000000E-01  8.50000000E-01
  8.50000000E-01  8.50000000E-01  8.50000000E-01  8.50000000E-01  8.50000000E-01
  8.50000000E-01  8.50000000E-01  8.50000000E-01  8.50000000E-01  8.50000000E-01
  8.50000000E-01  8.50000000E-01  8.50000000E-01  8.50000000E-01  8.50000000E-01
  8.50000000E-01  8.50000000E-01  8.50000000E-01  8.50000000E-01  8.50000000E-01
  8.50000000E-01  8.50000000E-01  8.50000000E-01  8.50000000E-01  8.50000000E-01
  8.50000000E-01  8.50000000E-01  8.50000000E-01  8.50000000E-01  8.50000000E-01
  8.50000000E-01  8.50000000E-01  8.50000000E-01  8.50000000E-01  8.50000000E-01
  8.50000000E-01  8.50000000E-01  8.50000000E-01  8.50000000E-01  8.50000000E-01
  8.50000000E-01  8.50000000E-01  8.50000000E-01  8.50000000E-01  8.50000000E-01
  8.50000000E-01  8.50000000E-01  8.50000000E-01  8.50000000E-01  8.50000000E-01
  8.50000000E-01  8.50000000E-01  8.50000000E-01  8.50000000E-01  8.50000000E-01
  8.50000000E-01  8.50000000E-01  8.50000000E-01  8.50000000E-01  8.50000000E-01
  8.50000000E-01  8.50000000E-01  8.50000000E-01  8.50000000E-01  8.50000000E-01
  8.50000000E-01  8.50000000E-01  8.50000000E-01  8.50000000E-01  8.50000000E-01
  8.50000000E-01  8.50000000E-01  8.50000000E-01  8.50000000E-01  8.50000000E-01
  8.50000000E-01  8.50000000E-01  8.50000000E-01  8.50000000E-01  8.50000000E-01
  8.50000000E-01  8.50000000E-01  8.50000000E-01  8.50000000E-01  8.50000000E-01
  8.50000000E-01  8.50000000E-01  8.50000000E-01  8.50000000E-01  8.50000000E-01
  8.50000000E-01  8.50000000E-01  8.50000000E-01  8.50000000E-01  8.50000000E-01
  8.50000000E-01  8.50000000E-01  8.50000000E-01  8.50000000E-01  8.50000000E-01
  8.50000000E-01  8.50000000E-01  8.50000000E-01  8.50000000E-01  8.50000000E-01
  8.50000000E-01  8.50000000E-01  8.50000000E-01  8.50000000E-01  8.50000000E-01
  8.50000000E-01  8.50000000E-01  8.50000000E-01  8.50000000E-01  8.50000000E-01
  8.50000000E-01  8.50000000E-01  8.50000000E-01  8.50000000E-01  8.50000000E-01
  8.50000000E-01  8.50000000E-01  8.50000000E-01  8.50000000E-01  8.50000000E-01
  8.50000000E-01  8.50000000E-01  8.50000000E-01  8.50000000E-01  8.50000000E-01
  8.50000000E-01  8.50000000E-01  8.50000000E-01  8.50000000E-01  8.50000000E-01
  8.50000000E-01  8.50000000E-01  8.50000000E-01  8.50000000E-01  8.50000000E-01
  8.50000000E-01  8.50000000E-01  8.50000000E-01  8.50000000E-01  8.50000000E-01
  8.50000000E-01  8.50000000E-01  8.50000000E-01  8.50000000E-01  8.50000000E-01
  8.50000000E-01  8.50000000E-01  8.50000000E-01  8.50000000E-01  8.50000000E-01
  8.50000000E-01  8.50000000E-01  8.50000000E-01  8.50000000E-01  8.50000000E-01
  8.50000000E-01  8.50000000E-01  8.50000000E-01  8.50000000E-01  8.50000000E-01
  8.50000000E-01  8.50000000E-01  8.50000000E-01  8.50000000E-01  8.50000000E-01
  8.50000000E-01  8.50000000E-01  8.50000000E-01  8.50000000E-01  8.50000000E-01
  8.50000000E-01  8.50000000E-01  8.50000000E-01  8.50000000E-01  8.50000000E-01
  8.50000000E-01  8.50000000E-01  8.50000000E-01  8.50000000E-01  8.50000000E-01
  8.50000000E-01  8.50000000E-01  8.50000000E-01  8.50000000E-01  8.50000000E-01
  8.50000000E-01  8.50000000E-01  8.50000000E-01  8.50000000E-01  8.50000000E-01
  8.50000000E-01  8.50000000E-01  8.50000000E-01  8.50000000E-01  8.50000000E-01
  8.50000000E-01  8.50000000E-01  8.50000000E-01  8.50000000E-01  8.50000000E-01
  8.50000000E-01  8.50000000E-01  8.50000000E-01  8.50000000E-01  8.50000000E-01
  8.50000000E-01  8.50000000E-01  8.50000000E-01  8.50000000E-01  8.50000000E-01
  8.50000000E-01  8.50000000E-01  8.50000000E-01  8.50000000E-01  8.50000000E-01
  8.50000000E-01  8.50000000E-01  8.50000000E-01  8.50000000E-01  8.50000000E-01
  8.50000000E-01  8.50000000E-01  8.50000000E-01  8.50000000E-01  8.50000000E-01
  8.50000000E-01  8.50000000E-01  8.50000000E-01  8.50000000E-01  8.50000000E-01
  8.50000000E-01  8.50000000E-01  8.50000000E-01  8.50000000E-01  8.50000000E-01
  8.50000000E-01  8.50000000E-01  8.50000000E-01  8.50000000E-01  8.50000000E-01
  8.50000000E-01  8.50000000E-01  8.50000000E-01  8.50000000E-01  8.50000000E-01
  8.50000000E-01  8.50000000E-01  8.50000000E-01  8.50000000E-01  8.50000000E-01
  8.50000000E-01  8.50000000E-01  8.50000000E-01  8.50000000E-01  8.50000000E-01
  8.50000000E-01  8.50000000E-01  8.50000000E-01  8.50000000E-01  8.50000000E-01
  8.50000000E-01  8.50000000E-01  8.50000000E-01  8.50000000E-01  8.50000000E-01
  8.50000000E-01  8.50000000E-01  8.50000000E-01  8.50000000E-01  8.50000000E-01
  8.50000000E-01  8.50000000E-01  8.50000000E-01  8.50000000E-01  8.50000000E-01
  8.50000000E-01  8.50000000E-01  8.50000000E-01  8.50000000E-01  8.50000000E-01
  8.50000000E-01  8.50000000E-01  8.50000000E-01  8.50000000E-01  8.50000000E-01
  8.50000000E-01  8.50000000E-01  8.50000000E-01  8.50000000E-01  8.50000000E-01
  8.50000000E-01  8.50000000E-01  8.50000000E-01  8.50000000E-01  8.50000000E-01
  8.50000000E-01  8.50000000E-01  8.50000000E-01  8.50000000E-01  8.50000000E-01
  8.50000000E-01  8.50000000E-01  8.50000000E-01  8.50000000E-01  8.50000000E-01
  8.50000000E-01  8.50000000E-01  8.50000000E-01  8.50000000E-01  8.50000000E-01
  8.50000000E-01  8.50000000E-01  8.50000000E-01  8.50000000E-01  8.50000000E-01
  8.50000000E-01  8.50000000E-01  8.50000000E-01  8.50000000E-01  8.50000000E-01
  8.50000000E-01  8.50000000E-01  8.50000000E-01  8.50000000E-01  8.50000000E-01
  8.50000000E-01  8.50000000E-01  8.50000000E-01  8.50000000E-01  8.50000000E-01
  8.50000000E-01  8.50000000E-01  8.50000000E-01  8.50000000E-01  8.50000000E-01
  8.50000000E-01  8.50000000E-01  8.50000000E-01  8.50000000E-01  8.50000000E-01
  8.50000000E-01  8.50000000E-01  8.50000000E-01  8.50000000E-01  8.50000000E-01
  8.50000000E-01  8.50000000E-01  8.50000000E-01  8.50000000E-01  8.50000000E-01
  8.50000000E-01  8.50000000E-01  8.50000000E-01  8.50000000E-01  8.50000000E-01
  8.50000000E-01  8.50000000E-01  8.50000000E-01  8.50000000E-01  8.50000000E-01
  8.50000000E-01  8.50000000E-01  8.50000000E-01  8.50000000E-01  8.50000000E-01
  8.50000000E-01  8.50000000E-01  8.50000000E-01  8.50000000E-01  8.50000000E-01
  8.50000000E-01  8.50000000E-01  8.50000000E-01  8.50000000E-01  8.50000000E-01
  8.50000000E-01  8.50000000E-01  8.50000000E-01  8.50000000E-01  8.50000000E-01
  8.50000000E-01  8.50000000E-01  8.50000000E-01  8.50000000E-01  8.50000000E-01
  8.50000000E-01  8.50000000E-01  8.50000000E-01  8.50000000E-01  8.50000000E-01
  8.50000000E-01  8.50000000E-01  8.50000000E-01  8.50000000E-01  8.50000000E-01
  8.50000000E-01  8.50000000E-01  8.50000000E-01  8.50000000E-01  8.50000000E-01
  8.50000000E-01  8.50000000E-01  8.50000000E-01  8.50000000E-01  8.50000000E-01
  8.50000000E-01  8.50000000E-01  8.50000000E-01  8.50000000E-01  8.50000000E-01
  8.50000000E-01  8.50000000E-01  8.50000000E-01  8.50000000E-01  8.50000000E-01
  8.50000000E-01  8.50000000E-01  8.50000000E-01  8.50000000E-01  8.50000000E-01
  8.50000000E-01  8.50000000E-01  8.50000000E-01  8.50000000E-01  8.50000000E-01
  8.50000000E-01  8.50000000E-01  8.50000000E-01  8.50000000E-01  8.50000000E-01
  8.50000000E-01  8.50000000E-01  8.50000000E-01  8.50000000E-01  8.50000000E-01
  8.50000000E-01  8.50000000E-01  8.50000000E-01  8.50000000E-01  8.50000000E-01
  8.50000000E-01  8.50000000E-01  8.50000000E-01  8.50000000E-01  8.50000000E-01
  8.50000000E-01  8.50000000E-01  8.50000000E-01  8.50000000E-01  8.50000000E-01
  8.50000000E-01  8.50000000E-01  8.50000000E-01  8.50000000E-01  8.50000000E-01
  8.50000000E-01  8.50000000E-01  8.50000000E-01  8.50000000E-01  8.50000000E-01
  8.50000000E-01  8.50000000E-01  8.50000000E-01  8.50000000E-01  8.50000000E-01
  8.50000000E-01  8.50000000E-01  8.50000000E-01  8.50000000E-01  8.50000000E-01
  8.50000000E-01  8.50000000E-01  8.50000000E-01  8.50000000E-01  8.50000000E-01
  8.50000000E-01  8.50000000E-01  8.50000000E-01  8.50000000E-01  8.50000000E-01
  8.50000000E-01  8.50000000E-01  8.50000000E-01  8.50000000E-01  8.50000000E-01
  8.50000000E-01  8.50000000E-01  8.50000000E-01  8.50000000E-01  8.50000000E-01
  8.50000000E-01  8.50000000E-01  8.50000000E-01  8.50000000E-01  8.50000000E-01
  8.50000000E-01  8.50000000E-01  8.50000000E-01  8.50000000E-01  8.50000000E-01
  8.50000000E-01  8.50000000E-01  8.50000000E-01  8.50000000E-01  8.50000000E-01
  8.50000000E-01  8.50000000E-01  8.50000000E-01  8.50000000E-01  8.50000000E-01
  8.50000000E-01  8.50000000E-01  8.50000000E-01  8.50000000E-01  8.50000000E-01
  8.50000000E-01  8.50000000E-01  8.50000000E-01  8.50000000E-01  8.50000000E-01
  8.50000000E-01  8.50000000E-01  8.50000000E-01  8.50000000E-01  8.50000000E-01
  8.50000000E-01  8.50000000E-01  8.50000000E-01  8.50000000E-01  8.50000000E-01
  8.50000000E-01  8.50000000E-01  8.50000000E-01  8.50000000E-01  8.50000000E-01
  8.50000000E-01  8.50000000E-01  8.50000000E-01  8.50000000E-01  8.50000000E-01
  8.50000000E-01  8.50000000E-01  8.50000000E-01  8.50000000E-01  8.50000000E-01
  8.50000000E-01  8.50000000E-01  8.50000000E-01  8.50000000E-01  8.50000000E-01
  8.50000000E-01  8.50000000E-01  8.50000000E-01  8.50000000E-01  8.50000000E-01
  8.50000000E-01  8.50000000E-01  8.50000000E-01  8.50000000E-01  8.50000000E-01
  8.50000000E-01  8.50000000E-01  8.50000000E-01  8.50000000E-01  8.50000000E-01
  8.50000000E-01  8.50000000E-01  8.50000000E-01  8.50000000E-01  8.50000000E-01
  8.50000000E-01  8.50000000E-01  8.50000000E-01  8.50000000E-01  8.50000000E-01
  8.50000000E-01  8.50000000E-01  8.50000000E-01  8.50000000E-01  8.50000000E-01
  8.50000000E-01  8.50000000E-01  8.50000000E-01  8.50000000E-01  8.50000000E-01
  8.50000000E-01  8.50000000E-01  8.50000000E-01  8.50000000E-01  8.50000000E-01
  8.50000000E-01  8.50000000E-01  8.50000000E-01  8.50000000E-01  8.50000000E-01
  8.50000000E-01  8.50000000E-01  8.50000000E-01  8.50000000E-01  8.50000000E-01
  8.50000000E-01  8.50000000E-01  8.50000000E-01  8.50000000E-01  8.50000000E-01
  8.50000000E-01  8.50000000E-01  8.50000000E-01  8.50000000E-01  8.50000000E-01
  8.50000000E-01  8.50000000E-01  8.50000000E-01  8.50000000E-01  8.50000000E-01
  8.50000000E-01  8.50000000E-01  8.50000000E-01  8.50000000E-01  8.50000000E-01
  8.50000000E-01  8.50000000E-01  8.50000000E-01  8.50000000E-01  8.50000000E-01
  8.50000000E-01  8.50000000E-01  8.50000000E-01  8.50000000E-01  8.50000000E-01
  8.50000000E-01  8.50000000E-01  8.50000000E-01  8.50000000E-01  8.50000000E-01
  8.50000000E-01  8.50000000E-01  8.50000000E-01  8.50000000E-01  8.50000000E-01
  8.50000000E-01  8.50000000E-01  8.50000000E-01  8.50000000E-01  8.50000000E-01
  8.50000000E-01  8.50000000E-01  8.50000000E-01  8.50000000E-01  8.50000000E-01
  8.50000000E-01  8.50000000E-01  8.50000000E-01  8.50000000E-01  8.50000000E-01
  8.50000000E-01  8.50000000E-01  8.50000000E-01  8.50000000E-01  8.50000000E-01
  8.50000000E-01  8.50000000E-01  8.50000000E-01  8.50000000E-01  8.50000000E-01
  8.50000000E-01  8.50000000E-01  8.50000000E-01  8.50000000E-01  8.50000000E-01
  8.50000000E-01  8.50000000E-01  8.50000000E-01  8.50000000E-01  8.50000000E-01
  8.50000000E-01  8.50000000E-01  8.50000000E-01  8.50000000E-01  8.50000000E-01
  8.50000000E-01  8.50000000E-01  8.50000000E-01  8.50000000E-01  8.50000000E-01
  8.50000000E-01  8.50000000E-01  8.50000000E-01  8.50000000E-01  8.50000000E-01
  8.50000000E-01  8.50000000E-01  8.50000000E-01  8.50000000E-01  8.50000000E-01
  8.50000000E-01  8.50000000E-01  8.50000000E-01  8.50000000E-01  8.50000000E-01
  8.50000000E-01  8.50000000E-01  8.50000000E-01  8.50000000E-01  8.50000000E-01
  8.50000000E-01  8.50000000E-01  8.50000000E-01  8.50000000E-01  8.50000000E-01
  8.50000000E-01  8.50000000E-01  8.50000000E-01  8.50000000E-01  8.50000000E-01
  8.50000000E-01  8.50000000E-01  8.50000000E-01  8.50000000E-01  8.50000000E-01
  8.50000000E-01  8.50000000E-01  8.50000000E-01  8.50000000E-01  8.50000000E-01
  8.50000000E-01  8.50000000E-01  8.50000000E-01  8.50000000E-01  8.50000000E-01
  8.50000000E-01  8.50000000E-01  8.50000000E-01  8.50000000E-01  8.50000000E-01
  8.50000000E-01  8.50000000E-01  8.50000000E-01  8.50000000E-01  8.50000000E-01
  8.50000000E-01  8.50000000E-01  8.50000000E-01  8.50000000E-01  8.50000000E-01
  8.50000000E-01  8.50000000E-01  8.50000000E-01  8.50000000E-01  8.50000000E-01
  8.50000000E-01  8.50000000E-01  8.50000000E-01  8.50000000E-01  8.50000000E-01
  8.50000000E-01  8.50000000E-01  8.50000000E-01  8.50000000E-01  8.50000000E-01
  8.50000000E-01  8.50000000E-01  8.50000000E-01  8.50000000E-01  8.50000000E-01
  8.50000000E-01  8.50000000E-01  8.50000000E-01  8.50000000E-01  8.50000000E-01
  8.50000000E-01  8.50000000E-01  8.50000000E-01  8.50000000E-01  8.50000000E-01
  8.50000000E-01  8.50000000E-01  8.50000000E-01  8.50000000E-01  8.50000000E-01
  8.50000000E-01  8.50000000E-01  8.50000000E-01  8.50000000E-01  8.50000000E-01
  8.50000000E-01  8.50000000E-01  8.50000000E-01  8.50000000E-01  8.50000000E-01
  8.50000000E-01  8.50000000E-01  8.50000000E-01  8.50000000E-01  8.50000000E-01
  8.50000000E-01  8.50000000E-01  8.50000000E-01  8.50000000E-01  8.50000000E-01
  8.50000000E-01  8.50000000E-01  8.50000000E-01  8.50000000E-01  8.50000000E-01
  8.50000000E-01  8.50000000E-01  8.50000000E-01  8.50000000E-01  8.50000000E-01
  8.50000000E-01  8.50000000E-01  8.50000000E-01  8.50000000E-01  8.50000000E-01
  8.50000000E-01  8.50000000E-01  8.50000000E-01  8.50000000E-01  8.50000000E-01
  8.50000000E-01  8.50000000E-01  8.50000000E-01  8.50000000E-01  8.50000000E-01
  8.50000000E-01  8.50000000E-01  8.50000000E-01  8.50000000E-01  8.50000000E-01
  8.50000000E-01  8.50000000E-01  8.50000000E-01  8.50000000E-01  8.50000000E-01
  8.50000000E-01  8.50000000E-01  8.50000000E-01  8.50000000E-01  8.50000000E-01
  8.50000000E-01  8.50000000E-01  8.50000000E-01  8.50000000E-01  8.50000000E-01
  8.50000000E-01  8.50000000E-01  8.50000000E-01  8.50000000E-01  8.50000000E-01
  8.50000000E-01  8.50000000E-01  8.50000000E-01  8.50000000E-01  8.50000000E-01
  8.50000000E-01  8.50000000E-01  8.50000000E-01  8.50000000E-01  8.50000000E-01
  8.50000000E-01  8.50000000E-01  8.50000000E-01  8.50000000E-01  8.50000000E-01
  8.50000000E-01  8.50000000E-01  8.50000000E-01  8.50000000E-01  8.50000000E-01
  8.50000000E-01  8.50000000E-01  8.50000000E-01  8.50000000E-01  8.50000000E-01
  8.50000000E-01  8.50000000E-01  8.50000000E-01  8.50000000E-01  8.50000000E-01
  8.50000000E-01  8.50000000E-01  8.50000000E-01  8.50000000E-01  8.50000000E-01
  8.50000000E-01  8.50000000E-01  8.50000000E-01  8.50000000E-01  8.50000000E-01
  8.50000000E-01  8.50000000E-01  8.50000000E-01  8.50000000E-01  8.50000000E-01
  8.50000000E-01  8.50000000E-01  8.50000000E-01  8.50000000E-01  8.50000000E-01
  8.50000000E-01  8.50000000E-01  8.50000000E-01  8.50000000E-01  8.50000000E-01
  8.50000000E-01  8.50000000E-01  8.50000000E-01  8.50000000E-01  8.50000000E-01
  8.50000000E-01  8.50000000E-01  8.50000000E-01  8.50000000E-01  8.50000000E-01
  8.50000000E-01  8.50000000E-01  8.50000000E-01  8.50000000E-01  8.50000000E-01
  8.50000000E-01  8.50000000E-01  8.50000000E-01  8.50000000E-01  8.50000000E-01
  8.50000000E-01  8.50000000E-01  8.50000000E-01  8.50000000E-01  8.50000000E-01
  8.50000000E-01  8.50000000E-01  8.50000000E-01  8.50000000E-01  8.50000000E-01
  8.50000000E-01  8.50000000E-01  8.50000000E-01  8.50000000E-01  8.50000000E-01
  8.50000000E-01  8.50000000E-01  8.50000000E-01  8.50000000E-01  8.50000000E-01
  8.50000000E-01  8.50000000E-01  8.50000000E-01  8.50000000E-01  8.50000000E-01
  8.50000000E-01  8.50000000E-01  8.50000000E-01  8.50000000E-01  8.50000000E-01
  8.50000000E-01  8.50000000E-01  8.50000000E-01  8.50000000E-01  8.50000000E-01
  8.50000000E-01  8.50000000E-01  8.50000000E-01  8.50000000E-01  8.50000000E-01
  8.50000000E-01  8.50000000E-01  8.50000000E-01  8.50000000E-01  8.50000000E-01
  8.50000000E-01  8.50000000E-01  8.50000000E-01  8.50000000E-01  8.50000000E-01
  8.50000000E-01  8.50000000E-01  8.50000000E-01  8.50000000E-01  8.50000000E-01
  8.50000000E-01  8.50000000E-01  8.50000000E-01  8.50000000E-01  8.50000000E-01
  8.50000000E-01  8.50000000E-01  8.50000000E-01  8.50000000E-01  8.50000000E-01
  8.50000000E-01  8.50000000E-01  8.50000000E-01  8.50000000E-01  8.50000000E-01
  8.50000000E-01  8.50000000E-01  8.50000000E-01  8.50000000E-01  8.50000000E-01
  8.50000000E-01  8.50000000E-01  8.50000000E-01  8.50000000E-01  8.50000000E-01
  8.50000000E-01  8.50000000E-01  8.50000000E-01  8.50000000E-01  8.50000000E-01
  8.50000000E-01  8.50000000E-01  8.50000000E-01  8.50000000E-01  8.50000000E-01
  8.50000000E-01  8.50000000E-01  8.50000000E-01  8.50000000E-01  8.50000000E-01
  8.50000000E-01  8.50000000E-01  8.50000000E-01  8.50000000E-01  8.50000000E-01
  8.50000000E-01  8.50000000E-01  8.50000000E-01  8.50000000E-01  8.50000000E-01
  8.50000000E-01  8.50000000E-01  8.50000000E-01  8.50000000E-01  8.50000000E-01
  8.50000000E-01  8.50000000E-01  8.50000000E-01  8.50000000E-01  8.50000000E-01
  8.50000000E-01  8.50000000E-01  8.50000000E-01  8.50000000E-01  8.50000000E-01
  8.50000000E-01  8.50000000E-01  8.50000000E-01  8.50000000E-01  8.50000000E-01
  8.50000000E-01  8.50000000E-01  8.50000000E-01  8.50000000E-01  8.50000000E-01
  8.50000000E-01  8.50000000E-01  8.50000000E-01  8.50000000E-01  8.50000000E-01
  8.50000000E-01  8.50000000E-01  8.50000000E-01  8.50000000E-01  8.50000000E-01
  8.50000000E-01  8.50000000E-01  8.50000000E-01  8.50000000E-01  8.50000000E-01
  8.50000000E-01  8.50000000E-01  8.50000000E-01  8.50000000E-01  8.50000000E-01
  8.50000000E-01  8.50000000E-01  8.50000000E-01  8.50000000E-01  8.50000000E-01
  8.50000000E-01  8.50000000E-01  8.50000000E-01  8.50000000E-01  8.50000000E-01
  8.50000000E-01  8.50000000E-01  8.50000000E-01  8.50000000E-01  8.50000000E-01
  8.50000000E-01  8.50000000E-01  8.50000000E-01  8.50000000E-01  8.50000000E-01
  8.50000000E-01  8.50000000E-01  8.50000000E-01  8.50000000E-01  8.50000000E-01
  8.50000000E-01  8.50000000E-01  8.50000000E-01  8.50000000E-01  8.50000000E-01
  8.50000000E-01  8.50000000E-01  8.50000000E-01  8.50000000E-01  8.50000000E-01
  8.50000000E-01  8.50000000E-01  8.50000000E-01  8.50000000E-01  8.50000000E-01
  8.50000000E-01  8.50000000E-01  8.50000000E-01  8.50000000E-01  8.50000000E-01
  8.50000000E-01  8.50000000E-01  8.50000000E-01  8.50000000E-01  8.50000000E-01
  8.50000000E-01  8.50000000E-01  8.50000000E-01  8.50000000E-01  8.50000000E-01
  8.50000000E-01  8.50000000E-01  8.50000000E-01  8.50000000E-01  8.50000000E-01
  8.50000000E-01  8.50000000E-01  8.50000000E-01  8.50000000E-01  8.50000000E-01
  8.50000000E-01  8.50000000E-01  8.50000000E-01  8.50000000E-01  8.50000000E-01
  8.50000000E-01  8.50000000E-01  8.50000000E-01  8.50000000E-01  8.50000000E-01
  8.50000000E-01  8.50000000E-01  8.50000000E-01  8.50000000E-01  8.50000000E-01
  8.50000000E-01  8.50000000E-01  8.50000000E-01  8.50000000E-01  8.50000000E-01
  8.50000000E-01  8.50000000E-01  8.50000000E-01  8.50000000E-01  8.50000000E-01
  8.50000000E-01  8.50000000E-01  8.50000000E-01  8.50000000E-01  8.50000000E-01
  8.50000000E-01  8.50000000E-01  8.50000000E-01  8.50000000E-01  8.50000000E-01
  8.50000000E-01  8.50000000E-01  8.50000000E-01  8.50000000E-01  8.50000000E-01
  8.50000000E-01  8.50000000E-01  8.50000000E-01  8.50000000E-01  8.50000000E-01
  8.50000000E-01  8.50000000E-01  8.50000000E-01  8.50000000E-01  8.50000000E-01
  8.50000000E-01  8.50000000E-01  8.50000000E-01  8.50000000E-01  8.50000000E-01
  8.50000000E-01  8.50000000E-01  8.50000000E-01  8.50000000E-01  8.50000000E-01
  8.50000000E-01  8.50000000E-01  8.50000000E-01  8.50000000E-01  8.50000000E-01
  8.50000000E-01  8.50000000E-01  8.50000000E-01  8.50000000E-01  8.50000000E-01
  8.50000000E-01  8.50000000E-01  8.50000000E-01  8.50000000E-01  8.50000000E-01
  8.50000000E-01  8.50000000E-01  8.50000000E-01  8.50000000E-01  8.50000000E-01
  8.50000000E-01  8.50000000E-01  8.50000000E-01  8.50000000E-01  8.50000000E-01
  8.50000000E-01  8.50000000E-01  8.50000000E-01  8.50000000E-01  8.50000000E-01
  8.50000000E-01  8.50000000E-01  8.50000000E-01  8.50000000E-01  8.50000000E-01
  8.50000000E-01  8.50000000E-01  8.50000000E-01  8.50000000E-01  8.50000000E-01
  8.50000000E-01  8.50000000E-01  8.50000000E-01  8.50000000E-01  8.50000000E-01
  8.50000000E-01  8.50000000E-01  8.50000000E-01  8.50000000E-01  8.50000000E-01
  8.50000000E-01  8.50000000E-01  8.50000000E-01  8.50000000E-01  8.50000000E-01
  8.50000000E-01  8.50000000E-01  8.50000000E-01  8.50000000E-01  8.50000000E-01
  8.50000000E-01  8.50000000E-01  8.50000000E-01  8.50000000E-01  8.50000000E-01
  8.50000000E-01  8.50000000E-01  8.50000000E-01  8.50000000E-01  8.50000000E-01
  8.50000000E-01  8.50000000E-01  8.50000000E-01  8.50000000E-01  8.50000000E-01
  8.50000000E-01  8.50000000E-01  8.50000000E-01  8.50000000E-01  8.50000000E-01
  8.50000000E-01  8.50000000E-01  8.50000000E-01  8.50000000E-01  8.50000000E-01
  8.50000000E-01  8.50000000E-01  8.50000000E-01  8.50000000E-01  8.50000000E-01
  8.50000000E-01  8.50000000E-01  8.50000000E-01  8.50000000E-01  8.50000000E-01
  8.50000000E-01  8.50000000E-01  8.50000000E-01  8.50000000E-01  8.50000000E-01
  8.50000000E-01  8.50000000E-01  8.50000000E-01  8.50000000E-01  8.50000000E-01
  8.50000000E-01  8.50000000E-01  8.50000000E-01  8.50000000E-01  8.50000000E-01
  8.50000000E-01  8.50000000E-01  8.50000000E-01  8.50000000E-01  8.50000000E-01
  8.50000000E-01  8.50000000E-01  8.50000000E-01  8.50000000E-01  8.50000000E-01
  8.50000000E-01  8.50000000E-01  8.50000000E-01  8.50000000E-01  8.50000000E-01
  8.50000000E-01  8.50000000E-01  8.50000000E-01  8.50000000E-01  8.50000000E-01
  8.50000000E-01  8.50000000E-01  8.50000000E-01  8.50000000E-01  8.50000000E-01
  8.50000000E-01  8.50000000E-01  8.50000000E-01  8.50000000E-01  8.50000000E-01
  8.50000000E-01  8.50000000E-01  8.50000000E-01  8.50000000E-01  8.50000000E-01
  8.50000000E-01  8.50000000E-01  8.50000000E-01  8.50000000E-01  8.50000000E-01
  8.50000000E-01  8.50000000E-01  8.50000000E-01  8.50000000E-01  8.50000000E-01
  8.50000000E-01  8.50000000E-01  8.50000000E-01  8.50000000E-01  8.50000000E-01
  8.50000000E-01  8.50000000E-01  8.50000000E-01  8.50000000E-01  8.50000000E-01
  8.50000000E-01  8.50000000E-01  8.50000000E-01  8.50000000E-01  8.50000000E-01
  8.50000000E-01  8.50000000E-01  8.50000000E-01  8.50000000E-01  8.50000000E-01
  8.50000000E-01  8.50000000E-01  8.50000000E-01  8.50000000E-01  8.50000000E-01
  8.50000000E-01  8.50000000E-01  8.50000000E-01  8.50000000E-01  8.50000000E-01
  8.50000000E-01  8.50000000E-01  8.50000000E-01  8.50000000E-01  8.50000000E-01
  8.50000000E-01  8.50000000E-01  8.50000000E-01  8.50000000E-01  8.50000000E-01
  8.50000000E-01  8.50000000E-01  8.50000000E-01  8.50000000E-01  8.50000000E-01
  8.50000000E-01  8.50000000E-01  8.50000000E-01  8.50000000E-01  8.50000000E-01
  8.50000000E-01  8.50000000E-01  8.50000000E-01  8.50000000E-01  8.50000000E-01
  8.50000000E-01  8.50000000E-01  8.50000000E-01  8.50000000E-01  8.50000000E-01
  8.50000000E-01  8.50000000E-01  8.50000000E-01  8.50000000E-01  8.50000000E-01
  8.50000000E-01  8.50000000E-01  8.50000000E-01  8.50000000E-01  8.50000000E-01
  8.50000000E-01  8.50000000E-01  8.50000000E-01  8.50000000E-01  8.50000000E-01
  8.50000000E-01  8.50000000E-01  8.50000000E-01  8.50000000E-01  8.50000000E-01
  8.50000000E-01  8.50000000E-01  8.50000000E-01  8.50000000E-01  8.50000000E-01
  8.50000000E-01  8.50000000E-01  8.50000000E-01  8.50000000E-01  8.50000000E-01
  8.50000000E-01  8.50000000E-01  8.50000000E-01  8.50000000E-01  8.50000000E-01
  8.50000000E-01  8.50000000E-01  8.50000000E-01  8.50000000E-01  8.50000000E-01
  8.50000000E-01  8.50000000E-01  8.50000000E-01  8.50000000E-01  8.50000000E-01
  8.50000000E-01  8.50000000E-01  8.50000000E-01  8.50000000E-01  8.50000000E-01
  8.50000000E-01  8.50000000E-01  8.50000000E-01  8.50000000E-01  8.50000000E-01
  8.50000000E-01  8.50000000E-01  8.50000000E-01  8.50000000E-01  8.50000000E-01
  8.50000000E-01  8.50000000E-01  8.50000000E-01  8.50000000E-01  8.50000000E-01
  8.50000000E-01  8.50000000E-01  8.50000000E-01  8.50000000E-01  8.50000000E-01
  8.50000000E-01  8.50000000E-01  8.50000000E-01  8.50000000E-01  8.50000000E-01
  8.50000000E-01  8.50000000E-01  8.50000000E-01  8.50000000E-01  8.50000000E-01
  8.50000000E-01  8.50000000E-01  8.50000000E-01  8.50000000E-01  8.50000000E-01
  8.50000000E-01  8.50000000E-01  8.50000000E-01  8.50000000E-01  8.50000000E-01
  8.50000000E-01  8.50000000E-01  8.50000000E-01  8.50000000E-01  8.50000000E-01
  8.50000000E-01  8.50000000E-01  8.50000000E-01  8.50000000E-01  8.50000000E-01
  8.50000000E-01  8.50000000E-01  8.50000000E-01  8.50000000E-01  8.50000000E-01
  8.50000000E-01  8.50000000E-01  8.50000000E-01  8.50000000E-01  8.50000000E-01
  8.50000000E-01  8.50000000E-01  8.50000000E-01  8.50000000E-01  8.50000000E-01
  8.50000000E-01  8.50000000E-01  8.50000000E-01  8.50000000E-01  8.50000000E-01
  8.50000000E-01  8.50000000E-01  8.50000000E-01  8.50000000E-01  8.50000000E-01
  8.50000000E-01  8.50000000E-01  8.50000000E-01  8.50000000E-01  8.50000000E-01
  8.50000000E-01  8.50000000E-01  8.50000000E-01  8.50000000E-01  8.50000000E-01
  8.50000000E-01  8.50000000E-01  8.50000000E-01  8.50000000E-01  8.50000000E-01
  8.50000000E-01  8.50000000E-01  8.50000000E-01  8.50000000E-01  8.50000000E-01
  8.50000000E-01  8.50000000E-01  8.50000000E-01  8.50000000E-01  8.50000000E-01
  8.50000000E-01  8.50000000E-01  8.50000000E-01  8.50000000E-01  8.50000000E-01
  8.50000000E-01  8.50000000E-01  8.50000000E-01  8.50000000E-01  8.50000000E-01
  8.50000000E-01  8.50000000E-01  8.50000000E-01  8.50000000E-01  8.50000000E-01
  8.50000000E-01  8.50000000E-01  8.50000000E-01  8.50000000E-01  8.50000000E-01
  8.50000000E-01  8.50000000E-01  8.50000000E-01  8.50000000E-01  8.50000000E-01
  8.50000000E-01  8.50000000E-01  8.50000000E-01  8.50000000E-01  8.50000000E-01
  8.50000000E-01  8.50000000E-01  8.50000000E-01  8.50000000E-01  8.50000000E-01
  8.50000000E-01  8.50000000E-01  8.50000000E-01  8.50000000E-01  8.50000000E-01
  8.50000000E-01  8.50000000E-01  8.50000000E-01  8.50000000E-01  8.50000000E-01
  8.50000000E-01  8.50000000E-01  8.50000000E-01  8.50000000E-01  8.50000000E-01
  8.50000000E-01  8.50000000E-01  8.50000000E-01  8.50000000E-01  8.50000000E-01
  8.50000000E-01  8.50000000E-01  8.50000000E-01  8.50000000E-01  8.50000000E-01
  8.50000000E-01  8.50000000E-01  8.50000000E-01  8.50000000E-01  8.50000000E-01
  8.50000000E-01  8.50000000E-01  8.50000000E-01  8.50000000E-01  8.50000000E-01
  8.50000000E-01  8.50000000E-01  8.50000000E-01  8.50000000E-01  8.50000000E-01
  8.50000000E-01  8.50000000E-01  8.50000000E-01  8.50000000E-01  8.50000000E-01
  8.50000000E-01  8.50000000E-01  8.50000000E-01  8.50000000E-01  8.50000000E-01
  8.50000000E-01  8.50000000E-01  8.50000000E-01  8.50000000E-01  8.50000000E-01
  8.50000000E-01  8.50000000E-01  8.50000000E-01  8.50000000E-01  8.50000000E-01
  8.50000000E-01  8.50000000E-01  8.50000000E-01  8.50000000E-01  8.50000000E-01
  8.50000000E-01  8.50000000E-01  8.50000000E-01  8.50000000E-01  8.50000000E-01
  8.50000000E-01  8.50000000E-01  8.50000000E-01  8.50000000E-01  8.50000000E-01
  8.50000000E-01  8.50000000E-01  8.50000000E-01  8.50000000E-01  8.50000000E-01
  8.50000000E-01  8.50000000E-01  8.50000000E-01  8.50000000E-01  8.50000000E-01
  8.50000000E-01  8.50000000E-01  8.50000000E-01  8.50000000E-01  8.50000000E-01
  8.50000000E-01  8.50000000E-01  8.50000000E-01  8.50000000E-01  8.50000000E-01
  8.50000000E-01  8.50000000E-01  8.50000000E-01  8.50000000E-01  8.50000000E-01
  8.50000000E-01  8.50000000E-01  8.50000000E-01  8.50000000E-01  8.50000000E-01
  8.50000000E-01  8.50000000E-01  8.50000000E-01  8.50000000E-01  8.50000000E-01
  8.50000000E-01  8.50000000E-01  8.50000000E-01  8.50000000E-01  8.50000000E-01
  8.50000000E-01  8.50000000E-01  8.50000000E-01  8.50000000E-01  8.50000000E-01
  8.50000000E-01  8.50000000E-01  8.50000000E-01  8.50000000E-01  8.50000000E-01
  8.50000000E-01  8.50000000E-01  8.50000000E-01  8.50000000E-01  8.50000000E-01
  8.50000000E-01  8.50000000E-01  8.50000000E-01  8.50000000E-01  8.50000000E-01
  8.50000000E-01  8.50000000E-01  8.50000000E-01  8.50000000E-01  8.50000000E-01
  8.50000000E-01  8.50000000E-01  8.50000000E-01  8.50000000E-01  8.50000000E-01
  8.50000000E-01  8.50000000E-01  8.50000000E-01  8.50000000E-01  8.50000000E-01
  8.50000000E-01  8.50000000E-01  8.50000000E-01  8.50000000E-01  8.50000000E-01
  8.50000000E-01  8.50000000E-01  8.50000000E-01  8.50000000E-01  8.50000000E-01
  8.50000000E-01  8.50000000E-01  8.50000000E-01  8.50000000E-01  8.50000000E-01
  8.50000000E-01  8.50000000E-01  8.50000000E-01  8.50000000E-01  8.50000000E-01
  8.50000000E-01  8.50000000E-01  8.50000000E-01  8.50000000E-01  8.50000000E-01
  8.50000000E-01  8.50000000E-01  8.50000000E-01  8.50000000E-01  8.50000000E-01
  8.50000000E-01  8.50000000E-01  8.50000000E-01  8.50000000E-01  8.50000000E-01
  8.50000000E-01  8.50000000E-01  8.50000000E-01  8.50000000E-01  8.50000000E-01
  8.50000000E-01  8.50000000E-01  8.50000000E-01  8.50000000E-01  8.50000000E-01
  8.50000000E-01  8.50000000E-01  8.50000000E-01  8.50000000E-01  8.50000000E-01
  8.50000000E-01  8.50000000E-01  8.50000000E-01  8.50000000E-01  8.50000000E-01
  8.50000000E-01  8.50000000E-01  8.50000000E-01  8.50000000E-01  8.50000000E-01
  8.50000000E-01  8.50000000E-01  8.50000000E-01  8.50000000E-01  8.50000000E-01
  8.50000000E-01  8.50000000E-01  8.50000000E-01  8.50000000E-01  8.50000000E-01
  8.50000000E-01  8.50000000E-01  8.50000000E-01  8.50000000E-01  8.50000000E-01
  8.50000000E-01  8.50000000E-01  8.50000000E-01  8.50000000E-01  8.50000000E-01
  8.50000000E-01  8.50000000E-01  8.50000000E-01  8.50000000E-01  8.50000000E-01
  8.50000000E-01  8.50000000E-01  8.50000000E-01  8.50000000E-01  8.50000000E-01
  8.50000000E-01  8.50000000E-01  8.50000000E-01  8.50000000E-01  8.50000000E-01
  8.50000000E-01  8.50000000E-01  8.50000000E-01  8.50000000E-01  8.50000000E-01
  8.50000000E-01  8.50000000E-01  8.50000000E-01  8.50000000E-01  8.50000000E-01
  8.50000000E-01  8.50000000E-01  8.50000000E-01  8.50000000E-01  8.50000000E-01
  8.50000000E-01  8.50000000E-01  8.50000000E-01  8.50000000E-01  8.50000000E-01
  8.50000000E-01  8.50000000E-01  8.50000000E-01  8.50000000E-01  8.50000000E-01
  8.50000000E-01  8.50000000E-01  8.50000000E-01  8.50000000E-01  8.50000000E-01
  8.50000000E-01  8.50000000E-01  8.50000000E-01  8.50000000E-01  8.50000000E-01
  8.50000000E-01  8.50000000E-01  8.50000000E-01  8.50000000E-01  8.50000000E-01
  8.50000000E-01  8.50000000E-01  8.50000000E-01  8.50000000E-01  8.50000000E-01
  8.50000000E-01  8.50000000E-01  8.50000000E-01  8.50000000E-01  8.50000000E-01
  8.50000000E-01  8.50000000E-01  8.50000000E-01  8.50000000E-01  8.50000000E-01
  8.50000000E-01  8.50000000E-01  8.50000000E-01  8.50000000E-01  8.50000000E-01
  8.50000000E-01  8.50000000E-01  8.50000000E-01  8.50000000E-01  8.50000000E-01
  8.50000000E-01  8.50000000E-01  8.50000000E-01  8.50000000E-01  8.50000000E-01
  8.50000000E-01  8.50000000E-01  8.50000000E-01  8.50000000E-01  8.50000000E-01
  8.50000000E-01  8.50000000E-01  8.50000000E-01  8.50000000E-01  8.50000000E-01
  8.50000000E-01  8.50000000E-01  8.50000000E-01  8.50000000E-01  8.50000000E-01
  8.50000000E-01  8.50000000E-01  8.50000000E-01  8.50000000E-01  8.50000000E-01
  8.50000000E-01  8.50000000E-01  8.50000000E-01  8.50000000E-01  8.50000000E-01
  8.50000000E-01  8.50000000E-01  8.50000000E-01  8.50000000E-01  8.50000000E-01
  8.50000000E-01  8.50000000E-01  8.50000000E-01  8.50000000E-01  8.50000000E-01
  8.50000000E-01  8.50000000E-01  8.50000000E-01  8.50000000E-01  8.50000000E-01
  8.50000000E-01  8.50000000E-01  8.50000000E-01  8.50000000E-01  8.50000000E-01
  8.50000000E-01  8.50000000E-01  8.50000000E-01  8.50000000E-01  8.50000000E-01
  8.50000000E-01  8.50000000E-01  8.50000000E-01  8.50000000E-01  8.50000000E-01
  8.50000000E-01  8.50000000E-01  8.50000000E-01  8.50000000E-01  8.50000000E-01
  8.50000000E-01  8.50000000E-01  8.50000000E-01  8.50000000E-01  8.50000000E-01
  8.50000000E-01  8.50000000E-01  8.50000000E-01  8.50000000E-01  8.50000000E-01
  8.50000000E-01  8.50000000E-01  8.50000000E-01  8.50000000E-01  8.50000000E-01
  8.50000000E-01  8.50000000E-01  8.50000000E-01  8.50000000E-01  8.50000000E-01
  8.50000000E-01  8.50000000E-01  8.50000000E-01  8.50000000E-01  8.50000000E-01
  8.50000000E-01  8.50000000E-01  8.50000000E-01  8.50000000E-01  8.50000000E-01
  8.50000000E-01  8.50000000E-01  8.50000000E-01  8.50000000E-01  8.50000000E-01
  8.50000000E-01  8.50000000E-01  8.50000000E-01  8.50000000E-01  8.50000000E-01
  8.50000000E-01  8.50000000E-01  8.50000000E-01  8.50000000E-01  8.50000000E-01
  8.50000000E-01  8.50000000E-01  8.50000000E-01  8.50000000E-01  8.50000000E-01
  8.50000000E-01  8.50000000E-01  8.50000000E-01  8.50000000E-01  8.50000000E-01
  8.50000000E-01  8.50000000E-01  8.50000000E-01  8.50000000E-01  8.50000000E-01
  8.50000000E-01  8.50000000E-01  8.50000000E-01  8.50000000E-01  8.50000000E-01
  8.50000000E-01  8.50000000E-01  8.50000000E-01  8.50000000E-01  8.50000000E-01
  8.50000000E-01  8.50000000E-01  8.50000000E-01  8.50000000E-01  8.50000000E-01
  8.50000000E-01  8.50000000E-01  8.50000000E-01  8.50000000E-01  8.50000000E-01
  8.50000000E-01  8.50000000E-01  8.50000000E-01  8.50000000E-01  8.50000000E-01
  8.50000000E-01  8.50000000E-01  8.50000000E-01  8.50000000E-01  8.50000000E-01
  8.50000000E-01  8.50000000E-01  8.50000000E-01  8.50000000E-01  8.50000000E-01
  8.50000000E-01  8.50000000E-01  8.50000000E-01  8.50000000E-01  8.50000000E-01
  8.50000000E-01  8.50000000E-01  8.50000000E-01  8.50000000E-01  8.50000000E-01
  8.50000000E-01  8.50000000E-01  8.50000000E-01  8.50000000E-01  8.50000000E-01
  8.50000000E-01  8.50000000E-01  8.50000000E-01  8.50000000E-01  8.50000000E-01
  8.50000000E-01  8.50000000E-01  8.50000000E-01  8.50000000E-01  8.50000000E-01
  8.50000000E-01  8.50000000E-01  8.50000000E-01  8.50000000E-01  8.50000000E-01
  8.50000000E-01  8.50000000E-01  8.50000000E-01  8.50000000E-01  8.50000000E-01
  8.50000000E-01  8.50000000E-01  8.50000000E-01  8.50000000E-01  8.50000000E-01
  8.50000000E-01  8.50000000E-01  8.50000000E-01  8.50000000E-01  8.50000000E-01
  8.50000000E-01  8.50000000E-01  8.50000000E-01  8.50000000E-01  8.50000000E-01
  8.50000000E-01  8.50000000E-01  8.50000000E-01  8.50000000E-01  8.50000000E-01
  8.50000000E-01  8.50000000E-01  8.50000000E-01  8.50000000E-01  8.50000000E-01
  8.50000000E-01  8.50000000E-01  8.50000000E-01  8.50000000E-01  8.50000000E-01
  8.50000000E-01  8.50000000E-01  8.50000000E-01  8.50000000E-01  8.50000000E-01
  8.50000000E-01  8.50000000E-01  8.50000000E-01  8.50000000E-01  8.50000000E-01
  8.50000000E-01  8.50000000E-01  8.50000000E-01  8.50000000E-01  8.50000000E-01
  8.50000000E-01  8.50000000E-01  8.50000000E-01  8.50000000E-01  8.50000000E-01
  8.50000000E-01  8.50000000E-01  8.50000000E-01  8.50000000E-01  8.50000000E-01
  8.50000000E-01  8.50000000E-01  8.50000000E-01  8.50000000E-01  8.50000000E-01
  8.50000000E-01  8.50000000E-01  8.50000000E-01  8.50000000E-01  8.50000000E-01
  8.50000000E-01  8.50000000E-01  8.50000000E-01  8.50000000E-01  8.50000000E-01
  8.50000000E-01  8.50000000E-01  8.50000000E-01  8.50000000E-01  8.50000000E-01
  8.50000000E-01  8.50000000E-01  8.50000000E-01  8.50000000E-01  8.50000000E-01
  8.50000000E-01  8.50000000E-01  8.50000000E-01  8.50000000E-01  8.50000000E-01
  8.50000000E-01  8.50000000E-01  8.50000000E-01  8.50000000E-01  8.50000000E-01
  8.50000000E-01  8.50000000E-01  8.50000000E-01  8.50000000E-01  8.50000000E-01
  8.50000000E-01  8.50000000E-01  8.50000000E-01  8.50000000E-01  8.50000000E-01
  8.50000000E-01  8.50000000E-01  8.50000000E-01  8.50000000E-01  8.50000000E-01
  8.50000000E-01  8.50000000E-01  8.50000000E-01  8.50000000E-01  8.50000000E-01
  8.50000000E-01  8.50000000E-01  8.50000000E-01  8.50000000E-01  8.50000000E-01
  8.50000000E-01  8.50000000E-01  8.50000000E-01  8.50000000E-01  8.50000000E-01
  8.50000000E-01  8.50000000E-01  8.50000000E-01  8.50000000E-01  8.50000000E-01
  8.50000000E-01  8.50000000E-01  8.50000000E-01  8.50000000E-01  8.50000000E-01
  8.50000000E-01  8.50000000E-01  8.50000000E-01  8.50000000E-01  8.50000000E-01
  8.50000000E-01  8.50000000E-01  8.50000000E-01  8.50000000E-01  8.50000000E-01
  8.50000000E-01  8.50000000E-01  8.50000000E-01  8.50000000E-01  8.50000000E-01
  8.50000000E-01  8.50000000E-01  8.50000000E-01  8.50000000E-01  8.50000000E-01
  8.50000000E-01  8.50000000E-01  8.50000000E-01  8.50000000E-01  8.50000000E-01
  8.50000000E-01  8.50000000E-01  8.50000000E-01  8.50000000E-01  8.50000000E-01
  8.50000000E-01  8.50000000E-01  8.50000000E-01  8.50000000E-01  8.50000000E-01
  8.50000000E-01  8.50000000E-01  8.50000000E-01  8.50000000E-01  8.50000000E-01
  8.50000000E-01  8.50000000E-01  8.50000000E-01  8.50000000E-01  8.50000000E-01
  8.50000000E-01  8.50000000E-01  8.50000000E-01  8.50000000E-01  8.50000000E-01
  8.50000000E-01  8.50000000E-01  8.50000000E-01  8.50000000E-01  8.50000000E-01
  8.50000000E-01  8.50000000E-01  8.50000000E-01  8.50000000E-01  8.50000000E-01
  8.50000000E-01  8.50000000E-01  8.50000000E-01  8.50000000E-01  8.50000000E-01
  8.50000000E-01  8.50000000E-01  8.50000000E-01  8.50000000E-01  8.50000000E-01
  8.50000000E-01  8.50000000E-01  8.50000000E-01  8.50000000E-01  8.50000000E-01
  8.50000000E-01  8.50000000E-01  8.50000000E-01  8.50000000E-01  8.50000000E-01
  8.50000000E-01  8.50000000E-01  8.50000000E-01  8.50000000E-01  8.50000000E-01
  8.50000000E-01  8.50000000E-01  8.50000000E-01  8.50000000E-01  8.50000000E-01
  8.50000000E-01  8.50000000E-01  8.50000000E-01  8.50000000E-01  8.50000000E-01
  8.50000000E-01  8.50000000E-01  8.50000000E-01  8.50000000E-01  8.50000000E-01
  8.50000000E-01  8.50000000E-01  8.50000000E-01  8.50000000E-01  8.50000000E-01
  8.50000000E-01  8.50000000E-01  8.50000000E-01  8.50000000E-01  8.50000000E-01
  8.50000000E-01  8.50000000E-01  8.50000000E-01  8.50000000E-01  8.50000000E-01
  8.50000000E-01  8.50000000E-01  8.50000000E-01  8.50000000E-01  8.50000000E-01
  8.50000000E-01  8.50000000E-01  8.50000000E-01  8.50000000E-01  8.50000000E-01
  8.50000000E-01  8.50000000E-01  8.50000000E-01  8.50000000E-01  8.50000000E-01
  8.50000000E-01  8.50000000E-01  8.50000000E-01  8.50000000E-01  8.50000000E-01
  8.50000000E-01  8.50000000E-01  8.50000000E-01  8.50000000E-01  8.50000000E-01
  8.50000000E-01  8.50000000E-01  8.50000000E-01  8.50000000E-01  8.50000000E-01
  8.50000000E-01  8.50000000E-01  8.50000000E-01  8.50000000E-01  8.50000000E-01
  8.50000000E-01  8.50000000E-01  8.50000000E-01  8.50000000E-01  8.50000000E-01
  8.50000000E-01  8.50000000E-01  8.50000000E-01  8.50000000E-01  8.50000000E-01
  8.50000000E-01  8.50000000E-01  8.50000000E-01  8.50000000E-01  8.50000000E-01
  8.50000000E-01  8.50000000E-01  8.50000000E-01  8.50000000E-01  8.50000000E-01
  8.50000000E-01  8.50000000E-01  8.50000000E-01  8.50000000E-01  8.50000000E-01
  8.50000000E-01  8.50000000E-01  8.50000000E-01  8.50000000E-01  8.50000000E-01
  8.50000000E-01  8.50000000E-01  8.50000000E-01  8.50000000E-01  8.50000000E-01
  8.50000000E-01  8.50000000E-01  8.50000000E-01  8.50000000E-01  8.50000000E-01
  8.50000000E-01  8.50000000E-01  8.50000000E-01  8.50000000E-01  8.50000000E-01
  8.50000000E-01  8.50000000E-01  8.50000000E-01  8.50000000E-01  8.50000000E-01
  8.50000000E-01  8.50000000E-01  8.50000000E-01  8.50000000E-01  8.50000000E-01
  8.50000000E-01  8.50000000E-01  8.50000000E-01  8.50000000E-01  8.50000000E-01
  8.50000000E-01  8.50000000E-01  8.50000000E-01  8.50000000E-01  8.50000000E-01
  8.50000000E-01  8.50000000E-01  8.50000000E-01  8.50000000E-01  8.50000000E-01
  8.50000000E-01  8.50000000E-01  8.50000000E-01  8.50000000E-01  8.50000000E-01
  8.50000000E-01  8.50000000E-01  8.50000000E-01  8.50000000E-01  8.50000000E-01
  8.50000000E-01  8.50000000E-01  8.50000000E-01  8.50000000E-01  8.50000000E-01
  8.50000000E-01  8.50000000E-01  8.50000000E-01  8.50000000E-01  8.50000000E-01
  8.50000000E-01  8.50000000E-01  8.50000000E-01  8.50000000E-01  8.50000000E-01
  8.50000000E-01  8.50000000E-01  8.50000000E-01  8.50000000E-01  8.50000000E-01
  8.50000000E-01  8.50000000E-01  8.50000000E-01  8.50000000E-01  8.50000000E-01
  8.50000000E-01  8.50000000E-01  8.50000000E-01  8.50000000E-01  8.50000000E-01
  8.50000000E-01  8.50000000E-01  8.50000000E-01  8.50000000E-01  8.50000000E-01
  8.50000000E-01  8.50000000E-01  8.50000000E-01  8.50000000E-01  8.50000000E-01
  8.50000000E-01  8.50000000E-01  8.50000000E-01  8.50000000E-01  8.50000000E-01
  8.50000000E-01  8.50000000E-01  8.50000000E-01  8.50000000E-01  8.50000000E-01
  8.50000000E-01  8.50000000E-01  8.50000000E-01  8.50000000E-01  8.50000000E-01
  8.50000000E-01  8.50000000E-01  8.50000000E-01  8.50000000E-01  8.50000000E-01
  8.50000000E-01  8.50000000E-01  8.50000000E-01  8.50000000E-01  8.50000000E-01
  8.50000000E-01  8.50000000E-01  8.50000000E-01  8.50000000E-01  8.50000000E-01
  8.50000000E-01  8.50000000E-01  8.50000000E-01  8.50000000E-01  8.50000000E-01
  8.50000000E-01  8.50000000E-01  8.50000000E-01  8.50000000E-01  8.50000000E-01
  8.50000000E-01  8.50000000E-01  8.50000000E-01  8.50000000E-01  8.50000000E-01
  8.50000000E-01  8.50000000E-01  8.50000000E-01  8.50000000E-01  8.50000000E-01
  8.50000000E-01  8.50000000E-01  8.50000000E-01  8.50000000E-01  8.50000000E-01
  8.50000000E-01  8.50000000E-01  8.50000000E-01  8.50000000E-01  8.50000000E-01
  8.50000000E-01  8.50000000E-01  8.50000000E-01  8.50000000E-01  8.50000000E-01
  8.50000000E-01  8.50000000E-01  8.50000000E-01  8.50000000E-01  8.50000000E-01
  8.50000000E-01  8.50000000E-01  8.50000000E-01  8.50000000E-01  8.50000000E-01
  8.50000000E-01  8.50000000E-01  8.50000000E-01  8.50000000E-01  8.50000000E-01
  8.50000000E-01  8.50000000E-01  8.50000000E-01  8.50000000E-01  8.50000000E-01
  8.50000000E-01  8.50000000E-01  8.50000000E-01  8.50000000E-01  8.50000000E-01
  8.50000000E-01  8.50000000E-01  8.50000000E-01  8.50000000E-01  8.50000000E-01
  8.50000000E-01  8.50000000E-01  8.50000000E-01  8.50000000E-01  8.50000000E-01
  8.50000000E-01  8.50000000E-01  8.50000000E-01  8.50000000E-01  8.50000000E-01
  8.50000000E-01  8.50000000E-01  8.50000000E-01  8.50000000E-01  8.50000000E-01
  8.50000000E-01  8.50000000E-01  8.50000000E-01  8.50000000E-01  8.50000000E-01
  8.50000000E-01  8.50000000E-01  8.50000000E-01  8.50000000E-01  8.50000000E-01
  8.50000000E-01  8.50000000E-01  8.50000000E-01  8.50000000E-01  8.50000000E-01
  8.50000000E-01  8.50000000E-01  8.50000000E-01  8.50000000E-01  8.50000000E-01
  8.50000000E-01  8.50000000E-01  8.50000000E-01  8.50000000E-01  8.50000000E-01
  8.50000000E-01  8.50000000E-01  8.50000000E-01  8.50000000E-01  8.50000000E-01
  8.50000000E-01  8.50000000E-01  8.50000000E-01  8.50000000E-01  8.50000000E-01
  8.50000000E-01  8.50000000E-01  8.50000000E-01  8.50000000E-01  8.50000000E-01
  8.50000000E-01  8.50000000E-01  8.50000000E-01  8.50000000E-01  8.50000000E-01
  8.50000000E-01  8.50000000E-01  8.50000000E-01  8.50000000E-01  8.50000000E-01
  8.50000000E-01  8.50000000E-01  8.50000000E-01  8.50000000E-01  8.50000000E-01
  8.50000000E-01  8.50000000E-01  8.50000000E-01  8.50000000E-01  8.50000000E-01
  8.50000000E-01  8.50000000E-01  8.50000000E-01  8.50000000E-01  8.50000000E-01
  8.50000000E-01  8.50000000E-01  8.50000000E-01  8.50000000E-01  8.50000000E-01
  8.50000000E-01  8.50000000E-01  8.50000000E-01  8.50000000E-01  8.50000000E-01
  8.50000000E-01  8.50000000E-01  8.50000000E-01  8.50000000E-01  8.50000000E-01
  8.50000000E-01  8.50000000E-01  8.50000000E-01  8.50000000E-01  8.50000000E-01
  8.50000000E-01  8.50000000E-01  8.50000000E-01  8.50000000E-01  8.50000000E-01
  8.50000000E-01  8.50000000E-01  8.50000000E-01  8.50000000E-01  8.50000000E-01
  8.50000000E-01  8.50000000E-01  8.50000000E-01  8.50000000E-01  8.50000000E-01
  8.50000000E-01  8.50000000E-01  8.50000000E-01  8.50000000E-01  8.50000000E-01
  8.50000000E-01  8.50000000E-01  8.50000000E-01  8.50000000E-01  8.50000000E-01
  8.50000000E-01  8.50000000E-01  8.50000000E-01  8.50000000E-01  8.50000000E-01
  8.50000000E-01  8.50000000E-01  8.50000000E-01  8.50000000E-01  8.50000000E-01
  8.50000000E-01  8.50000000E-01  8.50000000E-01  8.50000000E-01  8.50000000E-01
  8.50000000E-01  8.50000000E-01  8.50000000E-01  8.50000000E-01  8.50000000E-01
  8.50000000E-01  8.50000000E-01  8.50000000E-01  8.50000000E-01  8.50000000E-01
  8.50000000E-01  8.50000000E-01  8.50000000E-01  8.50000000E-01  8.50000000E-01
  8.50000000E-01  8.50000000E-01  8.50000000E-01  8.50000000E-01  8.50000000E-01
  8.50000000E-01  8.50000000E-01  8.50000000E-01  8.50000000E-01  8.50000000E-01
  8.50000000E-01  8.50000000E-01  8.50000000E-01  8.50000000E-01  8.50000000E-01
  8.50000000E-01  8.50000000E-01  8.50000000E-01  8.50000000E-01  8.50000000E-01
  8.50000000E-01  8.50000000E-01  8.50000000E-01  8.50000000E-01  8.50000000E-01
  8.50000000E-01  8.50000000E-01  8.50000000E-01  8.50000000E-01  8.50000000E-01
  8.50000000E-01  8.50000000E-01  8.50000000E-01  8.50000000E-01  8.50000000E-01
  8.50000000E-01  8.50000000E-01  8.50000000E-01  8.50000000E-01  8.50000000E-01
  8.50000000E-01  8.50000000E-01  8.50000000E-01  8.50000000E-01  8.50000000E-01
  8.50000000E-01  8.50000000E-01  8.50000000E-01  8.50000000E-01  8.50000000E-01
  8.50000000E-01  8.50000000E-01  8.50000000E-01  8.50000000E-01  8.50000000E-01
  8.50000000E-01  8.50000000E-01  8.50000000E-01  8.50000000E-01  8.50000000E-01
  8.50000000E-01  8.50000000E-01  8.50000000E-01  8.50000000E-01  8.50000000E-01
  8.50000000E-01  8.50000000E-01  8.50000000E-01  8.50000000E-01  8.50000000E-01
  8.50000000E-01  8.50000000E-01  8.50000000E-01  8.50000000E-01  8.50000000E-01
  8.50000000E-01  8.50000000E-01  8.50000000E-01  8.50000000E-01  8.50000000E-01
  8.50000000E-01  8.50000000E-01  8.50000000E-01  8.50000000E-01  8.50000000E-01
  8.50000000E-01  8.50000000E-01  8.50000000E-01  8.50000000E-01  8.50000000E-01
  8.50000000E-01  8.50000000E-01  8.50000000E-01  8.50000000E-01  8.50000000E-01
  8.50000000E-01  8.50000000E-01  8.50000000E-01  8.50000000E-01  8.50000000E-01
  8.50000000E-01  8.50000000E-01  8.50000000E-01  8.50000000E-01  8.50000000E-01
  8.50000000E-01  8.50000000E-01  8.50000000E-01  8.50000000E-01  8.50000000E-01
  8.50000000E-01  8.50000000E-01  8.50000000E-01  8.50000000E-01  8.50000000E-01
  8.50000000E-01  8.50000000E-01  8.50000000E-01  8.50000000E-01  8.50000000E-01
  8.50000000E-01  8.50000000E-01  8.50000000E-01  8.50000000E-01  8.50000000E-01
  8.50000000E-01  8.50000000E-01  8.50000000E-01  8.50000000E-01  8.50000000E-01
  8.50000000E-01  8.50000000E-01  8.50000000E-01  8.50000000E-01  8.50000000E-01
  8.50000000E-01  8.50000000E-01  8.50000000E-01  8.50000000E-01  8.50000000E-01
  8.50000000E-01  8.50000000E-01  8.50000000E-01  8.50000000E-01  8.50000000E-01
  8.50000000E-01  8.50000000E-01  8.50000000E-01  8.50000000E-01  8.50000000E-01
  8.50000000E-01  8.50000000E-01  8.50000000E-01  8.50000000E-01  8.50000000E-01
  8.50000000E-01  8.50000000E-01  8.50000000E-01  8.50000000E-01  8.50000000E-01
  8.50000000E-01  8.50000000E-01  8.50000000E-01  8.50000000E-01  8.50000000E-01
  8.50000000E-01  8.50000000E-01  8.50000000E-01  8.50000000E-01  8.50000000E-01
  8.50000000E-01  8.50000000E-01  8.50000000E-01  8.50000000E-01  8.50000000E-01
  8.50000000E-01  8.50000000E-01  8.50000000E-01  8.50000000E-01  8.50000000E-01
  8.50000000E-01  8.50000000E-01  8.50000000E-01  8.50000000E-01  8.50000000E-01
  8.50000000E-01  8.50000000E-01  8.50000000E-01  8.50000000E-01  8.50000000E-01
  8.50000000E-01  8.50000000E-01  8.50000000E-01  8.50000000E-01  8.50000000E-01
  8.50000000E-01  8.50000000E-01  8.50000000E-01  8.50000000E-01  8.50000000E-01
  8.50000000E-01  8.50000000E-01  8.50000000E-01  8.50000000E-01  8.50000000E-01
  8.50000000E-01  8.50000000E-01  8.50000000E-01  8.50000000E-01  8.50000000E-01
  8.50000000E-01  8.50000000E-01  8.50000000E-01  8.50000000E-01  8.50000000E-01
  8.50000000E-01  8.50000000E-01  8.50000000E-01  8.50000000E-01  8.50000000E-01
  8.50000000E-01  8.50000000E-01  8.50000000E-01  8.50000000E-01  8.50000000E-01
  8.50000000E-01  8.50000000E-01  8.50000000E-01  8.50000000E-01  8.50000000E-01
  8.50000000E-01  8.50000000E-01  8.50000000E-01  8.50000000E-01  8.50000000E-01
  8.50000000E-01  8.50000000E-01  8.50000000E-01  8.50000000E-01  8.50000000E-01
  8.50000000E-01  8.50000000E-01  8.50000000E-01  8.50000000E-01  8.50000000E-01
  8.50000000E-01  8.50000000E-01  8.50000000E-01  8.50000000E-01  8.50000000E-01
  8.50000000E-01  8.50000000E-01  8.50000000E-01  8.50000000E-01  8.50000000E-01
  8.50000000E-01  8.50000000E-01  8.50000000E-01  8.50000000E-01  8.50000000E-01
  8.50000000E-01  8.50000000E-01  8.50000000E-01  8.50000000E-01  8.50000000E-01
  8.50000000E-01  8.50000000E-01  8.50000000E-01  8.50000000E-01  8.50000000E-01
  8.50000000E-01  8.50000000E-01  8.50000000E-01  8.50000000E-01  8.50000000E-01
  8.50000000E-01  8.50000000E-01  8.50000000E-01  8.50000000E-01  8.50000000E-01
  8.50000000E-01  8.50000000E-01  8.50000000E-01  8.50000000E-01  8.50000000E-01
  8.50000000E-01  8.50000000E-01  8.50000000E-01  8.50000000E-01  8.50000000E-01
  8.50000000E-01  8.50000000E-01  8.50000000E-01  8.50000000E-01  8.50000000E-01
  8.50000000E-01  8.50000000E-01  8.50000000E-01  8.50000000E-01  8.50000000E-01
  8.50000000E-01  8.50000000E-01  8.50000000E-01  8.50000000E-01  8.50000000E-01
  8.50000000E-01  8.50000000E-01  8.50000000E-01  8.50000000E-01  8.50000000E-01
  8.50000000E-01  8.50000000E-01  8.50000000E-01  8.50000000E-01  8.50000000E-01
  8.50000000E-01  8.50000000E-01  8.50000000E-01  8.50000000E-01  8.50000000E-01
  8.50000000E-01  8.50000000E-01  8.50000000E-01  8.50000000E-01  8.50000000E-01
  8.50000000E-01  8.50000000E-01  8.50000000E-01  8.50000000E-01  8.50000000E-01
  8.50000000E-01  8.50000000E-01  8.50000000E-01  8.50000000E-01  8.50000000E-01
  8.50000000E-01  8.50000000E-01  8.50000000E-01  8.50000000E-01  8.50000000E-01
  8.50000000E-01  8.50000000E-01  8.50000000E-01  8.50000000E-01  8.50000000E-01
  8.50000000E-01  8.50000000E-01  8.50000000E-01  8.50000000E-01  8.50000000E-01
  8.50000000E-01  8.50000000E-01  8.50000000E-01  8.50000000E-01  8.50000000E-01
  8.50000000E-01  8.50000000E-01  8.50000000E-01  8.50000000E-01  8.50000000E-01
  8.50000000E-01  8.50000000E-01  8.50000000E-01  8.50000000E-01  8.50000000E-01
  8.50000000E-01  8.50000000E-01  8.50000000E-01  8.50000000E-01  8.50000000E-01
  8.50000000E-01  8.50000000E-01  8.50000000E-01  8.50000000E-01  8.50000000E-01
  8.50000000E-01  8.50000000E-01  8.50000000E-01  8.50000000E-01  8.50000000E-01
  8.50000000E-01  8.50000000E-01  8.50000000E-01  8.50000000E-01  8.50000000E-01
  8.50000000E-01  8.50000000E-01  8.50000000E-01  8.50000000E-01  8.50000000E-01
  8.50000000E-01  8.50000000E-01  8.50000000E-01  8.50000000E-01  8.50000000E-01
  8.50000000E-01  8.50000000E-01  8.50000000E-01  8.50000000E-01  8.50000000E-01
  8.50000000E-01  8.50000000E-01  8.50000000E-01  8.50000000E-01  8.50000000E-01
  8.50000000E-01  8.50000000E-01  8.50000000E-01  8.50000000E-01  8.50000000E-01
  8.50000000E-01  8.50000000E-01  8.50000000E-01  8.50000000E-01  8.50000000E-01
  8.50000000E-01  8.50000000E-01  8.50000000E-01  8.50000000E-01  8.50000000E-01
  8.50000000E-01  8.50000000E-01  8.50000000E-01  8.50000000E-01  8.50000000E-01
  8.50000000E-01  8.50000000E-01  8.50000000E-01  8.50000000E-01  8.50000000E-01
  8.50000000E-01  8.50000000E-01  8.50000000E-01  8.50000000E-01  8.50000000E-01
  8.50000000E-01  8.50000000E-01  8.50000000E-01  8.50000000E-01  8.50000000E-01
  8.50000000E-01  8.50000000E-01  8.50000000E-01  8.50000000E-01  8.50000000E-01
  8.50000000E-01  8.50000000E-01  8.50000000E-01  8.50000000E-01  8.50000000E-01
  8.50000000E-01  8.50000000E-01  8.50000000E-01  8.50000000E-01  8.50000000E-01
  8.50000000E-01  8.50000000E-01  8.50000000E-01  8.50000000E-01  8.50000000E-01
  8.50000000E-01  8.50000000E-01  8.50000000E-01  8.50000000E-01  8.50000000E-01
  8.50000000E-01  8.50000000E-01  8.50000000E-01  8.50000000E-01  8.50000000E-01
  8.50000000E-01  8.50000000E-01  8.50000000E-01  8.50000000E-01  8.50000000E-01
  8.50000000E-01  8.50000000E-01  8.50000000E-01  8.50000000E-01  8.50000000E-01
  8.50000000E-01  8.50000000E-01  8.50000000E-01  8.50000000E-01  8.50000000E-01
  8.50000000E-01  8.50000000E-01  8.50000000E-01  8.50000000E-01  8.50000000E-01
  8.50000000E-01  8.50000000E-01  8.50000000E-01  8.50000000E-01  8.50000000E-01
  8.50000000E-01  8.50000000E-01  8.50000000E-01  8.50000000E-01  8.50000000E-01
  8.50000000E-01  8.50000000E-01  8.50000000E-01  8.50000000E-01  8.50000000E-01
  8.50000000E-01  8.50000000E-01  8.50000000E-01  8.50000000E-01  8.50000000E-01
  8.50000000E-01  8.50000000E-01  8.50000000E-01  8.50000000E-01  8.50000000E-01
  8.50000000E-01  8.50000000E-01  8.50000000E-01  8.50000000E-01  8.50000000E-01
  8.50000000E-01  8.50000000E-01  8.50000000E-01  8.50000000E-01  8.50000000E-01
  8.50000000E-01  8.50000000E-01  8.50000000E-01  8.50000000E-01  8.50000000E-01
  8.50000000E-01  8.50000000E-01  8.50000000E-01  8.50000000E-01  8.50000000E-01
  8.50000000E-01  8.50000000E-01  8.50000000E-01  8.50000000E-01  8.50000000E-01
  8.50000000E-01  8.50000000E-01  8.50000000E-01  8.50000000E-01  8.50000000E-01
  8.50000000E-01  8.50000000E-01  8.50000000E-01  8.50000000E-01  8.50000000E-01
  8.50000000E-01  8.50000000E-01  8.50000000E-01  8.50000000E-01  8.50000000E-01
  8.50000000E-01  8.50000000E-01  8.50000000E-01  8.50000000E-01  8.50000000E-01
  8.50000000E-01  8.50000000E-01  8.50000000E-01  8.50000000E-01  8.50000000E-01
  8.50000000E-01  8.50000000E-01  8.50000000E-01  8.50000000E-01  8.50000000E-01
  8.50000000E-01  8.50000000E-01  8.50000000E-01  8.50000000E-01  8.50000000E-01
  8.50000000E-01  8.50000000E-01  8.50000000E-01  8.50000000E-01  8.50000000E-01
  8.50000000E-01  8.50000000E-01  8.50000000E-01  8.50000000E-01  8.50000000E-01
  8.50000000E-01  8.50000000E-01  8.50000000E-01  8.50000000E-01  8.50000000E-01
  8.50000000E-01  8.50000000E-01  8.50000000E-01  8.50000000E-01  8.50000000E-01
  8.50000000E-01  8.50000000E-01  8.50000000E-01  8.50000000E-01  8.50000000E-01
  8.50000000E-01  8.50000000E-01  8.50000000E-01  8.50000000E-01  8.50000000E-01
  8.50000000E-01  8.50000000E-01  8.50000000E-01  8.50000000E-01  8.50000000E-01
  8.50000000E-01  8.50000000E-01  8.50000000E-01  8.50000000E-01  8.50000000E-01
  8.50000000E-01  8.50000000E-01  8.50000000E-01  8.50000000E-01  8.50000000E-01
  8.50000000E-01  8.50000000E-01  8.50000000E-01  8.50000000E-01  8.50000000E-01
  8.50000000E-01  8.50000000E-01  8.50000000E-01  8.50000000E-01  8.50000000E-01
  8.50000000E-01  8.50000000E-01  8.50000000E-01  8.50000000E-01  8.50000000E-01
  8.50000000E-01  8.50000000E-01  8.50000000E-01  8.50000000E-01  8.50000000E-01
  8.50000000E-01  8.50000000E-01  8.50000000E-01  8.50000000E-01  8.50000000E-01
  8.50000000E-01  8.50000000E-01  8.50000000E-01  8.50000000E-01  8.50000000E-01
  8.50000000E-01  8.50000000E-01  8.50000000E-01  8.50000000E-01  8.50000000E-01
  8.50000000E-01  8.50000000E-01  8.50000000E-01  8.50000000E-01  8.50000000E-01
  8.50000000E-01  8.50000000E-01  8.50000000E-01  8.50000000E-01  8.50000000E-01
  8.50000000E-01  8.50000000E-01  8.50000000E-01  8.50000000E-01  8.50000000E-01
  8.50000000E-01  8.50000000E-01  8.50000000E-01  8.50000000E-01  8.50000000E-01
  8.50000000E-01  8.50000000E-01  8.50000000E-01  8.50000000E-01  8.50000000E-01
  8.50000000E-01  8.50000000E-01  8.50000000E-01  8.50000000E-01  8.50000000E-01
  8.50000000E-01  8.50000000E-01  8.50000000E-01  8.50000000E-01  8.50000000E-01
  8.50000000E-01  8.50000000E-01  8.50000000E-01  8.50000000E-01  8.50000000E-01
  8.50000000E-01  8.50000000E-01  8.50000000E-01  8.50000000E-01  8.50000000E-01
  8.50000000E-01  8.50000000E-01  8.50000000E-01  8.50000000E-01  8.50000000E-01
  8.50000000E-01  8.50000000E-01  8.50000000E-01  8.50000000E-01  8.50000000E-01
  8.50000000E-01  8.50000000E-01  8.50000000E-01  8.50000000E-01  8.50000000E-01
  8.50000000E-01  8.50000000E-01  8.50000000E-01  8.50000000E-01  8.50000000E-01
  8.50000000E-01  8.50000000E-01  8.50000000E-01  8.50000000E-01  8.50000000E-01
  8.50000000E-01  8.50000000E-01  8.50000000E-01  8.50000000E-01  8.50000000E-01
  8.50000000E-01  8.50000000E-01  8.50000000E-01  8.50000000E-01  8.50000000E-01
  8.50000000E-01  8.50000000E-01  8.50000000E-01  8.50000000E-01  8.50000000E-01
  8.50000000E-01  8.50000000E-01  8.50000000E-01  8.50000000E-01  8.50000000E-01
  8.50000000E-01  8.50000000E-01  8.50000000E-01  8.50000000E-01  8.50000000E-01
  8.50000000E-01  8.50000000E-01  8.50000000E-01  8.50000000E-01  8.50000000E-01
  8.50000000E-01  8.50000000E-01  8.50000000E-01  8.50000000E-01  8.50000000E-01
  8.50000000E-01  8.50000000E-01  8.50000000E-01  8.50000000E-01  8.50000000E-01
  8.50000000E-01  8.50000000E-01  8.50000000E-01  8.50000000E-01  8.50000000E-01
  8.50000000E-01  8.50000000E-01  8.50000000E-01  8.50000000E-01  8.50000000E-01
  8.50000000E-01  8.50000000E-01  8.50000000E-01  8.50000000E-01  8.50000000E-01
  8.50000000E-01  8.50000000E-01  8.50000000E-01  8.50000000E-01  8.50000000E-01
  8.50000000E-01  8.50000000E-01  8.50000000E-01  8.50000000E-01  8.50000000E-01
  8.50000000E-01  8.50000000E-01  8.50000000E-01  8.50000000E-01  8.50000000E-01
  8.50000000E-01  8.50000000E-01  8.50000000E-01  8.50000000E-01  8.50000000E-01
  8.50000000E-01  8.50000000E-01  8.50000000E-01  8.50000000E-01  8.50000000E-01
  8.50000000E-01  8.50000000E-01  8.50000000E-01  8.50000000E-01  8.50000000E-01
  8.50000000E-01  8.50000000E-01  8.50000000E-01  8.50000000E-01  8.50000000E-01
  8.50000000E-01  8.50000000E-01  8.50000000E-01  8.50000000E-01  8.50000000E-01
  8.50000000E-01  8.50000000E-01  8.50000000E-01  8.50000000E-01  8.50000000E-01
  8.50000000E-01  8.50000000E-01  8.50000000E-01  8.50000000E-01  8.50000000E-01
  8.50000000E-01  8.50000000E-01  8.50000000E-01  8.50000000E-01  8.50000000E-01
  8.50000000E-01  8.50000000E-01  8.50000000E-01  8.50000000E-01  8.50000000E-01
  8.50000000E-01  8.50000000E-01  8.50000000E-01  8.50000000E-01  8.50000000E-01
  8.50000000E-01  8.50000000E-01  8.50000000E-01  8.50000000E-01  8.50000000E-01
  8.50000000E-01  8.50000000E-01  8.50000000E-01  8.50000000E-01  8.50000000E-01
  8.50000000E-01  8.50000000E-01  8.50000000E-01  8.50000000E-01  8.50000000E-01
  8.50000000E-01  8.50000000E-01  8.50000000E-01  8.50000000E-01  8.50000000E-01
  8.50000000E-01  8.50000000E-01  8.50000000E-01  8.50000000E-01  8.50000000E-01
  8.50000000E-01  8.50000000E-01  8.50000000E-01  8.50000000E-01  8.50000000E-01
  8.50000000E-01  8.50000000E-01  8.50000000E-01  8.50000000E-01  8.50000000E-01
  8.50000000E-01  8.50000000E-01  8.50000000E-01  8.50000000E-01  8.50000000E-01
  8.50000000E-01  8.50000000E-01  8.50000000E-01  8.50000000E-01  8.50000000E-01
  8.50000000E-01  8.50000000E-01  8.50000000E-01  8.50000000E-01  8.50000000E-01
  8.50000000E-01  8.50000000E-01  8.50000000E-01  8.50000000E-01  8.50000000E-01
  8.50000000E-01  8.50000000E-01  8.50000000E-01  8.50000000E-01  8.50000000E-01
  8.50000000E-01  8.50000000E-01  8.50000000E-01  8.50000000E-01  8.50000000E-01
  8.50000000E-01  8.50000000E-01  8.50000000E-01  8.50000000E-01  8.50000000E-01
  8.50000000E-01  8.50000000E-01  8.50000000E-01  8.50000000E-01  8.50000000E-01
  8.50000000E-01  8.50000000E-01  8.50000000E-01  8.50000000E-01  8.50000000E-01
  8.50000000E-01  8.50000000E-01  8.50000000E-01  8.50000000E-01  8.50000000E-01
  8.50000000E-01  8.50000000E-01  8.50000000E-01  8.50000000E-01  8.50000000E-01
  8.50000000E-01  8.50000000E-01  8.50000000E-01  8.50000000E-01  8.50000000E-01
  8.50000000E-01  8.50000000E-01  8.50000000E-01  8.50000000E-01  8.50000000E-01
  8.50000000E-01  8.50000000E-01  8.50000000E-01  8.50000000E-01  8.50000000E-01
  8.50000000E-01  8.50000000E-01  8.50000000E-01  8.50000000E-01  8.50000000E-01
  8.50000000E-01  8.50000000E-01  8.50000000E-01  8.50000000E-01  8.50000000E-01
  8.50000000E-01  8.50000000E-01  8.50000000E-01  8.50000000E-01  8.50000000E-01
  8.50000000E-01  8.50000000E-01  8.50000000E-01  8.50000000E-01  8.50000000E-01
  8.50000000E-01  8.50000000E-01  8.50000000E-01  8.50000000E-01  8.50000000E-01
  8.50000000E-01  8.50000000E-01  8.50000000E-01  8.50000000E-01  8.50000000E-01
  8.50000000E-01  8.50000000E-01  8.50000000E-01  8.50000000E-01  8.50000000E-01
  8.50000000E-01  8.50000000E-01  8.50000000E-01  8.50000000E-01  8.50000000E-01
  8.50000000E-01  8.50000000E-01  8.50000000E-01  8.50000000E-01  8.50000000E-01
  8.50000000E-01  8.50000000E-01  8.50000000E-01  8.50000000E-01  8.50000000E-01
  8.50000000E-01  8.50000000E-01  8.50000000E-01  8.50000000E-01  8.50000000E-01
  8.50000000E-01  8.50000000E-01  8.50000000E-01  8.50000000E-01  8.50000000E-01
  8.50000000E-01  8.50000000E-01  8.50000000E-01  8.50000000E-01  8.50000000E-01
  8.50000000E-01  8.50000000E-01  8.50000000E-01  8.50000000E-01  8.50000000E-01
  8.50000000E-01  8.50000000E-01  8.50000000E-01  8.50000000E-01  8.50000000E-01
  8.50000000E-01  8.50000000E-01  8.50000000E-01  8.50000000E-01  8.50000000E-01
  8.50000000E-01  8.50000000E-01  8.50000000E-01  8.50000000E-01  8.50000000E-01
  8.50000000E-01  8.50000000E-01  8.50000000E-01  8.50000000E-01  8.50000000E-01
  8.50000000E-01  8.50000000E-01  8.50000000E-01  8.50000000E-01  8.50000000E-01
  8.50000000E-01  8.50000000E-01  8.50000000E-01  8.50000000E-01  8.50000000E-01
  8.50000000E-01  8.50000000E-01  8.50000000E-01  8.50000000E-01  8.50000000E-01
  8.50000000E-01  8.50000000E-01  8.50000000E-01  8.50000000E-01  8.50000000E-01
  8.50000000E-01  8.50000000E-01  8.50000000E-01  8.50000000E-01  8.50000000E-01
  8.50000000E-01  8.50000000E-01  8.50000000E-01  8.50000000E-01  8.50000000E-01
  8.50000000E-01  8.50000000E-01  8.50000000E-01  8.50000000E-01  8.50000000E-01
  8.50000000E-01  8.50000000E-01  8.50000000E-01  8.50000000E-01  8.50000000E-01
  8.50000000E-01  8.50000000E-01  8.50000000E-01  8.50000000E-01  8.50000000E-01
  8.50000000E-01  8.50000000E-01  8.50000000E-01  8.50000000E-01  8.50000000E-01
  8.50000000E-01  8.50000000E-01  8.50000000E-01  8.50000000E-01  8.50000000E-01
  8.50000000E-01  8.50000000E-01  8.50000000E-01  8.50000000E-01  8.50000000E-01
  8.50000000E-01  8.50000000E-01  8.50000000E-01  8.50000000E-01  8.50000000E-01
  8.50000000E-01  8.50000000E-01  8.50000000E-01  8.50000000E-01  8.50000000E-01
  8.50000000E-01  8.50000000E-01  8.50000000E-01  8.50000000E-01  8.50000000E-01
  8.50000000E-01  8.50000000E-01  8.50000000E-01  8.50000000E-01  8.50000000E-01
  8.50000000E-01  8.50000000E-01  8.50000000E-01  8.50000000E-01  8.50000000E-01
  8.50000000E-01  8.50000000E-01  8.50000000E-01  8.50000000E-01  8.50000000E-01
  8.50000000E-01  8.50000000E-01  8.50000000E-01  8.50000000E-01  8.50000000E-01
  8.50000000E-01  8.50000000E-01  8.50000000E-01  8.50000000E-01  8.50000000E-01
  8.50000000E-01  8.50000000E-01  8.50000000E-01  8.50000000E-01  8.50000000E-01
  8.50000000E-01  8.50000000E-01  8.50000000E-01  8.50000000E-01  8.50000000E-01
  8.50000000E-01  8.50000000E-01  8.50000000E-01  8.50000000E-01  8.50000000E-01
  8.50000000E-01  8.50000000E-01  8.50000000E-01  8.50000000E-01  8.50000000E-01
  8.50000000E-01  8.50000000E-01  8.50000000E-01  8.50000000E-01  8.50000000E-01
  8.50000000E-01  8.50000000E-01  8.50000000E-01  8.50000000E-01  8.50000000E-01
  8.50000000E-01  8.50000000E-01  8.50000000E-01  8.50000000E-01  8.50000000E-01
  8.50000000E-01  8.50000000E-01  8.50000000E-01  8.50000000E-01  8.50000000E-01
  8.50000000E-01  8.50000000E-01  8.50000000E-01  8.50000000E-01  8.50000000E-01
  8.50000000E-01  8.50000000E-01  8.50000000E-01  8.50000000E-01  8.50000000E-01
  8.50000000E-01  8.50000000E-01  8.50000000E-01  8.50000000E-01  8.50000000E-01
  8.50000000E-01  8.50000000E-01  8.50000000E-01  8.50000000E-01  8.50000000E-01
  8.50000000E-01  8.50000000E-01  8.50000000E-01  8.50000000E-01  8.50000000E-01
  8.50000000E-01  8.50000000E-01  8.50000000E-01  8.50000000E-01  8.50000000E-01
  8.50000000E-01  8.50000000E-01  8.50000000E-01  8.50000000E-01  8.50000000E-01
  8.50000000E-01  8.50000000E-01  8.50000000E-01  8.50000000E-01  8.50000000E-01
  8.50000000E-01  8.50000000E-01  8.50000000E-01  8.50000000E-01  8.50000000E-01
  8.50000000E-01  8.50000000E-01  8.50000000E-01  8.50000000E-01  8.50000000E-01
  8.50000000E-01  8.50000000E-01  8.50000000E-01  8.50000000E-01  8.50000000E-01
  8.50000000E-01  8.50000000E-01  8.50000000E-01  8.50000000E-01  8.50000000E-01
  8.50000000E-01  8.50000000E-01  8.50000000E-01  8.50000000E-01  8.50000000E-01
  8.50000000E-01  8.50000000E-01  8.50000000E-01  8.50000000E-01  8.50000000E-01
  8.50000000E-01  8.50000000E-01  8.50000000E-01  8.50000000E-01  8.50000000E-01
  8.50000000E-01  8.50000000E-01  8.50000000E-01  8.50000000E-01  8.50000000E-01
  8.50000000E-01  8.50000000E-01  8.50000000E-01  8.50000000E-01  8.50000000E-01
  8.50000000E-01  8.50000000E-01  8.50000000E-01  8.50000000E-01  8.50000000E-01
  8.50000000E-01  8.50000000E-01  8.50000000E-01  8.50000000E-01  8.50000000E-01
  8.50000000E-01  8.50000000E-01  8.50000000E-01  8.50000000E-01  8.50000000E-01
  8.50000000E-01  8.50000000E-01  8.50000000E-01  8.50000000E-01  8.50000000E-01
  8.50000000E-01  8.50000000E-01  8.50000000E-01  8.50000000E-01  8.50000000E-01
  8.50000000E-01  8.50000000E-01  8.50000000E-01  8.50000000E-01  8.50000000E-01
  8.50000000E-01  8.50000000E-01  8.50000000E-01  8.50000000E-01  8.50000000E-01
  8.50000000E-01  8.50000000E-01  8.50000000E-01  8.50000000E-01  8.50000000E-01
  8.50000000E-01  8.50000000E-01  8.50000000E-01  8.50000000E-01  8.50000000E-01
  8.50000000E-01  8.50000000E-01  8.50000000E-01  8.50000000E-01  8.50000000E-01
  8.50000000E-01  8.50000000E-01  8.50000000E-01  8.50000000E-01  8.50000000E-01
  8.50000000E-01  8.50000000E-01  8.50000000E-01  8.50000000E-01  8.50000000E-01
  8.50000000E-01  8.50000000E-01  8.50000000E-01  8.50000000E-01  8.50000000E-01
  8.50000000E-01  8.50000000E-01  8.50000000E-01  8.50000000E-01  8.50000000E-01
  8.50000000E-01  8.50000000E-01  8.50000000E-01  8.50000000E-01  8.50000000E-01
  8.50000000E-01  8.50000000E-01  8.50000000E-01  8.50000000E-01  8.50000000E-01
  8.50000000E-01  8.50000000E-01  8.50000000E-01  8.50000000E-01  8.50000000E-01
  8.50000000E-01  8.50000000E-01  8.50000000E-01  8.50000000E-01  8.50000000E-01
  8.50000000E-01  8.50000000E-01  8.50000000E-01  8.50000000E-01  8.50000000E-01
  8.50000000E-01  8.50000000E-01  8.50000000E-01  8.50000000E-01  8.50000000E-01
  8.50000000E-01  8.50000000E-01  8.50000000E-01  8.50000000E-01  8.50000000E-01
  8.50000000E-01  8.50000000E-01  8.50000000E-01  8.50000000E-01  8.50000000E-01
  8.50000000E-01  8.50000000E-01  8.50000000E-01  8.50000000E-01  8.50000000E-01
  8.50000000E-01  8.50000000E-01  8.50000000E-01  8.50000000E-01  8.50000000E-01
  8.50000000E-01  8.50000000E-01  8.50000000E-01  8.50000000E-01  8.50000000E-01
  8.50000000E-01  8.50000000E-01  8.50000000E-01  8.50000000E-01  8.50000000E-01
  8.50000000E-01  8.50000000E-01  8.50000000E-01  8.50000000E-01  8.50000000E-01
  8.50000000E-01  8.50000000E-01  8.50000000E-01  8.50000000E-01  8.50000000E-01
  8.50000000E-01  8.50000000E-01  8.50000000E-01  8.50000000E-01  8.50000000E-01
  8.50000000E-01  8.50000000E-01  8.50000000E-01  8.50000000E-01  8.50000000E-01
  8.50000000E-01  8.50000000E-01  8.50000000E-01  8.50000000E-01  8.50000000E-01
  8.50000000E-01  8.50000000E-01  8.50000000E-01  8.50000000E-01  8.50000000E-01
  8.50000000E-01  8.50000000E-01  8.50000000E-01  8.50000000E-01  8.50000000E-01
  8.50000000E-01  8.50000000E-01  8.50000000E-01  8.50000000E-01  8.50000000E-01
  8.50000000E-01  8.50000000E-01  8.50000000E-01  8.50000000E-01  8.50000000E-01
  8.50000000E-01  8.50000000E-01  8.50000000E-01  8.50000000E-01  8.50000000E-01
  8.50000000E-01  8.50000000E-01  8.50000000E-01  8.50000000E-01  8.50000000E-01
  8.50000000E-01  8.50000000E-01  8.50000000E-01  8.50000000E-01  8.50000000E-01
  8.50000000E-01  8.50000000E-01  8.50000000E-01  8.50000000E-01  8.50000000E-01
  8.50000000E-01  8.50000000E-01  8.50000000E-01  8.50000000E-01  8.50000000E-01
  8.50000000E-01  8.50000000E-01  8.50000000E-01  8.50000000E-01  8.50000000E-01
  8.50000000E-01  8.50000000E-01  8.50000000E-01  8.50000000E-01  8.50000000E-01
  8.50000000E-01  8.50000000E-01  8.50000000E-01  8.50000000E-01  8.50000000E-01
  8.50000000E-01  8.50000000E-01  8.50000000E-01  8.50000000E-01  8.50000000E-01
  8.50000000E-01  8.50000000E-01  8.50000000E-01  8.50000000E-01  8.50000000E-01
  8.50000000E-01  8.50000000E-01  8.50000000E-01  8.50000000E-01  8.50000000E-01
  8.50000000E-01  8.50000000E-01  8.50000000E-01  8.50000000E-01  8.50000000E-01
  8.50000000E-01  8.50000000E-01  8.50000000E-01  8.50000000E-01  8.50000000E-01
  8.50000000E-01  8.50000000E-01  8.50000000E-01  8.50000000E-01  8.50000000E-01
  8.50000000E-01  8.50000000E-01  8.50000000E-01  8.50000000E-01  8.50000000E-01
  8.50000000E-01  8.50000000E-01  8.50000000E-01  8.50000000E-01  8.50000000E-01
  8.50000000E-01  8.50000000E-01  8.50000000E-01  8.50000000E-01  8.50000000E-01
  8.50000000E-01  8.50000000E-01  8.50000000E-01  8.50000000E-01  8.50000000E-01
  8.50000000E-01  8.50000000E-01  8.50000000E-01  8.50000000E-01  8.50000000E-01
  8.50000000E-01  8.50000000E-01  8.50000000E-01  8.50000000E-01  8.50000000E-01
  8.50000000E-01  8.50000000E-01  8.50000000E-01  8.50000000E-01  8.50000000E-01
  8.50000000E-01  8.50000000E-01  8.50000000E-01  8.50000000E-01  8.50000000E-01
  8.50000000E-01  8.50000000E-01  8.50000000E-01  8.50000000E-01  8.50000000E-01
  8.50000000E-01  8.50000000E-01  8.50000000E-01  8.50000000E-01  8.50000000E-01
  8.50000000E-01  8.50000000E-01  8.50000000E-01  8.50000000E-01  8.50000000E-01
  8.50000000E-01  8.50000000E-01  8.50000000E-01  8.50000000E-01  8.50000000E-01
  8.50000000E-01  8.50000000E-01  8.50000000E-01  8.50000000E-01  8.50000000E-01
  8.50000000E-01  8.50000000E-01  8.50000000E-01  8.50000000E-01  8.50000000E-01
  8.50000000E-01  8.50000000E-01  8.50000000E-01  8.50000000E-01  8.50000000E-01
  8.50000000E-01  8.50000000E-01  8.50000000E-01  8.50000000E-01  8.50000000E-01
  8.50000000E-01  8.50000000E-01  8.50000000E-01  8.50000000E-01  8.50000000E-01
  8.50000000E-01  8.50000000E-01  8.50000000E-01  8.50000000E-01  8.50000000E-01
  8.50000000E-01  8.50000000E-01  8.50000000E-01  8.50000000E-01  8.50000000E-01
  8.50000000E-01  8.50000000E-01  8.50000000E-01  8.50000000E-01  8.50000000E-01
  8.50000000E-01  8.50000000E-01  8.50000000E-01  8.50000000E-01  8.50000000E-01
  8.50000000E-01  8.50000000E-01  8.50000000E-01  8.50000000E-01  8.50000000E-01
  8.50000000E-01  8.50000000E-01  8.50000000E-01  8.50000000E-01  8.50000000E-01
  8.50000000E-01  8.50000000E-01  8.50000000E-01  8.50000000E-01  8.50000000E-01
  8.50000000E-01  8.50000000E-01  8.50000000E-01  8.50000000E-01  8.50000000E-01
  8.50000000E-01  8.50000000E-01  8.50000000E-01  8.50000000E-01  8.50000000E-01
  8.50000000E-01  8.50000000E-01  8.50000000E-01  8.50000000E-01  8.50000000E-01
  8.50000000E-01  8.50000000E-01  8.50000000E-01  8.50000000E-01  8.50000000E-01
  8.50000000E-01  8.50000000E-01  8.50000000E-01  8.50000000E-01  8.50000000E-01
  8.50000000E-01  8.50000000E-01  8.50000000E-01  8.50000000E-01  8.50000000E-01
  8.50000000E-01  8.50000000E-01  8.50000000E-01  8.50000000E-01  8.50000000E-01
  8.50000000E-01  8.50000000E-01  8.50000000E-01  8.50000000E-01  8.50000000E-01
  8.50000000E-01  8.50000000E-01  8.50000000E-01  8.50000000E-01  8.50000000E-01
  8.50000000E-01  8.50000000E-01  8.50000000E-01  8.50000000E-01  8.50000000E-01
  8.50000000E-01  8.50000000E-01  8.50000000E-01  8.50000000E-01  8.50000000E-01
  8.50000000E-01  8.50000000E-01  8.50000000E-01  8.50000000E-01  8.50000000E-01
  8.50000000E-01  8.50000000E-01  8.50000000E-01  8.50000000E-01  8.50000000E-01
  8.50000000E-01  8.50000000E-01  8.50000000E-01  8.50000000E-01  8.50000000E-01
  8.50000000E-01  8.50000000E-01  8.50000000E-01  8.50000000E-01  8.50000000E-01
  8.50000000E-01  8.50000000E-01  8.50000000E-01  8.50000000E-01  8.50000000E-01
  8.50000000E-01  8.50000000E-01  8.50000000E-01  8.50000000E-01  8.50000000E-01
  8.50000000E-01  8.50000000E-01  8.50000000E-01  8.50000000E-01  8.50000000E-01
  8.50000000E-01  8.50000000E-01  8.50000000E-01  8.50000000E-01  8.50000000E-01
  8.50000000E-01  8.50000000E-01  8.50000000E-01  8.50000000E-01  8.50000000E-01
  8.50000000E-01  8.50000000E-01  8.50000000E-01  8.50000000E-01  8.50000000E-01
  8.50000000E-01  8.50000000E-01  8.50000000E-01  8.50000000E-01  8.50000000E-01
  8.50000000E-01  8.50000000E-01  8.50000000E-01  8.50000000E-01  8.50000000E-01
  8.50000000E-01  8.50000000E-01  8.50000000E-01  8.50000000E-01  8.50000000E-01
  8.50000000E-01  8.50000000E-01  8.50000000E-01  8.50000000E-01  8.50000000E-01
  8.50000000E-01  8.50000000E-01  8.50000000E-01  8.50000000E-01  8.50000000E-01
  8.50000000E-01  8.50000000E-01  8.50000000E-01  8.50000000E-01  8.50000000E-01
  8.50000000E-01  8.50000000E-01  8.50000000E-01  8.50000000E-01  8.50000000E-01
  8.50000000E-01  8.50000000E-01  8.50000000E-01  8.50000000E-01  8.50000000E-01
  8.50000000E-01  8.50000000E-01  8.50000000E-01  8.50000000E-01  8.50000000E-01
  8.50000000E-01  8.50000000E-01  8.50000000E-01  8.50000000E-01  8.50000000E-01
  8.50000000E-01  8.50000000E-01  8.50000000E-01  8.50000000E-01  8.50000000E-01
  8.50000000E-01  8.50000000E-01  8.50000000E-01  8.50000000E-01  8.50000000E-01
  8.50000000E-01  8.50000000E-01  8.50000000E-01  8.50000000E-01  8.50000000E-01
  8.50000000E-01  8.50000000E-01  8.50000000E-01  8.50000000E-01  8.50000000E-01
  8.50000000E-01  8.50000000E-01  8.50000000E-01  8.50000000E-01  8.50000000E-01
  8.50000000E-01  8.50000000E-01  8.50000000E-01  8.50000000E-01  8.50000000E-01
  8.50000000E-01  8.50000000E-01  8.50000000E-01  8.50000000E-01  8.50000000E-01
  8.50000000E-01  8.50000000E-01  8.50000000E-01  8.50000000E-01  8.50000000E-01
  8.50000000E-01  8.50000000E-01  8.50000000E-01  8.50000000E-01  8.50000000E-01
  8.50000000E-01  8.50000000E-01  8.50000000E-01  8.50000000E-01  8.50000000E-01
  8.50000000E-01  8.50000000E-01  8.50000000E-01  8.50000000E-01  8.50000000E-01
  8.50000000E-01  8.50000000E-01  8.50000000E-01  8.50000000E-01  8.50000000E-01
  8.50000000E-01  8.50000000E-01  8.50000000E-01  8.50000000E-01  8.50000000E-01
  8.50000000E-01  8.50000000E-01  8.50000000E-01  8.50000000E-01  8.50000000E-01
  8.50000000E-01  8.50000000E-01  8.50000000E-01  8.50000000E-01  8.50000000E-01
  8.50000000E-01  8.50000000E-01  8.50000000E-01  8.50000000E-01  8.50000000E-01
  8.50000000E-01  8.50000000E-01  8.50000000E-01  8.50000000E-01  8.50000000E-01
  8.50000000E-01  8.50000000E-01  8.50000000E-01  8.50000000E-01  8.50000000E-01
  8.50000000E-01  8.50000000E-01  8.50000000E-01  8.50000000E-01  8.50000000E-01
  8.50000000E-01  8.50000000E-01  8.50000000E-01  8.50000000E-01  8.50000000E-01
  8.50000000E-01  8.50000000E-01  8.50000000E-01  8.50000000E-01  8.50000000E-01
  8.50000000E-01  8.50000000E-01  8.50000000E-01  8.50000000E-01  8.50000000E-01
  8.50000000E-01  8.50000000E-01  8.50000000E-01  8.50000000E-01  8.50000000E-01
  8.50000000E-01  8.50000000E-01  8.50000000E-01  8.50000000E-01  8.50000000E-01
  8.50000000E-01  8.50000000E-01  8.50000000E-01  8.50000000E-01  8.50000000E-01
  8.50000000E-01  8.50000000E-01  8.50000000E-01  8.50000000E-01  8.50000000E-01
  8.50000000E-01  8.50000000E-01  8.50000000E-01  8.50000000E-01  8.50000000E-01
  8.50000000E-01  8.50000000E-01  8.50000000E-01  8.50000000E-01  8.50000000E-01
  8.50000000E-01  8.50000000E-01  8.50000000E-01  8.50000000E-01  8.50000000E-01
  8.50000000E-01  8.50000000E-01  8.50000000E-01  8.50000000E-01  8.50000000E-01
  8.50000000E-01  8.50000000E-01  8.50000000E-01  8.50000000E-01  8.50000000E-01
  8.50000000E-01  8.50000000E-01  8.50000000E-01  8.50000000E-01  8.50000000E-01
  8.50000000E-01  8.50000000E-01  8.50000000E-01  8.50000000E-01  8.50000000E-01
  8.50000000E-01  8.50000000E-01  8.50000000E-01  8.50000000E-01  8.50000000E-01
  8.50000000E-01  8.50000000E-01  8.50000000E-01  8.50000000E-01  8.50000000E-01
  8.50000000E-01  8.50000000E-01  8.50000000E-01  8.50000000E-01  8.50000000E-01
  8.50000000E-01  8.50000000E-01  8.50000000E-01  8.50000000E-01  8.50000000E-01
  8.50000000E-01  8.50000000E-01  8.50000000E-01  8.50000000E-01  8.50000000E-01
  8.50000000E-01  8.50000000E-01  8.50000000E-01  8.50000000E-01  8.50000000E-01
  8.50000000E-01  8.50000000E-01  8.50000000E-01  8.50000000E-01  8.50000000E-01
  8.50000000E-01  8.50000000E-01  8.50000000E-01  8.50000000E-01  8.50000000E-01
  8.50000000E-01  8.50000000E-01  8.50000000E-01  8.50000000E-01  8.50000000E-01
  8.50000000E-01  8.50000000E-01  8.50000000E-01  8.50000000E-01  8.50000000E-01
  8.50000000E-01  8.50000000E-01  8.50000000E-01  8.50000000E-01  8.50000000E-01
  8.50000000E-01  8.50000000E-01  8.50000000E-01  8.50000000E-01  8.50000000E-01
  8.50000000E-01  8.50000000E-01  8.50000000E-01  8.50000000E-01  8.50000000E-01
  8.50000000E-01  8.50000000E-01  8.50000000E-01  8.50000000E-01  8.50000000E-01
  8.50000000E-01  8.50000000E-01  8.50000000E-01  8.50000000E-01  8.50000000E-01
  8.50000000E-01  8.50000000E-01  8.50000000E-01  8.50000000E-01  8.50000000E-01
  8.50000000E-01  8.50000000E-01  8.50000000E-01  8.50000000E-01  8.50000000E-01
  8.50000000E-01  8.50000000E-01  8.50000000E-01  8.50000000E-01  8.50000000E-01
  8.50000000E-01  8.50000000E-01  8.50000000E-01  8.50000000E-01  8.50000000E-01
  8.50000000E-01  8.50000000E-01  8.50000000E-01  8.50000000E-01  8.50000000E-01
  8.50000000E-01  8.50000000E-01  8.50000000E-01  8.50000000E-01  8.50000000E-01
  8.50000000E-01  8.50000000E-01  8.50000000E-01  8.50000000E-01  8.50000000E-01
  8.50000000E-01  8.50000000E-01  8.50000000E-01  8.50000000E-01  8.50000000E-01
  8.50000000E-01  8.50000000E-01  8.50000000E-01  8.50000000E-01  8.50000000E-01
  8.50000000E-01  8.50000000E-01  8.50000000E-01  8.50000000E-01  8.50000000E-01
  8.50000000E-01  8.50000000E-01  8.50000000E-01  8.50000000E-01  8.50000000E-01
  8.50000000E-01  8.50000000E-01  8.50000000E-01  8.50000000E-01  8.50000000E-01
  8.50000000E-01  8.50000000E-01  8.50000000E-01  8.50000000E-01  8.50000000E-01
  8.50000000E-01  8.50000000E-01  8.50000000E-01  8.50000000E-01  8.50000000E-01
  8.50000000E-01  8.50000000E-01  8.50000000E-01  8.50000000E-01  8.50000000E-01
  8.50000000E-01  8.50000000E-01  8.50000000E-01  8.50000000E-01  8.50000000E-01
  8.50000000E-01  8.50000000E-01  8.50000000E-01  8.50000000E-01  8.50000000E-01
  8.50000000E-01  8.50000000E-01  8.50000000E-01  8.50000000E-01  8.50000000E-01
  8.50000000E-01  8.50000000E-01  8.50000000E-01  8.50000000E-01  8.50000000E-01
  8.50000000E-01  8.50000000E-01  8.50000000E-01  8.50000000E-01  8.50000000E-01
  8.50000000E-01  8.50000000E-01  8.50000000E-01  8.50000000E-01  8.50000000E-01
  8.50000000E-01  8.50000000E-01  8.50000000E-01  8.50000000E-01  8.50000000E-01
  8.50000000E-01  8.50000000E-01  8.50000000E-01  8.50000000E-01  8.50000000E-01
  8.50000000E-01  8.50000000E-01  8.50000000E-01  8.50000000E-01  8.50000000E-01
  8.50000000E-01  8.50000000E-01  8.50000000E-01  8.50000000E-01  8.50000000E-01
  8.50000000E-01  8.50000000E-01  8.50000000E-01  8.50000000E-01  8.50000000E-01
  8.50000000E-01  8.50000000E-01  8.50000000E-01  8.50000000E-01  8.50000000E-01
  8.50000000E-01  8.50000000E-01  8.50000000E-01  8.50000000E-01  8.50000000E-01
  8.50000000E-01  8.50000000E-01  8.50000000E-01  8.50000000E-01  8.50000000E-01
  8.50000000E-01  8.50000000E-01  8.50000000E-01  8.50000000E-01  8.50000000E-01
  8.50000000E-01  8.50000000E-01  8.50000000E-01  8.50000000E-01  8.50000000E-01
  8.50000000E-01  8.50000000E-01  8.50000000E-01  8.50000000E-01  8.50000000E-01
  8.50000000E-01  8.50000000E-01  8.50000000E-01  8.50000000E-01  8.50000000E-01
  8.50000000E-01  8.50000000E-01  8.50000000E-01  8.50000000E-01  8.50000000E-01
  8.50000000E-01  8.50000000E-01  8.50000000E-01  8.50000000E-01  8.50000000E-01
  8.50000000E-01  8.50000000E-01  8.50000000E-01  8.50000000E-01  8.50000000E-01
  8.50000000E-01  8.50000000E-01  8.50000000E-01  8.50000000E-01  8.50000000E-01
  8.50000000E-01  8.50000000E-01  8.50000000E-01  8.50000000E-01  8.50000000E-01
  8.50000000E-01  8.50000000E-01  8.50000000E-01  8.50000000E-01  8.50000000E-01
  8.50000000E-01  8.50000000E-01  8.50000000E-01  8.50000000E-01  8.50000000E-01
  8.50000000E-01  8.50000000E-01  8.50000000E-01  8.50000000E-01  8.50000000E-01
  8.50000000E-01  8.50000000E-01  8.50000000E-01  8.50000000E-01  8.50000000E-01
  8.50000000E-01  8.50000000E-01  8.50000000E-01  8.50000000E-01  8.50000000E-01
  8.50000000E-01  8.50000000E-01  8.50000000E-01  8.50000000E-01  8.50000000E-01
  8.50000000E-01  8.50000000E-01  8.50000000E-01  8.50000000E-01  8.50000000E-01
  8.50000000E-01  8.50000000E-01  8.50000000E-01  8.50000000E-01  8.50000000E-01
  8.50000000E-01  8.50000000E-01  8.50000000E-01  8.50000000E-01  8.50000000E-01
  8.50000000E-01  8.50000000E-01  8.50000000E-01  8.50000000E-01  8.50000000E-01
  8.50000000E-01  8.50000000E-01  8.50000000E-01  8.50000000E-01  8.50000000E-01
  8.50000000E-01  8.50000000E-01  8.50000000E-01  8.50000000E-01  8.50000000E-01
  8.50000000E-01  8.50000000E-01  8.50000000E-01  8.50000000E-01  8.50000000E-01
  8.50000000E-01  8.50000000E-01  8.50000000E-01  8.50000000E-01  8.50000000E-01
  8.50000000E-01  8.50000000E-01  8.50000000E-01  8.50000000E-01  8.50000000E-01
  8.50000000E-01  8.50000000E-01  8.50000000E-01  8.50000000E-01  8.50000000E-01
  8.50000000E-01  8.50000000E-01  8.50000000E-01  8.50000000E-01  8.50000000E-01
  8.50000000E-01  8.50000000E-01  8.50000000E-01  8.50000000E-01  8.50000000E-01
  8.50000000E-01  8.50000000E-01  8.50000000E-01  8.50000000E-01  8.50000000E-01
  8.50000000E-01  8.50000000E-01  8.50000000E-01  8.50000000E-01  8.50000000E-01
  8.50000000E-01  8.50000000E-01  8.50000000E-01  8.50000000E-01  8.50000000E-01
  8.50000000E-01  8.50000000E-01  8.50000000E-01  8.50000000E-01  8.50000000E-01
  8.50000000E-01  8.50000000E-01  8.50000000E-01  8.50000000E-01  8.50000000E-01
  8.50000000E-01  8.50000000E-01  8.50000000E-01  8.50000000E-01  8.50000000E-01
  8.50000000E-01  8.50000000E-01  8.50000000E-01  8.50000000E-01  8.50000000E-01
  8.50000000E-01  8.50000000E-01  8.50000000E-01  8.50000000E-01  8.50000000E-01
  8.50000000E-01  8.50000000E-01  8.50000000E-01  8.50000000E-01  8.50000000E-01
  8.50000000E-01  8.50000000E-01  8.50000000E-01  8.50000000E-01  8.50000000E-01
  8.50000000E-01  8.50000000E-01  8.50000000E-01  8.50000000E-01  8.50000000E-01
  8.50000000E-01  8.50000000E-01  8.50000000E-01  8.50000000E-01  8.50000000E-01
  8.50000000E-01  8.50000000E-01  8.50000000E-01  8.50000000E-01  8.50000000E-01
  8.50000000E-01  8.50000000E-01  8.50000000E-01  8.50000000E-01  8.50000000E-01
  8.50000000E-01  8.50000000E-01  8.50000000E-01  8.50000000E-01  8.50000000E-01
  8.50000000E-01  8.50000000E-01  8.50000000E-01  8.50000000E-01  8.50000000E-01
  8.50000000E-01  8.50000000E-01  8.50000000E-01  8.50000000E-01  8.50000000E-01
  8.50000000E-01  8.50000000E-01  8.50000000E-01  8.50000000E-01  8.50000000E-01
  8.50000000E-01  8.50000000E-01  8.50000000E-01  8.50000000E-01  8.50000000E-01
  8.50000000E-01  8.50000000E-01  8.50000000E-01  8.50000000E-01  8.50000000E-01
  8.50000000E-01  8.50000000E-01  8.50000000E-01  8.50000000E-01  8.50000000E-01
  8.50000000E-01  8.50000000E-01  8.50000000E-01  8.50000000E-01  8.50000000E-01
  8.50000000E-01  8.50000000E-01  8.50000000E-01  8.50000000E-01  8.50000000E-01
  8.50000000E-01  8.50000000E-01  8.50000000E-01  8.50000000E-01  8.50000000E-01
  8.50000000E-01  8.50000000E-01  8.50000000E-01  8.50000000E-01  8.50000000E-01
  8.50000000E-01  8.50000000E-01  8.50000000E-01  8.50000000E-01  8.50000000E-01
  8.50000000E-01  8.50000000E-01  8.50000000E-01  8.50000000E-01  8.50000000E-01
  8.50000000E-01  8.50000000E-01  8.50000000E-01  8.50000000E-01  8.50000000E-01
  8.50000000E-01  8.50000000E-01  8.50000000E-01  8.50000000E-01  8.50000000E-01
  8.50000000E-01  8.50000000E-01  8.50000000E-01  8.50000000E-01  8.50000000E-01
  8.50000000E-01  8.50000000E-01  8.50000000E-01  8.50000000E-01  8.50000000E-01
  8.50000000E-01  8.50000000E-01  8.50000000E-01  8.50000000E-01  8.50000000E-01
  8.50000000E-01  8.50000000E-01  8.50000000E-01  8.50000000E-01  8.50000000E-01
  8.50000000E-01  8.50000000E-01  8.50000000E-01  8.50000000E-01  8.50000000E-01
  8.50000000E-01  8.50000000E-01  8.50000000E-01  8.50000000E-01  8.50000000E-01
  8.50000000E-01  8.50000000E-01  8.50000000E-01  8.50000000E-01  8.50000000E-01
  8.50000000E-01  8.50000000E-01  8.50000000E-01  8.50000000E-01  8.50000000E-01
  8.50000000E-01  8.50000000E-01  8.50000000E-01  8.50000000E-01  8.50000000E-01
  8.50000000E-01  8.50000000E-01  8.50000000E-01  8.50000000E-01  8.50000000E-01
  8.50000000E-01  8.50000000E-01  8.50000000E-01  8.50000000E-01  8.50000000E-01
  8.50000000E-01  8.50000000E-01  8.50000000E-01  8.50000000E-01  8.50000000E-01
  8.50000000E-01  8.50000000E-01  8.50000000E-01  8.50000000E-01  8.50000000E-01
  8.50000000E-01  8.50000000E-01  8.50000000E-01  8.50000000E-01  8.50000000E-01
  8.50000000E-01  8.50000000E-01  8.50000000E-01  8.50000000E-01  8.50000000E-01
  8.50000000E-01  8.50000000E-01  8.50000000E-01  8.50000000E-01  8.50000000E-01
  8.50000000E-01  8.50000000E-01  8.50000000E-01  8.50000000E-01  8.50000000E-01
  8.50000000E-01  8.50000000E-01  8.50000000E-01  8.50000000E-01  8.50000000E-01
  8.50000000E-01  8.50000000E-01  8.50000000E-01  8.50000000E-01  8.50000000E-01
  8.50000000E-01  8.50000000E-01  8.50000000E-01  8.50000000E-01  8.50000000E-01
  8.50000000E-01  8.50000000E-01  8.50000000E-01  8.50000000E-01  8.50000000E-01
  8.50000000E-01  8.50000000E-01  8.50000000E-01  8.50000000E-01  8.50000000E-01
  8.50000000E-01  8.50000000E-01  8.50000000E-01  8.50000000E-01  8.50000000E-01
  8.50000000E-01  8.50000000E-01  8.50000000E-01  8.50000000E-01  8.50000000E-01
  8.50000000E-01  8.50000000E-01  8.50000000E-01  8.50000000E-01  8.50000000E-01
  8.50000000E-01  8.50000000E-01  8.50000000E-01  8.50000000E-01  8.50000000E-01
  8.50000000E-01  8.50000000E-01  8.50000000E-01  8.50000000E-01  8.50000000E-01
  8.50000000E-01  8.50000000E-01  8.50000000E-01  8.50000000E-01  8.50000000E-01
  8.50000000E-01  8.50000000E-01  8.50000000E-01  8.50000000E-01  8.50000000E-01
  8.50000000E-01  8.50000000E-01  8.50000000E-01  8.50000000E-01  8.50000000E-01
  8.50000000E-01  8.50000000E-01  8.50000000E-01  8.50000000E-01  8.50000000E-01
  8.50000000E-01  8.50000000E-01  8.50000000E-01  8.50000000E-01  8.50000000E-01
  8.50000000E-01  8.50000000E-01  8.50000000E-01  8.50000000E-01  8.50000000E-01
  8.50000000E-01  8.50000000E-01  8.50000000E-01  8.50000000E-01  8.50000000E-01
  8.50000000E-01  8.50000000E-01  8.50000000E-01  8.50000000E-01  8.50000000E-01
  8.50000000E-01  8.50000000E-01  8.50000000E-01  8.50000000E-01  8.50000000E-01
  8.50000000E-01  8.50000000E-01  8.50000000E-01  8.50000000E-01  8.50000000E-01
  8.50000000E-01  8.50000000E-01  8.50000000E-01  8.50000000E-01  8.50000000E-01
  8.50000000E-01  8.50000000E-01  8.50000000E-01  8.50000000E-01  8.50000000E-01
  8.50000000E-01  8.50000000E-01  8.50000000E-01  8.50000000E-01  8.50000000E-01
  8.50000000E-01  8.50000000E-01  8.50000000E-01  8.50000000E-01  8.50000000E-01
  8.50000000E-01  8.50000000E-01  8.50000000E-01  8.50000000E-01  8.50000000E-01
  8.50000000E-01  8.50000000E-01  8.50000000E-01  8.50000000E-01  8.50000000E-01
  8.50000000E-01  8.50000000E-01  8.50000000E-01  8.50000000E-01  8.50000000E-01
  8.50000000E-01  8.50000000E-01  8.50000000E-01  8.50000000E-01  8.50000000E-01
  8.50000000E-01  8.50000000E-01  8.50000000E-01  8.50000000E-01  8.50000000E-01
  8.50000000E-01  8.50000000E-01  8.50000000E-01  8.50000000E-01  8.50000000E-01
  8.50000000E-01  8.50000000E-01  8.50000000E-01  8.50000000E-01  8.50000000E-01
  8.50000000E-01  8.50000000E-01  8.50000000E-01  8.50000000E-01  8.50000000E-01
  8.50000000E-01  8.50000000E-01  8.50000000E-01  8.50000000E-01  8.50000000E-01
  8.50000000E-01  8.50000000E-01  8.50000000E-01  8.50000000E-01  8.50000000E-01
  8.50000000E-01  8.50000000E-01  8.50000000E-01  8.50000000E-01  8.50000000E-01
  8.50000000E-01  8.50000000E-01  8.50000000E-01  8.50000000E-01  8.50000000E-01
  8.50000000E-01  8.50000000E-01  8.50000000E-01  8.50000000E-01  8.50000000E-01
  8.50000000E-01  8.50000000E-01  8.50000000E-01  8.50000000E-01  8.50000000E-01
  8.50000000E-01  8.50000000E-01  8.50000000E-01  8.50000000E-01  8.50000000E-01
  8.50000000E-01  8.50000000E-01  8.50000000E-01  8.50000000E-01  8.50000000E-01
  8.50000000E-01  8.50000000E-01  8.50000000E-01  8.50000000E-01  8.50000000E-01
  8.50000000E-01  8.50000000E-01  8.50000000E-01  8.50000000E-01  8.50000000E-01
  8.50000000E-01  8.50000000E-01  8.50000000E-01  8.50000000E-01  8.50000000E-01
  8.50000000E-01  8.50000000E-01  8.50000000E-01  8.50000000E-01  8.50000000E-01
  8.50000000E-01  8.50000000E-01  8.50000000E-01  8.50000000E-01  8.50000000E-01
  8.50000000E-01  8.50000000E-01  8.50000000E-01  8.50000000E-01  8.50000000E-01
  8.50000000E-01  8.50000000E-01  8.50000000E-01  8.50000000E-01  8.50000000E-01
  8.50000000E-01  8.50000000E-01  8.50000000E-01  8.50000000E-01  8.50000000E-01
  8.50000000E-01  8.50000000E-01  8.50000000E-01  8.50000000E-01  8.50000000E-01
  8.50000000E-01  8.50000000E-01  8.50000000E-01  8.50000000E-01  8.50000000E-01
  8.50000000E-01  8.50000000E-01  8.50000000E-01  8.50000000E-01  8.50000000E-01
  8.50000000E-01  8.50000000E-01  8.50000000E-01  8.50000000E-01  8.50000000E-01
  8.50000000E-01  8.50000000E-01  8.50000000E-01  8.50000000E-01  8.50000000E-01
  8.50000000E-01  8.50000000E-01  8.50000000E-01  8.50000000E-01  8.50000000E-01
  8.50000000E-01  8.50000000E-01  8.50000000E-01  8.50000000E-01  8.50000000E-01
  8.50000000E-01  8.50000000E-01  8.50000000E-01  8.50000000E-01  8.50000000E-01
  8.50000000E-01  8.50000000E-01  8.50000000E-01  8.50000000E-01  8.50000000E-01
  8.50000000E-01  8.50000000E-01  8.50000000E-01  8.50000000E-01  8.50000000E-01
  8.50000000E-01  8.50000000E-01  8.50000000E-01  8.50000000E-01  8.50000000E-01
  8.50000000E-01  8.50000000E-01  8.50000000E-01  8.50000000E-01  8.50000000E-01
  8.50000000E-01  8.50000000E-01  8.50000000E-01  8.50000000E-01  8.50000000E-01
  8.50000000E-01  8.50000000E-01  8.50000000E-01  8.50000000E-01  8.50000000E-01
  8.50000000E-01  8.50000000E-01  8.50000000E-01  8.50000000E-01  8.50000000E-01
  8.50000000E-01  8.50000000E-01  8.50000000E-01  8.50000000E-01  8.50000000E-01
  8.50000000E-01  8.50000000E-01  8.50000000E-01  8.50000000E-01  8.50000000E-01
  8.50000000E-01  8.50000000E-01  8.50000000E-01  8.50000000E-01  8.50000000E-01
  8.50000000E-01  8.50000000E-01  8.50000000E-01  8.50000000E-01  8.50000000E-01
  8.50000000E-01  8.50000000E-01  8.50000000E-01  8.50000000E-01  8.50000000E-01
  8.50000000E-01  8.50000000E-01  8.50000000E-01  8.50000000E-01  8.50000000E-01
  8.50000000E-01  8.50000000E-01  8.50000000E-01  8.50000000E-01  8.50000000E-01
  8.50000000E-01  8.50000000E-01  8.50000000E-01  8.50000000E-01  8.50000000E-01
  8.50000000E-01  8.50000000E-01  8.50000000E-01  8.50000000E-01  8.50000000E-01
  8.50000000E-01  8.50000000E-01  8.50000000E-01  8.50000000E-01  8.50000000E-01
  8.50000000E-01  8.50000000E-01  8.50000000E-01  8.50000000E-01  8.50000000E-01
  8.50000000E-01  8.50000000E-01  8.50000000E-01  8.50000000E-01  8.50000000E-01
  8.50000000E-01  8.50000000E-01  8.50000000E-01  8.50000000E-01  8.50000000E-01
  8.50000000E-01  8.50000000E-01  8.50000000E-01  8.50000000E-01  8.50000000E-01
  8.50000000E-01  8.50000000E-01  8.50000000E-01  8.50000000E-01  8.50000000E-01
  8.50000000E-01  8.50000000E-01  8.50000000E-01  8.50000000E-01  8.50000000E-01
  8.50000000E-01  8.50000000E-01  8.50000000E-01  8.50000000E-01  8.50000000E-01
  8.50000000E-01  8.50000000E-01  8.50000000E-01  8.50000000E-01  8.50000000E-01
  8.50000000E-01  8.50000000E-01  8.50000000E-01  8.50000000E-01  8.50000000E-01
  8.50000000E-01  8.50000000E-01  8.50000000E-01  8.50000000E-01  8.50000000E-01
  8.50000000E-01  8.50000000E-01  8.50000000E-01  8.50000000E-01  8.50000000E-01
  8.50000000E-01  8.50000000E-01  8.50000000E-01  8.50000000E-01  8.50000000E-01
  8.50000000E-01  8.50000000E-01  8.50000000E-01  8.50000000E-01  8.50000000E-01
  8.50000000E-01  8.50000000E-01  8.50000000E-01  8.50000000E-01  8.50000000E-01
  8.50000000E-01  8.50000000E-01  8.50000000E-01  8.50000000E-01  8.50000000E-01
  8.50000000E-01  8.50000000E-01  8.50000000E-01  8.50000000E-01  8.50000000E-01
  8.50000000E-01  8.50000000E-01  8.50000000E-01  8.50000000E-01  8.50000000E-01
  8.50000000E-01  8.50000000E-01  8.50000000E-01  8.50000000E-01  8.50000000E-01
  8.50000000E-01  8.50000000E-01  8.50000000E-01  8.50000000E-01  8.50000000E-01
  8.50000000E-01  8.50000000E-01  8.50000000E-01  8.50000000E-01  8.50000000E-01
  8.50000000E-01  8.50000000E-01  8.50000000E-01  8.50000000E-01  8.50000000E-01
  8.50000000E-01  8.50000000E-01  8.50000000E-01  8.50000000E-01  8.50000000E-01
  8.50000000E-01  8.50000000E-01  8.50000000E-01  8.50000000E-01  8.50000000E-01
  8.50000000E-01  8.50000000E-01  8.50000000E-01  8.50000000E-01  8.50000000E-01
  8.50000000E-01  8.50000000E-01  8.50000000E-01  8.50000000E-01  8.50000000E-01
  8.50000000E-01  8.50000000E-01  8.50000000E-01  8.50000000E-01  8.50000000E-01
  8.50000000E-01  8.50000000E-01  8.50000000E-01  8.50000000E-01  8.50000000E-01
  8.50000000E-01  8.50000000E-01  8.50000000E-01  8.50000000E-01  8.50000000E-01
  8.50000000E-01  8.50000000E-01  8.50000000E-01  8.50000000E-01  8.50000000E-01
  8.50000000E-01  8.50000000E-01  8.50000000E-01  8.50000000E-01  8.50000000E-01
  8.50000000E-01  8.50000000E-01  8.50000000E-01  8.50000000E-01  8.50000000E-01
  8.50000000E-01  8.50000000E-01  8.50000000E-01  8.50000000E-01  8.50000000E-01
  8.50000000E-01  8.50000000E-01  8.50000000E-01  8.50000000E-01  8.50000000E-01
  8.50000000E-01  8.50000000E-01  8.50000000E-01  8.50000000E-01  8.50000000E-01
  8.50000000E-01  8.50000000E-01  8.50000000E-01  8.50000000E-01  8.50000000E-01
  8.50000000E-01  8.50000000E-01  8.50000000E-01  8.50000000E-01  8.50000000E-01
  8.50000000E-01  8.50000000E-01  8.50000000E-01  8.50000000E-01  8.50000000E-01
  8.50000000E-01  8.50000000E-01  8.50000000E-01  8.50000000E-01  8.50000000E-01
  8.50000000E-01  8.50000000E-01  8.50000000E-01  8.50000000E-01  8.50000000E-01
  8.50000000E-01  8.50000000E-01  8.50000000E-01  8.50000000E-01  8.50000000E-01
  8.50000000E-01  8.50000000E-01  8.50000000E-01  8.50000000E-01  8.50000000E-01
  8.50000000E-01  8.50000000E-01  8.50000000E-01  8.50000000E-01  8.50000000E-01
  8.50000000E-01  8.50000000E-01  8.50000000E-01  8.50000000E-01  8.50000000E-01
  8.50000000E-01  8.50000000E-01  8.50000000E-01  8.50000000E-01  8.50000000E-01
  8.50000000E-01  8.50000000E-01  8.50000000E-01  8.50000000E-01  8.50000000E-01
  8.50000000E-01  8.50000000E-01  8.50000000E-01  8.50000000E-01  8.50000000E-01
  8.50000000E-01  8.50000000E-01  8.50000000E-01  8.50000000E-01  8.50000000E-01
  8.50000000E-01  8.50000000E-01  8.50000000E-01  8.50000000E-01  8.50000000E-01
  8.50000000E-01  8.50000000E-01  8.50000000E-01  8.50000000E-01  8.50000000E-01
  8.50000000E-01  8.50000000E-01  8.50000000E-01  8.50000000E-01  8.50000000E-01
  8.50000000E-01  8.50000000E-01  8.50000000E-01  8.50000000E-01  8.50000000E-01
  8.50000000E-01  8.50000000E-01  8.50000000E-01  8.50000000E-01  8.50000000E-01
  8.50000000E-01  8.50000000E-01  8.50000000E-01  8.50000000E-01  8.50000000E-01
  8.50000000E-01  8.50000000E-01  8.50000000E-01  8.50000000E-01  8.50000000E-01
  8.50000000E-01  8.50000000E-01  8.50000000E-01  8.50000000E-01  8.50000000E-01
  8.50000000E-01  8.50000000E-01  8.50000000E-01  8.50000000E-01  8.50000000E-01
  8.50000000E-01  8.50000000E-01  8.50000000E-01  8.50000000E-01  8.50000000E-01
  8.50000000E-01  8.50000000E-01  8.50000000E-01  8.50000000E-01  8.50000000E-01
  8.50000000E-01  8.50000000E-01  8.50000000E-01  8.50000000E-01  8.50000000E-01
  8.50000000E-01  8.50000000E-01  8.50000000E-01  8.50000000E-01  8.50000000E-01
  8.50000000E-01  8.50000000E-01  8.50000000E-01  8.50000000E-01  8.50000000E-01
  8.50000000E-01  8.50000000E-01  8.50000000E-01  8.50000000E-01  8.50000000E-01
  8.50000000E-01  8.50000000E-01  8.50000000E-01  8.50000000E-01  8.50000000E-01
  8.50000000E-01  8.50000000E-01  8.50000000E-01  8.50000000E-01  8.50000000E-01
  8.50000000E-01  8.50000000E-01  8.50000000E-01  8.50000000E-01  8.50000000E-01
  8.50000000E-01  8.50000000E-01  8.50000000E-01  8.50000000E-01  8.50000000E-01
  8.50000000E-01  8.50000000E-01  8.50000000E-01  8.50000000E-01  8.50000000E-01
  8.50000000E-01  8.50000000E-01  8.50000000E-01  8.50000000E-01  8.50000000E-01
  8.50000000E-01  8.50000000E-01  8.50000000E-01  8.50000000E-01  8.50000000E-01
  8.50000000E-01  8.50000000E-01  8.50000000E-01  8.50000000E-01  8.50000000E-01
  8.50000000E-01  8.50000000E-01  8.50000000E-01  8.50000000E-01  8.50000000E-01
  8.50000000E-01  8.50000000E-01  8.50000000E-01  8.50000000E-01  8.50000000E-01
  8.50000000E-01  8.50000000E-01  8.50000000E-01  8.50000000E-01  8.50000000E-01
  8.50000000E-01  8.50000000E-01  8.50000000E-01  8.50000000E-01  8.50000000E-01
  8.50000000E-01  8.50000000E-01  8.50000000E-01  8.50000000E-01  8.50000000E-01
  8.50000000E-01  8.50000000E-01  8.50000000E-01  8.50000000E-01  8.50000000E-01
  8.50000000E-01  8.50000000E-01  8.50000000E-01  8.50000000E-01  8.50000000E-01
  8.50000000E-01  8.50000000E-01  8.50000000E-01  8.50000000E-01  8.50000000E-01
  8.50000000E-01  8.50000000E-01  8.50000000E-01  8.50000000E-01  8.50000000E-01
  8.50000000E-01  8.50000000E-01  8.50000000E-01  8.50000000E-01  8.50000000E-01
  8.50000000E-01  8.50000000E-01  8.50000000E-01  8.50000000E-01  8.50000000E-01
  8.50000000E-01  8.50000000E-01  8.50000000E-01  8.50000000E-01  8.50000000E-01
  8.50000000E-01  8.50000000E-01  8.50000000E-01  8.50000000E-01  8.50000000E-01
  8.50000000E-01  8.50000000E-01  8.50000000E-01  8.50000000E-01  8.50000000E-01
  8.50000000E-01  8.50000000E-01  8.50000000E-01  8.50000000E-01  8.50000000E-01
  8.50000000E-01  8.50000000E-01  8.50000000E-01  8.50000000E-01  8.50000000E-01
  8.50000000E-01  8.50000000E-01  8.50000000E-01  8.50000000E-01  8.50000000E-01
  8.50000000E-01  8.50000000E-01  8.50000000E-01  8.50000000E-01  8.50000000E-01
  8.50000000E-01  8.50000000E-01  8.50000000E-01  8.50000000E-01  8.50000000E-01
  8.50000000E-01  8.50000000E-01  8.50000000E-01  8.50000000E-01  8.50000000E-01
  8.50000000E-01  8.50000000E-01  8.50000000E-01  8.50000000E-01  8.50000000E-01
  8.50000000E-01  8.50000000E-01  8.50000000E-01  8.50000000E-01  8.50000000E-01
  8.50000000E-01  8.50000000E-01  8.50000000E-01  8.50000000E-01  8.50000000E-01
  8.50000000E-01  8.50000000E-01  8.50000000E-01  8.50000000E-01  8.50000000E-01
  8.50000000E-01  8.50000000E-01  8.50000000E-01  8.50000000E-01  8.50000000E-01
  8.50000000E-01  8.50000000E-01  8.50000000E-01  8.50000000E-01  8.50000000E-01
  8.50000000E-01  8.50000000E-01  8.50000000E-01  8.50000000E-01  8.50000000E-01
  8.50000000E-01  8.50000000E-01  8.50000000E-01  8.50000000E-01  8.50000000E-01
  8.50000000E-01  8.50000000E-01  8.50000000E-01  8.50000000E-01  8.50000000E-01
  8.50000000E-01  8.50000000E-01  8.50000000E-01  8.50000000E-01  8.50000000E-01
  8.50000000E-01  8.50000000E-01  8.50000000E-01  8.50000000E-01  8.50000000E-01
  8.50000000E-01  8.50000000E-01  8.50000000E-01  8.50000000E-01  8.50000000E-01
  8.50000000E-01  8.50000000E-01  8.50000000E-01  8.50000000E-01  8.50000000E-01
  8.50000000E-01  8.50000000E-01  8.50000000E-01  8.50000000E-01  8.50000000E-01
  8.50000000E-01  8.50000000E-01  8.50000000E-01  8.50000000E-01  8.50000000E-01
  8.50000000E-01  8.50000000E-01  8.50000000E-01  8.50000000E-01  8.50000000E-01
  8.50000000E-01  8.50000000E-01  8.50000000E-01  8.50000000E-01  8.50000000E-01
  8.50000000E-01  8.50000000E-01  8.50000000E-01  8.50000000E-01  8.50000000E-01
  8.50000000E-01  8.50000000E-01  8.50000000E-01  8.50000000E-01  8.50000000E-01
  8.50000000E-01  8.50000000E-01  8.50000000E-01  8.50000000E-01  8.50000000E-01
  8.50000000E-01  8.50000000E-01  8.50000000E-01  8.50000000E-01  8.50000000E-01
  8.50000000E-01  8.50000000E-01  8.50000000E-01  8.50000000E-01  8.50000000E-01
  8.50000000E-01  8.50000000E-01  8.50000000E-01  8.50000000E-01  8.50000000E-01
  8.50000000E-01  8.50000000E-01  8.50000000E-01  8.50000000E-01  8.50000000E-01
  8.50000000E-01  8.50000000E-01  8.50000000E-01  8.50000000E-01  8.50000000E-01
  8.50000000E-01  8.50000000E-01  8.50000000E-01  8.50000000E-01  8.50000000E-01
  8.50000000E-01  8.50000000E-01  8.50000000E-01  8.50000000E-01  8.50000000E-01
  8.50000000E-01  8.50000000E-01  8.50000000E-01  8.50000000E-01  8.50000000E-01
  8.50000000E-01  8.50000000E-01  8.50000000E-01  8.50000000E-01  8.50000000E-01
  8.50000000E-01  8.50000000E-01  8.50000000E-01  8.50000000E-01  8.50000000E-01
  8.50000000E-01  8.50000000E-01  8.50000000E-01  8.50000000E-01  8.50000000E-01
  8.50000000E-01  8.50000000E-01  8.50000000E-01  8.50000000E-01  8.50000000E-01
  8.50000000E-01  8.50000000E-01  8.50000000E-01  8.50000000E-01  8.50000000E-01
  8.50000000E-01  8.50000000E-01  8.50000000E-01  8.50000000E-01  8.50000000E-01
  8.50000000E-01  8.50000000E-01  8.50000000E-01  8.50000000E-01  8.50000000E-01
  8.50000000E-01  8.50000000E-01  8.50000000E-01  8.50000000E-01  8.50000000E-01
  8.50000000E-01  8.50000000E-01  8.50000000E-01  8.50000000E-01  8.50000000E-01
  8.50000000E-01  8.50000000E-01  8.50000000E-01  8.50000000E-01  8.50000000E-01
  8.50000000E-01  8.50000000E-01  8.50000000E-01  8.50000000E-01  8.50000000E-01
  8.50000000E-01  8.50000000E-01  8.50000000E-01  8.50000000E-01  8.50000000E-01
  8.50000000E-01  8.50000000E-01  8.50000000E-01  8.50000000E-01  8.50000000E-01
  8.50000000E-01  8.50000000E-01  8.50000000E-01  8.50000000E-01  8.50000000E-01
  8.50000000E-01  8.50000000E-01  8.50000000E-01  8.50000000E-01  8.50000000E-01
  8.50000000E-01  8.50000000E-01  8.50000000E-01  8.50000000E-01  8.50000000E-01
  8.50000000E-01  8.50000000E-01  8.50000000E-01  8.50000000E-01  8.50000000E-01
  8.50000000E-01  8.50000000E-01  8.50000000E-01  8.50000000E-01  8.50000000E-01
  8.50000000E-01  8.50000000E-01  8.50000000E-01  8.50000000E-01  8.50000000E-01
  8.50000000E-01  8.50000000E-01  8.50000000E-01  8.50000000E-01  8.50000000E-01
  8.50000000E-01  8.50000000E-01  8.50000000E-01  8.50000000E-01  8.50000000E-01
  8.50000000E-01  8.50000000E-01  8.50000000E-01  8.50000000E-01  8.50000000E-01
  8.50000000E-01  8.50000000E-01  8.50000000E-01  8.50000000E-01  8.50000000E-01
  8.50000000E-01  8.50000000E-01  8.50000000E-01  8.50000000E-01  8.50000000E-01
  8.50000000E-01  8.50000000E-01  8.50000000E-01  8.50000000E-01  8.50000000E-01
  8.50000000E-01  8.50000000E-01  8.50000000E-01  8.50000000E-01  8.50000000E-01
  8.50000000E-01  8.50000000E-01  8.50000000E-01  8.50000000E-01  8.50000000E-01
  8.50000000E-01  8.50000000E-01  8.50000000E-01  8.50000000E-01  8.50000000E-01
  8.50000000E-01  8.50000000E-01  8.50000000E-01  8.50000000E-01  8.50000000E-01
  8.50000000E-01  8.50000000E-01  8.50000000E-01  8.50000000E-01  8.50000000E-01
  8.50000000E-01  8.50000000E-01  8.50000000E-01  8.50000000E-01  8.50000000E-01
  8.50000000E-01  8.50000000E-01  8.50000000E-01  8.50000000E-01  8.50000000E-01
  8.50000000E-01  8.50000000E-01  8.50000000E-01  8.50000000E-01  8.50000000E-01
  8.50000000E-01  8.50000000E-01  8.50000000E-01  8.50000000E-01  8.50000000E-01
  8.50000000E-01  8.50000000E-01  8.50000000E-01  8.50000000E-01  8.50000000E-01
  8.50000000E-01  8.50000000E-01  8.50000000E-01  8.50000000E-01  8.50000000E-01
  8.50000000E-01  8.50000000E-01  8.50000000E-01  8.50000000E-01  8.50000000E-01
  8.50000000E-01  8.50000000E-01  8.50000000E-01  8.50000000E-01  8.50000000E-01
  8.50000000E-01  8.50000000E-01  8.50000000E-01  8.50000000E-01  8.50000000E-01
  8.50000000E-01  8.50000000E-01  8.50000000E-01  8.50000000E-01  8.50000000E-01
  8.50000000E-01  8.50000000E-01  8.50000000E-01  8.50000000E-01  8.50000000E-01
  8.50000000E-01  8.50000000E-01  8.50000000E-01  8.50000000E-01  8.50000000E-01
  8.50000000E-01  8.50000000E-01  8.50000000E-01  8.50000000E-01  8.50000000E-01
  8.50000000E-01  8.50000000E-01  8.50000000E-01  8.50000000E-01  8.50000000E-01
  8.50000000E-01  8.50000000E-01  8.50000000E-01  8.50000000E-01  8.50000000E-01
  8.50000000E-01  8.50000000E-01  8.50000000E-01  8.50000000E-01  8.50000000E-01
  8.50000000E-01  8.50000000E-01  8.50000000E-01  8.50000000E-01  8.50000000E-01
  8.50000000E-01  8.50000000E-01  8.50000000E-01  8.50000000E-01  8.50000000E-01
  8.50000000E-01  8.50000000E-01  8.50000000E-01  8.50000000E-01  8.50000000E-01
  8.50000000E-01  8.50000000E-01  8.50000000E-01  8.50000000E-01  8.50000000E-01
  8.50000000E-01  8.50000000E-01  8.50000000E-01  8.50000000E-01  8.50000000E-01
  8.50000000E-01  8.50000000E-01  8.50000000E-01  8.50000000E-01  8.50000000E-01
  8.50000000E-01  8.50000000E-01  8.50000000E-01  8.50000000E-01  8.50000000E-01
  8.50000000E-01  8.50000000E-01  8.50000000E-01  8.50000000E-01  8.50000000E-01
  8.50000000E-01  8.50000000E-01  8.50000000E-01  8.50000000E-01  8.50000000E-01
  8.50000000E-01  8.50000000E-01  8.50000000E-01  8.50000000E-01  8.50000000E-01
  8.50000000E-01  8.50000000E-01  8.50000000E-01  8.50000000E-01  8.50000000E-01
  8.50000000E-01  8.50000000E-01  8.50000000E-01  8.50000000E-01  8.50000000E-01
  8.50000000E-01  8.50000000E-01  8.50000000E-01  8.50000000E-01  8.50000000E-01
  8.50000000E-01  8.50000000E-01  8.50000000E-01  8.50000000E-01  8.50000000E-01
  8.50000000E-01  8.50000000E-01  8.50000000E-01  8.50000000E-01  8.50000000E-01
  8.50000000E-01  8.50000000E-01  8.50000000E-01  8.50000000E-01  8.50000000E-01
  8.50000000E-01  8.50000000E-01  8.50000000E-01  8.50000000E-01  8.50000000E-01
  8.50000000E-01  8.50000000E-01  8.50000000E-01  8.50000000E-01  8.50000000E-01
  8.50000000E-01  8.50000000E-01  8.50000000E-01  8.50000000E-01  8.50000000E-01
  8.50000000E-01  8.50000000E-01  8.50000000E-01  8.50000000E-01  8.50000000E-01
  8.50000000E-01  8.50000000E-01  8.50000000E-01  8.50000000E-01  8.50000000E-01
  8.50000000E-01  8.50000000E-01  8.50000000E-01  8.50000000E-01
%FLAG IPOL                                                                      
%FORMAT(1I8)                                                                    
       0
